<event>
 6    1  0.1823098E-004  0.5003069E+03  0.7546771E-02  0.9399123E-01
        -11   -1    0    0    0    0  0.00000000000E+00  0.00000000000E+00  0.50000000000E+03  0.50000000000E+03  0.00000000000E+00 0.  1.
         11   -1    0    0    0    0 -0.00000000000E+00 -0.00000000000E+00 -0.50000000000E+03  0.50000000000E+03  0.00000000000E+00 0.  1.
        -11    1    1    2    0    0 -0.38025483807E+01  0.93570436187E+01  0.25018472270E+03  0.25038851633E+03  0.00000000000E+00 0.  1.
         11    1    1    2    0    0  0.54401635116E+02  0.17529377173E+01  0.24391921661E+03  0.24991837653E+03  0.00000000000E+00 0.  1.
        -15    1    1    2    0    0 -0.82970046401E-01 -0.27544071464E+01 -0.36051629719E+00  0.32986881873E+01  0.17770000000E+01 0. -1.
         15    1    1    2    0    0 -0.50516116689E+02 -0.83555741896E+01 -0.49374342301E+03  0.49639441895E+03  0.17770000000E+01 0.  1.
</event>
<event>
 6    1  0.1823098E-004  0.5056961E+03  0.7546771E-02  0.9387154E-01
        -11   -1    0    0    0    0  0.00000000000E+00  0.00000000000E+00  0.50000000000E+03  0.50000000000E+03  0.00000000000E+00 0.  1.
         11   -1    0    0    0    0 -0.00000000000E+00 -0.00000000000E+00 -0.50000000000E+03  0.50000000000E+03  0.00000000000E+00 0.  1.
        -11    1    1    2    0    0  0.37671894829E+01  0.77329151340E+01  0.47857530355E+03  0.47865259935E+03  0.00000000000E+00 0.  1.
         11    1    1    2    0    0  0.24041230259E+01  0.72714220728E+01 -0.49424459331E+03  0.49430392615E+03  0.00000000000E+00 0.  1.
        -15    1    1    2    0    0  0.14314987176E+01 -0.51116867341E+01  0.13010247208E+02  0.14163431479E+02  0.17770000000E+01 0.  1.
         15    1    1    2    0    0 -0.76028112264E+01 -0.98926504727E+01  0.26590425529E+01  0.12880043021E+02  0.17770000000E+01 0. -1.
</event>
<event>
 6    1  0.1823098E-004  0.5013814E+03  0.7546771E-02  0.9396724E-01
        -11   -1    0    0    0    0  0.00000000000E+00  0.00000000000E+00  0.50000000000E+03  0.50000000000E+03  0.00000000000E+00 0.  1.
         11   -1    0    0    0    0 -0.00000000000E+00 -0.00000000000E+00 -0.50000000000E+03  0.50000000000E+03  0.00000000000E+00 0.  1.
        -11    1    1    2    0    0  0.51405770528E+01 -0.13494853325E+01  0.39176597897E+03  0.39180202772E+03  0.00000000000E+00 0.  1.
         11    1    1    2    0    0 -0.23441106992E+02 -0.14406723768E+02 -0.49785884379E+03  0.49861855915E+03  0.00000000000E+00 0.  1.
        -15    1    1    2    0    0  0.10811684177E+02  0.12588133296E+02  0.89195669026E+02  0.90743477543E+02  0.17770000000E+01 0. -1.
         15    1    1    2    0    0  0.74888457619E+01  0.31680758042E+01  0.16897195791E+02  0.18835935595E+02  0.17770000000E+01 0.  1.
</event>
<event>
 6    1  0.1823098E-004  0.5005077E+03  0.7546771E-02  0.9398674E-01
        -11   -1    0    0    0    0  0.00000000000E+00  0.00000000000E+00  0.50000000000E+03  0.50000000000E+03  0.00000000000E+00 0.  1.
         11   -1    0    0    0    0 -0.00000000000E+00 -0.00000000000E+00 -0.50000000000E+03  0.50000000000E+03  0.00000000000E+00 0.  1.
        -11    1    1    2    0    0 -0.67559675337E+01 -0.12343412947E+01  0.49944509612E+03  0.49949231299E+03  0.00000000000E+00 0.  1.
         11    1    1    2    0    0  0.44194917830E+01  0.47582959431E+01 -0.45653420786E+03  0.45658039406E+03  0.00000000000E+00 0.  1.
        -15    1    1    2    0    0  0.40832356122E+01  0.49525394959E+00 -0.16560592145E+02  0.17156020248E+02  0.17770000000E+01 0. -1.
         15    1    1    2    0    0 -0.17467598616E+01 -0.40192085980E+01 -0.26350296116E+02  0.26771272704E+02  0.17770000000E+01 0. -1.
</event>
<event>
 6    1  0.1823098E-004  0.5009712E+03  0.7546771E-02  0.9397639E-01
        -11   -1    0    0    0    0  0.00000000000E+00  0.00000000000E+00  0.50000000000E+03  0.50000000000E+03  0.00000000000E+00 0.  1.
         11   -1    0    0    0    0 -0.00000000000E+00 -0.00000000000E+00 -0.50000000000E+03  0.50000000000E+03  0.00000000000E+00 0.  1.
        -11    1    1    2    0    0 -0.96720297641E+01 -0.94109897887E+01  0.49884628647E+03  0.49902878916E+03  0.00000000000E+00 0.  1.
         11    1    1    2    0    0 -0.36543276801E+01  0.15080793507E+02 -0.15667013270E+03  0.15743670132E+03  0.00000000000E+00 0.  1.
        -15    1    1    2    0    0  0.10031301434E+02  0.68863916134E+01 -0.72127423470E+02  0.73168110153E+02  0.17770000000E+01 0. -1.
         15    1    1    2    0    0  0.32950560101E+01 -0.12556195331E+02 -0.27004873031E+03  0.27036639936E+03  0.17770000000E+01 0.  1.
</event>
<event>
 6    1  0.1823098E-004  0.5008672E+03  0.7546771E-02  0.9397871E-01
        -11   -1    0    0    0    0  0.00000000000E+00  0.00000000000E+00  0.50000000000E+03  0.50000000000E+03  0.00000000000E+00 0. -1.
         11   -1    0    0    0    0 -0.00000000000E+00 -0.00000000000E+00 -0.50000000000E+03  0.50000000000E+03  0.00000000000E+00 0. -1.
        -11    1    1    2    0    0 -0.89112592911E+01 -0.75098657446E+01  0.49899676233E+03  0.49913282545E+03  0.00000000000E+00 0. -1.
         11    1    1    2    0    0 -0.57928795483E+01  0.18369479064E+01 -0.40929107619E+03  0.40933619053E+03  0.00000000000E+00 0. -1.
        -15    1    1    2    0    0  0.35862375218E+01 -0.10850557859E+01 -0.36233050214E+02  0.36469577766E+02  0.17770000000E+01 0. -1.
         15    1    1    2    0    0  0.11117901318E+02  0.67579736242E+01 -0.53472635927E+02  0.55061406259E+02  0.17770000000E+01 0.  1.
</event>
<event>
 6    1  0.1823098E-004  0.5067622E+03  0.7546771E-02  0.9384805E-01
        -11   -1    0    0    0    0  0.00000000000E+00  0.00000000000E+00  0.50000000000E+03  0.50000000000E+03  0.00000000000E+00 0.  1.
         11   -1    0    0    0    0 -0.00000000000E+00 -0.00000000000E+00 -0.50000000000E+03  0.50000000000E+03  0.00000000000E+00 0. -1.
        -11    1    1    2    0    0 -0.83063913446E+01 -0.15377086708E+02  0.36290954431E+03  0.36333013677E+03  0.00000000000E+00 0.  1.
         11    1    1    2    0    0  0.28422292235E+02  0.81992586319E+01 -0.49234992150E+03  0.49323777201E+03  0.00000000000E+00 0. -1.
        -15    1    1    2    0    0 -0.22234401039E+02 -0.75344859788E+01  0.14779218459E+02  0.27797843365E+02  0.17770000000E+01 0.  1.
         15    1    1    2    0    0  0.21185001481E+01  0.14712314055E+02  0.11466115873E+03  0.11563424786E+03  0.17770000000E+01 0. -1.
</event>
<event>
 6    1  0.1823098E-004  0.5007832E+03  0.7546771E-02  0.9398059E-01
        -11   -1    0    0    0    0  0.00000000000E+00  0.00000000000E+00  0.50000000000E+03  0.50000000000E+03  0.00000000000E+00 0.  1.
         11   -1    0    0    0    0 -0.00000000000E+00 -0.00000000000E+00 -0.50000000000E+03  0.50000000000E+03  0.00000000000E+00 0. -1.
        -11    1    1    2    0    0 -0.48825715911E+01  0.69625023058E+01  0.44446381446E+03  0.44454515891E+03  0.00000000000E+00 0.  1.
         11    1    1    2    0    0  0.35883635470E+00 -0.13423589861E+02 -0.49903620616E+03  0.49921684326E+03  0.00000000000E+00 0. -1.
        -15    1    1    2    0    0 -0.45918682348E+00  0.55885437663E+01  0.43921617877E+02  0.44313755425E+02  0.17770000000E+01 0. -1.
         15    1    1    2    0    0  0.49829220599E+01  0.87254378938E+00  0.10650773830E+02  0.11924242412E+02  0.17770000000E+01 0.  1.
</event>
<event>
 6    1  0.1823098E-004  0.5005098E+03  0.7546771E-02  0.9398670E-01
        -11   -1    0    0    0    0  0.00000000000E+00  0.00000000000E+00  0.50000000000E+03  0.50000000000E+03  0.00000000000E+00 0. -1.
         11   -1    0    0    0    0 -0.00000000000E+00 -0.00000000000E+00 -0.50000000000E+03  0.50000000000E+03  0.00000000000E+00 0. -1.
        -11    1    1    2    0    0  0.26581828804E+02  0.25190779809E+02  0.23039429325E+03  0.23328673210E+03  0.00000000000E+00 0. -1.
         11    1    1    2    0    0 -0.34607033038E+02 -0.29240877473E+02 -0.49743115074E+03  0.49949016545E+03  0.00000000000E+00 0. -1.
        -15    1    1    2    0    0  0.60259900626E+01  0.21882569619E+01  0.16451090699E+03  0.16464536821E+03  0.17770000000E+01 0. -1.
         15    1    1    2    0    0  0.19992141713E+01  0.18618407019E+01  0.10252595050E+03  0.10257773424E+03  0.17770000000E+01 0. -1.
</event>
<event>
 6    1  0.1823098E-004  0.5061556E+03  0.7546771E-02  0.9386141E-01
        -11   -1    0    0    0    0  0.00000000000E+00  0.00000000000E+00  0.50000000000E+03  0.50000000000E+03  0.00000000000E+00 0.  1.
         11   -1    0    0    0    0 -0.00000000000E+00 -0.00000000000E+00 -0.50000000000E+03  0.50000000000E+03  0.00000000000E+00 0. -1.
        -11    1    1    2    0    0  0.42709138452E+01  0.49282124386E+01  0.43643688825E+03  0.43648560733E+03  0.00000000000E+00 0.  1.
         11    1    1    2    0    0  0.19193788832E+02 -0.62973341003E+01 -0.49343109871E+03  0.49384441591E+03  0.00000000000E+00 0. -1.
        -15    1    1    2    0    0  0.44761873183E+00  0.13073606875E+01  0.40508948472E+02  0.40571445498E+02  0.17770000000E+01 0. -1.
         15    1    1    2    0    0 -0.23912321409E+02  0.61760974148E-01  0.16485261996E+02  0.29098531263E+02  0.17770000000E+01 0.  1.
</event>
<event>
 6    1  0.1823098E-004  0.5020407E+03  0.7546771E-02  0.9395255E-01
        -11   -1    0    0    0    0  0.00000000000E+00  0.00000000000E+00  0.50000000000E+03  0.50000000000E+03  0.00000000000E+00 0.  1.
         11   -1    0    0    0    0 -0.00000000000E+00 -0.00000000000E+00 -0.50000000000E+03  0.50000000000E+03  0.00000000000E+00 0.  1.
        -11    1    1    2    0    0  0.27057022476E+00  0.12167749986E+02  0.49781058003E+03  0.49795933663E+03  0.00000000000E+00 0.  1.
         11    1    1    2    0    0  0.19591963738E+02 -0.82114048798E+01 -0.42017498872E+03  0.42071165109E+03  0.00000000000E+00 0.  1.
        -15    1    1    2    0    0 -0.21821578044E+01 -0.20936134447E+01 -0.30973964080E+01  0.46793828062E+01  0.17770000000E+01 0. -1.
         15    1    1    2    0    0 -0.17680376158E+02 -0.18627316615E+01 -0.74538194901E+02  0.76649629474E+02  0.17770000000E+01 0.  1.
</event>
<event>
 6    1  0.1823098E-004  0.5005362E+03  0.7546771E-02  0.9398611E-01
        -11   -1    0    0    0    0  0.00000000000E+00  0.00000000000E+00  0.50000000000E+03  0.50000000000E+03  0.00000000000E+00 0.  1.
         11   -1    0    0    0    0 -0.00000000000E+00 -0.00000000000E+00 -0.50000000000E+03  0.50000000000E+03  0.00000000000E+00 0. -1.
        -11    1    1    2    0    0 -0.80777483384E+00  0.78190838227E+01  0.41244726554E+03  0.41252216598E+03  0.00000000000E+00 0.  1.
         11    1    1    2    0    0 -0.10099789984E+02 -0.55615921037E+01 -0.49933074149E+03  0.49946383899E+03  0.00000000000E+00 0. -1.
        -15    1    1    2    0    0  0.10182253769E+02  0.76050953790E+00  0.69271355166E+02  0.70042380329E+02  0.17770000000E+01 0.  1.
         15    1    1    2    0    0  0.72531104859E+00 -0.30180012569E+01  0.17612120777E+02  0.17971614701E+02  0.17770000000E+01 0. -1.
</event>
<event>
 6    1  0.1823098E-004  0.5022690E+03  0.7546771E-02  0.9394747E-01
        -11   -1    0    0    0    0  0.00000000000E+00  0.00000000000E+00  0.50000000000E+03  0.50000000000E+03  0.00000000000E+00 0. -1.
         11   -1    0    0    0    0 -0.00000000000E+00 -0.00000000000E+00 -0.50000000000E+03  0.50000000000E+03  0.00000000000E+00 0. -1.
        -11    1    1    2    0    0 -0.36850201853E+01  0.18942320070E+02  0.49735678329E+03  0.49773101245E+03  0.00000000000E+00 0. -1.
         11    1    1    2    0    0 -0.15185055877E+02 -0.70941495078E+01 -0.41470772714E+03  0.41504627673E+03  0.00000000000E+00 0. -1.
        -15    1    1    2    0    0 -0.53473890199E+00 -0.75741011937E+01 -0.19660681362E+02  0.21150722806E+02  0.17770000000E+01 0.  1.
         15    1    1    2    0    0  0.19404814965E+02 -0.42740693688E+01 -0.62988374788E+02  0.66071988015E+02  0.17770000000E+01 0. -1.
</event>
<event>
 6    1  0.1823098E-004  0.5016223E+03  0.7546771E-02  0.9396187E-01
        -11   -1    0    0    0    0  0.00000000000E+00  0.00000000000E+00  0.50000000000E+03  0.50000000000E+03  0.00000000000E+00 0.  1.
         11   -1    0    0    0    0 -0.00000000000E+00 -0.00000000000E+00 -0.50000000000E+03  0.50000000000E+03  0.00000000000E+00 0. -1.
        -11    1    1    2    0    0  0.18395932065E+01  0.64905673556E+01  0.45508565646E+03  0.45513565701E+03  0.00000000000E+00 0.  1.
         11    1    1    2    0    0  0.97372868639E+01 -0.56616445510E+01 -0.49825035823E+03  0.49837765645E+03  0.00000000000E+00 0. -1.
        -15    1    1    2    0    0 -0.94554819014E+01  0.31868317043E+01  0.16382801946E+02  0.19264370296E+02  0.17770000000E+01 0. -1.
         15    1    1    2    0    0 -0.21213981691E+01 -0.40157545088E+01  0.26781899827E+02  0.27222316246E+02  0.17770000000E+01 0.  1.
</event>
<event>
 6    1  0.1823098E-004  0.5013140E+03  0.7546771E-02  0.9396874E-01
        -11   -1    0    0    0    0  0.00000000000E+00  0.00000000000E+00  0.50000000000E+03  0.50000000000E+03  0.00000000000E+00 0.  1.
         11   -1    0    0    0    0 -0.00000000000E+00 -0.00000000000E+00 -0.50000000000E+03  0.50000000000E+03  0.00000000000E+00 0.  1.
        -11    1    1    2    0    0  0.72985996075E+01  0.65054712723E+00  0.49863219399E+03  0.49868603113E+03  0.00000000000E+00 0.  1.
         11    1    1    2    0    0  0.53957737645E+01 -0.56314202923E+01 -0.44272991124E+03  0.44279860160E+03  0.00000000000E+00 0.  1.
        -15    1    1    2    0    0 -0.99517712145E+01  0.65485881728E+01 -0.51090909568E+02  0.52491528143E+02  0.17770000000E+01 0.  1.
         15    1    1    2    0    0 -0.27426021575E+01 -0.15677150077E+01 -0.48113731790E+01  0.60238391253E+01  0.17770000000E+01 0. -1.
</event>
<event>
 6    1  0.1823098E-004  0.4885832E+03  0.7546771E-02  0.9425724E-01
        -11   -1    0    0    0    0  0.00000000000E+00  0.00000000000E+00  0.50000000000E+03  0.50000000000E+03  0.00000000000E+00 0.  1.
         11   -1    0    0    0    0 -0.00000000000E+00 -0.00000000000E+00 -0.50000000000E+03  0.50000000000E+03  0.00000000000E+00 0. -1.
        -11    1    1    2    0    0  0.27002374447E+01  0.12059491006E+01  0.23375171613E+02  0.23561499176E+02  0.00000000000E+00 0.  1.
         11    1    1    2    0    0 -0.44604119642E+01  0.29311024757E+02 -0.49845688590E+03  0.49933786012E+03  0.00000000000E+00 0. -1.
        -15    1    1    2    0    0  0.15063555698E+02 -0.17874387129E+02  0.19330433546E+03  0.19472064159E+03  0.17770000000E+01 0.  1.
         15    1    1    2    0    0 -0.13303381179E+02 -0.12642586728E+02  0.28177737883E+03  0.28237999911E+03  0.17770000000E+01 0. -1.
</event>
<event>
 6    1  0.1823098E-004  0.5003594E+03  0.7546771E-02  0.9399006E-01
        -11   -1    0    0    0    0  0.00000000000E+00  0.00000000000E+00  0.50000000000E+03  0.50000000000E+03  0.00000000000E+00 0. -1.
         11   -1    0    0    0    0 -0.00000000000E+00 -0.00000000000E+00 -0.50000000000E+03  0.50000000000E+03  0.00000000000E+00 0. -1.
        -11    1    1    2    0    0 -0.11490864535E+01  0.99014002395E+01  0.11490495668E+03  0.11533649551E+03  0.00000000000E+00 0. -1.
         11    1    1    2    0    0 -0.36118268492E+01 -0.10076175475E+02 -0.49952597253E+03  0.49964064270E+03  0.00000000000E+00 0. -1.
        -15    1    1    2    0    0 -0.58388566212E+01 -0.89289267680E+00  0.19221228431E+03  0.19231123075E+03  0.17770000000E+01 0. -1.
         15    1    1    2    0    0  0.10599769924E+02  0.10676679125E+01  0.19240873154E+03  0.19271163104E+03  0.17770000000E+01 0.  1.
</event>
<event>
 6    1  0.1823098E-004  0.5001790E+03  0.7546771E-02  0.9399409E-01
        -11   -1    0    0    0    0  0.00000000000E+00  0.00000000000E+00  0.50000000000E+03  0.50000000000E+03  0.00000000000E+00 0. -1.
         11   -1    0    0    0    0 -0.00000000000E+00 -0.00000000000E+00 -0.50000000000E+03  0.50000000000E+03  0.00000000000E+00 0. -1.
        -11    1    1    2    0    0 -0.36376687096E+01  0.78053265746E+01  0.32528741120E+03  0.32540137621E+03  0.00000000000E+00 0. -1.
         11    1    1    2    0    0  0.75534823505E+01 -0.15671870063E+01 -0.49976146278E+03  0.49982099881E+03  0.00000000000E+00 0. -1.
        -15    1    1    2    0    0 -0.28761828161E+01 -0.19296743288E+00  0.36780437431E+02  0.36935998303E+02  0.17770000000E+01 0.  1.
         15    1    1    2    0    0 -0.10396308248E+01 -0.60451721354E+01  0.13769361415E+03  0.13784162668E+03  0.17770000000E+01 0. -1.
</event>
<event>
 6    1  0.1823098E-004  0.5003012E+03  0.7546771E-02  0.9399136E-01
        -11   -1    0    0    0    0  0.00000000000E+00  0.00000000000E+00  0.50000000000E+03  0.50000000000E+03  0.00000000000E+00 0. -1.
         11   -1    0    0    0    0 -0.00000000000E+00 -0.00000000000E+00 -0.50000000000E+03  0.50000000000E+03  0.00000000000E+00 0.  1.
        -11    1    1    2    0    0  0.35938380009E+00 -0.44095577997E+01  0.84430435087E+02  0.84546269732E+02  0.00000000000E+00 0. -1.
         11    1    1    2    0    0 -0.35572064098E+01 -0.21101441237E+02 -0.49924035833E+03  0.49969876918E+03  0.00000000000E+00 0.  1.
        -15    1    1    2    0    0  0.18809988277E-01  0.84796654542E+01  0.21922239210E+03  0.21939352772E+03  0.17770000000E+01 0.  1.
         15    1    1    2    0    0  0.31790126214E+01  0.17031333582E+02  0.19558753115E+03  0.19636143337E+03  0.17770000000E+01 0. -1.
</event>
<event>
 6    1  0.1823098E-004  0.5102180E+03  0.7546771E-02  0.9377232E-01
        -11   -1    0    0    0    0  0.00000000000E+00  0.00000000000E+00  0.50000000000E+03  0.50000000000E+03  0.00000000000E+00 0. -1.
         11   -1    0    0    0    0 -0.00000000000E+00 -0.00000000000E+00 -0.50000000000E+03  0.50000000000E+03  0.00000000000E+00 0.  1.
        -11    1    1    2    0    0 -0.28284193140E+02  0.38724550703E+02  0.48742881959E+03  0.48978203374E+03  0.00000000000E+00 0. -1.
         11    1    1    2    0    0  0.21157363762E+02 -0.39058137780E+02 -0.32670227480E+02  0.55140873514E+02  0.00000000000E+00 0.  1.
        -15    1    1    2    0    0  0.77286970748E+01 -0.41310971756E+01 -0.14213463894E+03  0.14241563130E+03  0.17770000000E+01 0. -1.
         15    1    1    2    0    0 -0.60186769699E+00  0.44646842531E+01 -0.31262395317E+03  0.31266146145E+03  0.17770000000E+01 0.  1.
</event>
<event>
 6    1  0.1823098E-004  0.5002335E+03  0.7546771E-02  0.9399287E-01
        -11   -1    0    0    0    0  0.00000000000E+00  0.00000000000E+00  0.50000000000E+03  0.50000000000E+03  0.00000000000E+00 0.  1.
         11   -1    0    0    0    0 -0.00000000000E+00 -0.00000000000E+00 -0.50000000000E+03  0.50000000000E+03  0.00000000000E+00 0.  1.
        -11    1    1    2    0    0  0.37987491315E+01 -0.67982072241E+01  0.49970580048E+03  0.49976647862E+03  0.00000000000E+00 0.  1.
         11    1    1    2    0    0 -0.21217010500E+01  0.53087369635E+01 -0.37824112741E+03  0.37828433059E+03  0.00000000000E+00 0.  1.
        -15    1    1    2    0    0  0.37428739814E+01 -0.20986394209E+00 -0.29259994518E+02  0.29552633668E+02  0.17770000000E+01 0. -1.
         15    1    1    2    0    0 -0.54199220629E+01  0.16993342027E+01 -0.92204678552E+02  0.92396557120E+02  0.17770000000E+01 0.  1.
</event>
<event>
 6    1  0.1823098E-004  0.5001016E+03  0.7546771E-02  0.9399582E-01
        -11   -1    0    0    0    0  0.00000000000E+00  0.00000000000E+00  0.50000000000E+03  0.50000000000E+03  0.00000000000E+00 0.  1.
         11   -1    0    0    0    0 -0.00000000000E+00 -0.00000000000E+00 -0.50000000000E+03  0.50000000000E+03  0.00000000000E+00 0. -1.
        -11    1    1    2    0    0 -0.29454686862E+01  0.60982291166E+01  0.49985255946E+03  0.49989843506E+03  0.00000000000E+00 0.  1.
         11    1    1    2    0    0 -0.31266074829E+01 -0.38699499631E+01 -0.18606316938E+03  0.18612967304E+03  0.00000000000E+00 0. -1.
        -15    1    1    2    0    0  0.31413782082E+01  0.18525835961E+01 -0.65617330774E+02  0.65742620498E+02  0.17770000000E+01 0.  1.
         15    1    1    2    0    0  0.29306979609E+01 -0.40808627496E+01 -0.24817205931E+03  0.24822927140E+03  0.17770000000E+01 0. -1.
</event>
<event>
 6    1  0.1823098E-004  0.4230190E+03  0.7546771E-02  0.9590730E-01
        -11   -1    0    0    0    0  0.00000000000E+00  0.00000000000E+00  0.50000000000E+03  0.50000000000E+03  0.00000000000E+00 0. -1.
         11   -1    0    0    0    0 -0.00000000000E+00 -0.00000000000E+00 -0.50000000000E+03  0.50000000000E+03  0.00000000000E+00 0. -1.
        -11    1    1    2    0    0 -0.97174361673E+01 -0.57508589776E+00  0.41663448104E+03  0.41674818545E+03  0.00000000000E+00 0. -1.
         11    1    1    2    0    0 -0.23799914353E+02 -0.80545541135E+02 -0.42567196408E+03  0.43387860182E+03  0.00000000000E+00 0. -1.
        -15    1    1    2    0    0  0.16368090543E+02 -0.28518823037E+02  0.18866918589E+02  0.37952022364E+02  0.17770000000E+01 0. -1.
         15    1    1    2    0    0  0.17149259977E+02  0.10963945007E+03 -0.98294355497E+01  0.11142119036E+03  0.17770000000E+01 0.  1.
</event>
<event>
 6    1  0.1823098E-004  0.5014171E+03  0.7546771E-02  0.9396644E-01
        -11   -1    0    0    0    0  0.00000000000E+00  0.00000000000E+00  0.50000000000E+03  0.50000000000E+03  0.00000000000E+00 0.  1.
         11   -1    0    0    0    0 -0.00000000000E+00 -0.00000000000E+00 -0.50000000000E+03  0.50000000000E+03  0.00000000000E+00 0. -1.
        -11    1    1    2    0    0  0.80992897987E+01 -0.28879762097E+01  0.36813823689E+03  0.36823864594E+03  0.00000000000E+00 0.  1.
         11    1    1    2    0    0  0.15067628285E+02  0.15107482284E+02 -0.49812611925E+03  0.49858289193E+03  0.00000000000E+00 0. -1.
        -15    1    1    2    0    0 -0.18118957273E+02 -0.41868425827E+01  0.98057023537E+02  0.99820658470E+02  0.17770000000E+01 0. -1.
         15    1    1    2    0    0 -0.50479608105E+01 -0.80326634914E+01  0.31930858823E+02  0.33357803664E+02  0.17770000000E+01 0.  1.
</event>
<event>
 6    1  0.1823098E-004  0.5022629E+03  0.7546771E-02  0.9394761E-01
        -11   -1    0    0    0    0  0.00000000000E+00  0.00000000000E+00  0.50000000000E+03  0.50000000000E+03  0.00000000000E+00 0.  1.
         11   -1    0    0    0    0 -0.00000000000E+00 -0.00000000000E+00 -0.50000000000E+03  0.50000000000E+03  0.00000000000E+00 0.  1.
        -11    1    1    2    0    0 -0.74255137458E+01  0.21604224763E+01  0.49767703594E+03  0.49773711715E+03  0.00000000000E+00 0.  1.
         11    1    1    2    0    0 -0.62546414110E+01  0.10782573187E+02 -0.44617906440E+03  0.44635315831E+03  0.00000000000E+00 0.  1.
        -15    1    1    2    0    0  0.37530945335E+01 -0.28479549513E+01 -0.43643130794E+01  0.66634468286E+01  0.17770000000E+01 0.  1.
         15    1    1    2    0    0  0.99270606233E+01 -0.10095040712E+02 -0.47133658466E+02  0.49246277717E+02  0.17770000000E+01 0. -1.
</event>
<event>
 6    1  0.1823098E-004  0.5010428E+03  0.7546771E-02  0.9397479E-01
        -11   -1    0    0    0    0  0.00000000000E+00  0.00000000000E+00  0.50000000000E+03  0.50000000000E+03  0.00000000000E+00 0. -1.
         11   -1    0    0    0    0 -0.00000000000E+00 -0.00000000000E+00 -0.50000000000E+03  0.50000000000E+03  0.00000000000E+00 0. -1.
        -11    1    1    2    0    0  0.30084271072E+02  0.92382690460E+02  0.46043849962E+03  0.47057755662E+03  0.00000000000E+00 0. -1.
         11    1    1    2    0    0 -0.27217737235E+02 -0.95939993383E+02 -0.48888960444E+03  0.49895724554E+03  0.00000000000E+00 0. -1.
        -15    1    1    2    0    0 -0.85481231021E+00  0.57083585456E+00  0.25240966967E+02  0.25324310456E+02  0.17770000000E+01 0. -1.
         15    1    1    2    0    0 -0.20117215268E+01  0.29864670686E+01  0.32101378539E+01  0.51408873839E+01  0.17770000000E+01 0.  1.
</event>
<event>
 6    1  0.1823098E-004  0.5003601E+03  0.7546771E-02  0.9399004E-01
        -11   -1    0    0    0    0  0.00000000000E+00  0.00000000000E+00  0.50000000000E+03  0.50000000000E+03  0.00000000000E+00 0.  1.
         11   -1    0    0    0    0 -0.00000000000E+00 -0.00000000000E+00 -0.50000000000E+03  0.50000000000E+03  0.00000000000E+00 0. -1.
        -11    1    1    2    0    0 -0.12618036984E+02  0.78484181621E+01  0.29204619513E+03  0.29242399459E+03  0.00000000000E+00 0.  1.
         11    1    1    2    0    0  0.35618032111E+02 -0.51680760647E+01 -0.49834188781E+03  0.49963986067E+03  0.00000000000E+00 0. -1.
        -15    1    1    2    0    0 -0.17476657431E+02 -0.23150401043E+01  0.18546289756E+03  0.18630737255E+03  0.17770000000E+01 0.  1.
         15    1    1    2    0    0 -0.55233376963E+01 -0.36530199307E+00  0.20832795123E+02  0.21628772191E+02  0.17770000000E+01 0.  1.
</event>
<event>
 6    1  0.1823098E-004  0.5044934E+03  0.7546771E-02  0.9389811E-01
        -11   -1    0    0    0    0  0.00000000000E+00  0.00000000000E+00  0.50000000000E+03  0.50000000000E+03  0.00000000000E+00 0.  1.
         11   -1    0    0    0    0 -0.00000000000E+00 -0.00000000000E+00 -0.50000000000E+03  0.50000000000E+03  0.00000000000E+00 0. -1.
        -11    1    1    2    0    0  0.94618477391E+01  0.36438572808E+01  0.49540284664E+03  0.49550659402E+03  0.00000000000E+00 0.  1.
         11    1    1    2    0    0  0.13681122727E+00  0.16625175768E+02 -0.45371326228E+03  0.45401777450E+03  0.00000000000E+00 0. -1.
        -15    1    1    2    0    0 -0.90044951199E+01 -0.17259135297E+02 -0.42551623713E+02  0.46826884299E+02  0.17770000000E+01 0. -1.
         15    1    1    2    0    0 -0.59416384644E+00 -0.30098977522E+01  0.86203935691E+00  0.36487471834E+01  0.17770000000E+01 0.  1.
</event>
<event>
 6    1  0.1823098E-004  0.5005853E+03  0.7546771E-02  0.9398501E-01
        -11   -1    0    0    0    0  0.00000000000E+00  0.00000000000E+00  0.50000000000E+03  0.50000000000E+03  0.00000000000E+00 0. -1.
         11   -1    0    0    0    0 -0.00000000000E+00 -0.00000000000E+00 -0.50000000000E+03  0.50000000000E+03  0.00000000000E+00 0. -1.
        -11    1    1    2    0    0  0.35251925683E+01  0.60249057630E+01  0.49936593986E+03  0.49941472582E+03  0.00000000000E+00 0. -1.
         11    1    1    2    0    0 -0.26431395735E+01  0.90386804455E+01 -0.37398546131E+03  0.37410400854E+03  0.00000000000E+00 0. -1.
        -15    1    1    2    0    0  0.21572777057E+01 -0.10574494049E+02 -0.80511913434E+02  0.81251459712E+02  0.17770000000E+01 0. -1.
         15    1    1    2    0    0 -0.30393307004E+01 -0.44890921591E+01 -0.44868565118E+02  0.45229805928E+02  0.17770000000E+01 0.  1.
</event>
<event>
 6    1  0.1823098E-004  0.5002654E+03  0.7546771E-02  0.9399216E-01
        -11   -1    0    0    0    0  0.00000000000E+00  0.00000000000E+00  0.50000000000E+03  0.50000000000E+03  0.00000000000E+00 0. -1.
         11   -1    0    0    0    0 -0.00000000000E+00 -0.00000000000E+00 -0.50000000000E+03  0.50000000000E+03  0.00000000000E+00 0. -1.
        -11    1    1    2    0    0 -0.15060521923E+00  0.76385284776E+01  0.49967615907E+03  0.49973456328E+03  0.00000000000E+00 0. -1.
         11    1    1    2    0    0  0.60487177931E+01  0.24891930045E+01 -0.11015087120E+03  0.11034490244E+03  0.00000000000E+00 0. -1.
        -15    1    1    2    0    0 -0.30469195632E+00 -0.27309291927E+01 -0.19343763267E+02  0.19618606418E+02  0.17770000000E+01 0.  1.
         15    1    1    2    0    0 -0.55934206176E+01 -0.73967922894E+01 -0.37018152460E+03  0.37030192786E+03  0.17770000000E+01 0. -1.
</event>
<event>
 6    1  0.1823098E-004  0.5038134E+03  0.7546771E-02  0.9391317E-01
        -11   -1    0    0    0    0  0.00000000000E+00  0.00000000000E+00  0.50000000000E+03  0.50000000000E+03  0.00000000000E+00 0.  1.
         11   -1    0    0    0    0 -0.00000000000E+00 -0.00000000000E+00 -0.50000000000E+03  0.50000000000E+03  0.00000000000E+00 0. -1.
        -11    1    1    2    0    0  0.58024498982E+01  0.80999331505E+01  0.35228042273E+03  0.35242130125E+03  0.00000000000E+00 0.  1.
         11    1    1    2    0    0  0.10605395497E+02  0.25907351124E+02 -0.49539625708E+03  0.49618657457E+03  0.00000000000E+00 0. -1.
        -15    1    1    2    0    0 -0.23562620597E+02 -0.14239823742E+02  0.68384414798E+02  0.73739782925E+02  0.17770000000E+01 0.  1.
         15    1    1    2    0    0  0.71547752014E+01 -0.19767460533E+02  0.74731419554E+02  0.77652341250E+02  0.17770000000E+01 0. -1.
</event>
<event>
 6    1  0.1823098E-004  0.5024618E+03  0.7546771E-02  0.9394318E-01
        -11   -1    0    0    0    0  0.00000000000E+00  0.00000000000E+00  0.50000000000E+03  0.50000000000E+03  0.00000000000E+00 0.  1.
         11   -1    0    0    0    0 -0.00000000000E+00 -0.00000000000E+00 -0.50000000000E+03  0.50000000000E+03  0.00000000000E+00 0.  1.
        -11    1    1    2    0    0 -0.25967408812E+02  0.64747317452E+01  0.49681787563E+03  0.49753816941E+03  0.00000000000E+00 0.  1.
         11    1    1    2    0    0  0.36511334310E+02  0.22313250668E+02 -0.29056760651E+03  0.29370136643E+03  0.00000000000E+00 0.  1.
        -15    1    1    2    0    0 -0.50973423044E+01 -0.38111025740E+01 -0.38101853319E+02  0.38670613607E+02  0.17770000000E+01 0. -1.
         15    1    1    2    0    0 -0.54465831929E+01 -0.24976879840E+02 -0.16814841580E+03  0.17008985055E+03  0.17770000000E+01 0.  1.
</event>
<event>
 6    1  0.1823098E-004  0.5049203E+03  0.7546771E-02  0.9388867E-01
        -11   -1    0    0    0    0  0.00000000000E+00  0.00000000000E+00  0.50000000000E+03  0.50000000000E+03  0.00000000000E+00 0. -1.
         11   -1    0    0    0    0 -0.00000000000E+00 -0.00000000000E+00 -0.50000000000E+03  0.50000000000E+03  0.00000000000E+00 0. -1.
        -11    1    1    2    0    0 -0.37316016363E+01 -0.70917396962E+01  0.41428186815E+03  0.41435936565E+03  0.00000000000E+00 0. -1.
         11    1    1    2    0    0  0.17303693941E+02 -0.67059476731E+01 -0.49473172600E+03  0.49507965850E+03  0.00000000000E+00 0. -1.
        -15    1    1    2    0    0 -0.49666746905E+01  0.20692445516E+02  0.20575956834E+02  0.29654222086E+02  0.17770000000E+01 0.  1.
         15    1    1    2    0    0 -0.86054176140E+01 -0.68947581469E+01  0.59873901013E+02  0.60906753762E+02  0.17770000000E+01 0. -1.
</event>
<event>
 6    1  0.1823098E-004  0.4727304E+03  0.7546771E-02  0.9462984E-01
        -11   -1    0    0    0    0  0.00000000000E+00  0.00000000000E+00  0.50000000000E+03  0.50000000000E+03  0.00000000000E+00 0.  1.
         11   -1    0    0    0    0 -0.00000000000E+00 -0.00000000000E+00 -0.50000000000E+03  0.50000000000E+03  0.00000000000E+00 0. -1.
        -11    1    1    2    0    0  0.37781510830E+01 -0.17417874374E+02  0.47322523263E+03  0.47356074328E+03  0.00000000000E+00 0.  1.
         11    1    1    2    0    0  0.34792512360E+02 -0.10873354540E+02 -0.47170419840E+03  0.47311055743E+03  0.00000000000E+00 0. -1.
        -15    1    1    2    0    0 -0.14719026693E+02  0.55145124150E+01 -0.10641654279E+02  0.19064682760E+02  0.17770000000E+01 0.  1.
         15    1    1    2    0    0 -0.23851636750E+02  0.22776716499E+02  0.91206200512E+01  0.34264016536E+02  0.17770000000E+01 0. -1.
</event>
<event>
 6    1  0.1823098E-004  0.4546177E+03  0.7546771E-02  0.9507506E-01
        -11   -1    0    0    0    0  0.00000000000E+00  0.00000000000E+00  0.50000000000E+03  0.50000000000E+03  0.00000000000E+00 0. -1.
         11   -1    0    0    0    0 -0.00000000000E+00 -0.00000000000E+00 -0.50000000000E+03  0.50000000000E+03  0.00000000000E+00 0. -1.
        -11    1    1    2    0    0 -0.12131666728E+02  0.28132725806E+02  0.44295401330E+03  0.44401225827E+03  0.00000000000E+00 0. -1.
         11    1    1    2    0    0  0.34162352159E+02  0.48455917111E+02 -0.46521799215E+03  0.46898062053E+03  0.00000000000E+00 0. -1.
        -15    1    1    2    0    0 -0.92165866794E+01 -0.46343539556E+02 -0.16684270031E-02  0.47284530878E+02  0.17770000000E+01 0.  1.
         15    1    1    2    0    0 -0.12814098752E+02 -0.30245103361E+02  0.22265647282E+02  0.39722590324E+02  0.17770000000E+01 0. -1.
</event>
<event>
 6    1  0.1823098E-004  0.5008134E+03  0.7546771E-02  0.9397992E-01
        -11   -1    0    0    0    0  0.00000000000E+00  0.00000000000E+00  0.50000000000E+03  0.50000000000E+03  0.00000000000E+00 0.  1.
         11   -1    0    0    0    0 -0.00000000000E+00 -0.00000000000E+00 -0.50000000000E+03  0.50000000000E+03  0.00000000000E+00 0. -1.
        -11    1    1    2    0    0 -0.73707194059E+01  0.26725046603E+00  0.49913214789E+03  0.49918663843E+03  0.00000000000E+00 0.  1.
         11    1    1    2    0    0 -0.15064728318E+02  0.16914499237E+01 -0.22921445240E+03  0.22971519808E+03  0.00000000000E+00 0. -1.
        -15    1    1    2    0    0  0.20864239687E+01  0.81406482427E+00 -0.11149662969E+02  0.11510368362E+02  0.17770000000E+01 0.  1.
         15    1    1    2    0    0  0.20349023755E+02 -0.27727652140E+01 -0.25876803253E+03  0.25958779513E+03  0.17770000000E+01 0. -1.
</event>
<event>
 6    1  0.1823098E-004  0.5022251E+03  0.7546771E-02  0.9394845E-01
        -11   -1    0    0    0    0  0.00000000000E+00  0.00000000000E+00  0.50000000000E+03  0.50000000000E+03  0.00000000000E+00 0.  1.
         11   -1    0    0    0    0 -0.00000000000E+00 -0.00000000000E+00 -0.50000000000E+03  0.50000000000E+03  0.00000000000E+00 0. -1.
        -11    1    1    2    0    0 -0.34154972076E+01  0.70779806776E+01  0.43953021316E+03  0.43960046828E+03  0.00000000000E+00 0.  1.
         11    1    1    2    0    0 -0.20599442620E+01 -0.17437587642E+02 -0.49746513386E+03  0.49777492127E+03  0.00000000000E+00 0. -1.
        -15    1    1    2    0    0  0.87826779055E+00 -0.61390271238E+01  0.18562643526E+02  0.19651678605E+02  0.17770000000E+01 0.  1.
         15    1    1    2    0    0  0.45971736790E+01  0.16498634088E+02  0.39372277177E+02  0.42972931849E+02  0.17770000000E+01 0. -1.
</event>
<event>
 6    1  0.1823098E-004  0.4868661E+03  0.7546771E-02  0.9429687E-01
        -11   -1    0    0    0    0  0.00000000000E+00  0.00000000000E+00  0.50000000000E+03  0.50000000000E+03  0.00000000000E+00 0. -1.
         11   -1    0    0    0    0 -0.00000000000E+00 -0.00000000000E+00 -0.50000000000E+03  0.50000000000E+03  0.00000000000E+00 0. -1.
        -11    1    1    2    0    0  0.16132884777E+00  0.14296985541E+02  0.48958277714E+03  0.48979151228E+03  0.00000000000E+00 0. -1.
         11    1    1    2    0    0 -0.19515282677E+02 -0.82789545292E+01 -0.48370502794E+03  0.48416933133E+03  0.00000000000E+00 0. -1.
        -15    1    1    2    0    0  0.13816547387E+01 -0.51840466545E+01  0.24184549562E+01  0.61473541388E+01  0.17770000000E+01 0. -1.
         15    1    1    2    0    0  0.17972299091E+02 -0.83398435693E+00 -0.82962041599E+01  0.19891802256E+02  0.17770000000E+01 0.  1.
</event>
<event>
 6    1  0.1823098E-004  0.5014513E+03  0.7546771E-02  0.9396568E-01
        -11   -1    0    0    0    0  0.00000000000E+00  0.00000000000E+00  0.50000000000E+03  0.50000000000E+03  0.00000000000E+00 0.  1.
         11   -1    0    0    0    0 -0.00000000000E+00 -0.00000000000E+00 -0.50000000000E+03  0.50000000000E+03  0.00000000000E+00 0. -1.
        -11    1    1    2    0    0 -0.21473782671E+02 -0.18410233877E+02  0.49774564252E+03  0.49854867837E+03  0.00000000000E+00 0.  1.
         11    1    1    2    0    0  0.90786649477E+01  0.33550845648E+01 -0.12976749790E+02  0.16188724001E+02  0.00000000000E+00 0. -1.
        -15    1    1    2    0    0  0.37096161841E+01  0.22730939649E+01 -0.51338186898E+02  0.51552840575E+02  0.17770000000E+01 0. -1.
         15    1    1    2    0    0  0.86855015388E+01  0.12782055347E+02 -0.43343070583E+03  0.43370975706E+03  0.17770000000E+01 0. -1.
</event>
<event>
 6    1  0.1823098E-004  0.5002613E+03  0.7546771E-02  0.9399225E-01
        -11   -1    0    0    0    0  0.00000000000E+00  0.00000000000E+00  0.50000000000E+03  0.50000000000E+03  0.00000000000E+00 0.  1.
         11   -1    0    0    0    0 -0.00000000000E+00 -0.00000000000E+00 -0.50000000000E+03  0.50000000000E+03  0.00000000000E+00 0. -1.
        -11    1    1    2    0    0 -0.51200364257E+01  0.53818237825E+01  0.49968348480E+03  0.49973869550E+03  0.00000000000E+00 0.  1.
         11    1    1    2    0    0  0.66667609952E+01  0.54991349361E+01 -0.12422688435E+03  0.12452712548E+03  0.00000000000E+00 0. -1.
        -15    1    1    2    0    0 -0.45309993379E+01 -0.58404618960E+01 -0.14790748255E+03  0.14810274161E+03  0.17770000000E+01 0. -1.
         15    1    1    2    0    0  0.29842747684E+01 -0.50404968227E+01 -0.22754911791E+03  0.22763143740E+03  0.17770000000E+01 0.  1.
</event>
<event>
 6    1  0.1823098E-004  0.5002579E+03  0.7546771E-02  0.9399233E-01
        -11   -1    0    0    0    0  0.00000000000E+00  0.00000000000E+00  0.50000000000E+03  0.50000000000E+03  0.00000000000E+00 0. -1.
         11   -1    0    0    0    0 -0.00000000000E+00 -0.00000000000E+00 -0.50000000000E+03  0.50000000000E+03  0.00000000000E+00 0.  1.
        -11    1    1    2    0    0 -0.23145672076E+01  0.65096535161E+01  0.92309289197E+02  0.92567476374E+02  0.00000000000E+00 0. -1.
         11    1    1    2    0    0  0.11852756778E+02  0.78109705369E+01 -0.49954043239E+03  0.49974207617E+03  0.00000000000E+00 0.  1.
        -15    1    1    2    0    0 -0.19307549008E+01 -0.58563284327E+01  0.80128942367E+02  0.80385505727E+02  0.17770000000E+01 0. -1.
         15    1    1    2    0    0 -0.76074346693E+01 -0.84642956203E+01  0.32710220083E+03  0.32730494173E+03  0.17770000000E+01 0. -1.
</event>
<event>
 6    1  0.1823098E-004  0.5056650E+03  0.7546771E-02  0.9387222E-01
        -11   -1    0    0    0    0  0.00000000000E+00  0.00000000000E+00  0.50000000000E+03  0.50000000000E+03  0.00000000000E+00 0.  1.
         11   -1    0    0    0    0 -0.00000000000E+00 -0.00000000000E+00 -0.50000000000E+03  0.50000000000E+03  0.00000000000E+00 0.  1.
        -11    1    1    2    0    0 -0.12010297408E+02 -0.41994878453E+01  0.43509906749E+03  0.43528505771E+03  0.00000000000E+00 0.  1.
         11    1    1    2    0    0 -0.19712509959E+02 -0.68504601548E+01 -0.49389431198E+03  0.49433501116E+03  0.00000000000E+00 0.  1.
        -15    1    1    2    0    0  0.82172857361E+01  0.44599959861E+01  0.39186047535E+01  0.10292159214E+02  0.17770000000E+01 0.  1.
         15    1    1    2    0    0  0.23505521631E+02  0.65899520139E+01  0.54876639742E+02  0.60087771909E+02  0.17770000000E+01 0. -1.
</event>
<event>
 6    1  0.1823098E-004  0.5007367E+03  0.7546771E-02  0.9398163E-01
        -11   -1    0    0    0    0  0.00000000000E+00  0.00000000000E+00  0.50000000000E+03  0.50000000000E+03  0.00000000000E+00 0. -1.
         11   -1    0    0    0    0 -0.00000000000E+00 -0.00000000000E+00 -0.50000000000E+03  0.50000000000E+03  0.00000000000E+00 0. -1.
        -11    1    1    2    0    0 -0.16407299528E+02 -0.18052731592E+02  0.49866694436E+03  0.49926327924E+03  0.00000000000E+00 0. -1.
         11    1    1    2    0    0  0.10289871715E+02  0.15596892225E+01 -0.31014582871E+02  0.32714193266E+02  0.00000000000E+00 0. -1.
        -15    1    1    2    0    0  0.48065847082E+01  0.14367256381E+02 -0.35338114442E+03  0.35371020945E+03  0.17770000000E+01 0. -1.
         15    1    1    2    0    0  0.13108431053E+01  0.21257859879E+01 -0.11427121707E+03  0.11431231804E+03  0.17770000000E+01 0.  1.
</event>
<event>
 6    1  0.1823098E-004  0.5064571E+03  0.7546771E-02  0.9385476E-01
        -11   -1    0    0    0    0  0.00000000000E+00  0.00000000000E+00  0.50000000000E+03  0.50000000000E+03  0.00000000000E+00 0. -1.
         11   -1    0    0    0    0 -0.00000000000E+00 -0.00000000000E+00 -0.50000000000E+03  0.50000000000E+03  0.00000000000E+00 0. -1.
        -11    1    1    2    0    0 -0.20687861626E+01 -0.92353261084E+01  0.49345213200E+03  0.49354288335E+03  0.00000000000E+00 0. -1.
         11    1    1    2    0    0  0.27578382223E+02  0.52901866039E+01 -0.44851147194E+03  0.44938969025E+03  0.00000000000E+00 0. -1.
        -15    1    1    2    0    0 -0.19028470885E+02 -0.82582306610E+01 -0.22502826964E+02  0.30656419038E+02  0.17770000000E+01 0. -1.
         15    1    1    2    0    0 -0.64811251758E+01  0.12203370165E+02 -0.22437833093E+02  0.26411007362E+02  0.17770000000E+01 0.  1.
</event>
<event>
 6    1  0.1823098E-004  0.4908659E+03  0.7546771E-02  0.9420483E-01
        -11   -1    0    0    0    0  0.00000000000E+00  0.00000000000E+00  0.50000000000E+03  0.50000000000E+03  0.00000000000E+00 0. -1.
         11   -1    0    0    0    0 -0.00000000000E+00 -0.00000000000E+00 -0.50000000000E+03  0.50000000000E+03  0.00000000000E+00 0.  1.
        -11    1    1    2    0    0  0.82220748637E+01  0.24773269319E+01  0.48851380172E+03  0.48858926936E+03  0.00000000000E+00 0. -1.
         11    1    1    2    0    0  0.89579571163E+00  0.87959632532E+01 -0.49318143470E+03  0.49326068053E+03  0.00000000000E+00 0.  1.
        -15    1    1    2    0    0 -0.15153193803E+01 -0.90721887373E+01  0.17533031081E+01  0.95306139413E+01  0.17770000000E+01 0.  1.
         15    1    1    2    0    0 -0.76025511950E+01 -0.22011014478E+01  0.29143298709E+01  0.86194361679E+01  0.17770000000E+01 0. -1.
</event>
<event>
 6    1  0.1823098E-004  0.4622343E+03  0.7546771E-02  0.9488519E-01
        -11   -1    0    0    0    0  0.00000000000E+00  0.00000000000E+00  0.50000000000E+03  0.50000000000E+03  0.00000000000E+00 0.  1.
         11   -1    0    0    0    0 -0.00000000000E+00 -0.00000000000E+00 -0.50000000000E+03  0.50000000000E+03  0.00000000000E+00 0.  1.
        -11    1    1    2    0    0 -0.66339851240E+01  0.71593985093E+01  0.47900964784E+03  0.47910907888E+03  0.00000000000E+00 0.  1.
         11    1    1    2    0    0 -0.41137074095E+02  0.26170758713E+02 -0.44514928615E+03  0.44781140499E+03  0.00000000000E+00 0.  1.
        -15    1    1    2    0    0  0.42302753849E+02 -0.31642285280E+02 -0.38590050767E+02  0.65445450171E+02  0.17770000000E+01 0.  1.
         15    1    1    2    0    0  0.54683053690E+01 -0.16878719430E+01  0.47296890803E+01  0.76340659613E+01  0.17770000000E+01 0. -1.
</event>
<event>
 6    1  0.1823098E-004  0.4507338E+03  0.7546771E-02  0.9517340E-01
        -11   -1    0    0    0    0  0.00000000000E+00  0.00000000000E+00  0.50000000000E+03  0.50000000000E+03  0.00000000000E+00 0.  1.
         11   -1    0    0    0    0 -0.00000000000E+00 -0.00000000000E+00 -0.50000000000E+03  0.50000000000E+03  0.00000000000E+00 0. -1.
        -11    1    1    2    0    0  0.30417596984E+01  0.72398911419E+01  0.45770335857E+03  0.45777072075E+03  0.00000000000E+00 0.  1.
         11    1    1    2    0    0  0.78602502636E+02 -0.45379582443E+02 -0.43909866454E+03  0.44838075017E+03  0.00000000000E+00 0. -1.
        -15    1    1    2    0    0 -0.22807674669E+01  0.11446712003E+00 -0.35000271114E+01  0.45412467165E+01  0.17770000000E+01 0.  1.
         15    1    1    2    0    0 -0.79363494867E+02  0.38025224182E+02 -0.15104666916E+02  0.89307282364E+02  0.17770000000E+01 0. -1.
</event>
<event>
 6    1  0.1823098E-004  0.5020841E+03  0.7546771E-02  0.9395158E-01
        -11   -1    0    0    0    0  0.00000000000E+00  0.00000000000E+00  0.50000000000E+03  0.50000000000E+03  0.00000000000E+00 0. -1.
         11   -1    0    0    0    0 -0.00000000000E+00 -0.00000000000E+00 -0.50000000000E+03  0.50000000000E+03  0.00000000000E+00 0. -1.
        -11    1    1    2    0    0 -0.56352776964E+01  0.38672065015E+01  0.34046128742E+03  0.34052988103E+03  0.00000000000E+00 0. -1.
         11    1    1    2    0    0  0.31124955519E+02  0.75414590516E+01 -0.49688486320E+03  0.49791586010E+03  0.00000000000E+00 0. -1.
        -15    1    1    2    0    0  0.27905951753E+01 -0.41136645092E+01  0.72202006810E+02  0.72394731670E+02  0.17770000000E+01 0.  1.
         15    1    1    2    0    0 -0.28280272998E+02 -0.72950010439E+01  0.84221568976E+02  0.89159527202E+02  0.17770000000E+01 0. -1.
</event>
<event>
 6    1  0.1823098E-004  0.5007948E+03  0.7546771E-02  0.9398033E-01
        -11   -1    0    0    0    0  0.00000000000E+00  0.00000000000E+00  0.50000000000E+03  0.50000000000E+03  0.00000000000E+00 0.  1.
         11   -1    0    0    0    0 -0.00000000000E+00 -0.00000000000E+00 -0.50000000000E+03  0.50000000000E+03  0.00000000000E+00 0.  1.
        -11    1    1    2    0    0 -0.34346240471E+01 -0.52073156486E+01  0.30539935792E+03  0.30546305930E+03  0.00000000000E+00 0.  1.
         11    1    1    2    0    0  0.66283819780E+01 -0.11333440387E+02 -0.49903251830E+03  0.49920520494E+03  0.00000000000E+00 0.  1.
        -15    1    1    2    0    0 -0.15866442533E+01  0.93266223426E+01  0.29670156174E+02  0.31192614842E+02  0.17770000000E+01 0. -1.
         15    1    1    2    0    0 -0.16071136776E+01  0.72141336931E+01  0.16396300421E+03  0.16413912092E+03  0.17770000000E+01 0.  1.
</event>
<event>
 6    1  0.1823098E-004  0.5067774E+03  0.7546771E-02  0.9384771E-01
        -11   -1    0    0    0    0  0.00000000000E+00  0.00000000000E+00  0.50000000000E+03  0.50000000000E+03  0.00000000000E+00 0.  1.
         11   -1    0    0    0    0 -0.00000000000E+00 -0.00000000000E+00 -0.50000000000E+03  0.50000000000E+03  0.00000000000E+00 0.  1.
        -11    1    1    2    0    0  0.11260396773E+02 -0.82963317259E+01  0.49302422034E+03  0.49322257400E+03  0.00000000000E+00 0.  1.
         11    1    1    2    0    0  0.17067597023E+02 -0.21689371952E+02 -0.21907998531E+03  0.22081162036E+03  0.00000000000E+00 0.  1.
        -15    1    1    2    0    0 -0.16130822872E+02  0.43904400197E+02 -0.93457042180E+02  0.10452356799E+03  0.17770000000E+01 0.  1.
         15    1    1    2    0    0 -0.12197170925E+02 -0.13918696519E+02 -0.18048719286E+03  0.18144223766E+03  0.17770000000E+01 0. -1.
</event>
<event>
 6    1  0.1823098E-004  0.4738409E+03  0.7546771E-02  0.9460324E-01
        -11   -1    0    0    0    0  0.00000000000E+00  0.00000000000E+00  0.50000000000E+03  0.50000000000E+03  0.00000000000E+00 0.  1.
         11   -1    0    0    0    0 -0.00000000000E+00 -0.00000000000E+00 -0.50000000000E+03  0.50000000000E+03  0.00000000000E+00 0.  1.
        -11    1    1    2    0    0  0.19663015101E+02 -0.17198695191E+02  0.47087656641E+03  0.47160064681E+03  0.00000000000E+00 0.  1.
         11    1    1    2    0    0 -0.19972374166E+02 -0.29940332543E+02 -0.47590717919E+03  0.47726613377E+03  0.00000000000E+00 0.  1.
        -15    1    1    2    0    0  0.65319188919E+01  0.12248874584E+02  0.68905208040E+01  0.15599291617E+02  0.17770000000E+01 0. -1.
         15    1    1    2    0    0 -0.62225598275E+01  0.34890153150E+02 -0.18599080251E+01  0.35533927794E+02  0.17770000000E+01 0.  1.
</event>
<event>
 6    1  0.1823098E-004  0.5002746E+03  0.7546771E-02  0.9399195E-01
        -11   -1    0    0    0    0  0.00000000000E+00  0.00000000000E+00  0.50000000000E+03  0.50000000000E+03  0.00000000000E+00 0. -1.
         11   -1    0    0    0    0 -0.00000000000E+00 -0.00000000000E+00 -0.50000000000E+03  0.50000000000E+03  0.00000000000E+00 0.  1.
        -11    1    1    2    0    0 -0.13135115970E+01  0.30255937475E+01  0.15760846097E+03  0.15764297161E+03  0.00000000000E+00 0. -1.
         11    1    1    2    0    0  0.25393769818E+01  0.12712521291E+02 -0.49955722602E+03  0.49972540329E+03  0.00000000000E+00 0.  1.
        -15    1    1    2    0    0 -0.17650533689E+00 -0.42319954439E+01  0.23517676971E+03  0.23522162248E+03  0.17770000000E+01 0. -1.
         15    1    1    2    0    0 -0.10493600479E+01 -0.11506119595E+02  0.10677199534E+03  0.10741000262E+03  0.17770000000E+01 0.  1.
</event>
<event>
 6    1  0.1823098E-004  0.5024441E+03  0.7546771E-02  0.9394357E-01
        -11   -1    0    0    0    0  0.00000000000E+00  0.00000000000E+00  0.50000000000E+03  0.50000000000E+03  0.00000000000E+00 0.  1.
         11   -1    0    0    0    0 -0.00000000000E+00 -0.00000000000E+00 -0.50000000000E+03  0.50000000000E+03  0.00000000000E+00 0.  1.
        -11    1    1    2    0    0  0.91035832915E+01  0.19351121279E+01  0.49746881031E+03  0.49755586332E+03  0.00000000000E+00 0.  1.
         11    1    1    2    0    0 -0.10596227259E+01  0.85812950836E+01 -0.46828044760E+03  0.46836026628E+03  0.00000000000E+00 0.  1.
        -15    1    1    2    0    0  0.20247750268E+01 -0.27539825066E+01 -0.12180266834E+02  0.12775005390E+02  0.17770000000E+01 0.  1.
         15    1    1    2    0    0 -0.10068735592E+02 -0.77624247049E+01 -0.17008095877E+02  0.21308865012E+02  0.17770000000E+01 0. -1.
</event>
<event>
 6    1  0.1823098E-004  0.5021157E+03  0.7546771E-02  0.9395088E-01
        -11   -1    0    0    0    0  0.00000000000E+00  0.00000000000E+00  0.50000000000E+03  0.50000000000E+03  0.00000000000E+00 0. -1.
         11   -1    0    0    0    0 -0.00000000000E+00 -0.00000000000E+00 -0.50000000000E+03  0.50000000000E+03  0.00000000000E+00 0. -1.
        -11    1    1    2    0    0 -0.12521411433E+02  0.51845029365E+01  0.49769985231E+03  0.49788433175E+03  0.00000000000E+00 0. -1.
         11    1    1    2    0    0 -0.38234462042E+01 -0.14260282971E+02 -0.44783715902E+03  0.44808045640E+03  0.00000000000E+00 0. -1.
        -15    1    1    2    0    0  0.52201507602E+01  0.41974298533E+01 -0.89445600087E+01  0.11315090547E+02  0.17770000000E+01 0. -1.
         15    1    1    2    0    0  0.11124706877E+02  0.48783501807E+01 -0.40918133285E+02  0.42720121303E+02  0.17770000000E+01 0.  1.
</event>
<event>
 6    1  0.1823098E-004  0.5011788E+03  0.7546771E-02  0.9397176E-01
        -11   -1    0    0    0    0  0.00000000000E+00  0.00000000000E+00  0.50000000000E+03  0.50000000000E+03  0.00000000000E+00 0.  1.
         11   -1    0    0    0    0 -0.00000000000E+00 -0.00000000000E+00 -0.50000000000E+03  0.50000000000E+03  0.00000000000E+00 0.  1.
        -11    1    1    2    0    0 -0.64161602498E+01  0.20795976550E+01  0.49877558363E+03  0.49882118506E+03  0.00000000000E+00 0.  1.
         11    1    1    2    0    0  0.84214506561E+01  0.34326086230E+01 -0.44442815884E+03  0.44452119410E+03  0.00000000000E+00 0.  1.
        -15    1    1    2    0    0  0.38173270737E+01 -0.13977019147E+01 -0.46764773745E+01  0.64461404161E+01  0.17770000000E+01 0. -1.
         15    1    1    2    0    0 -0.58226174800E+01 -0.41145043632E+01 -0.49670947418E+02  0.50211480429E+02  0.17770000000E+01 0.  1.
</event>
<event>
 6    1  0.1823098E-004  0.5103189E+03  0.7546771E-02  0.9377012E-01
        -11   -1    0    0    0    0  0.00000000000E+00  0.00000000000E+00  0.50000000000E+03  0.50000000000E+03  0.00000000000E+00 0. -1.
         11   -1    0    0    0    0 -0.00000000000E+00 -0.00000000000E+00 -0.50000000000E+03  0.50000000000E+03  0.00000000000E+00 0.  1.
        -11    1    1    2    0    0 -0.70498126945E+01  0.39206569809E+01  0.47673419124E+03  0.47680243341E+03  0.00000000000E+00 0. -1.
         11    1    1    2    0    0  0.13208164673E+02  0.15050403767E+02 -0.48927155749E+03  0.48968114854E+03  0.00000000000E+00 0.  1.
        -15    1    1    2    0    0 -0.11157912450E+02 -0.80689216161E+01  0.15727495871E+02  0.20978998110E+02  0.17770000000E+01 0. -1.
         15    1    1    2    0    0  0.49995604717E+01 -0.10902139131E+02 -0.31901296213E+01  0.12537419932E+02  0.17770000000E+01 0.  1.
</event>
<event>
 6    1  0.1823098E-004  0.5057678E+03  0.7546771E-02  0.9386996E-01
        -11   -1    0    0    0    0  0.00000000000E+00  0.00000000000E+00  0.50000000000E+03  0.50000000000E+03  0.00000000000E+00 0.  1.
         11   -1    0    0    0    0 -0.00000000000E+00 -0.00000000000E+00 -0.50000000000E+03  0.50000000000E+03  0.00000000000E+00 0.  1.
        -11    1    1    2    0    0 -0.60637174363E+01  0.77880380751E+01  0.49413367125E+03  0.49423224022E+03  0.00000000000E+00 0.  1.
         11    1    1    2    0    0 -0.14040036214E+01  0.97796775736E+01 -0.48230032538E+03  0.48240151034E+03  0.00000000000E+00 0.  1.
        -15    1    1    2    0    0  0.37271228284E+01 -0.34828411024E+01 -0.23654842931E+01  0.58970222709E+01  0.17770000000E+01 0.  1.
         15    1    1    2    0    0  0.37405982292E+01 -0.14084874546E+02 -0.94678615813E+01  0.17469227173E+02  0.17770000000E+01 0. -1.
</event>
<event>
 6    1  0.1823098E-004  0.5080655E+03  0.7546771E-02  0.9381941E-01
        -11   -1    0    0    0    0  0.00000000000E+00  0.00000000000E+00  0.50000000000E+03  0.50000000000E+03  0.00000000000E+00 0.  1.
         11   -1    0    0    0    0 -0.00000000000E+00 -0.00000000000E+00 -0.50000000000E+03  0.50000000000E+03  0.00000000000E+00 0.  1.
        -11    1    1    2    0    0 -0.46945650714E-01  0.64792379290E+01  0.46018607198E+03  0.46023168467E+03  0.00000000000E+00 0.  1.
         11    1    1    2    0    0 -0.62365842727E+01 -0.16265999841E+02 -0.49162594616E+03  0.49193449632E+03  0.00000000000E+00 0.  1.
        -15    1    1    2    0    0  0.97666578508E+01  0.15496809393E+02  0.31022256164E+01  0.18663339458E+02  0.17770000000E+01 0. -1.
         15    1    1    2    0    0 -0.34831279274E+01 -0.57100474814E+01  0.28337648557E+02  0.29170479550E+02  0.17770000000E+01 0.  1.
</event>
<event>
 6    1  0.1823098E-004  0.5103716E+03  0.7546771E-02  0.9376897E-01
        -11   -1    0    0    0    0  0.00000000000E+00  0.00000000000E+00  0.50000000000E+03  0.50000000000E+03  0.00000000000E+00 0.  1.
         11   -1    0    0    0    0 -0.00000000000E+00 -0.00000000000E+00 -0.50000000000E+03  0.50000000000E+03  0.00000000000E+00 0.  1.
        -11    1    1    2    0    0  0.33821829758E+02 -0.86732820029E+01  0.48838186311E+03  0.48962841646E+03  0.00000000000E+00 0.  1.
         11    1    1    2    0    0 -0.40177303633E+02 -0.99680629644E+00 -0.26095458070E+02  0.47918496240E+02  0.00000000000E+00 0.  1.
        -15    1    1    2    0    0  0.31270591843E+01  0.25900158692E+01 -0.16827290263E+03  0.16833126320E+03  0.17770000000E+01 0.  1.
         15    1    1    2    0    0  0.32284146904E+01  0.70800724301E+01 -0.29401350240E+03  0.29412182410E+03  0.17770000000E+01 0.  1.
</event>
<event>
 6    1  0.1823098E-004  0.4492496E+03  0.7546771E-02  0.9521127E-01
        -11   -1    0    0    0    0  0.00000000000E+00  0.00000000000E+00  0.50000000000E+03  0.50000000000E+03  0.00000000000E+00 0.  1.
         11   -1    0    0    0    0 -0.00000000000E+00 -0.00000000000E+00 -0.50000000000E+03  0.50000000000E+03  0.00000000000E+00 0. -1.
        -11    1    1    2    0    0  0.31199421197E+01 -0.81709898789E+01  0.47436653213E+03  0.47444715819E+03  0.00000000000E+00 0.  1.
         11    1    1    2    0    0 -0.34252953671E+02  0.66091571917E+02 -0.42148272699E+03  0.42800589934E+03  0.00000000000E+00 0. -1.
        -15    1    1    2    0    0  0.37521643730E+01  0.43577525775E+01  0.52927661910E+01  0.80149764792E+01  0.17770000000E+01 0.  1.
         15    1    1    2    0    0  0.27380847178E+02 -0.62278334616E+02 -0.58176571324E+02  0.89531965994E+02  0.17770000000E+01 0. -1.
</event>
<event>
 6    1  0.1823098E-004  0.5015389E+03  0.7546771E-02  0.9396373E-01
        -11   -1    0    0    0    0  0.00000000000E+00  0.00000000000E+00  0.50000000000E+03  0.50000000000E+03  0.00000000000E+00 0.  1.
         11   -1    0    0    0    0 -0.00000000000E+00 -0.00000000000E+00 -0.50000000000E+03  0.50000000000E+03  0.00000000000E+00 0. -1.
        -11    1    1    2    0    0  0.14288249178E+02 -0.13868631314E+02  0.47519429662E+03  0.47561130405E+03  0.00000000000E+00 0.  1.
         11    1    1    2    0    0  0.73090263814E+01  0.10127122279E+02  0.22721366719E+02  0.25927610338E+02  0.00000000000E+00 0. -1.
        -15    1    1    2    0    0 -0.19766736050E+02  0.33848312723E+01 -0.39455979308E+03  0.39507311853E+03  0.17770000000E+01 0. -1.
         15    1    1    2    0    0 -0.18305395095E+01  0.35667776204E+00 -0.10335587025E+03  0.10338796709E+03  0.17770000000E+01 0.  1.
</event>
<event>
 6    1  0.1823098E-004  0.4821250E+03  0.7546771E-02  0.9440719E-01
        -11   -1    0    0    0    0  0.00000000000E+00  0.00000000000E+00  0.50000000000E+03  0.50000000000E+03  0.00000000000E+00 0. -1.
         11   -1    0    0    0    0 -0.00000000000E+00 -0.00000000000E+00 -0.50000000000E+03  0.50000000000E+03  0.00000000000E+00 0. -1.
        -11    1    1    2    0    0  0.85151396834E+01 -0.10010545273E+02  0.48207989198E+03  0.48225899771E+03  0.00000000000E+00 0. -1.
         11    1    1    2    0    0 -0.11321777777E+02 -0.34063539141E+01 -0.48194350940E+03  0.48208851071E+03  0.00000000000E+00 0. -1.
        -15    1    1    2    0    0 -0.17486760124E+00  0.20395777315E+02  0.10065185159E+02  0.22814118266E+02  0.17770000000E+01 0. -1.
         15    1    1    2    0    0  0.29815056947E+01 -0.69788781284E+01 -0.10201567737E+02  0.12838373317E+02  0.17770000000E+01 0.  1.
</event>
<event>
 6    1  0.1823098E-004  0.5001310E+03  0.7546771E-02  0.9399517E-01
        -11   -1    0    0    0    0  0.00000000000E+00  0.00000000000E+00  0.50000000000E+03  0.50000000000E+03  0.00000000000E+00 0.  1.
         11   -1    0    0    0    0 -0.00000000000E+00 -0.00000000000E+00 -0.50000000000E+03  0.50000000000E+03  0.00000000000E+00 0.  1.
        -11    1    1    2    0    0  0.10750377559E+02  0.10849129946E+01  0.49975222294E+03  0.49986901483E+03  0.00000000000E+00 0.  1.
         11    1    1    2    0    0 -0.84815215044E+01 -0.22483142263E+00 -0.16570844709E+03  0.16592551399E+03  0.00000000000E+00 0.  1.
        -15    1    1    2    0    0 -0.36055335287E+01  0.30908366417E+01 -0.11115699824E+03  0.11127258931E+03  0.17770000000E+01 0.  1.
         15    1    1    2    0    0  0.13366774745E+01 -0.39509182137E+01 -0.22288677760E+03  0.22293288187E+03  0.17770000000E+01 0. -1.
</event>
<event>
 6    1  0.1823098E-004  0.5013321E+03  0.7546771E-02  0.9396834E-01
        -11   -1    0    0    0    0  0.00000000000E+00  0.00000000000E+00  0.50000000000E+03  0.50000000000E+03  0.00000000000E+00 0.  1.
         11   -1    0    0    0    0 -0.00000000000E+00 -0.00000000000E+00 -0.50000000000E+03  0.50000000000E+03  0.00000000000E+00 0. -1.
        -11    1    1    2    0    0  0.36824536914E+01 -0.56986053891E+01  0.49862177887E+03  0.49866793854E+03  0.00000000000E+00 0.  1.
         11    1    1    2    0    0 -0.20301794106E+02 -0.32282019342E+01 -0.37015500291E+03  0.37072538395E+03  0.00000000000E+00 0. -1.
        -15    1    1    2    0    0  0.45724761425E-01  0.50099962858E+01 -0.16418682620E+02  0.17257839422E+02  0.17770000000E+01 0.  1.
         15    1    1    2    0    0  0.16573615653E+02  0.39168110375E+01 -0.11204809334E+03  0.11334883808E+03  0.17770000000E+01 0. -1.
</event>
<event>
 6    1  0.1823098E-004  0.5003550E+03  0.7546771E-02  0.9399016E-01
        -11   -1    0    0    0    0  0.00000000000E+00  0.00000000000E+00  0.50000000000E+03  0.50000000000E+03  0.00000000000E+00 0. -1.
         11   -1    0    0    0    0 -0.00000000000E+00 -0.00000000000E+00 -0.50000000000E+03  0.50000000000E+03  0.00000000000E+00 0. -1.
        -11    1    1    2    0    0 -0.13419055634E+01 -0.11419480819E+02  0.49951265499E+03  0.49964497171E+03  0.00000000000E+00 0. -1.
         11    1    1    2    0    0 -0.37327486271E+01  0.11964878943E+02 -0.12529734549E+03  0.12592266089E+03  0.00000000000E+00 0. -1.
        -15    1    1    2    0    0  0.77913594171E+01 -0.27621945253E+01 -0.29300712163E+03  0.29312909452E+03  0.17770000000E+01 0.  1.
         15    1    1    2    0    0 -0.27167052266E+01  0.22167964010E+01 -0.81208187876E+02  0.81303272878E+02  0.17770000000E+01 0. -1.
</event>
<event>
 6    1  0.1823098E-004  0.5014405E+03  0.7546771E-02  0.9396592E-01
        -11   -1    0    0    0    0  0.00000000000E+00  0.00000000000E+00  0.50000000000E+03  0.50000000000E+03  0.00000000000E+00 0.  1.
         11   -1    0    0    0    0 -0.00000000000E+00 -0.00000000000E+00 -0.50000000000E+03  0.50000000000E+03  0.00000000000E+00 0. -1.
        -11    1    1    2    0    0  0.45167317081E+01  0.43734640765E+01  0.34121262687E+03  0.34127054486E+03  0.00000000000E+00 0.  1.
         11    1    1    2    0    0 -0.25087120002E+02  0.48890460821E+01 -0.49790389956E+03  0.49855948447E+03  0.00000000000E+00 0. -1.
        -15    1    1    2    0    0 -0.42732799225E+01 -0.43172498628E+01  0.16016066078E+02  0.17221256321E+02  0.17770000000E+01 0. -1.
         15    1    1    2    0    0  0.24843668216E+02 -0.49452602958E+01  0.14067520661E+03  0.14294871435E+03  0.17770000000E+01 0.  1.
</event>
<event>
 6    1  0.1823098E-004  0.5005032E+03  0.7546771E-02  0.9398685E-01
        -11   -1    0    0    0    0  0.00000000000E+00  0.00000000000E+00  0.50000000000E+03  0.50000000000E+03  0.00000000000E+00 0. -1.
         11   -1    0    0    0    0 -0.00000000000E+00 -0.00000000000E+00 -0.50000000000E+03  0.50000000000E+03  0.00000000000E+00 0. -1.
        -11    1    1    2    0    0 -0.62098116766E+01  0.85748160911E+01  0.49938462434E+03  0.49949683909E+03  0.00000000000E+00 0. -1.
         11    1    1    2    0    0  0.75981021414E+01 -0.43213352253E+01 -0.45348926028E+03  0.45357349381E+03  0.00000000000E+00 0. -1.
        -15    1    1    2    0    0  0.31906250993E+01 -0.24612380577E+01 -0.16764292794E+02  0.17333119257E+02  0.17770000000E+01 0.  1.
         15    1    1    2    0    0 -0.45789155641E+01 -0.17922428081E+01 -0.29131071270E+02  0.29596547846E+02  0.17770000000E+01 0. -1.
</event>
<event>
 6    1  0.1823098E-004  0.5002614E+03  0.7546771E-02  0.9399225E-01
        -11   -1    0    0    0    0  0.00000000000E+00  0.00000000000E+00  0.50000000000E+03  0.50000000000E+03  0.00000000000E+00 0. -1.
         11   -1    0    0    0    0 -0.00000000000E+00 -0.00000000000E+00 -0.50000000000E+03  0.50000000000E+03  0.00000000000E+00 0.  1.
        -11    1    1    2    0    0 -0.37481517334E+01  0.29129702283E+01  0.33439522017E+03  0.33442891219E+03  0.00000000000E+00 0. -1.
         11    1    1    2    0    0  0.17558155012E+02 -0.74809970989E+00 -0.49942952141E+03  0.49973862700E+03  0.00000000000E+00 0.  1.
        -15    1    1    2    0    0 -0.99295689156E+01 -0.11180634227E+01  0.14326532840E+03  0.14362436581E+03  0.17770000000E+01 0. -1.
         15    1    1    2    0    0 -0.38804343629E+01 -0.10468070957E+01  0.21768972843E+02  0.22208095001E+02  0.17770000000E+01 0.  1.
</event>
<event>
 6    1  0.1823098E-004  0.4885625E+03  0.7546771E-02  0.9425772E-01
        -11   -1    0    0    0    0  0.00000000000E+00  0.00000000000E+00  0.50000000000E+03  0.50000000000E+03  0.00000000000E+00 0.  1.
         11   -1    0    0    0    0 -0.00000000000E+00 -0.00000000000E+00 -0.50000000000E+03  0.50000000000E+03  0.00000000000E+00 0. -1.
        -11    1    1    2    0    0 -0.74276355788E+01  0.55331384001E+01  0.49181164243E+03  0.49189884837E+03  0.00000000000E+00 0.  1.
         11    1    1    2    0    0 -0.34873559792E+01 -0.16692987946E+02 -0.48507431076E+03  0.48537398412E+03  0.00000000000E+00 0. -1.
        -15    1    1    2    0    0  0.88993340028E+01  0.13860975832E+02 -0.20610419411E+01  0.16695221460E+02  0.17770000000E+01 0. -1.
         15    1    1    2    0    0  0.20156575552E+01 -0.27011262861E+01 -0.46762897328E+01  0.60319460590E+01  0.17770000000E+01 0.  1.
</event>
<event>
 6    1  0.1823098E-004  0.5030562E+03  0.7546771E-02  0.9392997E-01
        -11   -1    0    0    0    0  0.00000000000E+00  0.00000000000E+00  0.50000000000E+03  0.50000000000E+03  0.00000000000E+00 0.  1.
         11   -1    0    0    0    0 -0.00000000000E+00 -0.00000000000E+00 -0.50000000000E+03  0.50000000000E+03  0.00000000000E+00 0.  1.
        -11    1    1    2    0    0  0.15301627279E+02  0.22306454271E+01  0.49670313720E+03  0.49694378161E+03  0.00000000000E+00 0.  1.
         11    1    1    2    0    0  0.53320984894E+01  0.10686395168E+02 -0.41860430267E+03  0.41877463214E+03  0.00000000000E+00 0.  1.
        -15    1    1    2    0    0 -0.64902054922E+01 -0.10863311639E+02 -0.58962634611E+02  0.60331453790E+02  0.17770000000E+01 0. -1.
         15    1    1    2    0    0 -0.14143520277E+02 -0.20537289563E+01 -0.19136199922E+02  0.23950132461E+02  0.17770000000E+01 0.  1.
</event>
<event>
 6    1  0.1823098E-004  0.5055770E+03  0.7546771E-02  0.9387417E-01
        -11   -1    0    0    0    0  0.00000000000E+00  0.00000000000E+00  0.50000000000E+03  0.50000000000E+03  0.00000000000E+00 0.  1.
         11   -1    0    0    0    0 -0.00000000000E+00 -0.00000000000E+00 -0.50000000000E+03  0.50000000000E+03  0.00000000000E+00 0. -1.
        -11    1    1    2    0    0  0.17655139953E+01 -0.77091043141E+01  0.49435974941E+03  0.49442300630E+03  0.00000000000E+00 0.  1.
         11    1    1    2    0    0  0.15584299957E+02  0.59233831206E+01 -0.47706579462E+03  0.47735702495E+03  0.00000000000E+00 0. -1.
        -15    1    1    2    0    0 -0.11743998855E+02 -0.43907494179E+01 -0.58537743235E+01  0.13950791819E+02  0.17770000000E+01 0. -1.
         15    1    1    2    0    0 -0.56058150974E+01  0.61764706114E+01 -0.11440180458E+02  0.14269176922E+02  0.17770000000E+01 0.  1.
</event>
<event>
 6    1  0.1823098E-004  0.5027315E+03  0.7546771E-02  0.9393718E-01
        -11   -1    0    0    0    0  0.00000000000E+00  0.00000000000E+00  0.50000000000E+03  0.50000000000E+03  0.00000000000E+00 0.  1.
         11   -1    0    0    0    0 -0.00000000000E+00 -0.00000000000E+00 -0.50000000000E+03  0.50000000000E+03  0.00000000000E+00 0.  1.
        -11    1    1    2    0    0  0.71106236830E+01  0.55357634632E+01  0.47714227971E+03  0.47722736796E+03  0.00000000000E+00 0.  1.
         11    1    1    2    0    0  0.70653405638E+01 -0.38943270099E+01 -0.49720304142E+03  0.49726848806E+03  0.00000000000E+00 0.  1.
        -15    1    1    2    0    0 -0.45885255498E+01 -0.40653374492E+00  0.28944184951E+01  0.57232179612E+01  0.17770000000E+01 0.  1.
         15    1    1    2    0    0 -0.95874386970E+01 -0.12349027083E+01  0.17166343220E+02  0.19780926015E+02  0.17770000000E+01 0. -1.
</event>
<event>
 6    1  0.1823098E-004  0.5001147E+03  0.7546771E-02  0.9399553E-01
        -11   -1    0    0    0    0  0.00000000000E+00  0.00000000000E+00  0.50000000000E+03  0.50000000000E+03  0.00000000000E+00 0. -1.
         11   -1    0    0    0    0 -0.00000000000E+00 -0.00000000000E+00 -0.50000000000E+03  0.50000000000E+03  0.00000000000E+00 0.  1.
        -11    1    1    2    0    0 -0.76336972336E+01 -0.93290760225E+01  0.27682149573E+03  0.27708382394E+03  0.00000000000E+00 0. -1.
         11    1    1    2    0    0  0.13604423082E+02  0.54814145867E+01 -0.49967003609E+03  0.49988525803E+03  0.00000000000E+00 0.  1.
        -15    1    1    2    0    0 -0.13172552203E+01  0.13659176282E+01  0.12295034310E+03  0.12297782520E+03  0.17770000000E+01 0. -1.
         15    1    1    2    0    0 -0.46534706278E+01  0.24817438076E+01  0.99898197253E+02  0.10005309283E+03  0.17770000000E+01 0.  1.
</event>
<event>
 6    1  0.1823098E-004  0.5001950E+03  0.7546771E-02  0.9399374E-01
        -11   -1    0    0    0    0  0.00000000000E+00  0.00000000000E+00  0.50000000000E+03  0.50000000000E+03  0.00000000000E+00 0. -1.
         11   -1    0    0    0    0 -0.00000000000E+00 -0.00000000000E+00 -0.50000000000E+03  0.50000000000E+03  0.00000000000E+00 0. -1.
        -11    1    1    2    0    0  0.27716207654E+01  0.16221297110E+02  0.49953403731E+03  0.49980502878E+03  0.00000000000E+00 0. -1.
         11    1    1    2    0    0 -0.47807347222E+01 -0.41524623501E+01 -0.25094401954E+03  0.25102390187E+03  0.00000000000E+00 0. -1.
        -15    1    1    2    0    0  0.88586196328E+00 -0.74168820059E+00 -0.71801099046E+01  0.74864250512E+01  0.17770000000E+01 0.  1.
         15    1    1    2    0    0  0.11232519936E+01 -0.11327146559E+02 -0.24140990787E+03  0.24168464430E+03  0.17770000000E+01 0.  1.
</event>
<event>
 6    1  0.1823098E-004  0.5001759E+03  0.7546771E-02  0.9399416E-01
        -11   -1    0    0    0    0  0.00000000000E+00  0.00000000000E+00  0.50000000000E+03  0.50000000000E+03  0.00000000000E+00 0.  1.
         11   -1    0    0    0    0 -0.00000000000E+00 -0.00000000000E+00 -0.50000000000E+03  0.50000000000E+03  0.00000000000E+00 0.  1.
        -11    1    1    2    0    0  0.40923303441E+01  0.92457914323E+01  0.49972184050E+03  0.49982411876E+03  0.00000000000E+00 0.  1.
         11    1    1    2    0    0  0.47241718457E+00  0.50730358653E+01 -0.89235438022E+02  0.89380771253E+02  0.00000000000E+00 0.  1.
        -15    1    1    2    0    0 -0.36820928292E+01 -0.89004822479E+01 -0.29785484950E+03  0.29801584772E+03  0.17770000000E+01 0.  1.
         15    1    1    2    0    0 -0.88265469945E+00 -0.54183450497E+01 -0.11263155298E+03  0.11277926227E+03  0.17770000000E+01 0.  1.
</event>
<event>
 6    1  0.1823098E-004  0.5000476E+03  0.7546771E-02  0.9399703E-01
        -11   -1    0    0    0    0  0.00000000000E+00  0.00000000000E+00  0.50000000000E+03  0.50000000000E+03  0.00000000000E+00 0.  1.
         11   -1    0    0    0    0 -0.00000000000E+00 -0.00000000000E+00 -0.50000000000E+03  0.50000000000E+03  0.00000000000E+00 0.  1.
        -11    1    1    2    0    0  0.81865615078E+01  0.36940722764E+00  0.49988522788E+03  0.49995239504E+03  0.00000000000E+00 0.  1.
         11    1    1    2    0    0 -0.68194550164E+01 -0.32991738435E+00 -0.34396931155E+03  0.34403706356E+03  0.00000000000E+00 0.  1.
        -15    1    1    2    0    0 -0.76211182295E+00 -0.11555510070E+01 -0.33739225808E+02  0.33814334234E+02  0.17770000000E+01 0.  1.
         15    1    1    2    0    0 -0.60499466842E+00  0.11160611637E+01 -0.12217669052E+03  0.12219620717E+03  0.17770000000E+01 0.  1.
</event>
<event>
 6    1  0.1823098E-004  0.5015453E+03  0.7546771E-02  0.9396359E-01
        -11   -1    0    0    0    0  0.00000000000E+00  0.00000000000E+00  0.50000000000E+03  0.50000000000E+03  0.00000000000E+00 0. -1.
         11   -1    0    0    0    0 -0.00000000000E+00 -0.00000000000E+00 -0.50000000000E+03  0.50000000000E+03  0.00000000000E+00 0.  1.
        -11    1    1    2    0    0  0.22255353586E+02 -0.34429949178E+02  0.49676591218E+03  0.49845470574E+03  0.00000000000E+00 0. -1.
         11    1    1    2    0    0 -0.26039169756E+02  0.15819819917E+02 -0.34102797544E+03  0.34238630974E+03  0.00000000000E+00 0.  1.
        -15    1    1    2    0    0  0.39724350612E+01  0.22761849248E+02 -0.80068984022E+02  0.83355155527E+02  0.17770000000E+01 0. -1.
         15    1    1    2    0    0 -0.18861889180E+00 -0.41517199883E+01 -0.75668952717E+02  0.75803828994E+02  0.17770000000E+01 0.  1.
</event>
<event>
 6    1  0.1823098E-004  0.5000784E+03  0.7546771E-02  0.9399634E-01
        -11   -1    0    0    0    0  0.00000000000E+00  0.00000000000E+00  0.50000000000E+03  0.50000000000E+03  0.00000000000E+00 0.  1.
         11   -1    0    0    0    0 -0.00000000000E+00 -0.00000000000E+00 -0.50000000000E+03  0.50000000000E+03  0.00000000000E+00 0.  1.
        -11    1    1    2    0    0  0.54125658245E+01  0.10991244791E+01  0.39387756660E+03  0.39391628732E+03  0.00000000000E+00 0.  1.
         11    1    1    2    0    0 -0.58376320210E+01 -0.35046700873E+01 -0.49987525472E+03  0.49992162480E+03  0.00000000000E+00 0.  1.
        -15    1    1    2    0    0  0.19476197310E+01  0.44378612234E+00  0.62623699404E+02  0.62680743652E+02  0.17770000000E+01 0. -1.
         15    1    1    2    0    0 -0.15225535344E+01  0.19617594859E+01  0.43373988716E+02  0.43481344225E+02  0.17770000000E+01 0.  1.
</event>
<event>
 6    1  0.2502643E-004  0.5001550E+03  0.7546771E-02  0.9399463E-01
        -11   -1    0    0    0    0  0.00000000000E+00  0.00000000000E+00  0.50000000000E+03  0.50000000000E+03  0.00000000000E+00 0. -1.
         11   -1    0    0    0    0 -0.00000000000E+00 -0.00000000000E+00 -0.50000000000E+03  0.50000000000E+03  0.00000000000E+00 0. -1.
        -11    1    1    2    0    0 -0.13463479430E+01 -0.20496191617E+00  0.83727587887E+02  0.83738662729E+02  0.00000000000E+00 0. -1.
         11    1    1    2    0    0  0.89507084247E+01  0.12619589962E+01 -0.49976322575E+03  0.49984496550E+03  0.00000000000E+00 0. -1.
        -15    1    1    2    0    0  0.45471378879E+00  0.57007602520E+01  0.22784978667E+03  0.22792847221E+03  0.17770000000E+01 0. -1.
         15    1    1    2    0    0 -0.80590742705E+01 -0.67577573320E+01  0.18818585119E+03  0.18848789956E+03  0.17770000000E+01 0.  1.
</event>
<event>
 6    1  0.1823098E-004  0.5011230E+03  0.7546771E-02  0.9397300E-01
        -11   -1    0    0    0    0  0.00000000000E+00  0.00000000000E+00  0.50000000000E+03  0.50000000000E+03  0.00000000000E+00 0. -1.
         11   -1    0    0    0    0 -0.00000000000E+00 -0.00000000000E+00 -0.50000000000E+03  0.50000000000E+03  0.00000000000E+00 0. -1.
        -11    1    1    2    0    0 -0.15265228787E+02 -0.12295835015E+02  0.49849173655E+03  0.49887696497E+03  0.00000000000E+00 0. -1.
         11    1    1    2    0    0 -0.72628713837E+01 -0.57302762050E+01 -0.32108542090E+03  0.32121866832E+03  0.00000000000E+00 0. -1.
        -15    1    1    2    0    0  0.45263510581E+01  0.60120539529E+01 -0.34371055880E+02  0.35230098750E+02  0.17770000000E+01 0.  1.
         15    1    1    2    0    0  0.18001749112E+02  0.12014057267E+02 -0.14303525977E+03  0.14467426796E+03  0.17770000000E+01 0. -1.
</event>
<event>
 6    1  0.1823098E-004  0.5001069E+03  0.7546771E-02  0.9399570E-01
        -11   -1    0    0    0    0  0.00000000000E+00  0.00000000000E+00  0.50000000000E+03  0.50000000000E+03  0.00000000000E+00 0.  1.
         11   -1    0    0    0    0 -0.00000000000E+00 -0.00000000000E+00 -0.50000000000E+03  0.50000000000E+03  0.00000000000E+00 0. -1.
        -11    1    1    2    0    0  0.27271335485E+01 -0.16736222922E+02  0.49960537036E+03  0.49989305307E+03  0.00000000000E+00 0.  1.
         11    1    1    2    0    0 -0.62934246541E+01  0.10186825817E+02 -0.18678521948E+03  0.18716863207E+03  0.00000000000E+00 0. -1.
        -15    1    1    2    0    0  0.29243062451E+01  0.37164589212E+01 -0.15808445595E+03  0.15816515601E+03  0.17770000000E+01 0. -1.
         15    1    1    2    0    0  0.64198486047E+00  0.28329381834E+01 -0.15473569494E+03  0.15477315885E+03  0.17770000000E+01 0.  1.
</event>
<event>
 6    1  0.1823098E-004  0.5029321E+03  0.7546771E-02  0.9393273E-01
        -11   -1    0    0    0    0  0.00000000000E+00  0.00000000000E+00  0.50000000000E+03  0.50000000000E+03  0.00000000000E+00 0.  1.
         11   -1    0    0    0    0 -0.00000000000E+00 -0.00000000000E+00 -0.50000000000E+03  0.50000000000E+03  0.00000000000E+00 0.  1.
        -11    1    1    2    0    0  0.14937087708E+02 -0.20518456698E+02  0.49641956456E+03  0.49706791058E+03  0.00000000000E+00 0.  1.
         11    1    1    2    0    0 -0.26583053385E+02  0.97083250970E+01 -0.43676998226E+03  0.43768587789E+03  0.00000000000E+00 0.  1.
        -15    1    1    2    0    0  0.16395253391E+02  0.34353330508E+01 -0.31688273075E+02  0.35887466146E+02  0.17770000000E+01 0.  1.
         15    1    1    2    0    0 -0.47492877139E+01  0.73747985500E+01 -0.27961309227E+02  0.29358745377E+02  0.17770000000E+01 0. -1.
</event>
<event>
 6    1  0.1823098E-004  0.5008121E+03  0.7546771E-02  0.9397994E-01
        -11   -1    0    0    0    0  0.00000000000E+00  0.00000000000E+00  0.50000000000E+03  0.50000000000E+03  0.00000000000E+00 0. -1.
         11   -1    0    0    0    0 -0.00000000000E+00 -0.00000000000E+00 -0.50000000000E+03  0.50000000000E+03  0.00000000000E+00 0.  1.
        -11    1    1    2    0    0  0.59702115608E+01  0.65097140817E+01  0.48755542796E+03  0.48763543261E+03  0.00000000000E+00 0. -1.
         11    1    1    2    0    0 -0.45665751426E+01 -0.57451560690E+01 -0.49913393797E+03  0.49918788893E+03  0.00000000000E+00 0.  1.
        -15    1    1    2    0    0 -0.15983735623E+01 -0.20093123933E+01  0.10028005686E+02  0.10502893000E+02  0.17770000000E+01 0.  1.
         15    1    1    2    0    0  0.19473714410E+00  0.12447543807E+01  0.15505043161E+01  0.26737854547E+01  0.17770000000E+01 0. -1.
</event>
<event>
 6    1  0.1823098E-004  0.5118085E+03  0.7546771E-02  0.9373768E-01
        -11   -1    0    0    0    0  0.00000000000E+00  0.00000000000E+00  0.50000000000E+03  0.50000000000E+03  0.00000000000E+00 0. -1.
         11   -1    0    0    0    0 -0.00000000000E+00 -0.00000000000E+00 -0.50000000000E+03  0.50000000000E+03  0.00000000000E+00 0.  1.
        -11    1    1    2    0    0 -0.60701719393E+01  0.76751449020E+01  0.36956680944E+03  0.36969633685E+03  0.00000000000E+00 0. -1.
         11    1    1    2    0    0  0.78926774453E+01  0.10514565600E+02 -0.48801438690E+03  0.48819145043E+03  0.00000000000E+00 0.  1.
        -15    1    1    2    0    0 -0.55801772333E+01 -0.18661923979E+02 -0.36889459896E+01  0.19904065818E+02  0.17770000000E+01 0.  1.
         15    1    1    2    0    0  0.37576717273E+01  0.47221347716E+00  0.12213652345E+03  0.12220814691E+03  0.17770000000E+01 0.  1.
</event>
<event>
 6    1  0.1823098E-004  0.5018569E+03  0.7546771E-02  0.9395664E-01
        -11   -1    0    0    0    0  0.00000000000E+00  0.00000000000E+00  0.50000000000E+03  0.50000000000E+03  0.00000000000E+00 0.  1.
         11   -1    0    0    0    0 -0.00000000000E+00 -0.00000000000E+00 -0.50000000000E+03  0.50000000000E+03  0.00000000000E+00 0. -1.
        -11    1    1    2    0    0 -0.17713388094E+01 -0.70727933289E+01  0.42186546519E+03  0.42192846878E+03  0.00000000000E+00 0.  1.
         11    1    1    2    0    0 -0.18231866656E+02  0.76313524302E+00 -0.49780875104E+03  0.49814308783E+03  0.00000000000E+00 0. -1.
        -15    1    1    2    0    0 -0.77099346022E+00  0.30222670420E+01  0.77051041636E+01  0.85002875340E+01  0.17770000000E+01 0.  1.
         15    1    1    2    0    0  0.20774198926E+02  0.32873910438E+01  0.68238181685E+02  0.71428155860E+02  0.17770000000E+01 0. -1.
</event>
<event>
 6    1  0.1823098E-004  0.5016811E+03  0.7546771E-02  0.9396056E-01
        -11   -1    0    0    0    0  0.00000000000E+00  0.00000000000E+00  0.50000000000E+03  0.50000000000E+03  0.00000000000E+00 0.  1.
         11   -1    0    0    0    0 -0.00000000000E+00 -0.00000000000E+00 -0.50000000000E+03  0.50000000000E+03  0.00000000000E+00 0. -1.
        -11    1    1    2    0    0 -0.22544470071E+01 -0.10501528438E+02  0.49820312472E+03  0.49831889199E+03  0.00000000000E+00 0.  1.
         11    1    1    2    0    0 -0.34112780090E+01  0.93209113850E+01 -0.44483011763E+03  0.44494083850E+03  0.00000000000E+00 0. -1.
        -15    1    1    2    0    0  0.78343686246E+01  0.31746565224E+01 -0.52479530067E+02  0.53185661421E+02  0.17770000000E+01 0. -1.
         15    1    1    2    0    0 -0.21686436085E+01 -0.19940394694E+01 -0.89347702169E+00  0.35546080930E+01  0.17770000000E+01 0. -1.
</event>
<event>
 6    1  0.1823098E-004  0.5135486E+03  0.7546771E-02  0.9369994E-01
        -11   -1    0    0    0    0  0.00000000000E+00  0.00000000000E+00  0.50000000000E+03  0.50000000000E+03  0.00000000000E+00 0.  1.
         11   -1    0    0    0    0 -0.00000000000E+00 -0.00000000000E+00 -0.50000000000E+03  0.50000000000E+03  0.00000000000E+00 0. -1.
        -11    1    1    2    0    0  0.62007572617E+01  0.90604745451E+00  0.45249207696E+03  0.45253546825E+03  0.00000000000E+00 0.  1.
         11    1    1    2    0    0 -0.20985497665E+02  0.46432665820E+02 -0.48377537147E+03  0.48645142985E+03  0.00000000000E+00 0. -1.
        -15    1    1    2    0    0 -0.34855154593E+01 -0.10728106354E+02  0.63638873847E+01  0.13072791424E+02  0.17770000000E+01 0. -1.
         15    1    1    2    0    0  0.18270255862E+02 -0.36610606920E+02  0.24919407123E+02  0.47940310477E+02  0.17770000000E+01 0.  1.
</event>
<event>
 6    1  0.1823098E-004  0.5059354E+03  0.7546771E-02  0.9386626E-01
        -11   -1    0    0    0    0  0.00000000000E+00  0.00000000000E+00  0.50000000000E+03  0.50000000000E+03  0.00000000000E+00 0. -1.
         11   -1    0    0    0    0 -0.00000000000E+00 -0.00000000000E+00 -0.50000000000E+03  0.50000000000E+03  0.00000000000E+00 0.  1.
        -11    1    1    2    0    0  0.49232097036E+00 -0.14304742108E+02  0.49385720999E+03  0.49406458270E+03  0.00000000000E+00 0. -1.
         11    1    1    2    0    0 -0.14291822607E+02 -0.59685715668E+01 -0.46866220679E+03  0.46891805693E+03  0.00000000000E+00 0.  1.
        -15    1    1    2    0    0  0.70372789822E+01  0.10099148030E+02 -0.51181665802E+01  0.13448771117E+02  0.17770000000E+01 0.  1.
         15    1    1    2    0    0  0.67622226545E+01  0.10174165644E+02 -0.20076836612E+02  0.23568589248E+02  0.17770000000E+01 0. -1.
</event>
<event>
 6    1  0.1823098E-004  0.4930650E+03  0.7546771E-02  0.9415463E-01
        -11   -1    0    0    0    0  0.00000000000E+00  0.00000000000E+00  0.50000000000E+03  0.50000000000E+03  0.00000000000E+00 0.  1.
         11   -1    0    0    0    0 -0.00000000000E+00 -0.00000000000E+00 -0.50000000000E+03  0.50000000000E+03  0.00000000000E+00 0.  1.
        -11    1    1    2    0    0  0.60711191920E+01 -0.37331402892E+01  0.49561558561E+03  0.49566682714E+03  0.00000000000E+00 0.  1.
         11    1    1    2    0    0 -0.38775718537E+01 -0.78332148645E+01 -0.49046891212E+03  0.49054678531E+03  0.00000000000E+00 0.  1.
        -15    1    1    2    0    0  0.30473701653E+00  0.28592392459E+01 -0.39234444968E+00  0.34029071221E+01  0.17770000000E+01 0. -1.
         15    1    1    2    0    0 -0.24982843548E+01  0.87071159078E+01 -0.47543290408E+01  0.10383480427E+02  0.17770000000E+01 0.  1.
</event>
<event>
 6    1  0.1823098E-004  0.5008184E+03  0.7546771E-02  0.9397980E-01
        -11   -1    0    0    0    0  0.00000000000E+00  0.00000000000E+00  0.50000000000E+03  0.50000000000E+03  0.00000000000E+00 0. -1.
         11   -1    0    0    0    0 -0.00000000000E+00 -0.00000000000E+00 -0.50000000000E+03  0.50000000000E+03  0.00000000000E+00 0. -1.
        -11    1    1    2    0    0  0.13516933003E+02  0.84124963669E+01  0.49892768296E+03  0.49918164069E+03  0.00000000000E+00 0. -1.
         11    1    1    2    0    0 -0.13295225163E+01 -0.11793295270E+02 -0.20175279824E+03  0.20210156120E+03  0.00000000000E+00 0. -1.
        -15    1    1    2    0    0  0.26128834051E+01  0.38149758306E+01 -0.22313526977E+03  0.22319024966E+03  0.17770000000E+01 0. -1.
         15    1    1    2    0    0 -0.14800293892E+02 -0.43417692750E+00 -0.74039614957E+02  0.75526548450E+02  0.17770000000E+01 0.  1.
</event>
<event>
 6    1  0.1823098E-004  0.5210115E+03  0.7546771E-02  0.9353985E-01
        -11   -1    0    0    0    0  0.00000000000E+00  0.00000000000E+00  0.50000000000E+03  0.50000000000E+03  0.00000000000E+00 0.  1.
         11   -1    0    0    0    0 -0.00000000000E+00 -0.00000000000E+00 -0.50000000000E+03  0.50000000000E+03  0.00000000000E+00 0. -1.
        -11    1    1    2    0    0 -0.87221610469E+01 -0.13324661664E+01  0.38891797823E+03  0.38901805273E+03  0.00000000000E+00 0.  1.
         11    1    1    2    0    0  0.97698696385E+02  0.51310930301E+02 -0.46610315275E+03  0.47898851327E+03  0.00000000000E+00 0. -1.
        -15    1    1    2    0    0 -0.36906802703E+01 -0.10813086162E+02  0.16754884576E+02  0.20357500813E+02  0.17770000000E+01 0.  1.
         15    1    1    2    0    0 -0.85285855068E+02 -0.39165377972E+02  0.60430289943E+02  0.11163593318E+03  0.17770000000E+01 0. -1.
</event>
<event>
 6    1  0.1823098E-004  0.5014408E+03  0.7546771E-02  0.9396591E-01
        -11   -1    0    0    0    0  0.00000000000E+00  0.00000000000E+00  0.50000000000E+03  0.50000000000E+03  0.00000000000E+00 0.  1.
         11   -1    0    0    0    0 -0.00000000000E+00 -0.00000000000E+00 -0.50000000000E+03  0.50000000000E+03  0.00000000000E+00 0. -1.
        -11    1    1    2    0    0  0.35467509782E+01  0.93493023116E+01  0.43196020541E+03  0.43207592846E+03  0.00000000000E+00 0.  1.
         11    1    1    2    0    0  0.12144107599E+02 -0.10470055610E+02 -0.49830124639E+03  0.49855915754E+03  0.00000000000E+00 0. -1.
        -15    1    1    2    0    0 -0.57733179549E+01 -0.32630163338E+01  0.11177098738E+02  0.13117306926E+02  0.17770000000E+01 0. -1.
         15    1    1    2    0    0 -0.99175406219E+01  0.43837696327E+01  0.55163942241E+02  0.56247607067E+02  0.17770000000E+01 0.  1.
</event>
<event>
 6    1  0.1823098E-004  0.5000583E+03  0.7546771E-02  0.9399679E-01
        -11   -1    0    0    0    0  0.00000000000E+00  0.00000000000E+00  0.50000000000E+03  0.50000000000E+03  0.00000000000E+00 0.  1.
         11   -1    0    0    0    0 -0.00000000000E+00 -0.00000000000E+00 -0.50000000000E+03  0.50000000000E+03  0.00000000000E+00 0.  1.
        -11    1    1    2    0    0  0.51540541879E+00 -0.35997957190E+01  0.23771411158E+03  0.23774192524E+03  0.00000000000E+00 0.  1.
         11    1    1    2    0    0  0.10556625162E+01  0.14789314777E+02 -0.49972176266E+03  0.49994167493E+03  0.00000000000E+00 0.  1.
        -15    1    1    2    0    0 -0.24603328114E+01 -0.80319465302E+01  0.20979487714E+03  0.20997050652E+03  0.17770000000E+01 0.  1.
         15    1    1    2    0    0  0.88926487643E+00 -0.31575725280E+01  0.52212773930E+02  0.52345893314E+02  0.17770000000E+01 0. -1.
</event>
<event>
 6    1  0.1823098E-004  0.5005555E+03  0.7546771E-02  0.9398568E-01
        -11   -1    0    0    0    0  0.00000000000E+00  0.00000000000E+00  0.50000000000E+03  0.50000000000E+03  0.00000000000E+00 0. -1.
         11   -1    0    0    0    0 -0.00000000000E+00 -0.00000000000E+00 -0.50000000000E+03  0.50000000000E+03  0.00000000000E+00 0.  1.
        -11    1    1    2    0    0  0.78860354976E+01  0.63523940060E+00  0.49938186879E+03  0.49944453542E+03  0.00000000000E+00 0. -1.
         11    1    1    2    0    0 -0.40331306590E+01  0.95288370576E+01 -0.43058413768E+03  0.43070844489E+03  0.00000000000E+00 0.  1.
        -15    1    1    2    0    0 -0.27660016038E+00 -0.32518114422E+01 -0.30543965613E+02  0.30769178567E+02  0.17770000000E+01 0.  1.
         15    1    1    2    0    0 -0.35763046782E+01 -0.69122650161E+01 -0.38253765501E+02  0.39077841123E+02  0.17770000000E+01 0.  1.
</event>
<event>
 6    1  0.1823098E-004  0.5122573E+03  0.7546771E-02  0.9372793E-01
        -11   -1    0    0    0    0  0.00000000000E+00  0.00000000000E+00  0.50000000000E+03  0.50000000000E+03  0.00000000000E+00 0. -1.
         11   -1    0    0    0    0 -0.00000000000E+00 -0.00000000000E+00 -0.50000000000E+03  0.50000000000E+03  0.00000000000E+00 0. -1.
        -11    1    1    2    0    0 -0.65524858178E+01 -0.16069469134E+01  0.45115570043E+03  0.45120614289E+03  0.00000000000E+00 0. -1.
         11    1    1    2    0    0  0.24135678652E+02 -0.99252974039E+01 -0.48704402173E+03  0.48774267971E+03  0.00000000000E+00 0. -1.
        -15    1    1    2    0    0  0.21509305076E+01  0.20107296047E+01  0.38732556837E+02  0.38884935691E+02  0.17770000000E+01 0.  1.
         15    1    1    2    0    0 -0.19734123342E+02  0.95215147126E+01 -0.28442355393E+01  0.22166241704E+02  0.17770000000E+01 0.  1.
</event>
<event>
 6    1  0.1823098E-004  0.5002815E+03  0.7546771E-02  0.9399180E-01
        -11   -1    0    0    0    0  0.00000000000E+00  0.00000000000E+00  0.50000000000E+03  0.50000000000E+03  0.00000000000E+00 0.  1.
         11   -1    0    0    0    0 -0.00000000000E+00 -0.00000000000E+00 -0.50000000000E+03  0.50000000000E+03  0.00000000000E+00 0. -1.
        -11    1    1    2    0    0  0.11790255970E+02 -0.10514926045E+02  0.49946870709E+03  0.49971848391E+03  0.00000000000E+00 0.  1.
         11    1    1    2    0    0 -0.91153668826E+01 -0.34622595020E+01 -0.17600860945E+03  0.17627849488E+03  0.00000000000E+00 0. -1.
        -15    1    1    2    0    0 -0.40054874926E+01  0.26368173461E+00 -0.50829206698E+02  0.51018422562E+02  0.17770000000E+01 0.  1.
         15    1    1    2    0    0  0.13305984047E+01  0.13713503812E+02 -0.27263089094E+03  0.27298459865E+03  0.17770000000E+01 0. -1.
</event>
<event>
 6    1  0.1823098E-004  0.5005860E+03  0.7546771E-02  0.9398500E-01
        -11   -1    0    0    0    0  0.00000000000E+00  0.00000000000E+00  0.50000000000E+03  0.50000000000E+03  0.00000000000E+00 0.  1.
         11   -1    0    0    0    0 -0.00000000000E+00 -0.00000000000E+00 -0.50000000000E+03  0.50000000000E+03  0.00000000000E+00 0. -1.
        -11    1    1    2    0    0  0.23465833949E+02 -0.87948899601E+01  0.49878489504E+03  0.49941402360E+03  0.00000000000E+00 0.  1.
         11    1    1    2    0    0 -0.18303477078E+01  0.74325143917E+01 -0.25169440957E+03  0.25181077866E+03  0.00000000000E+00 0. -1.
        -15    1    1    2    0    0 -0.24232099303E+02  0.36410167620E+01 -0.19531234522E+03  0.19685152162E+03  0.17770000000E+01 0. -1.
         15    1    1    2    0    0  0.25966130623E+01 -0.22786411936E+01 -0.51778140247E+02  0.51923676117E+02  0.17770000000E+01 0. -1.
</event>
<event>
 6    1  0.1823098E-004  0.5001182E+03  0.7546771E-02  0.9399545E-01
        -11   -1    0    0    0    0  0.00000000000E+00  0.00000000000E+00  0.50000000000E+03  0.50000000000E+03  0.00000000000E+00 0. -1.
         11   -1    0    0    0    0 -0.00000000000E+00 -0.00000000000E+00 -0.50000000000E+03  0.50000000000E+03  0.00000000000E+00 0.  1.
        -11    1    1    2    0    0 -0.64434251668E+00 -0.49930237519E+01  0.32175663169E+03  0.32179601535E+03  0.00000000000E+00 0. -1.
         11    1    1    2    0    0  0.64482580258E+01  0.65664681295E+01 -0.49979705213E+03  0.49988177788E+03  0.00000000000E+00 0.  1.
        -15    1    1    2    0    0 -0.15319401588E+01  0.24841495960E+01  0.40384934242E+02  0.40529229978E+02  0.17770000000E+01 0. -1.
         15    1    1    2    0    0 -0.42719753504E+01 -0.40575939735E+01  0.13765548620E+03  0.13779297679E+03  0.17770000000E+01 0.  1.
</event>
<event>
 6    1  0.1823098E-004  0.5003371E+03  0.7546771E-02  0.9399056E-01
        -11   -1    0    0    0    0  0.00000000000E+00  0.00000000000E+00  0.50000000000E+03  0.50000000000E+03  0.00000000000E+00 0. -1.
         11   -1    0    0    0    0 -0.00000000000E+00 -0.00000000000E+00 -0.50000000000E+03  0.50000000000E+03  0.00000000000E+00 0.  1.
        -11    1    1    2    0    0  0.66660671351E+01  0.10080539815E+02  0.49951669382E+03  0.49966286748E+03  0.00000000000E+00 0. -1.
         11    1    1    2    0    0 -0.21000315408E+01 -0.16215132883E+02 -0.24492423564E+03  0.24546939090E+03  0.00000000000E+00 0.  1.
        -15    1    1    2    0    0  0.12895092980E+01 -0.83301578192E+00 -0.74128379825E+02  0.74165565959E+02  0.17770000000E+01 0. -1.
         15    1    1    2    0    0 -0.58555448922E+01  0.69676088499E+01 -0.18046407836E+03  0.18070217566E+03  0.17770000000E+01 0. -1.
</event>
<event>
 6    1  0.1823098E-004  0.5000985E+03  0.7546771E-02  0.9399589E-01
        -11   -1    0    0    0    0  0.00000000000E+00  0.00000000000E+00  0.50000000000E+03  0.50000000000E+03  0.00000000000E+00 0.  1.
         11   -1    0    0    0    0 -0.00000000000E+00 -0.00000000000E+00 -0.50000000000E+03  0.50000000000E+03  0.00000000000E+00 0.  1.
        -11    1    1    2    0    0 -0.40165577239E+01 -0.18277458331E+01  0.32257083588E+03  0.32260101914E+03  0.00000000000E+00 0.  1.
         11    1    1    2    0    0  0.44805707600E+01  0.63856451607E+01 -0.49984062637E+03  0.49990149404E+03  0.00000000000E+00 0.  1.
        -15    1    1    2    0    0 -0.25368192434E+01 -0.35350225818E+01  0.57351414379E+02  0.57543672951E+02  0.17770000000E+01 0.  1.
         15    1    1    2    0    0  0.20728062073E+01 -0.10228767458E+01  0.11991837611E+03  0.11995381386E+03  0.17770000000E+01 0.  1.
</event>
<event>
 6    1  0.1823098E-004  0.5029931E+03  0.7546771E-02  0.9393137E-01
        -11   -1    0    0    0    0  0.00000000000E+00  0.00000000000E+00  0.50000000000E+03  0.50000000000E+03  0.00000000000E+00 0. -1.
         11   -1    0    0    0    0 -0.00000000000E+00 -0.00000000000E+00 -0.50000000000E+03  0.50000000000E+03  0.00000000000E+00 0.  1.
        -11    1    1    2    0    0 -0.61741275827E+01  0.28517633944E+01  0.49305434222E+03  0.49310124395E+03  0.00000000000E+00 0. -1.
         11    1    1    2    0    0  0.59703076887E+01  0.36414519431E+01 -0.49695768421E+03  0.49700688591E+03  0.00000000000E+00 0.  1.
        -15    1    1    2    0    0 -0.10955989000E+00 -0.20977726856E+01  0.43204687029E+01  0.51221901979E+01  0.17770000000E+01 0.  1.
         15    1    1    2    0    0  0.31337978404E+00 -0.43954426518E+01 -0.41712671116E+00  0.47696799355E+01  0.17770000000E+01 0. -1.
</event>
<event>
 6    1  0.1823098E-004  0.5011850E+03  0.7546771E-02  0.9397162E-01
        -11   -1    0    0    0    0  0.00000000000E+00  0.00000000000E+00  0.50000000000E+03  0.50000000000E+03  0.00000000000E+00 0. -1.
         11   -1    0    0    0    0 -0.00000000000E+00 -0.00000000000E+00 -0.50000000000E+03  0.50000000000E+03  0.00000000000E+00 0. -1.
        -11    1    1    2    0    0  0.10227284986E+02  0.11623517890E+00  0.49871010687E+03  0.49881497728E+03  0.00000000000E+00 0. -1.
         11    1    1    2    0    0  0.18780102698E+01 -0.10067117771E+02 -0.42641780278E+03  0.42654075574E+03  0.00000000000E+00 0. -1.
        -15    1    1    2    0    0 -0.24910889247E+01  0.63170503194E+01 -0.17267899390E+02  0.18639976586E+02  0.17770000000E+01 0. -1.
         15    1    1    2    0    0 -0.96142063306E+01  0.36338322725E+01 -0.55024404698E+02  0.56004290387E+02  0.17770000000E+01 0.  1.
</event>
<event>
 6    1  0.1823098E-004  0.4815654E+03  0.7546771E-02  0.9442030E-01
        -11   -1    0    0    0    0  0.00000000000E+00  0.00000000000E+00  0.50000000000E+03  0.50000000000E+03  0.00000000000E+00 0. -1.
         11   -1    0    0    0    0 -0.00000000000E+00 -0.00000000000E+00 -0.50000000000E+03  0.50000000000E+03  0.00000000000E+00 0.  1.
        -11    1    1    2    0    0 -0.82302208030E+01  0.85266746594E+01  0.47355730312E+03  0.47370556261E+03  0.00000000000E+00 0. -1.
         11    1    1    2    0    0 -0.21201486028E+02 -0.14817562430E+02 -0.48934140763E+03  0.49002456712E+03  0.00000000000E+00 0.  1.
        -15    1    1    2    0    0  0.19631613153E+02  0.66827358753E+00  0.15049178064E+02  0.24808916018E+02  0.17770000000E+01 0.  1.
         15    1    1    2    0    0  0.98000936787E+01  0.56226141835E+01  0.73492644480E+00  0.11460954247E+02  0.17770000000E+01 0. -1.
</event>
<event>
 6    1  0.1823098E-004  0.5002213E+03  0.7546771E-02  0.9399315E-01
        -11   -1    0    0    0    0  0.00000000000E+00  0.00000000000E+00  0.50000000000E+03  0.50000000000E+03  0.00000000000E+00 0.  1.
         11   -1    0    0    0    0 -0.00000000000E+00 -0.00000000000E+00 -0.50000000000E+03  0.50000000000E+03  0.00000000000E+00 0. -1.
        -11    1    1    2    0    0  0.81074896914E+01 -0.35445573104E+01  0.49970032319E+03  0.49977865928E+03  0.00000000000E+00 0.  1.
         11    1    1    2    0    0 -0.62577640549E+01  0.41812349890E+00 -0.44346785294E+02  0.44788076584E+02  0.00000000000E+00 0. -1.
        -15    1    1    2    0    0  0.73758338634E+00 -0.17511383734E+01 -0.10818220778E+03  0.10821348495E+03  0.17770000000E+01 0. -1.
         15    1    1    2    0    0 -0.25873090229E+01  0.48775721850E+01 -0.34717133011E+03  0.34721977919E+03  0.17770000000E+01 0. -1.
</event>
<event>
 6    1  0.1823098E-004  0.5013542E+03  0.7546771E-02  0.9396785E-01
        -11   -1    0    0    0    0  0.00000000000E+00  0.00000000000E+00  0.50000000000E+03  0.50000000000E+03  0.00000000000E+00 0. -1.
         11   -1    0    0    0    0 -0.00000000000E+00 -0.00000000000E+00 -0.50000000000E+03  0.50000000000E+03  0.00000000000E+00 0. -1.
        -11    1    1    2    0    0 -0.17198203879E+01 -0.63460991517E+01  0.45831526918E+03  0.45836242944E+03  0.00000000000E+00 0. -1.
         11    1    1    2    0    0 -0.42029342956E+01  0.67225363347E+01 -0.49858277536E+03  0.49864580720E+03  0.00000000000E+00 0. -1.
        -15    1    1    2    0    0 -0.28551609583E+01  0.36252214824E+01  0.96807533204E+01  0.10870551446E+02  0.17770000000E+01 0.  1.
         15    1    1    2    0    0  0.87779156418E+01 -0.40016586654E+01  0.30586752862E+02  0.32121211912E+02  0.17770000000E+01 0.  1.
</event>
<event>
 6    1  0.1823098E-004  0.5003135E+03  0.7546771E-02  0.9399108E-01
        -11   -1    0    0    0    0  0.00000000000E+00  0.00000000000E+00  0.50000000000E+03  0.50000000000E+03  0.00000000000E+00 0.  1.
         11   -1    0    0    0    0 -0.00000000000E+00 -0.00000000000E+00 -0.50000000000E+03  0.50000000000E+03  0.00000000000E+00 0. -1.
        -11    1    1    2    0    0  0.72400215177E+01  0.50361290384E+01  0.49960861758E+03  0.49968645295E+03  0.00000000000E+00 0.  1.
         11    1    1    2    0    0  0.18180600220E+01 -0.94004988999E+01 -0.34608719454E+03  0.34621961375E+03  0.00000000000E+00 0. -1.
        -15    1    1    2    0    0 -0.56189695464E+01  0.61745104752E+01 -0.81473933240E+02  0.81919820099E+02  0.17770000000E+01 0. -1.
         15    1    1    2    0    0 -0.34391119933E+01 -0.18101406137E+01 -0.72047489802E+02  0.72174113200E+02  0.17770000000E+01 0.  1.
</event>
<event>
 6    1  0.1823098E-004  0.5048829E+03  0.7546771E-02  0.9388950E-01
        -11   -1    0    0    0    0  0.00000000000E+00  0.00000000000E+00  0.50000000000E+03  0.50000000000E+03  0.00000000000E+00 0. -1.
         11   -1    0    0    0    0 -0.00000000000E+00 -0.00000000000E+00 -0.50000000000E+03  0.50000000000E+03  0.00000000000E+00 0. -1.
        -11    1    1    2    0    0  0.76936568808E+01  0.26087871500E+01  0.47877400598E+03  0.47884292511E+03  0.00000000000E+00 0. -1.
         11    1    1    2    0    0 -0.20924946177E+02 -0.54969852457E+01 -0.49464421879E+03  0.49511713099E+03  0.00000000000E+00 0. -1.
        -15    1    1    2    0    0 -0.16686445051E+01  0.45886909440E+01  0.21049720232E+01  0.56061658273E+01  0.17770000000E+01 0.  1.
         15    1    1    2    0    0  0.14899933802E+02 -0.17004928482E+01  0.13765240790E+02  0.20433778070E+02  0.17770000000E+01 0. -1.
</event>
<event>
 6    1  0.1823098E-004  0.5037864E+03  0.7546771E-02  0.9391377E-01
        -11   -1    0    0    0    0  0.00000000000E+00  0.00000000000E+00  0.50000000000E+03  0.50000000000E+03  0.00000000000E+00 0.  1.
         11   -1    0    0    0    0 -0.00000000000E+00 -0.00000000000E+00 -0.50000000000E+03  0.50000000000E+03  0.00000000000E+00 0. -1.
        -11    1    1    2    0    0  0.13382012128E+01 -0.92905543034E+01  0.43115696749E+03  0.43125912837E+03  0.00000000000E+00 0.  1.
         11    1    1    2    0    0 -0.22329115966E+01 -0.13105647249E+02 -0.49603550015E+03  0.49621362465E+03  0.00000000000E+00 0. -1.
        -15    1    1    2    0    0 -0.46592534884E+01  0.92059943956E+01  0.63430651901E+01  0.12241371691E+02  0.17770000000E+01 0. -1.
         15    1    1    2    0    0  0.55539638722E+01  0.13190207157E+02  0.58535467463E+02  0.60285875292E+02  0.17770000000E+01 0.  1.
</event>
<event>
 6    1  0.1823098E-004  0.5002570E+03  0.7546771E-02  0.9399235E-01
        -11   -1    0    0    0    0  0.00000000000E+00  0.00000000000E+00  0.50000000000E+03  0.50000000000E+03  0.00000000000E+00 0.  1.
         11   -1    0    0    0    0 -0.00000000000E+00 -0.00000000000E+00 -0.50000000000E+03  0.50000000000E+03  0.00000000000E+00 0.  1.
        -11    1    1    2    0    0 -0.80280156362E+01  0.17238138984E+01  0.42108809731E+03  0.42116814488E+03  0.00000000000E+00 0.  1.
         11    1    1    2    0    0  0.15607789034E+02  0.36582974242E+01 -0.49948579301E+03  0.49974297758E+03  0.00000000000E+00 0.  1.
        -15    1    1    2    0    0 -0.24960049379E+01 -0.19572322444E+01  0.39947288213E+02  0.40112396628E+02  0.17770000000E+01 0. -1.
         15    1    1    2    0    0 -0.50837684597E+01 -0.34248790781E+01  0.38450407495E+02  0.38976480908E+02  0.17770000000E+01 0.  1.
</event>
<event>
 6    1  0.1823098E-004  0.5002842E+03  0.7546771E-02  0.9399174E-01
        -11   -1    0    0    0    0  0.00000000000E+00  0.00000000000E+00  0.50000000000E+03  0.50000000000E+03  0.00000000000E+00 0.  1.
         11   -1    0    0    0    0 -0.00000000000E+00 -0.00000000000E+00 -0.50000000000E+03  0.50000000000E+03  0.00000000000E+00 0. -1.
        -11    1    1    2    0    0  0.24871811589E+00 -0.17317481226E+02  0.49941553581E+03  0.49971575363E+03  0.00000000000E+00 0.  1.
         11    1    1    2    0    0  0.64605888510E+01  0.12899963476E+02 -0.15571052120E+03  0.15637747497E+03  0.00000000000E+00 0. -1.
        -15    1    1    2    0    0 -0.35179541701E+01  0.28581059564E+01 -0.29497405452E+03  0.29501422905E+03  0.17770000000E+01 0. -1.
         15    1    1    2    0    0 -0.31913527968E+01  0.15594117945E+01 -0.48730960085E+02  0.48892542352E+02  0.17770000000E+01 0. -1.
</event>
<event>
 6    1  0.1823098E-004  0.5031432E+03  0.7546771E-02  0.9392804E-01
        -11   -1    0    0    0    0  0.00000000000E+00  0.00000000000E+00  0.50000000000E+03  0.50000000000E+03  0.00000000000E+00 0. -1.
         11   -1    0    0    0    0 -0.00000000000E+00 -0.00000000000E+00 -0.50000000000E+03  0.50000000000E+03  0.00000000000E+00 0.  1.
        -11    1    1    2    0    0 -0.48315027910E+01  0.54776697435E+01  0.48602254719E+03  0.48607742661E+03  0.00000000000E+00 0. -1.
         11    1    1    2    0    0  0.48333768890E+01  0.49981543329E+01 -0.49680814385E+03  0.49685679514E+03  0.00000000000E+00 0.  1.
        -15    1    1    2    0    0 -0.14425734566E+01 -0.22905281978E+01 -0.11907471437E+00  0.32402847700E+01  0.17770000000E+01 0. -1.
         15    1    1    2    0    0  0.14406993587E+01 -0.81852958786E+01  0.10904671373E+02  0.13825493482E+02  0.17770000000E+01 0.  1.
</event>
<event>
 6    1  0.1823098E-004  0.4571500E+03  0.7546771E-02  0.9501150E-01
        -11   -1    0    0    0    0  0.00000000000E+00  0.00000000000E+00  0.50000000000E+03  0.50000000000E+03  0.00000000000E+00 0. -1.
         11   -1    0    0    0    0 -0.00000000000E+00 -0.00000000000E+00 -0.50000000000E+03  0.50000000000E+03  0.00000000000E+00 0. -1.
        -11    1    1    2    0    0  0.10993030338E+02 -0.11780273752E+01  0.45080648350E+03  0.45094203622E+03  0.00000000000E+00 0. -1.
         11    1    1    2    0    0 -0.61154719181E+02  0.29810853805E+01 -0.46073814427E+03  0.46478858003E+03  0.00000000000E+00 0. -1.
        -15    1    1    2    0    0  0.59548942317E+02  0.69617953136E+01 -0.96825221371E+01  0.60757321278E+02  0.17770000000E+01 0.  1.
         15    1    1    2    0    0 -0.93872534739E+01 -0.87648533188E+01  0.19614182901E+02  0.23512062465E+02  0.17770000000E+01 0. -1.
</event>
<event>
 6    1  0.1823098E-004  0.5003549E+03  0.7546771E-02  0.9399016E-01
        -11   -1    0    0    0    0  0.00000000000E+00  0.00000000000E+00  0.50000000000E+03  0.50000000000E+03  0.00000000000E+00 0.  1.
         11   -1    0    0    0    0 -0.00000000000E+00 -0.00000000000E+00 -0.50000000000E+03  0.50000000000E+03  0.00000000000E+00 0. -1.
        -11    1    1    2    0    0  0.68746437669E+01  0.71197840288E+01  0.49954706115E+03  0.49964509240E+03  0.00000000000E+00 0.  1.
         11    1    1    2    0    0 -0.12534813065E+02 -0.74821618853E+01 -0.14916547671E+03  0.14987809622E+03  0.00000000000E+00 0. -1.
        -15    1    1    2    0    0  0.51182142860E+01 -0.13974874370E+01 -0.23025240701E+03  0.23032038067E+03  0.17770000000E+01 0. -1.
         15    1    1    2    0    0  0.54195501190E+00  0.17598652934E+01 -0.12012917744E+03  0.12015643071E+03  0.17770000000E+01 0.  1.
</event>
<event>
 6    1  0.1823098E-004  0.4123619E+03  0.7546771E-02  0.9620564E-01
        -11   -1    0    0    0    0  0.00000000000E+00  0.00000000000E+00  0.50000000000E+03  0.50000000000E+03  0.00000000000E+00 0. -1.
         11   -1    0    0    0    0 -0.00000000000E+00 -0.00000000000E+00 -0.50000000000E+03  0.50000000000E+03  0.00000000000E+00 0.  1.
        -11    1    1    2    0    0 -0.88333624522E+01 -0.24949360717E+01  0.42406434385E+03  0.42416367209E+03  0.00000000000E+00 0. -1.
         11    1    1    2    0    0  0.12218819266E+03  0.99814194335E+01 -0.39023033794E+03  0.40903459488E+03  0.00000000000E+00 0.  1.
        -15    1    1    2    0    0 -0.10632996221E+03  0.13124114809E+02  0.19730638522E+02  0.10895301316E+03  0.17770000000E+01 0. -1.
         15    1    1    2    0    0 -0.70248680032E+01 -0.20610598171E+02 -0.53564644435E+02  0.57848719864E+02  0.17770000000E+01 0.  1.
</event>
<event>
 6    1  0.1823098E-004  0.5027610E+03  0.7546771E-02  0.9393653E-01
        -11   -1    0    0    0    0  0.00000000000E+00  0.00000000000E+00  0.50000000000E+03  0.50000000000E+03  0.00000000000E+00 0.  1.
         11   -1    0    0    0    0 -0.00000000000E+00 -0.00000000000E+00 -0.50000000000E+03  0.50000000000E+03  0.00000000000E+00 0. -1.
        -11    1    1    2    0    0 -0.20262745157E+02  0.52484671486E+01  0.43502945214E+03  0.43553271919E+03  0.00000000000E+00 0.  1.
         11    1    1    2    0    0  0.29779121024E+02  0.20389795652E+02 -0.49592752115E+03  0.49723902306E+03  0.00000000000E+00 0. -1.
        -15    1    1    2    0    0 -0.39240909011E+01 -0.19177493061E+02  0.44641385828E+02  0.48776898089E+02  0.17770000000E+01 0.  1.
         15    1    1    2    0    0 -0.55922849656E+01 -0.64607697397E+01  0.16256683177E+02  0.18451359670E+02  0.17770000000E+01 0. -1.
</event>
<event>
 6    1  0.1823098E-004  0.4627071E+03  0.7546771E-02  0.9487354E-01
        -11   -1    0    0    0    0  0.00000000000E+00  0.00000000000E+00  0.50000000000E+03  0.50000000000E+03  0.00000000000E+00 0. -1.
         11   -1    0    0    0    0 -0.00000000000E+00 -0.00000000000E+00 -0.50000000000E+03  0.50000000000E+03  0.00000000000E+00 0. -1.
        -11    1    1    2    0    0 -0.87595018896E+01 -0.38422769695E+01  0.45228549904E+03  0.45238663177E+03  0.00000000000E+00 0. -1.
         11    1    1    2    0    0 -0.25350613162E+02 -0.42218240638E+02 -0.47246091324E+03  0.47502036585E+03  0.00000000000E+00 0. -1.
        -15    1    1    2    0    0  0.20088240354E+02  0.43744055797E+02  0.28557509338E+02  0.55997936451E+02  0.17770000000E+01 0.  1.
         15    1    1    2    0    0  0.14021874698E+02  0.23164618104E+01 -0.83820951373E+01  0.16595065931E+02  0.17770000000E+01 0. -1.
</event>
<event>
 6    1  0.1823098E-004  0.5054486E+03  0.7546771E-02  0.9387700E-01
        -11   -1    0    0    0    0  0.00000000000E+00  0.00000000000E+00  0.50000000000E+03  0.50000000000E+03  0.00000000000E+00 0.  1.
         11   -1    0    0    0    0 -0.00000000000E+00 -0.00000000000E+00 -0.50000000000E+03  0.50000000000E+03  0.00000000000E+00 0. -1.
        -11    1    1    2    0    0  0.12279135070E+02  0.30623339401E+01  0.47327831298E+03  0.47344748028E+03  0.00000000000E+00 0.  1.
         11    1    1    2    0    0  0.44815637283E+01 -0.19421944938E+02 -0.49414952981E+03  0.49455136656E+03  0.00000000000E+00 0. -1.
        -15    1    1    2    0    0 -0.65246215652E+01  0.71077753256E+01  0.12007586816E+02  0.15505838474E+02  0.17770000000E+01 0.  1.
         15    1    1    2    0    0 -0.10236077233E+02  0.92518356720E+01  0.88636300152E+01  0.16495314682E+02  0.17770000000E+01 0. -1.
</event>
<event>
 6    1  0.1823098E-004  0.5048486E+03  0.7546771E-02  0.9389026E-01
        -11   -1    0    0    0    0  0.00000000000E+00  0.00000000000E+00  0.50000000000E+03  0.50000000000E+03  0.00000000000E+00 0.  1.
         11   -1    0    0    0    0 -0.00000000000E+00 -0.00000000000E+00 -0.50000000000E+03  0.50000000000E+03  0.00000000000E+00 0.  1.
        -11    1    1    2    0    0  0.18893682122E+01 -0.62655113471E+01  0.46918861657E+03  0.46923425308E+03  0.00000000000E+00 0.  1.
         11    1    1    2    0    0  0.18764626457E+02  0.88191696737E+01 -0.49471713071E+03  0.49515141965E+03  0.00000000000E+00 0.  1.
        -15    1    1    2    0    0 -0.19125513651E+01 -0.46093854640E+01  0.91684815258E+01  0.10588818138E+02  0.17770000000E+01 0.  1.
         15    1    1    2    0    0 -0.18741443304E+02  0.20557271374E+01  0.16360032610E+02  0.25025509129E+02  0.17770000000E+01 0.  1.
</event>
<event>
 6    1  0.1823098E-004  0.5004693E+03  0.7546771E-02  0.9398760E-01
        -11   -1    0    0    0    0  0.00000000000E+00  0.00000000000E+00  0.50000000000E+03  0.50000000000E+03  0.00000000000E+00 0.  1.
         11   -1    0    0    0    0 -0.00000000000E+00 -0.00000000000E+00 -0.50000000000E+03  0.50000000000E+03  0.00000000000E+00 0. -1.
        -11    1    1    2    0    0  0.20511750962E+01  0.56534021994E+00  0.11551526635E+03  0.11553485919E+03  0.00000000000E+00 0.  1.
         11    1    1    2    0    0 -0.43450833037E+02  0.20179042347E+02 -0.49722809096E+03  0.49953072286E+03  0.00000000000E+00 0. -1.
        -15    1    1    2    0    0  0.26805211015E+02 -0.65174637435E+01  0.26542726064E+03  0.26686285821E+03  0.17770000000E+01 0.  1.
         15    1    1    2    0    0  0.14594446925E+02 -0.14226918824E+02  0.11628556398E+03  0.11807155974E+03  0.17770000000E+01 0. -1.
</event>
<event>
 6    1  0.1823098E-004  0.5001633E+03  0.7546771E-02  0.9399444E-01
        -11   -1    0    0    0    0  0.00000000000E+00  0.00000000000E+00  0.50000000000E+03  0.50000000000E+03  0.00000000000E+00 0. -1.
         11   -1    0    0    0    0 -0.00000000000E+00 -0.00000000000E+00 -0.50000000000E+03  0.50000000000E+03  0.00000000000E+00 0. -1.
        -11    1    1    2    0    0  0.66688018542E+01 -0.15219833661E+01  0.39989932228E+03  0.39995781941E+03  0.00000000000E+00 0. -1.
         11    1    1    2    0    0 -0.10784608552E+02  0.19711557189E+01 -0.49971648754E+03  0.49983673450E+03  0.00000000000E+00 0. -1.
        -15    1    1    2    0    0  0.26719015354E+01  0.24576609243E+01  0.75524392174E+02  0.75632471183E+02  0.17770000000E+01 0. -1.
         15    1    1    2    0    0  0.14439051626E+01 -0.29068332770E+01  0.24292773091E+02  0.24572974897E+02  0.17770000000E+01 0.  1.
</event>
<event>
 6    1  0.1823098E-004  0.5002470E+03  0.7546771E-02  0.9399257E-01
        -11   -1    0    0    0    0  0.00000000000E+00  0.00000000000E+00  0.50000000000E+03  0.50000000000E+03  0.00000000000E+00 0.  1.
         11   -1    0    0    0    0 -0.00000000000E+00 -0.00000000000E+00 -0.50000000000E+03  0.50000000000E+03  0.00000000000E+00 0.  1.
        -11    1    1    2    0    0  0.35262329207E+01 -0.32840830489E+01  0.33492654876E+03  0.33496121057E+03  0.00000000000E+00 0.  1.
         11    1    1    2    0    0  0.37327130137E+01  0.66814147981E+01 -0.49969443040E+03  0.49975303723E+03  0.00000000000E+00 0.  1.
        -15    1    1    2    0    0  0.14980121168E+00 -0.30218612576E+01  0.10135438123E+03  0.10141509952E+03  0.17770000000E+01 0.  1.
         15    1    1    2    0    0 -0.74087471461E+01 -0.37547049169E+00  0.63413500406E+02  0.63870652690E+02  0.17770000000E+01 0. -1.
</event>
<event>
 6    1  0.1823098E-004  0.5021750E+03  0.7546771E-02  0.9394956E-01
        -11   -1    0    0    0    0  0.00000000000E+00  0.00000000000E+00  0.50000000000E+03  0.50000000000E+03  0.00000000000E+00 0.  1.
         11   -1    0    0    0    0 -0.00000000000E+00 -0.00000000000E+00 -0.50000000000E+03  0.50000000000E+03  0.00000000000E+00 0.  1.
        -11    1    1    2    0    0 -0.11136658995E+02 -0.52541320787E+01  0.49767267148E+03  0.49782498834E+03  0.00000000000E+00 0.  1.
         11    1    1    2    0    0  0.31180494415E+02  0.51377863833E+01 -0.43352821631E+03  0.43467842645E+03  0.00000000000E+00 0.  1.
        -15    1    1    2    0    0 -0.13227488756E+02 -0.11252686221E+00 -0.49123372434E+02  0.50904249031E+02  0.17770000000E+01 0.  1.
         15    1    1    2    0    0 -0.68163466637E+01  0.22887255757E+00 -0.15021082736E+02  0.16592336184E+02  0.17770000000E+01 0.  1.
</event>
<event>
 6    1  0.1823098E-004  0.5002147E+03  0.7546771E-02  0.9399329E-01
        -11   -1    0    0    0    0  0.00000000000E+00  0.00000000000E+00  0.50000000000E+03  0.50000000000E+03  0.00000000000E+00 0.  1.
         11   -1    0    0    0    0 -0.00000000000E+00 -0.00000000000E+00 -0.50000000000E+03  0.50000000000E+03  0.00000000000E+00 0. -1.
        -11    1    1    2    0    0 -0.85179049202E+01  0.41542698257E+01  0.49969539834E+03  0.49978525767E+03  0.00000000000E+00 0.  1.
         11    1    1    2    0    0  0.13729029580E+02 -0.33555625771E+01 -0.26316384023E+03  0.26354307590E+03  0.00000000000E+00 0. -1.
        -15    1    1    2    0    0 -0.55450578037E+01 -0.16806306396E+01 -0.19002018223E+03  0.19011680507E+03  0.17770000000E+01 0.  1.
         15    1    1    2    0    0  0.33393314348E+00  0.88192339093E+00 -0.46511375883E+02  0.46554861355E+02  0.17770000000E+01 0. -1.
</event>
<event>
 6    1  0.1823098E-004  0.5019493E+03  0.7546771E-02  0.9395459E-01
        -11   -1    0    0    0    0  0.00000000000E+00  0.00000000000E+00  0.50000000000E+03  0.50000000000E+03  0.00000000000E+00 0. -1.
         11   -1    0    0    0    0 -0.00000000000E+00 -0.00000000000E+00 -0.50000000000E+03  0.50000000000E+03  0.00000000000E+00 0. -1.
        -11    1    1    2    0    0 -0.72825618120E+01 -0.14406192686E+01  0.47532179293E+03  0.47537976180E+03  0.00000000000E+00 0. -1.
         11    1    1    2    0    0  0.95543988203E+01  0.65835670415E+01 -0.49791556329E+03  0.49805073844E+03  0.00000000000E+00 0. -1.
        -15    1    1    2    0    0  0.11112671360E+01  0.37434477945E+01  0.63437245982E+01  0.76582561210E+01  0.17770000000E+01 0. -1.
         15    1    1    2    0    0 -0.33831041444E+01 -0.88863955674E+01  0.16250045764E+02  0.18911243644E+02  0.17770000000E+01 0.  1.
</event>
<event>
 6    1  0.1823098E-004  0.4798354E+03  0.7546771E-02  0.9446095E-01
        -11   -1    0    0    0    0  0.00000000000E+00  0.00000000000E+00  0.50000000000E+03  0.50000000000E+03  0.00000000000E+00 0.  1.
         11   -1    0    0    0    0 -0.00000000000E+00 -0.00000000000E+00 -0.50000000000E+03  0.50000000000E+03  0.00000000000E+00 0. -1.
        -11    1    1    2    0    0  0.20730903768E+02  0.12536657652E+01  0.48098623336E+03  0.48143441789E+03  0.00000000000E+00 0.  1.
         11    1    1    2    0    0 -0.14243324962E+02  0.31824797190E+02 -0.47756328157E+03  0.47883439509E+03  0.00000000000E+00 0. -1.
        -15    1    1    2    0    0 -0.25092845423E+01 -0.12106759139E+02  0.86025435353E+01  0.15166793004E+02  0.17770000000E+01 0. -1.
         15    1    1    2    0    0 -0.39782942637E+01 -0.20971703817E+02 -0.12025495326E+02  0.24564394009E+02  0.17770000000E+01 0.  1.
</event>
<event>
 6    1  0.1823098E-004  0.5010701E+03  0.7546771E-02  0.9397419E-01
        -11   -1    0    0    0    0  0.00000000000E+00  0.00000000000E+00  0.50000000000E+03  0.50000000000E+03  0.00000000000E+00 0. -1.
         11   -1    0    0    0    0 -0.00000000000E+00 -0.00000000000E+00 -0.50000000000E+03  0.50000000000E+03  0.00000000000E+00 0. -1.
        -11    1    1    2    0    0 -0.63157120208E+01 -0.71532290495E+01  0.49883865916E+03  0.49892991970E+03  0.00000000000E+00 0. -1.
         11    1    1    2    0    0  0.39549104854E+01  0.83581881773E+01 -0.42430878777E+03  0.42440952865E+03  0.00000000000E+00 0. -1.
        -15    1    1    2    0    0  0.47165386046E+01  0.37116205008E+01 -0.66497583219E+02  0.66791527652E+02  0.17770000000E+01 0.  1.
         15    1    1    2    0    0 -0.23557370693E+01 -0.49165796287E+01 -0.80322881675E+01  0.98690239938E+01  0.17770000000E+01 0. -1.
</event>
<event>
 6    1  0.1823098E-004  0.5039636E+03  0.7546771E-02  0.9390984E-01
        -11   -1    0    0    0    0  0.00000000000E+00  0.00000000000E+00  0.50000000000E+03  0.50000000000E+03  0.00000000000E+00 0.  1.
         11   -1    0    0    0    0 -0.00000000000E+00 -0.00000000000E+00 -0.50000000000E+03  0.50000000000E+03  0.00000000000E+00 0. -1.
        -11    1    1    2    0    0  0.40801645835E+01  0.49265406631E+01  0.46456194622E+03  0.46460598406E+03  0.00000000000E+00 0.  1.
         11    1    1    2    0    0  0.15431429268E+02  0.31151968546E+01 -0.49578647783E+03  0.49603635458E+03  0.00000000000E+00 0. -1.
        -15    1    1    2    0    0 -0.13693267078E+02  0.33732592905E-01  0.16884521426E+02  0.21811728357E+02  0.17770000000E+01 0.  1.
         15    1    1    2    0    0 -0.58183267743E+01 -0.80754701106E+01  0.14340010183E+02  0.17545933004E+02  0.17770000000E+01 0. -1.
</event>
<event>
 6    1  0.1823098E-004  0.5076965E+03  0.7546771E-02  0.9382751E-01
        -11   -1    0    0    0    0  0.00000000000E+00  0.00000000000E+00  0.50000000000E+03  0.50000000000E+03  0.00000000000E+00 0.  1.
         11   -1    0    0    0    0 -0.00000000000E+00 -0.00000000000E+00 -0.50000000000E+03  0.50000000000E+03  0.00000000000E+00 0.  1.
        -11    1    1    2    0    0 -0.17287325879E+01 -0.11475708217E+02  0.47008991696E+03  0.47023314476E+03  0.00000000000E+00 0.  1.
         11    1    1    2    0    0 -0.11595945292E+01 -0.14902720487E+02 -0.49207652707E+03  0.49230350825E+03  0.00000000000E+00 0.  1.
        -15    1    1    2    0    0 -0.19277284662E+01  0.22816792403E+02  0.21033602281E+02  0.31143094043E+02  0.17770000000E+01 0.  1.
         15    1    1    2    0    0  0.48160555833E+01  0.35616363011E+01  0.95300782463E+00  0.63202529567E+01  0.17770000000E+01 0. -1.
</event>
<event>
 6    1  0.1823098E-004  0.5014301E+03  0.7546771E-02  0.9396615E-01
        -11   -1    0    0    0    0  0.00000000000E+00  0.00000000000E+00  0.50000000000E+03  0.50000000000E+03  0.00000000000E+00 0.  1.
         11   -1    0    0    0    0 -0.00000000000E+00 -0.00000000000E+00 -0.50000000000E+03  0.50000000000E+03  0.00000000000E+00 0. -1.
        -11    1    1    2    0    0 -0.11848951926E+02 -0.35915821335E+02  0.17333390954E+03  0.17741191640E+03  0.00000000000E+00 0.  1.
         11    1    1    2    0    0  0.73931448181E+01  0.36668944091E+02 -0.49716465223E+03  0.49856991634E+03  0.00000000000E+00 0. -1.
        -15    1    1    2    0    0  0.21273406623E+01  0.42037859731E+01  0.11893488776E+03  0.11904143250E+03  0.17770000000E+01 0. -1.
         15    1    1    2    0    0  0.23284664452E+01 -0.49569087293E+01  0.20489585492E+03  0.20497673476E+03  0.17770000000E+01 0.  1.
</event>
<event>
 6    1  0.1823098E-004  0.5004462E+03  0.7546771E-02  0.9398812E-01
        -11   -1    0    0    0    0  0.00000000000E+00  0.00000000000E+00  0.50000000000E+03  0.50000000000E+03  0.00000000000E+00 0. -1.
         11   -1    0    0    0    0 -0.00000000000E+00 -0.00000000000E+00 -0.50000000000E+03  0.50000000000E+03  0.00000000000E+00 0. -1.
        -11    1    1    2    0    0 -0.54268413048E+01 -0.33884336919E+02  0.28413149421E+03  0.28619626989E+03  0.00000000000E+00 0. -1.
         11    1    1    2    0    0  0.30044337740E+02  0.47323611066E+02 -0.49639885317E+03  0.49955380874E+03  0.00000000000E+00 0. -1.
        -15    1    1    2    0    0 -0.19362522466E+02 -0.74426019624E+01  0.14455789849E+03  0.14604945513E+03  0.17770000000E+01 0.  1.
         15    1    1    2    0    0 -0.52549739687E+01 -0.59966721845E+01  0.67709460469E+02  0.68200466235E+02  0.17770000000E+01 0.  1.
</event>
<event>
 6    1  0.1823098E-004  0.5117717E+03  0.7546771E-02  0.9373848E-01
        -11   -1    0    0    0    0  0.00000000000E+00  0.00000000000E+00  0.50000000000E+03  0.50000000000E+03  0.00000000000E+00 0.  1.
         11   -1    0    0    0    0 -0.00000000000E+00 -0.00000000000E+00 -0.50000000000E+03  0.50000000000E+03  0.00000000000E+00 0.  1.
        -11    1    1    2    0    0 -0.16810202565E+02  0.98297853137E-01  0.48793880629E+03  0.48822829829E+03  0.00000000000E+00 0.  1.
         11    1    1    2    0    0  0.98190514602E+01 -0.70164564924E+01 -0.47560290586E+03  0.47575599680E+03  0.00000000000E+00 0.  1.
        -15    1    1    2    0    0  0.12994559050E+02  0.38888843708E+01  0.70715680769E+01  0.15399571118E+02  0.17770000000E+01 0.  1.
         15    1    1    2    0    0 -0.60034079445E+01  0.30292742685E+01 -0.19407468505E+02  0.20616133787E+02  0.17770000000E+01 0. -1.
</event>
<event>
 6    1  0.1823098E-004  0.5001462E+03  0.7546771E-02  0.9399483E-01
        -11   -1    0    0    0    0  0.00000000000E+00  0.00000000000E+00  0.50000000000E+03  0.50000000000E+03  0.00000000000E+00 0. -1.
         11   -1    0    0    0    0 -0.00000000000E+00 -0.00000000000E+00 -0.50000000000E+03  0.50000000000E+03  0.00000000000E+00 0.  1.
        -11    1    1    2    0    0 -0.80907017539E+01  0.13128348917E+01  0.49978659780E+03  0.49985380496E+03  0.00000000000E+00 0. -1.
         11    1    1    2    0    0  0.69883872102E+01  0.19498950318E+01 -0.97658694151E+02  0.97927831538E+02  0.00000000000E+00 0.  1.
        -15    1    1    2    0    0 -0.10391789211E-02 -0.51607414282E+01 -0.21560380294E+03  0.21567287920E+03  0.17770000000E+01 0. -1.
         15    1    1    2    0    0  0.11033537226E+01  0.18980115047E+01 -0.18652410071E+03  0.18654548430E+03  0.17770000000E+01 0.  1.
</event>
<event>
 6    1  0.1823098E-004  0.4828417E+03  0.7546771E-02  0.9439043E-01
        -11   -1    0    0    0    0  0.00000000000E+00  0.00000000000E+00  0.50000000000E+03  0.50000000000E+03  0.00000000000E+00 0.  1.
         11   -1    0    0    0    0 -0.00000000000E+00 -0.00000000000E+00 -0.50000000000E+03  0.50000000000E+03  0.00000000000E+00 0.  1.
        -11    1    1    2    0    0 -0.13007172900E+02  0.32704680024E+01  0.47960094900E+03  0.47978844587E+03  0.00000000000E+00 0.  1.
         11    1    1    2    0    0 -0.79785024771E+01 -0.26709750897E+02 -0.48562669081E+03  0.48642609934E+03  0.00000000000E+00 0.  1.
        -15    1    1    2    0    0  0.15486203987E+02  0.21374556328E+02  0.74529427241E+01  0.27484509389E+02  0.17770000000E+01 0. -1.
         15    1    1    2    0    0  0.54994713909E+01  0.20647265669E+01 -0.14272009172E+01  0.63009453920E+01  0.17770000000E+01 0.  1.
</event>
<event>
 6    1  0.1823098E-004  0.5007275E+03  0.7546771E-02  0.9398183E-01
        -11   -1    0    0    0    0  0.00000000000E+00  0.00000000000E+00  0.50000000000E+03  0.50000000000E+03  0.00000000000E+00 0.  1.
         11   -1    0    0    0    0 -0.00000000000E+00 -0.00000000000E+00 -0.50000000000E+03  0.50000000000E+03  0.00000000000E+00 0.  1.
        -11    1    1    2    0    0 -0.24609983342E+01 -0.21780383071E+02  0.49879114126E+03  0.49927251497E+03  0.00000000000E+00 0.  1.
         11    1    1    2    0    0 -0.95636007521E+01  0.24515591565E+02 -0.21492704345E+03  0.21653200847E+03  0.00000000000E+00 0.  1.
        -15    1    1    2    0    0  0.37719601104E+01  0.75194234090E+00 -0.12234222441E+03  0.12241556561E+03  0.17770000000E+01 0.  1.
         15    1    1    2    0    0  0.82526389759E+01 -0.34871508351E+01 -0.16152187340E+03  0.16177991095E+03  0.17770000000E+01 0.  1.
</event>
<event>
 6    1  0.1823098E-004  0.5009463E+03  0.7546771E-02  0.9397695E-01
        -11   -1    0    0    0    0  0.00000000000E+00  0.00000000000E+00  0.50000000000E+03  0.50000000000E+03  0.00000000000E+00 0. -1.
         11   -1    0    0    0    0 -0.00000000000E+00 -0.00000000000E+00 -0.50000000000E+03  0.50000000000E+03  0.00000000000E+00 0. -1.
        -11    1    1    2    0    0 -0.88985183601E+01  0.86733715105E+00  0.49897358821E+03  0.49905368211E+03  0.00000000000E+00 0. -1.
         11    1    1    2    0    0  0.81239991224E+01 -0.14361794992E+02 -0.78234985487E+02  0.79956072136E+02  0.00000000000E+00 0. -1.
        -15    1    1    2    0    0  0.17718137128E+01  0.10082640729E+02 -0.33230425508E+03  0.33246665192E+03  0.17770000000E+01 0. -1.
         15    1    1    2    0    0 -0.99729447507E+00  0.34118171119E+01 -0.88434347640E+02  0.88523593825E+02  0.17770000000E+01 0.  1.
</event>
<event>
 6    1  0.1823098E-004  0.5001767E+03  0.7546771E-02  0.9399414E-01
        -11   -1    0    0    0    0  0.00000000000E+00  0.00000000000E+00  0.50000000000E+03  0.50000000000E+03  0.00000000000E+00 0.  1.
         11   -1    0    0    0    0 -0.00000000000E+00 -0.00000000000E+00 -0.50000000000E+03  0.50000000000E+03  0.00000000000E+00 0.  1.
        -11    1    1    2    0    0  0.11065891079E+02  0.15523429966E+02  0.49945957005E+03  0.49982326170E+03  0.00000000000E+00 0.  1.
         11    1    1    2    0    0 -0.14134476225E+02 -0.87399548641E+01 -0.26692128217E+03  0.26743810705E+03  0.00000000000E+00 0.  1.
        -15    1    1    2    0    0  0.20738366470E+01 -0.20562672494E+01 -0.44977988069E+02  0.45107717446E+02  0.17770000000E+01 0. -1.
         15    1    1    2    0    0  0.99474849904E+00 -0.47272078529E+01 -0.18756029981E+03  0.18763091380E+03  0.17770000000E+01 0.  1.
</event>
<event>
 6    1  0.1823098E-004  0.5019541E+03  0.7546771E-02  0.9395448E-01
        -11   -1    0    0    0    0  0.00000000000E+00  0.00000000000E+00  0.50000000000E+03  0.50000000000E+03  0.00000000000E+00 0.  1.
         11   -1    0    0    0    0 -0.00000000000E+00 -0.00000000000E+00 -0.50000000000E+03  0.50000000000E+03  0.00000000000E+00 0. -1.
        -11    1    1    2    0    0 -0.68092995452E+01 -0.16242901475E+02  0.49773441227E+03  0.49804592515E+03  0.00000000000E+00 0.  1.
         11    1    1    2    0    0 -0.17848482027E+02  0.68819884994E+01 -0.53337127062E+02  0.56663737960E+02  0.00000000000E+00 0. -1.
        -15    1    1    2    0    0  0.19825206405E+02  0.37721282489E+01 -0.29050142709E+03  0.29120697903E+03  0.17770000000E+01 0. -1.
         15    1    1    2    0    0  0.48325751673E+01  0.55887847270E+01 -0.15389585811E+03  0.15408335786E+03  0.17770000000E+01 0.  1.
</event>
<event>
 6    1  0.1823098E-004  0.5017478E+03  0.7546771E-02  0.9395907E-01
        -11   -1    0    0    0    0  0.00000000000E+00  0.00000000000E+00  0.50000000000E+03  0.50000000000E+03  0.00000000000E+00 0. -1.
         11   -1    0    0    0    0 -0.00000000000E+00 -0.00000000000E+00 -0.50000000000E+03  0.50000000000E+03  0.00000000000E+00 0. -1.
        -11    1    1    2    0    0  0.17514362218E+01 -0.68195839157E+01  0.44626697374E+03  0.44632251355E+03  0.00000000000E+00 0. -1.
         11    1    1    2    0    0  0.11613182932E+02 -0.42486588817E+01 -0.49809869600E+03  0.49825217318E+03  0.00000000000E+00 0. -1.
        -15    1    1    2    0    0 -0.56019090269E+01 -0.11956228815E+00  0.14363869884E+02  0.15520121357E+02  0.17770000000E+01 0.  1.
         15    1    1    2    0    0 -0.77627101266E+01  0.11187805086E+02  0.37467852375E+02  0.39905191914E+02  0.17770000000E+01 0. -1.
</event>
<event>
 6    1  0.1823098E-004  0.5009038E+03  0.7546771E-02  0.9397790E-01
        -11   -1    0    0    0    0  0.00000000000E+00  0.00000000000E+00  0.50000000000E+03  0.50000000000E+03  0.00000000000E+00 0. -1.
         11   -1    0    0    0    0 -0.00000000000E+00 -0.00000000000E+00 -0.50000000000E+03  0.50000000000E+03  0.00000000000E+00 0.  1.
        -11    1    1    2    0    0 -0.54536441876E+01 -0.45737642921E+01  0.44150806769E+03  0.44156543727E+03  0.00000000000E+00 0. -1.
         11    1    1    2    0    0 -0.11299443177E+01  0.10377672545E+02 -0.49898703591E+03  0.49909621804E+03  0.00000000000E+00 0.  1.
        -15    1    1    2    0    0  0.49723392837E+01 -0.72142028072E+01  0.54627289347E+02  0.55354018377E+02  0.17770000000E+01 0. -1.
         15    1    1    2    0    0  0.16112492216E+01  0.14102945542E+01  0.28516788682E+01  0.39843263108E+01  0.17770000000E+01 0.  1.
</event>
<event>
 6    1  0.1823098E-004  0.5056295E+03  0.7546771E-02  0.9387301E-01
        -11   -1    0    0    0    0  0.00000000000E+00  0.00000000000E+00  0.50000000000E+03  0.50000000000E+03  0.00000000000E+00 0. -1.
         11   -1    0    0    0    0 -0.00000000000E+00 -0.00000000000E+00 -0.50000000000E+03  0.50000000000E+03  0.00000000000E+00 0.  1.
        -11    1    1    2    0    0  0.24058403611E+01 -0.63767443076E+01  0.41102902996E+03  0.41108553174E+03  0.00000000000E+00 0. -1.
         11    1    1    2    0    0  0.17318745952E+02  0.38169540857E+02 -0.49259046573E+03  0.49437052879E+03  0.00000000000E+00 0.  1.
        -15    1    1    2    0    0  0.20069342817E+01 -0.84558257181E+01  0.45569380064E+02  0.46424722963E+02  0.17770000000E+01 0. -1.
         15    1    1    2    0    0 -0.21731520595E+02 -0.23336970832E+02  0.35992055704E+02  0.48119216513E+02  0.17770000000E+01 0.  1.
</event>
<event>
 6    1  0.1823098E-004  0.4780469E+03  0.7546771E-02  0.9450317E-01
        -11   -1    0    0    0    0  0.00000000000E+00  0.00000000000E+00  0.50000000000E+03  0.50000000000E+03  0.00000000000E+00 0. -1.
         11   -1    0    0    0    0 -0.00000000000E+00 -0.00000000000E+00 -0.50000000000E+03  0.50000000000E+03  0.00000000000E+00 0.  1.
        -11    1    1    2    0    0  0.14548793226E+02 -0.43367091211E+01  0.47558713614E+03  0.47582937960E+03  0.00000000000E+00 0. -1.
         11    1    1    2    0    0  0.22831726095E+02 -0.97897207576E+01 -0.48046981716E+03  0.48111159989E+03  0.00000000000E+00 0.  1.
        -15    1    1    2    0    0 -0.48068485934E+01  0.21202667468E+01  0.61412719702E+01  0.82749184220E+01  0.17770000000E+01 0. -1.
         15    1    1    2    0    0 -0.32573670727E+02  0.12006163132E+02 -0.12585909503E+01  0.34784102087E+02  0.17770000000E+01 0.  1.
</event>
<event>
 6    1  0.1823098E-004  0.5000840E+03  0.7546771E-02  0.9399622E-01
        -11   -1    0    0    0    0  0.00000000000E+00  0.00000000000E+00  0.50000000000E+03  0.50000000000E+03  0.00000000000E+00 0.  1.
         11   -1    0    0    0    0 -0.00000000000E+00 -0.00000000000E+00 -0.50000000000E+03  0.50000000000E+03  0.00000000000E+00 0.  1.
        -11    1    1    2    0    0 -0.12365684226E+01  0.18903998991E+01  0.41881362564E+02  0.41942236987E+02  0.00000000000E+00 0.  1.
         11    1    1    2    0    0  0.65505862489E+01  0.13681535190E+02 -0.49968585816E+03  0.49991604438E+03  0.00000000000E+00 0.  1.
        -15    1    1    2    0    0 -0.35515219867E+01 -0.39169783341E+01  0.12676645911E+03  0.12688912055E+03  0.17770000000E+01 0. -1.
         15    1    1    2    0    0 -0.17624958397E+01 -0.11654956755E+02  0.33103803648E+03  0.33125259808E+03  0.17770000000E+01 0.  1.
</event>
<event>
 6    1  0.1823098E-004  0.4803119E+03  0.7546771E-02  0.9444974E-01
        -11   -1    0    0    0    0  0.00000000000E+00  0.00000000000E+00  0.50000000000E+03  0.50000000000E+03  0.00000000000E+00 0. -1.
         11   -1    0    0    0    0 -0.00000000000E+00 -0.00000000000E+00 -0.50000000000E+03  0.50000000000E+03  0.00000000000E+00 0. -1.
        -11    1    1    2    0    0  0.86709577475E+01 -0.10955529715E+02  0.48242299961E+03  0.48262527876E+03  0.00000000000E+00 0. -1.
         11    1    1    2    0    0  0.15500573598E+02 -0.14759890300E+02 -0.47817715275E+03  0.47865594277E+03  0.00000000000E+00 0. -1.
        -15    1    1    2    0    0 -0.68128665914E+01  0.84829049580E+01  0.55109792392E+01  0.12324911720E+02  0.17770000000E+01 0. -1.
         15    1    1    2    0    0 -0.17358664754E+02  0.17232515057E+02 -0.97568261062E+01  0.26393866748E+02  0.17770000000E+01 0.  1.
</event>
<event>
 6    1  0.1823098E-004  0.5001549E+03  0.7546771E-02  0.9399463E-01
        -11   -1    0    0    0    0  0.00000000000E+00  0.00000000000E+00  0.50000000000E+03  0.50000000000E+03  0.00000000000E+00 0. -1.
         11   -1    0    0    0    0 -0.00000000000E+00 -0.00000000000E+00 -0.50000000000E+03  0.50000000000E+03  0.00000000000E+00 0. -1.
        -11    1    1    2    0    0  0.61075671707E+01  0.70786173386E+01  0.49975760785E+03  0.49984505179E+03  0.00000000000E+00 0. -1.
         11    1    1    2    0    0 -0.10148928404E+02 -0.90354199925E+01 -0.31711614019E+03  0.31740712962E+03  0.00000000000E+00 0. -1.
        -15    1    1    2    0    0  0.31753327687E+01  0.37486010144E+00 -0.97057246449E+02  0.97126155466E+02  0.17770000000E+01 0. -1.
         15    1    1    2    0    0  0.86602846473E+00  0.15819425525E+01 -0.85584221205E+02  0.85621663122E+02  0.17770000000E+01 0.  1.
</event>
<event>
 6    1  0.1823098E-004  0.4656315E+03  0.7546771E-02  0.9480176E-01
        -11   -1    0    0    0    0  0.00000000000E+00  0.00000000000E+00  0.50000000000E+03  0.50000000000E+03  0.00000000000E+00 0. -1.
         11   -1    0    0    0    0 -0.00000000000E+00 -0.00000000000E+00 -0.50000000000E+03  0.50000000000E+03  0.00000000000E+00 0.  1.
        -11    1    1    2    0    0  0.94013753060E+01 -0.95617593053E+01  0.48030993285E+03  0.48049708083E+03  0.00000000000E+00 0. -1.
         11    1    1    2    0    0  0.18424893301E+02  0.50664895351E+02 -0.44937836438E+03  0.45260062161E+03  0.00000000000E+00 0.  1.
        -15    1    1    2    0    0 -0.22518982467E+02 -0.44512923932E+02 -0.33220284665E+02  0.59960403689E+02  0.17770000000E+01 0.  1.
         15    1    1    2    0    0 -0.53072861399E+01  0.34097878862E+01  0.22887161961E+01  0.69418938645E+01  0.17770000000E+01 0. -1.
</event>
<event>
 6    1  0.1823098E-004  0.5001036E+03  0.7546771E-02  0.9399578E-01
        -11   -1    0    0    0    0  0.00000000000E+00  0.00000000000E+00  0.50000000000E+03  0.50000000000E+03  0.00000000000E+00 0.  1.
         11   -1    0    0    0    0 -0.00000000000E+00 -0.00000000000E+00 -0.50000000000E+03  0.50000000000E+03  0.00000000000E+00 0. -1.
        -11    1    1    2    0    0 -0.75197571734E+01  0.32363606655E+01  0.31362721370E+03  0.31373404334E+03  0.00000000000E+00 0.  1.
         11    1    1    2    0    0  0.15615513910E+02 -0.17641643747E+01 -0.49964928752E+03  0.49989635633E+03  0.00000000000E+00 0. -1.
        -15    1    1    2    0    0  0.75117410833E+00  0.18113583227E-01  0.19110720957E+02  0.19207862326E+02  0.17770000000E+01 0. -1.
         15    1    1    2    0    0 -0.88469308454E+01 -0.14903098740E+01  0.16691135287E+03  0.16716173801E+03  0.17770000000E+01 0.  1.
</event>
<event>
 6    1  0.1823098E-004  0.5002644E+03  0.7546771E-02  0.9399218E-01
        -11   -1    0    0    0    0  0.00000000000E+00  0.00000000000E+00  0.50000000000E+03  0.50000000000E+03  0.00000000000E+00 0.  1.
         11   -1    0    0    0    0 -0.00000000000E+00 -0.00000000000E+00 -0.50000000000E+03  0.50000000000E+03  0.00000000000E+00 0. -1.
        -11    1    1    2    0    0  0.29559763466E+01 -0.68000287340E+01  0.49968055191E+03  0.49973556222E+03  0.00000000000E+00 0.  1.
         11    1    1    2    0    0 -0.94462846931E+01 -0.18848922522E+01 -0.11452961481E+03  0.11493397140E+03  0.00000000000E+00 0. -1.
        -15    1    1    2    0    0  0.54821396016E+01  0.60937671280E+01 -0.25587539277E+03  0.25601281649E+03  0.17770000000E+01 0.  1.
         15    1    1    2    0    0  0.10081687449E+01  0.25911538582E+01 -0.12927554433E+03  0.12931764989E+03  0.17770000000E+01 0. -1.
</event>
<event>
 6    1  0.1823098E-004  0.5003346E+03  0.7546771E-02  0.9399061E-01
        -11   -1    0    0    0    0  0.00000000000E+00  0.00000000000E+00  0.50000000000E+03  0.50000000000E+03  0.00000000000E+00 0. -1.
         11   -1    0    0    0    0 -0.00000000000E+00 -0.00000000000E+00 -0.50000000000E+03  0.50000000000E+03  0.00000000000E+00 0.  1.
        -11    1    1    2    0    0  0.22002459334E+01 -0.69459186744E+01  0.49961222544E+03  0.49966535069E+03  0.00000000000E+00 0. -1.
         11    1    1    2    0    0  0.45856113763E+01  0.81315721463E+01 -0.26340650241E+03  0.26357187977E+03  0.00000000000E+00 0.  1.
        -15    1    1    2    0    0 -0.23952867969E+01 -0.74616102541E+01 -0.14320022977E+03  0.14342550875E+03  0.17770000000E+01 0.  1.
         15    1    1    2    0    0 -0.43905705129E+01  0.62759567822E+01 -0.93005493273E+02  0.93337260786E+02  0.17770000000E+01 0.  1.
</event>
<event>
 6    1  0.1823098E-004  0.5064245E+03  0.7546771E-02  0.9385548E-01
        -11   -1    0    0    0    0  0.00000000000E+00  0.00000000000E+00  0.50000000000E+03  0.50000000000E+03  0.00000000000E+00 0.  1.
         11   -1    0    0    0    0 -0.00000000000E+00 -0.00000000000E+00 -0.50000000000E+03  0.50000000000E+03  0.00000000000E+00 0.  1.
        -11    1    1    2    0    0  0.77286586282E+01  0.27085583196E+01  0.36850209651E+03  0.36859308673E+03  0.00000000000E+00 0.  1.
         11    1    1    2    0    0 -0.49058649714E+02  0.47159458462E+02 -0.48886194582E+03  0.49357549342E+03  0.00000000000E+00 0.  1.
        -15    1    1    2    0    0  0.24373311645E+02 -0.36367496230E+02  0.93608800600E+02  0.10335578543E+03  0.17770000000E+01 0.  1.
         15    1    1    2    0    0  0.16956679441E+02 -0.13500520552E+02  0.26751048710E+02  0.34475634424E+02  0.17770000000E+01 0. -1.
</event>
<event>
 6    1  0.1823098E-004  0.5000455E+03  0.7546771E-02  0.9399708E-01
        -11   -1    0    0    0    0  0.00000000000E+00  0.00000000000E+00  0.50000000000E+03  0.50000000000E+03  0.00000000000E+00 0. -1.
         11   -1    0    0    0    0 -0.00000000000E+00 -0.00000000000E+00 -0.50000000000E+03  0.50000000000E+03  0.00000000000E+00 0.  1.
        -11    1    1    2    0    0 -0.57408742245E+01  0.55286313770E+01  0.49989091918E+03  0.49995445241E+03  0.00000000000E+00 0. -1.
         11    1    1    2    0    0  0.94407049865E+00 -0.52226310438E+01 -0.14401296659E+03  0.14411072719E+03  0.00000000000E+00 0.  1.
        -15    1    1    2    0    0  0.85096644247E+00 -0.41692815356E+00 -0.12636585507E+03  0.12638190151E+03  0.17770000000E+01 0. -1.
         15    1    1    2    0    0  0.39458372834E+01  0.11092782029E+00 -0.22951209752E+03  0.22955291889E+03  0.17770000000E+01 0.  1.
</event>
<event>
 6    1  0.1823098E-004  0.5000918E+03  0.7546771E-02  0.9399604E-01
        -11   -1    0    0    0    0  0.00000000000E+00  0.00000000000E+00  0.50000000000E+03  0.50000000000E+03  0.00000000000E+00 0.  1.
         11   -1    0    0    0    0 -0.00000000000E+00 -0.00000000000E+00 -0.50000000000E+03  0.50000000000E+03  0.00000000000E+00 0. -1.
        -11    1    1    2    0    0 -0.29915331225E+01  0.11495815503E-01  0.14951799675E+03  0.14954792127E+03  0.00000000000E+00 0.  1.
         11    1    1    2    0    0  0.75461269052E+01 -0.11680058529E+02 -0.49971472493E+03  0.49990816567E+03  0.00000000000E+00 0. -1.
        -15    1    1    2    0    0 -0.35543478576E+00 -0.61565502436E+00  0.21158311128E+02  0.21244698722E+02  0.17770000000E+01 0.  1.
         15    1    1    2    0    0 -0.41991589969E+01  0.12284217738E+02  0.32903841704E+03  0.32929921434E+03  0.17770000000E+01 0.  1.
</event>
<event>
 6    1  0.1823098E-004  0.5032722E+03  0.7546771E-02  0.9392517E-01
        -11   -1    0    0    0    0  0.00000000000E+00  0.00000000000E+00  0.50000000000E+03  0.50000000000E+03  0.00000000000E+00 0. -1.
         11   -1    0    0    0    0 -0.00000000000E+00 -0.00000000000E+00 -0.50000000000E+03  0.50000000000E+03  0.00000000000E+00 0. -1.
        -11    1    1    2    0    0 -0.46970763815E+01  0.12370187231E+02  0.42757461139E+03  0.42777930334E+03  0.00000000000E+00 0. -1.
         11    1    1    2    0    0 -0.11972846635E+02 -0.15783385434E+02 -0.49633255665E+03  0.49672776357E+03  0.00000000000E+00 0. -1.
        -15    1    1    2    0    0  0.94989097368E+01  0.13837901867E+02  0.27162591090E+02  0.31979382389E+02  0.17770000000E+01 0. -1.
         15    1    1    2    0    0  0.71710132796E+01 -0.10424703664E+02  0.41595354163E+02  0.43513550704E+02  0.17770000000E+01 0.  1.
</event>
<event>
 6    1  0.1823098E-004  0.5133834E+03  0.7546771E-02  0.9370351E-01
        -11   -1    0    0    0    0  0.00000000000E+00  0.00000000000E+00  0.50000000000E+03  0.50000000000E+03  0.00000000000E+00 0.  1.
         11   -1    0    0    0    0 -0.00000000000E+00 -0.00000000000E+00 -0.50000000000E+03  0.50000000000E+03  0.00000000000E+00 0. -1.
        -11    1    1    2    0    0  0.59411384706E+01  0.18518575653E+02  0.48622776037E+03  0.48661655307E+03  0.00000000000E+00 0.  1.
         11    1    1    2    0    0 -0.21024546921E+02  0.46970415269E+01 -0.43189294416E+03  0.43242988910E+03  0.00000000000E+00 0. -1.
        -15    1    1    2    0    0  0.28093912009E+02 -0.29848361896E+01 -0.48471727622E+02  0.56132372538E+02  0.17770000000E+01 0. -1.
         15    1    1    2    0    0 -0.13010503559E+02 -0.20230780990E+02 -0.58630885872E+01  0.24821185288E+02  0.17770000000E+01 0.  1.
</event>
<event>
 6    1  0.1823098E-004  0.5001558E+03  0.7546771E-02  0.9399461E-01
        -11   -1    0    0    0    0  0.00000000000E+00  0.00000000000E+00  0.50000000000E+03  0.50000000000E+03  0.00000000000E+00 0.  1.
         11   -1    0    0    0    0 -0.00000000000E+00 -0.00000000000E+00 -0.50000000000E+03  0.50000000000E+03  0.00000000000E+00 0.  1.
        -11    1    1    2    0    0  0.82197173666E+01 -0.64360824735E+00  0.49977623540E+03  0.49984423920E+03  0.00000000000E+00 0.  1.
         11    1    1    2    0    0  0.23160535296E+00  0.72535644376E+01 -0.16286165972E+03  0.16302327455E+03  0.00000000000E+00 0.  1.
        -15    1    1    2    0    0 -0.37291618123E+01 -0.25396857901E+01 -0.87993243110E+02  0.88126756515E+02  0.17770000000E+01 0.  1.
         15    1    1    2    0    0 -0.47221609072E+01 -0.40702704002E+01 -0.24892133257E+03  0.24900572974E+03  0.17770000000E+01 0. -1.
</event>
<event>
 6    1  0.1823098E-004  0.5157545E+03  0.7546771E-02  0.9365232E-01
        -11   -1    0    0    0    0  0.00000000000E+00  0.00000000000E+00  0.50000000000E+03  0.50000000000E+03  0.00000000000E+00 0.  1.
         11   -1    0    0    0    0 -0.00000000000E+00 -0.00000000000E+00 -0.50000000000E+03  0.50000000000E+03  0.00000000000E+00 0.  1.
        -11    1    1    2    0    0 -0.80589451603E+01  0.78353032648E+01  0.48411504399E+03  0.48424551045E+03  0.00000000000E+00 0.  1.
         11    1    1    2    0    0  0.58724384601E+02  0.76061835799E+01 -0.42825033272E+03  0.43232482562E+03  0.00000000000E+00 0.  1.
        -15    1    1    2    0    0 -0.53686410906E+02 -0.89579148250E+01 -0.47309404055E+02  0.72137454869E+02  0.17770000000E+01 0. -1.
         15    1    1    2    0    0  0.30209714646E+01 -0.64835720197E+01 -0.85553072198E+01  0.11292209055E+02  0.17770000000E+01 0.  1.
</event>
<event>
 6    1  0.1823098E-004  0.5023036E+03  0.7546771E-02  0.9394670E-01
        -11   -1    0    0    0    0  0.00000000000E+00  0.00000000000E+00  0.50000000000E+03  0.50000000000E+03  0.00000000000E+00 0. -1.
         11   -1    0    0    0    0 -0.00000000000E+00 -0.00000000000E+00 -0.50000000000E+03  0.50000000000E+03  0.00000000000E+00 0.  1.
        -11    1    1    2    0    0  0.56224745664E+01 -0.80618774732E+01  0.49759937634E+03  0.49769643903E+03  0.00000000000E+00 0. -1.
         11    1    1    2    0    0  0.17403662968E+01  0.65639783815E+01 -0.48827999226E+03  0.48832721154E+03  0.00000000000E+00 0.  1.
        -15    1    1    2    0    0 -0.62901688812E+01  0.17132771786E+01 -0.97332949558E+01  0.11848894587E+02  0.17770000000E+01 0. -1.
         15    1    1    2    0    0 -0.10726719819E+01 -0.21537808693E+00  0.41391087956E+00  0.21274548450E+01  0.17770000000E+01 0.  1.
</event>
<event>
 6    1  0.1823098E-004  0.5002362E+03  0.7546771E-02  0.9399281E-01
        -11   -1    0    0    0    0  0.00000000000E+00  0.00000000000E+00  0.50000000000E+03  0.50000000000E+03  0.00000000000E+00 0. -1.
         11   -1    0    0    0    0 -0.00000000000E+00 -0.00000000000E+00 -0.50000000000E+03  0.50000000000E+03  0.00000000000E+00 0. -1.
        -11    1    1    2    0    0  0.11501017617E+02  0.21723390808E+02  0.49915897524E+03  0.49976380589E+03  0.00000000000E+00 0. -1.
         11    1    1    2    0    0  0.27513526651E+01 -0.41215165153E+01 -0.27615900873E+02  0.28056992371E+02  0.00000000000E+00 0. -1.
        -15    1    1    2    0    0  0.42670152459E+00 -0.40245936121E+01 -0.80762891450E+02  0.80883754811E+02  0.17770000000E+01 0.  1.
         15    1    1    2    0    0 -0.14679071806E+02 -0.13577280681E+02 -0.39078018291E+03  0.39129544693E+03  0.17770000000E+01 0. -1.
</event>
<event>
 6    1  0.1823098E-004  0.5001997E+03  0.7546771E-02  0.9399363E-01
        -11   -1    0    0    0    0  0.00000000000E+00  0.00000000000E+00  0.50000000000E+03  0.50000000000E+03  0.00000000000E+00 0.  1.
         11   -1    0    0    0    0 -0.00000000000E+00 -0.00000000000E+00 -0.50000000000E+03  0.50000000000E+03  0.00000000000E+00 0. -1.
        -11    1    1    2    0    0 -0.52942193263E+00  0.11385751587E+02  0.49967028786E+03  0.49980027230E+03  0.00000000000E+00 0.  1.
         11    1    1    2    0    0 -0.80936649531E+00 -0.82047425624E+01 -0.75184474347E+02  0.75635164160E+02  0.00000000000E+00 0. -1.
        -15    1    1    2    0    0 -0.26351764374E+01 -0.13903156647E+01 -0.18294183824E+03  0.18297472787E+03  0.17770000000E+01 0. -1.
         15    1    1    2    0    0  0.39739648653E+01 -0.17906933604E+01 -0.24154397527E+03  0.24158983566E+03  0.17770000000E+01 0.  1.
</event>
<event>
 6    1  0.1823098E-004  0.5001149E+03  0.7546771E-02  0.9399553E-01
        -11   -1    0    0    0    0  0.00000000000E+00  0.00000000000E+00  0.50000000000E+03  0.50000000000E+03  0.00000000000E+00 0. -1.
         11   -1    0    0    0    0 -0.00000000000E+00 -0.00000000000E+00 -0.50000000000E+03  0.50000000000E+03  0.00000000000E+00 0. -1.
        -11    1    1    2    0    0  0.78950075888E+01 -0.21765579959E+01  0.49981798022E+03  0.49988506869E+03  0.00000000000E+00 0. -1.
         11    1    1    2    0    0  0.31264262543E+01  0.10504324312E+01 -0.22813527975E+03  0.22815911951E+03  0.00000000000E+00 0. -1.
        -15    1    1    2    0    0 -0.80971412644E+01  0.26825024893E+00 -0.21771499775E+03  0.21787293000E+03  0.17770000000E+01 0.  1.
         15    1    1    2    0    0 -0.29242925787E+01  0.85787531576E+00 -0.53967702723E+02  0.54082881796E+02  0.17770000000E+01 0. -1.
</event>
<event>
 6    1  0.1823098E-004  0.5000456E+03  0.7546771E-02  0.9399708E-01
        -11   -1    0    0    0    0  0.00000000000E+00  0.00000000000E+00  0.50000000000E+03  0.50000000000E+03  0.00000000000E+00 0.  1.
         11   -1    0    0    0    0 -0.00000000000E+00 -0.00000000000E+00 -0.50000000000E+03  0.50000000000E+03  0.00000000000E+00 0. -1.
        -11    1    1    2    0    0 -0.31304587018E+01 -0.49488382189E+01  0.16888081515E+03  0.16898230824E+03  0.00000000000E+00 0.  1.
         11    1    1    2    0    0  0.13124732689E+02  0.12248941266E+02 -0.49963197443E+03  0.49995440297E+03  0.00000000000E+00 0. -1.
        -15    1    1    2    0    0 -0.83666684595E+01 -0.52046581707E+01  0.29497940361E+03  0.29514927730E+03  0.17770000000E+01 0.  1.
         15    1    1    2    0    0 -0.16276055276E+01 -0.20954448765E+01  0.35771755676E+02  0.35914011502E+02  0.17770000000E+01 0. -1.
</event>
<event>
 6    1  0.1823098E-004  0.5000605E+03  0.7546771E-02  0.9399674E-01
        -11   -1    0    0    0    0  0.00000000000E+00  0.00000000000E+00  0.50000000000E+03  0.50000000000E+03  0.00000000000E+00 0.  1.
         11   -1    0    0    0    0 -0.00000000000E+00 -0.00000000000E+00 -0.50000000000E+03  0.50000000000E+03  0.00000000000E+00 0.  1.
        -11    1    1    2    0    0 -0.41700319204E+01 -0.80786710378E+00  0.22245167006E+03  0.22249221858E+03  0.00000000000E+00 0.  1.
         11    1    1    2    0    0  0.62670132579E+01 -0.76951079297E+01 -0.49984098214E+03  0.49993949391E+03  0.00000000000E+00 0.  1.
        -15    1    1    2    0    0 -0.15109391174E+01  0.63858441159E+01  0.22515069912E+03  0.22525331737E+03  0.17770000000E+01 0.  1.
         15    1    1    2    0    0 -0.58604222011E+00  0.21171309176E+01  0.52238612959E+02  0.52314970149E+02  0.17770000000E+01 0.  1.
</event>
<event>
 6    1  0.1823098E-004  0.5054358E+03  0.7546771E-02  0.9387728E-01
        -11   -1    0    0    0    0  0.00000000000E+00  0.00000000000E+00  0.50000000000E+03  0.50000000000E+03  0.00000000000E+00 0. -1.
         11   -1    0    0    0    0 -0.00000000000E+00 -0.00000000000E+00 -0.50000000000E+03  0.50000000000E+03  0.00000000000E+00 0. -1.
        -11    1    1    2    0    0  0.46912617659E+01 -0.69051828589E+01  0.49449377164E+03  0.49456423210E+03  0.00000000000E+00 0. -1.
         11    1    1    2    0    0  0.12144707500E+02  0.11845545928E+02 -0.48019814684E+03  0.48049773267E+03  0.00000000000E+00 0. -1.
        -15    1    1    2    0    0 -0.15927086342E+02 -0.55485320627E+01 -0.15094542337E+02  0.22703771157E+02  0.17770000000E+01 0.  1.
         15    1    1    2    0    0 -0.90888292347E+00  0.60816899360E+00  0.79891753719E+00  0.22342640678E+01  0.17770000000E+01 0.  1.
</event>
<event>
 6    1  0.1823098E-004  0.5001503E+03  0.7546771E-02  0.9399473E-01
        -11   -1    0    0    0    0  0.00000000000E+00  0.00000000000E+00  0.50000000000E+03  0.50000000000E+03  0.00000000000E+00 0. -1.
         11   -1    0    0    0    0 -0.00000000000E+00 -0.00000000000E+00 -0.50000000000E+03  0.50000000000E+03  0.00000000000E+00 0.  1.
        -11    1    1    2    0    0  0.48264675003E+01  0.15373216629E+02  0.49958993016E+03  0.49984970631E+03  0.00000000000E+00 0. -1.
         11    1    1    2    0    0 -0.70368865955E+01 -0.16640244540E+02 -0.34300818487E+03  0.34348366831E+03  0.00000000000E+00 0.  1.
        -15    1    1    2    0    0  0.76562334339E+00  0.17078332080E+01 -0.58134947579E+02  0.58192205083E+02  0.17770000000E+01 0.  1.
         15    1    1    2    0    0  0.14447957518E+01 -0.44080529744E+00 -0.98446797713E+02  0.98474420298E+02  0.17770000000E+01 0.  1.
</event>
<event>
 6    1  0.1823098E-004  0.5004615E+03  0.7546771E-02  0.9398778E-01
        -11   -1    0    0    0    0  0.00000000000E+00  0.00000000000E+00  0.50000000000E+03  0.50000000000E+03  0.00000000000E+00 0. -1.
         11   -1    0    0    0    0 -0.00000000000E+00 -0.00000000000E+00 -0.50000000000E+03  0.50000000000E+03  0.00000000000E+00 0.  1.
        -11    1    1    2    0    0  0.37187543674E+02  0.32740539400E+02  0.49707528109E+03  0.49953847839E+03  0.00000000000E+00 0. -1.
         11    1    1    2    0    0 -0.37806125106E+02 -0.31055801940E+02 -0.36714249459E+03  0.37038814406E+03  0.00000000000E+00 0.  1.
        -15    1    1    2    0    0  0.87239284236E+00 -0.31741104239E+00 -0.10915701183E+03  0.10917542204E+03  0.17770000000E+01 0. -1.
         15    1    1    2    0    0 -0.25381141006E+00 -0.13673264170E+01 -0.20775774678E+02  0.20897955504E+02  0.17770000000E+01 0. -1.
</event>
<event>
 6    1  0.1823098E-004  0.5000343E+03  0.7546771E-02  0.9399733E-01
        -11   -1    0    0    0    0  0.00000000000E+00  0.00000000000E+00  0.50000000000E+03  0.50000000000E+03  0.00000000000E+00 0.  1.
         11   -1    0    0    0    0 -0.00000000000E+00 -0.00000000000E+00 -0.50000000000E+03  0.50000000000E+03  0.00000000000E+00 0.  1.
        -11    1    1    2    0    0 -0.81018659313E+01 -0.25173938595E+01  0.48654828835E+03  0.48662225021E+03  0.00000000000E+00 0.  1.
         11    1    1    2    0    0  0.17782514777E+01  0.33170314828E+00  0.13220309807E+02  0.13343492672E+02  0.00000000000E+00 0.  1.
        -15    1    1    2    0    0  0.86673460517E+01 -0.17210663300E+01 -0.43001499040E+03  0.43010944497E+03  0.17770000000E+01 0.  1.
         15    1    1    2    0    0 -0.23437315981E+01  0.39067570413E+01 -0.69753607764E+02  0.69924812145E+02  0.17770000000E+01 0. -1.
</event>
<event>
 6    1  0.1823098E-004  0.5037281E+03  0.7546771E-02  0.9391506E-01
        -11   -1    0    0    0    0  0.00000000000E+00  0.00000000000E+00  0.50000000000E+03  0.50000000000E+03  0.00000000000E+00 0.  1.
         11   -1    0    0    0    0 -0.00000000000E+00 -0.00000000000E+00 -0.50000000000E+03  0.50000000000E+03  0.00000000000E+00 0. -1.
        -11    1    1    2    0    0  0.23522492084E+01 -0.10085297965E+02  0.49616384462E+03  0.49627190836E+03  0.00000000000E+00 0.  1.
         11    1    1    2    0    0  0.11057211730E+02  0.23122521590E+02 -0.45877894640E+03  0.45949432488E+03  0.00000000000E+00 0. -1.
        -15    1    1    2    0    0 -0.17401722531E+01 -0.33310821791E+01 -0.35249080427E+00  0.41720842179E+01  0.17770000000E+01 0.  1.
         15    1    1    2    0    0 -0.11669288685E+02 -0.97061414456E+01 -0.37032407415E+02  0.40061682543E+02  0.17770000000E+01 0. -1.
</event>
<event>
 6    1  0.1823098E-004  0.5050780E+03  0.7546771E-02  0.9388519E-01
        -11   -1    0    0    0    0  0.00000000000E+00  0.00000000000E+00  0.50000000000E+03  0.50000000000E+03  0.00000000000E+00 0.  1.
         11   -1    0    0    0    0 -0.00000000000E+00 -0.00000000000E+00 -0.50000000000E+03  0.50000000000E+03  0.00000000000E+00 0.  1.
        -11    1    1    2    0    0  0.69683757897E+01 -0.54396095067E+01  0.46834132503E+03  0.46842474779E+03  0.00000000000E+00 0.  1.
         11    1    1    2    0    0 -0.29158592901E+01 -0.18852865355E+02 -0.49455422935E+03  0.49492203278E+03  0.00000000000E+00 0.  1.
        -15    1    1    2    0    0 -0.21209775693E+01  0.27922980899E+01  0.34246193779E+01  0.52135612930E+01  0.17770000000E+01 0. -1.
         15    1    1    2    0    0 -0.19315389304E+01  0.21500176772E+02  0.22788284945E+02  0.31439658134E+02  0.17770000000E+01 0.  1.
</event>
<event>
 6    1  0.1823098E-004  0.5010946E+03  0.7546771E-02  0.9397364E-01
        -11   -1    0    0    0    0  0.00000000000E+00  0.00000000000E+00  0.50000000000E+03  0.50000000000E+03  0.00000000000E+00 0. -1.
         11   -1    0    0    0    0 -0.00000000000E+00 -0.00000000000E+00 -0.50000000000E+03  0.50000000000E+03  0.00000000000E+00 0. -1.
        -11    1    1    2    0    0 -0.25044041364E+01 -0.51571506095E+00  0.11584307144E+03  0.11587128723E+03  0.00000000000E+00 0. -1.
         11    1    1    2    0    0  0.56639889042E+00  0.36860621547E+02 -0.49754156374E+03  0.49890543580E+03  0.00000000000E+00 0. -1.
        -15    1    1    2    0    0  0.11569765765E+02 -0.27569797334E+02  0.34391377597E+03  0.34521557936E+03  0.17770000000E+01 0. -1.
         15    1    1    2    0    0 -0.96317605188E+01 -0.87751091523E+01  0.37784716323E+02  0.40007697608E+02  0.17770000000E+01 0.  1.
</event>
<event>
 6    1  0.1823098E-004  0.5000741E+03  0.7546771E-02  0.9399644E-01
        -11   -1    0    0    0    0  0.00000000000E+00  0.00000000000E+00  0.50000000000E+03  0.50000000000E+03  0.00000000000E+00 0. -1.
         11   -1    0    0    0    0 -0.00000000000E+00 -0.00000000000E+00 -0.50000000000E+03  0.50000000000E+03  0.00000000000E+00 0. -1.
        -11    1    1    2    0    0  0.34810153392E+00 -0.81225190496E+00  0.53623340858E+02  0.53630621967E+02  0.00000000000E+00 0. -1.
         11    1    1    2    0    0  0.17333059021E+02 -0.17140243039E+01 -0.49962240050E+03  0.49992591040E+03  0.00000000000E+00 0. -1.
        -15    1    1    2    0    0 -0.15057999156E+02 -0.39110001536E+00  0.30278309358E+03  0.30316275462E+03  0.17770000000E+01 0. -1.
         15    1    1    2    0    0 -0.26231613996E+01  0.29173762243E+01  0.14321596605E+03  0.14328071301E+03  0.17770000000E+01 0.  1.
</event>
<event>
 6    1  0.1823098E-004  0.5102315E+03  0.7546771E-02  0.9377202E-01
        -11   -1    0    0    0    0  0.00000000000E+00  0.00000000000E+00  0.50000000000E+03  0.50000000000E+03  0.00000000000E+00 0.  1.
         11   -1    0    0    0    0 -0.00000000000E+00 -0.00000000000E+00 -0.50000000000E+03  0.50000000000E+03  0.00000000000E+00 0.  1.
        -11    1    1    2    0    0 -0.46563096988E+01  0.39847004698E+02  0.48812261188E+03  0.48976846492E+03  0.00000000000E+00 0.  1.
         11    1    1    2    0    0  0.48423489424E+01 -0.47047605878E+02 -0.40223801102E+02  0.62087677821E+02  0.00000000000E+00 0.  1.
        -15    1    1    2    0    0 -0.56650019989E+00  0.10650133402E+02 -0.35143236564E+03  0.35159865133E+03  0.17770000000E+01 0.  1.
         15    1    1    2    0    0  0.38046095634E+00 -0.34495322224E+01 -0.96466445133E+02  0.96545205933E+02  0.17770000000E+01 0. -1.
</event>
<event>
 6    1  0.1823098E-004  0.5010656E+03  0.7546771E-02  0.9397428E-01
        -11   -1    0    0    0    0  0.00000000000E+00  0.00000000000E+00  0.50000000000E+03  0.50000000000E+03  0.00000000000E+00 0. -1.
         11   -1    0    0    0    0 -0.00000000000E+00 -0.00000000000E+00 -0.50000000000E+03  0.50000000000E+03  0.00000000000E+00 0. -1.
        -11    1    1    2    0    0  0.17364021560E+01 -0.70324011799E+01  0.49888180671E+03  0.49893439130E+03  0.00000000000E+00 0. -1.
         11    1    1    2    0    0 -0.72386556515E+01 -0.11983097995E+02 -0.37601063937E+03  0.37627117042E+03  0.00000000000E+00 0. -1.
        -15    1    1    2    0    0 -0.16028700519E+01  0.90367943334E+01 -0.58814072449E+02  0.59552377713E+02  0.17770000000E+01 0.  1.
         15    1    1    2    0    0  0.71051235474E+01  0.99787048415E+01 -0.64057094893E+02  0.65242060560E+02  0.17770000000E+01 0. -1.
</event>
<event>
 6    1  0.1823098E-004  0.5008794E+03  0.7546771E-02  0.9397844E-01
        -11   -1    0    0    0    0  0.00000000000E+00  0.00000000000E+00  0.50000000000E+03  0.50000000000E+03  0.00000000000E+00 0. -1.
         11   -1    0    0    0    0 -0.00000000000E+00 -0.00000000000E+00 -0.50000000000E+03  0.50000000000E+03  0.00000000000E+00 0.  1.
        -11    1    1    2    0    0  0.60112292761E+01  0.12541679630E+01  0.43382838160E+03  0.43387183880E+03  0.00000000000E+00 0. -1.
         11    1    1    2    0    0  0.77987095045E+01 -0.29867015643E+01 -0.49905075450E+03  0.49912062252E+03  0.00000000000E+00 0.  1.
        -15    1    1    2    0    0 -0.11918992382E+02  0.19276586910E+00  0.56700366470E+02  0.57967135732E+02  0.17770000000E+01 0. -1.
         15    1    1    2    0    0 -0.18909463991E+01  0.15397677323E+01  0.85220064277E+01  0.90404029505E+01  0.17770000000E+01 0.  1.
</event>
<event>
 6    1  0.1823098E-004  0.4868539E+03  0.7546771E-02  0.9429715E-01
        -11   -1    0    0    0    0  0.00000000000E+00  0.00000000000E+00  0.50000000000E+03  0.50000000000E+03  0.00000000000E+00 0. -1.
         11   -1    0    0    0    0 -0.00000000000E+00 -0.00000000000E+00 -0.50000000000E+03  0.50000000000E+03  0.00000000000E+00 0. -1.
        -11    1    1    2    0    0 -0.17599428118E+02 -0.27382967131E+00  0.49225060923E+03  0.49256520090E+03  0.00000000000E+00 0. -1.
         11    1    1    2    0    0  0.27956924223E+01 -0.13222809513E+02 -0.48122140447E+03  0.48141115349E+03  0.00000000000E+00 0. -1.
        -15    1    1    2    0    0  0.47498485971E+01  0.78019214955E-01  0.11785998923E+01  0.52071081609E+01  0.17770000000E+01 0. -1.
         15    1    1    2    0    0  0.10053887099E+02  0.13418619969E+02 -0.12207804655E+02  0.20816537444E+02  0.17770000000E+01 0.  1.
</event>
<event>
 6    1  0.1823098E-004  0.5226271E+03  0.7546771E-02  0.9350556E-01
        -11   -1    0    0    0    0  0.00000000000E+00  0.00000000000E+00  0.50000000000E+03  0.50000000000E+03  0.00000000000E+00 0. -1.
         11   -1    0    0    0    0 -0.00000000000E+00 -0.00000000000E+00 -0.50000000000E+03  0.50000000000E+03  0.00000000000E+00 0.  1.
        -11    1    1    2    0    0 -0.84472062564E+01  0.10704635346E+02  0.47717810805E+03  0.47737290592E+03  0.00000000000E+00 0. -1.
         11    1    1    2    0    0 -0.51500431556E+02  0.33195589127E+02 -0.40860191927E+03  0.41317038860E+03  0.00000000000E+00 0.  1.
        -15    1    1    2    0    0 -0.38724745511E+01 -0.76448059516E+00  0.21798114723E+01  0.48466273618E+01  0.17770000000E+01 0. -1.
         15    1    1    2    0    0  0.63820112363E+02 -0.43135743878E+02 -0.70756000253E+02  0.10461007811E+03  0.17770000000E+01 0.  1.
</event>
<event>
 6    1  0.1823098E-004  0.4671290E+03  0.7546771E-02  0.9476522E-01
        -11   -1    0    0    0    0  0.00000000000E+00  0.00000000000E+00  0.50000000000E+03  0.50000000000E+03  0.00000000000E+00 0. -1.
         11   -1    0    0    0    0 -0.00000000000E+00 -0.00000000000E+00 -0.50000000000E+03  0.50000000000E+03  0.00000000000E+00 0. -1.
        -11    1    1    2    0    0  0.11623280818E+02 -0.23204075015E+01  0.46048565036E+03  0.46063816508E+03  0.00000000000E+00 0. -1.
         11    1    1    2    0    0  0.40614149745E+02 -0.21016303132E+02 -0.47325294043E+03  0.47545719028E+03  0.00000000000E+00 0. -1.
        -15    1    1    2    0    0 -0.90159219878E+01 -0.54042151813E+01  0.15683375251E+01  0.10775425867E+02  0.17770000000E+01 0.  1.
         15    1    1    2    0    0 -0.43221508576E+02  0.28740925815E+02  0.11198952552E+02  0.53129218774E+02  0.17770000000E+01 0. -1.
</event>
<event>
 6    1  0.1823098E-004  0.5000504E+03  0.7546771E-02  0.9399697E-01
        -11   -1    0    0    0    0  0.00000000000E+00  0.00000000000E+00  0.50000000000E+03  0.50000000000E+03  0.00000000000E+00 0.  1.
         11   -1    0    0    0    0 -0.00000000000E+00 -0.00000000000E+00 -0.50000000000E+03  0.50000000000E+03  0.00000000000E+00 0. -1.
        -11    1    1    2    0    0 -0.60769248441E+01 -0.16178459770E+02  0.49965081607E+03  0.49994960704E+03  0.00000000000E+00 0.  1.
         11    1    1    2    0    0  0.25906160472E+01  0.23225410932E+01 -0.40302013285E+02  0.40451919156E+02  0.00000000000E+00 0. -1.
        -15    1    1    2    0    0  0.21106513635E+01  0.98548188064E+01 -0.26954128273E+03  0.26973548733E+03  0.17770000000E+01 0.  1.
         15    1    1    2    0    0  0.13756574334E+01  0.40010998704E+01 -0.18980752006E+03  0.18986298647E+03  0.17770000000E+01 0. -1.
</event>
<event>
 6    1  0.1823098E-004  0.5003992E+03  0.7546771E-02  0.9398917E-01
        -11   -1    0    0    0    0  0.00000000000E+00  0.00000000000E+00  0.50000000000E+03  0.50000000000E+03  0.00000000000E+00 0. -1.
         11   -1    0    0    0    0 -0.00000000000E+00 -0.00000000000E+00 -0.50000000000E+03  0.50000000000E+03  0.00000000000E+00 0. -1.
        -11    1    1    2    0    0 -0.39816373946E+01  0.16908241818E+01  0.16988653047E+03  0.16994159455E+03  0.00000000000E+00 0. -1.
         11    1    1    2    0    0 -0.19598217124E+02 -0.36235385019E+00 -0.49921616946E+03  0.49960084594E+03  0.00000000000E+00 0. -1.
        -15    1    1    2    0    0  0.33310928606E+01 -0.29117413813E+01  0.13012042535E+03  0.13020774647E+03  0.17770000000E+01 0.  1.
         15    1    1    2    0    0  0.20248761658E+02  0.15832710497E+01  0.19920921364E+03  0.20024981304E+03  0.17770000000E+01 0. -1.
</event>
<event>
 6    1  0.1823098E-004  0.4671875E+03  0.7546771E-02  0.9476380E-01
        -11   -1    0    0    0    0  0.00000000000E+00  0.00000000000E+00  0.50000000000E+03  0.50000000000E+03  0.00000000000E+00 0.  1.
         11   -1    0    0    0    0 -0.00000000000E+00 -0.00000000000E+00 -0.50000000000E+03  0.50000000000E+03  0.00000000000E+00 0.  1.
        -11    1    1    2    0    0 -0.11422041008E+02  0.21490622965E+02  0.47884577027E+03  0.47946384806E+03  0.00000000000E+00 0.  1.
         11    1    1    2    0    0 -0.41325234878E+02 -0.79234332305E+01 -0.45486227191E+03  0.45680438071E+03  0.00000000000E+00 0.  1.
        -15    1    1    2    0    0  0.19418135470E+02  0.52724492353E+01 -0.43236853172E+01  0.20657073602E+02  0.17770000000E+01 0. -1.
         15    1    1    2    0    0  0.33329140416E+02 -0.18839638969E+02 -0.19659813038E+02  0.43074697620E+02  0.17770000000E+01 0.  1.
</event>
<event>
 6    1  0.1823098E-004  0.5034894E+03  0.7546771E-02  0.9392036E-01
        -11   -1    0    0    0    0  0.00000000000E+00  0.00000000000E+00  0.50000000000E+03  0.50000000000E+03  0.00000000000E+00 0. -1.
         11   -1    0    0    0    0 -0.00000000000E+00 -0.00000000000E+00 -0.50000000000E+03  0.50000000000E+03  0.00000000000E+00 0.  1.
        -11    1    1    2    0    0 -0.72921705565E+01 -0.11037062813E+02  0.45685856017E+03  0.45705003720E+03  0.00000000000E+00 0. -1.
         11    1    1    2    0    0 -0.52254889900E+01 -0.66782285981E+01 -0.49643821524E+03  0.49651063032E+03  0.00000000000E+00 0.  1.
        -15    1    1    2    0    0  0.78896628296E+01  0.17271526175E+02  0.28490248002E+02  0.34284170636E+02  0.17770000000E+01 0. -1.
         15    1    1    2    0    0  0.46279967169E+01  0.44376523637E+00  0.11089407073E+02  0.12155161842E+02  0.17770000000E+01 0.  1.
</event>
<event>
 6    1  0.1823098E-004  0.5034612E+03  0.7546771E-02  0.9392098E-01
        -11   -1    0    0    0    0  0.00000000000E+00  0.00000000000E+00  0.50000000000E+03  0.50000000000E+03  0.00000000000E+00 0. -1.
         11   -1    0    0    0    0 -0.00000000000E+00 -0.00000000000E+00 -0.50000000000E+03  0.50000000000E+03  0.00000000000E+00 0.  1.
        -11    1    1    2    0    0 -0.36387422415E+01 -0.71844463923E+01  0.49647351042E+03  0.49653882352E+03  0.00000000000E+00 0. -1.
         11    1    1    2    0    0  0.15741455342E+02 -0.11677566184E+02 -0.44855424800E+03  0.44898226287E+03  0.00000000000E+00 0.  1.
        -15    1    1    2    0    0 -0.37882651644E+01  0.46287409318E+01 -0.37011596994E+01  0.72548265100E+01  0.17770000000E+01 0.  1.
         15    1    1    2    0    0 -0.83144479362E+01  0.14233271645E+02 -0.44218102715E+02  0.47224087105E+02  0.17770000000E+01 0. -1.
</event>
<event>
 6    1  0.1823098E-004  0.5000207E+03  0.7546771E-02  0.9399763E-01
        -11   -1    0    0    0    0  0.00000000000E+00  0.00000000000E+00  0.50000000000E+03  0.50000000000E+03  0.00000000000E+00 0.  1.
         11   -1    0    0    0    0 -0.00000000000E+00 -0.00000000000E+00 -0.50000000000E+03  0.50000000000E+03  0.00000000000E+00 0. -1.
        -11    1    1    2    0    0 -0.80576573373E+01 -0.14542644482E+01  0.49991224474E+03  0.49997929274E+03  0.00000000000E+00 0.  1.
         11    1    1    2    0    0  0.17145432751E+01  0.18219425616E+01 -0.79245877601E+02  0.79285359620E+02  0.00000000000E+00 0. -1.
        -15    1    1    2    0    0  0.18978193072E+01  0.10879983477E+00 -0.10457248393E+03  0.10460485495E+03  0.17770000000E+01 0. -1.
         15    1    1    2    0    0  0.44452947549E+01 -0.47647794823E+00 -0.31609388321E+03  0.31613049269E+03  0.17770000000E+01 0. -1.
</event>
<event>
 6    1  0.1823098E-004  0.5006693E+03  0.7546771E-02  0.9398313E-01
        -11   -1    0    0    0    0  0.00000000000E+00  0.00000000000E+00  0.50000000000E+03  0.50000000000E+03  0.00000000000E+00 0. -1.
         11   -1    0    0    0    0 -0.00000000000E+00 -0.00000000000E+00 -0.50000000000E+03  0.50000000000E+03  0.00000000000E+00 0. -1.
        -11    1    1    2    0    0 -0.85127989272E+01 -0.46694637346E+01  0.49923624908E+03  0.49933065601E+03  0.00000000000E+00 0. -1.
         11    1    1    2    0    0  0.79575743881E+01  0.19736383932E+02 -0.28199128675E+03  0.28279309334E+03  0.00000000000E+00 0. -1.
        -15    1    1    2    0    0  0.19224483223E+01 -0.12074248942E+02 -0.14123035570E+03  0.14176972312E+03  0.17770000000E+01 0. -1.
         15    1    1    2    0    0 -0.13672237833E+01 -0.29926712548E+01 -0.76014606631E+02  0.76106527528E+02  0.17770000000E+01 0.  1.
</event>
<event>
 6    1  0.1823098E-004  0.4891793E+03  0.7546771E-02  0.9424353E-01
        -11   -1    0    0    0    0  0.00000000000E+00  0.00000000000E+00  0.50000000000E+03  0.50000000000E+03  0.00000000000E+00 0. -1.
         11   -1    0    0    0    0 -0.00000000000E+00 -0.00000000000E+00 -0.50000000000E+03  0.50000000000E+03  0.00000000000E+00 0.  1.
        -11    1    1    2    0    0  0.93037039546E+01 -0.53398230593E+01  0.48727783082E+03  0.48739589352E+03  0.00000000000E+00 0. -1.
         11    1    1    2    0    0 -0.17243972592E+01 -0.93502183893E+01 -0.49101749838E+03  0.49110954363E+03  0.00000000000E+00 0.  1.
        -15    1    1    2    0    0  0.33939309313E+01  0.31472688790E+01  0.21046720142E+01  0.53862270515E+01  0.17770000000E+01 0.  1.
         15    1    1    2    0    0 -0.10973237627E+02  0.11542772570E+02  0.16349955498E+01  0.16108335794E+02  0.17770000000E+01 0. -1.
</event>
<event>
 6    1  0.1823098E-004  0.5141238E+03  0.7546771E-02  0.9368750E-01
        -11   -1    0    0    0    0  0.00000000000E+00  0.00000000000E+00  0.50000000000E+03  0.50000000000E+03  0.00000000000E+00 0. -1.
         11   -1    0    0    0    0 -0.00000000000E+00 -0.00000000000E+00 -0.50000000000E+03  0.50000000000E+03  0.00000000000E+00 0.  1.
        -11    1    1    2    0    0 -0.63301166647E+01  0.13123963848E+02  0.40831964927E+03  0.40857954523E+03  0.00000000000E+00 0. -1.
         11    1    1    2    0    0 -0.16633366063E+02  0.84059232953E+02  0.61619554879E+02  0.10554427059E+03  0.00000000000E+00 0.  1.
        -15    1    1    2    0    0 -0.43971273873E+01 -0.76346198590E+02 -0.40705432153E+03  0.41417925488E+03  0.17770000000E+01 0.  1.
         15    1    1    2    0    0  0.27360610115E+02 -0.20836998211E+02 -0.62884882617E+02  0.71696929300E+02  0.17770000000E+01 0. -1.
</event>
<event>
 6    1  0.1823098E-004  0.5012732E+03  0.7546771E-02  0.9396965E-01
        -11   -1    0    0    0    0  0.00000000000E+00  0.00000000000E+00  0.50000000000E+03  0.50000000000E+03  0.00000000000E+00 0.  1.
         11   -1    0    0    0    0 -0.00000000000E+00 -0.00000000000E+00 -0.50000000000E+03  0.50000000000E+03  0.00000000000E+00 0. -1.
        -11    1    1    2    0    0 -0.63257893864E+01 -0.14567318212E+02  0.49847389583E+03  0.49872682623E+03  0.00000000000E+00 0.  1.
         11    1    1    2    0    0 -0.24437619176E+01  0.29950807357E+02 -0.23926598721E+03  0.24114567272E+03  0.00000000000E+00 0. -1.
        -15    1    1    2    0    0  0.32108471829E+01 -0.56955247114E+01 -0.35924871332E+02  0.36558209073E+02  0.17770000000E+01 0.  1.
         15    1    1    2    0    0  0.55587041211E+01 -0.96879644336E+01 -0.22328303729E+03  0.22356929198E+03  0.17770000000E+01 0. -1.
</event>
<event>
 6    1  0.1823098E-004  0.5015921E+03  0.7546771E-02  0.9396254E-01
        -11   -1    0    0    0    0  0.00000000000E+00  0.00000000000E+00  0.50000000000E+03  0.50000000000E+03  0.00000000000E+00 0. -1.
         11   -1    0    0    0    0 -0.00000000000E+00 -0.00000000000E+00 -0.50000000000E+03  0.50000000000E+03  0.00000000000E+00 0. -1.
        -11    1    1    2    0    0  0.62065799383E+01 -0.33437100812E+01  0.49835806713E+03  0.49840793042E+03  0.00000000000E+00 0. -1.
         11    1    1    2    0    0  0.58097323235E+01 -0.33670539380E+01 -0.46625488166E+03  0.46630323258E+03  0.00000000000E+00 0. -1.
        -15    1    1    2    0    0 -0.23330634842E+01  0.17591990348E+01 -0.10404837612E+02  0.10952458226E+02  0.17770000000E+01 0. -1.
         15    1    1    2    0    0 -0.96832487776E+01  0.49515649844E+01 -0.21698347860E+02  0.24336378768E+02  0.17770000000E+01 0.  1.
</event>
<event>
 6    1  0.1823098E-004  0.5105667E+03  0.7546771E-02  0.9376471E-01
        -11   -1    0    0    0    0  0.00000000000E+00  0.00000000000E+00  0.50000000000E+03  0.50000000000E+03  0.00000000000E+00 0.  1.
         11   -1    0    0    0    0 -0.00000000000E+00 -0.00000000000E+00 -0.50000000000E+03  0.50000000000E+03  0.00000000000E+00 0. -1.
        -11    1    1    2    0    0  0.26899709938E+02 -0.11544150577E+03  0.32830239792E+03  0.34904555595E+03  0.00000000000E+00 0.  1.
         11    1    1    2    0    0  0.33545005393E+02  0.10703899518E+03 -0.47640562358E+03  0.48943327641E+03  0.00000000000E+00 0. -1.
        -15    1    1    2    0    0 -0.20751358523E+02  0.58064628020E+01  0.30701801842E+02  0.37551195136E+02  0.17770000000E+01 0. -1.
         15    1    1    2    0    0 -0.39693356808E+02  0.25960477880E+01  0.11740142382E+03  0.12396997250E+03  0.17770000000E+01 0.  1.
</event>
<event>
 6    1  0.1823098E-004  0.5055640E+03  0.7546771E-02  0.9387445E-01
        -11   -1    0    0    0    0  0.00000000000E+00  0.00000000000E+00  0.50000000000E+03  0.50000000000E+03  0.00000000000E+00 0.  1.
         11   -1    0    0    0    0 -0.00000000000E+00 -0.00000000000E+00 -0.50000000000E+03  0.50000000000E+03  0.00000000000E+00 0. -1.
        -11    1    1    2    0    0 -0.61558641662E+01 -0.49192243703E+01  0.49437320132E+03  0.49443599749E+03  0.00000000000E+00 0.  1.
         11    1    1    2    0    0 -0.17787380037E+02  0.12083863102E+02 -0.44078855576E+03  0.44131277063E+03  0.00000000000E+00 0. -1.
        -15    1    1    2    0    0  0.16589593583E+02  0.78778557766E+01 -0.24919791844E+02  0.31006918283E+02  0.17770000000E+01 0.  1.
         15    1    1    2    0    0  0.73536506200E+01 -0.15042494509E+02 -0.28664853721E+02  0.33244313594E+02  0.17770000000E+01 0. -1.
</event>
<event>
 6    1  0.1823098E-004  0.5029295E+03  0.7546771E-02  0.9393278E-01
        -11   -1    0    0    0    0  0.00000000000E+00  0.00000000000E+00  0.50000000000E+03  0.50000000000E+03  0.00000000000E+00 0.  1.
         11   -1    0    0    0    0 -0.00000000000E+00 -0.00000000000E+00 -0.50000000000E+03  0.50000000000E+03  0.00000000000E+00 0. -1.
        -11    1    1    2    0    0 -0.11697073671E+02 -0.57718037059E+01  0.48389572715E+03  0.48407149266E+03  0.00000000000E+00 0.  1.
         11    1    1    2    0    0  0.10496699416E+02  0.15361829044E+02 -0.49672213126E+03  0.49707045997E+03  0.00000000000E+00 0. -1.
        -15    1    1    2    0    0  0.44776019732E+01 -0.84409227580E+01  0.10537353902E+02  0.14334980038E+02  0.17770000000E+01 0.  1.
         15    1    1    2    0    0 -0.32772277177E+01 -0.11491025803E+01  0.22890502073E+01  0.45230673337E+01  0.17770000000E+01 0. -1.
</event>
<event>
 6    1  0.1823098E-004  0.5004258E+03  0.7546771E-02  0.9398857E-01
        -11   -1    0    0    0    0  0.00000000000E+00  0.00000000000E+00  0.50000000000E+03  0.50000000000E+03  0.00000000000E+00 0. -1.
         11   -1    0    0    0    0 -0.00000000000E+00 -0.00000000000E+00 -0.50000000000E+03  0.50000000000E+03  0.00000000000E+00 0.  1.
        -11    1    1    2    0    0  0.80993715112E+01 -0.10276640771E+02  0.49940282382E+03  0.49957420831E+03  0.00000000000E+00 0. -1.
         11    1    1    2    0    0  0.56013667490E+00 -0.61393690676E+01 -0.27945261107E+03  0.27952060289E+03  0.00000000000E+00 0.  1.
        -15    1    1    2    0    0 -0.73037790092E+01  0.14360903737E+02 -0.20556250233E+03  0.20620058399E+03  0.17770000000E+01 0.  1.
         15    1    1    2    0    0 -0.13557291768E+01  0.20551061015E+01 -0.14387710425E+02  0.14704604822E+02  0.17770000000E+01 0.  1.
</event>
<event>
 6    1  0.1823098E-004  0.5024228E+03  0.7546771E-02  0.9394405E-01
        -11   -1    0    0    0    0  0.00000000000E+00  0.00000000000E+00  0.50000000000E+03  0.50000000000E+03  0.00000000000E+00 0.  1.
         11   -1    0    0    0    0 -0.00000000000E+00 -0.00000000000E+00 -0.50000000000E+03  0.50000000000E+03  0.00000000000E+00 0.  1.
        -11    1    1    2    0    0 -0.10303982181E+02  0.64317619891E+01  0.49742895498E+03  0.49757723508E+03  0.00000000000E+00 0.  1.
         11    1    1    2    0    0  0.87691990334E+01  0.11560074188E+02 -0.45675326008E+03  0.45698367013E+03  0.00000000000E+00 0.  1.
        -15    1    1    2    0    0  0.40963054786E+01 -0.87017834020E+01 -0.14508779368E+02  0.17497518701E+02  0.17770000000E+01 0. -1.
         15    1    1    2    0    0 -0.25615223306E+01 -0.92900527751E+01 -0.26166915530E+02  0.27941576093E+02  0.17770000000E+01 0.  1.
</event>
<event>
 6    1  0.1823098E-004  0.5040869E+03  0.7546771E-02  0.9390711E-01
        -11   -1    0    0    0    0  0.00000000000E+00  0.00000000000E+00  0.50000000000E+03  0.50000000000E+03  0.00000000000E+00 0. -1.
         11   -1    0    0    0    0 -0.00000000000E+00 -0.00000000000E+00 -0.50000000000E+03  0.50000000000E+03  0.00000000000E+00 0.  1.
        -11    1    1    2    0    0  0.49984911020E+02  0.87667915673E+02  0.24570631788E+03  0.26562332242E+03  0.00000000000E+00 0. -1.
         11    1    1    2    0    0 -0.60790922401E+02 -0.92257608378E+02 -0.48344888955E+03  0.49591312884E+03  0.00000000000E+00 0.  1.
        -15    1    1    2    0    0  0.32110671955E+01  0.53340372538E+01  0.18766747665E+03  0.18777913204E+03  0.17770000000E+01 0. -1.
         15    1    1    2    0    0  0.75949441858E+01 -0.74434454835E+00  0.50075095022E+02  0.50684416702E+02  0.17770000000E+01 0. -1.
</event>
<event>
 6    1  0.1823098E-004  0.5025774E+03  0.7546771E-02  0.9394061E-01
        -11   -1    0    0    0    0  0.00000000000E+00  0.00000000000E+00  0.50000000000E+03  0.50000000000E+03  0.00000000000E+00 0. -1.
         11   -1    0    0    0    0 -0.00000000000E+00 -0.00000000000E+00 -0.50000000000E+03  0.50000000000E+03  0.00000000000E+00 0.  1.
        -11    1    1    2    0    0  0.23738972678E+01 -0.77319020821E+01  0.49735679858E+03  0.49742255959E+03  0.00000000000E+00 0. -1.
         11    1    1    2    0    0 -0.35430662386E+02 -0.26986636203E+00 -0.25066630666E+03  0.25315805727E+03  0.00000000000E+00 0.  1.
        -15    1    1    2    0    0  0.15147289988E+02  0.31351116530E+01 -0.68043639919E+02  0.69802320746E+02  0.17770000000E+01 0. -1.
         15    1    1    2    0    0  0.17909475130E+02  0.48666567911E+01 -0.17864685199E+03  0.17961706240E+03  0.17770000000E+01 0.  1.
</event>
<event>
 6    1  0.1823098E-004  0.5027132E+03  0.7546771E-02  0.9393759E-01
        -11   -1    0    0    0    0  0.00000000000E+00  0.00000000000E+00  0.50000000000E+03  0.50000000000E+03  0.00000000000E+00 0. -1.
         11   -1    0    0    0    0 -0.00000000000E+00 -0.00000000000E+00 -0.50000000000E+03  0.50000000000E+03  0.00000000000E+00 0. -1.
        -11    1    1    2    0    0  0.57525336087E+01 -0.32702582816E+01  0.47792954603E+03  0.47797535209E+03  0.00000000000E+00 0. -1.
         11    1    1    2    0    0  0.58743657219E+01 -0.47871924869E+01 -0.49722903113E+03  0.49728677319E+03  0.00000000000E+00 0. -1.
        -15    1    1    2    0    0 -0.10604854951E+02  0.78506778528E+01  0.17591633963E+02  0.22061718105E+02  0.17770000000E+01 0.  1.
         15    1    1    2    0    0 -0.10220443797E+01  0.20677291576E+00  0.17078511350E+01  0.26761566195E+01  0.17770000000E+01 0. -1.
</event>
<event>
 6    1  0.1823098E-004  0.5002937E+03  0.7546771E-02  0.9399153E-01
        -11   -1    0    0    0    0  0.00000000000E+00  0.00000000000E+00  0.50000000000E+03  0.50000000000E+03  0.00000000000E+00 0.  1.
         11   -1    0    0    0    0 -0.00000000000E+00 -0.00000000000E+00 -0.50000000000E+03  0.50000000000E+03  0.00000000000E+00 0. -1.
        -11    1    1    2    0    0  0.67736755528E+01  0.16347549165E+02  0.24253361283E+03  0.24317828521E+03  0.00000000000E+00 0.  1.
         11    1    1    2    0    0 -0.70509574903E+01 -0.25209095089E+02 -0.49902019632E+03  0.49970628455E+03  0.00000000000E+00 0. -1.
        -15    1    1    2    0    0  0.66943892724E+01  0.68632893004E+01  0.19367397711E+03  0.19391927889E+03  0.17770000000E+01 0. -1.
         15    1    1    2    0    0 -0.64171073349E+01  0.19982566240E+01  0.62812606391E+02  0.63196151360E+02  0.17770000000E+01 0.  1.
</event>
<event>
 6    1  0.1823098E-004  0.5008102E+03  0.7546771E-02  0.9397999E-01
        -11   -1    0    0    0    0  0.00000000000E+00  0.00000000000E+00  0.50000000000E+03  0.50000000000E+03  0.00000000000E+00 0.  1.
         11   -1    0    0    0    0 -0.00000000000E+00 -0.00000000000E+00 -0.50000000000E+03  0.50000000000E+03  0.00000000000E+00 0. -1.
        -11    1    1    2    0    0 -0.30983293751E+01  0.16788949319E+01  0.22551498714E+03  0.22554251874E+03  0.00000000000E+00 0.  1.
         11    1    1    2    0    0 -0.27913998268E+02  0.12239886901E+02 -0.49825839757E+03  0.49918978042E+03  0.00000000000E+00 0. -1.
        -15    1    1    2    0    0  0.27168678873E+02 -0.10730436402E+02  0.25689121092E+03  0.25855276319E+03  0.17770000000E+01 0.  1.
         15    1    1    2    0    0  0.38436487700E+01 -0.31883454307E+01  0.15852199500E+02  0.16714937644E+02  0.17770000000E+01 0. -1.
</event>
<event>
 6    1  0.1823098E-004  0.5011452E+03  0.7546771E-02  0.9397251E-01
        -11   -1    0    0    0    0  0.00000000000E+00  0.00000000000E+00  0.50000000000E+03  0.50000000000E+03  0.00000000000E+00 0.  1.
         11   -1    0    0    0    0 -0.00000000000E+00 -0.00000000000E+00 -0.50000000000E+03  0.50000000000E+03  0.00000000000E+00 0. -1.
        -11    1    1    2    0    0 -0.31111043016E+01 -0.48745524271E+01  0.32085451768E+03  0.32090662466E+03  0.00000000000E+00 0.  1.
         11    1    1    2    0    0  0.25316328908E+01  0.18345686358E+02 -0.49851087505E+03  0.49885475433E+03  0.00000000000E+00 0. -1.
        -15    1    1    2    0    0 -0.17281683192E+01  0.32101873548E+01  0.12190165575E+03  0.12196910786E+03  0.17770000000E+01 0.  1.
         15    1    1    2    0    0  0.23076397300E+01 -0.16681321286E+02  0.55754701617E+02  0.58269513147E+02  0.17770000000E+01 0. -1.
</event>
<event>
 6    1  0.1823098E-004  0.5035073E+03  0.7546771E-02  0.9391996E-01
        -11   -1    0    0    0    0  0.00000000000E+00  0.00000000000E+00  0.50000000000E+03  0.50000000000E+03  0.00000000000E+00 0.  1.
         11   -1    0    0    0    0 -0.00000000000E+00 -0.00000000000E+00 -0.50000000000E+03  0.50000000000E+03  0.00000000000E+00 0.  1.
        -11    1    1    2    0    0 -0.17396187285E+01 -0.71147152486E+01  0.43346855991E+03  0.43353043478E+03  0.00000000000E+00 0.  1.
         11    1    1    2    0    0  0.21624438928E+02 -0.26599462994E+01 -0.49601445438E+03  0.49649272968E+03  0.00000000000E+00 0.  1.
        -15    1    1    2    0    0 -0.22121461621E+02  0.92018046246E+01  0.36054481328E+02  0.43325692440E+02  0.17770000000E+01 0. -1.
         15    1    1    2    0    0  0.22366414213E+01  0.57285692341E+00  0.26491413135E+02  0.26651143105E+02  0.17770000000E+01 0.  1.
</event>
<event>
 6    1  0.1823098E-004  0.5002766E+03  0.7546771E-02  0.9399191E-01
        -11   -1    0    0    0    0  0.00000000000E+00  0.00000000000E+00  0.50000000000E+03  0.50000000000E+03  0.00000000000E+00 0. -1.
         11   -1    0    0    0    0 -0.00000000000E+00 -0.00000000000E+00 -0.50000000000E+03  0.50000000000E+03  0.00000000000E+00 0. -1.
        -11    1    1    2    0    0  0.10604243260E+02 -0.16405619892E+02  0.49934142887E+03  0.49972338041E+03  0.00000000000E+00 0. -1.
         11    1    1    2    0    0 -0.12225415066E+02  0.22441724330E+01 -0.12316352457E+03  0.12378913873E+03  0.00000000000E+00 0. -1.
        -15    1    1    2    0    0  0.27653365545E+01  0.99708678897E+01 -0.27622923779E+03  0.27642867946E+03  0.17770000000E+01 0. -1.
         15    1    1    2    0    0 -0.11441647485E+01  0.41905795692E+01 -0.99948666516E+02  0.10005880140E+03  0.17770000000E+01 0. -1.
</event>
<event>
 6    1  0.1823098E-004  0.5016081E+03  0.7546771E-02  0.9396219E-01
        -11   -1    0    0    0    0  0.00000000000E+00  0.00000000000E+00  0.50000000000E+03  0.50000000000E+03  0.00000000000E+00 0.  1.
         11   -1    0    0    0    0 -0.00000000000E+00 -0.00000000000E+00 -0.50000000000E+03  0.50000000000E+03  0.00000000000E+00 0.  1.
        -11    1    1    2    0    0  0.52539513063E+01 -0.10237135394E+02  0.44171731864E+03  0.44186716616E+03  0.00000000000E+00 0.  1.
         11    1    1    2    0    0 -0.70764247401E+01  0.44118743518E+01 -0.49832210691E+03  0.49839187660E+03  0.00000000000E+00 0.  1.
        -15    1    1    2    0    0 -0.88436117246E+00  0.95876457322E+01  0.52181860599E+02  0.53092460387E+02  0.17770000000E+01 0. -1.
         15    1    1    2    0    0  0.27068346063E+01 -0.37623846896E+01  0.44229276767E+01  0.66484968505E+01  0.17770000000E+01 0.  1.
</event>
<event>
 6    1  0.1823098E-004  0.5007915E+03  0.7546771E-02  0.9398040E-01
        -11   -1    0    0    0    0  0.00000000000E+00  0.00000000000E+00  0.50000000000E+03  0.50000000000E+03  0.00000000000E+00 0. -1.
         11   -1    0    0    0    0 -0.00000000000E+00 -0.00000000000E+00 -0.50000000000E+03  0.50000000000E+03  0.00000000000E+00 0. -1.
        -11    1    1    2    0    0 -0.17754811515E+02 -0.15659874206E+02  0.49864682504E+03  0.49920849463E+03  0.00000000000E+00 0. -1.
         11    1    1    2    0    0  0.15520859333E+00  0.12539118037E+02 -0.31934287228E+03  0.31958899175E+03  0.00000000000E+00 0. -1.
        -15    1    1    2    0    0  0.10874595385E+02 -0.53960183057E+01 -0.13491795672E+03  0.13547467148E+03  0.17770000000E+01 0. -1.
         15    1    1    2    0    0  0.67250075367E+01  0.85167744742E+01 -0.44385996042E+02  0.45727842147E+02  0.17770000000E+01 0.  1.
</event>
<event>
 6    1  0.1823098E-004  0.5008115E+03  0.7546771E-02  0.9397996E-01
        -11   -1    0    0    0    0  0.00000000000E+00  0.00000000000E+00  0.50000000000E+03  0.50000000000E+03  0.00000000000E+00 0. -1.
         11   -1    0    0    0    0 -0.00000000000E+00 -0.00000000000E+00 -0.50000000000E+03  0.50000000000E+03  0.00000000000E+00 0. -1.
        -11    1    1    2    0    0 -0.73050239931E+01 -0.61357285387E+01  0.39821047145E+03  0.39832472948E+03  0.00000000000E+00 0. -1.
         11    1    1    2    0    0  0.18200032020E+02 -0.60936272869E+01 -0.49881942376E+03  0.49918853249E+03  0.00000000000E+00 0. -1.
        -15    1    1    2    0    0 -0.83832144873E+01  0.31594499191E+01  0.63877897380E+02  0.64527543822E+02  0.17770000000E+01 0. -1.
         15    1    1    2    0    0 -0.25117935398E+01  0.90699059065E+01  0.36731054922E+02  0.37959194204E+02  0.17770000000E+01 0.  1.
</event>
<event>
 6    1  0.2295245E-004  0.5000469E+03  0.7546771E-02  0.9399705E-01
        -11   -1    0    0    0    0  0.00000000000E+00  0.00000000000E+00  0.50000000000E+03  0.50000000000E+03  0.00000000000E+00 0.  1.
         11   -1    0    0    0    0 -0.00000000000E+00 -0.00000000000E+00 -0.50000000000E+03  0.50000000000E+03  0.00000000000E+00 0.  1.
        -11    1    1    2    0    0  0.13665975293E+01  0.46479991884E+01  0.19286103956E+03  0.19292188073E+03  0.00000000000E+00 0.  1.
         11    1    1    2    0    0  0.16632750585E+01 -0.79132721511E+01 -0.49988767465E+03  0.49995307142E+03  0.00000000000E+00 0.  1.
        -15    1    1    2    0    0  0.12780072027E+01  0.97414790086E+00  0.68471188349E+02  0.68513090934E+02  0.17770000000E+01 0. -1.
         15    1    1    2    0    0 -0.43078797904E+01  0.22911250618E+01  0.23855544674E+03  0.23861195691E+03  0.17770000000E+01 0.  1.
</event>
<event>
 6    1  0.1823098E-004  0.5004997E+03  0.7546771E-02  0.9398692E-01
        -11   -1    0    0    0    0  0.00000000000E+00  0.00000000000E+00  0.50000000000E+03  0.50000000000E+03  0.00000000000E+00 0. -1.
         11   -1    0    0    0    0 -0.00000000000E+00 -0.00000000000E+00 -0.50000000000E+03  0.50000000000E+03  0.00000000000E+00 0.  1.
        -11    1    1    2    0    0  0.30748571034E+00 -0.67453034405E+01  0.49945461952E+03  0.49950026088E+03  0.00000000000E+00 0. -1.
         11    1    1    2    0    0  0.55114466119E+00 -0.64424042549E+01 -0.40171737598E+03  0.40176940960E+03  0.00000000000E+00 0.  1.
        -15    1    1    2    0    0  0.34544240461E+00  0.74637933872E+01 -0.62018571652E+02  0.62492307534E+02  0.17770000000E+01 0.  1.
         15    1    1    2    0    0 -0.12040727761E+01  0.57239143082E+01 -0.35718671890E+02  0.36238021977E+02  0.17770000000E+01 0. -1.
</event>
<event>
 6    1  0.1823098E-004  0.5009772E+03  0.7546771E-02  0.9397626E-01
        -11   -1    0    0    0    0  0.00000000000E+00  0.00000000000E+00  0.50000000000E+03  0.50000000000E+03  0.00000000000E+00 0. -1.
         11   -1    0    0    0    0 -0.00000000000E+00 -0.00000000000E+00 -0.50000000000E+03  0.50000000000E+03  0.00000000000E+00 0.  1.
        -11    1    1    2    0    0 -0.63336433510E+01  0.33518183324E+01  0.49897138158E+03  0.49902283451E+03  0.00000000000E+00 0. -1.
         11    1    1    2    0    0 -0.53340796837E+01 -0.24926733369E+01 -0.94897842761E+01  0.11167892910E+02  0.00000000000E+00 0.  1.
        -15    1    1    2    0    0  0.70079508413E+01  0.49802383642E+01 -0.35505334977E+03  0.35516186882E+03  0.17770000000E+01 0.  1.
         15    1    1    2    0    0  0.46597721935E+01 -0.58393833598E+01 -0.13442824753E+03  0.13464740376E+03  0.17770000000E+01 0. -1.
</event>
<event>
 6    1  0.1823098E-004  0.5001799E+03  0.7546771E-02  0.9399407E-01
        -11   -1    0    0    0    0  0.00000000000E+00  0.00000000000E+00  0.50000000000E+03  0.50000000000E+03  0.00000000000E+00 0.  1.
         11   -1    0    0    0    0 -0.00000000000E+00 -0.00000000000E+00 -0.50000000000E+03  0.50000000000E+03  0.00000000000E+00 0. -1.
        -11    1    1    2    0    0 -0.65693549933E+01 -0.52643648300E+01  0.49974921016E+03  0.49982011066E+03  0.00000000000E+00 0.  1.
         11    1    1    2    0    0  0.14749443275E+01  0.93049112802E+01 -0.15562929574E+03  0.15591418963E+03  0.00000000000E+00 0. -1.
        -15    1    1    2    0    0  0.53036558611E+01 -0.27509466526E-02 -0.19904349341E+03  0.19912207003E+03  0.17770000000E+01 0. -1.
         15    1    1    2    0    0 -0.20924519530E+00 -0.40377955035E+01 -0.14507642101E+03  0.14514362968E+03  0.17770000000E+01 0.  1.
</event>
<event>
 6    1  0.1823098E-004  0.5187873E+03  0.7546771E-02  0.9358726E-01
        -11   -1    0    0    0    0  0.00000000000E+00  0.00000000000E+00  0.50000000000E+03  0.50000000000E+03  0.00000000000E+00 0.  1.
         11   -1    0    0    0    0 -0.00000000000E+00 -0.00000000000E+00 -0.50000000000E+03  0.50000000000E+03  0.00000000000E+00 0.  1.
        -11    1    1    2    0    0  0.12510150660E+02 -0.36635457776E+01  0.30000207345E+03  0.30028514701E+03  0.00000000000E+00 0.  1.
         11    1    1    2    0    0  0.51862935796E+02  0.23825139876E+02 -0.47781614303E+03  0.48121270550E+03  0.00000000000E+00 0.  1.
        -15    1    1    2    0    0 -0.82352635280E+02 -0.46558060399E+02  0.13996508300E+03  0.16894671264E+03  0.17770000000E+01 0.  1.
         15    1    1    2    0    0  0.17979548824E+02  0.26396466300E+02  0.37848986576E+02  0.49555434847E+02  0.17770000000E+01 0. -1.
</event>
<event>
 6    1  0.1823098E-004  0.5255401E+03  0.7546771E-02  0.9344408E-01
        -11   -1    0    0    0    0  0.00000000000E+00  0.00000000000E+00  0.50000000000E+03  0.50000000000E+03  0.00000000000E+00 0.  1.
         11   -1    0    0    0    0 -0.00000000000E+00 -0.00000000000E+00 -0.50000000000E+03  0.50000000000E+03  0.00000000000E+00 0. -1.
        -11    1    1    2    0    0 -0.19350399796E+02 -0.11584739026E+02  0.37469663109E+03  0.37537475875E+03  0.00000000000E+00 0.  1.
         11    1    1    2    0    0  0.32669318001E+02 -0.57004683846E+02 -0.46988866229E+03  0.47445987529E+03  0.00000000000E+00 0. -1.
        -15    1    1    2    0    0  0.99122368240E+01  0.12890527501E+02  0.87832678828E+02  0.89342908713E+02  0.17770000000E+01 0. -1.
         15    1    1    2    0    0 -0.23231155029E+02  0.55698895370E+02  0.73593523631E+01  0.60822457248E+02  0.17770000000E+01 0.  1.
</event>
<event>
 6    1  0.1823098E-004  0.5000316E+03  0.7546771E-02  0.9399739E-01
        -11   -1    0    0    0    0  0.00000000000E+00  0.00000000000E+00  0.50000000000E+03  0.50000000000E+03  0.00000000000E+00 0.  1.
         11   -1    0    0    0    0 -0.00000000000E+00 -0.00000000000E+00 -0.50000000000E+03  0.50000000000E+03  0.00000000000E+00 0. -1.
        -11    1    1    2    0    0 -0.76418228016E+01  0.32968232442E+01  0.49989915553E+03  0.49996843120E+03  0.00000000000E+00 0.  1.
         11    1    1    2    0    0 -0.30629780187E-01 -0.21347259424E+01 -0.54133022710E+02  0.54175106283E+02  0.00000000000E+00 0. -1.
        -15    1    1    2    0    0  0.55378465419E+01 -0.17892757980E+01 -0.32301424994E+03  0.32307155963E+03  0.17770000000E+01 0.  1.
         15    1    1    2    0    0  0.21346060399E+01  0.62717849612E+00 -0.12275188288E+03  0.12278490288E+03  0.17770000000E+01 0. -1.
</event>
<event>
 6    1  0.1823098E-004  0.5052838E+03  0.7546771E-02  0.9388064E-01
        -11   -1    0    0    0    0  0.00000000000E+00  0.00000000000E+00  0.50000000000E+03  0.50000000000E+03  0.00000000000E+00 0. -1.
         11   -1    0    0    0    0 -0.00000000000E+00 -0.00000000000E+00 -0.50000000000E+03  0.50000000000E+03  0.00000000000E+00 0. -1.
        -11    1    1    2    0    0  0.24343752140E+02  0.22231731053E+02  0.25769955788E+03  0.25979978881E+03  0.00000000000E+00 0. -1.
         11    1    1    2    0    0  0.60651846726E+00  0.22273986791E+02 -0.49421419315E+03  0.49471624904E+03  0.00000000000E+00 0. -1.
        -15    1    1    2    0    0 -0.28478292294E+00 -0.14712060060E+02  0.14962904989E+03  0.15036135179E+03  0.17770000000E+01 0. -1.
         15    1    1    2    0    0 -0.24665487684E+02 -0.29793657784E+02  0.86885585374E+02  0.95122610360E+02  0.17770000000E+01 0.  1.
</event>
<event>
 6    1  0.1823098E-004  0.5042580E+03  0.7546771E-02  0.9390332E-01
        -11   -1    0    0    0    0  0.00000000000E+00  0.00000000000E+00  0.50000000000E+03  0.50000000000E+03  0.00000000000E+00 0. -1.
         11   -1    0    0    0    0 -0.00000000000E+00 -0.00000000000E+00 -0.50000000000E+03  0.50000000000E+03  0.00000000000E+00 0. -1.
        -11    1    1    2    0    0  0.72306999290E+01 -0.12891738269E+01  0.49568758482E+03  0.49574199614E+03  0.00000000000E+00 0. -1.
         11    1    1    2    0    0  0.13914970337E+02  0.26484950312E+02 -0.41671789595E+03  0.41779047835E+03  0.00000000000E+00 0. -1.
        -15    1    1    2    0    0 -0.15737296550E+02 -0.23632921603E+02 -0.71463963038E+02  0.76918354300E+02  0.17770000000E+01 0.  1.
         15    1    1    2    0    0 -0.54083737155E+01 -0.15628548818E+01 -0.75057258281E+01  0.95491712119E+01  0.17770000000E+01 0. -1.
</event>
<event>
 6    1  0.1823098E-004  0.5004276E+03  0.7546771E-02  0.9398853E-01
        -11   -1    0    0    0    0  0.00000000000E+00  0.00000000000E+00  0.50000000000E+03  0.50000000000E+03  0.00000000000E+00 0. -1.
         11   -1    0    0    0    0 -0.00000000000E+00 -0.00000000000E+00 -0.50000000000E+03  0.50000000000E+03  0.00000000000E+00 0.  1.
        -11    1    1    2    0    0 -0.14568694626E+01  0.41095207220E+01  0.21669058063E+03  0.21673444204E+03  0.00000000000E+00 0. -1.
         11    1    1    2    0    0 -0.10956238287E+02 -0.10204144514E+02 -0.49934796651E+03  0.49957237251E+03  0.00000000000E+00 0.  1.
        -15    1    1    2    0    0  0.11401994675E+02 -0.35711020457E+01  0.21256556619E+03  0.21290851536E+03  0.17770000000E+01 0. -1.
         15    1    1    2    0    0  0.10111130737E+01  0.96657258381E+01  0.70091819679E+02  0.70784670096E+02  0.17770000000E+01 0.  1.
</event>
<event>
 6    1  0.1823098E-004  0.5053557E+03  0.7546771E-02  0.9387905E-01
        -11   -1    0    0    0    0  0.00000000000E+00  0.00000000000E+00  0.50000000000E+03  0.50000000000E+03  0.00000000000E+00 0. -1.
         11   -1    0    0    0    0 -0.00000000000E+00 -0.00000000000E+00 -0.50000000000E+03  0.50000000000E+03  0.00000000000E+00 0.  1.
        -11    1    1    2    0    0 -0.65666416192E+01  0.14781175418E+01  0.49459848149E+03  0.49464427977E+03  0.00000000000E+00 0. -1.
         11    1    1    2    0    0 -0.26068024725E+00 -0.24944335078E+02 -0.39745211606E+03  0.39823419286E+03  0.00000000000E+00 0.  1.
        -15    1    1    2    0    0 -0.57581558789E+00 -0.96904495702E+01 -0.12724901173E+02  0.16103329324E+02  0.17770000000E+01 0.  1.
         15    1    1    2    0    0  0.74031374544E+01  0.33156667106E+02 -0.84421464261E+02  0.91018198042E+02  0.17770000000E+01 0. -1.
</event>
<event>
 6    1  0.1823098E-004  0.5058489E+03  0.7546771E-02  0.9386817E-01
        -11   -1    0    0    0    0  0.00000000000E+00  0.00000000000E+00  0.50000000000E+03  0.50000000000E+03  0.00000000000E+00 0.  1.
         11   -1    0    0    0    0 -0.00000000000E+00 -0.00000000000E+00 -0.50000000000E+03  0.50000000000E+03  0.00000000000E+00 0. -1.
        -11    1    1    2    0    0 -0.52821719430E+01  0.15582947869E+02  0.49387705511E+03  0.49415106513E+03  0.00000000000E+00 0.  1.
         11    1    1    2    0    0 -0.20219575964E+02  0.37368669599E+02 -0.19689635452E+03  0.20142845664E+03  0.00000000000E+00 0. -1.
        -15    1    1    2    0    0  0.32353883195E+02 -0.46735604987E+02 -0.23854140036E+03  0.24522672763E+03  0.17770000000E+01 0. -1.
         15    1    1    2    0    0 -0.68521352879E+01 -0.62160124805E+01 -0.58439300230E+02  0.59193750595E+02  0.17770000000E+01 0.  1.
</event>
<event>
 6    1  0.1823098E-004  0.4920727E+03  0.7546771E-02  0.9417724E-01
        -11   -1    0    0    0    0  0.00000000000E+00  0.00000000000E+00  0.50000000000E+03  0.50000000000E+03  0.00000000000E+00 0.  1.
         11   -1    0    0    0    0 -0.00000000000E+00 -0.00000000000E+00 -0.50000000000E+03  0.50000000000E+03  0.00000000000E+00 0. -1.
        -11    1    1    2    0    0 -0.69236718817E+01  0.18724897825E+00  0.48955551860E+03  0.48960451191E+03  0.00000000000E+00 0.  1.
         11    1    1    2    0    0  0.23210257978E+01  0.12554585545E+02 -0.49448173390E+03  0.49464653030E+03  0.00000000000E+00 0. -1.
        -15    1    1    2    0    0  0.17222375769E+01 -0.10185313665E+02  0.47394844601E+01  0.11503354236E+02  0.17770000000E+01 0. -1.
         15    1    1    2    0    0  0.28804085070E+01 -0.25565208583E+01  0.18673084340E+00  0.42456035465E+01  0.17770000000E+01 0.  1.
</event>
<event>
 6    1  0.1823098E-004  0.5046500E+03  0.7546771E-02  0.9389465E-01
        -11   -1    0    0    0    0  0.00000000000E+00  0.00000000000E+00  0.50000000000E+03  0.50000000000E+03  0.00000000000E+00 0. -1.
         11   -1    0    0    0    0 -0.00000000000E+00 -0.00000000000E+00 -0.50000000000E+03  0.50000000000E+03  0.00000000000E+00 0. -1.
        -11    1    1    2    0    0 -0.24228667196E+02  0.18910290657E+02  0.49439558926E+03  0.49535000362E+03  0.00000000000E+00 0. -1.
         11    1    1    2    0    0  0.99838341743E+01 -0.48125377859E+02 -0.23182515478E+03  0.23697812416E+03  0.00000000000E+00 0. -1.
        -15    1    1    2    0    0  0.12647991204E+02  0.14551644153E+01 -0.21900435217E+02  0.25394408374E+02  0.17770000000E+01 0.  1.
         15    1    1    2    0    0  0.15968418173E+01  0.27759922786E+02 -0.24066999926E+03  0.24227746385E+03  0.17770000000E+01 0. -1.
</event>
<event>
 6    1  0.1823098E-004  0.5023057E+03  0.7546771E-02  0.9394665E-01
        -11   -1    0    0    0    0  0.00000000000E+00  0.00000000000E+00  0.50000000000E+03  0.50000000000E+03  0.00000000000E+00 0.  1.
         11   -1    0    0    0    0 -0.00000000000E+00 -0.00000000000E+00 -0.50000000000E+03  0.50000000000E+03  0.00000000000E+00 0. -1.
        -11    1    1    2    0    0  0.84997323707E+01  0.61999073497E+01  0.46935848628E+03  0.46947638167E+03  0.00000000000E+00 0.  1.
         11    1    1    2    0    0 -0.15015528638E+02 -0.12206136152E+02 -0.49731797676E+03  0.49769430966E+03  0.00000000000E+00 0. -1.
        -15    1    1    2    0    0  0.41048575015E+01  0.57883573391E+00  0.34040235157E+00  0.45231082980E+01  0.17770000000E+01 0. -1.
         15    1    1    2    0    0  0.24109387660E+01  0.54273930683E+01  0.27619088126E+02  0.28306200366E+02  0.17770000000E+01 0.  1.
</event>
<event>
 6    1  0.1823098E-004  0.5002873E+03  0.7546771E-02  0.9399167E-01
        -11   -1    0    0    0    0  0.00000000000E+00  0.00000000000E+00  0.50000000000E+03  0.50000000000E+03  0.00000000000E+00 0. -1.
         11   -1    0    0    0    0 -0.00000000000E+00 -0.00000000000E+00 -0.50000000000E+03  0.50000000000E+03  0.00000000000E+00 0.  1.
        -11    1    1    2    0    0 -0.19221149306E+02  0.17421907804E+02  0.49903886401E+03  0.49971268070E+03  0.00000000000E+00 0. -1.
         11    1    1    2    0    0  0.12424962090E+02 -0.15064170611E+02 -0.19098382549E+03  0.19197950546E+03  0.00000000000E+00 0.  1.
        -15    1    1    2    0    0 -0.21725689276E+01  0.60017219487E+00 -0.68446691333E+02  0.68506843059E+02  0.17770000000E+01 0.  1.
         15    1    1    2    0    0  0.89687561437E+01 -0.29579093879E+01 -0.23960834720E+03  0.23980097078E+03  0.17770000000E+01 0.  1.
</event>
<event>
 6    1  0.1823098E-004  0.5011863E+03  0.7546771E-02  0.9397159E-01
        -11   -1    0    0    0    0  0.00000000000E+00  0.00000000000E+00  0.50000000000E+03  0.50000000000E+03  0.00000000000E+00 0. -1.
         11   -1    0    0    0    0 -0.00000000000E+00 -0.00000000000E+00 -0.50000000000E+03  0.50000000000E+03  0.00000000000E+00 0.  1.
        -11    1    1    2    0    0 -0.38512338921E+01  0.89989009315E+01  0.36772580828E+03  0.36785606193E+03  0.00000000000E+00 0. -1.
         11    1    1    2    0    0  0.17025884261E+02  0.42282969519E+01 -0.49850513394E+03  0.49881372053E+03  0.00000000000E+00 0.  1.
        -15    1    1    2    0    0 -0.44776567507E+01 -0.95745081290E+01  0.26146967836E+02  0.28258490262E+02  0.17770000000E+01 0. -1.
         15    1    1    2    0    0 -0.86969936186E+01 -0.36526897544E+01  0.10463235782E+03  0.10507172728E+03  0.17770000000E+01 0.  1.
</event>
<event>
 6    1  0.1823098E-004  0.4829385E+03  0.7546771E-02  0.9438817E-01
        -11   -1    0    0    0    0  0.00000000000E+00  0.00000000000E+00  0.50000000000E+03  0.50000000000E+03  0.00000000000E+00 0.  1.
         11   -1    0    0    0    0 -0.00000000000E+00 -0.00000000000E+00 -0.50000000000E+03  0.50000000000E+03  0.00000000000E+00 0. -1.
        -11    1    1    2    0    0  0.18956814034E+01  0.12555740946E+02  0.47903898207E+03  0.47920724805E+03  0.00000000000E+00 0.  1.
         11    1    1    2    0    0  0.18561256661E+02  0.97887532159E+01 -0.48672312761E+03  0.48717526917E+03  0.00000000000E+00 0. -1.
        -15    1    1    2    0    0 -0.13231325605E+02 -0.17901793880E+02  0.46204617603E+00  0.22336369827E+02  0.17770000000E+01 0.  1.
         15    1    1    2    0    0 -0.72256124599E+01 -0.44427002816E+01  0.72220993650E+01  0.11281112953E+02  0.17770000000E+01 0. -1.
</event>
<event>
 6    1  0.1823098E-004  0.4904076E+03  0.7546771E-02  0.9421533E-01
        -11   -1    0    0    0    0  0.00000000000E+00  0.00000000000E+00  0.50000000000E+03  0.50000000000E+03  0.00000000000E+00 0. -1.
         11   -1    0    0    0    0 -0.00000000000E+00 -0.00000000000E+00 -0.50000000000E+03  0.50000000000E+03  0.00000000000E+00 0.  1.
        -11    1    1    2    0    0 -0.99585746382E+01  0.49646554718E+01  0.49330600596E+03  0.49343149122E+03  0.00000000000E+00 0. -1.
         11    1    1    2    0    0  0.11068810278E+02  0.87290384058E+01 -0.48729441288E+03  0.48749826615E+03  0.00000000000E+00 0.  1.
        -15    1    1    2    0    0 -0.29972653437E+01  0.20555928086E+00  0.45997367619E+00  0.35206759211E+01  0.17770000000E+01 0. -1.
         15    1    1    2    0    0  0.18870297037E+01 -0.13899253159E+02 -0.64715667577E+01  0.15549566707E+02  0.17770000000E+01 0.  1.
</event>
<event>
 6    1  0.1823098E-004  0.5007009E+03  0.7546771E-02  0.9398243E-01
        -11   -1    0    0    0    0  0.00000000000E+00  0.00000000000E+00  0.50000000000E+03  0.50000000000E+03  0.00000000000E+00 0.  1.
         11   -1    0    0    0    0 -0.00000000000E+00 -0.00000000000E+00 -0.50000000000E+03  0.50000000000E+03  0.00000000000E+00 0.  1.
        -11    1    1    2    0    0  0.59791906176E+01  0.90475564521E+00  0.30444176246E+03  0.30450181614E+03  0.00000000000E+00 0.  1.
         11    1    1    2    0    0  0.10760897398E+02 -0.15648605343E+01 -0.49918071131E+03  0.49929913703E+03  0.00000000000E+00 0.  1.
        -15    1    1    2    0    0 -0.13338227918E+02  0.11939305181E+01  0.18751898103E+03  0.18800494613E+03  0.17770000000E+01 0.  1.
         15    1    1    2    0    0 -0.34018600976E+01 -0.53382562899E+00  0.72199678096E+01  0.81941006887E+01  0.17770000000E+01 0. -1.
</event>
<event>
 6    1  0.1823098E-004  0.5024378E+03  0.7546771E-02  0.9394371E-01
        -11   -1    0    0    0    0  0.00000000000E+00  0.00000000000E+00  0.50000000000E+03  0.50000000000E+03  0.00000000000E+00 0.  1.
         11   -1    0    0    0    0 -0.00000000000E+00 -0.00000000000E+00 -0.50000000000E+03  0.50000000000E+03  0.00000000000E+00 0.  1.
        -11    1    1    2    0    0  0.20105891396E+01  0.88843180549E+01  0.49747880026E+03  0.49756218735E+03  0.00000000000E+00 0.  1.
         11    1    1    2    0    0 -0.13352719340E+02 -0.75619862391E+01 -0.42144098156E+03  0.42172026236E+03  0.00000000000E+00 0.  1.
        -15    1    1    2    0    0 -0.48096513279E+01 -0.37230976849E+01 -0.58186425047E+01  0.86028211573E+01  0.17770000000E+01 0. -1.
         15    1    1    2    0    0  0.16151781529E+02  0.24007658691E+01 -0.70219176194E+02  0.72114729132E+02  0.17770000000E+01 0.  1.
</event>
<event>
 6    1  0.1823098E-004  0.5000970E+03  0.7546771E-02  0.9399593E-01
        -11   -1    0    0    0    0  0.00000000000E+00  0.00000000000E+00  0.50000000000E+03  0.50000000000E+03  0.00000000000E+00 0. -1.
         11   -1    0    0    0    0 -0.00000000000E+00 -0.00000000000E+00 -0.50000000000E+03  0.50000000000E+03  0.00000000000E+00 0.  1.
        -11    1    1    2    0    0  0.38256767425E+01  0.13288237029E+02  0.49971168736E+03  0.49990297411E+03  0.00000000000E+00 0. -1.
         11    1    1    2    0    0 -0.13896102232E+01  0.79673551503E+00 -0.10438994667E+02  0.10561174826E+02  0.00000000000E+00 0.  1.
        -15    1    1    2    0    0  0.54477380625E+00 -0.28669822192E+01 -0.56047457431E+02  0.56151505581E+02  0.17770000000E+01 0. -1.
         15    1    1    2    0    0 -0.29808403256E+01 -0.11217990325E+02 -0.43322523526E+03  0.43338434548E+03  0.17770000000E+01 0.  1.
</event>
<event>
 6    1  0.1823098E-004  0.5004688E+03  0.7546771E-02  0.9398761E-01
        -11   -1    0    0    0    0  0.00000000000E+00  0.00000000000E+00  0.50000000000E+03  0.50000000000E+03  0.00000000000E+00 0. -1.
         11   -1    0    0    0    0 -0.00000000000E+00 -0.00000000000E+00 -0.50000000000E+03  0.50000000000E+03  0.00000000000E+00 0. -1.
        -11    1    1    2    0    0  0.24699459036E+01 -0.74935848715E+01  0.27939348778E+03  0.27950487555E+03  0.00000000000E+00 0. -1.
         11    1    1    2    0    0  0.93504959805E+01 -0.85318374348E+01 -0.49937076374E+03  0.49953116389E+03  0.00000000000E+00 0. -1.
        -15    1    1    2    0    0 -0.24904129292E+01  0.74824722286E+01  0.85137355901E+02  0.85520270381E+02  0.17770000000E+01 0.  1.
         15    1    1    2    0    0 -0.93300289549E+01  0.85429500777E+01  0.13483992006E+03  0.13544369017E+03  0.17770000000E+01 0. -1.
</event>
<event>
 6    1  0.1823098E-004  0.5004924E+03  0.7546771E-02  0.9398709E-01
        -11   -1    0    0    0    0  0.00000000000E+00  0.00000000000E+00  0.50000000000E+03  0.50000000000E+03  0.00000000000E+00 0.  1.
         11   -1    0    0    0    0 -0.00000000000E+00 -0.00000000000E+00 -0.50000000000E+03  0.50000000000E+03  0.00000000000E+00 0. -1.
        -11    1    1    2    0    0 -0.10118301761E+02 -0.70394858431E+01  0.49935550446E+03  0.49950761178E+03  0.00000000000E+00 0.  1.
         11    1    1    2    0    0  0.89679880257E+01  0.98003228460E+00 -0.37622087523E+02  0.38688586716E+02  0.00000000000E+00 0. -1.
        -15    1    1    2    0    0 -0.12907547296E+01  0.23464944387E+01 -0.15800996698E+03  0.15804265082E+03  0.17770000000E+01 0. -1.
         15    1    1    2    0    0  0.24410684649E+01  0.37129591198E+01 -0.30372344996E+03  0.30376115069E+03  0.17770000000E+01 0. -1.
</event>
<event>
 6    1  0.1823098E-004  0.4684068E+03  0.7546771E-02  0.9473416E-01
        -11   -1    0    0    0    0  0.00000000000E+00  0.00000000000E+00  0.50000000000E+03  0.50000000000E+03  0.00000000000E+00 0.  1.
         11   -1    0    0    0    0 -0.00000000000E+00 -0.00000000000E+00 -0.50000000000E+03  0.50000000000E+03  0.00000000000E+00 0.  1.
        -11    1    1    2    0    0  0.44454894770E+01 -0.12431930077E+02  0.47920063780E+03  0.47938248459E+03  0.00000000000E+00 0.  1.
         11    1    1    2    0    0 -0.25339615801E+02 -0.28656027556E+02 -0.45722443732E+03  0.45882180650E+03  0.00000000000E+00 0.  1.
        -15    1    1    2    0    0  0.75973547095E+01  0.41193133745E+02 -0.84962599231E+01  0.42777777268E+02  0.17770000000E+01 0.  1.
         15    1    1    2    0    0  0.13296771615E+02 -0.10517611248E+00 -0.13479940559E+02  0.19017931640E+02  0.17770000000E+01 0. -1.
</event>
<event>
 6    1  0.1823098E-004  0.5107001E+03  0.7546771E-02  0.9376181E-01
        -11   -1    0    0    0    0  0.00000000000E+00  0.00000000000E+00  0.50000000000E+03  0.50000000000E+03  0.00000000000E+00 0. -1.
         11   -1    0    0    0    0 -0.00000000000E+00 -0.00000000000E+00 -0.50000000000E+03  0.50000000000E+03  0.00000000000E+00 0. -1.
        -11    1    1    2    0    0  0.34516543352E+00  0.15405656548E+02  0.48905717040E+03  0.48929987667E+03  0.00000000000E+00 0. -1.
         11    1    1    2    0    0 -0.61576707933E+01  0.19592934238E+02 -0.44178244794E+03  0.44225957456E+03  0.00000000000E+00 0. -1.
        -15    1    1    2    0    0  0.73871350876E+01 -0.28137466003E+02 -0.52117505680E+02  0.59713305764E+02  0.17770000000E+01 0.  1.
         15    1    1    2    0    0 -0.15746297278E+01 -0.68611247826E+01  0.48427832282E+01  0.87272430044E+01  0.17770000000E+01 0. -1.
</event>
<event>
 6    1  0.1823098E-004  0.5004591E+03  0.7546771E-02  0.9398783E-01
        -11   -1    0    0    0    0  0.00000000000E+00  0.00000000000E+00  0.50000000000E+03  0.50000000000E+03  0.00000000000E+00 0.  1.
         11   -1    0    0    0    0 -0.00000000000E+00 -0.00000000000E+00 -0.50000000000E+03  0.50000000000E+03  0.00000000000E+00 0. -1.
        -11    1    1    2    0    0  0.43604714686E+01 -0.58140228400E+01  0.37499581468E+03  0.37506623095E+03  0.00000000000E+00 0.  1.
         11    1    1    2    0    0 -0.55763567911E+01  0.11071559596E+02 -0.49938703048E+03  0.49954087060E+03  0.00000000000E+00 0. -1.
        -15    1    1    2    0    0 -0.20027279488E+01 -0.42193999152E+01  0.12867790477E+02  0.13804057942E+02  0.17770000000E+01 0.  1.
         15    1    1    2    0    0  0.32186132713E+01 -0.10381368412E+01  0.11152342533E+03  0.11158884051E+03  0.17770000000E+01 0. -1.
</event>
<event>
 6    1  0.1823098E-004  0.5025513E+03  0.7546771E-02  0.9394119E-01
        -11   -1    0    0    0    0  0.00000000000E+00  0.00000000000E+00  0.50000000000E+03  0.50000000000E+03  0.00000000000E+00 0. -1.
         11   -1    0    0    0    0 -0.00000000000E+00 -0.00000000000E+00 -0.50000000000E+03  0.50000000000E+03  0.00000000000E+00 0.  1.
        -11    1    1    2    0    0  0.98484712200E+01 -0.57657927502E+01  0.37982633857E+03  0.37999774240E+03  0.00000000000E+00 0. -1.
         11    1    1    2    0    0 -0.65894848687E+01 -0.27136141375E+02 -0.49666431000E+03  0.49744871927E+03  0.00000000000E+00 0.  1.
        -15    1    1    2    0    0 -0.72812302312E+01  0.30478171758E+02  0.91802948324E+02  0.97019968652E+02  0.17770000000E+01 0. -1.
         15    1    1    2    0    0  0.40222438799E+01  0.24237623675E+01  0.25035023102E+02  0.25533569679E+02  0.17770000000E+01 0.  1.
</event>
<event>
 6    1  0.1823098E-004  0.5026169E+03  0.7546771E-02  0.9393973E-01
        -11   -1    0    0    0    0  0.00000000000E+00  0.00000000000E+00  0.50000000000E+03  0.50000000000E+03  0.00000000000E+00 0.  1.
         11   -1    0    0    0    0 -0.00000000000E+00 -0.00000000000E+00 -0.50000000000E+03  0.50000000000E+03  0.00000000000E+00 0. -1.
        -11    1    1    2    0    0 -0.31165367727E+02  0.47795457520E+01  0.49638278443E+03  0.49738314495E+03  0.00000000000E+00 0.  1.
         11    1    1    2    0    0  0.31991956561E+02 -0.29386485394E+02 -0.24197648779E+03  0.24584481173E+03  0.00000000000E+00 0. -1.
        -15    1    1    2    0    0 -0.12560616510E+02  0.12200552754E+02 -0.13116729161E+03  0.13234288304E+03  0.17770000000E+01 0.  1.
         15    1    1    2    0    0  0.11734027675E+02  0.12406386888E+02 -0.12323900503E+03  0.12442916029E+03  0.17770000000E+01 0. -1.
</event>
<event>
 6    1  0.2192080E-004  0.5001163E+03  0.7546771E-02  0.9399550E-01
        -11   -1    0    0    0    0  0.00000000000E+00  0.00000000000E+00  0.50000000000E+03  0.50000000000E+03  0.00000000000E+00 0.  1.
         11   -1    0    0    0    0 -0.00000000000E+00 -0.00000000000E+00 -0.50000000000E+03  0.50000000000E+03  0.00000000000E+00 0. -1.
        -11    1    1    2    0    0  0.30500350978E+01 -0.37004229420E+00  0.21325646637E+03  0.21327859736E+03  0.00000000000E+00 0.  1.
         11    1    1    2    0    0  0.38896771074E+00  0.11309765711E+02 -0.49975564080E+03  0.49988374909E+03  0.00000000000E+00 0. -1.
        -15    1    1    2    0    0 -0.47311673167E+01 -0.34609537265E+01  0.13161011248E+03  0.13175257713E+03  0.17770000000E+01 0.  1.
         15    1    1    2    0    0  0.12921645082E+01 -0.74787696907E+01  0.15488906195E+03  0.15508507642E+03  0.17770000000E+01 0. -1.
</event>
<event>
 6    1  0.1823098E-004  0.5067536E+03  0.7546771E-02  0.9384824E-01
        -11   -1    0    0    0    0  0.00000000000E+00  0.00000000000E+00  0.50000000000E+03  0.50000000000E+03  0.00000000000E+00 0. -1.
         11   -1    0    0    0    0 -0.00000000000E+00 -0.00000000000E+00 -0.50000000000E+03  0.50000000000E+03  0.00000000000E+00 0.  1.
        -11    1    1    2    0    0 -0.22940264637E+02 -0.16594118925E+02  0.49243312006E+03  0.49324638697E+03  0.00000000000E+00 0. -1.
         11    1    1    2    0    0  0.13907228027E+02 -0.42267565234E+02 -0.16132366502E+03  0.16734779042E+03  0.00000000000E+00 0.  1.
        -15    1    1    2    0    0  0.17079660909E+02  0.16856788292E+02 -0.55498239586E+02  0.60490317031E+02  0.17770000000E+01 0. -1.
         15    1    1    2    0    0 -0.80466242995E+01  0.42004895866E+02 -0.27561121546E+03  0.27891550558E+03  0.17770000000E+01 0.  1.
</event>
<event>
 6    1  0.1823098E-004  0.4875914E+03  0.7546771E-02  0.9428011E-01
        -11   -1    0    0    0    0  0.00000000000E+00  0.00000000000E+00  0.50000000000E+03  0.50000000000E+03  0.00000000000E+00 0.  1.
         11   -1    0    0    0    0 -0.00000000000E+00 -0.00000000000E+00 -0.50000000000E+03  0.50000000000E+03  0.00000000000E+00 0.  1.
        -11    1    1    2    0    0 -0.93542589564E+01 -0.62614415743E+01  0.49044020101E+03  0.49056936164E+03  0.00000000000E+00 0.  1.
         11    1    1    2    0    0  0.12342002165E+02 -0.14629259793E+02 -0.48448203742E+03  0.48485996416E+03  0.00000000000E+00 0.  1.
        -15    1    1    2    0    0  0.27573369371E+01  0.20288243721E+01 -0.21318045909E+01  0.44069666588E+01  0.17770000000E+01 0. -1.
         15    1    1    2    0    0 -0.57450801453E+01  0.18861876995E+02 -0.38263590036E+01  0.20163707543E+02  0.17770000000E+01 0.  1.
</event>
<event>
 6    1  0.1823098E-004  0.5007915E+03  0.7546771E-02  0.9398041E-01
        -11   -1    0    0    0    0  0.00000000000E+00  0.00000000000E+00  0.50000000000E+03  0.50000000000E+03  0.00000000000E+00 0.  1.
         11   -1    0    0    0    0 -0.00000000000E+00 -0.00000000000E+00 -0.50000000000E+03  0.50000000000E+03  0.00000000000E+00 0.  1.
        -11    1    1    2    0    0 -0.20118988876E+01  0.74256197275E+01  0.49914926065E+03  0.49920854558E+03  0.00000000000E+00 0.  1.
         11    1    1    2    0    0 -0.88681503119E+01 -0.50578422111E+01 -0.42686550644E+03  0.42698757177E+03  0.00000000000E+00 0.  1.
        -15    1    1    2    0    0  0.10733522391E+02 -0.89055509812E+00 -0.40798417262E+02  0.42233519524E+02  0.17770000000E+01 0.  1.
         15    1    1    2    0    0  0.14652680829E+00 -0.14772224183E+01 -0.31485336947E+02  0.31570363125E+02  0.17770000000E+01 0. -1.
</event>
<event>
 6    1  0.1823098E-004  0.4977530E+03  0.7546771E-02  0.9404852E-01
        -11   -1    0    0    0    0  0.00000000000E+00  0.00000000000E+00  0.50000000000E+03  0.50000000000E+03  0.00000000000E+00 0.  1.
         11   -1    0    0    0    0 -0.00000000000E+00 -0.00000000000E+00 -0.50000000000E+03  0.50000000000E+03  0.00000000000E+00 0.  1.
        -11    1    1    2    0    0  0.75179239699E+01  0.82270858070E+01  0.49642515329E+03  0.49655023607E+03  0.00000000000E+00 0.  1.
         11    1    1    2    0    0  0.34307571916E+01  0.26552507388E+01  0.18423259410E+01  0.47132384054E+01  0.00000000000E+00 0.  1.
        -15    1    1    2    0    0 -0.88665279590E+01 -0.13342991107E+02 -0.29829264949E+03  0.29872782461E+03  0.17770000000E+01 0.  1.
         15    1    1    2    0    0 -0.20821532024E+01  0.24606545615E+01 -0.19997482974E+03  0.20000870091E+03  0.17770000000E+01 0. -1.
</event>
<event>
 6    1  0.1823098E-004  0.4751297E+03  0.7546771E-02  0.9457246E-01
        -11   -1    0    0    0    0  0.00000000000E+00  0.00000000000E+00  0.50000000000E+03  0.50000000000E+03  0.00000000000E+00 0. -1.
         11   -1    0    0    0    0 -0.00000000000E+00 -0.00000000000E+00 -0.50000000000E+03  0.50000000000E+03  0.00000000000E+00 0.  1.
        -11    1    1    2    0    0  0.84849238446E+01 -0.31961075855E+01  0.48383314909E+03  0.48391809761E+03  0.00000000000E+00 0. -1.
         11    1    1    2    0    0  0.12612172887E+02 -0.30402690460E+02 -0.46617251017E+03  0.46733307152E+03  0.00000000000E+00 0.  1.
        -15    1    1    2    0    0  0.15991770958E+01  0.33463722703E+01  0.34779881092E+01  0.53860658224E+01  0.17770000000E+01 0. -1.
         15    1    1    2    0    0 -0.22696273828E+02  0.30252425775E+02 -0.21138627031E+02  0.43362765049E+02  0.17770000000E+01 0. -1.
</event>
<event>
 6    1  0.1823098E-004  0.5049121E+03  0.7546771E-02  0.9388885E-01
        -11   -1    0    0    0    0  0.00000000000E+00  0.00000000000E+00  0.50000000000E+03  0.50000000000E+03  0.00000000000E+00 0.  1.
         11   -1    0    0    0    0 -0.00000000000E+00 -0.00000000000E+00 -0.50000000000E+03  0.50000000000E+03  0.00000000000E+00 0. -1.
        -11    1    1    2    0    0  0.70815562224E+01 -0.70441971361E+01  0.49498714750E+03  0.49508791678E+03  0.00000000000E+00 0.  1.
         11    1    1    2    0    0  0.21174365424E+02  0.36915622259E+02 -0.11634981112E+03  0.12388864139E+03  0.00000000000E+00 0. -1.
        -15    1    1    2    0    0 -0.28111686433E+02 -0.26138234639E+02 -0.34432045427E+03  0.34645808864E+03  0.17770000000E+01 0. -1.
         15    1    1    2    0    0 -0.14423521351E+00 -0.37331904838E+01 -0.34316882101E+02  0.34565353190E+02  0.17770000000E+01 0.  1.
</event>
<event>
 6    1  0.1823098E-004  0.4868857E+03  0.7546771E-02  0.9429642E-01
        -11   -1    0    0    0    0  0.00000000000E+00  0.00000000000E+00  0.50000000000E+03  0.50000000000E+03  0.00000000000E+00 0. -1.
         11   -1    0    0    0    0 -0.00000000000E+00 -0.00000000000E+00 -0.50000000000E+03  0.50000000000E+03  0.00000000000E+00 0. -1.
        -11    1    1    2    0    0  0.67293237602E+01  0.13773532652E+02  0.48382814957E+03  0.48407093728E+03  0.00000000000E+00 0. -1.
         11    1    1    2    0    0 -0.24182266044E+02 -0.78388046943E+01 -0.48922996406E+03  0.48988997396E+03  0.00000000000E+00 0. -1.
        -15    1    1    2    0    0  0.74617767402E+01 -0.11553892923E+02  0.31862881943E+01  0.14229571858E+02  0.17770000000E+01 0.  1.
         15    1    1    2    0    0  0.99911655432E+01  0.56191649652E+01  0.22155262902E+01  0.11809516906E+02  0.17770000000E+01 0. -1.
</event>
<event>
 6    1  0.1823098E-004  0.5032647E+03  0.7546771E-02  0.9392534E-01
        -11   -1    0    0    0    0  0.00000000000E+00  0.00000000000E+00  0.50000000000E+03  0.50000000000E+03  0.00000000000E+00 0.  1.
         11   -1    0    0    0    0 -0.00000000000E+00 -0.00000000000E+00 -0.50000000000E+03  0.50000000000E+03  0.00000000000E+00 0. -1.
        -11    1    1    2    0    0  0.10955223392E+01  0.76780735320E+01  0.48693668079E+03  0.48699844361E+03  0.00000000000E+00 0.  1.
         11    1    1    2    0    0  0.72528462610E+01  0.69316309664E+00 -0.49668183812E+03  0.49673527414E+03  0.00000000000E+00 0. -1.
        -15    1    1    2    0    0 -0.41485807829E+01 -0.58504513582E+01  0.36305628642E+01  0.82326921063E+01  0.17770000000E+01 0.  1.
         15    1    1    2    0    0 -0.41997878173E+01 -0.25207852705E+01  0.61145944656E+01  0.80335901420E+01  0.17770000000E+01 0. -1.
</event>
<event>
 6    1  0.1823098E-004  0.4821841E+03  0.7546771E-02  0.9440581E-01
        -11   -1    0    0    0    0  0.00000000000E+00  0.00000000000E+00  0.50000000000E+03  0.50000000000E+03  0.00000000000E+00 0. -1.
         11   -1    0    0    0    0 -0.00000000000E+00 -0.00000000000E+00 -0.50000000000E+03  0.50000000000E+03  0.00000000000E+00 0.  1.
        -11    1    1    2    0    0  0.17695693223E+02  0.14367736777E+02  0.48452836685E+03  0.48506423049E+03  0.00000000000E+00 0. -1.
         11    1    1    2    0    0 -0.26123965715E+02 -0.23110117843E+02 -0.53289664281E+01  0.35283664982E+02  0.00000000000E+00 0.  1.
        -15    1    1    2    0    0  0.40538648881E+01 -0.32465868405E+01 -0.58899248298E+02  0.59154486945E+02  0.17770000000E+01 0. -1.
         15    1    1    2    0    0  0.43744076039E+01  0.11988967907E+02 -0.42030015212E+03  0.42049761759E+03  0.17770000000E+01 0.  1.
</event>
<event>
 6    1  0.1823098E-004  0.5139159E+03  0.7546771E-02  0.9369199E-01
        -11   -1    0    0    0    0  0.00000000000E+00  0.00000000000E+00  0.50000000000E+03  0.50000000000E+03  0.00000000000E+00 0.  1.
         11   -1    0    0    0    0 -0.00000000000E+00 -0.00000000000E+00 -0.50000000000E+03  0.50000000000E+03  0.00000000000E+00 0.  1.
        -11    1    1    2    0    0  0.70912565622E+01 -0.73888014723E+01  0.45859715375E+03  0.45871148856E+03  0.00000000000E+00 0.  1.
         11    1    1    2    0    0  0.39561015095E+01 -0.13307604457E+02 -0.48588575559E+03  0.48608405709E+03  0.00000000000E+00 0.  1.
        -15    1    1    2    0    0 -0.56104199477E+01  0.13349832884E+02  0.38181871868E+02  0.40874294102E+02  0.17770000000E+01 0. -1.
         15    1    1    2    0    0 -0.54369381241E+01  0.73465730453E+01 -0.10893270031E+02  0.14330160245E+02  0.17770000000E+01 0.  1.
</event>
<event>
 6    1  0.1823098E-004  0.5003602E+03  0.7546771E-02  0.9399004E-01
        -11   -1    0    0    0    0  0.00000000000E+00  0.00000000000E+00  0.50000000000E+03  0.50000000000E+03  0.00000000000E+00 0.  1.
         11   -1    0    0    0    0 -0.00000000000E+00 -0.00000000000E+00 -0.50000000000E+03  0.50000000000E+03  0.00000000000E+00 0. -1.
        -11    1    1    2    0    0 -0.93754575351E+01  0.16630634537E+01  0.49954908446E+03  0.49963982304E+03  0.00000000000E+00 0.  1.
         11    1    1    2    0    0 -0.26986943716E+01 -0.66440683856E+01 -0.11377755789E+03  0.11400333010E+03  0.00000000000E+00 0. -1.
        -15    1    1    2    0    0 -0.35631315820E+01 -0.14754603019E+01 -0.79124347454E+02  0.79238204036E+02  0.17770000000E+01 0.  1.
         15    1    1    2    0    0  0.15637283489E+02  0.64564652338E+01 -0.30664717912E+03  0.30711864282E+03  0.17770000000E+01 0. -1.
</event>
<event>
 6    1  0.1823098E-004  0.5003945E+03  0.7546771E-02  0.9398927E-01
        -11   -1    0    0    0    0  0.00000000000E+00  0.00000000000E+00  0.50000000000E+03  0.50000000000E+03  0.00000000000E+00 0.  1.
         11   -1    0    0    0    0 -0.00000000000E+00 -0.00000000000E+00 -0.50000000000E+03  0.50000000000E+03  0.00000000000E+00 0.  1.
        -11    1    1    2    0    0  0.74112142072E+00  0.84011632897E+01  0.49953431644E+03  0.49960550648E+03  0.00000000000E+00 0.  1.
         11    1    1    2    0    0  0.34182475326E+01  0.48444580154E+01 -0.26937743051E+03  0.26944267156E+03  0.00000000000E+00 0.  1.
        -15    1    1    2    0    0 -0.62237100059E+01 -0.20910969500E+01 -0.12142086193E+03  0.12161122767E+03  0.17770000000E+01 0. -1.
         15    1    1    2    0    0  0.20643410526E+01 -0.11154524355E+02 -0.10873602399E+03  0.10934059429E+03  0.17770000000E+01 0.  1.
</event>
<event>
 6    1  0.1823098E-004  0.5027970E+03  0.7546771E-02  0.9393573E-01
        -11   -1    0    0    0    0  0.00000000000E+00  0.00000000000E+00  0.50000000000E+03  0.50000000000E+03  0.00000000000E+00 0. -1.
         11   -1    0    0    0    0 -0.00000000000E+00 -0.00000000000E+00 -0.50000000000E+03  0.50000000000E+03  0.00000000000E+00 0. -1.
        -11    1    1    2    0    0  0.63960223170E+01  0.42235337368E+00  0.47268993622E+03  0.47273339557E+03  0.00000000000E+00 0. -1.
         11    1    1    2    0    0  0.64312747443E+01 -0.79476518930E+01 -0.49709792203E+03  0.49720304761E+03  0.00000000000E+00 0. -1.
        -15    1    1    2    0    0  0.66949294426E+00  0.15218691112E+01  0.54166704540E+01  0.59382113638E+01  0.17770000000E+01 0.  1.
         15    1    1    2    0    0 -0.13496790006E+02  0.60034294081E+01  0.18991315363E+02  0.24125345455E+02  0.17770000000E+01 0. -1.
</event>
<event>
 6    1  0.1823098E-004  0.5009941E+03  0.7546771E-02  0.9397588E-01
        -11   -1    0    0    0    0  0.00000000000E+00  0.00000000000E+00  0.50000000000E+03  0.50000000000E+03  0.00000000000E+00 0. -1.
         11   -1    0    0    0    0 -0.00000000000E+00 -0.00000000000E+00 -0.50000000000E+03  0.50000000000E+03  0.00000000000E+00 0. -1.
        -11    1    1    2    0    0  0.78743355496E+01 -0.27246585558E+01  0.49893632396E+03  0.49900589604E+03  0.00000000000E+00 0. -1.
         11    1    1    2    0    0  0.77094086676E+01 -0.86568687026E+01 -0.11027011434E+03  0.11087774563E+03  0.00000000000E+00 0. -1.
        -15    1    1    2    0    0 -0.75579293441E+01  0.13443631663E+01 -0.24859226500E+02  0.26078122622E+02  0.17770000000E+01 0.  1.
         15    1    1    2    0    0 -0.80258148731E+01  0.10037164092E+02 -0.36380698311E+03  0.36403823571E+03  0.17770000000E+01 0. -1.
</event>
<event>
 6    1  0.1823098E-004  0.5196818E+03  0.7546771E-02  0.9356816E-01
        -11   -1    0    0    0    0  0.00000000000E+00  0.00000000000E+00  0.50000000000E+03  0.50000000000E+03  0.00000000000E+00 0.  1.
         11   -1    0    0    0    0 -0.00000000000E+00 -0.00000000000E+00 -0.50000000000E+03  0.50000000000E+03  0.00000000000E+00 0.  1.
        -11    1    1    2    0    0 -0.28653608496E+01  0.47027859994E+01  0.37866553523E+03  0.37870557701E+03  0.00000000000E+00 0.  1.
         11    1    1    2    0    0  0.55133171107E+02  0.60610808099E+02 -0.47327818829E+03  0.48031820716E+03  0.00000000000E+00 0.  1.
        -15    1    1    2    0    0 -0.32969457060E+02 -0.10253876298E+02  0.63393010129E+01  0.35149275161E+02  0.17770000000E+01 0. -1.
         15    1    1    2    0    0 -0.19298353197E+02 -0.55059717801E+02  0.88273352054E+02  0.10582694067E+03  0.17770000000E+01 0.  1.
</event>
<event>
 6    1  0.1823098E-004  0.5026053E+03  0.7546771E-02  0.9393999E-01
        -11   -1    0    0    0    0  0.00000000000E+00  0.00000000000E+00  0.50000000000E+03  0.50000000000E+03  0.00000000000E+00 0. -1.
         11   -1    0    0    0    0 -0.00000000000E+00 -0.00000000000E+00 -0.50000000000E+03  0.50000000000E+03  0.00000000000E+00 0.  1.
        -11    1    1    2    0    0  0.76076575163E+01  0.12753131721E+02  0.42879649400E+03  0.42905355387E+03  0.00000000000E+00 0. -1.
         11    1    1    2    0    0 -0.60551079141E+01  0.13399345016E+02 -0.49717730276E+03  0.49739468951E+03  0.00000000000E+00 0.  1.
        -15    1    1    2    0    0  0.39370436330E+00 -0.19392506411E+02  0.54728272281E+02  0.58091013280E+02  0.17770000000E+01 0. -1.
         15    1    1    2    0    0 -0.19462539655E+01 -0.67599703261E+01  0.13652536473E+02  0.15460743334E+02  0.17770000000E+01 0.  1.
</event>
<event>
 6    1  0.1823098E-004  0.5002458E+03  0.7546771E-02  0.9399260E-01
        -11   -1    0    0    0    0  0.00000000000E+00  0.00000000000E+00  0.50000000000E+03  0.50000000000E+03  0.00000000000E+00 0. -1.
         11   -1    0    0    0    0 -0.00000000000E+00 -0.00000000000E+00 -0.50000000000E+03  0.50000000000E+03  0.00000000000E+00 0.  1.
        -11    1    1    2    0    0  0.30611276478E+01  0.11602794253E+02  0.49961014259E+03  0.49975422952E+03  0.00000000000E+00 0. -1.
         11    1    1    2    0    0  0.78730359442E+00 -0.13615633883E+02 -0.31329086576E+03  0.31358758250E+03  0.00000000000E+00 0.  1.
        -15    1    1    2    0    0  0.17583871514E+01  0.35955232202E+01 -0.46340986338E+02  0.46547443071E+02  0.17770000000E+01 0. -1.
         15    1    1    2    0    0 -0.56068183937E+01 -0.15826835902E+01 -0.13997829050E+03  0.14011074491E+03  0.17770000000E+01 0.  1.
</event>
<event>
 6    1  0.1823098E-004  0.5025554E+03  0.7546771E-02  0.9394110E-01
        -11   -1    0    0    0    0  0.00000000000E+00  0.00000000000E+00  0.50000000000E+03  0.50000000000E+03  0.00000000000E+00 0.  1.
         11   -1    0    0    0    0 -0.00000000000E+00 -0.00000000000E+00 -0.50000000000E+03  0.50000000000E+03  0.00000000000E+00 0. -1.
        -11    1    1    2    0    0 -0.10454732660E+02  0.24259725689E+01  0.47752262719E+03  0.47764322068E+03  0.00000000000E+00 0.  1.
         11    1    1    2    0    0  0.15129859161E+02 -0.15335014175E+01  0.19731999520E+02  0.24912167105E+02  0.00000000000E+00 0. -1.
        -15    1    1    2    0    0  0.24865130884E+01  0.31225175547E+01 -0.26895654882E+03  0.26899203658E+03  0.17770000000E+01 0.  1.
         15    1    1    2    0    0 -0.71616395893E+01 -0.40149887060E+01 -0.22829807789E+03  0.22845257564E+03  0.17770000000E+01 0. -1.
</event>
<event>
 6    1  0.1823098E-004  0.5011338E+03  0.7546771E-02  0.9397276E-01
        -11   -1    0    0    0    0  0.00000000000E+00  0.00000000000E+00  0.50000000000E+03  0.50000000000E+03  0.00000000000E+00 0. -1.
         11   -1    0    0    0    0 -0.00000000000E+00 -0.00000000000E+00 -0.50000000000E+03  0.50000000000E+03  0.00000000000E+00 0. -1.
        -11    1    1    2    0    0 -0.46608422119E+01 -0.12532598028E+02  0.49868693248E+03  0.49886616049E+03  0.00000000000E+00 0. -1.
         11    1    1    2    0    0 -0.12880326738E+02 -0.36337489293E+01 -0.27773551645E+03  0.27805777106E+03  0.00000000000E+00 0. -1.
        -15    1    1    2    0    0  0.20951823114E+02  0.10637426492E+02 -0.15489838284E+03  0.15668056826E+03  0.17770000000E+01 0. -1.
         15    1    1    2    0    0 -0.34106541638E+01  0.55289204662E+01 -0.66053033186E+02  0.66395500190E+02  0.17770000000E+01 0.  1.
</event>
<event>
 6    1  0.1823098E-004  0.5031585E+03  0.7546771E-02  0.9392770E-01
        -11   -1    0    0    0    0  0.00000000000E+00  0.00000000000E+00  0.50000000000E+03  0.50000000000E+03  0.00000000000E+00 0. -1.
         11   -1    0    0    0    0 -0.00000000000E+00 -0.00000000000E+00 -0.50000000000E+03  0.50000000000E+03  0.00000000000E+00 0. -1.
        -11    1    1    2    0    0 -0.33953658498E+01 -0.76886447844E+01  0.46123017383E+03  0.46130674937E+03  0.00000000000E+00 0. -1.
         11    1    1    2    0    0 -0.41800686990E+01  0.20606613283E+02 -0.49639639146E+03  0.49684150686E+03  0.00000000000E+00 0. -1.
        -15    1    1    2    0    0 -0.25744939781E+01 -0.86685872040E+01  0.70386745071E+01  0.11596253325E+02  0.17770000000E+01 0.  1.
         15    1    1    2    0    0  0.10149928527E+02 -0.42493812941E+01  0.28127543125E+02  0.30255490439E+02  0.17770000000E+01 0. -1.
</event>
<event>
 6    1  0.1823098E-004  0.5013944E+03  0.7546771E-02  0.9396695E-01
        -11   -1    0    0    0    0  0.00000000000E+00  0.00000000000E+00  0.50000000000E+03  0.50000000000E+03  0.00000000000E+00 0.  1.
         11   -1    0    0    0    0 -0.00000000000E+00 -0.00000000000E+00 -0.50000000000E+03  0.50000000000E+03  0.00000000000E+00 0.  1.
        -11    1    1    2    0    0  0.23190531178E+01  0.77386257230E+01  0.49854013094E+03  0.49860558209E+03  0.00000000000E+00 0.  1.
         11    1    1    2    0    0 -0.68872166735E+01 -0.22052784272E+00 -0.47895109484E+03  0.47900066141E+03  0.00000000000E+00 0.  1.
        -15    1    1    2    0    0  0.33359741162E+01 -0.25181977697E+01 -0.13400175037E+02  0.14148938594E+02  0.17770000000E+01 0.  1.
         15    1    1    2    0    0  0.12321894395E+01 -0.49999001106E+01 -0.61888610681E+01  0.82448179029E+01  0.17770000000E+01 0. -1.
</event>
<event>
 6    1  0.1823098E-004  0.5011981E+03  0.7546771E-02  0.9397133E-01
        -11   -1    0    0    0    0  0.00000000000E+00  0.00000000000E+00  0.50000000000E+03  0.50000000000E+03  0.00000000000E+00 0.  1.
         11   -1    0    0    0    0 -0.00000000000E+00 -0.00000000000E+00 -0.50000000000E+03  0.50000000000E+03  0.00000000000E+00 0. -1.
        -11    1    1    2    0    0 -0.12177445932E+01 -0.34868890472E+01  0.20146250388E+02  0.20482009223E+02  0.00000000000E+00 0.  1.
         11    1    1    2    0    0 -0.14183291000E+03  0.94913397911E+01 -0.47811780483E+03  0.49880185965E+03  0.00000000000E+00 0. -1.
        -15    1    1    2    0    0  0.40911580220E+02  0.10765291115E+02  0.14611746892E+03  0.15212863419E+03  0.17770000000E+01 0. -1.
         15    1    1    2    0    0  0.10213907437E+03 -0.16769741859E+02  0.31185408552E+03  0.32858749694E+03  0.17770000000E+01 0.  1.
</event>
<event>
 6    1  0.1823098E-004  0.5005911E+03  0.7546771E-02  0.9398488E-01
        -11   -1    0    0    0    0  0.00000000000E+00  0.00000000000E+00  0.50000000000E+03  0.50000000000E+03  0.00000000000E+00 0.  1.
         11   -1    0    0    0    0 -0.00000000000E+00 -0.00000000000E+00 -0.50000000000E+03  0.50000000000E+03  0.00000000000E+00 0.  1.
        -11    1    1    2    0    0 -0.40759029332E+02 -0.11898808632E+02  0.49760057617E+03  0.49940886409E+03  0.00000000000E+00 0.  1.
         11    1    1    2    0    0  0.42624129599E+02  0.11962097959E+02 -0.33392042759E+03  0.33684233726E+03  0.00000000000E+00 0.  1.
        -15    1    1    2    0    0 -0.96272330856E+00 -0.34534739461E+00 -0.12458279441E+03  0.12459966490E+03  0.17770000000E+01 0.  1.
         15    1    1    2    0    0 -0.90237695813E+00  0.28205806720E+00 -0.39097354176E+02  0.39149133752E+02  0.17770000000E+01 0. -1.
</event>
<event>
 6    1  0.1823098E-004  0.5020789E+03  0.7546771E-02  0.9395170E-01
        -11   -1    0    0    0    0  0.00000000000E+00  0.00000000000E+00  0.50000000000E+03  0.50000000000E+03  0.00000000000E+00 0.  1.
         11   -1    0    0    0    0 -0.00000000000E+00 -0.00000000000E+00 -0.50000000000E+03  0.50000000000E+03  0.00000000000E+00 0. -1.
        -11    1    1    2    0    0  0.61318323921E+01 -0.71479561813E+01  0.49783201133E+03  0.49792108225E+03  0.00000000000E+00 0.  1.
         11    1    1    2    0    0  0.20049427828E+02  0.11584147127E+02 -0.39385914792E+03  0.39453922545E+03  0.00000000000E+00 0. -1.
        -15    1    1    2    0    0 -0.21489577996E+02 -0.54492667671E+01 -0.80544928785E+02  0.83559199091E+02  0.17770000000E+01 0.  1.
         15    1    1    2    0    0 -0.46916822238E+01  0.10130758212E+01 -0.23427934622E+02  0.23980493205E+02  0.17770000000E+01 0. -1.
</event>
<event>
 6    1  0.1823098E-004  0.5007023E+03  0.7546771E-02  0.9398240E-01
        -11   -1    0    0    0    0  0.00000000000E+00  0.00000000000E+00  0.50000000000E+03  0.50000000000E+03  0.00000000000E+00 0.  1.
         11   -1    0    0    0    0 -0.00000000000E+00 -0.00000000000E+00 -0.50000000000E+03  0.50000000000E+03  0.00000000000E+00 0. -1.
        -11    1    1    2    0    0 -0.92459637418E+01  0.30859676910E+01  0.49920256973E+03  0.49929772348E+03  0.00000000000E+00 0.  1.
         11    1    1    2    0    0  0.11770572699E+02 -0.19021299063E+01 -0.48692886004E+03  0.48707481891E+03  0.00000000000E+00 0. -1.
        -15    1    1    2    0    0 -0.11397722217E+01 -0.19759899833E+01 -0.35281565094E+01  0.45617139856E+01  0.17770000000E+01 0.  1.
         15    1    1    2    0    0 -0.13848367360E+01  0.79215219860E+00 -0.87455531886E+01  0.90657436246E+01  0.17770000000E+01 0. -1.
</event>
<event>
 6    1  0.1823098E-004  0.4305472E+03  0.7546771E-02  0.9570215E-01
        -11   -1    0    0    0    0  0.00000000000E+00  0.00000000000E+00  0.50000000000E+03  0.50000000000E+03  0.00000000000E+00 0.  1.
         11   -1    0    0    0    0 -0.00000000000E+00 -0.00000000000E+00 -0.50000000000E+03  0.50000000000E+03  0.00000000000E+00 0. -1.
        -11    1    1    2    0    0 -0.78036100246E+00 -0.70560735765E+01  0.46624933803E+03  0.46630338017E+03  0.00000000000E+00 0.  1.
         11    1    1    2    0    0  0.23250774014E+02  0.90112116843E+02 -0.39139827169E+03  0.40231007839E+03  0.00000000000E+00 0. -1.
        -15    1    1    2    0    0 -0.30434163846E+02 -0.82005709428E+02 -0.82427488514E+02  0.12020242635E+03  0.17770000000E+01 0.  1.
         15    1    1    2    0    0  0.79637508341E+01 -0.10503338387E+01  0.75764221701E+01  0.11184115093E+02  0.17770000000E+01 0. -1.
</event>
<event>
 6    1  0.1823098E-004  0.5011099E+03  0.7546771E-02  0.9397330E-01
        -11   -1    0    0    0    0  0.00000000000E+00  0.00000000000E+00  0.50000000000E+03  0.50000000000E+03  0.00000000000E+00 0.  1.
         11   -1    0    0    0    0 -0.00000000000E+00 -0.00000000000E+00 -0.50000000000E+03  0.50000000000E+03  0.00000000000E+00 0.  1.
        -11    1    1    2    0    0 -0.73001942142E+01  0.42748238991E+01  0.46785781740E+03  0.46793429481E+03  0.00000000000E+00 0.  1.
         11    1    1    2    0    0 -0.28762122934E+01 -0.72443889507E+01 -0.49882923275E+03  0.49889012540E+03  0.00000000000E+00 0.  1.
        -15    1    1    2    0    0  0.46839797830E+01  0.17155168550E+01  0.91812408128E+01  0.10598847888E+02  0.17770000000E+01 0. -1.
         15    1    1    2    0    0  0.54924267245E+01  0.12540481966E+01  0.21790174539E+02  0.22576731908E+02  0.17770000000E+01 0.  1.
</event>
<event>
 6    1  0.1823098E-004  0.5005767E+03  0.7546771E-02  0.9398520E-01
        -11   -1    0    0    0    0  0.00000000000E+00  0.00000000000E+00  0.50000000000E+03  0.50000000000E+03  0.00000000000E+00 0. -1.
         11   -1    0    0    0    0 -0.00000000000E+00 -0.00000000000E+00 -0.50000000000E+03  0.50000000000E+03  0.00000000000E+00 0. -1.
        -11    1    1    2    0    0 -0.25492613544E+01  0.12924947776E+01  0.20564208970E+03  0.20566195159E+03  0.00000000000E+00 0. -1.
         11    1    1    2    0    0  0.21539858710E+01  0.28140069883E+02 -0.49862522865E+03  0.49942328924E+03  0.00000000000E+00 0. -1.
        -15    1    1    2    0    0  0.42148338011E+01 -0.26777086168E+02  0.20517037266E+03  0.20696090624E+03  0.17770000000E+01 0.  1.
         15    1    1    2    0    0 -0.38195583177E+01 -0.26554784929E+01  0.87812766295E+02  0.87953852930E+02  0.17770000000E+01 0. -1.
</event>
<event>
 6    1  0.1823098E-004  0.5045141E+03  0.7546771E-02  0.9389765E-01
        -11   -1    0    0    0    0  0.00000000000E+00  0.00000000000E+00  0.50000000000E+03  0.50000000000E+03  0.00000000000E+00 0.  1.
         11   -1    0    0    0    0 -0.00000000000E+00 -0.00000000000E+00 -0.50000000000E+03  0.50000000000E+03  0.00000000000E+00 0. -1.
        -11    1    1    2    0    0 -0.85410913509E+01  0.95187541183E+01  0.41344658404E+03  0.41364433367E+03  0.00000000000E+00 0.  1.
         11    1    1    2    0    0  0.12791850714E+02  0.23674173304E+02 -0.49475461989E+03  0.49548585431E+03  0.00000000000E+00 0. -1.
        -15    1    1    2    0    0 -0.74833327476E+01 -0.13967503279E+02  0.15598090732E+02  0.22305819428E+02  0.17770000000E+01 0.  1.
         15    1    1    2    0    0  0.32325733847E+01 -0.19225424144E+02  0.65709945112E+02  0.68563992590E+02  0.17770000000E+01 0. -1.
</event>
<event>
 6    1  0.1823098E-004  0.5036124E+03  0.7546771E-02  0.9391763E-01
        -11   -1    0    0    0    0  0.00000000000E+00  0.00000000000E+00  0.50000000000E+03  0.50000000000E+03  0.00000000000E+00 0.  1.
         11   -1    0    0    0    0 -0.00000000000E+00 -0.00000000000E+00 -0.50000000000E+03  0.50000000000E+03  0.00000000000E+00 0.  1.
        -11    1    1    2    0    0 -0.37446262614E+02 -0.43042099040E-01  0.49497312612E+03  0.49638757037E+03  0.00000000000E+00 0.  1.
         11    1    1    2    0    0  0.34219566023E+02  0.91922716266E+01 -0.72811730044E+02  0.80975456705E+02  0.00000000000E+00 0.  1.
        -15    1    1    2    0    0 -0.21729510995E+01 -0.95144165118E+01 -0.11622849238E+03  0.11665104375E+03  0.17770000000E+01 0. -1.
         15    1    1    2    0    0  0.53996476900E+01  0.36518698424E+00 -0.30593290370E+03  0.30598592918E+03  0.17770000000E+01 0.  1.
</event>
<event>
 6    1  0.1823098E-004  0.5105031E+03  0.7546771E-02  0.9376610E-01
        -11   -1    0    0    0    0  0.00000000000E+00  0.00000000000E+00  0.50000000000E+03  0.50000000000E+03  0.00000000000E+00 0.  1.
         11   -1    0    0    0    0 -0.00000000000E+00 -0.00000000000E+00 -0.50000000000E+03  0.50000000000E+03  0.00000000000E+00 0. -1.
        -11    1    1    2    0    0 -0.13107408991E+02  0.39561206668E+01  0.45760074475E+03  0.45780552275E+03  0.00000000000E+00 0.  1.
         11    1    1    2    0    0  0.66892009160E+01  0.24980562834E+02 -0.48881325743E+03  0.48949685859E+03  0.00000000000E+00 0. -1.
        -15    1    1    2    0    0  0.13439542677E+02 -0.80995693381E+01  0.17454934804E+01  0.15888008287E+02  0.17770000000E+01 0.  1.
         15    1    1    2    0    0 -0.70213346028E+01 -0.20837114163E+02  0.29467019204E+02  0.36809610376E+02  0.17770000000E+01 0. -1.
</event>
<event>
 6    1  0.1823098E-004  0.5000896E+03  0.7546771E-02  0.9399609E-01
        -11   -1    0    0    0    0  0.00000000000E+00  0.00000000000E+00  0.50000000000E+03  0.50000000000E+03  0.00000000000E+00 0.  1.
         11   -1    0    0    0    0 -0.00000000000E+00 -0.00000000000E+00 -0.50000000000E+03  0.50000000000E+03  0.00000000000E+00 0. -1.
        -11    1    1    2    0    0  0.13749151341E+02  0.26983908217E+00  0.22796797572E+03  0.22838237658E+03  0.00000000000E+00 0.  1.
         11    1    1    2    0    0 -0.20732751560E+02  0.35150676129E+01 -0.49946791740E+03  0.49991039517E+03  0.00000000000E+00 0. -1.
        -15    1    1    2    0    0  0.70290470858E+01 -0.10362970899E+01  0.18102987017E+03  0.18117795958E+03  0.17770000000E+01 0.  1.
         15    1    1    2    0    0 -0.45446867088E-01 -0.27486096052E+01  0.90470071503E+02  0.90529268676E+02  0.17770000000E+01 0.  1.
</event>
<event>
 6    1  0.1823098E-004  0.5001206E+03  0.7546771E-02  0.9399540E-01
        -11   -1    0    0    0    0  0.00000000000E+00  0.00000000000E+00  0.50000000000E+03  0.50000000000E+03  0.00000000000E+00 0.  1.
         11   -1    0    0    0    0 -0.00000000000E+00 -0.00000000000E+00 -0.50000000000E+03  0.50000000000E+03  0.00000000000E+00 0.  1.
        -11    1    1    2    0    0  0.38086360286E+01  0.10245363586E+02  0.49975988289E+03  0.49987939918E+03  0.00000000000E+00 0.  1.
         11    1    1    2    0    0  0.47858495927E+01 -0.60818190488E+01 -0.17100722859E+03  0.17118225700E+03  0.00000000000E+00 0.  1.
        -15    1    1    2    0    0 -0.12404741049E+01 -0.12804003538E+01 -0.45121609097E+02  0.45191764045E+02  0.17770000000E+01 0.  1.
         15    1    1    2    0    0 -0.73540115163E+01 -0.28831441834E+01 -0.28363104520E+03  0.28374657978E+03  0.17770000000E+01 0.  1.
</event>
<event>
 6    1  0.1823098E-004  0.5010600E+03  0.7546771E-02  0.9397441E-01
        -11   -1    0    0    0    0  0.00000000000E+00  0.00000000000E+00  0.50000000000E+03  0.50000000000E+03  0.00000000000E+00 0.  1.
         11   -1    0    0    0    0 -0.00000000000E+00 -0.00000000000E+00 -0.50000000000E+03  0.50000000000E+03  0.00000000000E+00 0.  1.
        -11    1    1    2    0    0 -0.70171649182E+01  0.19782106646E+01  0.43250902884E+03  0.43257047281E+03  0.00000000000E+00 0.  1.
         11    1    1    2    0    0  0.28752309020E+01  0.10548172808E+02 -0.49882018579E+03  0.49893998502E+03  0.00000000000E+00 0.  1.
        -15    1    1    2    0    0  0.74026234846E+01 -0.69511263017E+01  0.44179334583E+02  0.45366158362E+02  0.17770000000E+01 0.  1.
         15    1    1    2    0    0 -0.32606894684E+01 -0.55752571709E+01  0.22131822368E+02  0.23123383806E+02  0.17770000000E+01 0. -1.
</event>
<event>
 6    1  0.1823098E-004  0.5000701E+03  0.7546771E-02  0.9399653E-01
        -11   -1    0    0    0    0  0.00000000000E+00  0.00000000000E+00  0.50000000000E+03  0.50000000000E+03  0.00000000000E+00 0. -1.
         11   -1    0    0    0    0 -0.00000000000E+00 -0.00000000000E+00 -0.50000000000E+03  0.50000000000E+03  0.00000000000E+00 0.  1.
        -11    1    1    2    0    0 -0.73238205337E+01 -0.71815650982E+01  0.49982471049E+03  0.49992994954E+03  0.00000000000E+00 0. -1.
         11    1    1    2    0    0  0.87569068899E+01  0.54356428705E+01 -0.30540323013E+03  0.30557709764E+03  0.00000000000E+00 0.  1.
        -15    1    1    2    0    0  0.33802715483E+00  0.14399679832E+01 -0.13211563635E+03  0.13213586518E+03  0.17770000000E+01 0.  1.
         15    1    1    2    0    0 -0.17711135110E+01  0.30595424448E+00 -0.62305844022E+02  0.62357087643E+02  0.17770000000E+01 0.  1.
</event>
<event>
 6    1  0.1823098E-004  0.5011830E+03  0.7546771E-02  0.9397167E-01
        -11   -1    0    0    0    0  0.00000000000E+00  0.00000000000E+00  0.50000000000E+03  0.50000000000E+03  0.00000000000E+00 0.  1.
         11   -1    0    0    0    0 -0.00000000000E+00 -0.00000000000E+00 -0.50000000000E+03  0.50000000000E+03  0.00000000000E+00 0.  1.
        -11    1    1    2    0    0  0.55561616366E+01 -0.42889440776E+01  0.49876763181E+03  0.49881701707E+03  0.00000000000E+00 0.  1.
         11    1    1    2    0    0 -0.16765642759E+01 -0.18548803380E+02 -0.23286162719E+03  0.23360523623E+03  0.00000000000E+00 0.  1.
        -15    1    1    2    0    0  0.54103620407E+01  0.35767623190E+01 -0.32560163425E+02  0.33247364066E+02  0.17770000000E+01 0.  1.
         15    1    1    2    0    0 -0.92899594014E+01  0.19260985139E+02 -0.23334584120E+03  0.23433038264E+03  0.17770000000E+01 0. -1.
</event>
<event>
 6    1  0.1823098E-004  0.5006485E+03  0.7546771E-02  0.9398360E-01
        -11   -1    0    0    0    0  0.00000000000E+00  0.00000000000E+00  0.50000000000E+03  0.50000000000E+03  0.00000000000E+00 0.  1.
         11   -1    0    0    0    0 -0.00000000000E+00 -0.00000000000E+00 -0.50000000000E+03  0.50000000000E+03  0.00000000000E+00 0. -1.
        -11    1    1    2    0    0 -0.44714164170E+01  0.19299216397E+01  0.32158485451E+03  0.32162172939E+03  0.00000000000E+00 0.  1.
         11    1    1    2    0    0  0.18464454531E+02 -0.98842132696E+01 -0.49891208325E+03  0.49935147998E+03  0.00000000000E+00 0. -1.
        -15    1    1    2    0    0  0.32042070287E+01  0.16079812184E+01  0.71282838937E+02  0.71395051664E+02  0.17770000000E+01 0. -1.
         15    1    1    2    0    0 -0.17197245143E+02  0.63463104115E+01  0.10604438980E+03  0.10763173896E+03  0.17770000000E+01 0.  1.
</event>
<event>
 6    1  0.1823098E-004  0.5009499E+03  0.7546771E-02  0.9397687E-01
        -11   -1    0    0    0    0  0.00000000000E+00  0.00000000000E+00  0.50000000000E+03  0.50000000000E+03  0.00000000000E+00 0. -1.
         11   -1    0    0    0    0 -0.00000000000E+00 -0.00000000000E+00 -0.50000000000E+03  0.50000000000E+03  0.00000000000E+00 0. -1.
        -11    1    1    2    0    0  0.47942549802E+01  0.41227177142E+01  0.46858896267E+03  0.46863162251E+03  0.00000000000E+00 0. -1.
         11    1    1    2    0    0 -0.57271704520E+01  0.53146717454E+01 -0.49898895220E+03  0.49905011836E+03  0.00000000000E+00 0. -1.
        -15    1    1    2    0    0  0.95417738164E+00 -0.23585759530E+01  0.49497180195E+01  0.58421547801E+01  0.17770000000E+01 0.  1.
         15    1    1    2    0    0 -0.21261909820E-01 -0.70788135066E+01  0.25450271511E+02  0.26476104353E+02  0.17770000000E+01 0. -1.
</event>
<event>
 6    1  0.1823098E-004  0.5005327E+03  0.7546771E-02  0.9398619E-01
        -11   -1    0    0    0    0  0.00000000000E+00  0.00000000000E+00  0.50000000000E+03  0.50000000000E+03  0.00000000000E+00 0.  1.
         11   -1    0    0    0    0 -0.00000000000E+00 -0.00000000000E+00 -0.50000000000E+03  0.50000000000E+03  0.00000000000E+00 0. -1.
        -11    1    1    2    0    0 -0.60633969599E+01 -0.13946744105E+02  0.49507554823E+03  0.49530907009E+03  0.00000000000E+00 0.  1.
         11    1    1    2    0    0 -0.41189333861E+01 -0.12020324279E+01  0.29792047809E+01  0.52236151584E+01  0.00000000000E+00 0. -1.
        -15    1    1    2    0    0  0.64436300988E+01  0.34014258482E+01 -0.44122140222E+03  0.44128513862E+03  0.17770000000E+01 0. -1.
         15    1    1    2    0    0  0.37387002472E+01  0.11747350685E+02 -0.56833350797E+02  0.58182176132E+02  0.17770000000E+01 0.  1.
</event>
<event>
 6    1  0.1823098E-004  0.5095160E+03  0.7546771E-02  0.9378765E-01
        -11   -1    0    0    0    0  0.00000000000E+00  0.00000000000E+00  0.50000000000E+03  0.50000000000E+03  0.00000000000E+00 0. -1.
         11   -1    0    0    0    0 -0.00000000000E+00 -0.00000000000E+00 -0.50000000000E+03  0.50000000000E+03  0.00000000000E+00 0. -1.
        -11    1    1    2    0    0  0.10717442899E+02  0.12525406527E+02  0.49020686280E+03  0.49048396276E+03  0.00000000000E+00 0. -1.
         11    1    1    2    0    0  0.13212588061E+00 -0.44575219210E+02 -0.22851942573E+03  0.23282632060E+03  0.00000000000E+00 0. -1.
        -15    1    1    2    0    0 -0.72753047527E+01  0.49997490504E+02 -0.24964105575E+03  0.25470864446E+03  0.17770000000E+01 0. -1.
         15    1    1    2    0    0 -0.35742640265E+01 -0.17947677821E+02 -0.12046381315E+02  0.21981072182E+02  0.17770000000E+01 0.  1.
</event>
<event>
 6    1  0.1823098E-004  0.5021419E+03  0.7546771E-02  0.9395030E-01
        -11   -1    0    0    0    0  0.00000000000E+00  0.00000000000E+00  0.50000000000E+03  0.50000000000E+03  0.00000000000E+00 0. -1.
         11   -1    0    0    0    0 -0.00000000000E+00 -0.00000000000E+00 -0.50000000000E+03  0.50000000000E+03  0.00000000000E+00 0.  1.
        -11    1    1    2    0    0  0.72063959867E+01 -0.11315496232E+01  0.49780461891E+03  0.49785806326E+03  0.00000000000E+00 0. -1.
         11    1    1    2    0    0  0.78967045303E+01  0.29536506678E+02 -0.20354768861E+03  0.20583105866E+03  0.00000000000E+00 0.  1.
        -15    1    1    2    0    0 -0.11245887804E+02 -0.24838604329E+02 -0.19572716779E+03  0.19762517096E+03  0.17770000000E+01 0.  1.
         15    1    1    2    0    0 -0.38572127134E+01 -0.35663527251E+01 -0.98529762508E+02  0.98685707124E+02  0.17770000000E+01 0. -1.
</event>
<event>
 6    1  0.1823098E-004  0.4865590E+03  0.7546771E-02  0.9430398E-01
        -11   -1    0    0    0    0  0.00000000000E+00  0.00000000000E+00  0.50000000000E+03  0.50000000000E+03  0.00000000000E+00 0. -1.
         11   -1    0    0    0    0 -0.00000000000E+00 -0.00000000000E+00 -0.50000000000E+03  0.50000000000E+03  0.00000000000E+00 0. -1.
        -11    1    1    2    0    0 -0.51494725031E+01  0.58615250045E+01  0.48657701564E+03  0.48663956548E+03  0.00000000000E+00 0. -1.
         11    1    1    2    0    0 -0.13002054255E+02 -0.10884500579E+02 -0.48636522486E+03  0.48666072136E+03  0.00000000000E+00 0. -1.
        -15    1    1    2    0    0  0.51728707518E+01 -0.69832947150E+01 -0.90755690042E+00  0.89166353194E+01  0.17770000000E+01 0.  1.
         15    1    1    2    0    0  0.12978656007E+02  0.12006270289E+02  0.69576611957E+00  0.17783077841E+02  0.17770000000E+01 0. -1.
</event>
<event>
 6    1  0.1823098E-004  0.4787385E+03  0.7546771E-02  0.9448682E-01
        -11   -1    0    0    0    0  0.00000000000E+00  0.00000000000E+00  0.50000000000E+03  0.50000000000E+03  0.00000000000E+00 0.  1.
         11   -1    0    0    0    0 -0.00000000000E+00 -0.00000000000E+00 -0.50000000000E+03  0.50000000000E+03  0.00000000000E+00 0. -1.
        -11    1    1    2    0    0 -0.75336057992E+01  0.14485958412E+02  0.48336133055E+03  0.48363702720E+03  0.00000000000E+00 0.  1.
         11    1    1    2    0    0  0.19658538894E+02  0.20935247254E+02 -0.47375025195E+03  0.47461989418E+03  0.00000000000E+00 0. -1.
        -15    1    1    2    0    0 -0.44261094993E+00 -0.19635613691E+02  0.19293947584E+00  0.19721769295E+02  0.17770000000E+01 0. -1.
         15    1    1    2    0    0 -0.11682322145E+02 -0.15785591975E+02 -0.98040180793E+01  0.22021309321E+02  0.17770000000E+01 0.  1.
</event>
<event>
 6    1  0.1823098E-004  0.5067707E+03  0.7546771E-02  0.9384786E-01
        -11   -1    0    0    0    0  0.00000000000E+00  0.00000000000E+00  0.50000000000E+03  0.50000000000E+03  0.00000000000E+00 0. -1.
         11   -1    0    0    0    0 -0.00000000000E+00 -0.00000000000E+00 -0.50000000000E+03  0.50000000000E+03  0.00000000000E+00 0. -1.
        -11    1    1    2    0    0 -0.63178646991E+01 -0.11260501385E+02  0.49306023031E+03  0.49322926213E+03  0.00000000000E+00 0. -1.
         11    1    1    2    0    0 -0.98194748856E+01  0.32147054378E+02 -0.42876351304E+03  0.43007906867E+03  0.00000000000E+00 0. -1.
        -15    1    1    2    0    0  0.24676139127E+02 -0.77324177905E+01 -0.37347873775E+02  0.45461231083E+02  0.17770000000E+01 0.  1.
         15    1    1    2    0    0 -0.85387995418E+01 -0.13154135203E+02 -0.26948843494E+02  0.31230438121E+02  0.17770000000E+01 0. -1.
</event>
<event>
 6    1  0.1823098E-004  0.5007422E+03  0.7546771E-02  0.9398150E-01
        -11   -1    0    0    0    0  0.00000000000E+00  0.00000000000E+00  0.50000000000E+03  0.50000000000E+03  0.00000000000E+00 0.  1.
         11   -1    0    0    0    0 -0.00000000000E+00 -0.00000000000E+00 -0.50000000000E+03  0.50000000000E+03  0.00000000000E+00 0. -1.
        -11    1    1    2    0    0  0.99823359005E+01  0.61444787908E+00  0.44238475113E+03  0.44249778825E+03  0.00000000000E+00 0.  1.
         11    1    1    2    0    0 -0.15068139803E+01 -0.91951258959E+01 -0.49917081288E+03  0.49925777035E+03  0.00000000000E+00 0. -1.
        -15    1    1    2    0    0 -0.28522753785E+01  0.37455434827E+01  0.16791674971E+02  0.17529479403E+02  0.17770000000E+01 0. -1.
         15    1    1    2    0    0 -0.56232465418E+01  0.48351345341E+01  0.39994386779E+02  0.40714961997E+02  0.17770000000E+01 0.  1.
</event>
<event>
 6    1  0.1823098E-004  0.5034108E+03  0.7546771E-02  0.9392210E-01
        -11   -1    0    0    0    0  0.00000000000E+00  0.00000000000E+00  0.50000000000E+03  0.50000000000E+03  0.00000000000E+00 0. -1.
         11   -1    0    0    0    0 -0.00000000000E+00 -0.00000000000E+00 -0.50000000000E+03  0.50000000000E+03  0.00000000000E+00 0.  1.
        -11    1    1    2    0    0  0.46896778925E+01  0.84621267402E+01  0.35179196565E+03  0.35192497462E+03  0.00000000000E+00 0. -1.
         11    1    1    2    0    0  0.21552930984E+02  0.21913781183E+02 -0.49563701262E+03  0.49658915707E+03  0.00000000000E+00 0.  1.
        -15    1    1    2    0    0  0.20066961252E+01 -0.62573466892E+01  0.51287066841E+02  0.51736855056E+02  0.17770000000E+01 0.  1.
         15    1    1    2    0    0 -0.28249305001E+02 -0.24118561234E+02  0.92557980132E+02  0.99749013249E+02  0.17770000000E+01 0. -1.
</event>
<event>
 6    1  0.1823098E-004  0.5000618E+03  0.7546771E-02  0.9399671E-01
        -11   -1    0    0    0    0  0.00000000000E+00  0.00000000000E+00  0.50000000000E+03  0.50000000000E+03  0.00000000000E+00 0. -1.
         11   -1    0    0    0    0 -0.00000000000E+00 -0.00000000000E+00 -0.50000000000E+03  0.50000000000E+03  0.00000000000E+00 0.  1.
        -11    1    1    2    0    0 -0.24202809427E+01 -0.10543577247E+02  0.49982111159E+03  0.49993816455E+03  0.00000000000E+00 0. -1.
         11    1    1    2    0    0  0.26689607509E+01  0.10797711515E+02 -0.39312309110E+03  0.39328040719E+03  0.00000000000E+00 0.  1.
        -15    1    1    2    0    0  0.95644897987E+00 -0.18094964813E+00 -0.59610809864E+02  0.59645233834E+02  0.17770000000E+01 0. -1.
         15    1    1    2    0    0 -0.12051287880E+01 -0.73184619407E-01 -0.47087210631E+02  0.47136194430E+02  0.17770000000E+01 0.  1.
</event>
<event>
 6    1  0.1823098E-004  0.5119200E+03  0.7546771E-02  0.9373526E-01
        -11   -1    0    0    0    0  0.00000000000E+00  0.00000000000E+00  0.50000000000E+03  0.50000000000E+03  0.00000000000E+00 0. -1.
         11   -1    0    0    0    0 -0.00000000000E+00 -0.00000000000E+00 -0.50000000000E+03  0.50000000000E+03  0.00000000000E+00 0. -1.
        -11    1    1    2    0    0  0.29890190633E+00 -0.15570486570E+02  0.48783150145E+03  0.48808001721E+03  0.00000000000E+00 0. -1.
         11    1    1    2    0    0 -0.24866646875E+02  0.25303797342E+02 -0.19583971953E+03  0.19902720426E+03  0.00000000000E+00 0. -1.
        -15    1    1    2    0    0  0.11370313471E+01  0.96107251794E+01  0.71775465012E+01  0.12179235671E+02  0.17770000000E+01 0. -1.
         15    1    1    2    0    0  0.23430713621E+02 -0.19344035951E+02 -0.29916932842E+03  0.30071354286E+03  0.17770000000E+01 0.  1.
</event>
<event>
 6    1  0.1823098E-004  0.5007098E+03  0.7546771E-02  0.9398223E-01
        -11   -1    0    0    0    0  0.00000000000E+00  0.00000000000E+00  0.50000000000E+03  0.50000000000E+03  0.00000000000E+00 0. -1.
         11   -1    0    0    0    0 -0.00000000000E+00 -0.00000000000E+00 -0.50000000000E+03  0.50000000000E+03  0.00000000000E+00 0. -1.
        -11    1    1    2    0    0 -0.95373977132E+01  0.10007367845E+01  0.49919813674E+03  0.49929023940E+03  0.00000000000E+00 0. -1.
         11    1    1    2    0    0 -0.51655433767E+01 -0.12046679262E+02 -0.31646375366E+03  0.31673508283E+03  0.00000000000E+00 0. -1.
        -15    1    1    2    0    0  0.24110749439E+01 -0.47908155696E+00 -0.11131213670E+02  0.11537090113E+02  0.17770000000E+01 0. -1.
         15    1    1    2    0    0  0.12291866146E+02  0.11525024034E+02 -0.17160316942E+03  0.17243758765E+03  0.17770000000E+01 0.  1.
</event>
<event>
 6    1  0.1823098E-004  0.5001510E+03  0.7546771E-02  0.9399472E-01
        -11   -1    0    0    0    0  0.00000000000E+00  0.00000000000E+00  0.50000000000E+03  0.50000000000E+03  0.00000000000E+00 0. -1.
         11   -1    0    0    0    0 -0.00000000000E+00 -0.00000000000E+00 -0.50000000000E+03  0.50000000000E+03  0.00000000000E+00 0. -1.
        -11    1    1    2    0    0 -0.70381665052E+01  0.15825402242E+02  0.49954885568E+03  0.49984901556E+03  0.00000000000E+00 0. -1.
         11    1    1    2    0    0  0.24088938176E+01 -0.84057678090E+01 -0.77979751743E+02  0.78468473821E+02  0.00000000000E+00 0. -1.
        -15    1    1    2    0    0  0.35394318363E+01 -0.35046553123E+01 -0.25136095747E+03  0.25141658429E+03  0.17770000000E+01 0. -1.
         15    1    1    2    0    0  0.10898408513E+01 -0.39149791202E+01 -0.17020814647E+03  0.17026592633E+03  0.17770000000E+01 0. -1.
</event>
<event>
 6    1  0.1823098E-004  0.5032389E+03  0.7546771E-02  0.9392592E-01
        -11   -1    0    0    0    0  0.00000000000E+00  0.00000000000E+00  0.50000000000E+03  0.50000000000E+03  0.00000000000E+00 0.  1.
         11   -1    0    0    0    0 -0.00000000000E+00 -0.00000000000E+00 -0.50000000000E+03  0.50000000000E+03  0.00000000000E+00 0. -1.
        -11    1    1    2    0    0 -0.59819454250E+01 -0.41020678903E+01  0.49670818938E+03  0.49676114585E+03  0.00000000000E+00 0.  1.
         11    1    1    2    0    0  0.14509288038E+02  0.90538951423E+01 -0.46727987140E+03  0.46759274018E+03  0.00000000000E+00 0. -1.
        -15    1    1    2    0    0 -0.10763848544E+02 -0.72750879973E+01 -0.29138096530E+02  0.31952679688E+02  0.17770000000E+01 0.  1.
         15    1    1    2    0    0  0.22365059311E+01  0.23232607452E+01 -0.29022144675E+00  0.36934342770E+01  0.17770000000E+01 0. -1.
</event>
<event>
 6    1  0.1823098E-004  0.5027594E+03  0.7546771E-02  0.9393657E-01
        -11   -1    0    0    0    0  0.00000000000E+00  0.00000000000E+00  0.50000000000E+03  0.50000000000E+03  0.00000000000E+00 0. -1.
         11   -1    0    0    0    0 -0.00000000000E+00 -0.00000000000E+00 -0.50000000000E+03  0.50000000000E+03  0.00000000000E+00 0.  1.
        -11    1    1    2    0    0  0.64874420111E+01  0.93716737258E+01  0.45397341254E+03  0.45411647676E+03  0.00000000000E+00 0. -1.
         11    1    1    2    0    0  0.48199673248E+01  0.30343370690E+01  0.42746394141E+02  0.43124163743E+02  0.00000000000E+00 0.  1.
        -15    1    1    2    0    0  0.78154030124E+01 -0.38507538832E+02 -0.17266633724E+03  0.17708961804E+03  0.17770000000E+01 0.  1.
         15    1    1    2    0    0 -0.19122812348E+02  0.26101528037E+02 -0.32405346944E+03  0.32566974146E+03  0.17770000000E+01 0. -1.
</event>
<event>
 6    1  0.1823098E-004  0.5006543E+03  0.7546771E-02  0.9398347E-01
        -11   -1    0    0    0    0  0.00000000000E+00  0.00000000000E+00  0.50000000000E+03  0.50000000000E+03  0.00000000000E+00 0.  1.
         11   -1    0    0    0    0 -0.00000000000E+00 -0.00000000000E+00 -0.50000000000E+03  0.50000000000E+03  0.00000000000E+00 0.  1.
        -11    1    1    2    0    0 -0.54752667487E+01  0.42834034620E+01  0.45804876656E+03  0.45810151565E+03  0.00000000000E+00 0.  1.
         11    1    1    2    0    0  0.70895728306E+01  0.40350741125E+01 -0.49927910466E+03  0.49934574016E+03  0.00000000000E+00 0.  1.
        -15    1    1    2    0    0  0.11647650767E+00 -0.16870396070E+01  0.20509067621E+02  0.20655247592E+02  0.17770000000E+01 0. -1.
         15    1    1    2    0    0 -0.17307825895E+01 -0.66314379674E+01  0.20721270481E+02  0.21897496598E+02  0.17770000000E+01 0.  1.
</event>
<event>
 6    1  0.1823098E-004  0.5007776E+03  0.7546771E-02  0.9398072E-01
        -11   -1    0    0    0    0  0.00000000000E+00  0.00000000000E+00  0.50000000000E+03  0.50000000000E+03  0.00000000000E+00 0.  1.
         11   -1    0    0    0    0 -0.00000000000E+00 -0.00000000000E+00 -0.50000000000E+03  0.50000000000E+03  0.00000000000E+00 0. -1.
        -11    1    1    2    0    0  0.42751481019E+01 -0.11753023593E+02  0.49906574519E+03  0.49922242386E+03  0.00000000000E+00 0.  1.
         11    1    1    2    0    0  0.42064841460E+01  0.47184534675E+01 -0.43230560975E+03  0.43235182264E+03  0.00000000000E+00 0. -1.
        -15    1    1    2    0    0 -0.73253890806E+00 -0.10209400428E+01 -0.32266639032E+01  0.38920458331E+01  0.17770000000E+01 0. -1.
         15    1    1    2    0    0 -0.77490933398E+01  0.80555101688E+01 -0.63533471537E+02  0.64533707674E+02  0.17770000000E+01 0. -1.
</event>
<event>
 6    1  0.1823098E-004  0.4083451E+03  0.7546771E-02  0.9632060E-01
        -11   -1    0    0    0    0  0.00000000000E+00  0.00000000000E+00  0.50000000000E+03  0.50000000000E+03  0.00000000000E+00 0. -1.
         11   -1    0    0    0    0 -0.00000000000E+00 -0.00000000000E+00 -0.50000000000E+03  0.50000000000E+03  0.00000000000E+00 0.  1.
        -11    1    1    2    0    0  0.26964845650E+02 -0.34556536598E+02  0.37775025654E+03  0.38028477940E+03  0.00000000000E+00 0. -1.
         11    1    1    2    0    0  0.11781407664E+03 -0.10068255885E+02 -0.43670319322E+03  0.45242812181E+03  0.00000000000E+00 0.  1.
        -15    1    1    2    0    0 -0.10572457658E+03  0.46738088639E+02  0.32685532912E+02  0.12014007164E+03  0.17770000000E+01 0. -1.
         15    1    1    2    0    0 -0.39054345716E+02 -0.21132961560E+01  0.26267403769E+02  0.47147027156E+02  0.17770000000E+01 0.  1.
</event>
<event>
 6    1  0.1823098E-004  0.5002423E+03  0.7546771E-02  0.9399268E-01
        -11   -1    0    0    0    0  0.00000000000E+00  0.00000000000E+00  0.50000000000E+03  0.50000000000E+03  0.00000000000E+00 0. -1.
         11   -1    0    0    0    0 -0.00000000000E+00 -0.00000000000E+00 -0.50000000000E+03  0.50000000000E+03  0.00000000000E+00 0.  1.
        -11    1    1    2    0    0  0.53465099776E+01  0.54667460294E+01  0.49969917381E+03  0.49975767607E+03  0.00000000000E+00 0. -1.
         11    1    1    2    0    0  0.53585102105E+00 -0.10576402519E+02 -0.13144874452E+03  0.13187463692E+03  0.00000000000E+00 0.  1.
        -15    1    1    2    0    0 -0.78857324900E+00  0.18110433615E+01 -0.70354982445E+02  0.70405134825E+02  0.17770000000E+01 0. -1.
         15    1    1    2    0    0 -0.50937877496E+01  0.32986131276E+01 -0.29789544685E+03  0.29796255218E+03  0.17770000000E+01 0.  1.
</event>
<event>
 6    1  0.1823098E-004  0.5004947E+03  0.7546771E-02  0.9398704E-01
        -11   -1    0    0    0    0  0.00000000000E+00  0.00000000000E+00  0.50000000000E+03  0.50000000000E+03  0.00000000000E+00 0.  1.
         11   -1    0    0    0    0 -0.00000000000E+00 -0.00000000000E+00 -0.50000000000E+03  0.50000000000E+03  0.00000000000E+00 0.  1.
        -11    1    1    2    0    0 -0.90762191158E+01 -0.13380704965E+02  0.49924357051E+03  0.49950531900E+03  0.00000000000E+00 0.  1.
         11    1    1    2    0    0  0.17609248612E+02  0.30347311432E+00 -0.19963224156E+03  0.20040760865E+03  0.00000000000E+00 0.  1.
        -15    1    1    2    0    0 -0.78409027715E+01  0.11526099515E+02 -0.27333166555E+03  0.27369268870E+03  0.17770000000E+01 0.  1.
         15    1    1    2    0    0 -0.69212672437E+00  0.15511323359E+01 -0.26279663400E+02  0.26394383651E+02  0.17770000000E+01 0.  1.
</event>
<event>
 6    1  0.1823098E-004  0.5026229E+03  0.7546771E-02  0.9393960E-01
        -11   -1    0    0    0    0  0.00000000000E+00  0.00000000000E+00  0.50000000000E+03  0.50000000000E+03  0.00000000000E+00 0.  1.
         11   -1    0    0    0    0 -0.00000000000E+00 -0.00000000000E+00 -0.50000000000E+03  0.50000000000E+03  0.00000000000E+00 0. -1.
        -11    1    1    2    0    0  0.43726632280E+01 -0.10924023040E+02  0.39354664757E+03  0.39372251431E+03  0.00000000000E+00 0.  1.
         11    1    1    2    0    0  0.74474139227E+01  0.36774109329E+02 -0.49595987685E+03  0.49737711903E+03  0.00000000000E+00 0. -1.
        -15    1    1    2    0    0  0.33326417010E+01  0.26392093240E+01  0.10336398432E+02  0.11316836489E+02  0.17770000000E+01 0. -1.
         15    1    1    2    0    0 -0.15152718852E+02 -0.28489295613E+02  0.92076830845E+02  0.97583530171E+02  0.17770000000E+01 0.  1.
</event>
<event>
 6    1  0.1823098E-004  0.5000415E+03  0.7546771E-02  0.9399717E-01
        -11   -1    0    0    0    0  0.00000000000E+00  0.00000000000E+00  0.50000000000E+03  0.50000000000E+03  0.00000000000E+00 0. -1.
         11   -1    0    0    0    0 -0.00000000000E+00 -0.00000000000E+00 -0.50000000000E+03  0.50000000000E+03  0.00000000000E+00 0. -1.
        -11    1    1    2    0    0  0.11050736784E+02  0.15632730833E+01  0.49983392094E+03  0.49995850940E+03  0.00000000000E+00 0. -1.
         11    1    1    2    0    0 -0.82106021108E+01 -0.22061115514E+01 -0.21877555779E+03  0.21894068969E+03  0.00000000000E+00 0. -1.
        -15    1    1    2    0    0 -0.59962510805E+00 -0.23716178685E+00 -0.11273719535E+03  0.11275304315E+03  0.17770000000E+01 0. -1.
         15    1    1    2    0    0 -0.22405095648E+01  0.88000025492E+00 -0.16832116780E+03  0.16834775775E+03  0.17770000000E+01 0. -1.
</event>
<event>
 6    1  0.1823098E-004  0.5003879E+03  0.7546771E-02  0.9398942E-01
        -11   -1    0    0    0    0  0.00000000000E+00  0.00000000000E+00  0.50000000000E+03  0.50000000000E+03  0.00000000000E+00 0. -1.
         11   -1    0    0    0    0 -0.00000000000E+00 -0.00000000000E+00 -0.50000000000E+03  0.50000000000E+03  0.00000000000E+00 0. -1.
        -11    1    1    2    0    0 -0.37309899591E+01  0.15381374703E+01  0.19806920772E+03  0.19811031573E+03  0.00000000000E+00 0. -1.
         11    1    1    2    0    0 -0.22571437955E+02 -0.65223310066E+01 -0.49905938679E+03  0.49961213171E+03  0.00000000000E+00 0. -1.
        -15    1    1    2    0    0  0.24106185769E+02  0.56376580635E+01  0.25863582842E+03  0.25982405750E+03  0.17770000000E+01 0. -1.
         15    1    1    2    0    0  0.21962421448E+01 -0.65346452714E+00  0.42354350642E+02  0.42453495059E+02  0.17770000000E+01 0. -1.
</event>
<event>
 6    1  0.1823098E-004  0.4795068E+03  0.7546771E-02  0.9446870E-01
        -11   -1    0    0    0    0  0.00000000000E+00  0.00000000000E+00  0.50000000000E+03  0.50000000000E+03  0.00000000000E+00 0.  1.
         11   -1    0    0    0    0 -0.00000000000E+00 -0.00000000000E+00 -0.50000000000E+03  0.50000000000E+03  0.00000000000E+00 0. -1.
        -11    1    1    2    0    0 -0.82951844231E+01  0.25411567709E+01  0.48845488304E+03  0.48853192355E+03  0.00000000000E+00 0.  1.
         11    1    1    2    0    0 -0.22030868464E+02  0.10703747751E+02 -0.47058185286E+03  0.47121885533E+03  0.00000000000E+00 0. -1.
        -15    1    1    2    0    0  0.28252452998E+02 -0.15715078377E+02 -0.16206454583E+02  0.36207343012E+02  0.17770000000E+01 0.  1.
         15    1    1    2    0    0  0.20735998887E+01  0.24701738553E+01 -0.16665756004E+01  0.40418781038E+01  0.17770000000E+01 0. -1.
</event>
<event>
 6    1  0.1823098E-004  0.4854726E+03  0.7546771E-02  0.9432916E-01
        -11   -1    0    0    0    0  0.00000000000E+00  0.00000000000E+00  0.50000000000E+03  0.50000000000E+03  0.00000000000E+00 0.  1.
         11   -1    0    0    0    0 -0.00000000000E+00 -0.00000000000E+00 -0.50000000000E+03  0.50000000000E+03  0.00000000000E+00 0.  1.
        -11    1    1    2    0    0 -0.62564895593E+01  0.43595705119E+01  0.49180683223E+03  0.49186594692E+03  0.00000000000E+00 0.  1.
         11    1    1    2    0    0 -0.15739633084E+02 -0.99713114655E+01 -0.47906602958E+03  0.47942822591E+03  0.00000000000E+00 0.  1.
        -15    1    1    2    0    0  0.71001938837E+00 -0.20664644855E+01 -0.32860848265E+00  0.28355097490E+01  0.17770000000E+01 0.  1.
         15    1    1    2    0    0  0.21286103255E+02  0.76782054391E+01 -0.12412194167E+02  0.25870317424E+02  0.17770000000E+01 0. -1.
</event>
<event>
 6    1  0.1823098E-004  0.5008419E+03  0.7546771E-02  0.9397928E-01
        -11   -1    0    0    0    0  0.00000000000E+00  0.00000000000E+00  0.50000000000E+03  0.50000000000E+03  0.00000000000E+00 0. -1.
         11   -1    0    0    0    0 -0.00000000000E+00 -0.00000000000E+00 -0.50000000000E+03  0.50000000000E+03  0.00000000000E+00 0. -1.
        -11    1    1    2    0    0  0.33863786271E+00  0.68300924072E+01  0.40751873259E+03  0.40757610608E+03  0.00000000000E+00 0. -1.
         11    1    1    2    0    0 -0.87466861026E+01  0.24052377064E+01 -0.49907564624E+03  0.49915808153E+03  0.00000000000E+00 0. -1.
        -15    1    1    2    0    0  0.89503977153E+01 -0.75988834495E+01  0.41981739753E+02  0.43628853419E+02  0.17770000000E+01 0. -1.
         15    1    1    2    0    0 -0.54234947543E+00 -0.16364466642E+01  0.49575173894E+02  0.49636958975E+02  0.17770000000E+01 0.  1.
</event>
<event>
 6    1  0.1823098E-004  0.5004227E+03  0.7546771E-02  0.9398864E-01
        -11   -1    0    0    0    0  0.00000000000E+00  0.00000000000E+00  0.50000000000E+03  0.50000000000E+03  0.00000000000E+00 0. -1.
         11   -1    0    0    0    0 -0.00000000000E+00 -0.00000000000E+00 -0.50000000000E+03  0.50000000000E+03  0.00000000000E+00 0. -1.
        -11    1    1    2    0    0  0.48834128243E+01  0.25092386458E+01  0.35671799912E+03  0.35676024848E+03  0.00000000000E+00 0. -1.
         11    1    1    2    0    0 -0.10449869725E+00  0.12315379130E+02 -0.49942551070E+03  0.49957734158E+03  0.00000000000E+00 0. -1.
        -15    1    1    2    0    0 -0.16861088721E+01 -0.10982871054E+02  0.10195356874E+03  0.10257267827E+03  0.17770000000E+01 0. -1.
         15    1    1    2    0    0 -0.30928052549E+01 -0.38417467222E+01  0.40753942841E+02  0.41089731665E+02  0.17770000000E+01 0.  1.
</event>
<event>
 6    1  0.1823098E-004  0.5002362E+03  0.7546771E-02  0.9399281E-01
        -11   -1    0    0    0    0  0.00000000000E+00  0.00000000000E+00  0.50000000000E+03  0.50000000000E+03  0.00000000000E+00 0.  1.
         11   -1    0    0    0    0 -0.00000000000E+00 -0.00000000000E+00 -0.50000000000E+03  0.50000000000E+03  0.00000000000E+00 0.  1.
        -11    1    1    2    0    0  0.45459862862E+01  0.68744193881E+00  0.64328641237E+02  0.64492733321E+02  0.00000000000E+00 0.  1.
         11    1    1    2    0    0  0.52958057703E+00  0.17707414781E+02 -0.49944975224E+03  0.49976383223E+03  0.00000000000E+00 0.  1.
        -15    1    1    2    0    0 -0.37009953738E+01 -0.71351273240E+01  0.77091034254E+02  0.77529302203E+02  0.17770000000E+01 0. -1.
         15    1    1    2    0    0 -0.13745714894E+01 -0.11259729396E+02  0.35803007675E+03  0.35821413224E+03  0.17770000000E+01 0.  1.
</event>
<event>
 6    1  0.1823098E-004  0.5004319E+03  0.7546771E-02  0.9398844E-01
        -11   -1    0    0    0    0  0.00000000000E+00  0.00000000000E+00  0.50000000000E+03  0.50000000000E+03  0.00000000000E+00 0.  1.
         11   -1    0    0    0    0 -0.00000000000E+00 -0.00000000000E+00 -0.50000000000E+03  0.50000000000E+03  0.00000000000E+00 0. -1.
        -11    1    1    2    0    0 -0.76708014947E+01  0.18658860771E+01  0.49950571835E+03  0.49956809885E+03  0.00000000000E+00 0.  1.
         11    1    1    2    0    0  0.55078936374E+01  0.11238766117E+02 -0.12043082045E+03  0.12107943372E+03  0.00000000000E+00 0. -1.
        -15    1    1    2    0    0  0.24734971116E+01 -0.11564271336E+02 -0.29096666171E+03  0.29121230488E+03  0.17770000000E+01 0.  1.
         15    1    1    2    0    0 -0.31058925431E+00 -0.15403808582E+01 -0.88108236193E+02  0.88140162542E+02  0.17770000000E+01 0. -1.
</event>
<event>
 6    1  0.1823098E-004  0.5001598E+03  0.7546771E-02  0.9399452E-01
        -11   -1    0    0    0    0  0.00000000000E+00  0.00000000000E+00  0.50000000000E+03  0.50000000000E+03  0.00000000000E+00 0.  1.
         11   -1    0    0    0    0 -0.00000000000E+00 -0.00000000000E+00 -0.50000000000E+03  0.50000000000E+03  0.00000000000E+00 0. -1.
        -11    1    1    2    0    0 -0.18132490299E+01 -0.10146636206E+02  0.49973389463E+03  0.49984018200E+03  0.00000000000E+00 0.  1.
         11    1    1    2    0    0 -0.39468016368E+01  0.95434607077E+01 -0.36593813840E+03  0.36608383742E+03  0.00000000000E+00 0. -1.
        -15    1    1    2    0    0  0.27501848469E+01 -0.12303156530E+01 -0.29674532599E+02  0.29879973347E+02  0.17770000000E+01 0.  1.
         15    1    1    2    0    0  0.30098658197E+01  0.18334911515E+01 -0.10412122363E+03  0.10419600723E+03  0.17770000000E+01 0.  1.
</event>
<event>
 6    1  0.1823098E-004  0.5006758E+03  0.7546771E-02  0.9398299E-01
        -11   -1    0    0    0    0  0.00000000000E+00  0.00000000000E+00  0.50000000000E+03  0.50000000000E+03  0.00000000000E+00 0.  1.
         11   -1    0    0    0    0 -0.00000000000E+00 -0.00000000000E+00 -0.50000000000E+03  0.50000000000E+03  0.00000000000E+00 0.  1.
        -11    1    1    2    0    0  0.19755377448E+02  0.34879665272E+02  0.49771260732E+03  0.49932424883E+03  0.00000000000E+00 0.  1.
         11    1    1    2    0    0 -0.21773382409E+02 -0.36771096385E+02 -0.32219349395E+03  0.32501514004E+03  0.00000000000E+00 0.  1.
        -15    1    1    2    0    0  0.37041598123E+01  0.18568333327E+01 -0.99617699992E+02  0.99719669627E+02  0.17770000000E+01 0.  1.
         15    1    1    2    0    0 -0.16861548511E+01  0.34597780425E-01 -0.75901413371E+02  0.75940941500E+02  0.17770000000E+01 0. -1.
</event>
<event>
 6    1  0.1823098E-004  0.5066413E+03  0.7546771E-02  0.9385071E-01
        -11   -1    0    0    0    0  0.00000000000E+00  0.00000000000E+00  0.50000000000E+03  0.50000000000E+03  0.00000000000E+00 0.  1.
         11   -1    0    0    0    0 -0.00000000000E+00 -0.00000000000E+00 -0.50000000000E+03  0.50000000000E+03  0.00000000000E+00 0. -1.
        -11    1    1    2    0    0 -0.44729943306E+01  0.62561936905E+01  0.49329870786E+03  0.49335865536E+03  0.00000000000E+00 0.  1.
         11    1    1    2    0    0  0.25673831541E+02 -0.13497745737E+02 -0.44527593635E+03  0.44621967041E+03  0.00000000000E+00 0. -1.
        -15    1    1    2    0    0 -0.26594972319E+02  0.10653670112E+02 -0.44399219912E+02  0.52870045369E+02  0.17770000000E+01 0. -1.
         15    1    1    2    0    0  0.53941351093E+01 -0.34121180653E+01 -0.36235515994E+01  0.75516288615E+01  0.17770000000E+01 0. -1.
</event>
<event>
 6    1  0.1823098E-004  0.5066738E+03  0.7546771E-02  0.9384999E-01
        -11   -1    0    0    0    0  0.00000000000E+00  0.00000000000E+00  0.50000000000E+03  0.50000000000E+03  0.00000000000E+00 0.  1.
         11   -1    0    0    0    0 -0.00000000000E+00 -0.00000000000E+00 -0.50000000000E+03  0.50000000000E+03  0.00000000000E+00 0. -1.
        -11    1    1    2    0    0 -0.59063412082E+01  0.11464356361E+02  0.49315760231E+03  0.49332619741E+03  0.00000000000E+00 0.  1.
         11    1    1    2    0    0  0.35890840315E+01  0.68961388604E+01 -0.47722486346E+03  0.47728818188E+03  0.00000000000E+00 0. -1.
        -15    1    1    2    0    0  0.11768979099E+01 -0.79647814611E+00  0.28080092373E+01  0.36141542586E+01  0.17770000000E+01 0.  1.
         15    1    1    2    0    0  0.11403592667E+01 -0.17564017075E+02 -0.18740748093E+02  0.25771466453E+02  0.17770000000E+01 0. -1.
</event>
<event>
 6    1  0.1823098E-004  0.5005202E+03  0.7546771E-02  0.9398647E-01
        -11   -1    0    0    0    0  0.00000000000E+00  0.00000000000E+00  0.50000000000E+03  0.50000000000E+03  0.00000000000E+00 0.  1.
         11   -1    0    0    0    0 -0.00000000000E+00 -0.00000000000E+00 -0.50000000000E+03  0.50000000000E+03  0.00000000000E+00 0.  1.
        -11    1    1    2    0    0  0.76052750007E+01  0.84882967809E+00  0.49942121582E+03  0.49947984096E+03  0.00000000000E+00 0.  1.
         11    1    1    2    0    0 -0.48891278178E+01 -0.98479205790E+01 -0.39828119119E+03  0.39843292079E+03  0.00000000000E+00 0.  1.
        -15    1    1    2    0    0 -0.23619566164E+01 -0.14332634711E+01 -0.24458068772E+02  0.24677681015E+02  0.17770000000E+01 0. -1.
         15    1    1    2    0    0 -0.35419056642E+00  0.10432354372E+02 -0.76681955853E+02  0.77409557234E+02  0.17770000000E+01 0.  1.
</event>
<event>
 6    1  0.1823098E-004  0.5001901E+03  0.7546771E-02  0.9399384E-01
        -11   -1    0    0    0    0  0.00000000000E+00  0.00000000000E+00  0.50000000000E+03  0.50000000000E+03  0.00000000000E+00 0.  1.
         11   -1    0    0    0    0 -0.00000000000E+00 -0.00000000000E+00 -0.50000000000E+03  0.50000000000E+03  0.00000000000E+00 0.  1.
        -11    1    1    2    0    0 -0.58579440507E+01 -0.10728491837E+02  0.49966038249E+03  0.49980987773E+03  0.00000000000E+00 0.  1.
         11    1    1    2    0    0 -0.28122351691E+01 -0.25479478488E+01 -0.33996898102E+02  0.34208036854E+02  0.00000000000E+00 0.  1.
        -15    1    1    2    0    0  0.81965534709E+01  0.12064292696E+02 -0.36698067054E+03  0.36727469410E+03  0.17770000000E+01 0.  1.
         15    1    1    2    0    0  0.47362574893E+00  0.12121469902E+01 -0.98682813850E+02  0.98707391314E+02  0.17770000000E+01 0.  1.
</event>
<event>
 6    1  0.1823098E-004  0.5416504E+03  0.7546771E-02  0.9311152E-01
        -11   -1    0    0    0    0  0.00000000000E+00  0.00000000000E+00  0.50000000000E+03  0.50000000000E+03  0.00000000000E+00 0. -1.
         11   -1    0    0    0    0 -0.00000000000E+00 -0.00000000000E+00 -0.50000000000E+03  0.50000000000E+03  0.00000000000E+00 0.  1.
        -11    1    1    2    0    0  0.12537266045E+02  0.32791894349E+01  0.45816635560E+03  0.45834958877E+03  0.00000000000E+00 0. -1.
         11    1    1    2    0    0  0.99089695092E+02  0.50861083405E+02 -0.21055753913E+03  0.23820179421E+03  0.00000000000E+00 0.  1.
        -15    1    1    2    0    0 -0.82312046910E+02 -0.87666706193E+02 -0.12719108448E+03  0.17504700552E+03  0.17770000000E+01 0. -1.
         15    1    1    2    0    0 -0.29314914228E+02  0.33526433354E+02 -0.12041773199E+03  0.12840161150E+03  0.17770000000E+01 0.  1.
</event>
<event>
 6    1  0.1823098E-004  0.4809368E+03  0.7546771E-02  0.9443505E-01
        -11   -1    0    0    0    0  0.00000000000E+00  0.00000000000E+00  0.50000000000E+03  0.50000000000E+03  0.00000000000E+00 0.  1.
         11   -1    0    0    0    0 -0.00000000000E+00 -0.00000000000E+00 -0.50000000000E+03  0.50000000000E+03  0.00000000000E+00 0. -1.
        -11    1    1    2    0    0 -0.73161018226E+01 -0.47908600611E+01  0.47532783452E+03  0.47540827501E+03  0.00000000000E+00 0.  1.
         11    1    1    2    0    0  0.33753276844E+02 -0.10149700141E+02 -0.48572352420E+03  0.48700065921E+03  0.00000000000E+00 0. -1.
        -15    1    1    2    0    0 -0.19535720716E+00  0.77071360372E+01  0.60695262829E+01  0.99717094138E+01  0.17770000000E+01 0.  1.
         15    1    1    2    0    0 -0.26241817814E+02  0.72334241651E+01  0.43261633973E+01  0.27619356366E+02  0.17770000000E+01 0. -1.
</event>
<event>
 6    1  0.1823098E-004  0.5081626E+03  0.7546771E-02  0.9381728E-01
        -11   -1    0    0    0    0  0.00000000000E+00  0.00000000000E+00  0.50000000000E+03  0.50000000000E+03  0.00000000000E+00 0. -1.
         11   -1    0    0    0    0 -0.00000000000E+00 -0.00000000000E+00 -0.50000000000E+03  0.50000000000E+03  0.00000000000E+00 0.  1.
        -11    1    1    2    0    0  0.14516619306E+01 -0.98421608568E+01  0.40842093458E+03  0.40854208505E+03  0.00000000000E+00 0. -1.
         11    1    1    2    0    0  0.43599378946E+02  0.56158773075E+01 -0.48986889736E+03  0.49183735170E+03  0.00000000000E+00 0.  1.
        -15    1    1    2    0    0 -0.24689189284E+02  0.51808058805E+01  0.13517535183E+02  0.28675395438E+02  0.17770000000E+01 0.  1.
         15    1    1    2    0    0 -0.20361851592E+02 -0.95452233115E+00  0.67930427603E+02  0.70945167816E+02  0.17770000000E+01 0. -1.
</event>
<event>
 6    1  0.1823098E-004  0.5064321E+03  0.7546771E-02  0.9385531E-01
        -11   -1    0    0    0    0  0.00000000000E+00  0.00000000000E+00  0.50000000000E+03  0.50000000000E+03  0.00000000000E+00 0. -1.
         11   -1    0    0    0    0 -0.00000000000E+00 -0.00000000000E+00 -0.50000000000E+03  0.50000000000E+03  0.00000000000E+00 0. -1.
        -11    1    1    2    0    0  0.49546442249E+01 -0.92020218594E+01  0.49345725187E+03  0.49356791339E+03  0.00000000000E+00 0. -1.
         11    1    1    2    0    0 -0.36729347188E+01  0.70036249917E+01 -0.49173837100E+03  0.49180195884E+03  0.00000000000E+00 0. -1.
        -15    1    1    2    0    0  0.31565671057E+01 -0.43810421573E+01 -0.29500180299E+01  0.64045126008E+01  0.17770000000E+01 0. -1.
         15    1    1    2    0    0 -0.44382766119E+01  0.65794390249E+01  0.12311371575E+01  0.82256151665E+01  0.17770000000E+01 0.  1.
</event>
<event>
 6    1  0.1823098E-004  0.5052222E+03  0.7546771E-02  0.9388200E-01
        -11   -1    0    0    0    0  0.00000000000E+00  0.00000000000E+00  0.50000000000E+03  0.50000000000E+03  0.00000000000E+00 0.  1.
         11   -1    0    0    0    0 -0.00000000000E+00 -0.00000000000E+00 -0.50000000000E+03  0.50000000000E+03  0.00000000000E+00 0.  1.
        -11    1    1    2    0    0  0.76160870054E+01 -0.34087666995E+01  0.49470745799E+03  0.49477782232E+03  0.00000000000E+00 0.  1.
         11    1    1    2    0    0  0.23874237770E+02  0.30031406576E+02 -0.38109774730E+03  0.38302396480E+03  0.00000000000E+00 0.  1.
        -15    1    1    2    0    0 -0.98893101741E+01 -0.19376179889E+01 -0.14209964835E+02  0.17510957963E+02  0.17770000000E+01 0.  1.
         15    1    1    2    0    0 -0.21601014601E+02 -0.24685021887E+02 -0.99399745855E+02  0.10468725492E+03  0.17770000000E+01 0. -1.
</event>
<event>
 6    1  0.1823098E-004  0.5009974E+03  0.7546771E-02  0.9397581E-01
        -11   -1    0    0    0    0  0.00000000000E+00  0.00000000000E+00  0.50000000000E+03  0.50000000000E+03  0.00000000000E+00 0. -1.
         11   -1    0    0    0    0 -0.00000000000E+00 -0.00000000000E+00 -0.50000000000E+03  0.50000000000E+03  0.00000000000E+00 0.  1.
        -11    1    1    2    0    0  0.40803771569E+01  0.65590776095E+01  0.15256833474E+03  0.15276376449E+03  0.00000000000E+00 0. -1.
         11    1    1    2    0    0 -0.11272242285E+02 -0.45402552661E+02 -0.49680492917E+03  0.49900259807E+03  0.00000000000E+00 0.  1.
        -15    1    1    2    0    0  0.20425920592E+02  0.30832145070E+02  0.23897524796E+03  0.24182672778E+03  0.17770000000E+01 0.  1.
         15    1    1    2    0    0 -0.13234055464E+02  0.80113299811E+01  0.10526134647E+03  0.10640690965E+03  0.17770000000E+01 0. -1.
</event>
<event>
 6    1  0.1823098E-004  0.5003410E+03  0.7546771E-02  0.9399047E-01
        -11   -1    0    0    0    0  0.00000000000E+00  0.00000000000E+00  0.50000000000E+03  0.50000000000E+03  0.00000000000E+00 0.  1.
         11   -1    0    0    0    0 -0.00000000000E+00 -0.00000000000E+00 -0.50000000000E+03  0.50000000000E+03  0.00000000000E+00 0. -1.
        -11    1    1    2    0    0  0.32097640195E+01  0.65247054305E+01  0.49960609981E+03  0.49965901306E+03  0.00000000000E+00 0.  1.
         11    1    1    2    0    0  0.64548176777E+01  0.62595015294E+01 -0.21092714634E+03  0.21111870380E+03  0.00000000000E+00 0. -1.
        -15    1    1    2    0    0 -0.17873860676E+01 -0.17662339461E+01 -0.24840111739E+02  0.25030046175E+02  0.17770000000E+01 0. -1.
         15    1    1    2    0    0 -0.78771956296E+01 -0.11017973014E+02 -0.26383884173E+03  0.26419223697E+03  0.17770000000E+01 0. -1.
</event>
<event>
 6    1  0.1823098E-004  0.5081649E+03  0.7546771E-02  0.9381723E-01
        -11   -1    0    0    0    0  0.00000000000E+00  0.00000000000E+00  0.50000000000E+03  0.50000000000E+03  0.00000000000E+00 0.  1.
         11   -1    0    0    0    0 -0.00000000000E+00 -0.00000000000E+00 -0.50000000000E+03  0.50000000000E+03  0.00000000000E+00 0. -1.
        -11    1    1    2    0    0 -0.21001953050E+02 -0.61688480393E+01  0.49134774312E+03  0.49183507539E+03  0.00000000000E+00 0.  1.
         11    1    1    2    0    0 -0.28375258216E+02  0.82181494514E+01 -0.40399207217E+03  0.40507071930E+03  0.00000000000E+00 0. -1.
        -15    1    1    2    0    0  0.88570592323E+01  0.36488655334E+01 -0.46346438427E+01  0.10788853993E+02  0.17770000000E+01 0. -1.
         15    1    1    2    0    0  0.40520152034E+02 -0.56981669455E+01 -0.82721027109E+02  0.92305351320E+02  0.17770000000E+01 0.  1.
</event>
<event>
 6    1  0.1823098E-004  0.5006365E+03  0.7546771E-02  0.9398387E-01
        -11   -1    0    0    0    0  0.00000000000E+00  0.00000000000E+00  0.50000000000E+03  0.50000000000E+03  0.00000000000E+00 0. -1.
         11   -1    0    0    0    0 -0.00000000000E+00 -0.00000000000E+00 -0.50000000000E+03  0.50000000000E+03  0.00000000000E+00 0.  1.
        -11    1    1    2    0    0  0.29131034803E+02  0.48870816394E+02  0.49611184383E+03  0.49936353037E+03  0.00000000000E+00 0. -1.
         11    1    1    2    0    0 -0.31451615442E+02 -0.40636196356E+02 -0.38301871877E+03  0.38645031181E+03  0.00000000000E+00 0.  1.
        -15    1    1    2    0    0  0.51834249687E+01 -0.99762717224E+01 -0.69238637979E+02  0.70167945745E+02  0.17770000000E+01 0. -1.
         15    1    1    2    0    0 -0.28628443306E+01  0.17416516852E+01 -0.43854487080E+02  0.44018212075E+02  0.17770000000E+01 0.  1.
</event>
<event>
 6    1  0.1823098E-004  0.5002321E+03  0.7546771E-02  0.9399291E-01
        -11   -1    0    0    0    0  0.00000000000E+00  0.00000000000E+00  0.50000000000E+03  0.50000000000E+03  0.00000000000E+00 0. -1.
         11   -1    0    0    0    0 -0.00000000000E+00 -0.00000000000E+00 -0.50000000000E+03  0.50000000000E+03  0.00000000000E+00 0.  1.
        -11    1    1    2    0    0 -0.25401224328E+02  0.59221735262E+01  0.49908683141E+03  0.49976790576E+03  0.00000000000E+00 0. -1.
         11    1    1    2    0    0 -0.34933689299E+00  0.15691412209E+01 -0.33775888835E+01  0.37406345854E+01  0.00000000000E+00 0.  1.
        -15    1    1    2    0    0  0.67460530715E+01  0.65294382300E+00 -0.10773116261E+03  0.10795877312E+03  0.17770000000E+01 0. -1.
         15    1    1    2    0    0  0.19004508150E+02 -0.81442585701E+01 -0.38797807992E+03  0.38853268653E+03  0.17770000000E+01 0.  1.
</event>
<event>
 6    1  0.1823098E-004  0.5000955E+03  0.7546771E-02  0.9399596E-01
        -11   -1    0    0    0    0  0.00000000000E+00  0.00000000000E+00  0.50000000000E+03  0.50000000000E+03  0.00000000000E+00 0.  1.
         11   -1    0    0    0    0 -0.00000000000E+00 -0.00000000000E+00 -0.50000000000E+03  0.50000000000E+03  0.00000000000E+00 0. -1.
        -11    1    1    2    0    0 -0.65858032523E+01  0.45425973880E+01  0.49984052154E+03  0.49990454586E+03  0.00000000000E+00 0.  1.
         11    1    1    2    0    0  0.17815297534E+01 -0.70857214886E+01 -0.20432414200E+03  0.20445472922E+03  0.00000000000E+00 0. -1.
        -15    1    1    2    0    0  0.31666298796E+00 -0.10607107161E+01 -0.12592876208E+03  0.12594616402E+03  0.17770000000E+01 0.  1.
         15    1    1    2    0    0  0.44876105109E+01  0.36038348167E+01 -0.16958761746E+03  0.16969456090E+03  0.17770000000E+01 0. -1.
</event>
<event>
 6    1  0.1823098E-004  0.5001342E+03  0.7546771E-02  0.9399509E-01
        -11   -1    0    0    0    0  0.00000000000E+00  0.00000000000E+00  0.50000000000E+03  0.50000000000E+03  0.00000000000E+00 0. -1.
         11   -1    0    0    0    0 -0.00000000000E+00 -0.00000000000E+00 -0.50000000000E+03  0.50000000000E+03  0.00000000000E+00 0. -1.
        -11    1    1    2    0    0 -0.15617332981E+02  0.10194394944E+02  0.49951776384E+03  0.49986580516E+03  0.00000000000E+00 0. -1.
         11    1    1    2    0    0  0.14477236158E+02 -0.59322432358E+01 -0.24195354081E+03  0.24245885793E+03  0.00000000000E+00 0. -1.
        -15    1    1    2    0    0  0.85501982862E+00  0.44148753398E+00 -0.38291605826E+02  0.38344892435E+02  0.17770000000E+01 0.  1.
         15    1    1    2    0    0  0.28507699439E+00 -0.47036392421E+01 -0.21927261720E+03  0.21933044448E+03  0.17770000000E+01 0. -1.
</event>
<event>
 6    1  0.1823098E-004  0.5001497E+03  0.7546771E-02  0.9399475E-01
        -11   -1    0    0    0    0  0.00000000000E+00  0.00000000000E+00  0.50000000000E+03  0.50000000000E+03  0.00000000000E+00 0.  1.
         11   -1    0    0    0    0 -0.00000000000E+00 -0.00000000000E+00 -0.50000000000E+03  0.50000000000E+03  0.00000000000E+00 0. -1.
        -11    1    1    2    0    0  0.45692048861E+01  0.64509011840E+01  0.49978783206E+03  0.49985034644E+03  0.00000000000E+00 0.  1.
         11    1    1    2    0    0 -0.66760867723E+01 -0.13804259449E+01 -0.37350030885E+03  0.37356252010E+03  0.00000000000E+00 0. -1.
        -15    1    1    2    0    0  0.34655976889E+01 -0.11506869763E+01 -0.49028343518E+02  0.49196246249E+02  0.17770000000E+01 0.  1.
         15    1    1    2    0    0 -0.13587158028E+01 -0.39197882629E+01 -0.77259179686E+02  0.77390887211E+02  0.17770000000E+01 0. -1.
</event>
<event>
 6    1  0.1823098E-004  0.5008275E+03  0.7546771E-02  0.9397960E-01
        -11   -1    0    0    0    0  0.00000000000E+00  0.00000000000E+00  0.50000000000E+03  0.50000000000E+03  0.00000000000E+00 0. -1.
         11   -1    0    0    0    0 -0.00000000000E+00 -0.00000000000E+00 -0.50000000000E+03  0.50000000000E+03  0.00000000000E+00 0. -1.
        -11    1    1    2    0    0  0.17339011806E+00  0.95417372675E+01  0.49908127581E+03  0.49917250994E+03  0.00000000000E+00 0. -1.
         11    1    1    2    0    0  0.70424364881E+01  0.23562909447E+01 -0.35219518363E+03  0.35227346677E+03  0.00000000000E+00 0. -1.
        -15    1    1    2    0    0 -0.36199973806E+01 -0.15957478738E+02 -0.11248687030E+03  0.11368464816E+03  0.17770000000E+01 0.  1.
         15    1    1    2    0    0 -0.35958292255E+01  0.40594505260E+01 -0.34399221893E+02  0.34869375134E+02  0.17770000000E+01 0. -1.
</event>
<event>
 6    1  0.1823098E-004  0.5000217E+03  0.7546771E-02  0.9399761E-01
        -11   -1    0    0    0    0  0.00000000000E+00  0.00000000000E+00  0.50000000000E+03  0.50000000000E+03  0.00000000000E+00 0.  1.
         11   -1    0    0    0    0 -0.00000000000E+00 -0.00000000000E+00 -0.50000000000E+03  0.50000000000E+03  0.00000000000E+00 0. -1.
        -11    1    1    2    0    0 -0.95068793216E+01  0.77086733004E+01  0.49982848090E+03  0.49997831424E+03  0.00000000000E+00 0.  1.
         11    1    1    2    0    0  0.36566499389E+01 -0.34075708539E+01 -0.16190725209E+03  0.16198438476E+03  0.00000000000E+00 0. -1.
        -15    1    1    2    0    0  0.49276208272E+01 -0.17672118633E+01 -0.18786091158E+03  0.18794223664E+03  0.17770000000E+01 0. -1.
         15    1    1    2    0    0  0.92260855550E+00 -0.25338905832E+01 -0.15006031723E+03  0.15009506436E+03  0.17770000000E+01 0. -1.
</event>
<event>
 6    1  0.2427977E-004  0.5000511E+03  0.7546771E-02  0.9399695E-01
        -11   -1    0    0    0    0  0.00000000000E+00  0.00000000000E+00  0.50000000000E+03  0.50000000000E+03  0.00000000000E+00 0. -1.
         11   -1    0    0    0    0 -0.00000000000E+00 -0.00000000000E+00 -0.50000000000E+03  0.50000000000E+03  0.00000000000E+00 0.  1.
        -11    1    1    2    0    0  0.14509011154E-01  0.18639778728E+01  0.77433960506E+02  0.77456393304E+02  0.00000000000E+00 0. -1.
         11    1    1    2    0    0  0.60607530138E+01  0.47952102421E+01 -0.49988914400E+03  0.49994888044E+03  0.00000000000E+00 0.  1.
        -15    1    1    2    0    0 -0.55476537299E+01 -0.27628985313E+01  0.27997624434E+03  0.28005046901E+03  0.17770000000E+01 0. -1.
         15    1    1    2    0    0 -0.52760829504E+00 -0.38962895836E+01  0.14247893915E+03  0.14254425724E+03  0.17770000000E+01 0.  1.
</event>
<event>
 6    1  0.1823098E-004  0.5002599E+03  0.7546771E-02  0.9399228E-01
        -11   -1    0    0    0    0  0.00000000000E+00  0.00000000000E+00  0.50000000000E+03  0.50000000000E+03  0.00000000000E+00 0.  1.
         11   -1    0    0    0    0 -0.00000000000E+00 -0.00000000000E+00 -0.50000000000E+03  0.50000000000E+03  0.00000000000E+00 0.  1.
        -11    1    1    2    0    0  0.32478641629E+01  0.10990115746E+02  0.49960871902E+03  0.49974013585E+03  0.00000000000E+00 0.  1.
         11    1    1    2    0    0 -0.79870255161E+01 -0.13947101781E+02 -0.38850667756E+03  0.38883898047E+03  0.00000000000E+00 0.  1.
        -15    1    1    2    0    0  0.37712410089E+00  0.31543435521E+01 -0.41471882323E+02  0.41631320640E+02  0.17770000000E+01 0. -1.
         15    1    1    2    0    0  0.43620372523E+01 -0.19735751635E+00 -0.69630159134E+02  0.69789563037E+02  0.17770000000E+01 0.  1.
</event>
<event>
 6    1  0.1823098E-004  0.4813152E+03  0.7546771E-02  0.9442617E-01
        -11   -1    0    0    0    0  0.00000000000E+00  0.00000000000E+00  0.50000000000E+03  0.50000000000E+03  0.00000000000E+00 0. -1.
         11   -1    0    0    0    0 -0.00000000000E+00 -0.00000000000E+00 -0.50000000000E+03  0.50000000000E+03  0.00000000000E+00 0. -1.
        -11    1    1    2    0    0  0.88038639859E+01  0.19910421327E+01  0.47838904218E+03  0.47847418734E+03  0.00000000000E+00 0. -1.
         11    1    1    2    0    0 -0.87719644745E+01  0.21756861213E+02 -0.48389664114E+03  0.48446492925E+03  0.00000000000E+00 0. -1.
        -15    1    1    2    0    0  0.69044058284E+01 -0.23699603495E+02 -0.40921427833E+01  0.25084764045E+02  0.17770000000E+01 0. -1.
         15    1    1    2    0    0 -0.69363053398E+01 -0.48299850881E-01  0.95997417350E+01  0.11976119364E+02  0.17770000000E+01 0.  1.
</event>
<event>
 6    1  0.1823098E-004  0.4859466E+03  0.7546771E-02  0.9431816E-01
        -11   -1    0    0    0    0  0.00000000000E+00  0.00000000000E+00  0.50000000000E+03  0.50000000000E+03  0.00000000000E+00 0. -1.
         11   -1    0    0    0    0 -0.00000000000E+00 -0.00000000000E+00 -0.50000000000E+03  0.50000000000E+03  0.00000000000E+00 0.  1.
        -11    1    1    2    0    0 -0.79559342875E+01  0.17611244179E+01  0.49002269828E+03  0.49009044398E+03  0.00000000000E+00 0. -1.
         11    1    1    2    0    0 -0.70412999901E+01 -0.10856295468E+02 -0.48182188751E+03  0.48199561237E+03  0.00000000000E+00 0.  1.
        -15    1    1    2    0    0  0.78196409845E+01 -0.56236708083E+01 -0.71362662835E+00  0.98203589778E+01  0.17770000000E+01 0. -1.
         15    1    1    2    0    0  0.71775932931E+01  0.14718841858E+02 -0.74871841401E+01  0.18093584677E+02  0.17770000000E+01 0.  1.
</event>
<event>
 6    1  0.1823098E-004  0.5108356E+03  0.7546771E-02  0.9375885E-01
        -11   -1    0    0    0    0  0.00000000000E+00  0.00000000000E+00  0.50000000000E+03  0.50000000000E+03  0.00000000000E+00 0. -1.
         11   -1    0    0    0    0 -0.00000000000E+00 -0.00000000000E+00 -0.50000000000E+03  0.50000000000E+03  0.00000000000E+00 0. -1.
        -11    1    1    2    0    0 -0.22842458934E+01 -0.93017172233E+01  0.47662020624E+03  0.47671643639E+03  0.00000000000E+00 0. -1.
         11    1    1    2    0    0 -0.66827686153E+01  0.20468689453E+02 -0.48869026116E+03  0.48916438750E+03  0.00000000000E+00 0. -1.
        -15    1    1    2    0    0  0.61669374758E+01 -0.18843585411E+02  0.15349120058E+02  0.25136925917E+02  0.17770000000E+01 0. -1.
         15    1    1    2    0    0  0.28000770328E+01  0.76766131821E+01 -0.32790651367E+01  0.89822501918E+01  0.17770000000E+01 0.  1.
</event>
<event>
 6    1  0.1823098E-004  0.5007523E+03  0.7546771E-02  0.9398128E-01
        -11   -1    0    0    0    0  0.00000000000E+00  0.00000000000E+00  0.50000000000E+03  0.50000000000E+03  0.00000000000E+00 0. -1.
         11   -1    0    0    0    0 -0.00000000000E+00 -0.00000000000E+00 -0.50000000000E+03  0.50000000000E+03  0.00000000000E+00 0.  1.
        -11    1    1    2    0    0  0.18548307754E+02  0.39961052921E+01  0.28110173916E+03  0.28174136426E+03  0.00000000000E+00 0. -1.
         11    1    1    2    0    0 -0.85829844215E+01 -0.28002109413E+02 -0.49838784121E+03  0.49924766000E+03  0.00000000000E+00 0.  1.
        -15    1    1    2    0    0  0.35369329581E+00  0.23805169493E+01  0.38759408943E+02  0.38874689330E+02  0.17770000000E+01 0.  1.
         15    1    1    2    0    0 -0.10319016629E+02  0.21625487171E+02  0.17852669311E+03  0.18013628641E+03  0.17770000000E+01 0.  1.
</event>
<event>
 6    1  0.1823098E-004  0.5006557E+03  0.7546771E-02  0.9398344E-01
        -11   -1    0    0    0    0  0.00000000000E+00  0.00000000000E+00  0.50000000000E+03  0.50000000000E+03  0.00000000000E+00 0.  1.
         11   -1    0    0    0    0 -0.00000000000E+00 -0.00000000000E+00 -0.50000000000E+03  0.50000000000E+03  0.00000000000E+00 0.  1.
        -11    1    1    2    0    0 -0.67415040079E+01  0.10701467537E+01  0.49929765862E+03  0.49934431507E+03  0.00000000000E+00 0.  1.
         11    1    1    2    0    0 -0.42628224712E+01 -0.13594584349E+02 -0.32139592117E+03  0.32171155174E+03  0.00000000000E+00 0.  1.
        -15    1    1    2    0    0  0.10464007853E+02  0.96576426700E+01 -0.10671723684E+03  0.10767772235E+03  0.17770000000E+01 0. -1.
         15    1    1    2    0    0  0.54031862637E+00  0.28667949249E+01 -0.71184500608E+02  0.71266410834E+02  0.17770000000E+01 0.  1.
</event>
<event>
 6    1  0.1823098E-004  0.5002895E+03  0.7546771E-02  0.9399162E-01
        -11   -1    0    0    0    0  0.00000000000E+00  0.00000000000E+00  0.50000000000E+03  0.50000000000E+03  0.00000000000E+00 0.  1.
         11   -1    0    0    0    0 -0.00000000000E+00 -0.00000000000E+00 -0.50000000000E+03  0.50000000000E+03  0.00000000000E+00 0.  1.
        -11    1    1    2    0    0 -0.84036422753E+01  0.10315438945E+00  0.49963982973E+03  0.49971050749E+03  0.00000000000E+00 0.  1.
         11    1    1    2    0    0  0.10713886093E+02  0.56054783983E+01 -0.12952848416E+03  0.13009164828E+03  0.00000000000E+00 0.  1.
        -15    1    1    2    0    0 -0.27285992156E+01 -0.50560781482E+01 -0.26099661965E+03  0.26106589662E+03  0.17770000000E+01 0.  1.
         15    1    1    2    0    0  0.41835539774E+00 -0.65255463958E+00 -0.10911472592E+03  0.10913194761E+03  0.17770000000E+01 0. -1.
</event>
<event>
 6    1  0.1823098E-004  0.5009507E+03  0.7546771E-02  0.9397685E-01
        -11   -1    0    0    0    0  0.00000000000E+00  0.00000000000E+00  0.50000000000E+03  0.50000000000E+03  0.00000000000E+00 0. -1.
         11   -1    0    0    0    0 -0.00000000000E+00 -0.00000000000E+00 -0.50000000000E+03  0.50000000000E+03  0.00000000000E+00 0. -1.
        -11    1    1    2    0    0 -0.13003835281E+02  0.21919344345E+01  0.43068537084E+03  0.43088721606E+03  0.00000000000E+00 0. -1.
         11    1    1    2    0    0  0.22275875864E+02  0.42562298564E+01 -0.49853372487E+03  0.49904930114E+03  0.00000000000E+00 0. -1.
        -15    1    1    2    0    0 -0.65379348440E+01  0.15885749108E+01  0.15352748339E+02  0.16856238395E+02  0.17770000000E+01 0.  1.
         15    1    1    2    0    0 -0.27341057392E+01 -0.80367392017E+01  0.52495605686E+02  0.53207244399E+02  0.17770000000E+01 0. -1.
</event>
<event>
 6    1  0.1823098E-004  0.5062949E+03  0.7546771E-02  0.9385834E-01
        -11   -1    0    0    0    0  0.00000000000E+00  0.00000000000E+00  0.50000000000E+03  0.50000000000E+03  0.00000000000E+00 0.  1.
         11   -1    0    0    0    0 -0.00000000000E+00 -0.00000000000E+00 -0.50000000000E+03  0.50000000000E+03  0.00000000000E+00 0.  1.
        -11    1    1    2    0    0  0.93365795840E+01 -0.33249111570E+01  0.47370630493E+03  0.47380997254E+03  0.00000000000E+00 0.  1.
         11    1    1    2    0    0  0.10339790654E+02  0.10715053984E+02 -0.49348054708E+03  0.49370514885E+03  0.00000000000E+00 0.  1.
        -15    1    1    2    0    0 -0.17842851443E+02 -0.92296591706E+01  0.10594255586E+02  0.22780472700E+02  0.17770000000E+01 0. -1.
         15    1    1    2    0    0 -0.18335187947E+01  0.18395163440E+01  0.91799865711E+01  0.97044059064E+01  0.17770000000E+01 0.  1.
</event>
<event>
 6    1  0.1823098E-004  0.5000889E+03  0.7546771E-02  0.9399611E-01
        -11   -1    0    0    0    0  0.00000000000E+00  0.00000000000E+00  0.50000000000E+03  0.50000000000E+03  0.00000000000E+00 0.  1.
         11   -1    0    0    0    0 -0.00000000000E+00 -0.00000000000E+00 -0.50000000000E+03  0.50000000000E+03  0.00000000000E+00 0.  1.
        -11    1    1    2    0    0  0.17471784259E+02 -0.50102647127E+01  0.49958055037E+03  0.49991108440E+03  0.00000000000E+00 0.  1.
         11    1    1    2    0    0 -0.15129851220E+02  0.23325900292E+01 -0.27489214241E+03  0.27531807665E+03  0.00000000000E+00 0.  1.
        -15    1    1    2    0    0 -0.29082731174E+01  0.22481200866E+01 -0.13378815419E+03  0.13385043903E+03  0.17770000000E+01 0. -1.
         15    1    1    2    0    0  0.56634007793E+00  0.42955459680E+00 -0.90900253770E+02  0.90920399926E+02  0.17770000000E+01 0. -1.
</event>
<event>
 6    1  0.1823098E-004  0.5001468E+03  0.7546771E-02  0.9399481E-01
        -11   -1    0    0    0    0  0.00000000000E+00  0.00000000000E+00  0.50000000000E+03  0.50000000000E+03  0.00000000000E+00 0. -1.
         11   -1    0    0    0    0 -0.00000000000E+00 -0.00000000000E+00 -0.50000000000E+03  0.50000000000E+03  0.00000000000E+00 0.  1.
        -11    1    1    2    0    0  0.34830255211E+02 -0.25444610036E+02  0.49798858641E+03  0.49985318550E+03  0.00000000000E+00 0. -1.
         11    1    1    2    0    0 -0.21599194794E+02  0.17693240433E+02 -0.23789121162E+03  0.23952412099E+03  0.00000000000E+00 0.  1.
        -15    1    1    2    0    0 -0.65434125250E+01  0.97071180844E+00 -0.10945995328E+03  0.10967405177E+03  0.17770000000E+01 0. -1.
         15    1    1    2    0    0 -0.66876478920E+01  0.67806577945E+01 -0.15063742151E+03  0.15094864174E+03  0.17770000000E+01 0.  1.
</event>
<event>
 6    1  0.1823098E-004  0.5017170E+03  0.7546771E-02  0.9395976E-01
        -11   -1    0    0    0    0  0.00000000000E+00  0.00000000000E+00  0.50000000000E+03  0.50000000000E+03  0.00000000000E+00 0. -1.
         11   -1    0    0    0    0 -0.00000000000E+00 -0.00000000000E+00 -0.50000000000E+03  0.50000000000E+03  0.00000000000E+00 0. -1.
        -11    1    1    2    0    0  0.72712320442E+01 -0.39876520273E+01  0.47271698958E+03  0.47278972537E+03  0.00000000000E+00 0. -1.
         11    1    1    2    0    0 -0.16113091213E+01 -0.72074293891E+01 -0.49822827861E+03  0.49828301291E+03  0.00000000000E+00 0. -1.
        -15    1    1    2    0    0 -0.64132767168E+00  0.38035884895E+01  0.55740070602E+01  0.70075580830E+01  0.17770000000E+01 0.  1.
         15    1    1    2    0    0 -0.50185952512E+01  0.73914929269E+01  0.19937281968E+02  0.21919703631E+02  0.17770000000E+01 0. -1.
</event>
<event>
 6    1  0.1823098E-004  0.5006061E+03  0.7546771E-02  0.9398454E-01
        -11   -1    0    0    0    0  0.00000000000E+00  0.00000000000E+00  0.50000000000E+03  0.50000000000E+03  0.00000000000E+00 0.  1.
         11   -1    0    0    0    0 -0.00000000000E+00 -0.00000000000E+00 -0.50000000000E+03  0.50000000000E+03  0.00000000000E+00 0. -1.
        -11    1    1    2    0    0  0.11224452931E+02  0.41158828112E+01  0.45840338419E+03  0.45855925623E+03  0.00000000000E+00 0.  1.
         11    1    1    2    0    0 -0.11261083692E+02 -0.20686431373E+00 -0.49926682590E+03  0.49939385083E+03  0.00000000000E+00 0. -1.
        -15    1    1    2    0    0  0.36631686629E+01 -0.16608058409E+01  0.28699250163E+02  0.29034148337E+02  0.17770000000E+01 0.  1.
         15    1    1    2    0    0 -0.36265379014E+01 -0.22482126566E+01  0.12164191546E+02  0.13012744609E+02  0.17770000000E+01 0. -1.
</event>
<event>
 6    1  0.1823098E-004  0.4675437E+03  0.7546771E-02  0.9475513E-01
        -11   -1    0    0    0    0  0.00000000000E+00  0.00000000000E+00  0.50000000000E+03  0.50000000000E+03  0.00000000000E+00 0.  1.
         11   -1    0    0    0    0 -0.00000000000E+00 -0.00000000000E+00 -0.50000000000E+03  0.50000000000E+03  0.00000000000E+00 0.  1.
        -11    1    1    2    0    0  0.99678449382E+01 -0.54806829223E+01  0.47399600081E+03  0.47413247579E+03  0.00000000000E+00 0.  1.
         11    1    1    2    0    0  0.29284618969E+02  0.39505124941E+02 -0.45988137679E+03  0.46250310758E+03  0.00000000000E+00 0.  1.
        -15    1    1    2    0    0 -0.37937511687E+02 -0.12375572492E+02 -0.10535786183E+02  0.41310653674E+02  0.17770000000E+01 0.  1.
         15    1    1    2    0    0 -0.13149522200E+01 -0.21648869527E+02 -0.35788378299E+01  0.22053762952E+02  0.17770000000E+01 0. -1.
</event>
<event>
 6    1  0.1823098E-004  0.5013449E+03  0.7546771E-02  0.9396805E-01
        -11   -1    0    0    0    0  0.00000000000E+00  0.00000000000E+00  0.50000000000E+03  0.50000000000E+03  0.00000000000E+00 0. -1.
         11   -1    0    0    0    0 -0.00000000000E+00 -0.00000000000E+00 -0.50000000000E+03  0.50000000000E+03  0.00000000000E+00 0. -1.
        -11    1    1    2    0    0  0.40574243605E+01 -0.62391756290E+01  0.49859957150E+03  0.49865511398E+03  0.00000000000E+00 0. -1.
         11    1    1    2    0    0  0.46224215005E+01  0.68765078565E+01 -0.47636152940E+03  0.47643358387E+03  0.00000000000E+00 0. -1.
        -15    1    1    2    0    0 -0.51157370999E+01 -0.98642624600E-01 -0.55847244034E+01  0.77799339396E+01  0.17770000000E+01 0.  1.
         15    1    1    2    0    0 -0.35641087611E+01 -0.53868960291E+00 -0.16653317689E+02  0.17131368212E+02  0.17770000000E+01 0. -1.
</event>
<event>
 6    1  0.1823098E-004  0.5012751E+03  0.7546771E-02  0.9396961E-01
        -11   -1    0    0    0    0  0.00000000000E+00  0.00000000000E+00  0.50000000000E+03  0.50000000000E+03  0.00000000000E+00 0.  1.
         11   -1    0    0    0    0 -0.00000000000E+00 -0.00000000000E+00 -0.50000000000E+03  0.50000000000E+03  0.00000000000E+00 0. -1.
        -11    1    1    2    0    0  0.70208828641E+01  0.93820102964E+00  0.48022512821E+03  0.48027736443E+03  0.00000000000E+00 0.  1.
         11    1    1    2    0    0 -0.39680082954E+01  0.64060439626E+01 -0.49866794774E+03  0.49872487866E+03  0.00000000000E+00 0. -1.
        -15    1    1    2    0    0  0.20747235401E+00 -0.33099894122E+01  0.11794800620E+02  0.12380392778E+02  0.17770000000E+01 0. -1.
         15    1    1    2    0    0 -0.32603469227E+01 -0.40342555800E+01  0.66480189154E+01  0.86173641353E+01  0.17770000000E+01 0.  1.
</event>
<event>
 6    1  0.1823098E-004  0.5002005E+03  0.7546771E-02  0.9399361E-01
        -11   -1    0    0    0    0  0.00000000000E+00  0.00000000000E+00  0.50000000000E+03  0.50000000000E+03  0.00000000000E+00 0. -1.
         11   -1    0    0    0    0 -0.00000000000E+00 -0.00000000000E+00 -0.50000000000E+03  0.50000000000E+03  0.00000000000E+00 0.  1.
        -11    1    1    2    0    0  0.42860328524E+01  0.28100374695E+01  0.37608979503E+03  0.37612471378E+03  0.00000000000E+00 0. -1.
         11    1    1    2    0    0 -0.59924257987E+01  0.32191504224E+01 -0.49975319288E+03  0.49979948568E+03  0.00000000000E+00 0.  1.
        -15    1    1    2    0    0 -0.68544097079E+00 -0.56113728406E+01  0.49828634576E+02  0.50179755750E+02  0.17770000000E+01 0.  1.
         15    1    1    2    0    0  0.23918339171E+01 -0.41781505127E+00  0.73834763274E+02  0.73896044790E+02  0.17770000000E+01 0. -1.
</event>
<event>
 6    1  0.1823098E-004  0.5018085E+03  0.7546771E-02  0.9395772E-01
        -11   -1    0    0    0    0  0.00000000000E+00  0.00000000000E+00  0.50000000000E+03  0.50000000000E+03  0.00000000000E+00 0.  1.
         11   -1    0    0    0    0 -0.00000000000E+00 -0.00000000000E+00 -0.50000000000E+03  0.50000000000E+03  0.00000000000E+00 0.  1.
        -11    1    1    2    0    0  0.29439829145E+01 -0.52750927041E+01  0.41877708005E+03  0.41882064945E+03  0.00000000000E+00 0.  1.
         11    1    1    2    0    0 -0.12532784528E+02 -0.13806675251E+02 -0.49784244349E+03  0.49819152292E+03  0.00000000000E+00 0.  1.
        -15    1    1    2    0    0  0.70998729593E+01  0.25079658919E+01  0.17050957847E+02  0.18724074916E+02  0.17770000000E+01 0.  1.
         15    1    1    2    0    0  0.24889286539E+01  0.16573802063E+02  0.62014405601E+02  0.64263752705E+02  0.17770000000E+01 0. -1.
</event>
<event>
 6    1  0.1823098E-004  0.5016870E+03  0.7546771E-02  0.9396043E-01
        -11   -1    0    0    0    0  0.00000000000E+00  0.00000000000E+00  0.50000000000E+03  0.50000000000E+03  0.00000000000E+00 0.  1.
         11   -1    0    0    0    0 -0.00000000000E+00 -0.00000000000E+00 -0.50000000000E+03  0.50000000000E+03  0.00000000000E+00 0.  1.
        -11    1    1    2    0    0 -0.76328839878E+01 -0.44982872014E+00  0.12707143572E+03  0.12730126881E+03  0.00000000000E+00 0.  1.
         11    1    1    2    0    0 -0.95376929902E+00 -0.22813804315E+02 -0.49778961072E+03  0.49831303001E+03  0.00000000000E+00 0.  1.
        -15    1    1    2    0    0  0.22425367287E+02  0.11079961241E+02  0.10227840322E+03  0.10530760719E+03  0.17770000000E+01 0. -1.
         15    1    1    2    0    0 -0.13838714000E+02  0.12183671795E+02  0.26843977178E+03  0.26907809399E+03  0.17770000000E+01 0.  1.
</event>
<event>
 6    1  0.1823098E-004  0.5000711E+03  0.7546771E-02  0.9399651E-01
        -11   -1    0    0    0    0  0.00000000000E+00  0.00000000000E+00  0.50000000000E+03  0.50000000000E+03  0.00000000000E+00 0.  1.
         11   -1    0    0    0    0 -0.00000000000E+00 -0.00000000000E+00 -0.50000000000E+03  0.50000000000E+03  0.00000000000E+00 0.  1.
        -11    1    1    2    0    0 -0.27751605504E+01 -0.10892590577E+01  0.91309760379E+02  0.91358416919E+02  0.00000000000E+00 0.  1.
         11    1    1    2    0    0 -0.72237051371E+01  0.30002201994E+01 -0.49986773304E+03  0.49992892873E+03  0.00000000000E+00 0.  1.
        -15    1    1    2    0    0  0.84821699454E+01 -0.10944089468E+01  0.33078199934E+03  0.33089731602E+03  0.17770000000E+01 0.  1.
         15    1    1    2    0    0  0.15166957420E+01 -0.81655219487E+00  0.77775973330E+02  0.77815338333E+02  0.17770000000E+01 0.  1.
</event>
<event>
 6    1  0.1823098E-004  0.4988448E+03  0.7546771E-02  0.9402398E-01
        -11   -1    0    0    0    0  0.00000000000E+00  0.00000000000E+00  0.50000000000E+03  0.50000000000E+03  0.00000000000E+00 0.  1.
         11   -1    0    0    0    0 -0.00000000000E+00 -0.00000000000E+00 -0.50000000000E+03  0.50000000000E+03  0.00000000000E+00 0. -1.
        -11    1    1    2    0    0 -0.23276424586E+02 -0.87702850254E+01  0.49860934988E+03  0.49922939980E+03  0.00000000000E+00 0.  1.
         11    1    1    2    0    0 -0.20050833264E+01  0.81239333996E+00 -0.10216733860E+01  0.23925213881E+01  0.00000000000E+00 0. -1.
        -15    1    1    2    0    0  0.21527565292E+02  0.86129853815E+01 -0.37654347331E+03  0.37726087076E+03  0.17770000000E+01 0. -1.
         15    1    1    2    0    0  0.37539426206E+01 -0.65509369602E+00 -0.12104420319E+03  0.12111720805E+03  0.17770000000E+01 0.  1.
</event>
<event>
 6    1  0.1823098E-004  0.5033373E+03  0.7546771E-02  0.9392373E-01
        -11   -1    0    0    0    0  0.00000000000E+00  0.00000000000E+00  0.50000000000E+03  0.50000000000E+03  0.00000000000E+00 0.  1.
         11   -1    0    0    0    0 -0.00000000000E+00 -0.00000000000E+00 -0.50000000000E+03  0.50000000000E+03  0.00000000000E+00 0. -1.
        -11    1    1    2    0    0  0.31341036473E+02  0.11825968211E+03  0.48135876866E+03  0.49666273984E+03  0.00000000000E+00 0.  1.
         11    1    1    2    0    0 -0.46786168992E+02 -0.11594589125E+03 -0.44847371478E+03  0.46557606055E+03  0.00000000000E+00 0. -1.
        -15    1    1    2    0    0  0.14764205592E+02 -0.38201986340E+01 -0.31298503027E+02  0.34861579211E+02  0.17770000000E+01 0. -1.
         15    1    1    2    0    0  0.68092692713E+00  0.15064077744E+01 -0.15865508557E+01  0.28996204029E+01  0.17770000000E+01 0. -1.
</event>
<event>
 6    1  0.1823098E-004  0.5066735E+03  0.7546771E-02  0.9385000E-01
        -11   -1    0    0    0    0  0.00000000000E+00  0.00000000000E+00  0.50000000000E+03  0.50000000000E+03  0.00000000000E+00 0.  1.
         11   -1    0    0    0    0 -0.00000000000E+00 -0.00000000000E+00 -0.50000000000E+03  0.50000000000E+03  0.00000000000E+00 0.  1.
        -11    1    1    2    0    0  0.11853102685E+02  0.49694070438E+01  0.49315901265E+03  0.49332646676E+03  0.00000000000E+00 0.  1.
         11    1    1    2    0    0 -0.24139238645E+02  0.36309152608E+02 -0.40911522197E+03  0.41143203844E+03  0.00000000000E+00 0.  1.
        -15    1    1    2    0    0  0.11211467646E+02 -0.37990650495E+02 -0.67838404931E+02  0.78576036069E+02  0.17770000000E+01 0.  1.
         15    1    1    2    0    0  0.10746683141E+01 -0.32879091574E+01 -0.16205385746E+02  0.16665458733E+02  0.17770000000E+01 0. -1.
</event>
<event>
 6    1  0.1823098E-004  0.5018560E+03  0.7546771E-02  0.9395666E-01
        -11   -1    0    0    0    0  0.00000000000E+00  0.00000000000E+00  0.50000000000E+03  0.50000000000E+03  0.00000000000E+00 0.  1.
         11   -1    0    0    0    0 -0.00000000000E+00 -0.00000000000E+00 -0.50000000000E+03  0.50000000000E+03  0.00000000000E+00 0.  1.
        -11    1    1    2    0    0 -0.12137265202E+02 -0.12615091425E+02  0.48218869532E+03  0.48250636434E+03  0.00000000000E+00 0.  1.
         11    1    1    2    0    0  0.93190933806E+01  0.85269889205E+01  0.14657858224E+02  0.19349621423E+02  0.00000000000E+00 0.  1.
        -15    1    1    2    0    0  0.10245035947E+02 -0.40958822787E+01 -0.53432762922E+02  0.54588963131E+02  0.17770000000E+01 0. -1.
         15    1    1    2    0    0 -0.74268641257E+01  0.81839847830E+01 -0.44341379062E+03  0.44355505110E+03  0.17770000000E+01 0.  1.
</event>
<event>
 6    1  0.1823098E-004  0.5042119E+03  0.7546771E-02  0.9390434E-01
        -11   -1    0    0    0    0  0.00000000000E+00  0.00000000000E+00  0.50000000000E+03  0.50000000000E+03  0.00000000000E+00 0.  1.
         11   -1    0    0    0    0 -0.00000000000E+00 -0.00000000000E+00 -0.50000000000E+03  0.50000000000E+03  0.00000000000E+00 0.  1.
        -11    1    1    2    0    0  0.45850014664E+01  0.13472372162E+02  0.49558379389E+03  0.49578808358E+03  0.00000000000E+00 0.  1.
         11    1    1    2    0    0  0.91939555944E+01 -0.48962605590E+02 -0.20311095581E+03  0.20913136048E+03  0.00000000000E+00 0.  1.
        -15    1    1    2    0    0 -0.12588516968E+02  0.34215640179E+02 -0.26638045944E+03  0.26886964814E+03  0.17770000000E+01 0.  1.
         15    1    1    2    0    0 -0.11904400923E+01  0.12745932486E+01 -0.26092378637E+02  0.26210907797E+02  0.17770000000E+01 0. -1.
</event>
<event>
 6    1  0.1823098E-004  0.5067689E+03  0.7546771E-02  0.9384790E-01
        -11   -1    0    0    0    0  0.00000000000E+00  0.00000000000E+00  0.50000000000E+03  0.50000000000E+03  0.00000000000E+00 0.  1.
         11   -1    0    0    0    0 -0.00000000000E+00 -0.00000000000E+00 -0.50000000000E+03  0.50000000000E+03  0.00000000000E+00 0.  1.
        -11    1    1    2    0    0  0.61174953178E+01 -0.20197824379E+01  0.45552069842E+03  0.45556625199E+03  0.00000000000E+00 0.  1.
         11    1    1    2    0    0  0.17042260575E+02  0.15135873711E+02 -0.49270418647E+03  0.49323113109E+03  0.00000000000E+00 0.  1.
        -15    1    1    2    0    0 -0.22035004950E+02 -0.18736549842E+02  0.28480499283E+02  0.40631223358E+02  0.17770000000E+01 0.  1.
         15    1    1    2    0    0 -0.11247509427E+01  0.56204585687E+01  0.87029887658E+01  0.10571393554E+02  0.17770000000E+01 0. -1.
</event>
<event>
 6    1  0.1823098E-004  0.5056865E+03  0.7546771E-02  0.9387175E-01
        -11   -1    0    0    0    0  0.00000000000E+00  0.00000000000E+00  0.50000000000E+03  0.50000000000E+03  0.00000000000E+00 0. -1.
         11   -1    0    0    0    0 -0.00000000000E+00 -0.00000000000E+00 -0.50000000000E+03  0.50000000000E+03  0.00000000000E+00 0. -1.
        -11    1    1    2    0    0 -0.41784194915E+01 -0.51905758320E+01  0.45657794806E+03  0.45662656945E+03  0.00000000000E+00 0. -1.
         11    1    1    2    0    0  0.27913818726E+02 -0.76495532154E+01 -0.49346542100E+03  0.49431348217E+03  0.00000000000E+00 0. -1.
        -15    1    1    2    0    0 -0.80615491309E+01  0.56910678071E+01  0.27692239268E+02  0.29451564845E+02  0.17770000000E+01 0. -1.
         15    1    1    2    0    0 -0.15673850103E+02  0.71490612403E+01  0.91952336664E+01  0.19608383535E+02  0.17770000000E+01 0.  1.
</event>
<event>
 6    1  0.1823098E-004  0.5004789E+03  0.7546771E-02  0.9398739E-01
        -11   -1    0    0    0    0  0.00000000000E+00  0.00000000000E+00  0.50000000000E+03  0.50000000000E+03  0.00000000000E+00 0. -1.
         11   -1    0    0    0    0 -0.00000000000E+00 -0.00000000000E+00 -0.50000000000E+03  0.50000000000E+03  0.00000000000E+00 0. -1.
        -11    1    1    2    0    0  0.14718953442E+02 -0.11349736040E+02  0.49917517148E+03  0.49952108657E+03  0.00000000000E+00 0. -1.
         11    1    1    2    0    0 -0.64550013660E+01  0.57726611292E+01 -0.47819435385E+02  0.48597212469E+02  0.00000000000E+00 0. -1.
        -15    1    1    2    0    0  0.80576186706E+00  0.71423256352E+01 -0.66343654126E+02  0.66755525909E+02  0.17770000000E+01 0.  1.
         15    1    1    2    0    0 -0.90697139434E+01 -0.15652507245E+01 -0.38501208197E+03  0.38512617506E+03  0.17770000000E+01 0. -1.
</event>
<event>
 6    1  0.1823098E-004  0.5122166E+03  0.7546771E-02  0.9372882E-01
        -11   -1    0    0    0    0  0.00000000000E+00  0.00000000000E+00  0.50000000000E+03  0.50000000000E+03  0.00000000000E+00 0. -1.
         11   -1    0    0    0    0 -0.00000000000E+00 -0.00000000000E+00 -0.50000000000E+03  0.50000000000E+03  0.00000000000E+00 0. -1.
        -11    1    1    2    0    0  0.59524658989E+01 -0.14372686311E+02  0.48753526561E+03  0.48778339576E+03  0.00000000000E+00 0. -1.
         11    1    1    2    0    0 -0.22331061148E+02  0.12473124810E+02 -0.47450488518E+03  0.47519379330E+03  0.00000000000E+00 0. -1.
        -15    1    1    2    0    0  0.19976809493E+02 -0.92301344431E+01 -0.47528065274E+01  0.22583516074E+02  0.17770000000E+01 0.  1.
         15    1    1    2    0    0 -0.35982142442E+01  0.11129695944E+02 -0.82775739005E+01  0.14439294866E+02  0.17770000000E+01 0. -1.
</event>
<event>
 6    1  0.1823098E-004  0.5004977E+03  0.7546771E-02  0.9398697E-01
        -11   -1    0    0    0    0  0.00000000000E+00  0.00000000000E+00  0.50000000000E+03  0.50000000000E+03  0.00000000000E+00 0. -1.
         11   -1    0    0    0    0 -0.00000000000E+00 -0.00000000000E+00 -0.50000000000E+03  0.50000000000E+03  0.00000000000E+00 0.  1.
        -11    1    1    2    0    0  0.59423943527E+01 -0.56856615982E+01  0.49943459504E+03  0.49950230583E+03  0.00000000000E+00 0. -1.
         11    1    1    2    0    0  0.12507297646E+01  0.10494881431E+02 -0.43318327904E+03  0.43331219704E+03  0.00000000000E+00 0.  1.
        -15    1    1    2    0    0 -0.50514645892E+01 -0.48860623285E+01 -0.31522324393E+02  0.32345101078E+02  0.17770000000E+01 0.  1.
         15    1    1    2    0    0 -0.21416595280E+01  0.76842495553E-01 -0.34728991612E+02  0.34840396061E+02  0.17770000000E+01 0. -1.
</event>
<event>
 6    1  0.1823098E-004  0.3483817E+03  0.7546771E-02  0.9822558E-01
        -11   -1    0    0    0    0  0.00000000000E+00  0.00000000000E+00  0.50000000000E+03  0.50000000000E+03  0.00000000000E+00 0. -1.
         11   -1    0    0    0    0 -0.00000000000E+00 -0.00000000000E+00 -0.50000000000E+03  0.50000000000E+03  0.00000000000E+00 0.  1.
        -11    1    1    2    0    0 -0.12630883625E+01  0.50387975322E+01  0.36722502175E+03  0.36726176152E+03  0.00000000000E+00 0. -1.
         11    1    1    2    0    0 -0.17437800316E+03  0.32953964436E+02 -0.30722763651E+03  0.35479920011E+03  0.00000000000E+00 0.  1.
        -15    1    1    2    0    0  0.59330191067E+01  0.47789229522E+02  0.40414107171E+02  0.62892519122E+02  0.17770000000E+01 0. -1.
         15    1    1    2    0    0  0.16970807242E+03 -0.85781991490E+02 -0.10041149241E+03  0.21504651926E+03  0.17770000000E+01 0.  1.
</event>
<event>
 6    1  0.1823098E-004  0.5007769E+03  0.7546771E-02  0.9398073E-01
        -11   -1    0    0    0    0  0.00000000000E+00  0.00000000000E+00  0.50000000000E+03  0.50000000000E+03  0.00000000000E+00 0. -1.
         11   -1    0    0    0    0 -0.00000000000E+00 -0.00000000000E+00 -0.50000000000E+03  0.50000000000E+03  0.00000000000E+00 0. -1.
        -11    1    1    2    0    0 -0.57128186458E+02  0.37957282589E+02  0.49448897624E+03  0.49922312908E+03  0.00000000000E+00 0. -1.
         11    1    1    2    0    0  0.49791131524E+02 -0.42360350681E+02 -0.36022652574E+03  0.36611023740E+03  0.00000000000E+00 0. -1.
        -15    1    1    2    0    0 -0.58771902630E-01  0.13363457253E+01 -0.29073089118E+02  0.29158043725E+02  0.17770000000E+01 0. -1.
         15    1    1    2    0    0  0.73958268370E+01  0.30667223662E+01 -0.10518936139E+03  0.10550858979E+03  0.17770000000E+01 0. -1.
</event>
<event>
 6    1  0.1823098E-004  0.5001862E+03  0.7546771E-02  0.9399393E-01
        -11   -1    0    0    0    0  0.00000000000E+00  0.00000000000E+00  0.50000000000E+03  0.50000000000E+03  0.00000000000E+00 0. -1.
         11   -1    0    0    0    0 -0.00000000000E+00 -0.00000000000E+00 -0.50000000000E+03  0.50000000000E+03  0.00000000000E+00 0. -1.
        -11    1    1    2    0    0 -0.14859495056E+01 -0.30177163355E+00  0.10415580313E+03  0.10416683943E+03  0.00000000000E+00 0. -1.
         11    1    1    2    0    0  0.17467047805E+02  0.27552913354E+01 -0.49950088943E+03  0.49981379326E+03  0.00000000000E+00 0. -1.
        -15    1    1    2    0    0 -0.11922943335E+02  0.37736130980E+01  0.32780793462E+03  0.32805121012E+03  0.17770000000E+01 0. -1.
         15    1    1    2    0    0 -0.40581549645E+01 -0.62271327998E+01  0.67537151686E+02  0.67968157188E+02  0.17770000000E+01 0.  1.
</event>
<event>
 6    1  0.1823098E-004  0.5004299E+03  0.7546771E-02  0.9398848E-01
        -11   -1    0    0    0    0  0.00000000000E+00  0.00000000000E+00  0.50000000000E+03  0.50000000000E+03  0.00000000000E+00 0. -1.
         11   -1    0    0    0    0 -0.00000000000E+00 -0.00000000000E+00 -0.50000000000E+03  0.50000000000E+03  0.00000000000E+00 0. -1.
        -11    1    1    2    0    0  0.57726196365E+01 -0.42132097111E+01  0.49951895929E+03  0.49957008014E+03  0.00000000000E+00 0. -1.
         11    1    1    2    0    0  0.21954137026E+01  0.78808851831E+01 -0.49761823816E+02  0.50429825521E+02  0.00000000000E+00 0. -1.
        -15    1    1    2    0    0 -0.47588967513E+01 -0.77361115211E+01 -0.26381858184E+03  0.26398086365E+03  0.17770000000E+01 0.  1.
         15    1    1    2    0    0 -0.32091365877E+01  0.40684360491E+01 -0.18593855364E+03  0.18601923069E+03  0.17770000000E+01 0. -1.
</event>
<event>
 6    1  0.1823098E-004  0.5016640E+03  0.7546771E-02  0.9396094E-01
        -11   -1    0    0    0    0  0.00000000000E+00  0.00000000000E+00  0.50000000000E+03  0.50000000000E+03  0.00000000000E+00 0. -1.
         11   -1    0    0    0    0 -0.00000000000E+00 -0.00000000000E+00 -0.50000000000E+03  0.50000000000E+03  0.00000000000E+00 0.  1.
        -11    1    1    2    0    0 -0.65039045355E+01  0.37680047032E+01  0.49827931742E+03  0.49833600793E+03  0.00000000000E+00 0. -1.
         11    1    1    2    0    0  0.21113225595E+01 -0.10861946456E+02 -0.44629099463E+03  0.44642814814E+03  0.00000000000E+00 0.  1.
        -15    1    1    2    0    0  0.34547993991E+01 -0.49044818860E+01 -0.13696129296E+02  0.15057598353E+02  0.17770000000E+01 0.  1.
         15    1    1    2    0    0  0.93778257688E+00  0.11998423639E+02 -0.38292193489E+02  0.40178245571E+02  0.17770000000E+01 0. -1.
</event>
<event>
 6    1  0.1823098E-004  0.5020518E+03  0.7546771E-02  0.9395230E-01
        -11   -1    0    0    0    0  0.00000000000E+00  0.00000000000E+00  0.50000000000E+03  0.50000000000E+03  0.00000000000E+00 0. -1.
         11   -1    0    0    0    0 -0.00000000000E+00 -0.00000000000E+00 -0.50000000000E+03  0.50000000000E+03  0.00000000000E+00 0. -1.
        -11    1    1    2    0    0  0.50337028492E+01 -0.55737187463E+02  0.49479332122E+03  0.49794819305E+03  0.00000000000E+00 0. -1.
         11    1    1    2    0    0 -0.31050391953E+01  0.10086024762E+02 -0.98584433111E+01  0.14441539683E+02  0.00000000000E+00 0. -1.
        -15    1    1    2    0    0  0.28441053985E+01  0.41175884915E+02 -0.45703939031E+03  0.45890271786E+03  0.17770000000E+01 0. -1.
         15    1    1    2    0    0 -0.47727690524E+01  0.44752777859E+01 -0.27895487602E+02  0.28707549412E+02  0.17770000000E+01 0. -1.
</event>
<event>
 6    1  0.1823098E-004  0.4790185E+03  0.7546771E-02  0.9448021E-01
        -11   -1    0    0    0    0  0.00000000000E+00  0.00000000000E+00  0.50000000000E+03  0.50000000000E+03  0.00000000000E+00 0.  1.
         11   -1    0    0    0    0 -0.00000000000E+00 -0.00000000000E+00 -0.50000000000E+03  0.50000000000E+03  0.00000000000E+00 0.  1.
        -11    1    1    2    0    0  0.29220872430E+02 -0.10695926105E+01  0.48625533786E+03  0.48713371574E+03  0.00000000000E+00 0.  1.
         11    1    1    2    0    0  0.14557675212E+01  0.15375498523E+02 -0.47136367344E+03  0.47161662169E+03  0.00000000000E+00 0.  1.
        -15    1    1    2    0    0 -0.30703945305E+02 -0.11252730250E+02 -0.17237765666E+02  0.37008843396E+02  0.17770000000E+01 0. -1.
         15    1    1    2    0    0  0.27305353573E-01 -0.30531756627E+01  0.23461012444E+01  0.42408191730E+01  0.17770000000E+01 0.  1.
</event>
<event>
 6    1  0.1823098E-004  0.5191331E+03  0.7546771E-02  0.9357987E-01
        -11   -1    0    0    0    0  0.00000000000E+00  0.00000000000E+00  0.50000000000E+03  0.50000000000E+03  0.00000000000E+00 0.  1.
         11   -1    0    0    0    0 -0.00000000000E+00 -0.00000000000E+00 -0.50000000000E+03  0.50000000000E+03  0.00000000000E+00 0. -1.
        -11    1    1    2    0    0 -0.41549839329E+01 -0.11705374214E+02  0.48070640999E+03  0.48086685504E+03  0.00000000000E+00 0.  1.
         11    1    1    2    0    0  0.35943086551E+02 -0.91197468639E+01 -0.42795665706E+03  0.42956021182E+03  0.00000000000E+00 0. -1.
        -15    1    1    2    0    0 -0.31847454765E+00  0.10622086642E+02  0.12434189819E+02  0.16452870756E+02  0.17770000000E+01 0.  1.
         15    1    1    2    0    0 -0.31469628071E+02  0.10203034436E+02 -0.65183942743E+02  0.73120062384E+02  0.17770000000E+01 0. -1.
</event>
<event>
 6    1  0.1823098E-004  0.5003945E+03  0.7546771E-02  0.9398927E-01
        -11   -1    0    0    0    0  0.00000000000E+00  0.00000000000E+00  0.50000000000E+03  0.50000000000E+03  0.00000000000E+00 0. -1.
         11   -1    0    0    0    0 -0.00000000000E+00 -0.00000000000E+00 -0.50000000000E+03  0.50000000000E+03  0.00000000000E+00 0.  1.
        -11    1    1    2    0    0 -0.41701492964E+01 -0.59446252857E+01  0.49955272949E+03  0.49960550263E+03  0.00000000000E+00 0. -1.
         11    1    1    2    0    0  0.77661151904E+01  0.41847297784E+00 -0.12550408589E+03  0.12574483385E+03  0.00000000000E+00 0.  1.
        -15    1    1    2    0    0  0.10171290421E+01  0.55051424838E+01 -0.30221191788E+02  0.30786674185E+02  0.17770000000E+01 0. -1.
         15    1    1    2    0    0 -0.46130949360E+01  0.21009824083E-01 -0.34382745182E+03  0.34386298934E+03  0.17770000000E+01 0.  1.
</event>
<event>
 6    1  0.1823098E-004  0.5010099E+03  0.7546771E-02  0.9397553E-01
        -11   -1    0    0    0    0  0.00000000000E+00  0.00000000000E+00  0.50000000000E+03  0.50000000000E+03  0.00000000000E+00 0.  1.
         11   -1    0    0    0    0 -0.00000000000E+00 -0.00000000000E+00 -0.50000000000E+03  0.50000000000E+03  0.00000000000E+00 0. -1.
        -11    1    1    2    0    0  0.10791717980E+02 -0.26720479806E+00  0.33969503479E+03  0.33986651679E+03  0.00000000000E+00 0.  1.
         11    1    1    2    0    0 -0.38583635371E+01  0.23266741542E+02 -0.49843245023E+03  0.49899011581E+03  0.00000000000E+00 0. -1.
        -15    1    1    2    0    0  0.18621582937E+01 -0.15532084792E+02  0.10302359938E+03  0.10421963850E+03  0.17770000000E+01 0.  1.
         15    1    1    2    0    0 -0.87955127365E+01 -0.74674519522E+01  0.55713816064E+02  0.56923728905E+02  0.17770000000E+01 0. -1.
</event>
<event>
 6    1  0.1823098E-004  0.5002901E+03  0.7546771E-02  0.9399161E-01
        -11   -1    0    0    0    0  0.00000000000E+00  0.00000000000E+00  0.50000000000E+03  0.50000000000E+03  0.00000000000E+00 0.  1.
         11   -1    0    0    0    0 -0.00000000000E+00 -0.00000000000E+00 -0.50000000000E+03  0.50000000000E+03  0.00000000000E+00 0. -1.
        -11    1    1    2    0    0  0.49328740363E+01 -0.47574048831E+01  0.49966292572E+03  0.49970992134E+03  0.00000000000E+00 0.  1.
         11    1    1    2    0    0 -0.72836955209E+01 -0.40678131989E+01 -0.98256238757E+02  0.98609775273E+02  0.00000000000E+00 0. -1.
        -15    1    1    2    0    0 -0.44287712962E+01  0.31055519240E+01 -0.13479828323E+03  0.13491846930E+03  0.17770000000E+01 0.  1.
         15    1    1    2    0    0  0.67795927808E+01  0.57196661580E+01 -0.26660840373E+03  0.26676183409E+03  0.17770000000E+01 0. -1.
</event>
<event>
 6    1  0.1823098E-004  0.4865087E+03  0.7546771E-02  0.9430514E-01
        -11   -1    0    0    0    0  0.00000000000E+00  0.00000000000E+00  0.50000000000E+03  0.50000000000E+03  0.00000000000E+00 0. -1.
         11   -1    0    0    0    0 -0.00000000000E+00 -0.00000000000E+00 -0.50000000000E+03  0.50000000000E+03  0.00000000000E+00 0. -1.
        -11    1    1    2    0    0  0.71228640462E+01  0.32517412422E+01  0.49025210095E+03  0.49031462501E+03  0.00000000000E+00 0. -1.
         11    1    1    2    0    0  0.79217819463E+01 -0.15389018358E+02 -0.48261449975E+03  0.48292476835E+03  0.00000000000E+00 0. -1.
        -15    1    1    2    0    0 -0.33377139374E+01  0.88259695758E+00  0.48393437649E+01  0.62045377582E+01  0.17770000000E+01 0.  1.
         15    1    1    2    0    0 -0.11706932055E+02  0.11254680158E+02 -0.12476944964E+02  0.20556068890E+02  0.17770000000E+01 0. -1.
</event>
<event>
 6    1  0.1823098E-004  0.5095948E+03  0.7546771E-02  0.9378593E-01
        -11   -1    0    0    0    0  0.00000000000E+00  0.00000000000E+00  0.50000000000E+03  0.50000000000E+03  0.00000000000E+00 0.  1.
         11   -1    0    0    0    0 -0.00000000000E+00 -0.00000000000E+00 -0.50000000000E+03  0.50000000000E+03  0.00000000000E+00 0. -1.
        -11    1    1    2    0    0 -0.27803952324E+01  0.71901267872E+01  0.39687744429E+03  0.39695230735E+03  0.00000000000E+00 0.  1.
         11    1    1    2    0    0  0.35922992023E+02  0.28012417223E+02 -0.48828484196E+03  0.49040518325E+03  0.00000000000E+00 0. -1.
        -15    1    1    2    0    0 -0.10628277713E+02 -0.44075531894E+01  0.65425516579E+02  0.66453312640E+02  0.17770000000E+01 0.  1.
         15    1    1    2    0    0 -0.22514319078E+02 -0.30794990821E+02  0.25981881089E+02  0.46189196758E+02  0.17770000000E+01 0. -1.
</event>
<event>
 6    1  0.1823098E-004  0.5054838E+03  0.7546771E-02  0.9387622E-01
        -11   -1    0    0    0    0  0.00000000000E+00  0.00000000000E+00  0.50000000000E+03  0.50000000000E+03  0.00000000000E+00 0.  1.
         11   -1    0    0    0    0 -0.00000000000E+00 -0.00000000000E+00 -0.50000000000E+03  0.50000000000E+03  0.00000000000E+00 0.  1.
        -11    1    1    2    0    0 -0.77380475038E+01 -0.51479953789E+01  0.40711824758E+03  0.40722431994E+03  0.00000000000E+00 0.  1.
         11    1    1    2    0    0 -0.14943637322E+02  0.31666591775E+02 -0.49327498058E+03  0.49451621996E+03  0.00000000000E+00 0.  1.
        -15    1    1    2    0    0  0.86438168669E+01  0.70895766478E+00  0.50266275200E+02  0.51039928903E+02  0.17770000000E+01 0.  1.
         15    1    1    2    0    0  0.14037867959E+02 -0.27227554060E+02  0.35890457803E+02  0.47219531205E+02  0.17770000000E+01 0. -1.
</event>
<event>
 6    1  0.1823098E-004  0.5011130E+03  0.7546771E-02  0.9397323E-01
        -11   -1    0    0    0    0  0.00000000000E+00  0.00000000000E+00  0.50000000000E+03  0.50000000000E+03  0.00000000000E+00 0.  1.
         11   -1    0    0    0    0 -0.00000000000E+00 -0.00000000000E+00 -0.50000000000E+03  0.50000000000E+03  0.00000000000E+00 0.  1.
        -11    1    1    2    0    0  0.17874315422E+00 -0.53244667540E+01  0.36650145357E+03  0.36654017156E+03  0.00000000000E+00 0.  1.
         11    1    1    2    0    0  0.24855283680E+02  0.23593857791E+01 -0.49826182315E+03  0.49888695738E+03  0.00000000000E+00 0.  1.
        -15    1    1    2    0    0 -0.24645615861E+02  0.11793319092E+01  0.11607832967E+03  0.11868501823E+03  0.17770000000E+01 0.  1.
         15    1    1    2    0    0 -0.38841097347E+00  0.17857490656E+01  0.15682039917E+02  0.15887852837E+02  0.17770000000E+01 0.  1.
</event>
<event>
 6    1  0.1823098E-004  0.5002027E+03  0.7546771E-02  0.9399356E-01
        -11   -1    0    0    0    0  0.00000000000E+00  0.00000000000E+00  0.50000000000E+03  0.50000000000E+03  0.00000000000E+00 0. -1.
         11   -1    0    0    0    0 -0.00000000000E+00 -0.00000000000E+00 -0.50000000000E+03  0.50000000000E+03  0.00000000000E+00 0. -1.
        -11    1    1    2    0    0 -0.74561769502E+01  0.65094598931E+01  0.49969930606E+03  0.49979732305E+03  0.00000000000E+00 0. -1.
         11    1    1    2    0    0  0.36625448543E+01 -0.12505582364E+02 -0.23724732591E+03  0.23760491888E+03  0.00000000000E+00 0. -1.
        -15    1    1    2    0    0  0.16685618007E+01  0.54643493398E+00 -0.56748209886E+02  0.56803166671E+02  0.17770000000E+01 0. -1.
         15    1    1    2    0    0  0.21250702951E+01  0.54496875372E+01 -0.20570377027E+03  0.20579459140E+03  0.17770000000E+01 0. -1.
</event>
<event>
 6    1  0.1823098E-004  0.5006056E+03  0.7546771E-02  0.9398456E-01
        -11   -1    0    0    0    0  0.00000000000E+00  0.00000000000E+00  0.50000000000E+03  0.50000000000E+03  0.00000000000E+00 0.  1.
         11   -1    0    0    0    0 -0.00000000000E+00 -0.00000000000E+00 -0.50000000000E+03  0.50000000000E+03  0.00000000000E+00 0.  1.
        -11    1    1    2    0    0  0.14790978420E+02  0.53647568954E+01  0.49914652002E+03  0.49939443540E+03  0.00000000000E+00 0.  1.
         11    1    1    2    0    0 -0.37645510674E+01 -0.13638104161E+01 -0.56722821086E+01  0.69430978611E+01  0.00000000000E+00 0.  1.
        -15    1    1    2    0    0 -0.45359545510E+01 -0.27314054569E+01 -0.32663582667E+03  0.32668357236E+03  0.17770000000E+01 0.  1.
         15    1    1    2    0    0 -0.64904728012E+01 -0.12695410225E+01 -0.16683841124E+03  0.16697889438E+03  0.17770000000E+01 0.  1.
</event>
<event>
 6    1  0.1823098E-004  0.5001968E+03  0.7546771E-02  0.9399369E-01
        -11   -1    0    0    0    0  0.00000000000E+00  0.00000000000E+00  0.50000000000E+03  0.50000000000E+03  0.00000000000E+00 0.  1.
         11   -1    0    0    0    0 -0.00000000000E+00 -0.00000000000E+00 -0.50000000000E+03  0.50000000000E+03  0.00000000000E+00 0.  1.
        -11    1    1    2    0    0 -0.32813759072E+00 -0.11585850629E+02  0.49966878858E+03  0.49980319916E+03  0.00000000000E+00 0.  1.
         11    1    1    2    0    0  0.13213959918E+01  0.13540308930E+02 -0.44467492415E+03  0.44488298935E+03  0.00000000000E+00 0.  1.
        -15    1    1    2    0    0  0.10744596499E+01 -0.17727182325E+01 -0.38356974414E+02  0.38454027210E+02  0.17770000000E+01 0. -1.
         15    1    1    2    0    0 -0.20677180510E+01 -0.18174006825E+00 -0.16636890019E+02  0.16859784278E+02  0.17770000000E+01 0.  1.
</event>
<event>
 6    1  0.1823098E-004  0.5001028E+03  0.7546771E-02  0.9399580E-01
        -11   -1    0    0    0    0  0.00000000000E+00  0.00000000000E+00  0.50000000000E+03  0.50000000000E+03  0.00000000000E+00 0.  1.
         11   -1    0    0    0    0 -0.00000000000E+00 -0.00000000000E+00 -0.50000000000E+03  0.50000000000E+03  0.00000000000E+00 0. -1.
        -11    1    1    2    0    0 -0.71862973933E+01  0.64555531721E+01  0.49980381181E+03  0.49989715676E+03  0.00000000000E+00 0.  1.
         11    1    1    2    0    0  0.45747787200E+01 -0.56593297255E+01 -0.11998231239E+03  0.12020279489E+03  0.00000000000E+00 0. -1.
        -15    1    1    2    0    0  0.39493560249E+01 -0.22176878985E+01 -0.19999742620E+03  0.20005660141E+03  0.17770000000E+01 0. -1.
         15    1    1    2    0    0 -0.13378373516E+01  0.14214644519E+01 -0.17982407322E+03  0.17984344694E+03  0.17770000000E+01 0. -1.
</event>
<event>
 6    1  0.1823098E-004  0.5012314E+03  0.7546771E-02  0.9397059E-01
        -11   -1    0    0    0    0  0.00000000000E+00  0.00000000000E+00  0.50000000000E+03  0.50000000000E+03  0.00000000000E+00 0. -1.
         11   -1    0    0    0    0 -0.00000000000E+00 -0.00000000000E+00 -0.50000000000E+03  0.50000000000E+03  0.00000000000E+00 0.  1.
        -11    1    1    2    0    0 -0.20162712152E+01 -0.22497052679E+01  0.13956791699E+03  0.13960060879E+03  0.00000000000E+00 0. -1.
         11    1    1    2    0    0  0.32253169095E+02 -0.30988045592E+02 -0.49675905613E+03  0.49876856931E+03  0.00000000000E+00 0.  1.
        -15    1    1    2    0    0 -0.96850070413E+01 -0.61457783433E+01  0.57494049521E+02  0.58654014459E+02  0.17770000000E+01 0.  1.
         15    1    1    2    0    0 -0.20551890839E+02  0.39383529203E+02  0.29969708962E+03  0.30297680744E+03  0.17770000000E+01 0. -1.
</event>
<event>
 6    1  0.1823098E-004  0.5026901E+03  0.7546771E-02  0.9393811E-01
        -11   -1    0    0    0    0  0.00000000000E+00  0.00000000000E+00  0.50000000000E+03  0.50000000000E+03  0.00000000000E+00 0.  1.
         11   -1    0    0    0    0 -0.00000000000E+00 -0.00000000000E+00 -0.50000000000E+03  0.50000000000E+03  0.00000000000E+00 0.  1.
        -11    1    1    2    0    0  0.50713181857E+00 -0.95382985827E+01  0.39717920191E+03  0.39729404067E+03  0.00000000000E+00 0.  1.
         11    1    1    2    0    0  0.65205169441E+00 -0.23648860833E+02 -0.49674688462E+03  0.49730992466E+03  0.00000000000E+00 0.  1.
        -15    1    1    2    0    0  0.73202220086E+00  0.98278638826E+00  0.45607114469E+01  0.50457450876E+01  0.17770000000E+01 0. -1.
         15    1    1    2    0    0 -0.18912057138E+01  0.32204373028E+02  0.95006971266E+02  0.10035028958E+03  0.17770000000E+01 0.  1.
</event>
<event>
 6    1  0.1823098E-004  0.5104941E+03  0.7546771E-02  0.9376630E-01
        -11   -1    0    0    0    0  0.00000000000E+00  0.00000000000E+00  0.50000000000E+03  0.50000000000E+03  0.00000000000E+00 0.  1.
         11   -1    0    0    0    0 -0.00000000000E+00 -0.00000000000E+00 -0.50000000000E+03  0.50000000000E+03  0.00000000000E+00 0. -1.
        -11    1    1    2    0    0  0.49586639139E+01  0.59096929031E+01  0.48944514751E+03  0.48950593995E+03  0.00000000000E+00 0.  1.
         11    1    1    2    0    0  0.41635232115E+02 -0.30790490667E+02 -0.39380806967E+03  0.39719811505E+03  0.00000000000E+00 0. -1.
        -15    1    1    2    0    0 -0.32835790541E+01 -0.92454705485E+00  0.12650722825E+01  0.40490511902E+01  0.17770000000E+01 0.  1.
         15    1    1    2    0    0 -0.43310316974E+02  0.25805344819E+02 -0.96902150131E+02  0.10924689381E+03  0.17770000000E+01 0. -1.
</event>
<event>
 6    1  0.1823098E-004  0.5000963E+03  0.7546771E-02  0.9399594E-01
        -11   -1    0    0    0    0  0.00000000000E+00  0.00000000000E+00  0.50000000000E+03  0.50000000000E+03  0.00000000000E+00 0. -1.
         11   -1    0    0    0    0 -0.00000000000E+00 -0.00000000000E+00 -0.50000000000E+03  0.50000000000E+03  0.00000000000E+00 0.  1.
        -11    1    1    2    0    0 -0.11113214566E+02  0.37234217875E+01  0.49976633025E+03  0.49990374300E+03  0.00000000000E+00 0. -1.
         11    1    1    2    0    0  0.98911592860E+00 -0.51509587543E+01 -0.88219206926E+02  0.88374991921E+02  0.00000000000E+00 0.  1.
        -15    1    1    2    0    0  0.28706273538E+01  0.16393967162E+01 -0.77734866453E+02  0.77825415607E+02  0.17770000000E+01 0. -1.
         15    1    1    2    0    0  0.72534712832E+01 -0.21185974935E+00 -0.33381225687E+03  0.33389584948E+03  0.17770000000E+01 0.  1.
</event>
<event>
 6    1  0.1823098E-004  0.5203530E+03  0.7546771E-02  0.9355386E-01
        -11   -1    0    0    0    0  0.00000000000E+00  0.00000000000E+00  0.50000000000E+03  0.50000000000E+03  0.00000000000E+00 0.  1.
         11   -1    0    0    0    0 -0.00000000000E+00 -0.00000000000E+00 -0.50000000000E+03  0.50000000000E+03  0.00000000000E+00 0. -1.
        -11    1    1    2    0    0 -0.14083996686E+02  0.13383315306E+02  0.44651652154E+03  0.44693900713E+03  0.00000000000E+00 0.  1.
         11    1    1    2    0    0  0.23729035737E+02 -0.36397837395E+02 -0.47767497846E+03  0.47964701057E+03  0.00000000000E+00 0. -1.
        -15    1    1    2    0    0  0.16181403419E+01 -0.54449043242E+00  0.44132668098E+02  0.44201413670E+02  0.17770000000E+01 0.  1.
         15    1    1    2    0    0 -0.11263179394E+02  0.23559012521E+02 -0.12974211177E+02  0.29212568625E+02  0.17770000000E+01 0. -1.
</event>
<event>
 6    1  0.1823098E-004  0.5090568E+03  0.7546771E-02  0.9379769E-01
        -11   -1    0    0    0    0  0.00000000000E+00  0.00000000000E+00  0.50000000000E+03  0.50000000000E+03  0.00000000000E+00 0. -1.
         11   -1    0    0    0    0 -0.00000000000E+00 -0.00000000000E+00 -0.50000000000E+03  0.50000000000E+03  0.00000000000E+00 0. -1.
        -11    1    1    2    0    0 -0.64952067479E+01 -0.83319716258E+00  0.47880358912E+03  0.47884836731E+03  0.00000000000E+00 0. -1.
         11    1    1    2    0    0 -0.10329291217E+02 -0.85319513375E+01 -0.49076033041E+03  0.49094316408E+03  0.00000000000E+00 0. -1.
        -15    1    1    2    0    0  0.16046435616E+02  0.49139296860E+01 -0.45378051445E+00  0.16881897012E+02  0.17770000000E+01 0. -1.
         15    1    1    2    0    0  0.77806234880E+00  0.44512188141E+01  0.12410521808E+02  0.13326571595E+02  0.17770000000E+01 0.  1.
</event>
<event>
 6    1  0.1823098E-004  0.5000865E+03  0.7546771E-02  0.9399616E-01
        -11   -1    0    0    0    0  0.00000000000E+00  0.00000000000E+00  0.50000000000E+03  0.50000000000E+03  0.00000000000E+00 0.  1.
         11   -1    0    0    0    0 -0.00000000000E+00 -0.00000000000E+00 -0.50000000000E+03  0.50000000000E+03  0.00000000000E+00 0. -1.
        -11    1    1    2    0    0  0.73657305847E+01 -0.97259262052E+00  0.49985830896E+03  0.49991352148E+03  0.00000000000E+00 0.  1.
         11    1    1    2    0    0 -0.24176836694E+01  0.18330674725E+01 -0.32891878551E+02  0.33031515335E+02  0.00000000000E+00 0. -1.
        -15    1    1    2    0    0 -0.57591441724E+01 -0.25177513109E+01 -0.33559333653E+03  0.33565689634E+03  0.17770000000E+01 0.  1.
         15    1    1    2    0    0  0.81109725707E+00  0.16572764589E+01 -0.13137309388E+03  0.13139806684E+03  0.17770000000E+01 0. -1.
</event>
<event>
 6    1  0.1823098E-004  0.5016316E+03  0.7546771E-02  0.9396166E-01
        -11   -1    0    0    0    0  0.00000000000E+00  0.00000000000E+00  0.50000000000E+03  0.50000000000E+03  0.00000000000E+00 0.  1.
         11   -1    0    0    0    0 -0.00000000000E+00 -0.00000000000E+00 -0.50000000000E+03  0.50000000000E+03  0.00000000000E+00 0.  1.
        -11    1    1    2    0    0  0.20156801876E+02 -0.33713874719E+01  0.49794922946E+03  0.49836843604E+03  0.00000000000E+00 0.  1.
         11    1    1    2    0    0 -0.13849064023E+02 -0.80996018723E+01 -0.22873469007E+03  0.22929666061E+03  0.00000000000E+00 0.  1.
        -15    1    1    2    0    0 -0.21656050856E+02  0.42902790353E+01 -0.19138247244E+03  0.19265980255E+03  0.17770000000E+01 0. -1.
         15    1    1    2    0    0  0.15348313002E+02  0.71807103088E+01 -0.77832066962E+02  0.79675100810E+02  0.17770000000E+01 0.  1.
</event>
<event>
 6    1  0.1823098E-004  0.5158048E+03  0.7546771E-02  0.9365124E-01
        -11   -1    0    0    0    0  0.00000000000E+00  0.00000000000E+00  0.50000000000E+03  0.50000000000E+03  0.00000000000E+00 0.  1.
         11   -1    0    0    0    0 -0.00000000000E+00 -0.00000000000E+00 -0.50000000000E+03  0.50000000000E+03  0.00000000000E+00 0.  1.
        -11    1    1    2    0    0  0.14267891474E+02 -0.69368990143E+01  0.45506715854E+03  0.45534361979E+03  0.00000000000E+00 0.  1.
         11    1    1    2    0    0 -0.26146933281E+01 -0.23815086488E+02 -0.48360212348E+03  0.48419521766E+03  0.00000000000E+00 0.  1.
        -15    1    1    2    0    0 -0.20537108954E+02 -0.21195599332E+00  0.74491884350E+01  0.21919532542E+02  0.17770000000E+01 0. -1.
         15    1    1    2    0    0  0.88839108074E+01  0.30963941495E+02  0.21085776507E+02  0.38541630013E+02  0.17770000000E+01 0.  1.
</event>
<event>
 6    1  0.1823098E-004  0.5004628E+03  0.7546771E-02  0.9398775E-01
        -11   -1    0    0    0    0  0.00000000000E+00  0.00000000000E+00  0.50000000000E+03  0.50000000000E+03  0.00000000000E+00 0.  1.
         11   -1    0    0    0    0 -0.00000000000E+00 -0.00000000000E+00 -0.50000000000E+03  0.50000000000E+03  0.00000000000E+00 0.  1.
        -11    1    1    2    0    0 -0.29807056170E+01  0.67511640422E+01  0.49948269104E+03  0.49953720729E+03  0.00000000000E+00 0.  1.
         11    1    1    2    0    0 -0.93277254523E+01 -0.18424035772E+01 -0.33835529419E+03  0.33848885657E+03  0.00000000000E+00 0.  1.
        -15    1    1    2    0    0 -0.11009616554E+00 -0.31402388465E+01 -0.49080780141E+02  0.49213351130E+02  0.17770000000E+01 0.  1.
         15    1    1    2    0    0  0.12418527235E+02 -0.17685216185E+01 -0.11204661670E+03  0.11276058501E+03  0.17770000000E+01 0. -1.
</event>
<event>
 6    1  0.1823098E-004  0.5000538E+03  0.7546771E-02  0.9399689E-01
        -11   -1    0    0    0    0  0.00000000000E+00  0.00000000000E+00  0.50000000000E+03  0.50000000000E+03  0.00000000000E+00 0.  1.
         11   -1    0    0    0    0 -0.00000000000E+00 -0.00000000000E+00 -0.50000000000E+03  0.50000000000E+03  0.00000000000E+00 0.  1.
        -11    1    1    2    0    0  0.71068071203E+01  0.51049387262E+01  0.49986964649E+03  0.49994622770E+03  0.00000000000E+00 0.  1.
         11    1    1    2    0    0 -0.11906216097E+01 -0.20724964194E+01 -0.34465740306E+02  0.34548517712E+02  0.00000000000E+00 0.  1.
        -15    1    1    2    0    0 -0.65911388766E+01 -0.94780391780E+00 -0.32948693599E+03  0.32955900862E+03  0.17770000000E+01 0.  1.
         15    1    1    2    0    0  0.67495336607E+00 -0.20846383889E+01 -0.13591697019E+03  0.13594624598E+03  0.17770000000E+01 0. -1.
</event>
<event>
 6    1  0.1823098E-004  0.5006758E+03  0.7546771E-02  0.9398299E-01
        -11   -1    0    0    0    0  0.00000000000E+00  0.00000000000E+00  0.50000000000E+03  0.50000000000E+03  0.00000000000E+00 0. -1.
         11   -1    0    0    0    0 -0.00000000000E+00 -0.00000000000E+00 -0.50000000000E+03  0.50000000000E+03  0.00000000000E+00 0.  1.
        -11    1    1    2    0    0  0.16307266899E+01 -0.11867315614E+01  0.33063737472E+02  0.33125191878E+02  0.00000000000E+00 0. -1.
         11    1    1    2    0    0 -0.18853860847E+02  0.28941256329E+02 -0.49812809280E+03  0.49932420452E+03  0.00000000000E+00 0.  1.
        -15    1    1    2    0    0  0.16388267498E+02 -0.23016511437E+02  0.16283503631E+03  0.16527777191E+03  0.17770000000E+01 0.  1.
         15    1    1    2    0    0  0.83486665859E+00 -0.47380133306E+01  0.30222931902E+03  0.30227283169E+03  0.17770000000E+01 0. -1.
</event>
<event>
 6    1  0.1823098E-004  0.5090541E+03  0.7546771E-02  0.9379775E-01
        -11   -1    0    0    0    0  0.00000000000E+00  0.00000000000E+00  0.50000000000E+03  0.50000000000E+03  0.00000000000E+00 0. -1.
         11   -1    0    0    0    0 -0.00000000000E+00 -0.00000000000E+00 -0.50000000000E+03  0.50000000000E+03  0.00000000000E+00 0.  1.
        -11    1    1    2    0    0 -0.55551609952E+01 -0.44806125121E+01  0.47515248295E+03  0.47520607925E+03  0.00000000000E+00 0. -1.
         11    1    1    2    0    0 -0.15779155192E+02  0.97986235244E+01 -0.49059441905E+03  0.49094590207E+03  0.00000000000E+00 0.  1.
        -15    1    1    2    0    0  0.75727297140E+01  0.57786569651E+01  0.12536319190E+02  0.15844751165E+02  0.17770000000E+01 0. -1.
         15    1    1    2    0    0  0.13761586473E+02 -0.11096667977E+02  0.29056169095E+01  0.18003267511E+02  0.17770000000E+01 0.  1.
</event>
<event>
 6    1  0.1823098E-004  0.5001097E+03  0.7546771E-02  0.9399564E-01
        -11   -1    0    0    0    0  0.00000000000E+00  0.00000000000E+00  0.50000000000E+03  0.50000000000E+03  0.00000000000E+00 0.  1.
         11   -1    0    0    0    0 -0.00000000000E+00 -0.00000000000E+00 -0.50000000000E+03  0.50000000000E+03  0.00000000000E+00 0.  1.
        -11    1    1    2    0    0  0.11855022397E+02  0.12209955453E+01  0.49974817943E+03  0.49989026319E+03  0.00000000000E+00 0.  1.
         11    1    1    2    0    0 -0.82164660752E+01  0.19572188183E+01 -0.21874985103E+03  0.21891285560E+03  0.00000000000E+00 0.  1.
        -15    1    1    2    0    0  0.21381881431E+01  0.12580561355E+01 -0.88581039612E+02  0.88633587660E+02  0.17770000000E+01 0. -1.
         15    1    1    2    0    0 -0.57767444646E+01 -0.44362704991E+01 -0.19241728878E+03  0.19256329355E+03  0.17770000000E+01 0.  1.
</event>
<event>
 6    1  0.1823098E-004  0.5045429E+03  0.7546771E-02  0.9389702E-01
        -11   -1    0    0    0    0  0.00000000000E+00  0.00000000000E+00  0.50000000000E+03  0.50000000000E+03  0.00000000000E+00 0. -1.
         11   -1    0    0    0    0 -0.00000000000E+00 -0.00000000000E+00 -0.50000000000E+03  0.50000000000E+03  0.00000000000E+00 0.  1.
        -11    1    1    2    0    0  0.68763558601E+01  0.11787004945E+01  0.46882933943E+03  0.46888124628E+03  0.00000000000E+00 0. -1.
         11    1    1    2    0    0 -0.90018339174E+01  0.89370262803E+01 -0.49529471224E+03  0.49545711765E+03  0.00000000000E+00 0.  1.
        -15    1    1    2    0    0  0.80561985175E+01 -0.13862752757E+02  0.21525813307E+02  0.26899751227E+02  0.17770000000E+01 0. -1.
         15    1    1    2    0    0 -0.59307204601E+01  0.37470259822E+01  0.49395595062E+01  0.87618848431E+01  0.17770000000E+01 0.  1.
</event>
<event>
 6    1  0.1823098E-004  0.5011164E+03  0.7546771E-02  0.9397315E-01
        -11   -1    0    0    0    0  0.00000000000E+00  0.00000000000E+00  0.50000000000E+03  0.50000000000E+03  0.00000000000E+00 0. -1.
         11   -1    0    0    0    0 -0.00000000000E+00 -0.00000000000E+00 -0.50000000000E+03  0.50000000000E+03  0.00000000000E+00 0. -1.
        -11    1    1    2    0    0  0.72322486328E+01  0.39956100443E+01  0.49881512516E+03  0.49888355296E+03  0.00000000000E+00 0. -1.
         11    1    1    2    0    0  0.72097980980E+01 -0.21118954323E+02 -0.31162979819E+03  0.31242778772E+03  0.00000000000E+00 0. -1.
        -15    1    1    2    0    0 -0.40947511493E+01  0.16619300598E+01 -0.51982103318E+02  0.52199863916E+02  0.17770000000E+01 0. -1.
         15    1    1    2    0    0 -0.10347295582E+02  0.15461414219E+02 -0.13520322365E+03  0.13648879540E+03  0.17770000000E+01 0. -1.
</event>
<event>
 6    1  0.1823098E-004  0.5003830E+03  0.7546771E-02  0.9398953E-01
        -11   -1    0    0    0    0  0.00000000000E+00  0.00000000000E+00  0.50000000000E+03  0.50000000000E+03  0.00000000000E+00 0. -1.
         11   -1    0    0    0    0 -0.00000000000E+00 -0.00000000000E+00 -0.50000000000E+03  0.50000000000E+03  0.00000000000E+00 0.  1.
        -11    1    1    2    0    0 -0.20183769833E+01 -0.57118078235E+01  0.27141312849E+03  0.27148072659E+03  0.00000000000E+00 0. -1.
         11    1    1    2    0    0  0.60978188754E+01 -0.55347267475E+01 -0.49954913178E+03  0.49961700497E+03  0.00000000000E+00 0.  1.
        -15    1    1    2    0    0 -0.27472543456E+01  0.32853726551E+01  0.18015081092E+03  0.18021046996E+03  0.17770000000E+01 0.  1.
         15    1    1    2    0    0 -0.13321875465E+01  0.79611619158E+01  0.47985192371E+02  0.48691798473E+02  0.17770000000E+01 0. -1.
</event>
<event>
 6    1  0.1823098E-004  0.5001351E+03  0.7546771E-02  0.9399507E-01
        -11   -1    0    0    0    0  0.00000000000E+00  0.00000000000E+00  0.50000000000E+03  0.50000000000E+03  0.00000000000E+00 0.  1.
         11   -1    0    0    0    0 -0.00000000000E+00 -0.00000000000E+00 -0.50000000000E+03  0.50000000000E+03  0.00000000000E+00 0. -1.
        -11    1    1    2    0    0  0.86173654823E+01 -0.25851994807E+01  0.49978391942E+03  0.49986489010E+03  0.00000000000E+00 0.  1.
         11    1    1    2    0    0 -0.76998620189E+01  0.22973796175E+01 -0.46870836591E+03  0.46877723719E+03  0.00000000000E+00 0. -1.
        -15    1    1    2    0    0  0.30630289690E+00  0.65017675386E+00 -0.11270858601E+02  0.11432695827E+02  0.17770000000E+01 0. -1.
         15    1    1    2    0    0 -0.12238063603E+01 -0.36235689072E+00 -0.19804694906E+02  0.19925176884E+02  0.17770000000E+01 0. -1.
</event>
<event>
 6    1  0.1823098E-004  0.5048499E+03  0.7546771E-02  0.9389023E-01
        -11   -1    0    0    0    0  0.00000000000E+00  0.00000000000E+00  0.50000000000E+03  0.50000000000E+03  0.00000000000E+00 0.  1.
         11   -1    0    0    0    0 -0.00000000000E+00 -0.00000000000E+00 -0.50000000000E+03  0.50000000000E+03  0.00000000000E+00 0. -1.
        -11    1    1    2    0    0  0.88625209556E+01  0.13247031136E+01  0.45479768195E+03  0.45488595342E+03  0.00000000000E+00 0.  1.
         11    1    1    2    0    0  0.18534376342E+02 -0.77004648342E+01 -0.49474312057E+03  0.49515005364E+03  0.00000000000E+00 0. -1.
        -15    1    1    2    0    0 -0.21743503088E+02  0.52136029470E+01  0.23695252463E+02  0.32627968072E+02  0.17770000000E+01 0. -1.
         15    1    1    2    0    0 -0.56533942087E+01  0.11621587735E+01  0.16250186156E+02  0.17336024867E+02  0.17770000000E+01 0.  1.
</event>
<event>
 6    1  0.1823098E-004  0.4884397E+03  0.7546771E-02  0.9426055E-01
        -11   -1    0    0    0    0  0.00000000000E+00  0.00000000000E+00  0.50000000000E+03  0.50000000000E+03  0.00000000000E+00 0. -1.
         11   -1    0    0    0    0 -0.00000000000E+00 -0.00000000000E+00 -0.50000000000E+03  0.50000000000E+03  0.00000000000E+00 0. -1.
        -11    1    1    2    0    0  0.76472263205E+01  0.10034821655E+01  0.48401749523E+03  0.48407894267E+03  0.00000000000E+00 0. -1.
         11    1    1    2    0    0  0.10305305315E+02 -0.91810580669E+01 -0.49284623252E+03  0.49303945081E+03  0.00000000000E+00 0. -1.
        -15    1    1    2    0    0 -0.60722735050E+01 -0.38018704456E+00  0.31403716944E+01  0.70736632014E+01  0.17770000000E+01 0.  1.
         15    1    1    2    0    0 -0.11880258131E+02  0.85577629459E+01  0.56883656004E+01  0.15807943323E+02  0.17770000000E+01 0. -1.
</event>
<event>
 6    1  0.1823098E-004  0.5039440E+03  0.7546771E-02  0.9391028E-01
        -11   -1    0    0    0    0  0.00000000000E+00  0.00000000000E+00  0.50000000000E+03  0.50000000000E+03  0.00000000000E+00 0.  1.
         11   -1    0    0    0    0 -0.00000000000E+00 -0.00000000000E+00 -0.50000000000E+03  0.50000000000E+03  0.00000000000E+00 0. -1.
        -11    1    1    2    0    0  0.10727793567E+02  0.34491949578E+01  0.49592797227E+03  0.49605598089E+03  0.00000000000E+00 0.  1.
         11    1    1    2    0    0 -0.57524098394E+01 -0.18337888710E+02 -0.47540862530E+03  0.47579694135E+03  0.00000000000E+00 0. -1.
        -15    1    1    2    0    0 -0.12697750218E+01 -0.13032687988E+01 -0.31405166844E+01  0.40412142003E+01  0.17770000000E+01 0.  1.
         15    1    1    2    0    0 -0.37056087058E+01  0.16191962550E+02 -0.17378830281E+02  0.24105863561E+02  0.17770000000E+01 0. -1.
</event>
<event>
 6    1  0.1823098E-004  0.5084031E+03  0.7546771E-02  0.9381201E-01
        -11   -1    0    0    0    0  0.00000000000E+00  0.00000000000E+00  0.50000000000E+03  0.50000000000E+03  0.00000000000E+00 0. -1.
         11   -1    0    0    0    0 -0.00000000000E+00 -0.00000000000E+00 -0.50000000000E+03  0.50000000000E+03  0.00000000000E+00 0.  1.
        -11    1    1    2    0    0  0.57170749563E+01  0.12792096005E+02  0.47472766368E+03  0.47493439265E+03  0.00000000000E+00 0. -1.
         11    1    1    2    0    0  0.80808119144E+00  0.12878968129E+02 -0.49142746491E+03  0.49159686135E+03  0.00000000000E+00 0.  1.
        -15    1    1    2    0    0 -0.10260924556E+01 -0.23027349310E+01  0.67498070136E+01  0.74211237431E+01  0.17770000000E+01 0.  1.
         15    1    1    2    0    0 -0.54990636921E+01 -0.23368329203E+02  0.99499942210E+01  0.26047622256E+02  0.17770000000E+01 0. -1.
</event>
<event>
 6    1  0.1823098E-004  0.4818211E+03  0.7546771E-02  0.9441431E-01
        -11   -1    0    0    0    0  0.00000000000E+00  0.00000000000E+00  0.50000000000E+03  0.50000000000E+03  0.00000000000E+00 0.  1.
         11   -1    0    0    0    0 -0.00000000000E+00 -0.00000000000E+00 -0.50000000000E+03  0.50000000000E+03  0.00000000000E+00 0. -1.
        -11    1    1    2    0    0 -0.78908036746E+01  0.89968299045E+01  0.47330220865E+03  0.47345347020E+03  0.00000000000E+00 0.  1.
         11    1    1    2    0    0 -0.19505498094E+02  0.41762394174E+01 -0.49041437689E+03  0.49081989211E+03  0.00000000000E+00 0. -1.
        -15    1    1    2    0    0  0.10589522468E+02 -0.46100475684E+01  0.10350230135E+02  0.15610109465E+02  0.17770000000E+01 0. -1.
         15    1    1    2    0    0  0.16806779301E+02 -0.85630217535E+01  0.67619381042E+01  0.20116528228E+02  0.17770000000E+01 0.  1.
</event>
<event>
 6    1  0.1823098E-004  0.5009343E+03  0.7546771E-02  0.9397722E-01
        -11   -1    0    0    0    0  0.00000000000E+00  0.00000000000E+00  0.50000000000E+03  0.50000000000E+03  0.00000000000E+00 0. -1.
         11   -1    0    0    0    0 -0.00000000000E+00 -0.00000000000E+00 -0.50000000000E+03  0.50000000000E+03  0.00000000000E+00 0.  1.
        -11    1    1    2    0    0  0.14362565148E+02  0.11361363189E+02  0.49872957789E+03  0.49906568277E+03  0.00000000000E+00 0. -1.
         11    1    1    2    0    0 -0.19068542234E+01 -0.13123132322E+02 -0.20727300060E+03  0.20769677290E+03  0.00000000000E+00 0.  1.
        -15    1    1    2    0    0 -0.18937718708E+02 -0.78156038072E+01 -0.18325411509E+03  0.18440430927E+03  0.17770000000E+01 0. -1.
         15    1    1    2    0    0  0.64820077829E+01  0.95773729396E+01 -0.10820246220E+03  0.10883323506E+03  0.17770000000E+01 0.  1.
</event>
<event>
 6    1  0.1823098E-004  0.5043588E+03  0.7546771E-02  0.9390109E-01
        -11   -1    0    0    0    0  0.00000000000E+00  0.00000000000E+00  0.50000000000E+03  0.50000000000E+03  0.00000000000E+00 0. -1.
         11   -1    0    0    0    0 -0.00000000000E+00 -0.00000000000E+00 -0.50000000000E+03  0.50000000000E+03  0.00000000000E+00 0.  1.
        -11    1    1    2    0    0  0.57568026820E+01 -0.14692869595E+02  0.49538995049E+03  0.49564122532E+03  0.00000000000E+00 0. -1.
         11    1    1    2    0    0  0.22051763062E+02 -0.72516447667E+01 -0.40802251159E+03  0.40868231742E+03  0.00000000000E+00 0.  1.
        -15    1    1    2    0    0 -0.19133564844E+02  0.93049884074E+01 -0.34223902336E+02  0.40337443312E+02  0.17770000000E+01 0.  1.
         15    1    1    2    0    0 -0.86750009005E+01  0.12639525954E+02 -0.53143536561E+02  0.55339013943E+02  0.17770000000E+01 0. -1.
</event>
<event>
 6    1  0.1823098E-004  0.5029551E+03  0.7546771E-02  0.9393222E-01
        -11   -1    0    0    0    0  0.00000000000E+00  0.00000000000E+00  0.50000000000E+03  0.50000000000E+03  0.00000000000E+00 0.  1.
         11   -1    0    0    0    0 -0.00000000000E+00 -0.00000000000E+00 -0.50000000000E+03  0.50000000000E+03  0.00000000000E+00 0.  1.
        -11    1    1    2    0    0  0.90977103800E+01  0.48795822072E+01  0.49693769850E+03  0.49704492236E+03  0.00000000000E+00 0.  1.
         11    1    1    2    0    0  0.13407421949E+02  0.12042443269E+02 -0.41911548090E+03  0.41950276010E+03  0.00000000000E+00 0.  1.
        -15    1    1    2    0    0 -0.67271797455E+01 -0.57551153012E+01 -0.39198754555E+02  0.40225320224E+02  0.17770000000E+01 0.  1.
         15    1    1    2    0    0 -0.15777952583E+02 -0.11166910175E+02 -0.38623463045E+02  0.43226997318E+02  0.17770000000E+01 0. -1.
</event>
<event>
 6    1  0.1823098E-004  0.5008924E+03  0.7546771E-02  0.9397815E-01
        -11   -1    0    0    0    0  0.00000000000E+00  0.00000000000E+00  0.50000000000E+03  0.50000000000E+03  0.00000000000E+00 0.  1.
         11   -1    0    0    0    0 -0.00000000000E+00 -0.00000000000E+00 -0.50000000000E+03  0.50000000000E+03  0.00000000000E+00 0. -1.
        -11    1    1    2    0    0  0.20478195965E-01 -0.71366861960E+01  0.49905652826E+03  0.49910755465E+03  0.00000000000E+00 0.  1.
         11    1    1    2    0    0 -0.82034822546E+01 -0.61473252981E-01 -0.45683766690E+03  0.45691132050E+03  0.00000000000E+00 0. -1.
        -15    1    1    2    0    0  0.25336949394E+01  0.10651987484E+01 -0.67447836195E+01  0.74969389416E+01  0.17770000000E+01 0. -1.
         15    1    1    2    0    0  0.56493091192E+01  0.61329607007E+01 -0.35474077743E+02  0.36484185905E+02  0.17770000000E+01 0.  1.
</event>
<event>
 6    1  0.1823098E-004  0.5095497E+03  0.7546771E-02  0.9378691E-01
        -11   -1    0    0    0    0  0.00000000000E+00  0.00000000000E+00  0.50000000000E+03  0.50000000000E+03  0.00000000000E+00 0.  1.
         11   -1    0    0    0    0 -0.00000000000E+00 -0.00000000000E+00 -0.50000000000E+03  0.50000000000E+03  0.00000000000E+00 0. -1.
        -11    1    1    2    0    0  0.13250415323E+03  0.12805902649E+03  0.39123671848E+03  0.43246113672E+03  0.00000000000E+00 0.  1.
         11    1    1    2    0    0 -0.11434341259E+03 -0.11551207931E+03 -0.46273536606E+03  0.49045027829E+03  0.00000000000E+00 0. -1.
        -15    1    1    2    0    0 -0.21400025287E+02 -0.11952021170E+02  0.56192844468E+02  0.61331927988E+02  0.17770000000E+01 0. -1.
         15    1    1    2    0    0  0.32392846484E+01 -0.59492601518E+00  0.15305803114E+02  0.15756657005E+02  0.17770000000E+01 0.  1.
</event>
<event>
 6    1  0.1823098E-004  0.5046747E+03  0.7546771E-02  0.9389410E-01
        -11   -1    0    0    0    0  0.00000000000E+00  0.00000000000E+00  0.50000000000E+03  0.50000000000E+03  0.00000000000E+00 0. -1.
         11   -1    0    0    0    0 -0.00000000000E+00 -0.00000000000E+00 -0.50000000000E+03  0.50000000000E+03  0.00000000000E+00 0.  1.
        -11    1    1    2    0    0  0.45522604160E+01  0.61248522914E+01  0.47942035995E+03  0.47948109288E+03  0.00000000000E+00 0. -1.
         11    1    1    2    0    0 -0.81142883367E+01 -0.48873364123E+01 -0.49523472725E+03  0.49532531008E+03  0.00000000000E+00 0.  1.
        -15    1    1    2    0    0  0.19836703815E+01 -0.75719796981E+01  0.36984018617E-01  0.80267628312E+01  0.17770000000E+01 0. -1.
         15    1    1    2    0    0  0.15783575391E+01  0.63344638190E+01  0.15777383282E+02  0.17166834205E+02  0.17770000000E+01 0.  1.
</event>
<event>
 6    1  0.1823098E-004  0.5053964E+03  0.7546771E-02  0.9387815E-01
        -11   -1    0    0    0    0  0.00000000000E+00  0.00000000000E+00  0.50000000000E+03  0.50000000000E+03  0.00000000000E+00 0.  1.
         11   -1    0    0    0    0 -0.00000000000E+00 -0.00000000000E+00 -0.50000000000E+03  0.50000000000E+03  0.00000000000E+00 0.  1.
        -11    1    1    2    0    0 -0.54856778886E+01 -0.15006934839E+02  0.49434544184E+03  0.49460359544E+03  0.00000000000E+00 0.  1.
         11    1    1    2    0    0  0.12651287369E+02 -0.11552733190E+02 -0.45315314015E+03  0.45347688932E+03  0.00000000000E+00 0.  1.
        -15    1    1    2    0    0 -0.11098984947E+02  0.24205013376E+02 -0.34803622963E+02  0.43857952982E+02  0.17770000000E+01 0. -1.
         15    1    1    2    0    0  0.39333754671E+01  0.23546546534E+01 -0.63886787256E+01  0.80615622531E+01  0.17770000000E+01 0.  1.
</event>
<event>
 6    1  0.1823098E-004  0.5032464E+03  0.7546771E-02  0.9392575E-01
        -11   -1    0    0    0    0  0.00000000000E+00  0.00000000000E+00  0.50000000000E+03  0.50000000000E+03  0.00000000000E+00 0. -1.
         11   -1    0    0    0    0 -0.00000000000E+00 -0.00000000000E+00 -0.50000000000E+03  0.50000000000E+03  0.00000000000E+00 0.  1.
        -11    1    1    2    0    0 -0.61036805762E+01 -0.11724255048E+02  0.43216301603E+03  0.43236510671E+03  0.00000000000E+00 0. -1.
         11    1    1    2    0    0 -0.19365969654E+02  0.94053137036E+01 -0.49628688783E+03  0.49675363686E+03  0.00000000000E+00 0.  1.
        -15    1    1    2    0    0  0.50955311236E+01  0.70635806481E+01  0.24063902384E+02  0.25653220772E+02  0.17770000000E+01 0. -1.
         15    1    1    2    0    0  0.20374119107E+02 -0.47446393035E+01  0.40059969407E+02  0.45228035657E+02  0.17770000000E+01 0.  1.
</event>
<event>
 6    1  0.1823098E-004  0.4716396E+03  0.7546771E-02  0.9465605E-01
        -11   -1    0    0    0    0  0.00000000000E+00  0.00000000000E+00  0.50000000000E+03  0.50000000000E+03  0.00000000000E+00 0. -1.
         11   -1    0    0    0    0 -0.00000000000E+00 -0.00000000000E+00 -0.50000000000E+03  0.50000000000E+03  0.00000000000E+00 0.  1.
        -11    1    1    2    0    0 -0.28330617944E+01  0.70052493375E+01  0.48041705736E+03  0.48047648096E+03  0.00000000000E+00 0. -1.
         11    1    1    2    0    0 -0.18292365225E+02  0.27382486623E+02 -0.46266221229E+03  0.46383265719E+03  0.00000000000E+00 0.  1.
        -15    1    1    2    0    0  0.24038377782E+02 -0.27067435767E+02 -0.64799531858E-01  0.36244332155E+02  0.17770000000E+01 0.  1.
         15    1    1    2    0    0 -0.29129507627E+01 -0.73203001937E+01 -0.17690045536E+02  0.19446529694E+02  0.17770000000E+01 0. -1.
</event>
<event>
 6    1  0.1823098E-004  0.5030049E+03  0.7546771E-02  0.9393111E-01
        -11   -1    0    0    0    0  0.00000000000E+00  0.00000000000E+00  0.50000000000E+03  0.50000000000E+03  0.00000000000E+00 0.  1.
         11   -1    0    0    0    0 -0.00000000000E+00 -0.00000000000E+00 -0.50000000000E+03  0.50000000000E+03  0.00000000000E+00 0. -1.
        -11    1    1    2    0    0 -0.14072232776E+01 -0.42262140182E+01  0.22298388836E+03  0.22302837405E+03  0.00000000000E+00 0.  1.
         11    1    1    2    0    0 -0.23884981820E+02  0.37837352063E+02 -0.49497677229E+03  0.49699513346E+03  0.00000000000E+00 0. -1.
        -15    1    1    2    0    0  0.37336374460E+02 -0.31006601500E+02  0.25027235123E+03  0.25494082002E+03  0.17770000000E+01 0.  1.
         15    1    1    2    0    0 -0.12044169362E+02 -0.26045365449E+01  0.21720532704E+02  0.25035672473E+02  0.17770000000E+01 0. -1.
</event>
<event>
 6    1  0.1823098E-004  0.4459674E+03  0.7546771E-02  0.9529555E-01
        -11   -1    0    0    0    0  0.00000000000E+00  0.00000000000E+00  0.50000000000E+03  0.50000000000E+03  0.00000000000E+00 0.  1.
         11   -1    0    0    0    0 -0.00000000000E+00 -0.00000000000E+00 -0.50000000000E+03  0.50000000000E+03  0.00000000000E+00 0.  1.
        -11    1    1    2    0    0 -0.14465691459E+02  0.73447249115E+01  0.47082821461E+03  0.47110764045E+03  0.00000000000E+00 0.  1.
         11    1    1    2    0    0  0.21002940492E+02  0.60231610987E+02 -0.42003238400E+03  0.42484841306E+03  0.00000000000E+00 0.  1.
        -15    1    1    2    0    0 -0.12140719693E+02 -0.24149267416E+02 -0.53678720360E+02  0.60126092006E+02  0.17770000000E+01 0. -1.
         15    1    1    2    0    0  0.56034706592E+01 -0.43427068483E+02  0.28828897438E+01  0.43917854487E+02  0.17770000000E+01 0.  1.
</event>
<event>
 6    1  0.1823098E-004  0.4643966E+03  0.7546771E-02  0.9483200E-01
        -11   -1    0    0    0    0  0.00000000000E+00  0.00000000000E+00  0.50000000000E+03  0.50000000000E+03  0.00000000000E+00 0. -1.
         11   -1    0    0    0    0 -0.00000000000E+00 -0.00000000000E+00 -0.50000000000E+03  0.50000000000E+03  0.00000000000E+00 0. -1.
        -11    1    1    2    0    0  0.11814331168E+02 -0.41200160814E-01  0.48277542078E+03  0.48291995923E+03  0.00000000000E+00 0. -1.
         11    1    1    2    0    0  0.41857554068E+02  0.51157468199E+01 -0.44616809721E+03  0.44815644218E+03  0.00000000000E+00 0. -1.
        -15    1    1    2    0    0 -0.13512686720E+02  0.54105414947E+01 -0.18929093120E+01  0.14785381170E+02  0.17770000000E+01 0.  1.
         15    1    1    2    0    0 -0.40159198516E+02 -0.10485088154E+02 -0.34714414256E+02  0.54138217418E+02  0.17770000000E+01 0. -1.
</event>
<event>
 6    1  0.1823098E-004  0.5084577E+03  0.7546771E-02  0.9381081E-01
        -11   -1    0    0    0    0  0.00000000000E+00  0.00000000000E+00  0.50000000000E+03  0.50000000000E+03  0.00000000000E+00 0.  1.
         11   -1    0    0    0    0 -0.00000000000E+00 -0.00000000000E+00 -0.50000000000E+03  0.50000000000E+03  0.00000000000E+00 0. -1.
        -11    1    1    2    0    0 -0.70971890493E+01 -0.73649724753E+01  0.48622291949E+03  0.48633048470E+03  0.00000000000E+00 0.  1.
         11    1    1    2    0    0  0.47925556959E+01  0.80039762085E+01 -0.49145375144E+03  0.49154228915E+03  0.00000000000E+00 0. -1.
        -15    1    1    2    0    0 -0.72566309306E+01 -0.38825615675E+01 -0.30436308035E+01  0.89528986511E+01  0.17770000000E+01 0.  1.
         15    1    1    2    0    0  0.95612642840E+01  0.32435578343E+01  0.82744627452E+01  0.13174327492E+02  0.17770000000E+01 0. -1.
</event>
<event>
 6    1  0.1823098E-004  0.5014786E+03  0.7546771E-02  0.9396507E-01
        -11   -1    0    0    0    0  0.00000000000E+00  0.00000000000E+00  0.50000000000E+03  0.50000000000E+03  0.00000000000E+00 0. -1.
         11   -1    0    0    0    0 -0.00000000000E+00 -0.00000000000E+00 -0.50000000000E+03  0.50000000000E+03  0.00000000000E+00 0.  1.
        -11    1    1    2    0    0 -0.90583246000E+01  0.63953061606E+01  0.49839808422E+03  0.49852141734E+03  0.00000000000E+00 0. -1.
         11    1    1    2    0    0  0.56015416904E+01  0.46532295554E+01 -0.44951989728E+03  0.44957887835E+03  0.00000000000E+00 0.  1.
        -15    1    1    2    0    0  0.72289318009E+01 -0.10877820205E+02 -0.39309126847E+02  0.41460217195E+02  0.17770000000E+01 0.  1.
         15    1    1    2    0    0 -0.37721488912E+01 -0.17071551104E+00 -0.95690600986E+01  0.10439487115E+02  0.17770000000E+01 0. -1.
</event>
<event>
 6    1  0.1823098E-004  0.5033741E+03  0.7546771E-02  0.9392291E-01
        -11   -1    0    0    0    0  0.00000000000E+00  0.00000000000E+00  0.50000000000E+03  0.50000000000E+03  0.00000000000E+00 0. -1.
         11   -1    0    0    0    0 -0.00000000000E+00 -0.00000000000E+00 -0.50000000000E+03  0.50000000000E+03  0.00000000000E+00 0.  1.
        -11    1    1    2    0    0  0.17316653253E+00  0.68170698370E+01  0.49657903161E+03  0.49662585219E+03  0.00000000000E+00 0. -1.
         11    1    1    2    0    0  0.12704168996E+02  0.37933470668E+01 -0.46554195229E+03  0.46573071054E+03  0.00000000000E+00 0.  1.
        -15    1    1    2    0    0 -0.70221411629E+01  0.12762830478E+01 -0.15428512041E+02  0.17091988700E+02  0.17770000000E+01 0.  1.
         15    1    1    2    0    0 -0.58551943651E+01 -0.11886699952E+02 -0.15608567281E+02  0.20551448571E+02  0.17770000000E+01 0. -1.
</event>
<event>
 6    1  0.1823098E-004  0.4945235E+03  0.7546771E-02  0.9412148E-01
        -11   -1    0    0    0    0  0.00000000000E+00  0.00000000000E+00  0.50000000000E+03  0.50000000000E+03  0.00000000000E+00 0.  1.
         11   -1    0    0    0    0 -0.00000000000E+00 -0.00000000000E+00 -0.50000000000E+03  0.50000000000E+03  0.00000000000E+00 0. -1.
        -11    1    1    2    0    0  0.28660291726E+01 -0.93007022747E+01  0.49509872345E+03  0.49519436905E+03  0.00000000000E+00 0.  1.
         11    1    1    2    0    0 -0.72816460822E+01  0.11330991835E+02 -0.49368178627E+03  0.49386548760E+03  0.00000000000E+00 0. -1.
        -15    1    1    2    0    0  0.46278560091E+01 -0.52142701760E+01 -0.87497628539E+00  0.72476877146E+01  0.17770000000E+01 0. -1.
         15    1    1    2    0    0 -0.21223909951E+00  0.31839806157E+01 -0.54196089107E+00  0.36924556333E+01  0.17770000000E+01 0.  1.
</event>
<event>
 6    1  0.1823098E-004  0.5049910E+03  0.7546771E-02  0.9388711E-01
        -11   -1    0    0    0    0  0.00000000000E+00  0.00000000000E+00  0.50000000000E+03  0.50000000000E+03  0.00000000000E+00 0.  1.
         11   -1    0    0    0    0 -0.00000000000E+00 -0.00000000000E+00 -0.50000000000E+03  0.50000000000E+03  0.00000000000E+00 0. -1.
        -11    1    1    2    0    0  0.26909211784E+01  0.48476571606E+01  0.38430112398E+03  0.38434111767E+03  0.00000000000E+00 0.  1.
         11    1    1    2    0    0 -0.29759551968E+02  0.10106568995E+02 -0.49401021976E+03  0.49500896043E+03  0.00000000000E+00 0. -1.
        -15    1    1    2    0    0  0.26135910399E+02 -0.10484767450E+02  0.31508862949E+02  0.42296363132E+02  0.17770000000E+01 0.  1.
         15    1    1    2    0    0  0.93272039047E+00 -0.44694587056E+01  0.78200232834E+02  0.78353558776E+02  0.17770000000E+01 0. -1.
</event>
<event>
 6    1  0.1823098E-004  0.5013432E+03  0.7546771E-02  0.9396809E-01
        -11   -1    0    0    0    0  0.00000000000E+00  0.00000000000E+00  0.50000000000E+03  0.50000000000E+03  0.00000000000E+00 0.  1.
         11   -1    0    0    0    0 -0.00000000000E+00 -0.00000000000E+00 -0.50000000000E+03  0.50000000000E+03  0.00000000000E+00 0. -1.
        -11    1    1    2    0    0 -0.89267070455E+01 -0.15312251915E+02  0.44999736768E+03  0.45034629129E+03  0.00000000000E+00 0.  1.
         11    1    1    2    0    0  0.10699386686E+02  0.79985471895E+01 -0.49847782780E+03  0.49865679424E+03  0.00000000000E+00 0. -1.
        -15    1    1    2    0    0  0.70497276817E+00  0.10926280974E+02  0.34386940891E+02  0.36131704020E+02  0.17770000000E+01 0.  1.
         15    1    1    2    0    0 -0.24776524088E+01 -0.36125762488E+01  0.14093519225E+02  0.14865210451E+02  0.17770000000E+01 0. -1.
</event>
<event>
 6    1  0.1823098E-004  0.4709803E+03  0.7546771E-02  0.9467192E-01
        -11   -1    0    0    0    0  0.00000000000E+00  0.00000000000E+00  0.50000000000E+03  0.50000000000E+03  0.00000000000E+00 0. -1.
         11   -1    0    0    0    0 -0.00000000000E+00 -0.00000000000E+00 -0.50000000000E+03  0.50000000000E+03  0.00000000000E+00 0. -1.
        -11    1    1    2    0    0  0.58642029416E+01 -0.47978894010E+01  0.46753025944E+03  0.46759165103E+03  0.00000000000E+00 0. -1.
         11    1    1    2    0    0 -0.18866747400E+02  0.55383386033E+02 -0.47221661979E+03  0.47582749984E+03  0.00000000000E+00 0. -1.
        -15    1    1    2    0    0  0.14534982365E+02 -0.50847203208E+02  0.19263975910E+01  0.52948772631E+02  0.17770000000E+01 0.  1.
         15    1    1    2    0    0 -0.15324379068E+01  0.26170657659E+00  0.27599627532E+01  0.36320764956E+01  0.17770000000E+01 0. -1.
</event>
<event>
 6    1  0.1823098E-004  0.5097051E+03  0.7546771E-02  0.9378352E-01
        -11   -1    0    0    0    0  0.00000000000E+00  0.00000000000E+00  0.50000000000E+03  0.50000000000E+03  0.00000000000E+00 0. -1.
         11   -1    0    0    0    0 -0.00000000000E+00 -0.00000000000E+00 -0.50000000000E+03  0.50000000000E+03  0.00000000000E+00 0.  1.
        -11    1    1    2    0    0  0.33886371380E+02  0.29907686381E+01  0.48911338119E+03  0.49029494238E+03  0.00000000000E+00 0. -1.
         11    1    1    2    0    0 -0.11230230946E+02  0.23417961105E+02 -0.37739661774E+03  0.37828920957E+03  0.00000000000E+00 0.  1.
        -15    1    1    2    0    0  0.14455773985E+02 -0.52064048722E+00 -0.48651297382E+01  0.15364494277E+02  0.17770000000E+01 0.  1.
         15    1    1    2    0    0 -0.37111914419E+02 -0.25888089255E+02 -0.10685163371E+03  0.11605135377E+03  0.17770000000E+01 0. -1.
</event>
<event>
 6    1  0.1823098E-004  0.5094679E+03  0.7546771E-02  0.9378870E-01
        -11   -1    0    0    0    0  0.00000000000E+00  0.00000000000E+00  0.50000000000E+03  0.50000000000E+03  0.00000000000E+00 0.  1.
         11   -1    0    0    0    0 -0.00000000000E+00 -0.00000000000E+00 -0.50000000000E+03  0.50000000000E+03  0.00000000000E+00 0. -1.
        -11    1    1    2    0    0  0.18261193272E+01  0.52582205220E+02  0.48770230996E+03  0.49053212551E+03  0.00000000000E+00 0.  1.
         11    1    1    2    0    0 -0.48414703367E+02 -0.68625864601E+01 -0.35349293732E+03  0.35685898522E+03  0.00000000000E+00 0. -1.
        -15    1    1    2    0    0  0.33961073585E+02 -0.15693502815E+02 -0.91480249976E+02  0.98850566080E+02  0.17770000000E+01 0.  1.
         15    1    1    2    0    0  0.12627510455E+02 -0.30026115944E+02 -0.42729122667E+02  0.53758323187E+02  0.17770000000E+01 0. -1.
</event>
<event>
 6    1  0.1823098E-004  0.4878697E+03  0.7546771E-02  0.9427369E-01
        -11   -1    0    0    0    0  0.00000000000E+00  0.00000000000E+00  0.50000000000E+03  0.50000000000E+03  0.00000000000E+00 0. -1.
         11   -1    0    0    0    0 -0.00000000000E+00 -0.00000000000E+00 -0.50000000000E+03  0.50000000000E+03  0.00000000000E+00 0. -1.
        -11    1    1    2    0    0 -0.13550151877E+01 -0.64944802872E+01  0.48287287243E+03  0.48291844577E+03  0.00000000000E+00 0. -1.
         11    1    1    2    0    0 -0.19233903099E+02  0.50330552161E+01 -0.49268769288E+03  0.49308867091E+03  0.00000000000E+00 0. -1.
        -15    1    1    2    0    0  0.45216519894E+01 -0.16767503957E+01  0.40585031836E+01  0.65487407716E+01  0.17770000000E+01 0. -1.
         15    1    1    2    0    0  0.16067266297E+02  0.31381754668E+01  0.57563172614E+01  0.17444142540E+02  0.17770000000E+01 0.  1.
</event>
<event>
 6    1  0.1823098E-004  0.5017066E+03  0.7546771E-02  0.9395999E-01
        -11   -1    0    0    0    0  0.00000000000E+00  0.00000000000E+00  0.50000000000E+03  0.50000000000E+03  0.00000000000E+00 0. -1.
         11   -1    0    0    0    0 -0.00000000000E+00 -0.00000000000E+00 -0.50000000000E+03  0.50000000000E+03  0.00000000000E+00 0. -1.
        -11    1    1    2    0    0  0.14781424017E+01 -0.17713150470E+01  0.88165373856E+02  0.88195553227E+02  0.00000000000E+00 0. -1.
         11    1    1    2    0    0 -0.57072669483E+02 -0.19180710882E+02 -0.49464243596E+03  0.49829341630E+03  0.00000000000E+00 0. -1.
        -15    1    1    2    0    0 -0.68400095080E+01 -0.42412113651E+00  0.86821060461E+02  0.87109241056E+02  0.17770000000E+01 0.  1.
         15    1    1    2    0    0  0.62434536590E+02  0.21376147066E+02  0.31965600164E+03  0.32640178942E+03  0.17770000000E+01 0. -1.
</event>
<event>
 6    1  0.1823098E-004  0.5001512E+03  0.7546771E-02  0.9399471E-01
        -11   -1    0    0    0    0  0.00000000000E+00  0.00000000000E+00  0.50000000000E+03  0.50000000000E+03  0.00000000000E+00 0.  1.
         11   -1    0    0    0    0 -0.00000000000E+00 -0.00000000000E+00 -0.50000000000E+03  0.50000000000E+03  0.00000000000E+00 0. -1.
        -11    1    1    2    0    0  0.12760946421E+02  0.18221260626E+02  0.49935353697E+03  0.49984878811E+03  0.00000000000E+00 0.  1.
         11    1    1    2    0    0 -0.46979913796E+01 -0.14558171673E+02 -0.24222189344E+03  0.24270446462E+03  0.00000000000E+00 0. -1.
        -15    1    1    2    0    0 -0.65531411234E+01 -0.38507045739E+00 -0.21858382048E+03  0.21868958879E+03  0.17770000000E+01 0. -1.
         15    1    1    2    0    0 -0.15098139183E+01 -0.32780184958E+01 -0.38547823046E+02  0.38757158486E+02  0.17770000000E+01 0.  1.
</event>
<event>
 6    1  0.2142539E-004  0.5010412E+03  0.7546771E-02  0.9397483E-01
        -11   -1    0    0    0    0  0.00000000000E+00  0.00000000000E+00  0.50000000000E+03  0.50000000000E+03  0.00000000000E+00 0. -1.
         11   -1    0    0    0    0 -0.00000000000E+00 -0.00000000000E+00 -0.50000000000E+03  0.50000000000E+03  0.00000000000E+00 0.  1.
        -11    1    1    2    0    0  0.52433757276E+01  0.30424698414E+01  0.43841270178E+03  0.43845461190E+03  0.00000000000E+00 0. -1.
         11    1    1    2    0    0  0.27796092279E+01  0.75147704818E+01 -0.49889450288E+03  0.49895883899E+03  0.00000000000E+00 0.  1.
        -15    1    1    2    0    0 -0.35880656439E+01 -0.94766914417E+00  0.29785462842E+02  0.30068319168E+02  0.17770000000E+01 0. -1.
         15    1    1    2    0    0 -0.44349193117E+01 -0.96095711791E+01  0.30696338253E+02  0.32518229944E+02  0.17770000000E+01 0.  1.
</event>
<event>
 6    1  0.1823098E-004  0.4884918E+03  0.7546771E-02  0.9425935E-01
        -11   -1    0    0    0    0  0.00000000000E+00  0.00000000000E+00  0.50000000000E+03  0.50000000000E+03  0.00000000000E+00 0.  1.
         11   -1    0    0    0    0 -0.00000000000E+00 -0.00000000000E+00 -0.50000000000E+03  0.50000000000E+03  0.00000000000E+00 0. -1.
        -11    1    1    2    0    0  0.46327513700E+01 -0.55610487544E+01  0.49217748091E+03  0.49223069832E+03  0.00000000000E+00 0.  1.
         11    1    1    2    0    0  0.10765789693E+02  0.13764930433E+02 -0.48462285594E+03  0.48493781874E+03  0.00000000000E+00 0. -1.
        -15    1    1    2    0    0 -0.10824805084E+02  0.10251929060E+01 -0.29214569068E+01  0.11398248333E+02  0.17770000000E+01 0. -1.
         15    1    1    2    0    0 -0.45737359791E+01 -0.92290745843E+01 -0.46331680610E+01  0.11433234615E+02  0.17770000000E+01 0.  1.
</event>
<event>
 6    1  0.1840093E-004  0.5000667E+03  0.7546771E-02  0.9399660E-01
        -11   -1    0    0    0    0  0.00000000000E+00  0.00000000000E+00  0.50000000000E+03  0.50000000000E+03  0.00000000000E+00 0.  1.
         11   -1    0    0    0    0 -0.00000000000E+00 -0.00000000000E+00 -0.50000000000E+03  0.50000000000E+03  0.00000000000E+00 0. -1.
        -11    1    1    2    0    0 -0.25694642734E+01  0.96069081398E+01  0.22325216227E+03  0.22347353935E+03  0.00000000000E+00 0.  1.
         11    1    1    2    0    0  0.65440428524E+01 -0.16026755566E+02 -0.49963344258E+03  0.49993325388E+03  0.00000000000E+00 0. -1.
        -15    1    1    2    0    0 -0.38415132980E+01  0.30738002426E+01  0.22926287197E+03  0.22932254068E+03  0.17770000000E+01 0.  1.
         15    1    1    2    0    0 -0.13306528103E+00  0.33460471839E+01  0.47118408344E+02  0.47270666084E+02  0.17770000000E+01 0. -1.
</event>
<event>
 6    1  0.1823098E-004  0.5082661E+03  0.7546771E-02  0.9381501E-01
        -11   -1    0    0    0    0  0.00000000000E+00  0.00000000000E+00  0.50000000000E+03  0.50000000000E+03  0.00000000000E+00 0.  1.
         11   -1    0    0    0    0 -0.00000000000E+00 -0.00000000000E+00 -0.50000000000E+03  0.50000000000E+03  0.00000000000E+00 0.  1.
        -11    1    1    2    0    0  0.78199045240E+01 -0.82642207234E+01  0.46372862341E+03  0.46386817569E+03  0.00000000000E+00 0.  1.
         11    1    1    2    0    0 -0.27778041876E+02 -0.19111553119E+02 -0.49057657599E+03  0.49173391991E+03  0.00000000000E+00 0.  1.
        -15    1    1    2    0    0  0.12341144863E+02  0.21888681450E+02  0.15558437352E+02  0.29608122770E+02  0.17770000000E+01 0.  1.
         15    1    1    2    0    0  0.76169924895E+01  0.54870923922E+01  0.11289515233E+02  0.14789781631E+02  0.17770000000E+01 0. -1.
</event>
<event>
 6    1  0.1823098E-004  0.5004339E+03  0.7546771E-02  0.9398839E-01
        -11   -1    0    0    0    0  0.00000000000E+00  0.00000000000E+00  0.50000000000E+03  0.50000000000E+03  0.00000000000E+00 0. -1.
         11   -1    0    0    0    0 -0.00000000000E+00 -0.00000000000E+00 -0.50000000000E+03  0.50000000000E+03  0.00000000000E+00 0. -1.
        -11    1    1    2    0    0 -0.47505248805E+01 -0.10179180876E+01  0.32723284826E+03  0.32726891179E+03  0.00000000000E+00 0. -1.
         11    1    1    2    0    0  0.12954468311E+02 -0.12219682101E+01 -0.49939662651E+03  0.49956611376E+03  0.00000000000E+00 0. -1.
        -15    1    1    2    0    0  0.18733162098E+01  0.26689781783E+01  0.11697485333E+03  0.11703378486E+03  0.17770000000E+01 0. -1.
         15    1    1    2    0    0 -0.10077259640E+02 -0.42909188060E+00  0.55188924915E+02  0.56131189583E+02  0.17770000000E+01 0. -1.
</event>
<event>
 6    1  0.1823098E-004  0.5042502E+03  0.7546771E-02  0.9390349E-01
        -11   -1    0    0    0    0  0.00000000000E+00  0.00000000000E+00  0.50000000000E+03  0.50000000000E+03  0.00000000000E+00 0.  1.
         11   -1    0    0    0    0 -0.00000000000E+00 -0.00000000000E+00 -0.50000000000E+03  0.50000000000E+03  0.00000000000E+00 0. -1.
        -11    1    1    2    0    0 -0.13220993470E+02  0.24583250264E+02  0.49496333030E+03  0.49574976470E+03  0.00000000000E+00 0.  1.
         11    1    1    2    0    0  0.26855444853E+02  0.28749816247E-01 -0.78485368533E+02  0.82952810794E+02  0.00000000000E+00 0. -1.
        -15    1    1    2    0    0 -0.65973043599E+01 -0.17118994154E+02 -0.33980079387E+02  0.38657313795E+02  0.17770000000E+01 0.  1.
         15    1    1    2    0    0 -0.70371470232E+01 -0.74930059259E+01 -0.38249788237E+03  0.38264011071E+03  0.17770000000E+01 0. -1.
</event>
<event>
 6    1  0.1823098E-004  0.5045350E+03  0.7546771E-02  0.9389719E-01
        -11   -1    0    0    0    0  0.00000000000E+00  0.00000000000E+00  0.50000000000E+03  0.50000000000E+03  0.00000000000E+00 0.  1.
         11   -1    0    0    0    0 -0.00000000000E+00 -0.00000000000E+00 -0.50000000000E+03  0.50000000000E+03  0.00000000000E+00 0.  1.
        -11    1    1    2    0    0  0.90531507727E+01  0.35123985656E+00  0.47897769977E+03  0.47906337763E+03  0.00000000000E+00 0.  1.
         11    1    1    2    0    0  0.42017694446E+01 -0.83424677831E+01 -0.49537693000E+03  0.49546498808E+03  0.00000000000E+00 0.  1.
        -15    1    1    2    0    0 -0.42980451879E+01  0.35250817763E+01  0.13794395819E+02  0.14978066597E+02  0.17770000000E+01 0. -1.
         15    1    1    2    0    0 -0.89568750294E+01  0.44661461502E+01  0.26048344114E+01  0.10493567698E+02  0.17770000000E+01 0.  1.
</event>
<event>
 6    1  0.1823098E-004  0.5004056E+03  0.7546771E-02  0.9398903E-01
        -11   -1    0    0    0    0  0.00000000000E+00  0.00000000000E+00  0.50000000000E+03  0.50000000000E+03  0.00000000000E+00 0. -1.
         11   -1    0    0    0    0 -0.00000000000E+00 -0.00000000000E+00 -0.50000000000E+03  0.50000000000E+03  0.00000000000E+00 0.  1.
        -11    1    1    2    0    0 -0.79990448147E+00  0.74872062112E+01  0.49953770048E+03  0.49959444783E+03  0.00000000000E+00 0. -1.
         11    1    1    2    0    0 -0.67737031652E+01 -0.11425038670E+02 -0.29841212214E+03  0.29870756469E+03  0.00000000000E+00 0.  1.
        -15    1    1    2    0    0  0.47671521808E+01  0.31597175850E+01 -0.33078568151E+02  0.33616349520E+02  0.17770000000E+01 0. -1.
         15    1    1    2    0    0  0.28064554659E+01  0.77811487414E+00 -0.16804701019E+03  0.16808163796E+03  0.17770000000E+01 0. -1.
</event>
<event>
 6    1  0.1823098E-004  0.5052629E+03  0.7546771E-02  0.9388110E-01
        -11   -1    0    0    0    0  0.00000000000E+00  0.00000000000E+00  0.50000000000E+03  0.50000000000E+03  0.00000000000E+00 0.  1.
         11   -1    0    0    0    0 -0.00000000000E+00 -0.00000000000E+00 -0.50000000000E+03  0.50000000000E+03  0.00000000000E+00 0.  1.
        -11    1    1    2    0    0  0.25295504259E+01 -0.19635748784E+02  0.45247630330E+03  0.45290922524E+03  0.00000000000E+00 0.  1.
         11    1    1    2    0    0 -0.22305940104E+02  0.29620538370E+02  0.36959139682E+02  0.52353693883E+02  0.00000000000E+00 0.  1.
        -15    1    1    2    0    0  0.10554538203E+02 -0.38477912439E+02 -0.33857508198E+03  0.34092255996E+03  0.17770000000E+01 0.  1.
         15    1    1    2    0    0  0.92218514747E+01  0.28493122853E+02 -0.15086036101E+03  0.15381452092E+03  0.17770000000E+01 0. -1.
</event>
<event>
 6    1  0.1823098E-004  0.5268099E+03  0.7546771E-02  0.9341741E-01
        -11   -1    0    0    0    0  0.00000000000E+00  0.00000000000E+00  0.50000000000E+03  0.50000000000E+03  0.00000000000E+00 0.  1.
         11   -1    0    0    0    0 -0.00000000000E+00 -0.00000000000E+00 -0.50000000000E+03  0.50000000000E+03  0.00000000000E+00 0. -1.
        -11    1    1    2    0    0  0.33289308479E+02  0.48651086760E+02  0.40467540733E+03  0.40894656326E+03  0.00000000000E+00 0.  1.
         11    1    1    2    0    0 -0.56490339795E+02  0.23397455198E+02 -0.46922309585E+03  0.47319014474E+03  0.00000000000E+00 0. -1.
        -15    1    1    2    0    0  0.16219762542E+02 -0.44766011748E+02  0.25145466366E+00  0.47647638590E+02  0.17770000000E+01 0. -1.
         15    1    1    2    0    0  0.69812687734E+01 -0.27282530209E+02  0.64296233849E+02  0.70215653415E+02  0.17770000000E+01 0.  1.
</event>
<event>
 6    1  0.1823098E-004  0.5094073E+03  0.7546771E-02  0.9379003E-01
        -11   -1    0    0    0    0  0.00000000000E+00  0.00000000000E+00  0.50000000000E+03  0.50000000000E+03  0.00000000000E+00 0. -1.
         11   -1    0    0    0    0 -0.00000000000E+00 -0.00000000000E+00 -0.50000000000E+03  0.50000000000E+03  0.00000000000E+00 0.  1.
        -11    1    1    2    0    0  0.53812475210E+01 -0.56437681033E+01  0.49053067621E+03  0.49059265613E+03  0.00000000000E+00 0. -1.
         11    1    1    2    0    0 -0.38752813218E+01 -0.12559568665E+02 -0.47911654940E+03  0.47929680625E+03  0.00000000000E+00 0.  1.
        -15    1    1    2    0    0 -0.10482550717E+02  0.49182025894E+01 -0.53227766113E+01  0.12867100143E+02  0.17770000000E+01 0.  1.
         15    1    1    2    0    0  0.89765845180E+01  0.13285134179E+02 -0.60913502043E+01  0.17243437478E+02  0.17770000000E+01 0. -1.
</event>
<event>
 6    1  0.1823098E-004  0.5006096E+03  0.7546771E-02  0.9398447E-01
        -11   -1    0    0    0    0  0.00000000000E+00  0.00000000000E+00  0.50000000000E+03  0.50000000000E+03  0.00000000000E+00 0. -1.
         11   -1    0    0    0    0 -0.00000000000E+00 -0.00000000000E+00 -0.50000000000E+03  0.50000000000E+03  0.00000000000E+00 0.  1.
        -11    1    1    2    0    0 -0.34580839513E+01 -0.18186399433E+01  0.28369410447E+03  0.28372100857E+03  0.00000000000E+00 0. -1.
         11    1    1    2    0    0 -0.18488564500E+02  0.55467650308E+01 -0.49901718538E+03  0.49939037328E+03  0.00000000000E+00 0.  1.
        -15    1    1    2    0    0  0.49943942732E+01  0.16291582184E+01  0.10337724727E+03  0.10352589586E+03  0.17770000000E+01 0.  1.
         15    1    1    2    0    0  0.16952254178E+02 -0.53572833058E+01  0.11194583364E+03  0.11336272229E+03  0.17770000000E+01 0. -1.
</event>
<event>
 6    1  0.1823098E-004  0.4871784E+03  0.7546771E-02  0.9428965E-01
        -11   -1    0    0    0    0  0.00000000000E+00  0.00000000000E+00  0.50000000000E+03  0.50000000000E+03  0.00000000000E+00 0. -1.
         11   -1    0    0    0    0 -0.00000000000E+00 -0.00000000000E+00 -0.50000000000E+03  0.50000000000E+03  0.00000000000E+00 0.  1.
        -11    1    1    2    0    0  0.56966610407E+01  0.88525688166E+01  0.49206640042E+03  0.49217899421E+03  0.00000000000E+00 0. -1.
         11    1    1    2    0    0 -0.22590408592E+02 -0.13010875063E+02 -0.48168352826E+03  0.48238846465E+03  0.00000000000E+00 0.  1.
        -15    1    1    2    0    0  0.17265583995E+02  0.45145277444E+01 -0.13054817431E+02  0.22182590890E+02  0.17770000000E+01 0. -1.
         15    1    1    2    0    0 -0.37183644399E+00 -0.35622149823E+00  0.26719452719E+01  0.32499502509E+01  0.17770000000E+01 0.  1.
</event>
<event>
 6    1  0.1823098E-004  0.5039889E+03  0.7546771E-02  0.9390928E-01
        -11   -1    0    0    0    0  0.00000000000E+00  0.00000000000E+00  0.50000000000E+03  0.50000000000E+03  0.00000000000E+00 0.  1.
         11   -1    0    0    0    0 -0.00000000000E+00 -0.00000000000E+00 -0.50000000000E+03  0.50000000000E+03  0.00000000000E+00 0.  1.
        -11    1    1    2    0    0  0.33520106215E+01 -0.57153064761E+01  0.46092574464E+03  0.46097336450E+03  0.00000000000E+00 0.  1.
         11    1    1    2    0    0  0.16474884565E+02  0.19780052072E+02 -0.49534261362E+03  0.49601106555E+03  0.00000000000E+00 0.  1.
        -15    1    1    2    0    0 -0.47408280112E+01 -0.79234522841E+01  0.13278107674E+02  0.16270292521E+02  0.17770000000E+01 0. -1.
         15    1    1    2    0    0 -0.15086067175E+02 -0.61412933116E+01  0.21138761306E+02  0.26745277432E+02  0.17770000000E+01 0.  1.
</event>
<event>
 6    1  0.1823098E-004  0.5037802E+03  0.7546771E-02  0.9391391E-01
        -11   -1    0    0    0    0  0.00000000000E+00  0.00000000000E+00  0.50000000000E+03  0.50000000000E+03  0.00000000000E+00 0. -1.
         11   -1    0    0    0    0 -0.00000000000E+00 -0.00000000000E+00 -0.50000000000E+03  0.50000000000E+03  0.00000000000E+00 0.  1.
        -11    1    1    2    0    0 -0.36154194019E+01 -0.11264304733E+02  0.49607874346E+03  0.49621978551E+03  0.00000000000E+00 0. -1.
         11    1    1    2    0    0  0.20961430619E+02 -0.12710809956E+02 -0.38188766943E+03  0.38267367081E+03  0.00000000000E+00 0.  1.
        -15    1    1    2    0    0  0.23315605740E+01  0.14512889410E+02 -0.23249626229E+02  0.27563798405E+02  0.17770000000E+01 0.  1.
         15    1    1    2    0    0 -0.19677571791E+02  0.94622252789E+01 -0.90941447796E+02  0.93542745283E+02  0.17770000000E+01 0. -1.
</event>
<event>
 6    1  0.1823098E-004  0.5002893E+03  0.7546771E-02  0.9399163E-01
        -11   -1    0    0    0    0  0.00000000000E+00  0.00000000000E+00  0.50000000000E+03  0.50000000000E+03  0.00000000000E+00 0. -1.
         11   -1    0    0    0    0 -0.00000000000E+00 -0.00000000000E+00 -0.50000000000E+03  0.50000000000E+03  0.00000000000E+00 0.  1.
        -11    1    1    2    0    0  0.18717323080E+01  0.55052956629E+01  0.18131853757E+03  0.18141175190E+03  0.00000000000E+00 0. -1.
         11    1    1    2    0    0 -0.17835717149E+02  0.39418993943E+01 -0.49937670120E+03  0.49971065736E+03  0.00000000000E+00 0.  1.
        -15    1    1    2    0    0  0.95139917018E+01 -0.11619596868E+02  0.24997812796E+03  0.25043512784E+03  0.17770000000E+01 0. -1.
         15    1    1    2    0    0  0.64499931395E+01  0.21724018111E+01  0.68080035674E+02  0.68442462897E+02  0.17770000000E+01 0.  1.
</event>
<event>
 6    1  0.1823098E-004  0.5139663E+03  0.7546771E-02  0.9369090E-01
        -11   -1    0    0    0    0  0.00000000000E+00  0.00000000000E+00  0.50000000000E+03  0.50000000000E+03  0.00000000000E+00 0. -1.
         11   -1    0    0    0    0 -0.00000000000E+00 -0.00000000000E+00 -0.50000000000E+03  0.50000000000E+03  0.00000000000E+00 0.  1.
        -11    1    1    2    0    0 -0.15311577489E+01  0.96024946026E+01  0.35840153827E+03  0.35853342241E+03  0.00000000000E+00 0. -1.
         11    1    1    2    0    0 -0.81934159437E+02  0.41937560666E+02 -0.47723869712E+03  0.48603368145E+03  0.00000000000E+00 0.  1.
        -15    1    1    2    0    0  0.80760278230E+02 -0.50586035286E+02  0.10780680471E+03  0.14389799991E+03  0.17770000000E+01 0. -1.
         15    1    1    2    0    0  0.27050389565E+01 -0.95401998309E+00  0.11030354131E+02  0.11534896235E+02  0.17770000000E+01 0.  1.
</event>
<event>
 6    1  0.1823098E-004  0.5016261E+03  0.7546771E-02  0.9396178E-01
        -11   -1    0    0    0    0  0.00000000000E+00  0.00000000000E+00  0.50000000000E+03  0.50000000000E+03  0.00000000000E+00 0.  1.
         11   -1    0    0    0    0 -0.00000000000E+00 -0.00000000000E+00 -0.50000000000E+03  0.50000000000E+03  0.00000000000E+00 0.  1.
        -11    1    1    2    0    0  0.53568666971E+01  0.48287435455E+01  0.49832170181E+03  0.49837388704E+03  0.00000000000E+00 0.  1.
         11    1    1    2    0    0  0.27132692113E+01  0.15699656840E+02 -0.40834831989E+03  0.40865901607E+03  0.00000000000E+00 0.  1.
        -15    1    1    2    0    0 -0.50230119735E+00 -0.60496847043E+01 -0.35853629967E+02  0.36407300124E+02  0.17770000000E+01 0. -1.
         15    1    1    2    0    0 -0.75678347110E+01 -0.14478715681E+02 -0.54119751955E+02  0.56559796770E+02  0.17770000000E+01 0.  1.
</event>
<event>
 6    1  0.1823098E-004  0.5016426E+03  0.7546771E-02  0.9396142E-01
        -11   -1    0    0    0    0  0.00000000000E+00  0.00000000000E+00  0.50000000000E+03  0.50000000000E+03  0.00000000000E+00 0.  1.
         11   -1    0    0    0    0 -0.00000000000E+00 -0.00000000000E+00 -0.50000000000E+03  0.50000000000E+03  0.00000000000E+00 0. -1.
        -11    1    1    2    0    0  0.46378601679E+01 -0.90676709659E+01  0.49825327411E+03  0.49835735930E+03  0.00000000000E+00 0.  1.
         11    1    1    2    0    0  0.11008922439E+02  0.74737642365E+01 -0.44267545361E+03  0.44287538964E+03  0.00000000000E+00 0. -1.
        -15    1    1    2    0    0 -0.12180560190E+02 -0.33304559524E+01 -0.39476519891E+02  0.41485073642E+02  0.17770000000E+01 0. -1.
         15    1    1    2    0    0 -0.34662224176E+01  0.49243626817E+01 -0.16101300615E+02  0.17282177414E+02  0.17770000000E+01 0.  1.
</event>
<event>
 6    1  0.1823098E-004  0.4785797E+03  0.7546771E-02  0.9449058E-01
        -11   -1    0    0    0    0  0.00000000000E+00  0.00000000000E+00  0.50000000000E+03  0.50000000000E+03  0.00000000000E+00 0. -1.
         11   -1    0    0    0    0 -0.00000000000E+00 -0.00000000000E+00 -0.50000000000E+03  0.50000000000E+03  0.00000000000E+00 0. -1.
        -11    1    1    2    0    0 -0.59433005091E+01  0.11739598215E+02  0.48515058732E+03  0.48532899498E+03  0.00000000000E+00 0. -1.
         11    1    1    2    0    0 -0.24029049332E+02 -0.13362682609E+02 -0.47159603790E+03  0.47239684531E+03  0.00000000000E+00 0. -1.
        -15    1    1    2    0    0  0.26022420883E+02  0.11952516326E+02 -0.11371996982E+02  0.30862745819E+02  0.17770000000E+01 0. -1.
         15    1    1    2    0    0  0.39499289584E+01 -0.10329431932E+02 -0.21825524414E+01  0.11411413890E+02  0.17770000000E+01 0.  1.
</event>
<event>
 6    1  0.1823098E-004  0.5012297E+03  0.7546771E-02  0.9397062E-01
        -11   -1    0    0    0    0  0.00000000000E+00  0.00000000000E+00  0.50000000000E+03  0.50000000000E+03  0.00000000000E+00 0.  1.
         11   -1    0    0    0    0 -0.00000000000E+00 -0.00000000000E+00 -0.50000000000E+03  0.50000000000E+03  0.00000000000E+00 0. -1.
        -11    1    1    2    0    0 -0.66250092684E+01 -0.67221671334E+01  0.36685230702E+03  0.36697369585E+03  0.00000000000E+00 0.  1.
         11    1    1    2    0    0  0.71019747929E+01 -0.13363777831E+02 -0.49854066893E+03  0.49877031506E+03  0.00000000000E+00 0. -1.
        -15    1    1    2    0    0 -0.59962361322E+01  0.19198329166E+02  0.97610439547E+02  0.99676909704E+02  0.17770000000E+01 0.  1.
         15    1    1    2    0    0  0.55192706077E+01  0.88761579840E+00  0.34077922366E+02  0.34579079392E+02  0.17770000000E+01 0. -1.
</event>
<event>
 6    1  0.1823098E-004  0.4746178E+03  0.7546771E-02  0.9458467E-01
        -11   -1    0    0    0    0  0.00000000000E+00  0.00000000000E+00  0.50000000000E+03  0.50000000000E+03  0.00000000000E+00 0. -1.
         11   -1    0    0    0    0 -0.00000000000E+00 -0.00000000000E+00 -0.50000000000E+03  0.50000000000E+03  0.00000000000E+00 0.  1.
        -11    1    1    2    0    0 -0.83940876711E+01  0.66032353886E+01  0.47288763262E+03  0.47300822034E+03  0.00000000000E+00 0. -1.
         11    1    1    2    0    0  0.40957312882E+02  0.13617330663E+02 -0.47504656882E+03  0.47700332883E+03  0.00000000000E+00 0.  1.
        -15    1    1    2    0    0  0.39079546711E+00 -0.80382964224E+01  0.10972128979E+02  0.13722691930E+02  0.17770000000E+01 0. -1.
         15    1    1    2    0    0 -0.32954020678E+02 -0.12182269629E+02 -0.88131927858E+01  0.36265758895E+02  0.17770000000E+01 0.  1.
</event>
<event>
 6    1  0.1823098E-004  0.5005686E+03  0.7546771E-02  0.9398538E-01
        -11   -1    0    0    0    0  0.00000000000E+00  0.00000000000E+00  0.50000000000E+03  0.50000000000E+03  0.00000000000E+00 0. -1.
         11   -1    0    0    0    0 -0.00000000000E+00 -0.00000000000E+00 -0.50000000000E+03  0.50000000000E+03  0.00000000000E+00 0.  1.
        -11    1    1    2    0    0 -0.16635678122E+01  0.20874462109E+01  0.16145001334E+03  0.16147207714E+03  0.00000000000E+00 0. -1.
         11    1    1    2    0    0 -0.16319149339E+02 -0.11707046733E+02 -0.49902742369E+03  0.49943141588E+03  0.00000000000E+00 0.  1.
        -15    1    1    2    0    0 -0.46948135084E+01  0.25910195382E+01  0.25791481078E+02  0.26402895321E+02  0.17770000000E+01 0.  1.
         15    1    1    2    0    0  0.22677530660E+02  0.70285809842E+01  0.31178592927E+03  0.31269361165E+03  0.17770000000E+01 0. -1.
</event>
<event>
 6    1  0.1823098E-004  0.5077891E+03  0.7546771E-02  0.9382548E-01
        -11   -1    0    0    0    0  0.00000000000E+00  0.00000000000E+00  0.50000000000E+03  0.50000000000E+03  0.00000000000E+00 0. -1.
         11   -1    0    0    0    0 -0.00000000000E+00 -0.00000000000E+00 -0.50000000000E+03  0.50000000000E+03  0.00000000000E+00 0. -1.
        -11    1    1    2    0    0  0.58257341597E+01 -0.77948781956E+01  0.49211465070E+03  0.49221085801E+03  0.00000000000E+00 0. -1.
         11    1    1    2    0    0  0.41923030051E+01 -0.42599655745E+02 -0.30884584709E+03  0.31179811311E+03  0.00000000000E+00 0. -1.
        -15    1    1    2    0    0  0.11500675730E+02  0.19667659494E+01 -0.12550575817E+02  0.17228127957E+02  0.17770000000E+01 0.  1.
         15    1    1    2    0    0 -0.21518712895E+02  0.48427767991E+02 -0.17071822780E+03  0.17876290093E+03  0.17770000000E+01 0. -1.
</event>
<event>
 6    1  0.1823098E-004  0.5002782E+03  0.7546771E-02  0.9399187E-01
        -11   -1    0    0    0    0  0.00000000000E+00  0.00000000000E+00  0.50000000000E+03  0.50000000000E+03  0.00000000000E+00 0.  1.
         11   -1    0    0    0    0 -0.00000000000E+00 -0.00000000000E+00 -0.50000000000E+03  0.50000000000E+03  0.00000000000E+00 0. -1.
        -11    1    1    2    0    0 -0.18175428840E+01  0.81239870868E+01  0.49965245961E+03  0.49972180563E+03  0.00000000000E+00 0.  1.
         11    1    1    2    0    0  0.57470721478E+01 -0.63725886374E+01 -0.28668695147E+03  0.28681535326E+03  0.00000000000E+00 0. -1.
        -15    1    1    2    0    0  0.44666541777E+00  0.50511407792E+01 -0.12289710699E+03  0.12301451202E+03  0.17770000000E+01 0. -1.
         15    1    1    2    0    0 -0.43761946816E+01 -0.68025392286E+01 -0.90068401154E+02  0.90448329090E+02  0.17770000000E+01 0.  1.
</event>
<event>
 6    1  0.1823098E-004  0.5083122E+03  0.7546771E-02  0.9381400E-01
        -11   -1    0    0    0    0  0.00000000000E+00  0.00000000000E+00  0.50000000000E+03  0.50000000000E+03  0.00000000000E+00 0. -1.
         11   -1    0    0    0    0 -0.00000000000E+00 -0.00000000000E+00 -0.50000000000E+03  0.50000000000E+03  0.00000000000E+00 0.  1.
        -11    1    1    2    0    0 -0.32549356653E+01  0.12919113834E+02  0.49150731019E+03  0.49168784211E+03  0.00000000000E+00 0. -1.
         11    1    1    2    0    0  0.36776308273E+02 -0.33696161730E+02 -0.79300422905E+02  0.93682897257E+02  0.00000000000E+00 0.  1.
        -15    1    1    2    0    0 -0.34859417588E+02  0.19650036097E+02 -0.40550400279E+03  0.40747755389E+03  0.17770000000E+01 0.  1.
         15    1    1    2    0    0  0.13380449803E+01  0.11270117989E+01 -0.67028844893E+01  0.71517067502E+01  0.17770000000E+01 0. -1.
</event>
<event>
 6    1  0.1823098E-004  0.5007622E+03  0.7546771E-02  0.9398106E-01
        -11   -1    0    0    0    0  0.00000000000E+00  0.00000000000E+00  0.50000000000E+03  0.50000000000E+03  0.00000000000E+00 0.  1.
         11   -1    0    0    0    0 -0.00000000000E+00 -0.00000000000E+00 -0.50000000000E+03  0.50000000000E+03  0.00000000000E+00 0. -1.
        -11    1    1    2    0    0 -0.51104625377E+01  0.83594135207E+01  0.49914163583E+03  0.49923778828E+03  0.00000000000E+00 0.  1.
         11    1    1    2    0    0 -0.55056812902E+01 -0.99019648187E+01 -0.42903345411E+02  0.44374074426E+02  0.00000000000E+00 0. -1.
        -15    1    1    2    0    0  0.49607122942E+01  0.68960339463E+00 -0.15699458854E+03  0.15708450840E+03  0.17770000000E+01 0. -1.
         15    1    1    2    0    0  0.56554315337E+01  0.85294790333E+00 -0.29924370189E+03  0.29930362890E+03  0.17770000000E+01 0. -1.
</event>
<event>
 6    1  0.1823098E-004  0.5034582E+03  0.7546771E-02  0.9392105E-01
        -11   -1    0    0    0    0  0.00000000000E+00  0.00000000000E+00  0.50000000000E+03  0.50000000000E+03  0.00000000000E+00 0. -1.
         11   -1    0    0    0    0 -0.00000000000E+00 -0.00000000000E+00 -0.50000000000E+03  0.50000000000E+03  0.00000000000E+00 0. -1.
        -11    1    1    2    0    0 -0.23678743306E+02 -0.17449265882E+02  0.49566988060E+03  0.49654183137E+03  0.00000000000E+00 0. -1.
         11    1    1    2    0    0  0.29210387101E+02  0.13306049276E+02 -0.63273982304E+02  0.70949943612E+02  0.00000000000E+00 0. -1.
        -15    1    1    2    0    0  0.86589826307E+00  0.19257321441E+01 -0.96829994521E+02  0.96869312953E+02  0.17770000000E+01 0. -1.
         15    1    1    2    0    0 -0.63975420576E+01  0.22174844624E+01 -0.33556590378E+03  0.33563891206E+03  0.17770000000E+01 0.  1.
</event>
<event>
 6    1  0.1823098E-004  0.5001119E+03  0.7546771E-02  0.9399559E-01
        -11   -1    0    0    0    0  0.00000000000E+00  0.00000000000E+00  0.50000000000E+03  0.50000000000E+03  0.00000000000E+00 0.  1.
         11   -1    0    0    0    0 -0.00000000000E+00 -0.00000000000E+00 -0.50000000000E+03  0.50000000000E+03  0.00000000000E+00 0. -1.
        -11    1    1    2    0    0  0.13800694204E+01 -0.36999408963E+01  0.14231753548E+03  0.14237231142E+03  0.00000000000E+00 0.  1.
         11    1    1    2    0    0 -0.91018213281E+01  0.67479504720E+01 -0.49975967446E+03  0.49988809768E+03  0.00000000000E+00 0. -1.
        -15    1    1    2    0    0  0.85969536555E+01  0.86955651065E+00  0.30011232932E+03  0.30024195523E+03  0.17770000000E+01 0.  1.
         15    1    1    2    0    0 -0.87520174776E+00 -0.39175660863E+01  0.57329809667E+02  0.57497635670E+02  0.17770000000E+01 0. -1.
</event>
<event>
 6    1  0.1939112E-004  0.5000264E+03  0.7546771E-02  0.9399751E-01
        -11   -1    0    0    0    0  0.00000000000E+00  0.00000000000E+00  0.50000000000E+03  0.50000000000E+03  0.00000000000E+00 0. -1.
         11   -1    0    0    0    0 -0.00000000000E+00 -0.00000000000E+00 -0.50000000000E+03  0.50000000000E+03  0.00000000000E+00 0.  1.
        -11    1    1    2    0    0  0.61698007010E+00  0.13483571764E+01  0.40034297594E+02  0.40061748780E+02  0.00000000000E+00 0. -1.
         11    1    1    2    0    0 -0.23525518400E+01 -0.86754418853E+01 -0.49989280826E+03  0.49997361685E+03  0.00000000000E+00 0.  1.
        -15    1    1    2    0    0 -0.23221423520E-01  0.64747954860E+01  0.38703068796E+03  0.38708892346E+03  0.17770000000E+01 0. -1.
         15    1    1    2    0    0  0.17587931935E+01  0.85228922284E+00  0.72827822711E+02  0.72875710907E+02  0.17770000000E+01 0. -1.
</event>
<event>
 6    1  0.1823098E-004  0.5001146E+03  0.7546771E-02  0.9399553E-01
        -11   -1    0    0    0    0  0.00000000000E+00  0.00000000000E+00  0.50000000000E+03  0.50000000000E+03  0.00000000000E+00 0. -1.
         11   -1    0    0    0    0 -0.00000000000E+00 -0.00000000000E+00 -0.50000000000E+03  0.50000000000E+03  0.00000000000E+00 0. -1.
        -11    1    1    2    0    0 -0.57620673468E+01 -0.16428384623E+02  0.49958219043E+03  0.49988544512E+03  0.00000000000E+00 0. -1.
         11    1    1    2    0    0  0.49593142109E+01  0.79920832118E+01 -0.10567566040E+03  0.10609341823E+03  0.00000000000E+00 0. -1.
        -15    1    1    2    0    0  0.58182347394E+00  0.24804378862E+01 -0.97854660655E+02  0.97903950030E+02  0.17770000000E+01 0. -1.
         15    1    1    2    0    0  0.22092966197E+00  0.59558635252E+01 -0.29605186938E+03  0.29611718662E+03  0.17770000000E+01 0. -1.
</event>
<event>
 6    1  0.1823098E-004  0.5169155E+03  0.7546771E-02  0.9362736E-01
        -11   -1    0    0    0    0  0.00000000000E+00  0.00000000000E+00  0.50000000000E+03  0.50000000000E+03  0.00000000000E+00 0.  1.
         11   -1    0    0    0    0 -0.00000000000E+00 -0.00000000000E+00 -0.50000000000E+03  0.50000000000E+03  0.00000000000E+00 0.  1.
        -11    1    1    2    0    0 -0.13439732483E+02  0.10438466342E+02  0.48278468225E+03  0.48308450338E+03  0.00000000000E+00 0.  1.
         11    1    1    2    0    0 -0.15541269414E+02  0.73559035758E+01 -0.45974529426E+03  0.46006670817E+03  0.00000000000E+00 0.  1.
        -15    1    1    2    0    0 -0.28036087951E+01 -0.16925551357E+02 -0.17413389330E+02  0.24509556666E+02  0.17770000000E+01 0.  1.
         15    1    1    2    0    0  0.31784610691E+02 -0.86881856085E+00 -0.56259986589E+01  0.32339231784E+02  0.17770000000E+01 0. -1.
</event>
<event>
 6    1  0.1823098E-004  0.5045952E+03  0.7546771E-02  0.9389586E-01
        -11   -1    0    0    0    0  0.00000000000E+00  0.00000000000E+00  0.50000000000E+03  0.50000000000E+03  0.00000000000E+00 0.  1.
         11   -1    0    0    0    0 -0.00000000000E+00 -0.00000000000E+00 -0.50000000000E+03  0.50000000000E+03  0.00000000000E+00 0. -1.
        -11    1    1    2    0    0  0.18003828188E+03 -0.16121126429E+03  0.37598465816E+03  0.44695337324E+03  0.00000000000E+00 0.  1.
         11    1    1    2    0    0 -0.19719745649E+03  0.15070453689E+03 -0.42875077509E+03  0.49540480561E+03  0.00000000000E+00 0. -1.
        -15    1    1    2    0    0  0.35016316520E+01 -0.16251799634E+01  0.15919781895E+02  0.16477251552E+02  0.17770000000E+01 0. -1.
         15    1    1    2    0    0  0.13657542954E+02  0.12131907361E+02  0.36846335030E+02  0.41164569595E+02  0.17770000000E+01 0. -1.
</event>
<event>
 6    1  0.1823098E-004  0.5007364E+03  0.7546771E-02  0.9398163E-01
        -11   -1    0    0    0    0  0.00000000000E+00  0.00000000000E+00  0.50000000000E+03  0.50000000000E+03  0.00000000000E+00 0. -1.
         11   -1    0    0    0    0 -0.00000000000E+00 -0.00000000000E+00 -0.50000000000E+03  0.50000000000E+03  0.00000000000E+00 0.  1.
        -11    1    1    2    0    0  0.70663227901E+00  0.56906665787E+01  0.38107661974E+03  0.38111976219E+03  0.00000000000E+00 0. -1.
         11    1    1    2    0    0  0.69783744511E+01  0.76334818077E+01 -0.49915644119E+03  0.49926357822E+03  0.00000000000E+00 0.  1.
        -15    1    1    2    0    0 -0.66021548937E+01 -0.96810049081E+01  0.49131292854E+02  0.50540597263E+02  0.17770000000E+01 0.  1.
         15    1    1    2    0    0 -0.10828518364E+01 -0.36431434783E+01  0.68948528594E+02  0.69076062328E+02  0.17770000000E+01 0. -1.
</event>
<event>
 6    1  0.1823098E-004  0.5066537E+03  0.7546771E-02  0.9385043E-01
        -11   -1    0    0    0    0  0.00000000000E+00  0.00000000000E+00  0.50000000000E+03  0.50000000000E+03  0.00000000000E+00 0. -1.
         11   -1    0    0    0    0 -0.00000000000E+00 -0.00000000000E+00 -0.50000000000E+03  0.50000000000E+03  0.00000000000E+00 0.  1.
        -11    1    1    2    0    0  0.29773953413E+02  0.81865689719E+02  0.48559459899E+03  0.49334632260E+03  0.00000000000E+00 0. -1.
         11    1    1    2    0    0 -0.24194349577E+02 -0.97953420899E+02 -0.23982900373E+03  0.26018875888E+03  0.00000000000E+00 0.  1.
        -15    1    1    2    0    0 -0.35436845865E+01  0.40652807132E+01 -0.52311319174E+02  0.52618590350E+02  0.17770000000E+01 0. -1.
         15    1    1    2    0    0 -0.20359192498E+01  0.12022450468E+02 -0.19345427609E+03  0.19384632818E+03  0.17770000000E+01 0. -1.
</event>
<event>
 6    1  0.1823098E-004  0.5002036E+03  0.7546771E-02  0.9399354E-01
        -11   -1    0    0    0    0  0.00000000000E+00  0.00000000000E+00  0.50000000000E+03  0.50000000000E+03  0.00000000000E+00 0. -1.
         11   -1    0    0    0    0 -0.00000000000E+00 -0.00000000000E+00 -0.50000000000E+03  0.50000000000E+03  0.00000000000E+00 0. -1.
        -11    1    1    2    0    0 -0.79931539171E+01  0.31091109061E+00  0.49973237793E+03  0.49979639528E+03  0.00000000000E+00 0. -1.
         11    1    1    2    0    0 -0.17326969524E+01 -0.56540939383E+01 -0.23486670833E+03  0.23494114518E+03  0.00000000000E+00 0. -1.
        -15    1    1    2    0    0  0.10395050031E+02  0.21178262828E+01 -0.19926573903E+03  0.19955584365E+03  0.17770000000E+01 0.  1.
         15    1    1    2    0    0 -0.66919916166E+00  0.32253565649E+01 -0.65599930567E+02  0.65706615891E+02  0.17770000000E+01 0. -1.
</event>
<event>
 6    1  0.1823098E-004  0.5045203E+03  0.7546771E-02  0.9389752E-01
        -11   -1    0    0    0    0  0.00000000000E+00  0.00000000000E+00  0.50000000000E+03  0.50000000000E+03  0.00000000000E+00 0. -1.
         11   -1    0    0    0    0 -0.00000000000E+00 -0.00000000000E+00 -0.50000000000E+03  0.50000000000E+03  0.00000000000E+00 0.  1.
        -11    1    1    2    0    0 -0.52925450224E+01 -0.11151956100E+02  0.49532592448E+03  0.49547971565E+03  0.00000000000E+00 0. -1.
         11    1    1    2    0    0  0.10846440632E+02  0.11625730789E+02 -0.37197507923E+02  0.40453151749E+02  0.00000000000E+00 0.  1.
        -15    1    1    2    0    0 -0.62164061548E+00  0.11371443703E+02 -0.86722669469E+01  0.14424358285E+02  0.17770000000E+01 0. -1.
         15    1    1    2    0    0 -0.49322549942E+01 -0.11845218391E+02 -0.44945614961E+03  0.44964277431E+03  0.17770000000E+01 0.  1.
</event>
<event>
 6    1  0.1823098E-004  0.5023532E+03  0.7546771E-02  0.9394560E-01
        -11   -1    0    0    0    0  0.00000000000E+00  0.00000000000E+00  0.50000000000E+03  0.50000000000E+03  0.00000000000E+00 0. -1.
         11   -1    0    0    0    0 -0.00000000000E+00 -0.00000000000E+00 -0.50000000000E+03  0.50000000000E+03  0.00000000000E+00 0.  1.
        -11    1    1    2    0    0  0.56407386279E+01 -0.69167094753E+01  0.49756675406E+03  0.49764679597E+03  0.00000000000E+00 0. -1.
         11    1    1    2    0    0  0.92295506156E+01 -0.19528679308E+02 -0.37328139041E+03  0.37390580411E+03  0.00000000000E+00 0.  1.
        -15    1    1    2    0    0 -0.59423548339E+01  0.80706892974E+01 -0.23704032690E+02  0.25797025051E+02  0.17770000000E+01 0. -1.
         15    1    1    2    0    0 -0.89279344096E+01  0.18374699486E+02 -0.10058133096E+03  0.10265037487E+03  0.17770000000E+01 0.  1.
</event>
<event>
 6    1  0.1823098E-004  0.5071862E+03  0.7546771E-02  0.9383872E-01
        -11   -1    0    0    0    0  0.00000000000E+00  0.00000000000E+00  0.50000000000E+03  0.50000000000E+03  0.00000000000E+00 0. -1.
         11   -1    0    0    0    0 -0.00000000000E+00 -0.00000000000E+00 -0.50000000000E+03  0.50000000000E+03  0.00000000000E+00 0. -1.
        -11    1    1    2    0    0 -0.97869594556E+00  0.10979271314E+02  0.46157995331E+03  0.46171155015E+03  0.00000000000E+00 0. -1.
         11    1    1    2    0    0 -0.12906809269E+02  0.13613077764E+02 -0.49245661304E+03  0.49281377552E+03  0.00000000000E+00 0. -1.
        -15    1    1    2    0    0 -0.33992581388E+01 -0.19359889128E+01  0.71915160057E+01  0.83772692701E+01  0.17770000000E+01 0.  1.
         15    1    1    2    0    0  0.17284763353E+02 -0.22656360165E+02  0.23685143723E+02  0.37097405061E+02  0.17770000000E+01 0. -1.
</event>
<event>
 6    1  0.1823098E-004  0.4903734E+03  0.7546771E-02  0.9421611E-01
        -11   -1    0    0    0    0  0.00000000000E+00  0.00000000000E+00  0.50000000000E+03  0.50000000000E+03  0.00000000000E+00 0.  1.
         11   -1    0    0    0    0 -0.00000000000E+00 -0.00000000000E+00 -0.50000000000E+03  0.50000000000E+03  0.00000000000E+00 0.  1.
        -11    1    1    2    0    0  0.22845448364E+01 -0.96705286808E+01  0.48666294603E+03  0.48676437967E+03  0.00000000000E+00 0.  1.
         11    1    1    2    0    0  0.87349728088E+01 -0.22143494698E+01 -0.49406197269E+03  0.49414414492E+03  0.00000000000E+00 0.  1.
        -15    1    1    2    0    0 -0.70793964612E+01  0.47927984015E+01  0.61787656396E+01  0.10696898831E+02  0.17770000000E+01 0. -1.
         15    1    1    2    0    0 -0.39401211840E+01  0.70920797490E+01  0.12202610204E+01  0.83945765866E+01  0.17770000000E+01 0.  1.
</event>
<event>
 6    1  0.1823098E-004  0.5042829E+03  0.7546771E-02  0.9390277E-01
        -11   -1    0    0    0    0  0.00000000000E+00  0.00000000000E+00  0.50000000000E+03  0.50000000000E+03  0.00000000000E+00 0.  1.
         11   -1    0    0    0    0 -0.00000000000E+00 -0.00000000000E+00 -0.50000000000E+03  0.50000000000E+03  0.00000000000E+00 0.  1.
        -11    1    1    2    0    0  0.74372664117E+01  0.25431411777E+01  0.49565476207E+03  0.49571708026E+03  0.00000000000E+00 0.  1.
         11    1    1    2    0    0 -0.10655346911E+02 -0.67283910990E+01 -0.49069013561E+03  0.49085192966E+03  0.00000000000E+00 0.  1.
        -15    1    1    2    0    0 -0.18325257843E+01  0.56261108201E+01 -0.49010840971E+01  0.78860400733E+01  0.17770000000E+01 0. -1.
         15    1    1    2    0    0  0.50506062833E+01 -0.14408608988E+01 -0.63542353993E-01  0.55449500079E+01  0.17770000000E+01 0.  1.
</event>
<event>
 6    1  0.1823098E-004  0.5025757E+03  0.7546771E-02  0.9394065E-01
        -11   -1    0    0    0    0  0.00000000000E+00  0.00000000000E+00  0.50000000000E+03  0.50000000000E+03  0.00000000000E+00 0. -1.
         11   -1    0    0    0    0 -0.00000000000E+00 -0.00000000000E+00 -0.50000000000E+03  0.50000000000E+03  0.00000000000E+00 0. -1.
        -11    1    1    2    0    0 -0.60397906685E+01 -0.51328943612E+01  0.46793215279E+03  0.46799927916E+03  0.00000000000E+00 0. -1.
         11    1    1    2    0    0 -0.10112652807E+02  0.56240144802E+01 -0.49728971776E+03  0.49742432457E+03  0.00000000000E+00 0. -1.
        -15    1    1    2    0    0  0.52055607728E+01  0.25068814566E+01  0.15108983198E+02  0.16273334627E+02  0.17770000000E+01 0. -1.
         15    1    1    2    0    0  0.10946882703E+02 -0.29980015756E+01  0.14248581769E+02  0.18303061651E+02  0.17770000000E+01 0.  1.
</event>
<event>
 6    1  0.1823098E-004  0.5000629E+03  0.7546771E-02  0.9399669E-01
        -11   -1    0    0    0    0  0.00000000000E+00  0.00000000000E+00  0.50000000000E+03  0.50000000000E+03  0.00000000000E+00 0. -1.
         11   -1    0    0    0    0 -0.00000000000E+00 -0.00000000000E+00 -0.50000000000E+03  0.50000000000E+03  0.00000000000E+00 0.  1.
        -11    1    1    2    0    0  0.44521935688E+01 -0.40649966666E+01  0.42908920075E+03  0.42913155142E+03  0.00000000000E+00 0. -1.
         11    1    1    2    0    0 -0.41283506296E+01  0.53763893004E+01 -0.49989112804E+03  0.49993708478E+03  0.00000000000E+00 0.  1.
        -15    1    1    2    0    0  0.89515188140E-01 -0.16508490084E+01  0.40509528705E+02  0.40582175402E+02  0.17770000000E+01 0. -1.
         15    1    1    2    0    0 -0.41335812730E+00  0.33945637458E+00  0.30292398587E+02  0.30349188404E+02  0.17770000000E+01 0. -1.
</event>
<event>
 6    1  0.1823098E-004  0.5001086E+03  0.7546771E-02  0.9399567E-01
        -11   -1    0    0    0    0  0.00000000000E+00  0.00000000000E+00  0.50000000000E+03  0.50000000000E+03  0.00000000000E+00 0. -1.
         11   -1    0    0    0    0 -0.00000000000E+00 -0.00000000000E+00 -0.50000000000E+03  0.50000000000E+03  0.00000000000E+00 0. -1.
        -11    1    1    2    0    0  0.23114097082E+01 -0.19442446794E+01  0.97660407868E+02  0.97707102951E+02  0.00000000000E+00 0. -1.
         11    1    1    2    0    0 -0.27903932779E+00 -0.13077467320E+02 -0.49972025785E+03  0.49989142233E+03  0.00000000000E+00 0. -1.
        -15    1    1    2    0    0  0.18826205586E+01  0.66178901176E+01  0.18512367041E+03  0.18526001135E+03  0.17770000000E+01 0.  1.
         15    1    1    2    0    0 -0.39149909390E+01  0.84038218819E+01  0.21693617957E+03  0.21714146336E+03  0.17770000000E+01 0. -1.
</event>
<event>
 6    1  0.1823098E-004  0.5004059E+03  0.7546771E-02  0.9398902E-01
        -11   -1    0    0    0    0  0.00000000000E+00  0.00000000000E+00  0.50000000000E+03  0.50000000000E+03  0.00000000000E+00 0.  1.
         11   -1    0    0    0    0 -0.00000000000E+00 -0.00000000000E+00 -0.50000000000E+03  0.50000000000E+03  0.00000000000E+00 0.  1.
        -11    1    1    2    0    0  0.19392215753E+01  0.11034211091E+01  0.15776698363E+03  0.15778275965E+03  0.00000000000E+00 0.  1.
         11    1    1    2    0    0 -0.28584992244E+02  0.24444768381E+02 -0.49817628856E+03  0.49959409821E+03  0.00000000000E+00 0.  1.
        -15    1    1    2    0    0  0.32230459366E+00 -0.39419279729E+01  0.24727634708E+02  0.25104906366E+02  0.17770000000E+01 0. -1.
         15    1    1    2    0    0  0.26323466075E+02 -0.21606261518E+02  0.31568167023E+03  0.31751823577E+03  0.17770000000E+01 0.  1.
</event>
<event>
 6    1  0.1823098E-004  0.4885026E+03  0.7546771E-02  0.9425910E-01
        -11   -1    0    0    0    0  0.00000000000E+00  0.00000000000E+00  0.50000000000E+03  0.50000000000E+03  0.00000000000E+00 0. -1.
         11   -1    0    0    0    0 -0.00000000000E+00 -0.00000000000E+00 -0.50000000000E+03  0.50000000000E+03  0.00000000000E+00 0. -1.
        -11    1    1    2    0    0  0.41679852410E+01  0.60464720271E+01  0.48601345258E+03  0.48606893340E+03  0.00000000000E+00 0. -1.
         11    1    1    2    0    0  0.65710454561E+01  0.12458780880E+02 -0.49098113497E+03  0.49118313769E+03  0.00000000000E+00 0. -1.
        -15    1    1    2    0    0 -0.21174939160E+01 -0.66370163118E+01  0.10005576143E+00  0.71903759403E+01  0.17770000000E+01 0. -1.
         15    1    1    2    0    0 -0.86215367810E+01 -0.11868236595E+02  0.48676266246E+01  0.15557552966E+02  0.17770000000E+01 0.  1.
</event>
<event>
 6    1  0.1823098E-004  0.5003575E+03  0.7546771E-02  0.9399010E-01
        -11   -1    0    0    0    0  0.00000000000E+00  0.00000000000E+00  0.50000000000E+03  0.50000000000E+03  0.00000000000E+00 0. -1.
         11   -1    0    0    0    0 -0.00000000000E+00 -0.00000000000E+00 -0.50000000000E+03  0.50000000000E+03  0.00000000000E+00 0.  1.
        -11    1    1    2    0    0 -0.71668366775E+01 -0.49366965848E+01  0.42737291954E+02  0.43614339898E+02  0.00000000000E+00 0. -1.
         11    1    1    2    0    0  0.61333816811E+01  0.33788209501E+02 -0.49846102263E+03  0.49964252477E+03  0.00000000000E+00 0.  1.
        -15    1    1    2    0    0  0.34269703692E+01 -0.24734704849E+02  0.34780987849E+03  0.34870964864E+03  0.17770000000E+01 0. -1.
         15    1    1    2    0    0 -0.23935153728E+01 -0.41168080669E+01  0.10791385219E+03  0.10803348670E+03  0.17770000000E+01 0. -1.
</event>
<event>
 6    1  0.1823098E-004  0.5017832E+03  0.7546771E-02  0.9395828E-01
        -11   -1    0    0    0    0  0.00000000000E+00  0.00000000000E+00  0.50000000000E+03  0.50000000000E+03  0.00000000000E+00 0.  1.
         11   -1    0    0    0    0 -0.00000000000E+00 -0.00000000000E+00 -0.50000000000E+03  0.50000000000E+03  0.00000000000E+00 0.  1.
        -11    1    1    2    0    0  0.72393586133E+01  0.59434853812E+01  0.49812873937E+03  0.49821679450E+03  0.00000000000E+00 0.  1.
         11    1    1    2    0    0 -0.85275488465E+01 -0.13901417432E+02 -0.38974113840E+02  0.42248669157E+02  0.00000000000E+00 0.  1.
        -15    1    1    2    0    0 -0.32825289121E+01  0.11084369261E+02 -0.22133514278E+03  0.22164395186E+03  0.17770000000E+01 0.  1.
         15    1    1    2    0    0  0.45707191453E+01 -0.31264372104E+01 -0.23781948275E+03  0.23789058449E+03  0.17770000000E+01 0. -1.
</event>
<event>
 6    1  0.1823098E-004  0.5003553E+03  0.7546771E-02  0.9399015E-01
        -11   -1    0    0    0    0  0.00000000000E+00  0.00000000000E+00  0.50000000000E+03  0.50000000000E+03  0.00000000000E+00 0.  1.
         11   -1    0    0    0    0 -0.00000000000E+00 -0.00000000000E+00 -0.50000000000E+03  0.50000000000E+03  0.00000000000E+00 0. -1.
        -11    1    1    2    0    0  0.14633845744E+02 -0.12742128320E+02  0.49926781019E+03  0.49964473136E+03  0.00000000000E+00 0.  1.
         11    1    1    2    0    0 -0.42289984463E+01  0.93354411207E+01 -0.56561470170E+02  0.57482473821E+02  0.00000000000E+00 0. -1.
        -15    1    1    2    0    0 -0.88285268333E+01  0.36532768967E+01 -0.34128496731E+03  0.34142330904E+03  0.17770000000E+01 0. -1.
         15    1    1    2    0    0 -0.15763204646E+01 -0.24658969770E+00 -0.10142137272E+03  0.10144948578E+03  0.17770000000E+01 0. -1.
</event>
<event>
 6    1  0.1823098E-004  0.5018079E+03  0.7546771E-02  0.9395773E-01
        -11   -1    0    0    0    0  0.00000000000E+00  0.00000000000E+00  0.50000000000E+03  0.50000000000E+03  0.00000000000E+00 0.  1.
         11   -1    0    0    0    0 -0.00000000000E+00 -0.00000000000E+00 -0.50000000000E+03  0.50000000000E+03  0.00000000000E+00 0.  1.
        -11    1    1    2    0    0  0.53594600527E+01 -0.53671994089E+01  0.46540695522E+03  0.46546875793E+03  0.00000000000E+00 0.  1.
         11    1    1    2    0    0 -0.10763599521E+02 -0.83396524512E+01 -0.49800595276E+03  0.49819206523E+03  0.00000000000E+00 0.  1.
        -15    1    1    2    0    0  0.60428434061E+00  0.75569175383E+01  0.12768963244E+02  0.14955812033E+02  0.17770000000E+01 0. -1.
         15    1    1    2    0    0  0.47998551276E+01  0.61499343218E+01  0.19830034292E+02  0.21383364806E+02  0.17770000000E+01 0.  1.
</event>
<event>
 6    1  0.1823098E-004  0.5069179E+03  0.7546771E-02  0.9384462E-01
        -11   -1    0    0    0    0  0.00000000000E+00  0.00000000000E+00  0.50000000000E+03  0.50000000000E+03  0.00000000000E+00 0.  1.
         11   -1    0    0    0    0 -0.00000000000E+00 -0.00000000000E+00 -0.50000000000E+03  0.50000000000E+03  0.00000000000E+00 0. -1.
        -11    1    1    2    0    0  0.67676070587E+01 -0.13558088385E+01  0.49303378282E+03  0.49308209227E+03  0.00000000000E+00 0.  1.
         11    1    1    2    0    0  0.11394465454E+02 -0.28705835978E+02 -0.42007522375E+03  0.42120903655E+03  0.00000000000E+00 0. -1.
        -15    1    1    2    0    0 -0.16886573880E+02  0.14188612701E+02 -0.63167777025E+02  0.66931299786E+02  0.17770000000E+01 0.  1.
         15    1    1    2    0    0 -0.12754986329E+01  0.15873032115E+02 -0.97907820401E+01  0.18777571389E+02  0.17770000000E+01 0. -1.
</event>
<event>
 6    1  0.1823098E-004  0.5072027E+03  0.7546771E-02  0.9383836E-01
        -11   -1    0    0    0    0  0.00000000000E+00  0.00000000000E+00  0.50000000000E+03  0.50000000000E+03  0.00000000000E+00 0. -1.
         11   -1    0    0    0    0 -0.00000000000E+00 -0.00000000000E+00 -0.50000000000E+03  0.50000000000E+03  0.00000000000E+00 0. -1.
        -11    1    1    2    0    0 -0.10047249200E+02 -0.92369505413E+01  0.46859854774E+03  0.46879725619E+03  0.00000000000E+00 0. -1.
         11    1    1    2    0    0 -0.12940397254E+02  0.22166947243E+02 -0.49212836713E+03  0.49279727796E+03  0.00000000000E+00 0. -1.
        -15    1    1    2    0    0  0.12844949197E+02  0.17963498317E+00  0.14475489006E+02  0.19435084244E+02  0.17770000000E+01 0.  1.
         15    1    1    2    0    0  0.10142697258E+02 -0.13109631685E+02  0.90543303846E+01  0.18970381607E+02  0.17770000000E+01 0. -1.
</event>
<event>
 6    1  0.1823098E-004  0.5004884E+03  0.7546771E-02  0.9398717E-01
        -11   -1    0    0    0    0  0.00000000000E+00  0.00000000000E+00  0.50000000000E+03  0.50000000000E+03  0.00000000000E+00 0.  1.
         11   -1    0    0    0    0 -0.00000000000E+00 -0.00000000000E+00 -0.50000000000E+03  0.50000000000E+03  0.00000000000E+00 0. -1.
        -11    1    1    2    0    0 -0.31481663883E+01 -0.46390275315E+01  0.21967182281E+03  0.21974335317E+03  0.00000000000E+00 0.  1.
         11    1    1    2    0    0 -0.16794607278E+02 -0.11515897248E+02 -0.49909629789E+03  0.49951155071E+03  0.00000000000E+00 0. -1.
        -15    1    1    2    0    0  0.95388473056E+01  0.27076858809E+01  0.11009820204E+03  0.11055809782E+03  0.17770000000E+01 0. -1.
         15    1    1    2    0    0  0.10403926361E+02  0.13447238898E+02  0.16932627304E+03  0.17018699829E+03  0.17770000000E+01 0.  1.
</event>
<event>
 6    1  0.1823098E-004  0.5018457E+03  0.7546771E-02  0.9395689E-01
        -11   -1    0    0    0    0  0.00000000000E+00  0.00000000000E+00  0.50000000000E+03  0.50000000000E+03  0.00000000000E+00 0. -1.
         11   -1    0    0    0    0 -0.00000000000E+00 -0.00000000000E+00 -0.50000000000E+03  0.50000000000E+03  0.00000000000E+00 0.  1.
        -11    1    1    2    0    0  0.91788837345E+00  0.76508633856E+01  0.49809474121E+03  0.49815434300E+03  0.00000000000E+00 0. -1.
         11    1    1    2    0    0  0.57242783824E+01  0.37202149656E+01 -0.47109033042E+03  0.47113979536E+03  0.00000000000E+00 0.  1.
        -15    1    1    2    0    0 -0.98456937040E+00 -0.68574414205E+01 -0.13819593791E+02  0.15560616351E+02  0.17770000000E+01 0.  1.
         15    1    1    2    0    0 -0.56575973854E+01 -0.45136369308E+01 -0.13184817000E+02  0.15145245288E+02  0.17770000000E+01 0. -1.
</event>
<event>
 6    1  0.1823098E-004  0.5045081E+03  0.7546771E-02  0.9389779E-01
        -11   -1    0    0    0    0  0.00000000000E+00  0.00000000000E+00  0.50000000000E+03  0.50000000000E+03  0.00000000000E+00 0. -1.
         11   -1    0    0    0    0 -0.00000000000E+00 -0.00000000000E+00 -0.50000000000E+03  0.50000000000E+03  0.00000000000E+00 0.  1.
        -11    1    1    2    0    0 -0.83358584107E+01  0.11838338450E+02  0.45692056914E+03  0.45714990900E+03  0.00000000000E+00 0. -1.
         11    1    1    2    0    0 -0.13427389041E+02 -0.15168118873E+02 -0.49507765030E+03  0.49549192368E+03  0.00000000000E+00 0.  1.
        -15    1    1    2    0    0  0.13368149501E+02  0.10230026652E+02  0.21015994586E+02  0.26985007390E+02  0.17770000000E+01 0. -1.
         15    1    1    2    0    0  0.83950979508E+01 -0.69002462285E+01  0.17141086571E+02  0.20373159928E+02  0.17770000000E+01 0.  1.
</event>
<event>
 6    1  0.1823098E-004  0.5005547E+03  0.7546771E-02  0.9398569E-01
        -11   -1    0    0    0    0  0.00000000000E+00  0.00000000000E+00  0.50000000000E+03  0.50000000000E+03  0.00000000000E+00 0.  1.
         11   -1    0    0    0    0 -0.00000000000E+00 -0.00000000000E+00 -0.50000000000E+03  0.50000000000E+03  0.00000000000E+00 0. -1.
        -11    1    1    2    0    0  0.49719563086E+01  0.10600961732E+02  0.49930802540E+03  0.49944529728E+03  0.00000000000E+00 0.  1.
         11    1    1    2    0    0 -0.41293184921E+01 -0.13299783595E+02 -0.17689315612E+03  0.17744048072E+03  0.00000000000E+00 0. -1.
        -15    1    1    2    0    0  0.89754009786E+01  0.18149324430E-01 -0.21737969729E+03  0.21757216889E+03  0.17770000000E+01 0. -1.
         15    1    1    2    0    0 -0.98180387951E+01  0.26806725392E+01 -0.10503517199E+03  0.10554205311E+03  0.17770000000E+01 0.  1.
</event>
<event>
 6    1  0.1823098E-004  0.4738224E+03  0.7546771E-02  0.9460368E-01
        -11   -1    0    0    0    0  0.00000000000E+00  0.00000000000E+00  0.50000000000E+03  0.50000000000E+03  0.00000000000E+00 0. -1.
         11   -1    0    0    0    0 -0.00000000000E+00 -0.00000000000E+00 -0.50000000000E+03  0.50000000000E+03  0.00000000000E+00 0.  1.
        -11    1    1    2    0    0  0.18011056932E+02  0.85417798585E+01  0.48251781885E+03  0.48292940031E+03  0.00000000000E+00 0. -1.
         11    1    1    2    0    0  0.19300282166E+02 -0.32148870400E+02 -0.46440493889E+03  0.46591629938E+03  0.00000000000E+00 0.  1.
        -15    1    1    2    0    0 -0.23841996183E+02  0.73893090504E+01 -0.31063976847E+01  0.25216068405E+02  0.17770000000E+01 0.  1.
         15    1    1    2    0    0 -0.13469342915E+02  0.16217781491E+02 -0.15006482276E+02  0.25938231905E+02  0.17770000000E+01 0. -1.
</event>
<event>
 6    1  0.1823098E-004  0.5051247E+03  0.7546771E-02  0.9388415E-01
        -11   -1    0    0    0    0  0.00000000000E+00  0.00000000000E+00  0.50000000000E+03  0.50000000000E+03  0.00000000000E+00 0.  1.
         11   -1    0    0    0    0 -0.00000000000E+00 -0.00000000000E+00 -0.50000000000E+03  0.50000000000E+03  0.00000000000E+00 0. -1.
        -11    1    1    2    0    0 -0.67181459377E+01  0.28081596765E+02  0.33008197221E+03  0.33134244814E+03  0.00000000000E+00 0.  1.
         11    1    1    2    0    0  0.16257644101E+02  0.44026201414E+01 -0.49458859232E+03  0.49487530723E+03  0.00000000000E+00 0. -1.
        -15    1    1    2    0    0  0.10419539603E+02 -0.15428605258E+02  0.12450454095E+03  0.12590133880E+03  0.17770000000E+01 0. -1.
         15    1    1    2    0    0 -0.19959037766E+02 -0.17055611649E+02  0.40002079159E+02  0.47880905832E+02  0.17770000000E+01 0.  1.
</event>
<event>
 6    1  0.1823098E-004  0.5097424E+03  0.7546771E-02  0.9378270E-01
        -11   -1    0    0    0    0  0.00000000000E+00  0.00000000000E+00  0.50000000000E+03  0.50000000000E+03  0.00000000000E+00 0. -1.
         11   -1    0    0    0    0 -0.00000000000E+00 -0.00000000000E+00 -0.50000000000E+03  0.50000000000E+03  0.00000000000E+00 0. -1.
        -11    1    1    2    0    0 -0.14501243833E+01  0.11221228897E+02  0.49012703307E+03  0.49025761328E+03  0.00000000000E+00 0. -1.
         11    1    1    2    0    0  0.32732500280E+02 -0.44453620034E+02 -0.39505005975E+03  0.39888856917E+03  0.00000000000E+00 0. -1.
        -15    1    1    2    0    0 -0.12581086597E+01 -0.60520556922E+01 -0.52496278097E+01  0.83022007108E+01  0.17770000000E+01 0.  1.
         15    1    1    2    0    0 -0.30024267237E+02  0.39284446830E+02 -0.89827345507E+02  0.10255161684E+03  0.17770000000E+01 0. -1.
</event>
<event>
 6    1  0.1823098E-004  0.5014314E+03  0.7546771E-02  0.9396612E-01
        -11   -1    0    0    0    0  0.00000000000E+00  0.00000000000E+00  0.50000000000E+03  0.50000000000E+03  0.00000000000E+00 0.  1.
         11   -1    0    0    0    0 -0.00000000000E+00 -0.00000000000E+00 -0.50000000000E+03  0.50000000000E+03  0.00000000000E+00 0.  1.
        -11    1    1    2    0    0  0.61934683180E+01 -0.70037513823E+01  0.49848089500E+03  0.49856856526E+03  0.00000000000E+00 0.  1.
         11    1    1    2    0    0 -0.12869773770E+01  0.66380831968E+01 -0.65073969871E+01  0.93843846280E+01  0.00000000000E+00 0.  1.
        -15    1    1    2    0    0 -0.24539138229E+01  0.31058181252E+01 -0.28781576838E+03  0.28784847065E+03  0.17770000000E+01 0.  1.
         15    1    1    2    0    0 -0.24525771181E+01 -0.27401499398E+01 -0.20415772964E+03  0.20419857946E+03  0.17770000000E+01 0. -1.
</event>
<event>
 6    1  0.1823098E-004  0.5011820E+03  0.7546771E-02  0.9397169E-01
        -11   -1    0    0    0    0  0.00000000000E+00  0.00000000000E+00  0.50000000000E+03  0.50000000000E+03  0.00000000000E+00 0.  1.
         11   -1    0    0    0    0 -0.00000000000E+00 -0.00000000000E+00 -0.50000000000E+03  0.50000000000E+03  0.00000000000E+00 0. -1.
        -11    1    1    2    0    0 -0.23658464730E+02 -0.83488053592E+01  0.49818664588E+03  0.49881796242E+03  0.00000000000E+00 0.  1.
         11    1    1    2    0    0  0.36857694274E+02  0.12755621578E+02 -0.39900575342E+03  0.40090745412E+03  0.00000000000E+00 0. -1.
        -15    1    1    2    0    0 -0.86260009613E+01 -0.24393991846E+01 -0.72621719855E+02  0.73194470315E+02  0.17770000000E+01 0.  1.
         15    1    1    2    0    0 -0.45732285820E+01 -0.19674170336E+01 -0.26559172606E+02  0.27080113145E+02  0.17770000000E+01 0.  1.
</event>
<event>
 6    1  0.1823098E-004  0.5043779E+03  0.7546771E-02  0.9390067E-01
        -11   -1    0    0    0    0  0.00000000000E+00  0.00000000000E+00  0.50000000000E+03  0.50000000000E+03  0.00000000000E+00 0.  1.
         11   -1    0    0    0    0 -0.00000000000E+00 -0.00000000000E+00 -0.50000000000E+03  0.50000000000E+03  0.00000000000E+00 0. -1.
        -11    1    1    2    0    0  0.93016188229E+01 -0.30573160256E+01  0.49552540814E+03  0.49562213168E+03  0.00000000000E+00 0.  1.
         11    1    1    2    0    0 -0.16815356884E+00 -0.69901582647E+01 -0.48468363827E+03  0.48473407121E+03  0.00000000000E+00 0. -1.
        -15    1    1    2    0    0 -0.57472875684E+01  0.68998674749E+01 -0.17927490524E+01  0.93279774726E+01  0.17770000000E+01 0. -1.
         15    1    1    2    0    0 -0.33861776857E+01  0.31476068154E+01 -0.90490208248E+01  0.10315819641E+02  0.17770000000E+01 0.  1.
</event>
<event>
 6    1  0.1823098E-004  0.5000330E+03  0.7546771E-02  0.9399736E-01
        -11   -1    0    0    0    0  0.00000000000E+00  0.00000000000E+00  0.50000000000E+03  0.50000000000E+03  0.00000000000E+00 0.  1.
         11   -1    0    0    0    0 -0.00000000000E+00 -0.00000000000E+00 -0.50000000000E+03  0.50000000000E+03  0.00000000000E+00 0.  1.
        -11    1    1    2    0    0 -0.66867973994E+01  0.90867851554E+00  0.49992146300E+03  0.49996700704E+03  0.00000000000E+00 0.  1.
         11    1    1    2    0    0  0.34331773180E+01 -0.90220932329E+00 -0.10010705753E+03  0.10016997383E+03  0.00000000000E+00 0.  1.
        -15    1    1    2    0    0  0.36174296774E+00 -0.16095570804E+01 -0.13143538719E+03  0.13145775089E+03  0.17770000000E+01 0.  1.
         15    1    1    2    0    0  0.28918771136E+01  0.16030878881E+01 -0.26837901828E+03  0.26840526825E+03  0.17770000000E+01 0.  1.
</event>
<event>
 6    1  0.1823098E-004  0.5015520E+03  0.7546771E-02  0.9396344E-01
        -11   -1    0    0    0    0  0.00000000000E+00  0.00000000000E+00  0.50000000000E+03  0.50000000000E+03  0.00000000000E+00 0. -1.
         11   -1    0    0    0    0 -0.00000000000E+00 -0.00000000000E+00 -0.50000000000E+03  0.50000000000E+03  0.00000000000E+00 0. -1.
        -11    1    1    2    0    0  0.99189876974E+01 -0.34317670125E+01  0.36940193683E+03  0.36955101715E+03  0.00000000000E+00 0. -1.
         11    1    1    2    0    0 -0.10591569119E+02  0.21768581325E+02 -0.49785973873E+03  0.49844796310E+03  0.00000000000E+00 0. -1.
        -15    1    1    2    0    0 -0.11080598486E+02 -0.10376182789E+02  0.51311609213E+02  0.53539553613E+02  0.17770000000E+01 0. -1.
         15    1    1    2    0    0  0.11753179908E+02 -0.79606315232E+01  0.77146192688E+02  0.78461466131E+02  0.17770000000E+01 0.  1.
</event>
<event>
 6    1  0.1823098E-004  0.5019008E+03  0.7546771E-02  0.9395567E-01
        -11   -1    0    0    0    0  0.00000000000E+00  0.00000000000E+00  0.50000000000E+03  0.50000000000E+03  0.00000000000E+00 0.  1.
         11   -1    0    0    0    0 -0.00000000000E+00 -0.00000000000E+00 -0.50000000000E+03  0.50000000000E+03  0.00000000000E+00 0. -1.
        -11    1    1    2    0    0 -0.46737494434E+01 -0.14278543957E+02  0.49787255414E+03  0.49809918783E+03  0.00000000000E+00 0.  1.
         11    1    1    2    0    0 -0.10477444610E+02  0.10762695344E+02 -0.46024156273E+03  0.46048659972E+03  0.00000000000E+00 0. -1.
        -15    1    1    2    0    0  0.11562239864E+02  0.17124760921E+01 -0.19897317319E+02  0.23144738723E+02  0.17770000000E+01 0.  1.
         15    1    1    2    0    0  0.35889541887E+01  0.18033725211E+01 -0.17733674090E+02  0.18269473729E+02  0.17770000000E+01 0. -1.
</event>
<event>
 6    1  0.1823098E-004  0.5026724E+03  0.7546771E-02  0.9393850E-01
        -11   -1    0    0    0    0  0.00000000000E+00  0.00000000000E+00  0.50000000000E+03  0.50000000000E+03  0.00000000000E+00 0.  1.
         11   -1    0    0    0    0 -0.00000000000E+00 -0.00000000000E+00 -0.50000000000E+03  0.50000000000E+03  0.00000000000E+00 0. -1.
        -11    1    1    2    0    0  0.12743120059E+01  0.80241149344E+01  0.49726120656E+03  0.49732757599E+03  0.00000000000E+00 0.  1.
         11    1    1    2    0    0  0.98768542559E+01 -0.23598545347E+02 -0.45101916302E+03  0.45174409681E+03  0.00000000000E+00 0. -1.
        -15    1    1    2    0    0 -0.55161800504E+01  0.14060452403E+02 -0.31715367868E+02  0.35173098415E+02  0.17770000000E+01 0.  1.
         15    1    1    2    0    0 -0.56349862114E+01  0.15139780093E+01 -0.14526675672E+02  0.15755228786E+02  0.17770000000E+01 0. -1.
</event>
<event>
 6    1  0.1823098E-004  0.5001069E+03  0.7546771E-02  0.9399571E-01
        -11   -1    0    0    0    0  0.00000000000E+00  0.00000000000E+00  0.50000000000E+03  0.50000000000E+03  0.00000000000E+00 0. -1.
         11   -1    0    0    0    0 -0.00000000000E+00 -0.00000000000E+00 -0.50000000000E+03  0.50000000000E+03  0.00000000000E+00 0. -1.
        -11    1    1    2    0    0  0.53183605892E+01  0.11058940619E+02  0.30351742076E+03  0.30376538617E+03  0.00000000000E+00 0. -1.
         11    1    1    2    0    0 -0.43951033747E+01 -0.94917424916E+01 -0.49978366414E+03  0.49989310963E+03  0.00000000000E+00 0. -1.
        -15    1    1    2    0    0  0.12430267683E+01 -0.13828280081E+01  0.10794581718E+03  0.10797645348E+03  0.17770000000E+01 0. -1.
         15    1    1    2    0    0 -0.21662839829E+01 -0.18437011925E+00  0.88320426193E+02  0.88365050730E+02  0.17770000000E+01 0.  1.
</event>
<event>
 6    1  0.1823098E-004  0.5037737E+03  0.7546771E-02  0.9391405E-01
        -11   -1    0    0    0    0  0.00000000000E+00  0.00000000000E+00  0.50000000000E+03  0.50000000000E+03  0.00000000000E+00 0. -1.
         11   -1    0    0    0    0 -0.00000000000E+00 -0.00000000000E+00 -0.50000000000E+03  0.50000000000E+03  0.00000000000E+00 0.  1.
        -11    1    1    2    0    0  0.39672411086E+01  0.10836967284E+02  0.46074023325E+03  0.46088473765E+03  0.00000000000E+00 0. -1.
         11    1    1    2    0    0 -0.16025464526E+02 -0.41207159316E+01 -0.49595032421E+03  0.49622627893E+03  0.00000000000E+00 0.  1.
        -15    1    1    2    0    0  0.12136679020E+02  0.37130940218E+01  0.25450278736E+02  0.28494919926E+02  0.17770000000E+01 0. -1.
         15    1    1    2    0    0 -0.78455602478E-01 -0.10429345374E+02  0.97598122301E+01  0.14394063498E+02  0.17770000000E+01 0.  1.
</event>
<event>
 6    1  0.1823098E-004  0.5003203E+03  0.7546771E-02  0.9399093E-01
        -11   -1    0    0    0    0  0.00000000000E+00  0.00000000000E+00  0.50000000000E+03  0.50000000000E+03  0.00000000000E+00 0. -1.
         11   -1    0    0    0    0 -0.00000000000E+00 -0.00000000000E+00 -0.50000000000E+03  0.50000000000E+03  0.00000000000E+00 0. -1.
        -11    1    1    2    0    0 -0.56243724145E+01  0.39167384056E+01  0.49963270704E+03  0.49967971376E+03  0.00000000000E+00 0. -1.
         11    1    1    2    0    0  0.42694314586E+01 -0.36840595140E+01 -0.50663904542E+02  0.50976774740E+02  0.00000000000E+00 0. -1.
        -15    1    1    2    0    0 -0.82305654650E+01  0.10467284686E+01 -0.19535055050E+03  0.19553473644E+03  0.17770000000E+01 0.  1.
         15    1    1    2    0    0  0.95855064208E+01 -0.12794073602E+01 -0.25361825200E+03  0.25380877505E+03  0.17770000000E+01 0. -1.
</event>
<event>
 6    1  0.1823098E-004  0.5012083E+03  0.7546771E-02  0.9397110E-01
        -11   -1    0    0    0    0  0.00000000000E+00  0.00000000000E+00  0.50000000000E+03  0.50000000000E+03  0.00000000000E+00 0.  1.
         11   -1    0    0    0    0 -0.00000000000E+00 -0.00000000000E+00 -0.50000000000E+03  0.50000000000E+03  0.00000000000E+00 0.  1.
        -11    1    1    2    0    0 -0.14039958739E+02 -0.33772356679E+02  0.35250260623E+03  0.35439494906E+03  0.00000000000E+00 0.  1.
         11    1    1    2    0    0  0.42031519487E+02  0.30679406871E+02 -0.49606985034E+03  0.49879171109E+03  0.00000000000E+00 0.  1.
        -15    1    1    2    0    0 -0.26890778826E+02  0.55040714777E+01  0.12781419455E+03  0.13074033367E+03  0.17770000000E+01 0.  1.
         15    1    1    2    0    0 -0.11007819217E+01 -0.24111216690E+01  0.15753049555E+02  0.16073006185E+02  0.17770000000E+01 0. -1.
</event>
<event>
 6    1  0.1823098E-004  0.5050988E+03  0.7546771E-02  0.9388472E-01
        -11   -1    0    0    0    0  0.00000000000E+00  0.00000000000E+00  0.50000000000E+03  0.50000000000E+03  0.00000000000E+00 0.  1.
         11   -1    0    0    0    0 -0.00000000000E+00 -0.00000000000E+00 -0.50000000000E+03  0.50000000000E+03  0.00000000000E+00 0.  1.
        -11    1    1    2    0    0 -0.59172848461E+01 -0.70228966021E+01  0.49481595787E+03  0.49490116943E+03  0.00000000000E+00 0.  1.
         11    1    1    2    0    0 -0.36525977639E+01 -0.84665251456E+01 -0.48122227175E+03  0.48131060485E+03  0.00000000000E+00 0.  1.
        -15    1    1    2    0    0  0.88314318710E+01  0.10471890000E+02 -0.77089489901E+01  0.15818985195E+02  0.17770000000E+01 0.  1.
         15    1    1    2    0    0  0.73845073911E+00  0.50175317482E+01 -0.58847371388E+01  0.79692405241E+01  0.17770000000E+01 0. -1.
</event>
<event>
 6    1  0.1823098E-004  0.5005756E+03  0.7546771E-02  0.9398523E-01
        -11   -1    0    0    0    0  0.00000000000E+00  0.00000000000E+00  0.50000000000E+03  0.50000000000E+03  0.00000000000E+00 0.  1.
         11   -1    0    0    0    0 -0.00000000000E+00 -0.00000000000E+00 -0.50000000000E+03  0.50000000000E+03  0.00000000000E+00 0.  1.
        -11    1    1    2    0    0  0.67348825115E+01  0.11692772453E+02  0.40886024341E+03  0.40908285005E+03  0.00000000000E+00 0.  1.
         11    1    1    2    0    0 -0.25218810698E+01 -0.20414891751E+02 -0.49900055971E+03  0.49942435492E+03  0.00000000000E+00 0.  1.
        -15    1    1    2    0    0 -0.16316497280E+01 -0.22624186635E+01  0.36509323024E+02  0.36658821799E+02  0.17770000000E+01 0.  1.
         15    1    1    2    0    0 -0.25813517138E+01  0.10984537961E+02  0.53630993282E+02  0.54833973231E+02  0.17770000000E+01 0. -1.
</event>
<event>
 6    1  0.1823098E-004  0.5091194E+03  0.7546771E-02  0.9379632E-01
        -11   -1    0    0    0    0  0.00000000000E+00  0.00000000000E+00  0.50000000000E+03  0.50000000000E+03  0.00000000000E+00 0. -1.
         11   -1    0    0    0    0 -0.00000000000E+00 -0.00000000000E+00 -0.50000000000E+03  0.50000000000E+03  0.00000000000E+00 0.  1.
        -11    1    1    2    0    0  0.34148697361E+02 -0.16222559873E+02  0.48942258226E+03  0.49088060565E+03  0.00000000000E+00 0. -1.
         11    1    1    2    0    0  0.82823237475E+01  0.44512943082E+02 -0.15525856078E+03  0.16172575455E+03  0.00000000000E+00 0.  1.
        -15    1    1    2    0    0 -0.53283803768E+02 -0.25577591180E+02 -0.12888382212E+03  0.14180117858E+03  0.17770000000E+01 0.  1.
         15    1    1    2    0    0  0.10852782660E+02 -0.27127920295E+01 -0.20528019936E+03  0.20559246122E+03  0.17770000000E+01 0. -1.
</event>
<event>
 6    1  0.1823098E-004  0.5006110E+03  0.7546771E-02  0.9398444E-01
        -11   -1    0    0    0    0  0.00000000000E+00  0.00000000000E+00  0.50000000000E+03  0.50000000000E+03  0.00000000000E+00 0. -1.
         11   -1    0    0    0    0 -0.00000000000E+00 -0.00000000000E+00 -0.50000000000E+03  0.50000000000E+03  0.00000000000E+00 0. -1.
        -11    1    1    2    0    0  0.12062891260E+02  0.12084402305E+02  0.49909701126E+03  0.49938899945E+03  0.00000000000E+00 0. -1.
         11    1    1    2    0    0 -0.67073770617E+01 -0.62645136720E+01 -0.30913578496E+02  0.32247207228E+02  0.00000000000E+00 0. -1.
        -15    1    1    2    0    0  0.21888752322E+00 -0.67682039500E+01 -0.27728226251E+03  0.27737063170E+03  0.17770000000E+01 0. -1.
         15    1    1    2    0    0 -0.55744017216E+01  0.94831531751E+00 -0.19090117025E+03  0.19099316163E+03  0.17770000000E+01 0.  1.
</event>
<event>
 6    1  0.1823098E-004  0.5009065E+03  0.7546771E-02  0.9397784E-01
        -11   -1    0    0    0    0  0.00000000000E+00  0.00000000000E+00  0.50000000000E+03  0.50000000000E+03  0.00000000000E+00 0.  1.
         11   -1    0    0    0    0 -0.00000000000E+00 -0.00000000000E+00 -0.50000000000E+03  0.50000000000E+03  0.00000000000E+00 0. -1.
        -11    1    1    2    0    0  0.97156413632E+01  0.11781450599E+02  0.43194409589E+03  0.43221394961E+03  0.00000000000E+00 0.  1.
         11    1    1    2    0    0 -0.18501551616E+01 -0.20666306738E+02 -0.49866201272E+03  0.49909350049E+03  0.00000000000E+00 0. -1.
        -15    1    1    2    0    0 -0.74607128900E+01  0.11079114074E+02  0.56434958421E+02  0.58021300110E+02  0.17770000000E+01 0.  1.
         15    1    1    2    0    0 -0.40477331163E+00 -0.21942579355E+01  0.10282958407E+02  0.10671249783E+02  0.17770000000E+01 0. -1.
</event>
<event>
 6    1  0.1823098E-004  0.5213266E+03  0.7546771E-02  0.9353315E-01
        -11   -1    0    0    0    0  0.00000000000E+00  0.00000000000E+00  0.50000000000E+03  0.50000000000E+03  0.00000000000E+00 0.  1.
         11   -1    0    0    0    0 -0.00000000000E+00 -0.00000000000E+00 -0.50000000000E+03  0.50000000000E+03  0.00000000000E+00 0.  1.
        -11    1    1    2    0    0 -0.26538706522E+02  0.16592774923E+02  0.47764903483E+03  0.47867339972E+03  0.00000000000E+00 0.  1.
         11    1    1    2    0    0 -0.20833977992E+02 -0.19286116090E+02 -0.43352736258E+03  0.43445596211E+03  0.00000000000E+00 0.  1.
        -15    1    1    2    0    0  0.16622500059E+02  0.21341049657E+02  0.33208069166E+01  0.27311781272E+02  0.17770000000E+01 0.  1.
         15    1    1    2    0    0  0.30750184454E+02 -0.18647708490E+02 -0.47442479171E+02  0.59558856896E+02  0.17770000000E+01 0. -1.
</event>
<event>
 6    1  0.1823098E-004  0.5010528E+03  0.7546771E-02  0.9397457E-01
        -11   -1    0    0    0    0  0.00000000000E+00  0.00000000000E+00  0.50000000000E+03  0.50000000000E+03  0.00000000000E+00 0. -1.
         11   -1    0    0    0    0 -0.00000000000E+00 -0.00000000000E+00 -0.50000000000E+03  0.50000000000E+03  0.00000000000E+00 0. -1.
        -11    1    1    2    0    0 -0.10387929990E+02  0.51575296054E+01  0.26991422906E+03  0.27016328443E+03  0.00000000000E+00 0. -1.
         11    1    1    2    0    0  0.12614771598E+02  0.10232121915E+02 -0.49868277606E+03  0.49894723160E+03  0.00000000000E+00 0. -1.
        -15    1    1    2    0    0 -0.86812030015E+01 -0.43381532809E+01  0.18476231223E+03  0.18502554583E+03  0.17770000000E+01 0. -1.
         15    1    1    2    0    0  0.64543613930E+01 -0.11051498240E+02  0.44006234771E+02  0.45863938144E+02  0.17770000000E+01 0.  1.
</event>
<event>
 6    1  0.1823098E-004  0.5063948E+03  0.7546771E-02  0.9385613E-01
        -11   -1    0    0    0    0  0.00000000000E+00  0.00000000000E+00  0.50000000000E+03  0.50000000000E+03  0.00000000000E+00 0.  1.
         11   -1    0    0    0    0 -0.00000000000E+00 -0.00000000000E+00 -0.50000000000E+03  0.50000000000E+03  0.00000000000E+00 0.  1.
        -11    1    1    2    0    0  0.38428301488E+01  0.64019464934E+01  0.45404617986E+03  0.45410757063E+03  0.00000000000E+00 0.  1.
         11    1    1    2    0    0  0.19247584609E+01 -0.23559558560E+02 -0.49303888054E+03  0.49360520177E+03  0.00000000000E+00 0.  1.
        -15    1    1    2    0    0  0.24736101676E+01  0.69486840715E+01  0.38283747249E+02  0.39028271676E+02  0.17770000000E+01 0.  1.
         15    1    1    2    0    0 -0.82411987774E+01  0.10208927995E+02  0.70895343293E+00  0.13258955919E+02  0.17770000000E+01 0. -1.
</event>
<event>
 6    1  0.1823098E-004  0.5057703E+03  0.7546771E-02  0.9386990E-01
        -11   -1    0    0    0    0  0.00000000000E+00  0.00000000000E+00  0.50000000000E+03  0.50000000000E+03  0.00000000000E+00 0.  1.
         11   -1    0    0    0    0 -0.00000000000E+00 -0.00000000000E+00 -0.50000000000E+03  0.50000000000E+03  0.00000000000E+00 0.  1.
        -11    1    1    2    0    0  0.66461233848E+01  0.39473847890E+01  0.48443336299E+03  0.48449503194E+03  0.00000000000E+00 0.  1.
         11    1    1    2    0    0 -0.15143588403E+02 -0.14789871631E+02 -0.49377620680E+03  0.49422971479E+03  0.00000000000E+00 0.  1.
        -15    1    1    2    0    0 -0.97127616457E+00  0.33673507584E+01  0.81191947031E+01  0.90200598748E+01  0.17770000000E+01 0. -1.
         15    1    1    2    0    0  0.94687411830E+01  0.74751360838E+01  0.12236491140E+01  0.12255193398E+02  0.17770000000E+01 0. -1.
</event>
<event>
 6    1  0.1823098E-004  0.5009727E+03  0.7546771E-02  0.9397636E-01
        -11   -1    0    0    0    0  0.00000000000E+00  0.00000000000E+00  0.50000000000E+03  0.50000000000E+03  0.00000000000E+00 0.  1.
         11   -1    0    0    0    0 -0.00000000000E+00 -0.00000000000E+00 -0.50000000000E+03  0.50000000000E+03  0.00000000000E+00 0.  1.
        -11    1    1    2    0    0 -0.48652725775E+01  0.55602110938E+01  0.43016641014E+03  0.43022985396E+03  0.00000000000E+00 0.  1.
         11    1    1    2    0    0  0.49731899678E+01  0.93189726927E+01 -0.49891551697E+03  0.49902732285E+03  0.00000000000E+00 0.  1.
        -15    1    1    2    0    0  0.15585383083E+00 -0.46659900921E+01  0.37181656337E+02  0.37515717385E+02  0.17770000000E+01 0.  1.
         15    1    1    2    0    0 -0.26377122112E+00 -0.10213193694E+02  0.31567450493E+02  0.33227105808E+02  0.17770000000E+01 0. -1.
</event>
<event>
 6    1  0.1823098E-004  0.5002830E+03  0.7546771E-02  0.9399177E-01
        -11   -1    0    0    0    0  0.00000000000E+00  0.00000000000E+00  0.50000000000E+03  0.50000000000E+03  0.00000000000E+00 0.  1.
         11   -1    0    0    0    0 -0.00000000000E+00 -0.00000000000E+00 -0.50000000000E+03  0.50000000000E+03  0.00000000000E+00 0.  1.
        -11    1    1    2    0    0  0.72103600437E+01  0.12209223794E+01  0.49966347554E+03  0.49971698864E+03  0.00000000000E+00 0.  1.
         11    1    1    2    0    0  0.34392341085E+01  0.76699163033E+01 -0.23589521689E+03  0.23604493068E+03  0.00000000000E+00 0.  1.
        -15    1    1    2    0    0 -0.16789485335E+01 -0.48341025783E+01 -0.11996241282E+03  0.12008466028E+03  0.17770000000E+01 0. -1.
         15    1    1    2    0    0 -0.89706456186E+01 -0.40567361044E+01 -0.14380584583E+03  0.14415342040E+03  0.17770000000E+01 0.  1.
</event>
<event>
 6    1  0.1823098E-004  0.5014460E+03  0.7546771E-02  0.9396580E-01
        -11   -1    0    0    0    0  0.00000000000E+00  0.00000000000E+00  0.50000000000E+03  0.50000000000E+03  0.00000000000E+00 0.  1.
         11   -1    0    0    0    0 -0.00000000000E+00 -0.00000000000E+00 -0.50000000000E+03  0.50000000000E+03  0.00000000000E+00 0. -1.
        -11    1    1    2    0    0 -0.57298949890E+01  0.30881113466E+01  0.41146287829E+03  0.41151435982E+03  0.00000000000E+00 0.  1.
         11    1    1    2    0    0 -0.99053635385E+01 -0.14211367920E+02 -0.49825300205E+03  0.49855404247E+03  0.00000000000E+00 0. -1.
        -15    1    1    2    0    0  0.24751590154E+01 -0.26874777892E+01  0.21833600152E+02  0.22208394215E+02  0.17770000000E+01 0. -1.
         15    1    1    2    0    0  0.13160099512E+02  0.13810734363E+02  0.64956523611E+02  0.67723203494E+02  0.17770000000E+01 0.  1.
</event>
<event>
 6    1  0.1823098E-004  0.5006270E+03  0.7546771E-02  0.9398408E-01
        -11   -1    0    0    0    0  0.00000000000E+00  0.00000000000E+00  0.50000000000E+03  0.50000000000E+03  0.00000000000E+00 0.  1.
         11   -1    0    0    0    0 -0.00000000000E+00 -0.00000000000E+00 -0.50000000000E+03  0.50000000000E+03  0.00000000000E+00 0.  1.
        -11    1    1    2    0    0  0.89908625659E+02 -0.26378238635E+01  0.32077779165E+03  0.33314998229E+03  0.00000000000E+00 0.  1.
         11    1    1    2    0    0 -0.14296269117E+03 -0.97223129989E+01 -0.47837275195E+03  0.49937295106E+03  0.00000000000E+00 0.  1.
        -15    1    1    2    0    0  0.29871618271E+02  0.13465275698E+02  0.10376825155E+03  0.10883306017E+03  0.17770000000E+01 0.  1.
         15    1    1    2    0    0  0.23182447242E+02 -0.11051388359E+01  0.53826708755E+02  0.58644006483E+02  0.17770000000E+01 0. -1.
</event>
<event>
 6    1  0.1823098E-004  0.5048263E+03  0.7546771E-02  0.9389075E-01
        -11   -1    0    0    0    0  0.00000000000E+00  0.00000000000E+00  0.50000000000E+03  0.50000000000E+03  0.00000000000E+00 0. -1.
         11   -1    0    0    0    0 -0.00000000000E+00 -0.00000000000E+00 -0.50000000000E+03  0.50000000000E+03  0.00000000000E+00 0.  1.
        -11    1    1    2    0    0 -0.83093095224E+01  0.13015303349E+01  0.47405039012E+03  0.47412499510E+03  0.00000000000E+00 0. -1.
         11    1    1    2    0    0 -0.11872183554E+02 -0.57488267333E+01 -0.49499798922E+03  0.49517371405E+03  0.00000000000E+00 0.  1.
        -15    1    1    2    0    0  0.28433608840E+01  0.20240239795E+00  0.77017686788E+01  0.84024185583E+01  0.17770000000E+01 0.  1.
         15    1    1    2    0    0  0.17338132193E+02  0.42448940005E+01  0.13245830424E+02  0.22298872295E+02  0.17770000000E+01 0. -1.
</event>
<event>
 6    1  0.1823098E-004  0.5031029E+03  0.7546771E-02  0.9392893E-01
        -11   -1    0    0    0    0  0.00000000000E+00  0.00000000000E+00  0.50000000000E+03  0.50000000000E+03  0.00000000000E+00 0.  1.
         11   -1    0    0    0    0 -0.00000000000E+00 -0.00000000000E+00 -0.50000000000E+03  0.50000000000E+03  0.00000000000E+00 0.  1.
        -11    1    1    2    0    0  0.21533801263E+01 -0.15855955881E+02  0.46102166976E+03  0.46129928286E+03  0.00000000000E+00 0.  1.
         11    1    1    2    0    0  0.10812680679E+02  0.15962136406E+00 -0.49677941007E+03  0.49689709378E+03  0.00000000000E+00 0.  1.
        -15    1    1    2    0    0 -0.10007073448E+02  0.11315955556E+02  0.30759757247E+02  0.34314905858E+02  0.17770000000E+01 0. -1.
         15    1    1    2    0    0 -0.29589873579E+01  0.43803789607E+01  0.49979830656E+01  0.74887174969E+01  0.17770000000E+01 0.  1.
</event>
<event>
 6    1  0.1823098E-004  0.5030814E+03  0.7546771E-02  0.9392941E-01
        -11   -1    0    0    0    0  0.00000000000E+00  0.00000000000E+00  0.50000000000E+03  0.50000000000E+03  0.00000000000E+00 0. -1.
         11   -1    0    0    0    0 -0.00000000000E+00 -0.00000000000E+00 -0.50000000000E+03  0.50000000000E+03  0.00000000000E+00 0. -1.
        -11    1    1    2    0    0 -0.11087497055E+02  0.19781161949E+00  0.23352417667E+03  0.23378732389E+03  0.00000000000E+00 0. -1.
         11    1    1    2    0    0 -0.18917709434E+02 -0.41109692819E+02 -0.49485367518E+03  0.49691855109E+03  0.00000000000E+00 0. -1.
        -15    1    1    2    0    0  0.16532798168E+02 -0.49208524953E+00  0.12670840038E+03  0.12779574335E+03  0.17770000000E+01 0.  1.
         15    1    1    2    0    0  0.13472408322E+02  0.41403966449E+02  0.13462109813E+03  0.14149838167E+03  0.17770000000E+01 0. -1.
</event>
<event>
 6    1  0.1823098E-004  0.5000736E+03  0.7546771E-02  0.9399645E-01
        -11   -1    0    0    0    0  0.00000000000E+00  0.00000000000E+00  0.50000000000E+03  0.50000000000E+03  0.00000000000E+00 0.  1.
         11   -1    0    0    0    0 -0.00000000000E+00 -0.00000000000E+00 -0.50000000000E+03  0.50000000000E+03  0.00000000000E+00 0. -1.
        -11    1    1    2    0    0 -0.77501933163E+00  0.27361175972E+01  0.15491736989E+03  0.15494346869E+03  0.00000000000E+00 0.  1.
         11    1    1    2    0    0  0.69870487796E+01 -0.35933549371E+01 -0.49986461956E+03  0.49992636351E+03  0.00000000000E+00 0. -1.
        -15    1    1    2    0    0 -0.94448752025E+00  0.42075761555E+01  0.12430880937E+03  0.12439627635E+03  0.17770000000E+01 0. -1.
         15    1    1    2    0    0 -0.52675419277E+01 -0.33503388156E+01  0.22063844030E+03  0.22073389145E+03  0.17770000000E+01 0.  1.
</event>
<event>
 6    1  0.1823098E-004  0.3463111E+03  0.7546771E-02  0.9829858E-01
        -11   -1    0    0    0    0  0.00000000000E+00  0.00000000000E+00  0.50000000000E+03  0.50000000000E+03  0.00000000000E+00 0. -1.
         11   -1    0    0    0    0 -0.00000000000E+00 -0.00000000000E+00 -0.50000000000E+03  0.50000000000E+03  0.00000000000E+00 0. -1.
        -11    1    1    2    0    0 -0.18910861951E+01  0.64189463505E+01  0.26253209336E+03  0.26261736257E+03  0.00000000000E+00 0. -1.
         11    1    1    2    0    0 -0.68522087780E+02  0.22753539957E+03 -0.39050753531E+03  0.45712555135E+03  0.00000000000E+00 0. -1.
        -15    1    1    2    0    0  0.73746496601E+02 -0.23208154737E+03  0.12057202583E+03  0.27173730243E+03  0.17770000000E+01 0. -1.
         15    1    1    2    0    0 -0.33333226255E+01 -0.18727985449E+01  0.74034161189E+01  0.85197836443E+01  0.17770000000E+01 0. -1.
</event>
<event>
 6    1  0.1823098E-004  0.5095676E+03  0.7546771E-02  0.9378652E-01
        -11   -1    0    0    0    0  0.00000000000E+00  0.00000000000E+00  0.50000000000E+03  0.50000000000E+03  0.00000000000E+00 0.  1.
         11   -1    0    0    0    0 -0.00000000000E+00 -0.00000000000E+00 -0.50000000000E+03  0.50000000000E+03  0.00000000000E+00 0. -1.
        -11    1    1    2    0    0 -0.32229671009E+01 -0.79016227059E+01  0.47840490088E+03  0.47848100521E+03  0.00000000000E+00 0.  1.
         11    1    1    2    0    0 -0.13313520559E+02  0.39593542263E+01 -0.49023562573E+03  0.49043235522E+03  0.00000000000E+00 0. -1.
        -15    1    1    2    0    0  0.52925743806E+01 -0.83617601359E+00 -0.67367878722E+01  0.87893443291E+01  0.17770000000E+01 0. -1.
         15    1    1    2    0    0  0.11243913279E+02  0.47784444931E+01  0.18567512719E+02  0.22297295243E+02  0.17770000000E+01 0.  1.
</event>
<event>
 6    1  0.1823098E-004  0.4736304E+03  0.7546771E-02  0.9460827E-01
        -11   -1    0    0    0    0  0.00000000000E+00  0.00000000000E+00  0.50000000000E+03  0.50000000000E+03  0.00000000000E+00 0.  1.
         11   -1    0    0    0    0 -0.00000000000E+00 -0.00000000000E+00 -0.50000000000E+03  0.50000000000E+03  0.00000000000E+00 0.  1.
        -11    1    1    2    0    0  0.16222814740E+02 -0.59768161389E+01  0.47934895241E+03  0.47966063027E+03  0.00000000000E+00 0.  1.
         11    1    1    2    0    0  0.25999585461E+02  0.68701859216E+00 -0.46790226394E+03  0.46862456086E+03  0.00000000000E+00 0.  1.
        -15    1    1    2    0    0 -0.54637917713E+01  0.37828519852E+01 -0.13152655391E+02  0.14842946557E+02  0.17770000000E+01 0. -1.
         15    1    1    2    0    0 -0.36758608430E+02  0.15069455616E+01  0.17059669171E+01  0.36871862318E+02  0.17770000000E+01 0.  1.
</event>
<event>
 6    1  0.1823098E-004  0.4717065E+03  0.7546771E-02  0.9465444E-01
        -11   -1    0    0    0    0  0.00000000000E+00  0.00000000000E+00  0.50000000000E+03  0.50000000000E+03  0.00000000000E+00 0.  1.
         11   -1    0    0    0    0 -0.00000000000E+00 -0.00000000000E+00 -0.50000000000E+03  0.50000000000E+03  0.00000000000E+00 0.  1.
        -11    1    1    2    0    0  0.11838003248E+01 -0.75037376934E+01  0.46843374854E+03  0.46849534067E+03  0.00000000000E+00 0.  1.
         11    1    1    2    0    0 -0.22821384983E+02 -0.23973052908E+02 -0.47455754907E+03  0.47571040587E+03  0.00000000000E+00 0.  1.
        -15    1    1    2    0    0 -0.23081941201E+01  0.76718636619E+00  0.15425879596E+02  0.15717246111E+02  0.17770000000E+01 0. -1.
         15    1    1    2    0    0  0.23945778779E+02  0.30709604235E+02 -0.93020790664E+01  0.40077007342E+02  0.17770000000E+01 0.  1.
</event>
<event>
 6    1  0.1823098E-004  0.5052942E+03  0.7546771E-02  0.9388041E-01
        -11   -1    0    0    0    0  0.00000000000E+00  0.00000000000E+00  0.50000000000E+03  0.50000000000E+03  0.00000000000E+00 0. -1.
         11   -1    0    0    0    0 -0.00000000000E+00 -0.00000000000E+00 -0.50000000000E+03  0.50000000000E+03  0.00000000000E+00 0. -1.
        -11    1    1    2    0    0  0.78486491679E+01  0.47551967606E+01  0.47171867130E+03  0.47180792494E+03  0.00000000000E+00 0. -1.
         11    1    1    2    0    0  0.33037968444E+00 -0.23375250640E+02 -0.49415312011E+03  0.49470578894E+03  0.00000000000E+00 0. -1.
        -15    1    1    2    0    0 -0.93325680770E+01  0.48232068605E+01  0.12075158520E+02  0.16103643488E+02  0.17770000000E+01 0. -1.
         15    1    1    2    0    0  0.11535392247E+01  0.13796847019E+02  0.10359290295E+02  0.17382642631E+02  0.17770000000E+01 0.  1.
</event>
<event>
 6    1  0.2194077E-004  0.5001086E+03  0.7546771E-02  0.9399567E-01
        -11   -1    0    0    0    0  0.00000000000E+00  0.00000000000E+00  0.50000000000E+03  0.50000000000E+03  0.00000000000E+00 0.  1.
         11   -1    0    0    0    0 -0.00000000000E+00 -0.00000000000E+00 -0.50000000000E+03  0.50000000000E+03  0.00000000000E+00 0.  1.
        -11    1    1    2    0    0 -0.20761981297E+01  0.11390392292E+01  0.16900253218E+03  0.16901912286E+03  0.00000000000E+00 0.  1.
         11    1    1    2    0    0  0.44571483498E-01  0.90926216223E+01 -0.49980871165E+03  0.49989141420E+03  0.00000000000E+00 0.  1.
        -15    1    1    2    0    0  0.27920743565E+00 -0.10821169693E+02  0.28561833297E+03  0.28582890954E+03  0.17770000000E+01 0.  1.
         15    1    1    2    0    0  0.17524192106E+01  0.58950884129E+00  0.45187846498E+02  0.45260553398E+02  0.17770000000E+01 0. -1.
</event>
<event>
 6    1  0.1823098E-004  0.5064759E+03  0.7546771E-02  0.9385435E-01
        -11   -1    0    0    0    0  0.00000000000E+00  0.00000000000E+00  0.50000000000E+03  0.50000000000E+03  0.00000000000E+00 0. -1.
         11   -1    0    0    0    0 -0.00000000000E+00 -0.00000000000E+00 -0.50000000000E+03  0.50000000000E+03  0.00000000000E+00 0.  1.
        -11    1    1    2    0    0  0.19387235735E+02  0.82540538376E+01  0.49307408330E+03  0.49352410877E+03  0.00000000000E+00 0. -1.
         11    1    1    2    0    0  0.23592583856E+02  0.13245224160E+02 -0.40204299348E+03  0.40295237259E+03  0.00000000000E+00 0.  1.
        -15    1    1    2    0    0 -0.28510286876E+02 -0.19243055775E+02 -0.66756478790E+02  0.75118019428E+02  0.17770000000E+01 0. -1.
         15    1    1    2    0    0 -0.14469532715E+02 -0.22562222227E+01 -0.24274611030E+02  0.28405499210E+02  0.17770000000E+01 0.  1.
</event>
<event>
 6    1  0.1823098E-004  0.5039095E+03  0.7546771E-02  0.9391104E-01
        -11   -1    0    0    0    0  0.00000000000E+00  0.00000000000E+00  0.50000000000E+03  0.50000000000E+03  0.00000000000E+00 0.  1.
         11   -1    0    0    0    0 -0.00000000000E+00 -0.00000000000E+00 -0.50000000000E+03  0.50000000000E+03  0.00000000000E+00 0.  1.
        -11    1    1    2    0    0  0.67514094434E+01  0.40115592176E+01  0.48552591496E+03  0.48558942352E+03  0.00000000000E+00 0.  1.
         11    1    1    2    0    0 -0.25174435812E+01  0.90532790609E+01 -0.49600146608E+03  0.49609046930E+03  0.00000000000E+00 0.  1.
        -15    1    1    2    0    0 -0.22095936908E+01 -0.10565214113E+02  0.95724086231E+01  0.14535982573E+02  0.17770000000E+01 0. -1.
         15    1    1    2    0    0 -0.20243721714E+01 -0.24996241660E+01  0.90314249392E+00  0.37841246047E+01  0.17770000000E+01 0.  1.
</event>
<event>
 6    1  0.1823098E-004  0.5000727E+03  0.7546771E-02  0.9399647E-01
        -11   -1    0    0    0    0  0.00000000000E+00  0.00000000000E+00  0.50000000000E+03  0.50000000000E+03  0.00000000000E+00 0.  1.
         11   -1    0    0    0    0 -0.00000000000E+00 -0.00000000000E+00 -0.50000000000E+03  0.50000000000E+03  0.00000000000E+00 0. -1.
        -11    1    1    2    0    0 -0.38151541368E+01  0.84860294683E+01  0.49984069134E+03  0.49992727953E+03  0.00000000000E+00 0.  1.
         11    1    1    2    0    0  0.46349312122E+01 -0.61505444263E+01 -0.17722597400E+03  0.17739322886E+03  0.00000000000E+00 0. -1.
        -15    1    1    2    0    0  0.12114005008E+00 -0.36508244451E+01 -0.20121043666E+03  0.20125143662E+03  0.17770000000E+01 0. -1.
         15    1    1    2    0    0 -0.94091712555E+00  0.13153394031E+01 -0.12140428068E+03  0.12142805499E+03  0.17770000000E+01 0.  1.
</event>
<event>
 6    1  0.1823098E-004  0.5034351E+03  0.7546771E-02  0.9392156E-01
        -11   -1    0    0    0    0  0.00000000000E+00  0.00000000000E+00  0.50000000000E+03  0.50000000000E+03  0.00000000000E+00 0.  1.
         11   -1    0    0    0    0 -0.00000000000E+00 -0.00000000000E+00 -0.50000000000E+03  0.50000000000E+03  0.00000000000E+00 0. -1.
        -11    1    1    2    0    0 -0.17978281407E+02  0.50732264057E+01  0.38761951392E+03  0.38806938014E+03  0.00000000000E+00 0.  1.
         11    1    1    2    0    0 -0.16719902794E+02 -0.66993252100E+00 -0.49628288460E+03  0.49656490564E+03  0.00000000000E+00 0. -1.
        -15    1    1    2    0    0  0.24010288056E+02 -0.10073379905E+02  0.65634966696E+02  0.70633373822E+02  0.17770000000E+01 0.  1.
         15    1    1    2    0    0  0.10687896144E+02  0.56700860198E+01  0.43028403983E+02  0.44732340401E+02  0.17770000000E+01 0. -1.
</event>
<event>
 6    1  0.1823098E-004  0.4846603E+03  0.7546771E-02  0.9434803E-01
        -11   -1    0    0    0    0  0.00000000000E+00  0.00000000000E+00  0.50000000000E+03  0.50000000000E+03  0.00000000000E+00 0. -1.
         11   -1    0    0    0    0 -0.00000000000E+00 -0.00000000000E+00 -0.50000000000E+03  0.50000000000E+03  0.00000000000E+00 0.  1.
        -11    1    1    2    0    0 -0.38255693184E+01 -0.16479399525E+02  0.47843554550E+03  0.47873455775E+03  0.00000000000E+00 0. -1.
         11    1    1    2    0    0  0.18968617653E+02 -0.20186248319E+01 -0.49058611977E+03  0.49095684558E+03  0.00000000000E+00 0.  1.
        -15    1    1    2    0    0 -0.26557999192E+01 -0.16900311296E+01  0.33532282382E+01  0.49306538154E+01  0.17770000000E+01 0. -1.
         15    1    1    2    0    0 -0.12487248415E+02  0.20188055487E+02  0.87973460356E+01  0.25377942856E+02  0.17770000000E+01 0.  1.
</event>
<event>
 6    1  0.1823098E-004  0.5027636E+03  0.7546771E-02  0.9393647E-01
        -11   -1    0    0    0    0  0.00000000000E+00  0.00000000000E+00  0.50000000000E+03  0.50000000000E+03  0.00000000000E+00 0. -1.
         11   -1    0    0    0    0 -0.00000000000E+00 -0.00000000000E+00 -0.50000000000E+03  0.50000000000E+03  0.00000000000E+00 0. -1.
        -11    1    1    2    0    0  0.12293130460E+02  0.79328758170E+01  0.49702110315E+03  0.49723639102E+03  0.00000000000E+00 0. -1.
         11    1    1    2    0    0  0.85594385684E+01 -0.58682936096E+01 -0.45547654012E+03  0.45559475355E+03  0.00000000000E+00 0. -1.
        -15    1    1    2    0    0 -0.92405789822E+01 -0.32610107379E+01 -0.13819499943E+02  0.17034048216E+02  0.17770000000E+01 0. -1.
         15    1    1    2    0    0 -0.11611990047E+02  0.11964285305E+01 -0.27725063084E+02  0.30134807218E+02  0.17770000000E+01 0.  1.
</event>
<event>
 6    1  0.1823098E-004  0.5114757E+03  0.7546771E-02  0.9374492E-01
        -11   -1    0    0    0    0  0.00000000000E+00  0.00000000000E+00  0.50000000000E+03  0.50000000000E+03  0.00000000000E+00 0.  1.
         11   -1    0    0    0    0 -0.00000000000E+00 -0.00000000000E+00 -0.50000000000E+03  0.50000000000E+03  0.00000000000E+00 0. -1.
        -11    1    1    2    0    0 -0.52940981068E+01  0.10534809797E+02  0.48838203723E+03  0.48852433305E+03  0.00000000000E+00 0.  1.
         11    1    1    2    0    0 -0.46693037942E+01  0.21400142466E+02 -0.43366992598E+03  0.43422272303E+03  0.00000000000E+00 0. -1.
        -15    1    1    2    0    0  0.16416000190E+02 -0.27674224688E+02 -0.59727544112E+02  0.67866670973E+02  0.17770000000E+01 0.  1.
         15    1    1    2    0    0 -0.64525982893E+01 -0.42607275747E+01  0.50154328586E+01  0.93862729509E+01  0.17770000000E+01 0. -1.
</event>
<event>
 6    1  0.1823098E-004  0.5028006E+03  0.7546771E-02  0.9393565E-01
        -11   -1    0    0    0    0  0.00000000000E+00  0.00000000000E+00  0.50000000000E+03  0.50000000000E+03  0.00000000000E+00 0. -1.
         11   -1    0    0    0    0 -0.00000000000E+00 -0.00000000000E+00 -0.50000000000E+03  0.50000000000E+03  0.00000000000E+00 0. -1.
        -11    1    1    2    0    0  0.29883198111E+01 -0.63645716704E+01  0.49714970158E+03  0.49719942036E+03  0.00000000000E+00 0. -1.
         11    1    1    2    0    0  0.76533272888E+01 -0.53585428241E+01 -0.45879253059E+03  0.45888764804E+03  0.00000000000E+00 0. -1.
        -15    1    1    2    0    0 -0.13437629905E+02  0.76568574532E+01 -0.32590429399E+02  0.36117740529E+02  0.17770000000E+01 0.  1.
         15    1    1    2    0    0  0.27959828056E+01  0.40662570413E+01 -0.57667415884E+01  0.77951910639E+01  0.17770000000E+01 0. -1.
</event>
<event>
 6    1  0.1823098E-004  0.5003113E+03  0.7546771E-02  0.9399114E-01
        -11   -1    0    0    0    0  0.00000000000E+00  0.00000000000E+00  0.50000000000E+03  0.50000000000E+03  0.00000000000E+00 0.  1.
         11   -1    0    0    0    0 -0.00000000000E+00 -0.00000000000E+00 -0.50000000000E+03  0.50000000000E+03  0.00000000000E+00 0. -1.
        -11    1    1    2    0    0 -0.10035916279E+02  0.18342140289E+02  0.49925111821E+03  0.49968873588E+03  0.00000000000E+00 0.  1.
         11    1    1    2    0    0  0.32246040747E+01 -0.15558027831E+02 -0.13380068883E+03  0.13474076827E+03  0.00000000000E+00 0. -1.
        -15    1    1    2    0    0  0.35580678802E+01 -0.37301702198E+00 -0.95038535471E+02  0.95122447100E+02  0.17770000000E+01 0.  1.
         15    1    1    2    0    0  0.32532443240E+01 -0.24110954367E+01 -0.27041189391E+03  0.27044804875E+03  0.17770000000E+01 0. -1.
</event>
<event>
 6    1  0.1823098E-004  0.5003781E+03  0.7546771E-02  0.9398964E-01
        -11   -1    0    0    0    0  0.00000000000E+00  0.00000000000E+00  0.50000000000E+03  0.50000000000E+03  0.00000000000E+00 0. -1.
         11   -1    0    0    0    0 -0.00000000000E+00 -0.00000000000E+00 -0.50000000000E+03  0.50000000000E+03  0.00000000000E+00 0. -1.
        -11    1    1    2    0    0  0.46524856923E+01  0.31686246835E+01  0.22559635383E+03  0.22566656967E+03  0.00000000000E+00 0. -1.
         11    1    1    2    0    0  0.76258328552E+01 -0.22091761168E+02 -0.49907498562E+03  0.49962189754E+03  0.00000000000E+00 0. -1.
        -15    1    1    2    0    0 -0.14548717111E+02  0.15751490268E+02  0.21409785185E+03  0.21517625917E+03  0.17770000000E+01 0.  1.
         15    1    1    2    0    0  0.22703985629E+01  0.31716462163E+01  0.59380779937E+02  0.59535273614E+02  0.17770000000E+01 0. -1.
</event>
<event>
 6    1  0.1823098E-004  0.5012162E+03  0.7546771E-02  0.9397092E-01
        -11   -1    0    0    0    0  0.00000000000E+00  0.00000000000E+00  0.50000000000E+03  0.50000000000E+03  0.00000000000E+00 0.  1.
         11   -1    0    0    0    0 -0.00000000000E+00 -0.00000000000E+00 -0.50000000000E+03  0.50000000000E+03  0.00000000000E+00 0.  1.
        -11    1    1    2    0    0  0.10898795108E+02  0.79782495075E+01  0.43430876698E+03  0.43451874675E+03  0.00000000000E+00 0.  1.
         11    1    1    2    0    0 -0.68309882787E+01  0.74206073015E+01 -0.49868181907E+03  0.49878380536E+03  0.00000000000E+00 0.  1.
        -15    1    1    2    0    0  0.22325234677E+00 -0.40091573120E+01  0.26934386334E+02  0.27289962993E+02  0.17770000000E+01 0. -1.
         15    1    1    2    0    0 -0.42910591757E+01 -0.11389699497E+02  0.37438665756E+02  0.39407484899E+02  0.17770000000E+01 0.  1.
</event>
<event>
 6    1  0.1823098E-004  0.5002001E+03  0.7546771E-02  0.9399362E-01
        -11   -1    0    0    0    0  0.00000000000E+00  0.00000000000E+00  0.50000000000E+03  0.50000000000E+03  0.00000000000E+00 0. -1.
         11   -1    0    0    0    0 -0.00000000000E+00 -0.00000000000E+00 -0.50000000000E+03  0.50000000000E+03  0.00000000000E+00 0. -1.
        -11    1    1    2    0    0 -0.18783075610E+02 -0.43584270193E+02  0.49754147515E+03  0.49979987198E+03  0.00000000000E+00 0. -1.
         11    1    1    2    0    0  0.21460984219E+02  0.37148490919E+02 -0.41606091579E+03  0.41826698395E+03  0.00000000000E+00 0. -1.
        -15    1    1    2    0    0 -0.12421331179E+01  0.57317559355E+01 -0.53219370612E+02  0.53571028160E+02  0.17770000000E+01 0. -1.
         15    1    1    2    0    0 -0.14357754912E+01  0.70402333854E+00 -0.28261188750E+02  0.28362115907E+02  0.17770000000E+01 0. -1.
</event>
<event>
 6    1  0.1823098E-004  0.5000602E+03  0.7546771E-02  0.9399675E-01
        -11   -1    0    0    0    0  0.00000000000E+00  0.00000000000E+00  0.50000000000E+03  0.50000000000E+03  0.00000000000E+00 0. -1.
         11   -1    0    0    0    0 -0.00000000000E+00 -0.00000000000E+00 -0.50000000000E+03  0.50000000000E+03  0.00000000000E+00 0.  1.
        -11    1    1    2    0    0 -0.48663813261E+01  0.60440278422E+01  0.49987955434E+03  0.49993977716E+03  0.00000000000E+00 0. -1.
         11    1    1    2    0    0  0.62792264867E+01 -0.60998906646E+01 -0.28596145054E+03  0.28609541860E+03  0.00000000000E+00 0.  1.
        -15    1    1    2    0    0 -0.12759391243E-01  0.54943007553E+00 -0.58782652787E+02  0.58812073878E+02  0.17770000000E+01 0. -1.
         15    1    1    2    0    0 -0.14000857694E+01 -0.49356725319E+00 -0.15513545101E+03  0.15515273036E+03  0.17770000000E+01 0. -1.
</event>
<event>
 6    1  0.1823098E-004  0.5005605E+03  0.7546771E-02  0.9398556E-01
        -11   -1    0    0    0    0  0.00000000000E+00  0.00000000000E+00  0.50000000000E+03  0.50000000000E+03  0.00000000000E+00 0. -1.
         11   -1    0    0    0    0 -0.00000000000E+00 -0.00000000000E+00 -0.50000000000E+03  0.50000000000E+03  0.00000000000E+00 0.  1.
        -11    1    1    2    0    0 -0.23881224209E+02  0.12147346514E+02  0.49872032821E+03  0.49943952254E+03  0.00000000000E+00 0. -1.
         11    1    1    2    0    0  0.23539018718E+02 -0.12013854158E+01 -0.17249470355E+03  0.17409753440E+03  0.00000000000E+00 0.  1.
        -15    1    1    2    0    0  0.12953012555E+01 -0.83151317598E+01 -0.27210828689E+03  0.27224418588E+03  0.17770000000E+01 0.  1.
         15    1    1    2    0    0 -0.95309576539E+00 -0.26308293380E+01 -0.54117337768E+02  0.54218757185E+02  0.17770000000E+01 0. -1.
</event>
<event>
 6    1  0.1823098E-004  0.4924023E+03  0.7546771E-02  0.9416972E-01
        -11   -1    0    0    0    0  0.00000000000E+00  0.00000000000E+00  0.50000000000E+03  0.50000000000E+03  0.00000000000E+00 0.  1.
         11   -1    0    0    0    0 -0.00000000000E+00 -0.00000000000E+00 -0.50000000000E+03  0.50000000000E+03  0.00000000000E+00 0. -1.
        -11    1    1    2    0    0 -0.39087096780E+01 -0.61978743333E+01  0.49251424861E+03  0.49256875331E+03  0.00000000000E+00 0.  1.
         11    1    1    2    0    0 -0.19869815840E+01  0.99637376650E+01 -0.49215592646E+03  0.49226078466E+03  0.00000000000E+00 0. -1.
        -15    1    1    2    0    0  0.99975269712E+00  0.15743340967E+01  0.52432280399E+01  0.58418492433E+01  0.17770000000E+01 0.  1.
         15    1    1    2    0    0  0.48959385649E+01 -0.53401974284E+01 -0.56015501882E+01  0.93286127863E+01  0.17770000000E+01 0. -1.
</event>
<event>
 6    1  0.1823098E-004  0.5022573E+03  0.7546771E-02  0.9394773E-01
        -11   -1    0    0    0    0  0.00000000000E+00  0.00000000000E+00  0.50000000000E+03  0.50000000000E+03  0.00000000000E+00 0.  1.
         11   -1    0    0    0    0 -0.00000000000E+00 -0.00000000000E+00 -0.50000000000E+03  0.50000000000E+03  0.00000000000E+00 0.  1.
        -11    1    1    2    0    0 -0.94518046513E+01  0.89734499538E+01  0.43751809179E+03  0.43771216577E+03  0.00000000000E+00 0.  1.
         11    1    1    2    0    0 -0.99400791263E+00  0.10258079131E+02 -0.49763601980E+03  0.49774272917E+03  0.00000000000E+00 0.  1.
        -15    1    1    2    0    0  0.10196889820E+02 -0.14676166608E+02  0.52526616118E+02  0.55511886638E+02  0.17770000000E+01 0. -1.
         15    1    1    2    0    0  0.24892274447E+00 -0.45553624768E+01  0.75913118936E+01  0.90332184239E+01  0.17770000000E+01 0.  1.
</event>
<event>
 6    1  0.1823098E-004  0.5000845E+03  0.7546771E-02  0.9399621E-01
        -11   -1    0    0    0    0  0.00000000000E+00  0.00000000000E+00  0.50000000000E+03  0.50000000000E+03  0.00000000000E+00 0. -1.
         11   -1    0    0    0    0 -0.00000000000E+00 -0.00000000000E+00 -0.50000000000E+03  0.50000000000E+03  0.00000000000E+00 0. -1.
        -11    1    1    2    0    0  0.27130944642E+01 -0.13196882148E+02  0.49973393740E+03  0.49991551964E+03  0.00000000000E+00 0. -1.
         11    1    1    2    0    0  0.21439907825E+01  0.56738886851E+01 -0.90485788196E+02  0.90688850333E+02  0.00000000000E+00 0. -1.
        -15    1    1    2    0    0  0.28576579804E+00  0.27966226983E+01 -0.80801773053E+02  0.80870186213E+02  0.17770000000E+01 0.  1.
         15    1    1    2    0    0 -0.51428510447E+01  0.47263707646E+01 -0.32844637615E+03  0.32852544382E+03  0.17770000000E+01 0. -1.
</event>
<event>
 6    1  0.1823098E-004  0.5001093E+03  0.7546771E-02  0.9399565E-01
        -11   -1    0    0    0    0  0.00000000000E+00  0.00000000000E+00  0.50000000000E+03  0.50000000000E+03  0.00000000000E+00 0. -1.
         11   -1    0    0    0    0 -0.00000000000E+00 -0.00000000000E+00 -0.50000000000E+03  0.50000000000E+03  0.00000000000E+00 0.  1.
        -11    1    1    2    0    0  0.27578192163E+01 -0.10666331929E+02  0.49976923758E+03  0.49989065508E+03  0.00000000000E+00 0. -1.
         11    1    1    2    0    0 -0.55048432558E+01  0.82896662583E+01 -0.40109368649E+03  0.40121710733E+03  0.00000000000E+00 0.  1.
        -15    1    1    2    0    0  0.24223474034E+01  0.33268446636E+01 -0.64171262349E+02  0.64327632499E+02  0.17770000000E+01 0.  1.
         15    1    1    2    0    0  0.32467663617E+00 -0.95017899251E+00 -0.34504288739E+02  0.34564605095E+02  0.17770000000E+01 0. -1.
</event>
<event>
 6    1  0.1823098E-004  0.5005418E+03  0.7546771E-02  0.9398598E-01
        -11   -1    0    0    0    0  0.00000000000E+00  0.00000000000E+00  0.50000000000E+03  0.50000000000E+03  0.00000000000E+00 0.  1.
         11   -1    0    0    0    0 -0.00000000000E+00 -0.00000000000E+00 -0.50000000000E+03  0.50000000000E+03  0.00000000000E+00 0.  1.
        -11    1    1    2    0    0 -0.63346499970E+01  0.45417071833E+01  0.49939738720E+03  0.49945821170E+03  0.00000000000E+00 0.  1.
         11    1    1    2    0    0 -0.79481512957E+01 -0.25919702515E+01 -0.20881147532E+03  0.20897876362E+03  0.00000000000E+00 0.  1.
        -15    1    1    2    0    0  0.21464494913E+01 -0.21963277235E+00 -0.51601232637E+01  0.58685675484E+01  0.17770000000E+01 0. -1.
         15    1    1    2    0    0  0.12136351801E+02 -0.17301041594E+01 -0.28542578862E+03  0.28569445713E+03  0.17770000000E+01 0.  1.
</event>
<event>
 6    1  0.1823098E-004  0.5001289E+03  0.7546771E-02  0.9399521E-01
        -11   -1    0    0    0    0  0.00000000000E+00  0.00000000000E+00  0.50000000000E+03  0.50000000000E+03  0.00000000000E+00 0.  1.
         11   -1    0    0    0    0 -0.00000000000E+00 -0.00000000000E+00 -0.50000000000E+03  0.50000000000E+03  0.00000000000E+00 0. -1.
        -11    1    1    2    0    0 -0.21069813467E+01  0.71676882463E+01  0.49981523375E+03  0.49987106639E+03  0.00000000000E+00 0.  1.
         11    1    1    2    0    0 -0.31810692895E+01 -0.82438355969E+01 -0.31022367806E+03  0.31034949727E+03  0.00000000000E+00 0. -1.
        -15    1    1    2    0    0  0.21085727271E+01  0.23820578615E+01 -0.49279599534E+02  0.49414137024E+02  0.17770000000E+01 0. -1.
         15    1    1    2    0    0  0.31794779091E+01 -0.13059105110E+01 -0.14031195616E+03  0.14036529932E+03  0.17770000000E+01 0. -1.
</event>
<event>
 6    1  0.1823098E-004  0.4884018E+03  0.7546771E-02  0.9426142E-01
        -11   -1    0    0    0    0  0.00000000000E+00  0.00000000000E+00  0.50000000000E+03  0.50000000000E+03  0.00000000000E+00 0.  1.
         11   -1    0    0    0    0 -0.00000000000E+00 -0.00000000000E+00 -0.50000000000E+03  0.50000000000E+03  0.00000000000E+00 0. -1.
        -11    1    1    2    0    0 -0.71234006038E+01 -0.24659377321E+01  0.48525164865E+03  0.48531019586E+03  0.00000000000E+00 0.  1.
         11    1    1    2    0    0 -0.10835749414E+02  0.13490819613E+02 -0.49143580024E+03  0.49174033944E+03  0.00000000000E+00 0. -1.
        -15    1    1    2    0    0  0.70731459725E+01 -0.51182327229E+01  0.53878026922E+01  0.10412100989E+02  0.17770000000E+01 0. -1.
         15    1    1    2    0    0  0.10886004046E+02 -0.59066491575E+01  0.79634889421E+00  0.12537363715E+02  0.17770000000E+01 0.  1.
</event>
<event>
 6    1  0.1823098E-004  0.5030310E+03  0.7546771E-02  0.9393053E-01
        -11   -1    0    0    0    0  0.00000000000E+00  0.00000000000E+00  0.50000000000E+03  0.50000000000E+03  0.00000000000E+00 0. -1.
         11   -1    0    0    0    0 -0.00000000000E+00 -0.00000000000E+00 -0.50000000000E+03  0.50000000000E+03  0.00000000000E+00 0. -1.
        -11    1    1    2    0    0 -0.62558538818E+01 -0.77604495272E+01  0.37999873960E+03  0.38012945476E+03  0.00000000000E+00 0. -1.
         11    1    1    2    0    0 -0.22101905889E+02  0.10364183993E+01 -0.49647623627E+03  0.49696903483E+03  0.00000000000E+00 0. -1.
        -15    1    1    2    0    0  0.26900812102E+02 -0.47562598602E+01  0.86024893099E+02  0.90275775606E+02  0.17770000000E+01 0. -1.
         15    1    1    2    0    0  0.14569476686E+01  0.11480290988E+02  0.30452603572E+02  0.32625734796E+02  0.17770000000E+01 0.  1.
</event>
<event>
 6    1  0.1823098E-004  0.4799379E+03  0.7546771E-02  0.9445854E-01
        -11   -1    0    0    0    0  0.00000000000E+00  0.00000000000E+00  0.50000000000E+03  0.50000000000E+03  0.00000000000E+00 0. -1.
         11   -1    0    0    0    0 -0.00000000000E+00 -0.00000000000E+00 -0.50000000000E+03  0.50000000000E+03  0.00000000000E+00 0. -1.
        -11    1    1    2    0    0 -0.29449427032E+02 -0.17617893998E+02  0.48808541349E+03  0.48929033283E+03  0.00000000000E+00 0. -1.
         11    1    1    2    0    0  0.22261087578E+02  0.27716373492E+02 -0.17336707794E+02  0.39551419910E+02  0.00000000000E+00 0. -1.
        -15    1    1    2    0    0  0.87152047030E+01 -0.10263966026E+02 -0.45759398177E+03  0.45779549329E+03  0.17770000000E+01 0. -1.
         15    1    1    2    0    0 -0.15268652495E+01  0.16548653145E+00 -0.13154723919E+02  0.13362753970E+02  0.17770000000E+01 0. -1.
</event>
<event>
 6    1  0.1823098E-004  0.4850348E+03  0.7546771E-02  0.9433932E-01
        -11   -1    0    0    0    0  0.00000000000E+00  0.00000000000E+00  0.50000000000E+03  0.50000000000E+03  0.00000000000E+00 0. -1.
         11   -1    0    0    0    0 -0.00000000000E+00 -0.00000000000E+00 -0.50000000000E+03  0.50000000000E+03  0.00000000000E+00 0. -1.
        -11    1    1    2    0    0  0.77451454955E+01  0.15844874277E+01  0.48551442981E+03  0.48557878808E+03  0.00000000000E+00 0. -1.
         11    1    1    2    0    0  0.11953339275E+01  0.11856190715E+02 -0.48447923282E+03  0.48462575779E+03  0.00000000000E+00 0. -1.
        -15    1    1    2    0    0 -0.13816206590E+02 -0.90068634458E+01 -0.93468834925E+01  0.19040302353E+02  0.17770000000E+01 0. -1.
         15    1    1    2    0    0  0.48757271666E+01 -0.44338146964E+01  0.83116864994E+01  0.10755151772E+02  0.17770000000E+01 0.  1.
</event>
<event>
 6    1  0.1823098E-004  0.5009790E+03  0.7546771E-02  0.9397622E-01
        -11   -1    0    0    0    0  0.00000000000E+00  0.00000000000E+00  0.50000000000E+03  0.50000000000E+03  0.00000000000E+00 0. -1.
         11   -1    0    0    0    0 -0.00000000000E+00 -0.00000000000E+00 -0.50000000000E+03  0.50000000000E+03  0.00000000000E+00 0. -1.
        -11    1    1    2    0    0 -0.99959006537E+01  0.45620384769E+01  0.42568938842E+03  0.42583117034E+03  0.00000000000E+00 0. -1.
         11    1    1    2    0    0  0.83677917446E+01 -0.16835942085E+02 -0.49866672870E+03  0.49902101679E+03  0.00000000000E+00 0. -1.
        -15    1    1    2    0    0  0.53618922013E+01  0.52980080460E+01  0.53380659729E+02  0.53939515564E+02  0.17770000000E+01 0.  1.
         15    1    1    2    0    0 -0.37337832922E+01  0.69758955619E+01  0.19596680555E+02  0.21208297299E+02  0.17770000000E+01 0. -1.
</event>
<event>
 6    1  0.1823098E-004  0.5002065E+03  0.7546771E-02  0.9399348E-01
        -11   -1    0    0    0    0  0.00000000000E+00  0.00000000000E+00  0.50000000000E+03  0.50000000000E+03  0.00000000000E+00 0.  1.
         11   -1    0    0    0    0 -0.00000000000E+00 -0.00000000000E+00 -0.50000000000E+03  0.50000000000E+03  0.00000000000E+00 0. -1.
        -11    1    1    2    0    0 -0.63433456716E+01  0.72651369821E+01  0.49970041266E+03  0.49979348001E+03  0.00000000000E+00 0.  1.
         11    1    1    2    0    0 -0.31293589536E+01 -0.18022349968E+01 -0.18666542135E+02  0.19012646678E+02  0.00000000000E+00 0. -1.
        -15    1    1    2    0    0  0.33746134623E+01  0.23135847009E+00 -0.12839737267E+03  0.12845421200E+03  0.17770000000E+01 0. -1.
         15    1    1    2    0    0  0.60980911628E+01 -0.56942604554E+01 -0.35263649785E+03  0.35273966132E+03  0.17770000000E+01 0. -1.
</event>
<event>
 6    1  0.2074986E-004  0.5001471E+03  0.7546771E-02  0.9399481E-01
        -11   -1    0    0    0    0  0.00000000000E+00  0.00000000000E+00  0.50000000000E+03  0.50000000000E+03  0.00000000000E+00 0.  1.
         11   -1    0    0    0    0 -0.00000000000E+00 -0.00000000000E+00 -0.50000000000E+03  0.50000000000E+03  0.00000000000E+00 0.  1.
        -11    1    1    2    0    0  0.21030131844E+01 -0.16129914215E+01  0.18523297361E+03  0.18525193364E+03  0.00000000000E+00 0.  1.
         11    1    1    2    0    0  0.17232533580E+01 -0.12304975855E+02 -0.49969842294E+03  0.49985287427E+03  0.00000000000E+00 0.  1.
        -15    1    1    2    0    0 -0.51904372188E+01  0.58805710855E+01  0.16775632593E+03  0.16794899337E+03  0.17770000000E+01 0. -1.
         15    1    1    2    0    0  0.13641706764E+01  0.80373961906E+01  0.14670912340E+03  0.14694619872E+03  0.17770000000E+01 0.  1.
</event>
<event>
 6    1  0.1823098E-004  0.5027649E+03  0.7546771E-02  0.9393644E-01
        -11   -1    0    0    0    0  0.00000000000E+00  0.00000000000E+00  0.50000000000E+03  0.50000000000E+03  0.00000000000E+00 0.  1.
         11   -1    0    0    0    0 -0.00000000000E+00 -0.00000000000E+00 -0.50000000000E+03  0.50000000000E+03  0.00000000000E+00 0.  1.
        -11    1    1    2    0    0  0.13001498773E+02  0.21161838003E+01  0.49706056584E+03  0.49723507852E+03  0.00000000000E+00 0.  1.
         11    1    1    2    0    0 -0.98018725026E+01  0.30236513578E+02 -0.37138589313E+03  0.37274361842E+03  0.00000000000E+00 0.  1.
        -15    1    1    2    0    0  0.17668430312E+01 -0.76679536203E+01 -0.32810155081E+02  0.33787323843E+02  0.17770000000E+01 0. -1.
         15    1    1    2    0    0 -0.49664693012E+01 -0.24684743758E+02 -0.92864517632E+02  0.96233979216E+02  0.17770000000E+01 0.  1.
</event>
<event>
 6    1  0.1823098E-004  0.5000655E+03  0.7546771E-02  0.9399663E-01
        -11   -1    0    0    0    0  0.00000000000E+00  0.00000000000E+00  0.50000000000E+03  0.50000000000E+03  0.00000000000E+00 0. -1.
         11   -1    0    0    0    0 -0.00000000000E+00 -0.00000000000E+00 -0.50000000000E+03  0.50000000000E+03  0.00000000000E+00 0.  1.
        -11    1    1    2    0    0 -0.15646348771E+02  0.55096901428E+01  0.49965917949E+03  0.49993445627E+03  0.00000000000E+00 0. -1.
         11    1    1    2    0    0  0.87863440734E+01  0.17993920214E+01 -0.22373767471E+03  0.22391736140E+03  0.00000000000E+00 0.  1.
        -15    1    1    2    0    0  0.54499544464E+01 -0.52994127121E+01 -0.22598366884E+03  0.22611846915E+03  0.17770000000E+01 0.  1.
         15    1    1    2    0    0  0.14100502515E+01 -0.20096694521E+01 -0.49937835943E+02  0.50029713179E+02  0.17770000000E+01 0.  1.
</event>
<event>
 6    1  0.1823098E-004  0.5000692E+03  0.7546771E-02  0.9399655E-01
        -11   -1    0    0    0    0  0.00000000000E+00  0.00000000000E+00  0.50000000000E+03  0.50000000000E+03  0.00000000000E+00 0.  1.
         11   -1    0    0    0    0 -0.00000000000E+00 -0.00000000000E+00 -0.50000000000E+03  0.50000000000E+03  0.00000000000E+00 0.  1.
        -11    1    1    2    0    0  0.39726314253E+01  0.29437470993E+01  0.83806900128E+02  0.83952629241E+02  0.00000000000E+00 0.  1.
         11    1    1    2    0    0 -0.12586712196E+02 -0.69316740525E+01 -0.49972427567E+03  0.49993082034E+03  0.00000000000E+00 0.  1.
        -15    1    1    2    0    0  0.63081519164E+01  0.63490064964E+01  0.29593301908E+03  0.29607366004E+03  0.17770000000E+01 0. -1.
         15    1    1    2    0    0  0.23059288542E+01 -0.23610795432E+01  0.11998435647E+03  0.12004289038E+03  0.17770000000E+01 0.  1.
</event>
<event>
 6    1  0.1823098E-004  0.5100339E+03  0.7546771E-02  0.9377634E-01
        -11   -1    0    0    0    0  0.00000000000E+00  0.00000000000E+00  0.50000000000E+03  0.50000000000E+03  0.00000000000E+00 0.  1.
         11   -1    0    0    0    0 -0.00000000000E+00 -0.00000000000E+00 -0.50000000000E+03  0.50000000000E+03  0.00000000000E+00 0. -1.
        -11    1    1    2    0    0  0.14641681683E+02 -0.18489905823E+02  0.48939815578E+03  0.48996613183E+03  0.00000000000E+00 0.  1.
         11    1    1    2    0    0  0.25244619250E+02  0.88310527877E+01 -0.44079160304E+03  0.44160221422E+03  0.00000000000E+00 0. -1.
        -15    1    1    2    0    0 -0.62515001518E+01 -0.64189774114E+01 -0.32548259992E+01  0.96972236460E+01  0.17770000000E+01 0.  1.
         15    1    1    2    0    0 -0.33634800781E+02  0.16077830447E+02 -0.45351726740E+02  0.58734430301E+02  0.17770000000E+01 0. -1.
</event>
<event>
 6    1  0.1823098E-004  0.5011699E+03  0.7546771E-02  0.9397196E-01
        -11   -1    0    0    0    0  0.00000000000E+00  0.00000000000E+00  0.50000000000E+03  0.50000000000E+03  0.00000000000E+00 0.  1.
         11   -1    0    0    0    0 -0.00000000000E+00 -0.00000000000E+00 -0.50000000000E+03  0.50000000000E+03  0.00000000000E+00 0.  1.
        -11    1    1    2    0    0  0.71295218873E+01  0.10040463086E+02  0.17910812190E+03  0.17953094527E+03  0.00000000000E+00 0.  1.
         11    1    1    2    0    0  0.63696988395E+01  0.25735893355E+02 -0.49812503869E+03  0.49883009477E+03  0.00000000000E+00 0.  1.
        -15    1    1    2    0    0 -0.14228799157E+02 -0.29587053327E+02  0.29247970525E+03  0.29432191247E+03  0.17770000000E+01 0. -1.
         15    1    1    2    0    0  0.72957843029E+00 -0.61893031140E+01  0.26537211546E+02  0.27317047486E+02  0.17770000000E+01 0.  1.
</event>
<event>
 6    1  0.1823098E-004  0.5008335E+03  0.7546771E-02  0.9397947E-01
        -11   -1    0    0    0    0  0.00000000000E+00  0.00000000000E+00  0.50000000000E+03  0.50000000000E+03  0.00000000000E+00 0.  1.
         11   -1    0    0    0    0 -0.00000000000E+00 -0.00000000000E+00 -0.50000000000E+03  0.50000000000E+03  0.00000000000E+00 0.  1.
        -11    1    1    2    0    0 -0.77909607105E+01  0.42093086517E+00  0.49910550591E+03  0.49916648754E+03  0.00000000000E+00 0.  1.
         11    1    1    2    0    0 -0.81141943740E+00 -0.11613235879E+02 -0.41502974130E+03  0.41519298141E+03  0.00000000000E+00 0.  1.
        -15    1    1    2    0    0  0.54591453825E+01  0.46593639418E+01 -0.24285239425E+02  0.25385872519E+02  0.17770000000E+01 0.  1.
         15    1    1    2    0    0  0.31432347655E+01  0.65329410717E+01 -0.59790525181E+02  0.60254658528E+02  0.17770000000E+01 0. -1.
</event>
<event>
 6    1  0.1823098E-004  0.5028743E+03  0.7546771E-02  0.9393401E-01
        -11   -1    0    0    0    0  0.00000000000E+00  0.00000000000E+00  0.50000000000E+03  0.50000000000E+03  0.00000000000E+00 0. -1.
         11   -1    0    0    0    0 -0.00000000000E+00 -0.00000000000E+00 -0.50000000000E+03  0.50000000000E+03  0.00000000000E+00 0. -1.
        -11    1    1    2    0    0 -0.12763145309E+02  0.10443090315E+02  0.48000123710E+03  0.48028444034E+03  0.00000000000E+00 0. -1.
         11    1    1    2    0    0  0.59775850487E+01 -0.83557540804E+01 -0.49701951545E+03  0.49712568721E+03  0.00000000000E+00 0. -1.
        -15    1    1    2    0    0  0.23385270227E+01 -0.19643652584E+01  0.17427334039E+02  0.17781932971E+02  0.17770000000E+01 0.  1.
         15    1    1    2    0    0  0.44470332377E+01 -0.12297097617E+00 -0.40905569302E+00  0.48079394795E+01  0.17770000000E+01 0. -1.
</event>
<event>
 6    1  0.1823098E-004  0.5069841E+03  0.7546771E-02  0.9384316E-01
        -11   -1    0    0    0    0  0.00000000000E+00  0.00000000000E+00  0.50000000000E+03  0.50000000000E+03  0.00000000000E+00 0. -1.
         11   -1    0    0    0    0 -0.00000000000E+00 -0.00000000000E+00 -0.50000000000E+03  0.50000000000E+03  0.00000000000E+00 0.  1.
        -11    1    1    2    0    0  0.45482194208E+01 -0.18974942627E+02  0.35758363578E+03  0.35811561168E+03  0.00000000000E+00 0. -1.
         11    1    1    2    0    0 -0.43719054736E+02  0.78244024314E+02 -0.48480015588E+03  0.49301589653E+03  0.00000000000E+00 0.  1.
        -15    1    1    2    0    0  0.40958955803E+02 -0.55690828710E+02  0.12685065863E+03  0.14447612878E+03  0.17770000000E+01 0. -1.
         15    1    1    2    0    0 -0.17881204879E+01 -0.35782529780E+01  0.36586146670E+00  0.43923630162E+01  0.17770000000E+01 0.  1.
</event>
<event>
 6    1  0.1823098E-004  0.5217450E+03  0.7546771E-02  0.9352426E-01
        -11   -1    0    0    0    0  0.00000000000E+00  0.00000000000E+00  0.50000000000E+03  0.50000000000E+03  0.00000000000E+00 0. -1.
         11   -1    0    0    0    0 -0.00000000000E+00 -0.00000000000E+00 -0.50000000000E+03  0.50000000000E+03  0.00000000000E+00 0. -1.
        -11    1    1    2    0    0  0.78386322115E+01 -0.21761980034E+01  0.47818584102E+03  0.47825503504E+03  0.00000000000E+00 0. -1.
         11    1    1    2    0    0  0.42249407516E+02  0.53004679323E+02 -0.32554289657E+03  0.33252471483E+03  0.00000000000E+00 0. -1.
        -15    1    1    2    0    0 -0.67598389597E+02 -0.13557409438E+02 -0.79353841414E+02  0.10513579554E+03  0.17770000000E+01 0.  1.
         15    1    1    2    0    0  0.17510349870E+02 -0.37271071882E+02 -0.73289103027E+02  0.84084454588E+02  0.17770000000E+01 0. -1.
</event>
<event>
 6    1  0.1823098E-004  0.5018300E+03  0.7546771E-02  0.9395724E-01
        -11   -1    0    0    0    0  0.00000000000E+00  0.00000000000E+00  0.50000000000E+03  0.50000000000E+03  0.00000000000E+00 0. -1.
         11   -1    0    0    0    0 -0.00000000000E+00 -0.00000000000E+00 -0.50000000000E+03  0.50000000000E+03  0.00000000000E+00 0. -1.
        -11    1    1    2    0    0  0.19429826758E+01 -0.20852701486E+02  0.49772958929E+03  0.49817000551E+03  0.00000000000E+00 0. -1.
         11    1    1    2    0    0 -0.27205986106E+02 -0.14890002056E+01 -0.18207553495E+03  0.18410291477E+03  0.00000000000E+00 0. -1.
        -15    1    1    2    0    0  0.13747329073E+02  0.14037116280E+02 -0.12610997450E+03  0.12764369584E+03  0.17770000000E+01 0.  1.
         15    1    1    2    0    0  0.11515674358E+02  0.83045854115E+01 -0.18954407984E+03  0.19008338387E+03  0.17770000000E+01 0. -1.
</event>
<event>
 6    1  0.1823098E-004  0.4759263E+03  0.7546771E-02  0.9455348E-01
        -11   -1    0    0    0    0  0.00000000000E+00  0.00000000000E+00  0.50000000000E+03  0.50000000000E+03  0.00000000000E+00 0. -1.
         11   -1    0    0    0    0 -0.00000000000E+00 -0.00000000000E+00 -0.50000000000E+03  0.50000000000E+03  0.00000000000E+00 0.  1.
        -11    1    1    2    0    0  0.15782501535E+02  0.36313223625E+01  0.46961853641E+03  0.46989769482E+03  0.00000000000E+00 0. -1.
         11    1    1    2    0    0  0.12108069532E+02  0.15416299715E+02 -0.48223929207E+03  0.48263754772E+03  0.00000000000E+00 0.  1.
        -15    1    1    2    0    0  0.48531189053E+01 -0.35142646249E+01 -0.41391304152E+01  0.74961956055E+01  0.17770000000E+01 0. -1.
         15    1    1    2    0    0 -0.32743689973E+02 -0.15533357452E+02  0.16759886082E+02  0.39968561861E+02  0.17770000000E+01 0.  1.
</event>
<event>
 6    1  0.1823098E-004  0.5006223E+03  0.7546771E-02  0.9398418E-01
        -11   -1    0    0    0    0  0.00000000000E+00  0.00000000000E+00  0.50000000000E+03  0.50000000000E+03  0.00000000000E+00 0. -1.
         11   -1    0    0    0    0 -0.00000000000E+00 -0.00000000000E+00 -0.50000000000E+03  0.50000000000E+03  0.00000000000E+00 0.  1.
        -11    1    1    2    0    0 -0.32187649870E+01  0.69228886725E+01  0.40602938129E+03  0.40610115157E+03  0.00000000000E+00 0. -1.
         11    1    1    2    0    0  0.76742428825E+00  0.68089033088E+01 -0.49933071634E+03  0.49937772716E+03  0.00000000000E+00 0.  1.
        -15    1    1    2    0    0  0.32216021213E+01 -0.10775769715E+02  0.77303246850E+02  0.78137351093E+02  0.17770000000E+01 0. -1.
         15    1    1    2    0    0 -0.77026142261E+00 -0.29560222659E+01  0.15998088196E+02  0.16383770178E+02  0.17770000000E+01 0.  1.
</event>
<event>
 6    1  0.1823098E-004  0.5017358E+03  0.7546771E-02  0.9395934E-01
        -11   -1    0    0    0    0  0.00000000000E+00  0.00000000000E+00  0.50000000000E+03  0.50000000000E+03  0.00000000000E+00 0. -1.
         11   -1    0    0    0    0 -0.00000000000E+00 -0.00000000000E+00 -0.50000000000E+03  0.50000000000E+03  0.00000000000E+00 0. -1.
        -11    1    1    2    0    0 -0.90868312343E+01 -0.12294565133E+01  0.43305374163E+03  0.43315081115E+03  0.00000000000E+00 0. -1.
         11    1    1    2    0    0 -0.53589946734E+01  0.86669179657E+01 -0.49815996901E+03  0.49826417593E+03  0.00000000000E+00 0. -1.
        -15    1    1    2    0    0  0.91049121987E+01 -0.10359369590E+02  0.32218561911E+02  0.35091443759E+02  0.17770000000E+01 0. -1.
         15    1    1    2    0    0  0.53409137090E+01  0.29219081376E+01  0.32887665467E+02  0.33493569163E+02  0.17770000000E+01 0.  1.
</event>
<event>
 6    1  0.1823098E-004  0.5060845E+03  0.7546771E-02  0.9386297E-01
        -11   -1    0    0    0    0  0.00000000000E+00  0.00000000000E+00  0.50000000000E+03  0.50000000000E+03  0.00000000000E+00 0.  1.
         11   -1    0    0    0    0 -0.00000000000E+00 -0.00000000000E+00 -0.50000000000E+03  0.50000000000E+03  0.00000000000E+00 0.  1.
        -11    1    1    2    0    0 -0.11056368214E+02 -0.55669084708E+01  0.45759068845E+03  0.45775809322E+03  0.00000000000E+00 0.  1.
         11    1    1    2    0    0 -0.17888577436E+02 -0.11045825885E+01 -0.49359025170E+03  0.49391553720E+03  0.00000000000E+00 0.  1.
        -15    1    1    2    0    0  0.24189551111E+02  0.13999382436E+01  0.23261200659E+02  0.33635329568E+02  0.17770000000E+01 0. -1.
         15    1    1    2    0    0  0.47553945387E+01  0.52715528157E+01  0.12738362594E+02  0.14691040021E+02  0.17770000000E+01 0.  1.
</event>
<event>
 6    1  0.1823098E-004  0.4808552E+03  0.7546771E-02  0.9443697E-01
        -11   -1    0    0    0    0  0.00000000000E+00  0.00000000000E+00  0.50000000000E+03  0.50000000000E+03  0.00000000000E+00 0.  1.
         11   -1    0    0    0    0 -0.00000000000E+00 -0.00000000000E+00 -0.50000000000E+03  0.50000000000E+03  0.00000000000E+00 0. -1.
        -11    1    1    2    0    0 -0.17585942844E+01 -0.13162035530E+02  0.47802179032E+03  0.47820619387E+03  0.00000000000E+00 0.  1.
         11    1    1    2    0    0 -0.54773060784E+01 -0.17403622950E+02 -0.48368972472E+03  0.48403371450E+03  0.00000000000E+00 0. -1.
        -15    1    1    2    0    0 -0.15705305038E+01  0.26155709861E+01  0.75568394970E+01  0.83409429820E+01  0.17770000000E+01 0.  1.
         15    1    1    2    0    0  0.88064308666E+01  0.27950087493E+02 -0.18889050963E+01  0.29419148644E+02  0.17770000000E+01 0.  1.
</event>
<event>
 6    1  0.1823098E-004  0.5003505E+03  0.7546771E-02  0.9399026E-01
        -11   -1    0    0    0    0  0.00000000000E+00  0.00000000000E+00  0.50000000000E+03  0.50000000000E+03  0.00000000000E+00 0. -1.
         11   -1    0    0    0    0 -0.00000000000E+00 -0.00000000000E+00 -0.50000000000E+03  0.50000000000E+03  0.00000000000E+00 0.  1.
        -11    1    1    2    0    0  0.11565743247E+02  0.30424527454E+01  0.49950638019E+03  0.49964952395E+03  0.00000000000E+00 0. -1.
         11    1    1    2    0    0  0.22685601349E+00  0.81518202786E+01 -0.28562372014E+03  0.28574011469E+03  0.00000000000E+00 0.  1.
        -15    1    1    2    0    0 -0.78723746804E+01 -0.39015208998E+01 -0.12701441575E+03  0.12733034080E+03  0.17770000000E+01 0.  1.
         15    1    1    2    0    0 -0.39202245798E+01 -0.72927521243E+01 -0.86868244293E+02  0.87280020565E+02  0.17770000000E+01 0. -1.
</event>
<event>
 6    1  0.1823098E-004  0.5058164E+03  0.7546771E-02  0.9386888E-01
        -11   -1    0    0    0    0  0.00000000000E+00  0.00000000000E+00  0.50000000000E+03  0.50000000000E+03  0.00000000000E+00 0.  1.
         11   -1    0    0    0    0 -0.00000000000E+00 -0.00000000000E+00 -0.50000000000E+03  0.50000000000E+03  0.00000000000E+00 0.  1.
        -11    1    1    2    0    0  0.76857425442E+01 -0.13569928340E+01  0.43836251553E+03  0.43843198685E+03  0.00000000000E+00 0.  1.
         11    1    1    2    0    0  0.11727058730E+02  0.14213883306E+02 -0.49383995609E+03  0.49418363046E+03  0.00000000000E+00 0.  1.
        -15    1    1    2    0    0 -0.19844174757E+02 -0.21552135190E+02  0.43294325117E+02  0.52305278121E+02  0.17770000000E+01 0.  1.
         15    1    1    2    0    0  0.43137348262E+00  0.86952447184E+01  0.12183115438E+02  0.15079104568E+02  0.17770000000E+01 0. -1.
</event>
<event>
 6    1  0.1823098E-004  0.5006318E+03  0.7546771E-02  0.9398397E-01
        -11   -1    0    0    0    0  0.00000000000E+00  0.00000000000E+00  0.50000000000E+03  0.50000000000E+03  0.00000000000E+00 0. -1.
         11   -1    0    0    0    0 -0.00000000000E+00 -0.00000000000E+00 -0.50000000000E+03  0.50000000000E+03  0.00000000000E+00 0. -1.
        -11    1    1    2    0    0 -0.56780050184E+01  0.15522399757E+02  0.49909460607E+03  0.49936821128E+03  0.00000000000E+00 0. -1.
         11    1    1    2    0    0  0.13975684420E+02 -0.19032266876E+02 -0.40965238241E+03  0.41033233037E+03  0.00000000000E+00 0. -1.
        -15    1    1    2    0    0 -0.56746987450E+01  0.49497338176E+01 -0.76743362340E+02  0.77132376231E+02  0.17770000000E+01 0.  1.
         15    1    1    2    0    0 -0.26229806566E+01 -0.14398666981E+01 -0.12698861319E+02  0.13167082116E+02  0.17770000000E+01 0.  1.
</event>
<event>
 6    1  0.1823098E-004  0.5001581E+03  0.7546771E-02  0.9399456E-01
        -11   -1    0    0    0    0  0.00000000000E+00  0.00000000000E+00  0.50000000000E+03  0.50000000000E+03  0.00000000000E+00 0.  1.
         11   -1    0    0    0    0 -0.00000000000E+00 -0.00000000000E+00 -0.50000000000E+03  0.50000000000E+03  0.00000000000E+00 0. -1.
        -11    1    1    2    0    0  0.12577117942E+02 -0.70728564642E+01  0.49963359085E+03  0.49984190931E+03  0.00000000000E+00 0.  1.
         11    1    1    2    0    0 -0.40408876700E+01  0.61202728646E+01 -0.89618376488E+02  0.89917962151E+02  0.00000000000E+00 0. -1.
        -15    1    1    2    0    0 -0.53785719879E+01  0.22162274010E+01 -0.36794350245E+03  0.36799377633E+03  0.17770000000E+01 0. -1.
         15    1    1    2    0    0 -0.31576582842E+01 -0.12636438014E+01 -0.42071711921E+02  0.42246352203E+02  0.17770000000E+01 0. -1.
</event>
<event>
 6    1  0.1823098E-004  0.5021690E+03  0.7546771E-02  0.9394969E-01
        -11   -1    0    0    0    0  0.00000000000E+00  0.00000000000E+00  0.50000000000E+03  0.50000000000E+03  0.00000000000E+00 0. -1.
         11   -1    0    0    0    0 -0.00000000000E+00 -0.00000000000E+00 -0.50000000000E+03  0.50000000000E+03  0.00000000000E+00 0. -1.
        -11    1    1    2    0    0  0.10471558827E+02  0.69283846289E+00  0.49772038171E+03  0.49783100741E+03  0.00000000000E+00 0. -1.
         11    1    1    2    0    0  0.28296962801E+01  0.16117000153E+02 -0.43056705486E+03  0.43087788712E+03  0.00000000000E+00 0. -1.
        -15    1    1    2    0    0 -0.74113310222E+01 -0.22017717769E+01 -0.26306628765E+02  0.27476755130E+02  0.17770000000E+01 0.  1.
         15    1    1    2    0    0 -0.58899240848E+01 -0.14608066839E+02 -0.40846698080E+02  0.43814350338E+02  0.17770000000E+01 0. -1.
</event>
<event>
 6    1  0.1823098E-004  0.5083756E+03  0.7546771E-02  0.9381261E-01
        -11   -1    0    0    0    0  0.00000000000E+00  0.00000000000E+00  0.50000000000E+03  0.50000000000E+03  0.00000000000E+00 0.  1.
         11   -1    0    0    0    0 -0.00000000000E+00 -0.00000000000E+00 -0.50000000000E+03  0.50000000000E+03  0.00000000000E+00 0. -1.
        -11    1    1    2    0    0  0.92178106387E+01  0.14558759862E+01  0.49153578485E+03  0.49162436412E+03  0.00000000000E+00 0.  1.
         11    1    1    2    0    0  0.13209616314E+02 -0.15133635983E+02 -0.42847335274E+03  0.42894397643E+03  0.00000000000E+00 0. -1.
        -15    1    1    2    0    0 -0.23962298031E+02  0.12157733183E+02 -0.68342471691E+02  0.73456472614E+02  0.17770000000E+01 0. -1.
         15    1    1    2    0    0  0.15348710783E+01  0.15200268136E+01  0.52800395814E+01  0.59751868357E+01  0.17770000000E+01 0.  1.
</event>
<event>
 6    1  0.1823098E-004  0.5043096E+03  0.7546771E-02  0.9390218E-01
        -11   -1    0    0    0    0  0.00000000000E+00  0.00000000000E+00  0.50000000000E+03  0.50000000000E+03  0.00000000000E+00 0. -1.
         11   -1    0    0    0    0 -0.00000000000E+00 -0.00000000000E+00 -0.50000000000E+03  0.50000000000E+03  0.00000000000E+00 0. -1.
        -11    1    1    2    0    0  0.18306295317E+01  0.12926974088E+02  0.39620374296E+03  0.39641879849E+03  0.00000000000E+00 0. -1.
         11    1    1    2    0    0  0.11104583186E+02  0.14763625567E+02 -0.49534605449E+03  0.49569041761E+03  0.00000000000E+00 0. -1.
        -15    1    1    2    0    0  0.20449376687E+01 -0.51618354040E+01  0.59958564773E+02  0.60241294254E+02  0.17770000000E+01 0. -1.
         15    1    1    2    0    0 -0.14980150386E+02 -0.22528764251E+02  0.39183746759E+02  0.47649489644E+02  0.17770000000E+01 0.  1.
</event>
<event>
 6    1  0.1823098E-004  0.5050437E+03  0.7546771E-02  0.9388594E-01
        -11   -1    0    0    0    0  0.00000000000E+00  0.00000000000E+00  0.50000000000E+03  0.50000000000E+03  0.00000000000E+00 0. -1.
         11   -1    0    0    0    0 -0.00000000000E+00 -0.00000000000E+00 -0.50000000000E+03  0.50000000000E+03  0.00000000000E+00 0. -1.
        -11    1    1    2    0    0 -0.66878609133E+01 -0.61043219936E+01  0.49487345573E+03  0.49495628839E+03  0.00000000000E+00 0. -1.
         11    1    1    2    0    0 -0.12427314385E+02  0.56357304178E+01 -0.47669087549E+03  0.47688613985E+03  0.00000000000E+00 0. -1.
        -15    1    1    2    0    0  0.60718184608E+01 -0.40154427762E+01 -0.50974201223E+01  0.90626806748E+01  0.17770000000E+01 0.  1.
         15    1    1    2    0    0  0.13043356837E+02  0.44840343520E+01 -0.13085160113E+02  0.19094891093E+02  0.17770000000E+01 0. -1.
</event>
<event>
 6    1  0.1823098E-004  0.5030942E+03  0.7546771E-02  0.9392913E-01
        -11   -1    0    0    0    0  0.00000000000E+00  0.00000000000E+00  0.50000000000E+03  0.50000000000E+03  0.00000000000E+00 0. -1.
         11   -1    0    0    0    0 -0.00000000000E+00 -0.00000000000E+00 -0.50000000000E+03  0.50000000000E+03  0.00000000000E+00 0.  1.
        -11    1    1    2    0    0 -0.28528934766E+01  0.64445219168E+01  0.49685581288E+03  0.49690579555E+03  0.00000000000E+00 0. -1.
         11    1    1    2    0    0  0.43409016822E+01  0.37088465760E+01 -0.34701668229E+03  0.34706364943E+03  0.00000000000E+00 0.  1.
        -15    1    1    2    0    0 -0.35370569337E-01 -0.13870923604E+02 -0.15089025648E+03  0.15153689651E+03  0.17770000000E+01 0.  1.
         15    1    1    2    0    0 -0.14526376363E+01  0.37175551116E+01  0.10511258973E+01  0.44936585052E+01  0.17770000000E+01 0. -1.
</event>
<event>
 6    1  0.1823098E-004  0.5015768E+03  0.7546771E-02  0.9396288E-01
        -11   -1    0    0    0    0  0.00000000000E+00  0.00000000000E+00  0.50000000000E+03  0.50000000000E+03  0.00000000000E+00 0. -1.
         11   -1    0    0    0    0 -0.00000000000E+00 -0.00000000000E+00 -0.50000000000E+03  0.50000000000E+03  0.00000000000E+00 0.  1.
        -11    1    1    2    0    0 -0.30773107344E+01  0.10211046818E+02  0.47599534827E+03  0.47611480432E+03  0.00000000000E+00 0. -1.
         11    1    1    2    0    0  0.48960170693E+01 -0.13582208222E+02 -0.49821404458E+03  0.49842319526E+03  0.00000000000E+00 0.  1.
        -15    1    1    2    0    0 -0.59410460127E+01  0.43347868201E+01  0.11106916226E+02  0.13439037226E+02  0.17770000000E+01 0.  1.
         15    1    1    2    0    0  0.41223396778E+01 -0.96362541624E+00  0.11111780080E+02  0.12022963192E+02  0.17770000000E+01 0. -1.
</event>
<event>
 6    1  0.1823098E-004  0.5070484E+03  0.7546771E-02  0.9384175E-01
        -11   -1    0    0    0    0  0.00000000000E+00  0.00000000000E+00  0.50000000000E+03  0.50000000000E+03  0.00000000000E+00 0. -1.
         11   -1    0    0    0    0 -0.00000000000E+00 -0.00000000000E+00 -0.50000000000E+03  0.50000000000E+03  0.00000000000E+00 0. -1.
        -11    1    1    2    0    0  0.18395154344E+02 -0.40691868825E+01  0.12528708278E+03  0.12669567119E+03  0.00000000000E+00 0. -1.
         11    1    1    2    0    0 -0.94127860008E+02  0.41185441446E+02 -0.48212550475E+03  0.49295161725E+03  0.00000000000E+00 0. -1.
        -15    1    1    2    0    0  0.41912407038E+01 -0.42625661417E+01  0.23624160774E+03  0.23632391103E+03  0.17770000000E+01 0. -1.
         15    1    1    2    0    0  0.71541464960E+02 -0.32853688422E+02  0.12059681423E+03  0.14402880053E+03  0.17770000000E+01 0.  1.
</event>
<event>
 6    1  0.1823098E-004  0.5001613E+03  0.7546771E-02  0.9399449E-01
        -11   -1    0    0    0    0  0.00000000000E+00  0.00000000000E+00  0.50000000000E+03  0.50000000000E+03  0.00000000000E+00 0. -1.
         11   -1    0    0    0    0 -0.00000000000E+00 -0.00000000000E+00 -0.50000000000E+03  0.50000000000E+03  0.00000000000E+00 0.  1.
        -11    1    1    2    0    0  0.13831430367E+02 -0.30614590892E+02  0.49870846751E+03  0.49983867118E+03  0.00000000000E+00 0. -1.
         11    1    1    2    0    0 -0.14974976916E+02  0.28350610904E+02 -0.39340044708E+03  0.39470485028E+03  0.00000000000E+00 0.  1.
        -15    1    1    2    0    0  0.16774203099E+01  0.26815402660E+00 -0.30527648171E+02  0.30626470206E+02  0.17770000000E+01 0. -1.
         15    1    1    2    0    0 -0.53387376090E+00  0.19958259609E+01 -0.74780372265E+02  0.74830008336E+02  0.17770000000E+01 0.  1.
</event>
<event>
 6    1  0.1823098E-004  0.5009438E+03  0.7546771E-02  0.9397700E-01
        -11   -1    0    0    0    0  0.00000000000E+00  0.00000000000E+00  0.50000000000E+03  0.50000000000E+03  0.00000000000E+00 0.  1.
         11   -1    0    0    0    0 -0.00000000000E+00 -0.00000000000E+00 -0.50000000000E+03  0.50000000000E+03  0.00000000000E+00 0. -1.
        -11    1    1    2    0    0  0.83404238487E+01 -0.40451447984E+01  0.49897010505E+03  0.49905620084E+03  0.00000000000E+00 0.  1.
         11    1    1    2    0    0 -0.68209783371E+01 -0.27758693478E+01 -0.47563163753E+03  0.47568864378E+03  0.00000000000E+00 0. -1.
        -15    1    1    2    0    0 -0.96932738851E+00  0.36162051982E+01 -0.47622182442E+01  0.63129222415E+01  0.17770000000E+01 0.  1.
         15    1    1    2    0    0 -0.55011812311E+00  0.32048089480E+01 -0.18576249272E+02  0.18942233141E+02  0.17770000000E+01 0. -1.
</event>
<event>
 6    1  0.1823098E-004  0.5006687E+03  0.7546771E-02  0.9398315E-01
        -11   -1    0    0    0    0  0.00000000000E+00  0.00000000000E+00  0.50000000000E+03  0.50000000000E+03  0.00000000000E+00 0.  1.
         11   -1    0    0    0    0 -0.00000000000E+00 -0.00000000000E+00 -0.50000000000E+03  0.50000000000E+03  0.00000000000E+00 0.  1.
        -11    1    1    2    0    0 -0.48519402282E+01 -0.52733078510E+01  0.49927992376E+03  0.49933134427E+03  0.00000000000E+00 0.  1.
         11    1    1    2    0    0  0.10423363347E+02 -0.52952447002E+00 -0.44381342337E+03  0.44393612340E+03  0.00000000000E+00 0.  1.
        -15    1    1    2    0    0 -0.47396287784E+01  0.42271829185E-02 -0.15650760860E+02  0.16448955690E+02  0.17770000000E+01 0. -1.
         15    1    1    2    0    0 -0.83179434021E+00  0.57986051381E+01 -0.39815739532E+02  0.40283576640E+02  0.17770000000E+01 0.  1.
</event>
<event>
 6    1  0.1823098E-004  0.5053784E+03  0.7546771E-02  0.9387855E-01
        -11   -1    0    0    0    0  0.00000000000E+00  0.00000000000E+00  0.50000000000E+03  0.50000000000E+03  0.00000000000E+00 0. -1.
         11   -1    0    0    0    0 -0.00000000000E+00 -0.00000000000E+00 -0.50000000000E+03  0.50000000000E+03  0.00000000000E+00 0. -1.
        -11    1    1    2    0    0  0.57253658424E+01 -0.30410704526E+01  0.46551512523E+03  0.46556026435E+03  0.00000000000E+00 0. -1.
         11    1    1    2    0    0  0.15715633027E+02 -0.66287551885E+01 -0.49432743310E+03  0.49462160550E+03  0.00000000000E+00 0. -1.
        -15    1    1    2    0    0 -0.17950525699E+02  0.78486450105E+01  0.29486650093E+02  0.35446337809E+02  0.17770000000E+01 0. -1.
         15    1    1    2    0    0 -0.34904731713E+01  0.18211806306E+01 -0.67434222331E+00  0.43717923422E+01  0.17770000000E+01 0.  1.
</event>
<event>
 6    1  0.1823098E-004  0.5053535E+03  0.7546771E-02  0.9387910E-01
        -11   -1    0    0    0    0  0.00000000000E+00  0.00000000000E+00  0.50000000000E+03  0.50000000000E+03  0.00000000000E+00 0. -1.
         11   -1    0    0    0    0 -0.00000000000E+00 -0.00000000000E+00 -0.50000000000E+03  0.50000000000E+03  0.00000000000E+00 0.  1.
        -11    1    1    2    0    0  0.31047815562E+01  0.11909127840E+02  0.49449341762E+03  0.49464654761E+03  0.00000000000E+00 0. -1.
         11    1    1    2    0    0  0.29994532958E+02  0.29248534196E+02 -0.28493728453E+03  0.28800070291E+03  0.00000000000E+00 0.  1.
        -15    1    1    2    0    0 -0.30119590216E+02 -0.42314345514E+02 -0.17362574132E+03  0.18123672180E+03  0.17770000000E+01 0.  1.
         15    1    1    2    0    0 -0.29797242984E+01  0.11566834784E+01 -0.35930391766E+02  0.36116027675E+02  0.17770000000E+01 0. -1.
</event>
<event>
 6    1  0.1823098E-004  0.5015978E+03  0.7546771E-02  0.9396242E-01
        -11   -1    0    0    0    0  0.00000000000E+00  0.00000000000E+00  0.50000000000E+03  0.50000000000E+03  0.00000000000E+00 0. -1.
         11   -1    0    0    0    0 -0.00000000000E+00 -0.00000000000E+00 -0.50000000000E+03  0.50000000000E+03  0.00000000000E+00 0. -1.
        -11    1    1    2    0    0  0.94230830098E+01 -0.92781345576E+01  0.41297055309E+03  0.41318223097E+03  0.00000000000E+00 0. -1.
         11    1    1    2    0    0 -0.24116765416E+02 -0.24027277093E+01 -0.49781254144E+03  0.49840216481E+03  0.00000000000E+00 0. -1.
        -15    1    1    2    0    0 -0.57666920130E+00  0.71046458357E+01  0.42639668062E+02  0.43267858293E+02  0.17770000000E+01 0. -1.
         15    1    1    2    0    0  0.15270351607E+02  0.45762164312E+01  0.42202320290E+02  0.45147745923E+02  0.17770000000E+01 0.  1.
</event>
<event>
 6    1  0.1823098E-004  0.4690948E+03  0.7546771E-02  0.9471748E-01
        -11   -1    0    0    0    0  0.00000000000E+00  0.00000000000E+00  0.50000000000E+03  0.50000000000E+03  0.00000000000E+00 0.  1.
         11   -1    0    0    0    0 -0.00000000000E+00 -0.00000000000E+00 -0.50000000000E+03  0.50000000000E+03  0.00000000000E+00 0. -1.
        -11    1    1    2    0    0 -0.20334444531E+02  0.47966849344E+01  0.48145892914E+03  0.48191202337E+03  0.00000000000E+00 0.  1.
         11    1    1    2    0    0 -0.10425441479E+02 -0.37662167644E+02 -0.45602962633E+03  0.45770093816E+03  0.00000000000E+00 0. -1.
        -15    1    1    2    0    0 -0.15599229162E+01  0.19675765184E+02 -0.94259755691E+01  0.21944836284E+02  0.17770000000E+01 0. -1.
         15    1    1    2    0    0  0.32319808926E+02  0.13189717525E+02 -0.16003327241E+02  0.38442202190E+02  0.17770000000E+01 0.  1.
</event>
<event>
 6    1  0.1823098E-004  0.5013939E+03  0.7546771E-02  0.9396696E-01
        -11   -1    0    0    0    0  0.00000000000E+00  0.00000000000E+00  0.50000000000E+03  0.50000000000E+03  0.00000000000E+00 0. -1.
         11   -1    0    0    0    0 -0.00000000000E+00 -0.00000000000E+00 -0.50000000000E+03  0.50000000000E+03  0.00000000000E+00 0. -1.
        -11    1    1    2    0    0 -0.63796357073E+01  0.45043400994E+01  0.49854496871E+03  0.49860613179E+03  0.00000000000E+00 0. -1.
         11    1    1    2    0    0  0.13490295898E+01  0.78586036438E+01 -0.44876905617E+03  0.44883988605E+03  0.00000000000E+00 0. -1.
        -15    1    1    2    0    0 -0.39240134827E+00 -0.28052422775E+01 -0.30684853014E+01  0.45383580839E+01  0.17770000000E+01 0. -1.
         15    1    1    2    0    0  0.54230074657E+01 -0.95577014657E+01 -0.46707427241E+02  0.48015624080E+02  0.17770000000E+01 0.  1.
</event>
<event>
 6    1  0.1823098E-004  0.5005144E+03  0.7546771E-02  0.9398659E-01
        -11   -1    0    0    0    0  0.00000000000E+00  0.00000000000E+00  0.50000000000E+03  0.50000000000E+03  0.00000000000E+00 0.  1.
         11   -1    0    0    0    0 -0.00000000000E+00 -0.00000000000E+00 -0.50000000000E+03  0.50000000000E+03  0.00000000000E+00 0. -1.
        -11    1    1    2    0    0 -0.87578496466E+00 -0.42669366437E+01  0.29731167493E+03  0.29734358207E+03  0.00000000000E+00 0.  1.
         11    1    1    2    0    0  0.59550317152E+01  0.85461735379E+01 -0.49937694431E+03  0.49948556735E+03  0.00000000000E+00 0. -1.
        -15    1    1    2    0    0 -0.81931786280E+01 -0.76131500183E+01  0.62366970231E+02  0.63386788324E+02  0.17770000000E+01 0. -1.
         15    1    1    2    0    0  0.31139318775E+01  0.33339131240E+01  0.13969829915E+03  0.13978406226E+03  0.17770000000E+01 0.  1.
</event>
<event>
 6    1  0.1823098E-004  0.5141128E+03  0.7546771E-02  0.9368773E-01
        -11   -1    0    0    0    0  0.00000000000E+00  0.00000000000E+00  0.50000000000E+03  0.50000000000E+03  0.00000000000E+00 0.  1.
         11   -1    0    0    0    0 -0.00000000000E+00 -0.00000000000E+00 -0.50000000000E+03  0.50000000000E+03  0.00000000000E+00 0. -1.
        -11    1    1    2    0    0  0.17283375207E+02 -0.14750043886E+01  0.48557745286E+03  0.48588718179E+03  0.00000000000E+00 0.  1.
         11    1    1    2    0    0 -0.16183189549E+02  0.28861463060E+02 -0.70713030369E+02  0.78071840877E+02  0.00000000000E+00 0. -1.
        -15    1    1    2    0    0 -0.22042545443E+02  0.45700809154E+01 -0.34392973165E+01  0.22841758781E+02  0.17770000000E+01 0.  1.
         15    1    1    2    0    0  0.20942359785E+02 -0.31956539587E+02 -0.41142512518E+03  0.41319921855E+03  0.17770000000E+01 0. -1.
</event>
<event>
 6    1  0.1823098E-004  0.5051614E+03  0.7546771E-02  0.9388334E-01
        -11   -1    0    0    0    0  0.00000000000E+00  0.00000000000E+00  0.50000000000E+03  0.50000000000E+03  0.00000000000E+00 0. -1.
         11   -1    0    0    0    0 -0.00000000000E+00 -0.00000000000E+00 -0.50000000000E+03  0.50000000000E+03  0.00000000000E+00 0.  1.
        -11    1    1    2    0    0  0.57465006361E+01  0.71342920698E+00  0.35945434195E+03  0.35950098080E+03  0.00000000000E+00 0. -1.
         11    1    1    2    0    0 -0.39255127012E+02 -0.38158366531E+02 -0.49180102643E+03  0.49483863585E+03  0.00000000000E+00 0.  1.
        -15    1    1    2    0    0 -0.58351030901E+01  0.59550041016E+01  0.35067538110E+02  0.36088785793E+02  0.17770000000E+01 0.  1.
         15    1    1    2    0    0  0.39343729466E+02  0.31489933223E+02  0.97279146370E+02  0.10957159755E+03  0.17770000000E+01 0. -1.
</event>
<event>
 6    1  0.1823098E-004  0.5002872E+03  0.7546771E-02  0.9399167E-01
        -11   -1    0    0    0    0  0.00000000000E+00  0.00000000000E+00  0.50000000000E+03  0.50000000000E+03  0.00000000000E+00 0.  1.
         11   -1    0    0    0    0 -0.00000000000E+00 -0.00000000000E+00 -0.50000000000E+03  0.50000000000E+03  0.00000000000E+00 0. -1.
        -11    1    1    2    0    0  0.98241704273E+01  0.25551293818E+01  0.13276861896E+03  0.13315610835E+03  0.00000000000E+00 0.  1.
         11    1    1    2    0    0 -0.23845881949E+02 -0.30591681856E+02 -0.49820516323E+03  0.49971277926E+03  0.00000000000E+00 0. -1.
        -15    1    1    2    0    0  0.30169357607E+01  0.18851683621E+02  0.15167656805E+03  0.15288370385E+03  0.17770000000E+01 0.  1.
         15    1    1    2    0    0  0.11004775761E+02  0.91848688530E+01  0.21375997622E+03  0.21424740854E+03  0.17770000000E+01 0. -1.
</event>
<event>
 6    1  0.1823098E-004  0.5020407E+03  0.7546771E-02  0.9395255E-01
        -11   -1    0    0    0    0  0.00000000000E+00  0.00000000000E+00  0.50000000000E+03  0.50000000000E+03  0.00000000000E+00 0.  1.
         11   -1    0    0    0    0 -0.00000000000E+00 -0.00000000000E+00 -0.50000000000E+03  0.50000000000E+03  0.00000000000E+00 0. -1.
        -11    1    1    2    0    0 -0.81717633885E+01  0.75819723326E+01  0.49783449295E+03  0.49795928186E+03  0.00000000000E+00 0.  1.
         11    1    1    2    0    0 -0.13995503671E+02 -0.11588482586E+01 -0.42484954727E+03  0.42508158613E+03  0.00000000000E+00 0. -1.
        -15    1    1    2    0    0  0.15041795760E+02 -0.72033294469E+01 -0.55490922909E+02  0.57970197766E+02  0.17770000000E+01 0. -1.
         15    1    1    2    0    0  0.71254712997E+01  0.78020537294E+00 -0.17494022777E+02  0.18988934240E+02  0.17770000000E+01 0.  1.
</event>
<event>
 6    1  0.7469161E-004  0.5000878E+03  0.7546771E-02  0.9399613E-01
        -11   -1    0    0    0    0  0.00000000000E+00  0.00000000000E+00  0.50000000000E+03  0.50000000000E+03  0.00000000000E+00 0.  1.
         11   -1    0    0    0    0 -0.00000000000E+00 -0.00000000000E+00 -0.50000000000E+03  0.50000000000E+03  0.00000000000E+00 0.  1.
        -11    1    1    2    0    0  0.46679537311E+00  0.56835715848E+00  0.50161251489E+02  0.50166643088E+02  0.00000000000E+00 0.  1.
         11    1    1    2    0    0  0.92412601850E+01 -0.60987734822E+01 -0.49978960177E+03  0.49991223427E+03  0.00000000000E+00 0.  1.
        -15    1    1    2    0    0  0.21299897558E+01  0.31192857974E+00  0.12329682696E+03  0.12332842099E+03  0.17770000000E+01 0.  1.
         15    1    1    2    0    0 -0.11838045314E+02  0.52184877440E+01  0.32633152333E+03  0.32659270166E+03  0.17770000000E+01 0.  1.
</event>
<event>
 6    1  0.1823098E-004  0.5016325E+03  0.7546771E-02  0.9396164E-01
        -11   -1    0    0    0    0  0.00000000000E+00  0.00000000000E+00  0.50000000000E+03  0.50000000000E+03  0.00000000000E+00 0.  1.
         11   -1    0    0    0    0 -0.00000000000E+00 -0.00000000000E+00 -0.50000000000E+03  0.50000000000E+03  0.00000000000E+00 0. -1.
        -11    1    1    2    0    0  0.79526516114E+01 -0.85299548498E+01  0.49823100154E+03  0.49836747054E+03  0.00000000000E+00 0.  1.
         11    1    1    2    0    0 -0.71967198816E+01 -0.22511359861E+02 -0.13992091484E+03  0.14190284179E+03  0.00000000000E+00 0. -1.
        -15    1    1    2    0    0  0.65055129913E+00  0.19481192991E+02 -0.25502019928E+03  0.25577020911E+03  0.17770000000E+01 0.  1.
         15    1    1    2    0    0 -0.14064830290E+01  0.11560121720E+02 -0.10328988742E+03  0.10395947855E+03  0.17770000000E+01 0. -1.
</event>
<event>
 6    1  0.1823098E-004  0.5042506E+03  0.7546771E-02  0.9390349E-01
        -11   -1    0    0    0    0  0.00000000000E+00  0.00000000000E+00  0.50000000000E+03  0.50000000000E+03  0.00000000000E+00 0. -1.
         11   -1    0    0    0    0 -0.00000000000E+00 -0.00000000000E+00 -0.50000000000E+03  0.50000000000E+03  0.00000000000E+00 0. -1.
        -11    1    1    2    0    0  0.46155807780E+01 -0.97605015647E+01  0.49563182450E+03  0.49574940891E+03  0.00000000000E+00 0. -1.
         11    1    1    2    0    0 -0.21019603177E+02 -0.26239277978E+02 -0.33798715202E+03  0.33965517566E+03  0.00000000000E+00 0. -1.
        -15    1    1    2    0    0  0.78270951817E+00  0.71538504986E+01 -0.63061471011E+01  0.97321853357E+01  0.17770000000E+01 0. -1.
         15    1    1    2    0    0  0.15621312881E+02  0.28845929044E+02 -0.15133852539E+03  0.15486323009E+03  0.17770000000E+01 0.  1.
</event>
<event>
 6    1  0.1823098E-004  0.5006093E+03  0.7546771E-02  0.9398447E-01
        -11   -1    0    0    0    0  0.00000000000E+00  0.00000000000E+00  0.50000000000E+03  0.50000000000E+03  0.00000000000E+00 0.  1.
         11   -1    0    0    0    0 -0.00000000000E+00 -0.00000000000E+00 -0.50000000000E+03  0.50000000000E+03  0.00000000000E+00 0. -1.
        -11    1    1    2    0    0 -0.97949790856E+01 -0.12191995278E+02  0.16698203405E+03  0.16771280827E+03  0.00000000000E+00 0.  1.
         11    1    1    2    0    0  0.60281037095E+02  0.56236661984E+02 -0.49253901296E+03  0.49939067359E+03  0.00000000000E+00 0. -1.
        -15    1    1    2    0    0 -0.17014748220E+02 -0.56252716503E+01  0.68188075622E+02  0.70526000342E+02  0.17770000000E+01 0. -1.
         15    1    1    2    0    0 -0.33471309790E+02 -0.38419395056E+02  0.25736890329E+03  0.26237051779E+03  0.17770000000E+01 0.  1.
</event>
<event>
 6    1  0.1823098E-004  0.5000864E+03  0.7546771E-02  0.9399616E-01
        -11   -1    0    0    0    0  0.00000000000E+00  0.00000000000E+00  0.50000000000E+03  0.50000000000E+03  0.00000000000E+00 0.  1.
         11   -1    0    0    0    0 -0.00000000000E+00 -0.00000000000E+00 -0.50000000000E+03  0.50000000000E+03  0.00000000000E+00 0. -1.
        -11    1    1    2    0    0  0.11745342138E+00 -0.30352167078E+01  0.14192422111E+03  0.14195672183E+03  0.00000000000E+00 0.  1.
         11    1    1    2    0    0 -0.16104911345E+00 -0.81224591213E+01 -0.49984762412E+03  0.49991364016E+03  0.00000000000E+00 0. -1.
        -15    1    1    2    0    0 -0.11898764409E-01  0.45518541271E+01  0.10486241865E+03  0.10497620726E+03  0.17770000000E+01 0. -1.
         15    1    1    2    0    0  0.55494456479E-01  0.66058217021E+01  0.25306098437E+03  0.25315343074E+03  0.17770000000E+01 0.  1.
</event>
<event>
 6    1  0.1823098E-004  0.5046121E+03  0.7546771E-02  0.9389548E-01
        -11   -1    0    0    0    0  0.00000000000E+00  0.00000000000E+00  0.50000000000E+03  0.50000000000E+03  0.00000000000E+00 0. -1.
         11   -1    0    0    0    0 -0.00000000000E+00 -0.00000000000E+00 -0.50000000000E+03  0.50000000000E+03  0.00000000000E+00 0. -1.
        -11    1    1    2    0    0  0.76373991639E+01 -0.57134059648E+00  0.45096313827E+03  0.45102816805E+03  0.00000000000E+00 0. -1.
         11    1    1    2    0    0  0.10251787104E+01  0.24732992412E+02 -0.49476899575E+03  0.49538785922E+03  0.00000000000E+00 0. -1.
        -15    1    1    2    0    0 -0.62088363973E+01 -0.64624847420E+00  0.14512468452E+02  0.15897696565E+02  0.17770000000E+01 0.  1.
         15    1    1    2    0    0 -0.24537414770E+01 -0.23515403342E+02  0.29293389031E+02  0.37686276169E+02  0.17770000000E+01 0. -1.
</event>
<event>
 6    1  0.1823098E-004  0.5006553E+03  0.7546771E-02  0.9398345E-01
        -11   -1    0    0    0    0  0.00000000000E+00  0.00000000000E+00  0.50000000000E+03  0.50000000000E+03  0.00000000000E+00 0. -1.
         11   -1    0    0    0    0 -0.00000000000E+00 -0.00000000000E+00 -0.50000000000E+03  0.50000000000E+03  0.00000000000E+00 0.  1.
        -11    1    1    2    0    0  0.87673917839E+01 -0.81921115083E+01  0.33683183454E+03  0.33704549041E+03  0.00000000000E+00 0. -1.
         11    1    1    2    0    0 -0.27296672317E+01  0.18993316369E+02 -0.49897586739E+03  0.49934468395E+03  0.00000000000E+00 0.  1.
        -15    1    1    2    0    0  0.28990562811E+01  0.34937828912E+01  0.33110149974E+02  0.33467160120E+02  0.17770000000E+01 0. -1.
         15    1    1    2    0    0 -0.89367808333E+01 -0.14294987752E+02  0.12903388288E+03  0.13014266551E+03  0.17770000000E+01 0. -1.
</event>
<event>
 6    1  0.1823098E-004  0.5002071E+03  0.7546771E-02  0.9399347E-01
        -11   -1    0    0    0    0  0.00000000000E+00  0.00000000000E+00  0.50000000000E+03  0.50000000000E+03  0.00000000000E+00 0. -1.
         11   -1    0    0    0    0 -0.00000000000E+00 -0.00000000000E+00 -0.50000000000E+03  0.50000000000E+03  0.00000000000E+00 0.  1.
        -11    1    1    2    0    0  0.10298928097E+02 -0.70729127423E-01  0.13408250372E+03  0.13447747293E+03  0.00000000000E+00 0. -1.
         11    1    1    2    0    0 -0.88660253925E+01 -0.68329527375E+01 -0.49966757493E+03  0.49979293822E+03  0.00000000000E+00 0.  1.
        -15    1    1    2    0    0 -0.23918605286E+01  0.20555360247E+01  0.24897262859E+03  0.24899894325E+03  0.17770000000E+01 0. -1.
         15    1    1    2    0    0  0.95895782441E+00  0.48481458403E+01  0.11661244262E+03  0.11673064560E+03  0.17770000000E+01 0.  1.
</event>
<event>
 6    1  0.1823098E-004  0.5015220E+03  0.7546771E-02  0.9396411E-01
        -11   -1    0    0    0    0  0.00000000000E+00  0.00000000000E+00  0.50000000000E+03  0.50000000000E+03  0.00000000000E+00 0. -1.
         11   -1    0    0    0    0 -0.00000000000E+00 -0.00000000000E+00 -0.50000000000E+03  0.50000000000E+03  0.00000000000E+00 0. -1.
        -11    1    1    2    0    0  0.66665775818E+01 -0.14143928260E+01  0.48856587299E+03  0.48861340139E+03  0.00000000000E+00 0. -1.
         11    1    1    2    0    0 -0.11816471203E+02 -0.23622743684E+01 -0.49833234857E+03  0.49847802255E+03  0.00000000000E+00 0. -1.
        -15    1    1    2    0    0  0.50430708120E+01  0.21911799896E+01  0.52772519942E+01  0.78256597531E+01  0.17770000000E+01 0.  1.
         15    1    1    2    0    0  0.10682280952E+00  0.15854872048E+01  0.44892235867E+01  0.50829163086E+01  0.17770000000E+01 0.  1.
</event>
<event>
 6    1  0.1823098E-004  0.5015279E+03  0.7546771E-02  0.9396397E-01
        -11   -1    0    0    0    0  0.00000000000E+00  0.00000000000E+00  0.50000000000E+03  0.50000000000E+03  0.00000000000E+00 0. -1.
         11   -1    0    0    0    0 -0.00000000000E+00 -0.00000000000E+00 -0.50000000000E+03  0.50000000000E+03  0.00000000000E+00 0.  1.
        -11    1    1    2    0    0  0.75961872844E+01  0.17883376404E+01  0.46753499655E+03  0.46760012106E+03  0.00000000000E+00 0. -1.
         11    1    1    2    0    0 -0.16545802734E+01  0.90031660986E+01 -0.49838807318E+03  0.49847213174E+03  0.00000000000E+00 0.  1.
        -15    1    1    2    0    0 -0.27403582204E+01 -0.86238801956E+01  0.25325615604E+02  0.26952280191E+02  0.17770000000E+01 0. -1.
         15    1    1    2    0    0 -0.32012487906E+01 -0.21676235434E+01  0.55274610244E+01  0.69754670110E+01  0.17770000000E+01 0.  1.
</event>
<event>
 6    1  0.1823098E-004  0.5001571E+03  0.7546771E-02  0.9399458E-01
        -11   -1    0    0    0    0  0.00000000000E+00  0.00000000000E+00  0.50000000000E+03  0.50000000000E+03  0.00000000000E+00 0.  1.
         11   -1    0    0    0    0 -0.00000000000E+00 -0.00000000000E+00 -0.50000000000E+03  0.50000000000E+03  0.00000000000E+00 0. -1.
        -11    1    1    2    0    0 -0.73569442777E+01 -0.17466104577E+00  0.49978870408E+03  0.49984287918E+03  0.00000000000E+00 0.  1.
         11    1    1    2    0    0  0.61462575959E+00 -0.39740426941E+01 -0.68813337242E+02  0.68930734527E+02  0.00000000000E+00 0. -1.
        -15    1    1    2    0    0  0.30928592538E+00  0.43025544621E+01 -0.56738015725E+02  0.56929498417E+02  0.17770000000E+01 0.  1.
         15    1    1    2    0    0  0.64330325927E+01 -0.15385072226E+00 -0.37423735111E+03  0.37429688788E+03  0.17770000000E+01 0. -1.
</event>
<event>
 6    1  0.1823098E-004  0.5027178E+03  0.7546771E-02  0.9393749E-01
        -11   -1    0    0    0    0  0.00000000000E+00  0.00000000000E+00  0.50000000000E+03  0.50000000000E+03  0.00000000000E+00 0.  1.
         11   -1    0    0    0    0 -0.00000000000E+00 -0.00000000000E+00 -0.50000000000E+03  0.50000000000E+03  0.00000000000E+00 0. -1.
        -11    1    1    2    0    0 -0.31242652890E+01  0.11006883767E+02  0.42239364303E+03  0.42254857969E+03  0.00000000000E+00 0.  1.
         11    1    1    2    0    0 -0.16632939591E+02  0.75409625728E+01 -0.49694669686E+03  0.49728215363E+03  0.00000000000E+00 0. -1.
        -15    1    1    2    0    0  0.13910861112E+02 -0.12074298223E+02  0.34615550075E+02  0.39251684938E+02  0.17770000000E+01 0.  1.
         15    1    1    2    0    0  0.58463437676E+01 -0.64735481168E+01  0.39937503755E+02  0.40917581745E+02  0.17770000000E+01 0. -1.
</event>
<event>
 6    1  0.1823098E-004  0.5101876E+03  0.7546771E-02  0.9377298E-01
        -11   -1    0    0    0    0  0.00000000000E+00  0.00000000000E+00  0.50000000000E+03  0.50000000000E+03  0.00000000000E+00 0.  1.
         11   -1    0    0    0    0 -0.00000000000E+00 -0.00000000000E+00 -0.50000000000E+03  0.50000000000E+03  0.00000000000E+00 0. -1.
        -11    1    1    2    0    0 -0.34014144811E+01 -0.10045455850E+02  0.48969757054E+03  0.48981240429E+03  0.00000000000E+00 0.  1.
         11    1    1    2    0    0  0.13040818967E+02  0.31834604971E+02 -0.47021618970E+03  0.47147297917E+03  0.00000000000E+00 0. -1.
        -15    1    1    2    0    0 -0.93582606965E+01 -0.24636647748E+02 -0.22106591260E+02  0.34444165858E+02  0.17770000000E+01 0. -1.
         15    1    1    2    0    0 -0.28114378902E+00  0.28474986267E+01  0.26252104175E+01  0.42704506783E+01  0.17770000000E+01 0.  1.
</event>
<event>
 6    1  0.1823098E-004  0.5076567E+03  0.7546771E-02  0.9382838E-01
        -11   -1    0    0    0    0  0.00000000000E+00  0.00000000000E+00  0.50000000000E+03  0.50000000000E+03  0.00000000000E+00 0. -1.
         11   -1    0    0    0    0 -0.00000000000E+00 -0.00000000000E+00 -0.50000000000E+03  0.50000000000E+03  0.00000000000E+00 0. -1.
        -11    1    1    2    0    0  0.17735575545E+01  0.70273235603E+01  0.49228998461E+03  0.49234333318E+03  0.00000000000E+00 0. -1.
         11    1    1    2    0    0 -0.20768995325E+02  0.67279058356E+01 -0.47460592876E+03  0.47510778093E+03  0.00000000000E+00 0. -1.
        -15    1    1    2    0    0  0.13089609289E+02 -0.15720865228E+02 -0.15464531292E+02  0.25705892942E+02  0.17770000000E+01 0.  1.
         15    1    1    2    0    0  0.59058284820E+01  0.19656358323E+01 -0.22195245573E+01  0.68429929522E+01  0.17770000000E+01 0. -1.
</event>
<event>
 6    1  0.1823098E-004  0.5060600E+03  0.7546771E-02  0.9386351E-01
        -11   -1    0    0    0    0  0.00000000000E+00  0.00000000000E+00  0.50000000000E+03  0.50000000000E+03  0.00000000000E+00 0.  1.
         11   -1    0    0    0    0 -0.00000000000E+00 -0.00000000000E+00 -0.50000000000E+03  0.50000000000E+03  0.00000000000E+00 0. -1.
        -11    1    1    2    0    0 -0.69215453502E+01  0.43079853744E+00  0.47600063514E+03  0.47605115065E+03  0.00000000000E+00 0.  1.
         11    1    1    2    0    0 -0.88785664810E+01  0.28628097816E+01 -0.49385191800E+03  0.49394001816E+03  0.00000000000E+00 0. -1.
        -15    1    1    2    0    0  0.15355488733E+01  0.14522695519E+01  0.14160762565E+02  0.14427471110E+02  0.17770000000E+01 0.  1.
         15    1    1    2    0    0  0.14264562958E+02 -0.47458778710E+01  0.36905202952E+01  0.15581360088E+02  0.17770000000E+01 0. -1.
</event>
<event>
 6    1  0.1823098E-004  0.5015143E+03  0.7546771E-02  0.9396428E-01
        -11   -1    0    0    0    0  0.00000000000E+00  0.00000000000E+00  0.50000000000E+03  0.50000000000E+03  0.00000000000E+00 0.  1.
         11   -1    0    0    0    0 -0.00000000000E+00 -0.00000000000E+00 -0.50000000000E+03  0.50000000000E+03  0.00000000000E+00 0.  1.
        -11    1    1    2    0    0 -0.19924936213E+02 -0.91815027881E+01  0.49800269741E+03  0.49848569659E+03  0.00000000000E+00 0.  1.
         11    1    1    2    0    0  0.24243467563E+01 -0.16463278589E+02 -0.22812642529E+03  0.22873255762E+03  0.00000000000E+00 0.  1.
        -15    1    1    2    0    0  0.22365363618E+02  0.19558119397E+02 -0.24060830893E+03  0.24244225205E+03  0.17770000000E+01 0. -1.
         15    1    1    2    0    0 -0.48647741615E+01  0.60866619798E+01 -0.29267963196E+02  0.30339493739E+02  0.17770000000E+01 0.  1.
</event>
<event>
 6    1  0.1823098E-004  0.5005237E+03  0.7546771E-02  0.9398639E-01
        -11   -1    0    0    0    0  0.00000000000E+00  0.00000000000E+00  0.50000000000E+03  0.50000000000E+03  0.00000000000E+00 0.  1.
         11   -1    0    0    0    0 -0.00000000000E+00 -0.00000000000E+00 -0.50000000000E+03  0.50000000000E+03  0.00000000000E+00 0.  1.
        -11    1    1    2    0    0 -0.12545318092E+02  0.50689633330E+01  0.49929300160E+03  0.49947630659E+03  0.00000000000E+00 0.  1.
         11    1    1    2    0    0  0.82864512910E+01  0.78740890500E+01 -0.36555708767E+03  0.36573576651E+03  0.00000000000E+00 0.  1.
        -15    1    1    2    0    0  0.37638641857E+01 -0.99738258729E+01 -0.12349232588E+03  0.12396433421E+03  0.17770000000E+01 0.  1.
         15    1    1    2    0    0  0.49500261558E+00 -0.29692265101E+01 -0.10243588055E+02  0.10823592698E+02  0.17770000000E+01 0. -1.
</event>
<event>
 6    1  0.1823098E-004  0.5004044E+03  0.7546771E-02  0.9398905E-01
        -11   -1    0    0    0    0  0.00000000000E+00  0.00000000000E+00  0.50000000000E+03  0.50000000000E+03  0.00000000000E+00 0. -1.
         11   -1    0    0    0    0 -0.00000000000E+00 -0.00000000000E+00 -0.50000000000E+03  0.50000000000E+03  0.00000000000E+00 0.  1.
        -11    1    1    2    0    0 -0.19039257264E+01 -0.98346570598E+01  0.49949521262E+03  0.49959564934E+03  0.00000000000E+00 0. -1.
         11    1    1    2    0    0  0.32327801460E+00 -0.70638136433E+01 -0.29564478997E+03  0.29572934215E+03  0.00000000000E+00 0.  1.
        -15    1    1    2    0    0 -0.19177659864E+01  0.40872281529E+01 -0.45135041160E+02  0.45395076053E+02  0.17770000000E+01 0. -1.
         15    1    1    2    0    0  0.34984136982E+01  0.12811242550E+02 -0.15871538148E+03  0.15927993245E+03  0.17770000000E+01 0.  1.
</event>
<event>
 6    1  0.1823098E-004  0.5000562E+03  0.7546771E-02  0.9399684E-01
        -11   -1    0    0    0    0  0.00000000000E+00  0.00000000000E+00  0.50000000000E+03  0.50000000000E+03  0.00000000000E+00 0.  1.
         11   -1    0    0    0    0 -0.00000000000E+00 -0.00000000000E+00 -0.50000000000E+03  0.50000000000E+03  0.00000000000E+00 0.  1.
        -11    1    1    2    0    0 -0.76865267490E+01  0.26428273703E+01  0.49987776045E+03  0.49994383947E+03  0.00000000000E+00 0.  1.
         11    1    1    2    0    0  0.22327548314E+01 -0.49873111979E+01 -0.26926046123E+03  0.26931590084E+03  0.00000000000E+00 0.  1.
        -15    1    1    2    0    0  0.20914447526E+01 -0.19184004899E+00 -0.61997353225E+02  0.62058363495E+02  0.17770000000E+01 0. -1.
         15    1    1    2    0    0  0.33623271649E+01  0.25363238766E+01 -0.16861994600E+03  0.16868189619E+03  0.17770000000E+01 0.  1.
</event>
<event>
 6    1  0.1823098E-004  0.5002188E+03  0.7546771E-02  0.9399320E-01
        -11   -1    0    0    0    0  0.00000000000E+00  0.00000000000E+00  0.50000000000E+03  0.50000000000E+03  0.00000000000E+00 0.  1.
         11   -1    0    0    0    0 -0.00000000000E+00 -0.00000000000E+00 -0.50000000000E+03  0.50000000000E+03  0.00000000000E+00 0. -1.
        -11    1    1    2    0    0  0.64499701145E+01 -0.86581262159E+01  0.49966452465E+03  0.49978115456E+03  0.00000000000E+00 0.  1.
         11    1    1    2    0    0 -0.14877399010E+01  0.10100686890E+02 -0.11551954463E+03  0.11596983417E+03  0.00000000000E+00 0. -1.
        -15    1    1    2    0    0 -0.59775907749E+01 -0.32004449122E-01 -0.30902904049E+03  0.30909195754E+03  0.17770000000E+01 0. -1.
         15    1    1    2    0    0  0.10153605615E+01 -0.14105562252E+01 -0.75115939522E+02  0.75157053729E+02  0.17770000000E+01 0.  1.
</event>
<event>
 6    1  0.1823098E-004  0.5069600E+03  0.7546771E-02  0.9384369E-01
        -11   -1    0    0    0    0  0.00000000000E+00  0.00000000000E+00  0.50000000000E+03  0.50000000000E+03  0.00000000000E+00 0. -1.
         11   -1    0    0    0    0 -0.00000000000E+00 -0.00000000000E+00 -0.50000000000E+03  0.50000000000E+03  0.00000000000E+00 0.  1.
        -11    1    1    2    0    0  0.65363273028E+01  0.76712128666E+00  0.47377311623E+03  0.47381882373E+03  0.00000000000E+00 0. -1.
         11    1    1    2    0    0  0.34218615985E+01  0.13554150165E+02 -0.49284172974E+03  0.49303995243E+03  0.00000000000E+00 0.  1.
        -15    1    1    2    0    0 -0.57607347196E+01  0.30115235086E+01  0.12220317185E+02  0.13955257771E+02  0.17770000000E+01 0. -1.
         15    1    1    2    0    0 -0.41974541816E+01 -0.17332794960E+02  0.68482963161E+01  0.19185966074E+02  0.17770000000E+01 0.  1.
</event>
<event>
 6    1  0.1823098E-004  0.5022300E+03  0.7546771E-02  0.9394834E-01
        -11   -1    0    0    0    0  0.00000000000E+00  0.00000000000E+00  0.50000000000E+03  0.50000000000E+03  0.00000000000E+00 0. -1.
         11   -1    0    0    0    0 -0.00000000000E+00 -0.00000000000E+00 -0.50000000000E+03  0.50000000000E+03  0.00000000000E+00 0. -1.
        -11    1    1    2    0    0 -0.30366185454E+01  0.11457356794E+02  0.49762889693E+03  0.49777003840E+03  0.00000000000E+00 0. -1.
         11    1    1    2    0    0 -0.12005466659E+02  0.20655088968E+02 -0.25880681045E+03  0.25990715470E+03  0.00000000000E+00 0. -1.
        -15    1    1    2    0    0 -0.84143380964E+00 -0.12836598762E+02 -0.13048427138E+03  0.13112890255E+03  0.17770000000E+01 0.  1.
         15    1    1    2    0    0  0.15883519014E+02 -0.19275847000E+02 -0.10833781510E+03  0.11119390434E+03  0.17770000000E+01 0. -1.
</event>
<event>
 6    1  0.1823098E-004  0.5000862E+03  0.7546771E-02  0.9399617E-01
        -11   -1    0    0    0    0  0.00000000000E+00  0.00000000000E+00  0.50000000000E+03  0.50000000000E+03  0.00000000000E+00 0. -1.
         11   -1    0    0    0    0 -0.00000000000E+00 -0.00000000000E+00 -0.50000000000E+03  0.50000000000E+03  0.00000000000E+00 0. -1.
        -11    1    1    2    0    0 -0.10507882176E+02  0.10431799411E+02  0.49969448477E+03  0.49991380871E+03  0.00000000000E+00 0. -1.
         11    1    1    2    0    0  0.91885802509E+01 -0.97841143147E+01 -0.35778055857E+03  0.35803224295E+03  0.00000000000E+00 0. -1.
        -15    1    1    2    0    0  0.10217461366E+01 -0.11399991135E+00 -0.16671840959E+02  0.16797766849E+02  0.17770000000E+01 0. -1.
         15    1    1    2    0    0  0.29755578842E+00 -0.53368518443E+00 -0.12524208524E+03  0.12525618150E+03  0.17770000000E+01 0. -1.
</event>
<event>
 6    1  0.1823098E-004  0.5031165E+03  0.7546771E-02  0.9392863E-01
        -11   -1    0    0    0    0  0.00000000000E+00  0.00000000000E+00  0.50000000000E+03  0.50000000000E+03  0.00000000000E+00 0. -1.
         11   -1    0    0    0    0 -0.00000000000E+00 -0.00000000000E+00 -0.50000000000E+03  0.50000000000E+03  0.00000000000E+00 0. -1.
        -11    1    1    2    0    0 -0.12248850529E+02  0.40780877037E+01  0.49671581075E+03  0.49688354952E+03  0.00000000000E+00 0. -1.
         11    1    1    2    0    0 -0.27136953800E+01  0.25348464825E+02 -0.35214331134E+03  0.35306489564E+03  0.00000000000E+00 0. -1.
        -15    1    1    2    0    0  0.73916376354E+01 -0.14541821999E+02 -0.29470172391E+02  0.33730545263E+02  0.17770000000E+01 0. -1.
         15    1    1    2    0    0  0.75709082739E+01 -0.14884730529E+02 -0.11510232701E+03  0.11632100957E+03  0.17770000000E+01 0.  1.
</event>
<event>
 6    1  0.1823098E-004  0.5005801E+03  0.7546771E-02  0.9398513E-01
        -11   -1    0    0    0    0  0.00000000000E+00  0.00000000000E+00  0.50000000000E+03  0.50000000000E+03  0.00000000000E+00 0.  1.
         11   -1    0    0    0    0 -0.00000000000E+00 -0.00000000000E+00 -0.50000000000E+03  0.50000000000E+03  0.00000000000E+00 0.  1.
        -11    1    1    2    0    0  0.11355197069E+01  0.56815727500E+01  0.33549585611E+03  0.33554588232E+03  0.00000000000E+00 0.  1.
         11    1    1    2    0    0  0.36863300249E+01  0.12964426899E+02 -0.49923800612E+03  0.49941991565E+03  0.00000000000E+00 0.  1.
        -15    1    1    2    0    0 -0.32428848548E+01 -0.17121532613E+02  0.14880933167E+03  0.14983670479E+03  0.17770000000E+01 0. -1.
         15    1    1    2    0    0 -0.15789648770E+01 -0.15244670363E+01  0.14932818337E+02  0.15197497239E+02  0.17770000000E+01 0.  1.
</event>
<event>
 6    1  0.1823098E-004  0.4771409E+03  0.7546771E-02  0.9452463E-01
        -11   -1    0    0    0    0  0.00000000000E+00  0.00000000000E+00  0.50000000000E+03  0.50000000000E+03  0.00000000000E+00 0. -1.
         11   -1    0    0    0    0 -0.00000000000E+00 -0.00000000000E+00 -0.50000000000E+03  0.50000000000E+03  0.00000000000E+00 0.  1.
        -11    1    1    2    0    0 -0.87345519969E+01  0.47801474159E+01  0.48758757285E+03  0.48768922830E+03  0.00000000000E+00 0. -1.
         11    1    1    2    0    0 -0.29451673256E+02 -0.53936971003E+01 -0.46662690628E+03  0.46758652963E+03  0.00000000000E+00 0.  1.
        -15    1    1    2    0    0  0.28260476386E+02 -0.36674888041E+01 -0.15019219148E+02  0.32262046936E+02  0.17770000000E+01 0. -1.
         15    1    1    2    0    0  0.99257488663E+01  0.42810384885E+01 -0.59414474193E+01  0.12462195133E+02  0.17770000000E+01 0.  1.
</event>
<event>
 6    1  0.1823098E-004  0.5009183E+03  0.7546771E-02  0.9397757E-01
        -11   -1    0    0    0    0  0.00000000000E+00  0.00000000000E+00  0.50000000000E+03  0.50000000000E+03  0.00000000000E+00 0. -1.
         11   -1    0    0    0    0 -0.00000000000E+00 -0.00000000000E+00 -0.50000000000E+03  0.50000000000E+03  0.00000000000E+00 0. -1.
        -11    1    1    2    0    0 -0.18388527346E+01  0.88266633184E+01  0.49900026545E+03  0.49908171303E+03  0.00000000000E+00 0. -1.
         11    1    1    2    0    0  0.53328696275E+01 -0.86218045072E+01 -0.30718339340E+02  0.32347973402E+02  0.00000000000E+00 0. -1.
        -15    1    1    2    0    0 -0.85273039938E+01 -0.68610354483E-01 -0.15618821222E+03  0.15643092721E+03  0.17770000000E+01 0. -1.
         15    1    1    2    0    0  0.50332871009E+01 -0.13624845679E+00 -0.31209371389E+03  0.31213938636E+03  0.17770000000E+01 0.  1.
</event>
<event>
 6    1  0.1823098E-004  0.5021204E+03  0.7546771E-02  0.9395078E-01
        -11   -1    0    0    0    0  0.00000000000E+00  0.00000000000E+00  0.50000000000E+03  0.50000000000E+03  0.00000000000E+00 0.  1.
         11   -1    0    0    0    0 -0.00000000000E+00 -0.00000000000E+00 -0.50000000000E+03  0.50000000000E+03  0.00000000000E+00 0. -1.
        -11    1    1    2    0    0  0.29423960727E+00 -0.81672760389E+01  0.49781252654E+03  0.49787960649E+03  0.00000000000E+00 0.  1.
         11    1    1    2    0    0 -0.10180112332E+02 -0.60490911036E+01 -0.45894416500E+03  0.45909691001E+03  0.00000000000E+00 0. -1.
        -15    1    1    2    0    0  0.20329142561E+01  0.17227166993E+01 -0.40354757490E+01  0.51520177328E+01  0.17770000000E+01 0. -1.
         15    1    1    2    0    0  0.78529584686E+01  0.12493650443E+02 -0.34832885792E+02  0.37871465772E+02  0.17770000000E+01 0. -1.
</event>
<event>
 6    1  0.1823098E-004  0.5034242E+03  0.7546771E-02  0.9392180E-01
        -11   -1    0    0    0    0  0.00000000000E+00  0.00000000000E+00  0.50000000000E+03  0.50000000000E+03  0.00000000000E+00 0. -1.
         11   -1    0    0    0    0 -0.00000000000E+00 -0.00000000000E+00 -0.50000000000E+03  0.50000000000E+03  0.00000000000E+00 0.  1.
        -11    1    1    2    0    0  0.51061886411E+01  0.83452196932E+01  0.49647939920E+03  0.49657578443E+03  0.00000000000E+00 0. -1.
         11    1    1    2    0    0 -0.88428818323E+01  0.23646324794E+01 -0.48805033510E+03  0.48813616711E+03  0.00000000000E+00 0.  1.
        -15    1    1    2    0    0  0.23773652296E+01 -0.98929628676E+01 -0.63349651883E+01  0.12116604007E+02  0.17770000000E+01 0. -1.
         15    1    1    2    0    0  0.13593279616E+01 -0.81688930498E+00 -0.20940989120E+01  0.31714444496E+01  0.17770000000E+01 0.  1.
</event>
<event>
 6    1  0.1823098E-004  0.5190624E+03  0.7546771E-02  0.9358138E-01
        -11   -1    0    0    0    0  0.00000000000E+00  0.00000000000E+00  0.50000000000E+03  0.50000000000E+03  0.00000000000E+00 0. -1.
         11   -1    0    0    0    0 -0.00000000000E+00 -0.00000000000E+00 -0.50000000000E+03  0.50000000000E+03  0.00000000000E+00 0.  1.
        -11    1    1    2    0    0  0.79602712035E+01 -0.19000996427E+01  0.46636796576E+03  0.46643976651E+03  0.00000000000E+00 0. -1.
         11    1    1    2    0    0 -0.21377268859E+02  0.10597358113E+02 -0.48034536575E+03  0.48093758641E+03  0.00000000000E+00 0.  1.
        -15    1    1    2    0    0 -0.30934535763E+00  0.15828592511E+02  0.18153833871E+02  0.24152835209E+02  0.17770000000E+01 0.  1.
         15    1    1    2    0    0  0.13726343013E+02 -0.24525850981E+02 -0.41764338805E+01  0.28469811869E+02  0.17770000000E+01 0. -1.
</event>
<event>
 6    1  0.1823098E-004  0.5001259E+03  0.7546771E-02  0.9399528E-01
        -11   -1    0    0    0    0  0.00000000000E+00  0.00000000000E+00  0.50000000000E+03  0.50000000000E+03  0.00000000000E+00 0.  1.
         11   -1    0    0    0    0 -0.00000000000E+00 -0.00000000000E+00 -0.50000000000E+03  0.50000000000E+03  0.00000000000E+00 0.  1.
        -11    1    1    2    0    0  0.77139472532E+01  0.97978761021E+01  0.19134602443E+03  0.19175193460E+03  0.00000000000E+00 0.  1.
         11    1    1    2    0    0 -0.88192215777E+01 -0.15473244573E+02 -0.49955675611E+03  0.49987413670E+03  0.00000000000E+00 0.  1.
        -15    1    1    2    0    0 -0.13835739259E+00  0.16499326454E+01  0.23251215287E+02  0.23377727901E+02  0.17770000000E+01 0. -1.
         15    1    1    2    0    0  0.12436317170E+01  0.40254358253E+01  0.28495951640E+03  0.28499620079E+03  0.17770000000E+01 0.  1.
</event>
<event>
 6    1  0.1823098E-004  0.4825504E+03  0.7546771E-02  0.9439724E-01
        -11   -1    0    0    0    0  0.00000000000E+00  0.00000000000E+00  0.50000000000E+03  0.50000000000E+03  0.00000000000E+00 0. -1.
         11   -1    0    0    0    0 -0.00000000000E+00 -0.00000000000E+00 -0.50000000000E+03  0.50000000000E+03  0.00000000000E+00 0.  1.
        -11    1    1    2    0    0 -0.47960682524E+01  0.77304634566E+01  0.48989902037E+03  0.48998348186E+03  0.00000000000E+00 0. -1.
         11    1    1    2    0    0  0.30497088097E+02  0.44720451714E+01 -0.47465714758E+03  0.47565689243E+03  0.00000000000E+00 0.  1.
        -15    1    1    2    0    0  0.44995556932E-01 -0.27382578600E+01 -0.10842932730E+01  0.34399856990E+01  0.17770000000E+01 0.  1.
         15    1    1    2    0    0 -0.25746015401E+02 -0.94642507681E+01 -0.14157579514E+02  0.30919640010E+02  0.17770000000E+01 0. -1.
</event>
<event>
 6    1  0.1823098E-004  0.5010028E+03  0.7546771E-02  0.9397569E-01
        -11   -1    0    0    0    0  0.00000000000E+00  0.00000000000E+00  0.50000000000E+03  0.50000000000E+03  0.00000000000E+00 0. -1.
         11   -1    0    0    0    0 -0.00000000000E+00 -0.00000000000E+00 -0.50000000000E+03  0.50000000000E+03  0.00000000000E+00 0. -1.
        -11    1    1    2    0    0 -0.53938010609E+01  0.65450231546E+01  0.49892508296E+03  0.49899716315E+03  0.00000000000E+00 0. -1.
         11    1    1    2    0    0 -0.10220207621E+02  0.44670661429E+01 -0.38555145916E+03  0.38571276227E+03  0.00000000000E+00 0. -1.
        -15    1    1    2    0    0  0.43468038805E+01 -0.40187662265E+01 -0.19189419228E+02  0.20160275922E+02  0.17770000000E+01 0. -1.
         15    1    1    2    0    0  0.11267204801E+02 -0.69933230710E+01 -0.94184204579E+02  0.95129798659E+02  0.17770000000E+01 0.  1.
</event>
<event>
 6    1  0.1823098E-004  0.5016998E+03  0.7546771E-02  0.9396014E-01
        -11   -1    0    0    0    0  0.00000000000E+00  0.00000000000E+00  0.50000000000E+03  0.50000000000E+03  0.00000000000E+00 0.  1.
         11   -1    0    0    0    0 -0.00000000000E+00 -0.00000000000E+00 -0.50000000000E+03  0.50000000000E+03  0.00000000000E+00 0. -1.
        -11    1    1    2    0    0  0.15198844190E+01 -0.13394454491E+02  0.49811778409E+03  0.49830015883E+03  0.00000000000E+00 0.  1.
         11    1    1    2    0    0  0.11484585548E+02 -0.44644519450E+01 -0.41322544285E+03  0.41340911172E+03  0.00000000000E+00 0. -1.
        -15    1    1    2    0    0 -0.88591050666E+00  0.27719492356E+01 -0.48856209887E+01  0.59578151562E+01  0.17770000000E+01 0. -1.
         15    1    1    2    0    0 -0.12118559460E+02  0.15086957201E+02 -0.80006720255E+02  0.82332914293E+02  0.17770000000E+01 0.  1.
</event>
<event>
 6    1  0.1823098E-004  0.5022001E+03  0.7546771E-02  0.9394900E-01
        -11   -1    0    0    0    0  0.00000000000E+00  0.00000000000E+00  0.50000000000E+03  0.50000000000E+03  0.00000000000E+00 0.  1.
         11   -1    0    0    0    0 -0.00000000000E+00 -0.00000000000E+00 -0.50000000000E+03  0.50000000000E+03  0.00000000000E+00 0.  1.
        -11    1    1    2    0    0 -0.24786671490E+02  0.26908873455E+02  0.49645373505E+03  0.49779993733E+03  0.00000000000E+00 0.  1.
         11    1    1    2    0    0  0.41605256624E+02 -0.26609808053E+02 -0.24763417151E+03  0.25251091494E+03  0.00000000000E+00 0.  1.
        -15    1    1    2    0    0 -0.18022308884E+02  0.92837146007E+00 -0.20524506837E+03  0.20604456147E+03  0.17770000000E+01 0. -1.
         15    1    1    2    0    0  0.12037237500E+01 -0.12274368623E+01 -0.43574495167E+02  0.43644586264E+02  0.17770000000E+01 0.  1.
</event>
<event>
 6    1  0.1823098E-004  0.5002696E+03  0.7546771E-02  0.9399207E-01
        -11   -1    0    0    0    0  0.00000000000E+00  0.00000000000E+00  0.50000000000E+03  0.50000000000E+03  0.00000000000E+00 0.  1.
         11   -1    0    0    0    0 -0.00000000000E+00 -0.00000000000E+00 -0.50000000000E+03  0.50000000000E+03  0.00000000000E+00 0.  1.
        -11    1    1    2    0    0 -0.56280106943E+00 -0.43462196609E+01  0.30384685083E+03  0.30387845454E+03  0.00000000000E+00 0.  1.
         11    1    1    2    0    0 -0.11663143315E+02 -0.85447362635E+00 -0.49959350258E+03  0.49973035415E+03  0.00000000000E+00 0.  1.
        -15    1    1    2    0    0  0.43881735345E+01  0.36199572462E+01  0.41331271521E+02  0.41758734319E+02  0.17770000000E+01 0. -1.
         15    1    1    2    0    0  0.78377708496E+01  0.15807360410E+01  0.15441538022E+03  0.15463245700E+03  0.17770000000E+01 0.  1.
</event>
<event>
 6    1  0.1823098E-004  0.5043133E+03  0.7546771E-02  0.9390210E-01
        -11   -1    0    0    0    0  0.00000000000E+00  0.00000000000E+00  0.50000000000E+03  0.50000000000E+03  0.00000000000E+00 0. -1.
         11   -1    0    0    0    0 -0.00000000000E+00 -0.00000000000E+00 -0.50000000000E+03  0.50000000000E+03  0.00000000000E+00 0. -1.
        -11    1    1    2    0    0  0.17881859155E+02 -0.39973962386E+01  0.48600054624E+03  0.48634583478E+03  0.00000000000E+00 0. -1.
         11    1    1    2    0    0 -0.11007414392E+02  0.74856052429E+01 -0.49550788325E+03  0.49568665487E+03  0.00000000000E+00 0. -1.
        -15    1    1    2    0    0 -0.86467618663E+01 -0.49560551949E+01  0.25687485269E+01  0.10444384705E+02  0.17770000000E+01 0.  1.
         15    1    1    2    0    0  0.17723171040E+01  0.14678461906E+01  0.69385884760E+01  0.75231256401E+01  0.17770000000E+01 0. -1.
</event>
<event>
 6    1  0.1823098E-004  0.5004880E+03  0.7546771E-02  0.9398718E-01
        -11   -1    0    0    0    0  0.00000000000E+00  0.00000000000E+00  0.50000000000E+03  0.50000000000E+03  0.00000000000E+00 0. -1.
         11   -1    0    0    0    0 -0.00000000000E+00 -0.00000000000E+00 -0.50000000000E+03  0.50000000000E+03  0.00000000000E+00 0. -1.
        -11    1    1    2    0    0  0.10401780120E+02 -0.45150762235E+01  0.49938329797E+03  0.49951202312E+03  0.00000000000E+00 0. -1.
         11    1    1    2    0    0  0.47203453224E+01 -0.60123384241E+01 -0.81791839043E+02  0.82148248961E+02  0.00000000000E+00 0. -1.
        -15    1    1    2    0    0 -0.87053222161E+01  0.13616168181E+02 -0.34377472564E+03  0.34415897836E+03  0.17770000000E+01 0. -1.
         15    1    1    2    0    0 -0.64168032265E+01 -0.30887535336E+01 -0.73816733293E+02  0.74180749559E+02  0.17770000000E+01 0.  1.
</event>
<event>
 6    1  0.1823098E-004  0.5007727E+03  0.7546771E-02  0.9398082E-01
        -11   -1    0    0    0    0  0.00000000000E+00  0.00000000000E+00  0.50000000000E+03  0.50000000000E+03  0.00000000000E+00 0.  1.
         11   -1    0    0    0    0 -0.00000000000E+00 -0.00000000000E+00 -0.50000000000E+03  0.50000000000E+03  0.00000000000E+00 0.  1.
        -11    1    1    2    0    0  0.28730237315E+00  0.46773346187E+01  0.32928284347E+03  0.32931618698E+03  0.00000000000E+00 0.  1.
         11    1    1    2    0    0  0.95796867825E+00 -0.24100435607E+02 -0.49864431660E+03  0.49922730613E+03  0.00000000000E+00 0.  1.
        -15    1    1    2    0    0  0.11097344014E+00  0.22267232142E+02  0.15684507125E+03  0.15842782599E+03  0.17770000000E+01 0.  1.
         15    1    1    2    0    0 -0.13562444915E+01 -0.28441311532E+01  0.12516401882E+02  0.13028680908E+02  0.17770000000E+01 0.  1.
</event>
<event>
 6    1  0.1823098E-004  0.5005064E+03  0.7546771E-02  0.9398677E-01
        -11   -1    0    0    0    0  0.00000000000E+00  0.00000000000E+00  0.50000000000E+03  0.50000000000E+03  0.00000000000E+00 0.  1.
         11   -1    0    0    0    0 -0.00000000000E+00 -0.00000000000E+00 -0.50000000000E+03  0.50000000000E+03  0.00000000000E+00 0.  1.
        -11    1    1    2    0    0  0.10181821616E+01 -0.57305175255E+01  0.14026545847E+03  0.14038616159E+03  0.00000000000E+00 0.  1.
         11    1    1    2    0    0 -0.17701075365E+02 -0.23682944910E+02 -0.49861773193E+03  0.49949359610E+03  0.00000000000E+00 0.  1.
        -15    1    1    2    0    0  0.11603112236E+02  0.27134305541E+02  0.31294380731E+03  0.31433721863E+03  0.17770000000E+01 0.  1.
         15    1    1    2    0    0  0.50797809673E+01  0.22791568945E+01  0.45408466142E+02  0.45783023679E+02  0.17770000000E+01 0. -1.
</event>
<event>
 6    1  0.1823098E-004  0.5001856E+03  0.7546771E-02  0.9399395E-01
        -11   -1    0    0    0    0  0.00000000000E+00  0.00000000000E+00  0.50000000000E+03  0.50000000000E+03  0.00000000000E+00 0. -1.
         11   -1    0    0    0    0 -0.00000000000E+00 -0.00000000000E+00 -0.50000000000E+03  0.50000000000E+03  0.00000000000E+00 0. -1.
        -11    1    1    2    0    0 -0.15564527136E+02 -0.13132287546E+02  0.49939935512E+03  0.49981439293E+03  0.00000000000E+00 0. -1.
         11    1    1    2    0    0  0.50335943512E+01  0.10254966095E+02 -0.10756447233E+03  0.10816939081E+03  0.00000000000E+00 0. -1.
        -15    1    1    2    0    0  0.86157855378E+01  0.18974642936E+01 -0.27194454496E+03  0.27209341299E+03  0.17770000000E+01 0. -1.
         15    1    1    2    0    0  0.19151472474E+01  0.97985715763E+00 -0.11989033784E+03  0.11992280327E+03  0.17770000000E+01 0. -1.
</event>
<event>
 6    1  0.1823098E-004  0.5054679E+03  0.7546771E-02  0.9387657E-01
        -11   -1    0    0    0    0  0.00000000000E+00  0.00000000000E+00  0.50000000000E+03  0.50000000000E+03  0.00000000000E+00 0.  1.
         11   -1    0    0    0    0 -0.00000000000E+00 -0.00000000000E+00 -0.50000000000E+03  0.50000000000E+03  0.00000000000E+00 0.  1.
        -11    1    1    2    0    0  0.30022457618E+02 -0.71323045068E+01  0.43450563494E+03  0.43560000520E+03  0.00000000000E+00 0.  1.
         11    1    1    2    0    0 -0.15157098503E+02  0.51959351931E+01 -0.49427241241E+03  0.49453205462E+03  0.00000000000E+00 0.  1.
        -15    1    1    2    0    0  0.98927703278E+01 -0.78178713699E+00  0.25884879031E+02  0.27778819041E+02  0.17770000000E+01 0. -1.
         15    1    1    2    0    0 -0.24758129443E+02  0.27181564507E+01  0.33881898435E+02  0.42089121143E+02  0.17770000000E+01 0.  1.
</event>
<event>
 6    1  0.1823098E-004  0.5065342E+03  0.7546771E-02  0.9385306E-01
        -11   -1    0    0    0    0  0.00000000000E+00  0.00000000000E+00  0.50000000000E+03  0.50000000000E+03  0.00000000000E+00 0.  1.
         11   -1    0    0    0    0 -0.00000000000E+00 -0.00000000000E+00 -0.50000000000E+03  0.50000000000E+03  0.00000000000E+00 0.  1.
        -11    1    1    2    0    0  0.73046680307E+01  0.78529166087E+00  0.49341105940E+03  0.49346575199E+03  0.00000000000E+00 0.  1.
         11    1    1    2    0    0 -0.11133615467E+02 -0.88730684075E+01 -0.47992408464E+03  0.48013520570E+03  0.00000000000E+00 0.  1.
        -15    1    1    2    0    0 -0.68451246453E+01  0.25225621063E+01 -0.11979142544E+02  0.14137773378E+02  0.17770000000E+01 0. -1.
         15    1    1    2    0    0  0.10674072082E+02  0.55652146404E+01 -0.15078322164E+01  0.12261268931E+02  0.17770000000E+01 0.  1.
</event>
<event>
 6    1  0.1823098E-004  0.5007107E+03  0.7546771E-02  0.9398221E-01
        -11   -1    0    0    0    0  0.00000000000E+00  0.00000000000E+00  0.50000000000E+03  0.50000000000E+03  0.00000000000E+00 0.  1.
         11   -1    0    0    0    0 -0.00000000000E+00 -0.00000000000E+00 -0.50000000000E+03  0.50000000000E+03  0.00000000000E+00 0. -1.
        -11    1    1    2    0    0 -0.71467410980E+01 -0.33074864197E+00  0.49923800393E+03  0.49928926473E+03  0.00000000000E+00 0.  1.
         11    1    1    2    0    0  0.84014208149E+00 -0.12612814488E+02 -0.40636181892E+03  0.40655838056E+03  0.00000000000E+00 0. -1.
        -15    1    1    2    0    0  0.42533632984E+01  0.63771716854E+01 -0.37093730703E+02  0.37919150894E+02  0.17770000000E+01 0. -1.
         15    1    1    2    0    0  0.20532357181E+01  0.65663914448E+01 -0.55782454312E+02  0.56233203818E+02  0.17770000000E+01 0.  1.
</event>
<event>
 6    1  0.1823098E-004  0.5066809E+03  0.7546771E-02  0.9384984E-01
        -11   -1    0    0    0    0  0.00000000000E+00  0.00000000000E+00  0.50000000000E+03  0.50000000000E+03  0.00000000000E+00 0. -1.
         11   -1    0    0    0    0 -0.00000000000E+00 -0.00000000000E+00 -0.50000000000E+03  0.50000000000E+03  0.00000000000E+00 0. -1.
        -11    1    1    2    0    0 -0.52372572293E+01  0.94639586916E+01  0.49320055524E+03  0.49331914930E+03  0.00000000000E+00 0. -1.
         11    1    1    2    0    0  0.85275593417E+01  0.15916746209E+02 -0.46997723319E+03  0.47032399662E+03  0.00000000000E+00 0. -1.
        -15    1    1    2    0    0 -0.50321674436E+01 -0.23371382782E+02 -0.22881921219E+02  0.33140372509E+02  0.17770000000E+01 0.  1.
         15    1    1    2    0    0  0.17418653312E+01 -0.20093221184E+01 -0.34140082451E+00  0.32164815763E+01  0.17770000000E+01 0. -1.
</event>
<event>
 6    1  0.1823098E-004  0.5003190E+03  0.7546771E-02  0.9399096E-01
        -11   -1    0    0    0    0  0.00000000000E+00  0.00000000000E+00  0.50000000000E+03  0.50000000000E+03  0.00000000000E+00 0. -1.
         11   -1    0    0    0    0 -0.00000000000E+00 -0.00000000000E+00 -0.50000000000E+03  0.50000000000E+03  0.00000000000E+00 0. -1.
        -11    1    1    2    0    0 -0.63030674068E+01  0.72231388710E+01  0.49958905703E+03  0.49968102655E+03  0.00000000000E+00 0. -1.
         11    1    1    2    0    0  0.12047195028E+02 -0.30630320092E+01 -0.26469943950E+03  0.26499115144E+03  0.00000000000E+00 0. -1.
        -15    1    1    2    0    0  0.15302725642E+01 -0.54857188425E+01 -0.66670164704E+02  0.66936562774E+02  0.17770000000E+01 0. -1.
         15    1    1    2    0    0 -0.72744001855E+01  0.13256119808E+01 -0.16821945283E+03  0.16839125923E+03  0.17770000000E+01 0.  1.
</event>
<event>
 6    1  0.1823098E-004  0.5005349E+03  0.7546771E-02  0.9398614E-01
        -11   -1    0    0    0    0  0.00000000000E+00  0.00000000000E+00  0.50000000000E+03  0.50000000000E+03  0.00000000000E+00 0.  1.
         11   -1    0    0    0    0 -0.00000000000E+00 -0.00000000000E+00 -0.50000000000E+03  0.50000000000E+03  0.00000000000E+00 0. -1.
        -11    1    1    2    0    0  0.87511979729E+01 -0.15250187598E+01  0.32124074247E+03  0.32136353834E+03  0.00000000000E+00 0.  1.
         11    1    1    2    0    0 -0.10395133237E+02 -0.89062529375E+01 -0.49927745600E+03  0.49946507206E+03  0.00000000000E+00 0. -1.
        -15    1    1    2    0    0  0.63675678562E+01  0.80191027213E+01  0.52984655444E+02  0.53994290164E+02  0.17770000000E+01 0. -1.
         15    1    1    2    0    0 -0.47236325918E+01  0.24121689760E+01  0.12505205808E+03  0.12517709944E+03  0.17770000000E+01 0.  1.
</event>
<event>
 6    1  0.1823098E-004  0.5025072E+03  0.7546771E-02  0.9394217E-01
        -11   -1    0    0    0    0  0.00000000000E+00  0.00000000000E+00  0.50000000000E+03  0.50000000000E+03  0.00000000000E+00 0. -1.
         11   -1    0    0    0    0 -0.00000000000E+00 -0.00000000000E+00 -0.50000000000E+03  0.50000000000E+03  0.00000000000E+00 0. -1.
        -11    1    1    2    0    0  0.32524496337E+01 -0.61215932907E+01  0.49744445361E+03  0.49749275046E+03  0.00000000000E+00 0. -1.
         11    1    1    2    0    0 -0.32427876107E+01 -0.97363019926E+01 -0.14815379638E+02  0.18022395008E+02  0.00000000000E+00 0. -1.
        -15    1    1    2    0    0 -0.83229452504E+00  0.34767449394E+01 -0.38648156866E+01  0.55565275884E+01  0.17770000000E+01 0.  1.
         15    1    1    2    0    0  0.82263250203E+00  0.12381150344E+02 -0.47876425829E+03  0.47892832694E+03  0.17770000000E+01 0. -1.
</event>
<event>
 6    1  0.1823098E-004  0.5150407E+03  0.7546771E-02  0.9366770E-01
        -11   -1    0    0    0    0  0.00000000000E+00  0.00000000000E+00  0.50000000000E+03  0.50000000000E+03  0.00000000000E+00 0. -1.
         11   -1    0    0    0    0 -0.00000000000E+00 -0.00000000000E+00 -0.50000000000E+03  0.50000000000E+03  0.00000000000E+00 0. -1.
        -11    1    1    2    0    0 -0.13761458767E+02  0.98277005210E+01  0.26092496067E+03  0.26147236287E+03  0.00000000000E+00 0. -1.
         11    1    1    2    0    0  0.10790020908E+03 -0.14876268954E+02 -0.47256935504E+03  0.48495933213E+03  0.00000000000E+00 0. -1.
        -15    1    1    2    0    0 -0.56253084913E+02  0.43243096130E+02  0.60967984019E+02  0.93566167654E+02  0.17770000000E+01 0. -1.
         15    1    1    2    0    0 -0.37885665404E+02 -0.38194527698E+02  0.15067641035E+03  0.16000213734E+03  0.17770000000E+01 0.  1.
</event>
<event>
 6    1  0.1823098E-004  0.5010662E+03  0.7546771E-02  0.9397427E-01
        -11   -1    0    0    0    0  0.00000000000E+00  0.00000000000E+00  0.50000000000E+03  0.50000000000E+03  0.00000000000E+00 0. -1.
         11   -1    0    0    0    0 -0.00000000000E+00 -0.00000000000E+00 -0.50000000000E+03  0.50000000000E+03  0.00000000000E+00 0.  1.
        -11    1    1    2    0    0  0.32234237818E+01  0.14299046158E+02  0.49871839181E+03  0.49893375062E+03  0.00000000000E+00 0. -1.
         11    1    1    2    0    0  0.84505243700E+01 -0.83720073572E+01 -0.54327506546E+02  0.55614564970E+02  0.00000000000E+00 0.  1.
        -15    1    1    2    0    0 -0.57907903320E+01  0.98939058722E+01 -0.26665949849E+03  0.26691172415E+03  0.17770000000E+01 0. -1.
         15    1    1    2    0    0 -0.58831578199E+01 -0.15820944673E+02 -0.17773138677E+03  0.17853996026E+03  0.17770000000E+01 0.  1.
</event>
<event>
 6    1  0.1823098E-004  0.5161545E+03  0.7546771E-02  0.9364371E-01
        -11   -1    0    0    0    0  0.00000000000E+00  0.00000000000E+00  0.50000000000E+03  0.50000000000E+03  0.00000000000E+00 0. -1.
         11   -1    0    0    0    0 -0.00000000000E+00 -0.00000000000E+00 -0.50000000000E+03  0.50000000000E+03  0.00000000000E+00 0.  1.
        -11    1    1    2    0    0 -0.20427347943E+01  0.16032309476E+02  0.45232201756E+03  0.45261066633E+03  0.00000000000E+00 0. -1.
         11    1    1    2    0    0 -0.37042108160E+02 -0.25338288855E+01 -0.48241886972E+03  0.48384553726E+03  0.00000000000E+00 0.  1.
        -15    1    1    2    0    0  0.22001437442E+02  0.11159996846E+02  0.71892277556E+01  0.25757552365E+02  0.17770000000E+01 0.  1.
         15    1    1    2    0    0  0.17083405513E+02 -0.24658477436E+02  0.22907624410E+02  0.37786244038E+02  0.17770000000E+01 0. -1.
</event>
<event>
 6    1  0.1823098E-004  0.4889030E+03  0.7546771E-02  0.9424988E-01
        -11   -1    0    0    0    0  0.00000000000E+00  0.00000000000E+00  0.50000000000E+03  0.50000000000E+03  0.00000000000E+00 0. -1.
         11   -1    0    0    0    0 -0.00000000000E+00 -0.00000000000E+00 -0.50000000000E+03  0.50000000000E+03  0.00000000000E+00 0. -1.
        -11    1    1    2    0    0  0.64964475803E+01 -0.14244423739E+01  0.49163138023E+03  0.49167636398E+03  0.00000000000E+00 0. -1.
         11    1    1    2    0    0 -0.81644695207E+01 -0.17466448178E+02 -0.48594779440E+03  0.48633012888E+03  0.00000000000E+00 0. -1.
        -15    1    1    2    0    0  0.30153834004E+00  0.15130279666E+02 -0.78146757447E+01  0.17124344487E+02  0.17770000000E+01 0. -1.
         15    1    1    2    0    0  0.13664836003E+01  0.37606108859E+01  0.21310899165E+01  0.48691626484E+01  0.17770000000E+01 0.  1.
</event>
<event>
 6    1  0.1823098E-004  0.5006199E+03  0.7546771E-02  0.9398424E-01
        -11   -1    0    0    0    0  0.00000000000E+00  0.00000000000E+00  0.50000000000E+03  0.50000000000E+03  0.00000000000E+00 0.  1.
         11   -1    0    0    0    0 -0.00000000000E+00 -0.00000000000E+00 -0.50000000000E+03  0.50000000000E+03  0.00000000000E+00 0.  1.
        -11    1    1    2    0    0  0.40642664326E+01  0.41264150649E+01  0.38745767015E+03  0.38750095706E+03  0.00000000000E+00 0.  1.
         11    1    1    2    0    0  0.88407559394E+01 -0.63056941678E+01 -0.49926206843E+03  0.49938014950E+03  0.00000000000E+00 0.  1.
        -15    1    1    2    0    0 -0.14371751681E+00 -0.17077168268E+01  0.39205289849E+02  0.39282940733E+02  0.17770000000E+01 0.  1.
         15    1    1    2    0    0 -0.12761304855E+02  0.38869959298E+01  0.72599108430E+02  0.73835952711E+02  0.17770000000E+01 0. -1.
</event>
<event>
 6    1  0.1823098E-004  0.5001816E+03  0.7546771E-02  0.9399404E-01
        -11   -1    0    0    0    0  0.00000000000E+00  0.00000000000E+00  0.50000000000E+03  0.50000000000E+03  0.00000000000E+00 0.  1.
         11   -1    0    0    0    0 -0.00000000000E+00 -0.00000000000E+00 -0.50000000000E+03  0.50000000000E+03  0.00000000000E+00 0.  1.
        -11    1    1    2    0    0  0.14122709154E+02  0.90260181786E+00  0.22369562286E+03  0.22414280557E+03  0.00000000000E+00 0.  1.
         11    1    1    2    0    0 -0.17644380626E+02  0.20180504399E+00 -0.49950685978E+03  0.49981843490E+03  0.00000000000E+00 0.  1.
        -15    1    1    2    0    0 -0.10716235388E+01 -0.25993429907E+01  0.31842739335E+02  0.32015976299E+02  0.17770000000E+01 0. -1.
         15    1    1    2    0    0  0.45932950110E+01  0.14949361289E+01  0.24396849759E+03  0.24402278324E+03  0.17770000000E+01 0.  1.
</event>
<event>
 6    1  0.1823098E-004  0.4614462E+03  0.7546771E-02  0.9490466E-01
        -11   -1    0    0    0    0  0.00000000000E+00  0.00000000000E+00  0.50000000000E+03  0.50000000000E+03  0.00000000000E+00 0.  1.
         11   -1    0    0    0    0 -0.00000000000E+00 -0.00000000000E+00 -0.50000000000E+03  0.50000000000E+03  0.00000000000E+00 0.  1.
        -11    1    1    2    0    0  0.41463491720E+01 -0.25146886496E+02  0.48220766728E+03  0.48288072285E+03  0.00000000000E+00 0.  1.
         11    1    1    2    0    0 -0.15731330098E+01  0.61868662315E+02 -0.41139025200E+02  0.74314369529E+02  0.00000000000E+00 0.  1.
        -15    1    1    2    0    0 -0.14672368929E+01 -0.23149029247E+02 -0.20059705286E+03  0.20194149075E+03  0.17770000000E+01 0.  1.
         15    1    1    2    0    0 -0.11059792693E+01 -0.13572746571E+02 -0.24047158922E+03  0.24086341688E+03  0.17770000000E+01 0. -1.
</event>
<event>
 6    1  0.1823098E-004  0.5204311E+03  0.7546771E-02  0.9355219E-01
        -11   -1    0    0    0    0  0.00000000000E+00  0.00000000000E+00  0.50000000000E+03  0.50000000000E+03  0.00000000000E+00 0.  1.
         11   -1    0    0    0    0 -0.00000000000E+00 -0.00000000000E+00 -0.50000000000E+03  0.50000000000E+03  0.00000000000E+00 0.  1.
        -11    1    1    2    0    0 -0.68354286842E+01 -0.25952063828E+01  0.44127448292E+03  0.44133505125E+03  0.00000000000E+00 0.  1.
         11    1    1    2    0    0 -0.35416959579E+02 -0.13790614164E+02 -0.47806043917E+03  0.47956889553E+03  0.00000000000E+00 0.  1.
        -15    1    1    2    0    0  0.45424688082E+02  0.21232875565E+02  0.93985090949E+01  0.51046322045E+02  0.17770000000E+01 0. -1.
         15    1    1    2    0    0 -0.31722998185E+01 -0.48470550181E+01  0.27387447150E+02  0.28049731173E+02  0.17770000000E+01 0. -1.
</event>
<event>
 6    1  0.1823098E-004  0.4917850E+03  0.7546771E-02  0.9418381E-01
        -11   -1    0    0    0    0  0.00000000000E+00  0.00000000000E+00  0.50000000000E+03  0.50000000000E+03  0.00000000000E+00 0. -1.
         11   -1    0    0    0    0 -0.00000000000E+00 -0.00000000000E+00 -0.50000000000E+03  0.50000000000E+03  0.00000000000E+00 0.  1.
        -11    1    1    2    0    0 -0.67175740810E+01 -0.12476065254E+01  0.49249383525E+03  0.49254122678E+03  0.00000000000E+00 0. -1.
         11    1    1    2    0    0  0.13383953800E+02  0.55518783322E+01 -0.49084824171E+03  0.49106206325E+03  0.00000000000E+00 0.  1.
        -15    1    1    2    0    0 -0.37248514765E+01 -0.42047516098E+01 -0.75424294326E+01  0.95708111134E+01  0.17770000000E+01 0.  1.
         15    1    1    2    0    0 -0.29415282429E+01 -0.99520197069E-01  0.58968358905E+01  0.68258988560E+01  0.17770000000E+01 0. -1.
</event>
<event>
 6    1  0.1823098E-004  0.5080735E+03  0.7546771E-02  0.9381924E-01
        -11   -1    0    0    0    0  0.00000000000E+00  0.00000000000E+00  0.50000000000E+03  0.50000000000E+03  0.00000000000E+00 0.  1.
         11   -1    0    0    0    0 -0.00000000000E+00 -0.00000000000E+00 -0.50000000000E+03  0.50000000000E+03  0.00000000000E+00 0.  1.
        -11    1    1    2    0    0 -0.20594773793E+02 -0.26719011652E+02  0.43134117106E+03  0.43265835961E+03  0.00000000000E+00 0.  1.
         11    1    1    2    0    0  0.43027205144E+02  0.85541522450E+01 -0.48996653147E+03  0.49192653502E+03  0.00000000000E+00 0.  1.
        -15    1    1    2    0    0 -0.12548859109E+02  0.34203856798E+01 -0.10123188256E+01  0.13166450605E+02  0.17770000000E+01 0. -1.
         15    1    1    2    0    0 -0.98835722418E+01  0.14744473727E+02  0.59637679234E+02  0.62248654758E+02  0.17770000000E+01 0.  1.
</event>
<event>
 6    1  0.1823098E-004  0.5000909E+03  0.7546771E-02  0.9399606E-01
        -11   -1    0    0    0    0  0.00000000000E+00  0.00000000000E+00  0.50000000000E+03  0.50000000000E+03  0.00000000000E+00 0. -1.
         11   -1    0    0    0    0 -0.00000000000E+00 -0.00000000000E+00 -0.50000000000E+03  0.50000000000E+03  0.00000000000E+00 0. -1.
        -11    1    1    2    0    0  0.92231972882E+01 -0.26634102222E+01  0.49981690538E+03  0.49990909176E+03  0.00000000000E+00 0. -1.
         11    1    1    2    0    0 -0.45550360512E+01 -0.11740880963E+01 -0.25198048091E+03  0.25202438294E+03  0.00000000000E+00 0. -1.
        -15    1    1    2    0    0 -0.46404446200E+01  0.15383276715E+01 -0.65261454476E+02  0.65468430160E+02  0.17770000000E+01 0.  1.
         15    1    1    2    0    0 -0.27716616947E-01  0.22991706469E+01 -0.18257496999E+03  0.18259809515E+03  0.17770000000E+01 0. -1.
</event>
<event>
 6    1  0.1823098E-004  0.5001890E+03  0.7546771E-02  0.9399387E-01
        -11   -1    0    0    0    0  0.00000000000E+00  0.00000000000E+00  0.50000000000E+03  0.50000000000E+03  0.00000000000E+00 0.  1.
         11   -1    0    0    0    0 -0.00000000000E+00 -0.00000000000E+00 -0.50000000000E+03  0.50000000000E+03  0.00000000000E+00 0. -1.
        -11    1    1    2    0    0 -0.50804714245E+01  0.44221266164E+01  0.30170093945E+03  0.30177611446E+03  0.00000000000E+00 0.  1.
         11    1    1    2    0    0  0.99294030151E+01  0.41907132452E+01 -0.49969476549E+03  0.49981097805E+03  0.00000000000E+00 0. -1.
        -15    1    1    2    0    0 -0.55410451922E+01 -0.53483102920E+01  0.88023156607E+02  0.88377267625E+02  0.17770000000E+01 0.  1.
         15    1    1    2    0    0  0.69211360154E+00 -0.32645295696E+01  0.10997066943E+03  0.11003563986E+03  0.17770000000E+01 0. -1.
</event>
<event>
 6    1  0.1823098E-004  0.5001186E+03  0.7546771E-02  0.9399544E-01
        -11   -1    0    0    0    0  0.00000000000E+00  0.00000000000E+00  0.50000000000E+03  0.50000000000E+03  0.00000000000E+00 0.  1.
         11   -1    0    0    0    0 -0.00000000000E+00 -0.00000000000E+00 -0.50000000000E+03  0.50000000000E+03  0.00000000000E+00 0. -1.
        -11    1    1    2    0    0 -0.18904351550E+02 -0.17157307326E+02  0.49922909914E+03  0.49988142707E+03  0.00000000000E+00 0.  1.
         11    1    1    2    0    0  0.56116020244E+01  0.12588384016E+02 -0.17270924305E+03  0.17325830464E+03  0.00000000000E+00 0. -1.
        -15    1    1    2    0    0  0.24281876438E+01  0.15843441634E+01 -0.59776714627E+02  0.59873362877E+02  0.17770000000E+01 0. -1.
         15    1    1    2    0    0  0.10864561882E+02  0.29845791467E+01 -0.26674314146E+03  0.26698690541E+03  0.17770000000E+01 0. -1.
</event>
<event>
 6    1  0.1823098E-004  0.5007632E+03  0.7546771E-02  0.9398104E-01
        -11   -1    0    0    0    0  0.00000000000E+00  0.00000000000E+00  0.50000000000E+03  0.50000000000E+03  0.00000000000E+00 0.  1.
         11   -1    0    0    0    0 -0.00000000000E+00 -0.00000000000E+00 -0.50000000000E+03  0.50000000000E+03  0.00000000000E+00 0.  1.
        -11    1    1    2    0    0  0.65613624086E+01  0.49030769430E+01  0.49916961309E+03  0.49923681182E+03  0.00000000000E+00 0.  1.
         11    1    1    2    0    0  0.58339290626E+01 -0.45658044985E+01 -0.42101397161E+03  0.42107914410E+03  0.00000000000E+00 0.  1.
        -15    1    1    2    0    0 -0.23176983632E+01  0.55783728279E+00 -0.41784987401E+02  0.41890641070E+02  0.17770000000E+01 0. -1.
         15    1    1    2    0    0 -0.10077593108E+02 -0.89510972735E+00 -0.36370654079E+02  0.37793403014E+02  0.17770000000E+01 0.  1.
</event>
<event>
 6    1  0.1823098E-004  0.5000935E+03  0.7546771E-02  0.9399601E-01
        -11   -1    0    0    0    0  0.00000000000E+00  0.00000000000E+00  0.50000000000E+03  0.50000000000E+03  0.00000000000E+00 0. -1.
         11   -1    0    0    0    0 -0.00000000000E+00 -0.00000000000E+00 -0.50000000000E+03  0.50000000000E+03  0.00000000000E+00 0.  1.
        -11    1    1    2    0    0 -0.98291318654E+00 -0.69983565085E+01  0.49985656454E+03  0.49990651948E+03  0.00000000000E+00 0. -1.
         11    1    1    2    0    0  0.88814858991E-02 -0.16480345400E+01 -0.10978708488E+03  0.10979945402E+03  0.00000000000E+00 0.  1.
        -15    1    1    2    0    0  0.91350440852E+00  0.70328279383E+00 -0.16440600728E+02  0.16576494753E+02  0.17770000000E+01 0.  1.
         15    1    1    2    0    0  0.60527292121E-01  0.79431082546E+01 -0.37362887893E+03  0.37371753175E+03  0.17770000000E+01 0.  1.
</event>
<event>
 6    1  0.1823098E-004  0.5012427E+03  0.7546771E-02  0.9397033E-01
        -11   -1    0    0    0    0  0.00000000000E+00  0.00000000000E+00  0.50000000000E+03  0.50000000000E+03  0.00000000000E+00 0.  1.
         11   -1    0    0    0    0 -0.00000000000E+00 -0.00000000000E+00 -0.50000000000E+03  0.50000000000E+03  0.00000000000E+00 0.  1.
        -11    1    1    2    0    0 -0.89791391421E+01  0.10738335048E+02  0.49856085307E+03  0.49875731673E+03  0.00000000000E+00 0.  1.
         11    1    1    2    0    0  0.66421152813E+01  0.45384573103E+01 -0.44295327678E+03  0.44302632055E+03  0.00000000000E+00 0.  1.
        -15    1    1    2    0    0  0.56445310992E+00 -0.12314506349E+02 -0.48946946767E+02  0.50506702533E+02  0.17770000000E+01 0.  1.
         15    1    1    2    0    0  0.17725707509E+01 -0.29622860096E+01 -0.66606295229E+01  0.77096601813E+01  0.17770000000E+01 0. -1.
</event>
<event>
 6    1  0.1823098E-004  0.4829519E+03  0.7546771E-02  0.9438785E-01
        -11   -1    0    0    0    0  0.00000000000E+00  0.00000000000E+00  0.50000000000E+03  0.50000000000E+03  0.00000000000E+00 0. -1.
         11   -1    0    0    0    0 -0.00000000000E+00 -0.00000000000E+00 -0.50000000000E+03  0.50000000000E+03  0.00000000000E+00 0. -1.
        -11    1    1    2    0    0 -0.12411012119E+02 -0.40643485392E+01  0.48814714370E+03  0.48832180583E+03  0.00000000000E+00 0. -1.
         11    1    1    2    0    0  0.17620876136E+02 -0.16159691729E+02 -0.47727056747E+03  0.47786904637E+03  0.00000000000E+00 0. -1.
        -15    1    1    2    0    0  0.96339070695E+01  0.69170658374E+01 -0.43725527551E+01  0.12764596030E+02  0.17770000000E+01 0. -1.
         15    1    1    2    0    0 -0.14843771086E+02  0.13306974431E+02 -0.65040234749E+01  0.21044551764E+02  0.17770000000E+01 0.  1.
</event>
<event>
 6    1  0.1823098E-004  0.5016936E+03  0.7546771E-02  0.9396028E-01
        -11   -1    0    0    0    0  0.00000000000E+00  0.00000000000E+00  0.50000000000E+03  0.50000000000E+03  0.00000000000E+00 0. -1.
         11   -1    0    0    0    0 -0.00000000000E+00 -0.00000000000E+00 -0.50000000000E+03  0.50000000000E+03  0.00000000000E+00 0.  1.
        -11    1    1    2    0    0 -0.20605866013E+01  0.61204605134E+01  0.46324157860E+03  0.46328659186E+03  0.00000000000E+00 0. -1.
         11    1    1    2    0    0 -0.61982600157E+01  0.43267433619E+01 -0.49824902775E+03  0.49830636438E+03  0.00000000000E+00 0.  1.
        -15    1    1    2    0    0  0.72702971745E+01 -0.99658940355E+01  0.22455639891E+02  0.25682479570E+02  0.17770000000E+01 0.  1.
         15    1    1    2    0    0  0.98854944247E+00 -0.48130983979E+00  0.12551809257E+02  0.12724564189E+02  0.17770000000E+01 0. -1.
</event>
<event>
 6    1  0.1823098E-004  0.5019617E+03  0.7546771E-02  0.9395431E-01
        -11   -1    0    0    0    0  0.00000000000E+00  0.00000000000E+00  0.50000000000E+03  0.50000000000E+03  0.00000000000E+00 0. -1.
         11   -1    0    0    0    0 -0.00000000000E+00 -0.00000000000E+00 -0.50000000000E+03  0.50000000000E+03  0.00000000000E+00 0.  1.
        -11    1    1    2    0    0 -0.12953042260E+02 -0.13284956058E+02  0.49769254828E+03  0.49803829569E+03  0.00000000000E+00 0. -1.
         11    1    1    2    0    0  0.19864546253E+02 -0.51521492126E+01 -0.23358451221E+03  0.23448426213E+03  0.00000000000E+00 0.  1.
        -15    1    1    2    0    0 -0.98455772879E+01  0.18609835465E+02 -0.26303058015E+03  0.26387782246E+03  0.17770000000E+01 0.  1.
         15    1    1    2    0    0  0.29340732949E+01 -0.17273019503E+00 -0.10774559220E+01  0.35996197138E+01  0.17770000000E+01 0. -1.
</event>
<event>
 6    1  0.1823098E-004  0.5022090E+03  0.7546771E-02  0.9394880E-01
        -11   -1    0    0    0    0  0.00000000000E+00  0.00000000000E+00  0.50000000000E+03  0.50000000000E+03  0.00000000000E+00 0.  1.
         11   -1    0    0    0    0 -0.00000000000E+00 -0.00000000000E+00 -0.50000000000E+03  0.50000000000E+03  0.00000000000E+00 0.  1.
        -11    1    1    2    0    0 -0.64602114265E+01 -0.47709433516E+01  0.41633757947E+03  0.41641502892E+03  0.00000000000E+00 0.  1.
         11    1    1    2    0    0  0.55392988481E+01  0.23722115260E+02 -0.49719460471E+03  0.49779101793E+03  0.00000000000E+00 0.  1.
        -15    1    1    2    0    0  0.14838209874E+01 -0.23552862042E+02  0.68702077090E+02  0.72664105035E+02  0.17770000000E+01 0.  1.
         15    1    1    2    0    0 -0.56290840900E+00  0.46016901328E+01  0.12154948144E+02  0.13129848108E+02  0.17770000000E+01 0. -1.
</event>
<event>
 6    1  0.1823098E-004  0.5004183E+03  0.7546771E-02  0.9398874E-01
        -11   -1    0    0    0    0  0.00000000000E+00  0.00000000000E+00  0.50000000000E+03  0.50000000000E+03  0.00000000000E+00 0. -1.
         11   -1    0    0    0    0 -0.00000000000E+00 -0.00000000000E+00 -0.50000000000E+03  0.50000000000E+03  0.00000000000E+00 0.  1.
        -11    1    1    2    0    0  0.54778762718E+01 -0.47004932783E+01  0.49952953054E+03  0.49958167865E+03  0.00000000000E+00 0. -1.
         11    1    1    2    0    0  0.64771531036E+01  0.18831105210E+00 -0.34802333993E+03  0.34808365964E+03  0.00000000000E+00 0.  1.
        -15    1    1    2    0    0 -0.72330390223E+01  0.68467781327E+01 -0.10849901607E+03  0.10896967212E+03  0.17770000000E+01 0.  1.
         15    1    1    2    0    0 -0.47219903531E+01 -0.23345959066E+01 -0.43007174546E+02  0.43364989593E+02  0.17770000000E+01 0. -1.
</event>
<event>
 6    1  0.1823098E-004  0.5092313E+03  0.7546771E-02  0.9379388E-01
        -11   -1    0    0    0    0  0.00000000000E+00  0.00000000000E+00  0.50000000000E+03  0.50000000000E+03  0.00000000000E+00 0. -1.
         11   -1    0    0    0    0 -0.00000000000E+00 -0.00000000000E+00 -0.50000000000E+03  0.50000000000E+03  0.00000000000E+00 0. -1.
        -11    1    1    2    0    0 -0.76379797567E+01  0.25902534948E+01  0.49070243611E+03  0.49076871228E+03  0.00000000000E+00 0. -1.
         11    1    1    2    0    0  0.88140905143E+01 -0.15522083354E+02 -0.47378183151E+03  0.47411796753E+03  0.00000000000E+00 0. -1.
        -15    1    1    2    0    0 -0.87540122346E+01  0.14065836064E+02 -0.20545247312E+02  0.26452701005E+02  0.17770000000E+01 0.  1.
         15    1    1    2    0    0  0.75779014770E+01 -0.11340062048E+01  0.36246427108E+01  0.86606191839E+01  0.17770000000E+01 0. -1.
</event>
<event>
 6    1  0.1823098E-004  0.5002592E+03  0.7546771E-02  0.9399230E-01
        -11   -1    0    0    0    0  0.00000000000E+00  0.00000000000E+00  0.50000000000E+03  0.50000000000E+03  0.00000000000E+00 0.  1.
         11   -1    0    0    0    0 -0.00000000000E+00 -0.00000000000E+00 -0.50000000000E+03  0.50000000000E+03  0.00000000000E+00 0. -1.
        -11    1    1    2    0    0 -0.44241941519E+01  0.72520238990E+01  0.49966859376E+03  0.49974080175E+03  0.00000000000E+00 0.  1.
         11    1    1    2    0    0  0.45677658624E+01  0.33420078801E+01 -0.22703904448E+03  0.22710957977E+03  0.00000000000E+00 0. -1.
        -15    1    1    2    0    0 -0.32634088746E+01  0.77805609214E+00 -0.11793295274E+03  0.11799404341E+03  0.17770000000E+01 0. -1.
         15    1    1    2    0    0  0.31198371641E+01 -0.11372087871E+02 -0.15469659654E+03  0.15515557507E+03  0.17770000000E+01 0.  1.
</event>
<event>
 6    1  0.1823098E-004  0.5028610E+03  0.7546771E-02  0.9393431E-01
        -11   -1    0    0    0    0  0.00000000000E+00  0.00000000000E+00  0.50000000000E+03  0.50000000000E+03  0.00000000000E+00 0. -1.
         11   -1    0    0    0    0 -0.00000000000E+00 -0.00000000000E+00 -0.50000000000E+03  0.50000000000E+03  0.00000000000E+00 0. -1.
        -11    1    1    2    0    0 -0.54528259713E+01  0.68130011285E+01  0.46175393763E+03  0.46183638793E+03  0.00000000000E+00 0. -1.
         11    1    1    2    0    0 -0.65231622749E+00  0.12546786200E+02 -0.49698017100E+03  0.49713895213E+03  0.00000000000E+00 0. -1.
        -15    1    1    2    0    0  0.16531727059E+00 -0.65548323024E+01  0.11869772083E+02  0.13676343613E+02  0.17770000000E+01 0. -1.
         15    1    1    2    0    0  0.59398249282E+01 -0.12804955026E+02  0.23356461280E+02  0.27348316327E+02  0.17770000000E+01 0.  1.
</event>
<event>
 6    1  0.1823098E-004  0.5026533E+03  0.7546771E-02  0.9393892E-01
        -11   -1    0    0    0    0  0.00000000000E+00  0.00000000000E+00  0.50000000000E+03  0.50000000000E+03  0.00000000000E+00 0.  1.
         11   -1    0    0    0    0 -0.00000000000E+00 -0.00000000000E+00 -0.50000000000E+03  0.50000000000E+03  0.00000000000E+00 0.  1.
        -11    1    1    2    0    0 -0.82538531271E+01  0.47029844737E+01  0.46708029155E+03  0.46717688610E+03  0.00000000000E+00 0.  1.
         11    1    1    2    0    0  0.21125393208E+02 -0.19852937148E+01 -0.49689385002E+03  0.49734668172E+03  0.00000000000E+00 0.  1.
        -15    1    1    2    0    0 -0.12171356766E+02  0.32294004859E+01  0.22616939117E+02  0.25947150461E+02  0.17770000000E+01 0. -1.
         15    1    1    2    0    0 -0.70018331473E+00 -0.59470912447E+01  0.71966193553E+01  0.95292817196E+01  0.17770000000E+01 0.  1.
</event>
<event>
 6    1  0.1823098E-004  0.5286138E+03  0.7546771E-02  0.9337966E-01
        -11   -1    0    0    0    0  0.00000000000E+00  0.00000000000E+00  0.50000000000E+03  0.50000000000E+03  0.00000000000E+00 0. -1.
         11   -1    0    0    0    0 -0.00000000000E+00 -0.00000000000E+00 -0.50000000000E+03  0.50000000000E+03  0.00000000000E+00 0.  1.
        -11    1    1    2    0    0  0.18061298217E+02  0.31450756066E+02  0.46998894028E+03  0.47138621589E+03  0.00000000000E+00 0. -1.
         11    1    1    2    0    0 -0.36242398053E+02  0.20480789313E+02 -0.34401934743E+03  0.34652891013E+03  0.00000000000E+00 0.  1.
        -15    1    1    2    0    0 -0.21502205319E+01 -0.50515119947E+02  0.37793064094E+01  0.50733043251E+02  0.17770000000E+01 0. -1.
         15    1    1    2    0    0  0.20331320368E+02 -0.14164254315E+01 -0.12974889925E+03  0.13135183073E+03  0.17770000000E+01 0.  1.
</event>
<event>
 6    1  0.1823098E-004  0.5004781E+03  0.7546771E-02  0.9398741E-01
        -11   -1    0    0    0    0  0.00000000000E+00  0.00000000000E+00  0.50000000000E+03  0.50000000000E+03  0.00000000000E+00 0. -1.
         11   -1    0    0    0    0 -0.00000000000E+00 -0.00000000000E+00 -0.50000000000E+03  0.50000000000E+03  0.00000000000E+00 0. -1.
        -11    1    1    2    0    0  0.58808066967E+01  0.14742474727E+02  0.49926964899E+03  0.49952187825E+03  0.00000000000E+00 0. -1.
         11    1    1    2    0    0 -0.64668849747E+01 -0.21668723245E+02 -0.43047703736E+03  0.43107056715E+03  0.00000000000E+00 0. -1.
        -15    1    1    2    0    0 -0.41049612049E+00  0.42245651122E+01 -0.21141766063E+02  0.21636715525E+02  0.17770000000E+01 0.  1.
         15    1    1    2    0    0  0.99657439850E+00  0.27016834062E+01 -0.47650845567E+02  0.47770839076E+02  0.17770000000E+01 0. -1.
</event>
<event>
 6    1  0.1823098E-004  0.5014220E+03  0.7546771E-02  0.9396634E-01
        -11   -1    0    0    0    0  0.00000000000E+00  0.00000000000E+00  0.50000000000E+03  0.50000000000E+03  0.00000000000E+00 0. -1.
         11   -1    0    0    0    0 -0.00000000000E+00 -0.00000000000E+00 -0.50000000000E+03  0.50000000000E+03  0.00000000000E+00 0. -1.
        -11    1    1    2    0    0 -0.38051126759E+02  0.20127023695E+02  0.49671626377E+03  0.49857800997E+03  0.00000000000E+00 0. -1.
         11    1    1    2    0    0  0.41016743982E+02 -0.94804896941E+01 -0.19735174738E+03  0.20179188578E+03  0.00000000000E+00 0. -1.
        -15    1    1    2    0    0 -0.23176439247E+01 -0.43861013533E+01 -0.83214737615E+02  0.83381410661E+02  0.17770000000E+01 0.  1.
         15    1    1    2    0    0 -0.64797329833E+00 -0.62604326480E+01 -0.21614977878E+03  0.21624869359E+03  0.17770000000E+01 0. -1.
</event>
<event>
 6    1  0.1823098E-004  0.5070467E+03  0.7546771E-02  0.9384179E-01
        -11   -1    0    0    0    0  0.00000000000E+00  0.00000000000E+00  0.50000000000E+03  0.50000000000E+03  0.00000000000E+00 0. -1.
         11   -1    0    0    0    0 -0.00000000000E+00 -0.00000000000E+00 -0.50000000000E+03  0.50000000000E+03  0.00000000000E+00 0.  1.
        -11    1    1    2    0    0  0.51763801031E+01 -0.10485716606E+02  0.47049251717E+03  0.47063781602E+03  0.00000000000E+00 0. -1.
         11    1    1    2    0    0 -0.45464277237E+01 -0.14402459820E+02 -0.49272190851E+03  0.49295332434E+03  0.00000000000E+00 0.  1.
        -15    1    1    2    0    0  0.77864184267E-02  0.40189478627E+01  0.12606611197E+02  0.13350519744E+02  0.17770000000E+01 0. -1.
         15    1    1    2    0    0 -0.63773879775E+00  0.20869228564E+02  0.96227801487E+01  0.23058339888E+02  0.17770000000E+01 0.  1.
</event>
<event>
 6    1  0.1823098E-004  0.5001658E+03  0.7546771E-02  0.9399439E-01
        -11   -1    0    0    0    0  0.00000000000E+00  0.00000000000E+00  0.50000000000E+03  0.50000000000E+03  0.00000000000E+00 0.  1.
         11   -1    0    0    0    0 -0.00000000000E+00 -0.00000000000E+00 -0.50000000000E+03  0.50000000000E+03  0.00000000000E+00 0. -1.
        -11    1    1    2    0    0  0.11641800872E+02  0.21392119172E+02  0.26402158627E+03  0.26514251321E+03  0.00000000000E+00 0.  1.
         11    1    1    2    0    0 -0.11746708091E+02 -0.30894642650E+02 -0.49874012677E+03  0.49983415064E+03  0.00000000000E+00 0. -1.
        -15    1    1    2    0    0 -0.12704074790E+01  0.94171494519E+01  0.18141994483E+03  0.18167732591E+03  0.17770000000E+01 0. -1.
         15    1    1    2    0    0  0.13753146982E+01  0.85374025671E-01  0.53298595672E+02  0.53346010243E+02  0.17770000000E+01 0.  1.
</event>
<event>
 6    1  0.1823098E-004  0.5000391E+03  0.7546771E-02  0.9399722E-01
        -11   -1    0    0    0    0  0.00000000000E+00  0.00000000000E+00  0.50000000000E+03  0.50000000000E+03  0.00000000000E+00 0.  1.
         11   -1    0    0    0    0 -0.00000000000E+00 -0.00000000000E+00 -0.50000000000E+03  0.50000000000E+03  0.00000000000E+00 0.  1.
        -11    1    1    2    0    0 -0.45771686140E+00 -0.67223598288E+00  0.12815398877E+02  0.12841178073E+02  0.00000000000E+00 0.  1.
         11    1    1    2    0    0 -0.10301041572E+02  0.44988599385E+01 -0.49983454910E+03  0.49996092615E+03  0.00000000000E+00 0.  1.
        -15    1    1    2    0    0  0.64011037446E+01  0.28039355577E-01  0.31782911241E+03  0.31789853309E+03  0.17770000000E+01 0.  1.
         15    1    1    2    0    0  0.43576546887E+01 -0.38546633112E+01  0.16919003781E+03  0.16929936269E+03  0.17770000000E+01 0. -1.
</event>
<event>
 6    1  0.1823098E-004  0.5005558E+03  0.7546771E-02  0.9398567E-01
        -11   -1    0    0    0    0  0.00000000000E+00  0.00000000000E+00  0.50000000000E+03  0.50000000000E+03  0.00000000000E+00 0.  1.
         11   -1    0    0    0    0 -0.00000000000E+00 -0.00000000000E+00 -0.50000000000E+03  0.50000000000E+03  0.00000000000E+00 0. -1.
        -11    1    1    2    0    0  0.39514699724E+01 -0.55078430756E+01  0.45169058782E+03  0.45174144991E+03  0.00000000000E+00 0.  1.
         11    1    1    2    0    0  0.53802517387E+01  0.46863057498E+01 -0.49939327513E+03  0.49944424294E+03  0.00000000000E+00 0. -1.
        -15    1    1    2    0    0 -0.43528084819E+01  0.15075066922E+01  0.26159923347E+02  0.26621773732E+02  0.17770000000E+01 0. -1.
         15    1    1    2    0    0 -0.49789132291E+01 -0.68596936643E+00  0.21542763963E+02  0.22192533409E+02  0.17770000000E+01 0.  1.
</event>
<event>
 6    1  0.1823098E-004  0.5191913E+03  0.7546771E-02  0.9357863E-01
        -11   -1    0    0    0    0  0.00000000000E+00  0.00000000000E+00  0.50000000000E+03  0.50000000000E+03  0.00000000000E+00 0. -1.
         11   -1    0    0    0    0 -0.00000000000E+00 -0.00000000000E+00 -0.50000000000E+03  0.50000000000E+03  0.00000000000E+00 0. -1.
        -11    1    1    2    0    0  0.82208097393E+00 -0.53399582738E+01  0.38434335657E+03  0.38438132982E+03  0.00000000000E+00 0. -1.
         11    1    1    2    0    0  0.19342554751E+02 -0.52779621568E+02 -0.47751144923E+03  0.48080870107E+03  0.00000000000E+00 0. -1.
        -15    1    1    2    0    0 -0.10378197520E+02  0.67546050305E+02  0.38514684455E+02  0.78464734392E+02  0.17770000000E+01 0.  1.
         15    1    1    2    0    0 -0.97864382049E+01 -0.94264704637E+01  0.54653408205E+02  0.56345234719E+02  0.17770000000E+01 0. -1.
</event>
<event>
 6    1  0.1823098E-004  0.5007950E+03  0.7546771E-02  0.9398033E-01
        -11   -1    0    0    0    0  0.00000000000E+00  0.00000000000E+00  0.50000000000E+03  0.50000000000E+03  0.00000000000E+00 0.  1.
         11   -1    0    0    0    0 -0.00000000000E+00 -0.00000000000E+00 -0.50000000000E+03  0.50000000000E+03  0.00000000000E+00 0.  1.
        -11    1    1    2    0    0  0.57589148946E+01 -0.43328030380E+01  0.49915293627E+03  0.49920495998E+03  0.00000000000E+00 0.  1.
         11    1    1    2    0    0  0.52598746975E+01 -0.34562855726E+01 -0.32931900823E+03  0.32937914533E+03  0.00000000000E+00 0.  1.
        -15    1    1    2    0    0  0.39419387153E+01  0.55946605421E+01 -0.33736218799E+02  0.34469251446E+02  0.17770000000E+01 0.  1.
         15    1    1    2    0    0 -0.14960728307E+02  0.21944280685E+01 -0.13609770924E+03  0.13694664324E+03  0.17770000000E+01 0. -1.
</event>
<event>
 6    1  0.1823098E-004  0.5072756E+03  0.7546771E-02  0.9383676E-01
        -11   -1    0    0    0    0  0.00000000000E+00  0.00000000000E+00  0.50000000000E+03  0.50000000000E+03  0.00000000000E+00 0.  1.
         11   -1    0    0    0    0 -0.00000000000E+00 -0.00000000000E+00 -0.50000000000E+03  0.50000000000E+03  0.00000000000E+00 0.  1.
        -11    1    1    2    0    0  0.68759195160E+01 -0.10579536094E+01  0.48421701181E+03  0.48426698428E+03  0.00000000000E+00 0.  1.
         11    1    1    2    0    0  0.48448506477E+01  0.65183003668E+01 -0.49265743902E+03  0.49272437837E+03  0.00000000000E+00 0.  1.
        -15    1    1    2    0    0 -0.22516138434E+01 -0.82821751832E+01  0.94857622723E+01  0.12915169591E+02  0.17770000000E+01 0.  1.
         15    1    1    2    0    0 -0.94691563203E+01  0.28218284258E+01 -0.10453350686E+01  0.10093467763E+02  0.17770000000E+01 0. -1.
</event>
<event>
 6    1  0.1823098E-004  0.5123412E+03  0.7546771E-02  0.9372611E-01
        -11   -1    0    0    0    0  0.00000000000E+00  0.00000000000E+00  0.50000000000E+03  0.50000000000E+03  0.00000000000E+00 0.  1.
         11   -1    0    0    0    0 -0.00000000000E+00 -0.00000000000E+00 -0.50000000000E+03  0.50000000000E+03  0.00000000000E+00 0.  1.
        -11    1    1    2    0    0 -0.12888354633E+02  0.12227856295E+02  0.42530672016E+03  0.42567762024E+03  0.00000000000E+00 0.  1.
         11    1    1    2    0    0 -0.39123897175E+02  0.52494261627E+00 -0.48608657877E+03  0.48765881203E+03  0.00000000000E+00 0.  1.
        -15    1    1    2    0    0  0.39251875856E+02 -0.41424919065E+01  0.59081395437E+02  0.71074883139E+02  0.17770000000E+01 0. -1.
         15    1    1    2    0    0  0.12760375952E+02 -0.86103070050E+01  0.16984631679E+01  0.15588684591E+02  0.17770000000E+01 0.  1.
</event>
<event>
 6    1  0.1823098E-004  0.5030226E+03  0.7546771E-02  0.9393072E-01
        -11   -1    0    0    0    0  0.00000000000E+00  0.00000000000E+00  0.50000000000E+03  0.50000000000E+03  0.00000000000E+00 0. -1.
         11   -1    0    0    0    0 -0.00000000000E+00 -0.00000000000E+00 -0.50000000000E+03  0.50000000000E+03  0.00000000000E+00 0.  1.
        -11    1    1    2    0    0  0.61038467485E+01 -0.24074470745E+01  0.42709482382E+03  0.42714522271E+03  0.00000000000E+00 0. -1.
         11    1    1    2    0    0  0.15515775298E+02  0.15886248042E+02 -0.49648101051E+03  0.49697736967E+03  0.00000000000E+00 0.  1.
        -15    1    1    2    0    0 -0.40623432235E+01 -0.36300518303E+01  0.38779950615E+02  0.39201048551E+02  0.17770000000E+01 0. -1.
         15    1    1    2    0    0 -0.17557278823E+02 -0.98487491372E+01  0.30606236079E+02  0.36676359077E+02  0.17770000000E+01 0.  1.
</event>
<event>
 6    1  0.1823098E-004  0.5081642E+03  0.7546771E-02  0.9381725E-01
        -11   -1    0    0    0    0  0.00000000000E+00  0.00000000000E+00  0.50000000000E+03  0.50000000000E+03  0.00000000000E+00 0.  1.
         11   -1    0    0    0    0 -0.00000000000E+00 -0.00000000000E+00 -0.50000000000E+03  0.50000000000E+03  0.00000000000E+00 0. -1.
        -11    1    1    2    0    0 -0.69764846559E+01  0.37758052112E+01  0.49177183786E+03  0.49183581463E+03  0.00000000000E+00 0.  1.
         11    1    1    2    0    0 -0.14314658832E+01 -0.25497976629E+02 -0.45749620404E+03  0.45820843796E+03  0.00000000000E+00 0. -1.
        -15    1    1    2    0    0  0.24010774817E+01  0.11623739041E+02 -0.35999969066E+02  0.37947753347E+02  0.17770000000E+01 0. -1.
         15    1    1    2    0    0  0.60068730574E+01  0.10098432376E+02  0.17243352455E+01  0.12007994063E+02  0.17770000000E+01 0.  1.
</event>
<event>
 6    1  0.1823098E-004  0.5024551E+03  0.7546771E-02  0.9394333E-01
        -11   -1    0    0    0    0  0.00000000000E+00  0.00000000000E+00  0.50000000000E+03  0.50000000000E+03  0.00000000000E+00 0. -1.
         11   -1    0    0    0    0 -0.00000000000E+00 -0.00000000000E+00 -0.50000000000E+03  0.50000000000E+03  0.00000000000E+00 0.  1.
        -11    1    1    2    0    0 -0.68086215229E+01  0.10419319334E+01  0.49749724636E+03  0.49754492570E+03  0.00000000000E+00 0. -1.
         11    1    1    2    0    0 -0.84370078215E+01  0.71384658558E+01 -0.45654966013E+03  0.45668340561E+03  0.00000000000E+00 0.  1.
        -15    1    1    2    0    0  0.12277764125E+02 -0.92227429893E+01 -0.24787628640E+02  0.29212783893E+02  0.17770000000E+01 0. -1.
         15    1    1    2    0    0  0.29678652197E+01  0.10423452001E+01 -0.16159957590E+02  0.16558884799E+02  0.17770000000E+01 0.  1.
</event>
<event>
 6    1  0.1823098E-004  0.5042843E+03  0.7546771E-02  0.9390274E-01
        -11   -1    0    0    0    0  0.00000000000E+00  0.00000000000E+00  0.50000000000E+03  0.50000000000E+03  0.00000000000E+00 0.  1.
         11   -1    0    0    0    0 -0.00000000000E+00 -0.00000000000E+00 -0.50000000000E+03  0.50000000000E+03  0.00000000000E+00 0. -1.
        -11    1    1    2    0    0 -0.93207801282E+01  0.36340727815E+01  0.30714415638E+03  0.30730703901E+03  0.00000000000E+00 0.  1.
         11    1    1    2    0    0 -0.30394831227E+02 -0.54485688314E+02 -0.49177386122E+03  0.49571571145E+03  0.00000000000E+00 0. -1.
        -15    1    1    2    0    0  0.40779949282E+02  0.42742447151E+02  0.14717333007E+03  0.15859718744E+03  0.17770000000E+01 0.  1.
         15    1    1    2    0    0 -0.10643379262E+01  0.81091683811E+01  0.37456374771E+02  0.38380062103E+02  0.17770000000E+01 0. -1.
</event>
<event>
 6    1  0.1823098E-004  0.5019465E+03  0.7546771E-02  0.9395465E-01
        -11   -1    0    0    0    0  0.00000000000E+00  0.00000000000E+00  0.50000000000E+03  0.50000000000E+03  0.00000000000E+00 0.  1.
         11   -1    0    0    0    0 -0.00000000000E+00 -0.00000000000E+00 -0.50000000000E+03  0.50000000000E+03  0.00000000000E+00 0. -1.
        -11    1    1    2    0    0  0.84536298302E+01  0.41010829170E+01  0.38763139900E+03  0.38774525688E+03  0.00000000000E+00 0.  1.
         11    1    1    2    0    0  0.14775313416E+02 -0.15416822435E+02 -0.49759552891E+03  0.49805350987E+03  0.00000000000E+00 0. -1.
        -15    1    1    2    0    0 -0.16625681848E+02  0.15240693940E+02  0.73914085898E+02  0.77299041856E+02  0.17770000000E+01 0. -1.
         15    1    1    2    0    0 -0.66032613983E+01 -0.39249544220E+01  0.36050044007E+02  0.36902191401E+02  0.17770000000E+01 0.  1.
</event>
<event>
 6    1  0.1823098E-004  0.4875714E+03  0.7546771E-02  0.9428057E-01
        -11   -1    0    0    0    0  0.00000000000E+00  0.00000000000E+00  0.50000000000E+03  0.50000000000E+03  0.00000000000E+00 0. -1.
         11   -1    0    0    0    0 -0.00000000000E+00 -0.00000000000E+00 -0.50000000000E+03  0.50000000000E+03  0.00000000000E+00 0. -1.
        -11    1    1    2    0    0  0.68892307623E+01  0.54847716609E-01  0.48864074261E+03  0.48868930810E+03  0.00000000000E+00 0. -1.
         11    1    1    2    0    0  0.57119448647E+01 -0.82111262676E+01 -0.48646856845E+03  0.48657138942E+03  0.00000000000E+00 0. -1.
        -15    1    1    2    0    0 -0.66949552121E+01  0.91385431808E+01 -0.96565391936E+01  0.14991393363E+02  0.17770000000E+01 0.  1.
         15    1    1    2    0    0 -0.59062204150E+01 -0.98226462984E+00  0.74843650314E+01  0.97479091254E+01  0.17770000000E+01 0. -1.
</event>
<event>
 6    1  0.1823098E-004  0.5006480E+03  0.7546771E-02  0.9398361E-01
        -11   -1    0    0    0    0  0.00000000000E+00  0.00000000000E+00  0.50000000000E+03  0.50000000000E+03  0.00000000000E+00 0.  1.
         11   -1    0    0    0    0 -0.00000000000E+00 -0.00000000000E+00 -0.50000000000E+03  0.50000000000E+03  0.00000000000E+00 0.  1.
        -11    1    1    2    0    0  0.58230198681E+01  0.28098710742E+01  0.46060889634E+03  0.46065427201E+03  0.00000000000E+00 0.  1.
         11    1    1    2    0    0 -0.10212813807E+02 -0.39113619664E+01 -0.49923225754E+03  0.49935202742E+03  0.00000000000E+00 0.  1.
        -15    1    1    2    0    0 -0.10048698364E+01 -0.22520481659E+01  0.20152931489E+02  0.20380869974E+02  0.17770000000E+01 0. -1.
         15    1    1    2    0    0  0.53946637753E+01  0.33535390581E+01  0.18470429712E+02  0.19612830602E+02  0.17770000000E+01 0.  1.
</event>
<event>
 6    1  0.1823098E-004  0.4681495E+03  0.7546771E-02  0.9474041E-01
        -11   -1    0    0    0    0  0.00000000000E+00  0.00000000000E+00  0.50000000000E+03  0.50000000000E+03  0.00000000000E+00 0. -1.
         11   -1    0    0    0    0 -0.00000000000E+00 -0.00000000000E+00 -0.50000000000E+03  0.50000000000E+03  0.00000000000E+00 0.  1.
        -11    1    1    2    0    0 -0.75592792800E+01  0.15923877968E+01  0.47588462798E+03  0.47594732644E+03  0.00000000000E+00 0. -1.
         11    1    1    2    0    0 -0.15151906250E+02 -0.47536424900E+02 -0.45919923720E+03  0.46190175514E+03  0.00000000000E+00 0.  1.
        -15    1    1    2    0    0  0.13094033260E+02  0.11748122217E+02  0.74302975269E+01  0.19179132749E+02  0.17770000000E+01 0.  1.
         15    1    1    2    0    0  0.96171522695E+01  0.34195914886E+02 -0.24115688303E+02  0.42971785674E+02  0.17770000000E+01 0. -1.
</event>
<event>
 6    1  0.1823098E-004  0.5001076E+03  0.7546771E-02  0.9399569E-01
        -11   -1    0    0    0    0  0.00000000000E+00  0.00000000000E+00  0.50000000000E+03  0.50000000000E+03  0.00000000000E+00 0.  1.
         11   -1    0    0    0    0 -0.00000000000E+00 -0.00000000000E+00 -0.50000000000E+03  0.50000000000E+03  0.00000000000E+00 0. -1.
        -11    1    1    2    0    0 -0.23297345954E+01 -0.88937445894E+01  0.49980781255E+03  0.49989236426E+03  0.00000000000E+00 0.  1.
         11    1    1    2    0    0 -0.37309944606E+01  0.95663152645E+00 -0.15704763458E+03  0.15709485985E+03  0.00000000000E+00 0. -1.
        -15    1    1    2    0    0 -0.16870126589E+01  0.26689825175E+01 -0.97184154427E+02  0.97251668778E+02  0.17770000000E+01 0. -1.
         15    1    1    2    0    0  0.77477417150E+01  0.52681305454E+01 -0.24557602354E+03  0.24576110711E+03  0.17770000000E+01 0. -1.
</event>
<event>
 6    1  0.1823098E-004  0.5015011E+03  0.7546771E-02  0.9396457E-01
        -11   -1    0    0    0    0  0.00000000000E+00  0.00000000000E+00  0.50000000000E+03  0.50000000000E+03  0.00000000000E+00 0.  1.
         11   -1    0    0    0    0 -0.00000000000E+00 -0.00000000000E+00 -0.50000000000E+03  0.50000000000E+03  0.00000000000E+00 0.  1.
        -11    1    1    2    0    0  0.12705904277E+02  0.39438020756E+01  0.49832131323E+03  0.49849887141E+03  0.00000000000E+00 0.  1.
         11    1    1    2    0    0 -0.65023481729E+01  0.10579364683E+02 -0.44346642011E+03  0.44364024756E+03  0.00000000000E+00 0.  1.
        -15    1    1    2    0    0  0.14043657831E+01 -0.64634513456E+01 -0.15700374899E+02  0.17129154898E+02  0.17770000000E+01 0.  1.
         15    1    1    2    0    0 -0.76079218873E+01 -0.80597154128E+01 -0.39154518221E+02  0.40731726137E+02  0.17770000000E+01 0. -1.
</event>
<event>
 6    1  0.1823098E-004  0.5000372E+03  0.7546771E-02  0.9399726E-01
        -11   -1    0    0    0    0  0.00000000000E+00  0.00000000000E+00  0.50000000000E+03  0.50000000000E+03  0.00000000000E+00 0. -1.
         11   -1    0    0    0    0 -0.00000000000E+00 -0.00000000000E+00 -0.50000000000E+03  0.50000000000E+03  0.00000000000E+00 0.  1.
        -11    1    1    2    0    0  0.41286956015E+01  0.75675709573E+01  0.49988846137E+03  0.49996278668E+03  0.00000000000E+00 0. -1.
         11    1    1    2    0    0 -0.51008538065E+01 -0.46187593693E+01 -0.32549828167E+03  0.32557101072E+03  0.00000000000E+00 0.  1.
        -15    1    1    2    0    0  0.10118361991E+01 -0.48904389698E+00 -0.77436949343E+02  0.77465487987E+02  0.17770000000E+01 0.  1.
         15    1    1    2    0    0 -0.39677994164E-01 -0.24597676909E+01 -0.96953230350E+02  0.97000714615E+02  0.17770000000E+01 0.  1.
</event>
<event>
 6    1  0.1823098E-004  0.5001907E+03  0.7546771E-02  0.9399383E-01
        -11   -1    0    0    0    0  0.00000000000E+00  0.00000000000E+00  0.50000000000E+03  0.50000000000E+03  0.00000000000E+00 0. -1.
         11   -1    0    0    0    0 -0.00000000000E+00 -0.00000000000E+00 -0.50000000000E+03  0.50000000000E+03  0.00000000000E+00 0.  1.
        -11    1    1    2    0    0  0.13848699123E+02  0.21820032361E+01  0.49961262141E+03  0.49980928270E+03  0.00000000000E+00 0. -1.
         11    1    1    2    0    0 -0.85388771167E+00  0.49384864601E+01 -0.23088156503E+03  0.23093595399E+03  0.00000000000E+00 0.  1.
        -15    1    1    2    0    0 -0.95339038606E+01 -0.20143538559E+01 -0.13085459594E+03  0.13122894480E+03  0.17770000000E+01 0.  1.
         15    1    1    2    0    0 -0.34609075511E+01 -0.51061358403E+01 -0.13787646044E+03  0.13802581851E+03  0.17770000000E+01 0. -1.
</event>
<event>
 6    1  0.1823098E-004  0.5080671E+03  0.7546771E-02  0.9381938E-01
        -11   -1    0    0    0    0  0.00000000000E+00  0.00000000000E+00  0.50000000000E+03  0.50000000000E+03  0.00000000000E+00 0. -1.
         11   -1    0    0    0    0 -0.00000000000E+00 -0.00000000000E+00 -0.50000000000E+03  0.50000000000E+03  0.00000000000E+00 0.  1.
        -11    1    1    2    0    0  0.32067040580E+01 -0.92712955025E+01  0.49183503203E+03  0.49193285986E+03  0.00000000000E+00 0. -1.
         11    1    1    2    0    0 -0.12060587790E+02 -0.18636165058E+02 -0.46986323687E+03  0.47038731466E+03  0.00000000000E+00 0.  1.
        -15    1    1    2    0    0 -0.24807229557E+00  0.19219945202E+01 -0.38782303314E+01  0.46855098231E+01  0.17770000000E+01 0.  1.
         15    1    1    2    0    0  0.91019560274E+01  0.25985466040E+02 -0.18093564828E+02  0.32994315663E+02  0.17770000000E+01 0. -1.
</event>
<event>
 6    1  0.1823098E-004  0.5070915E+03  0.7546771E-02  0.9384080E-01
        -11   -1    0    0    0    0  0.00000000000E+00  0.00000000000E+00  0.50000000000E+03  0.50000000000E+03  0.00000000000E+00 0.  1.
         11   -1    0    0    0    0 -0.00000000000E+00 -0.00000000000E+00 -0.50000000000E+03  0.50000000000E+03  0.00000000000E+00 0. -1.
        -11    1    1    2    0    0 -0.10950705195E+02 -0.46299346606E+01  0.49276509507E+03  0.49290850384E+03  0.00000000000E+00 0.  1.
         11    1    1    2    0    0  0.17993863043E+02 -0.17620485939E+02 -0.43272940355E+03  0.43346164459E+03  0.00000000000E+00 0. -1.
        -15    1    1    2    0    0  0.11847145170E+02  0.50170905503E+01 -0.70684938594E+01  0.14786729886E+02  0.17770000000E+01 0.  1.
         15    1    1    2    0    0 -0.18890303018E+02  0.17233330050E+02 -0.52967197657E+02  0.58843121682E+02  0.17770000000E+01 0. -1.
</event>
<event>
 6    1  0.1823098E-004  0.5000774E+03  0.7546771E-02  0.9399637E-01
        -11   -1    0    0    0    0  0.00000000000E+00  0.00000000000E+00  0.50000000000E+03  0.50000000000E+03  0.00000000000E+00 0.  1.
         11   -1    0    0    0    0 -0.00000000000E+00 -0.00000000000E+00 -0.50000000000E+03  0.50000000000E+03  0.00000000000E+00 0. -1.
        -11    1    1    2    0    0 -0.52906332163E+01  0.88548969564E+01  0.49981618476E+03  0.49992261256E+03  0.00000000000E+00 0.  1.
         11    1    1    2    0    0  0.41047677229E+01 -0.59288273033E+01 -0.13931545785E+03  0.13950196023E+03  0.00000000000E+00 0. -1.
        -15    1    1    2    0    0 -0.70983596035E+00 -0.37919694723E+01 -0.16145875929E+03  0.16151461724E+03  0.17770000000E+01 0. -1.
         15    1    1    2    0    0  0.18957014537E+01  0.86589981908E+00 -0.19904196761E+03  0.19906080997E+03  0.17770000000E+01 0.  1.
</event>
<event>
 6    1  0.1823098E-004  0.5000599E+03  0.7546771E-02  0.9399676E-01
        -11   -1    0    0    0    0  0.00000000000E+00  0.00000000000E+00  0.50000000000E+03  0.50000000000E+03  0.00000000000E+00 0. -1.
         11   -1    0    0    0    0 -0.00000000000E+00 -0.00000000000E+00 -0.50000000000E+03  0.50000000000E+03  0.00000000000E+00 0.  1.
        -11    1    1    2    0    0  0.35508187876E+01  0.72241091878E+01  0.49987526500E+03  0.49994007304E+03  0.00000000000E+00 0. -1.
         11    1    1    2    0    0 -0.25225126586E+01 -0.32384523288E+01 -0.84015629156E+02  0.84115852169E+02  0.00000000000E+00 0.  1.
        -15    1    1    2    0    0 -0.26320635952E+01 -0.46677898405E+01 -0.23760905911E+03  0.23767612148E+03  0.17770000000E+01 0. -1.
         15    1    1    2    0    0  0.16037574662E+01  0.68213298154E+00 -0.17825057674E+03  0.17826795332E+03  0.17770000000E+01 0.  1.
</event>
<event>
 6    1  0.1823098E-004  0.5070225E+03  0.7546771E-02  0.9384232E-01
        -11   -1    0    0    0    0  0.00000000000E+00  0.00000000000E+00  0.50000000000E+03  0.50000000000E+03  0.00000000000E+00 0.  1.
         11   -1    0    0    0    0 -0.00000000000E+00 -0.00000000000E+00 -0.50000000000E+03  0.50000000000E+03  0.00000000000E+00 0. -1.
        -11    1    1    2    0    0  0.59617686029E+01 -0.10290981360E+02  0.49283403133E+03  0.49297751411E+03  0.00000000000E+00 0.  1.
         11    1    1    2    0    0 -0.47817535099E+01  0.10165408194E+02 -0.48184752651E+03  0.48197846372E+03  0.00000000000E+00 0. -1.
        -15    1    1    2    0    0 -0.82946214949E+01  0.79346336087E+01 -0.72811802852E+01  0.13708846472E+02  0.17770000000E+01 0.  1.
         15    1    1    2    0    0  0.71146064019E+01 -0.78090604428E+01 -0.37053245357E+01  0.11335175701E+02  0.17770000000E+01 0. -1.
</event>
<event>
 6    1  0.1823098E-004  0.5218103E+03  0.7546771E-02  0.9352288E-01
        -11   -1    0    0    0    0  0.00000000000E+00  0.00000000000E+00  0.50000000000E+03  0.50000000000E+03  0.00000000000E+00 0.  1.
         11   -1    0    0    0    0 -0.00000000000E+00 -0.00000000000E+00 -0.50000000000E+03  0.50000000000E+03  0.00000000000E+00 0.  1.
        -11    1    1    2    0    0  0.51444254683E+02  0.11986528977E+02  0.47526332543E+03  0.47818972879E+03  0.00000000000E+00 0.  1.
         11    1    1    2    0    0  0.47287206536E+02 -0.34036733640E+02 -0.33471658774E+03  0.33974957431E+03  0.00000000000E+00 0.  1.
        -15    1    1    2    0    0 -0.54660721762E+02 -0.16325962361E+02 -0.64247111381E+02  0.85937073492E+02  0.17770000000E+01 0. -1.
         15    1    1    2    0    0 -0.44070739457E+02  0.38376167024E+02 -0.76299626318E+02  0.96123623408E+02  0.17770000000E+01 0.  1.
</event>
<event>
 6    1  0.1823098E-004  0.5040997E+03  0.7546771E-02  0.9390683E-01
        -11   -1    0    0    0    0  0.00000000000E+00  0.00000000000E+00  0.50000000000E+03  0.50000000000E+03  0.00000000000E+00 0.  1.
         11   -1    0    0    0    0 -0.00000000000E+00 -0.00000000000E+00 -0.50000000000E+03  0.50000000000E+03  0.00000000000E+00 0. -1.
        -11    1    1    2    0    0  0.92333415516E+01 -0.30500747021E+01  0.49580497744E+03  0.49590032588E+03  0.00000000000E+00 0.  1.
         11    1    1    2    0    0  0.12482857001E+02  0.22217720391E+02 -0.39201423131E+03  0.39284170650E+03  0.00000000000E+00 0. -1.
        -15    1    1    2    0    0 -0.10082493491E+02  0.18493861417E+01 -0.10024971264E+02  0.14447653164E+02  0.17770000000E+01 0. -1.
         15    1    1    2    0    0 -0.11633705062E+02 -0.21017031830E+02 -0.93765774868E+02  0.96810314461E+02  0.17770000000E+01 0.  1.
</event>
<event>
 6    1  0.1823098E-004  0.5004843E+03  0.7546771E-02  0.9398727E-01
        -11   -1    0    0    0    0  0.00000000000E+00  0.00000000000E+00  0.50000000000E+03  0.50000000000E+03  0.00000000000E+00 0.  1.
         11   -1    0    0    0    0 -0.00000000000E+00 -0.00000000000E+00 -0.50000000000E+03  0.50000000000E+03  0.00000000000E+00 0. -1.
        -11    1    1    2    0    0 -0.46233775323E+01 -0.20476872198E+01  0.23077783754E+03  0.23083322755E+03  0.00000000000E+00 0.  1.
         11    1    1    2    0    0 -0.15153304448E+02 -0.85273616803E+01 -0.49921296663E+03  0.49951569003E+03  0.00000000000E+00 0. -1.
        -15    1    1    2    0    0  0.12875424737E+02  0.10715217362E+02  0.22550435953E+03  0.22613262998E+03  0.17770000000E+01 0.  1.
         15    1    1    2    0    0  0.69012572431E+01 -0.14016846153E+00  0.42930769565E+02  0.43518452445E+02  0.17770000000E+01 0. -1.
</event>
<event>
 6    1  0.1823098E-004  0.5008177E+03  0.7546771E-02  0.9397982E-01
        -11   -1    0    0    0    0  0.00000000000E+00  0.00000000000E+00  0.50000000000E+03  0.50000000000E+03  0.00000000000E+00 0.  1.
         11   -1    0    0    0    0 -0.00000000000E+00 -0.00000000000E+00 -0.50000000000E+03  0.50000000000E+03  0.00000000000E+00 0. -1.
        -11    1    1    2    0    0  0.16848366661E+02 -0.16074652018E+02  0.49863880794E+03  0.49918225397E+03  0.00000000000E+00 0.  1.
         11    1    1    2    0    0 -0.13018904487E+02 -0.83695549292E+01 -0.26143039625E+03  0.26188813148E+03  0.00000000000E+00 0. -1.
        -15    1    1    2    0    0 -0.16229657440E+01  0.48053272953E+01 -0.17005046897E+02  0.17834083582E+02  0.17770000000E+01 0. -1.
         15    1    1    2    0    0 -0.22064964301E+01  0.19638879652E+02 -0.22020336479E+03  0.22109553097E+03  0.17770000000E+01 0.  1.
</event>
<event>
 6    1  0.1823098E-004  0.5132845E+03  0.7546771E-02  0.9370566E-01
        -11   -1    0    0    0    0  0.00000000000E+00  0.00000000000E+00  0.50000000000E+03  0.50000000000E+03  0.00000000000E+00 0. -1.
         11   -1    0    0    0    0 -0.00000000000E+00 -0.00000000000E+00 -0.50000000000E+03  0.50000000000E+03  0.00000000000E+00 0.  1.
        -11    1    1    2    0    0 -0.16762409894E+02 -0.23123348038E+01  0.48642125532E+03  0.48671548455E+03  0.00000000000E+00 0. -1.
         11    1    1    2    0    0  0.61033943246E+01 -0.25945920291E+02 -0.46508017789E+03  0.46584333640E+03  0.00000000000E+00 0.  1.
        -15    1    1    2    0    0 -0.21140300604E+01  0.87817757996E+01  0.63726395348E+01  0.11196292821E+02  0.17770000000E+01 0. -1.
         15    1    1    2    0    0  0.12773045629E+02  0.19476479295E+02 -0.27713716963E+02  0.36244886222E+02  0.17770000000E+01 0.  1.
</event>
<event>
 6    1  0.1823098E-004  0.5045680E+03  0.7546771E-02  0.9389646E-01
        -11   -1    0    0    0    0  0.00000000000E+00  0.00000000000E+00  0.50000000000E+03  0.50000000000E+03  0.00000000000E+00 0.  1.
         11   -1    0    0    0    0 -0.00000000000E+00 -0.00000000000E+00 -0.50000000000E+03  0.50000000000E+03  0.00000000000E+00 0. -1.
        -11    1    1    2    0    0  0.81416558625E+01  0.11147287721E+01  0.49536387150E+03  0.49543202800E+03  0.00000000000E+00 0.  1.
         11    1    1    2    0    0  0.79774886449E+01  0.44024780329E+01 -0.48197614220E+03  0.48206226132E+03  0.00000000000E+00 0. -1.
        -15    1    1    2    0    0 -0.10629830885E+02 -0.38401357158E+01 -0.58005282252E+01  0.12827462869E+02  0.17770000000E+01 0.  1.
         15    1    1    2    0    0 -0.54893136221E+01 -0.16770710892E+01 -0.75872010756E+01  0.96782478084E+01  0.17770000000E+01 0. -1.
</event>
<event>
 6    1  0.1823098E-004  0.5043947E+03  0.7546771E-02  0.9390030E-01
        -11   -1    0    0    0    0  0.00000000000E+00  0.00000000000E+00  0.50000000000E+03  0.50000000000E+03  0.00000000000E+00 0. -1.
         11   -1    0    0    0    0 -0.00000000000E+00 -0.00000000000E+00 -0.50000000000E+03  0.50000000000E+03  0.00000000000E+00 0. -1.
        -11    1    1    2    0    0  0.56742988109E+01  0.68512462915E+01  0.49552548987E+03  0.49560533527E+03  0.00000000000E+00 0. -1.
         11    1    1    2    0    0 -0.98762342759E-01 -0.85265036180E+01 -0.43274512299E+03  0.43282912621E+03  0.00000000000E+00 0. -1.
        -15    1    1    2    0    0 -0.11208812013E+02  0.12693916869E+02 -0.53072066966E+02  0.55736657716E+02  0.17770000000E+01 0. -1.
         15    1    1    2    0    0  0.56332755450E+01 -0.11018659543E+02 -0.97082999057E+01  0.15828880805E+02  0.17770000000E+01 0.  1.
</event>
<event>
 6    1  0.1823098E-004  0.5000937E+03  0.7546771E-02  0.9399600E-01
        -11   -1    0    0    0    0  0.00000000000E+00  0.00000000000E+00  0.50000000000E+03  0.50000000000E+03  0.00000000000E+00 0. -1.
         11   -1    0    0    0    0 -0.00000000000E+00 -0.00000000000E+00 -0.50000000000E+03  0.50000000000E+03  0.00000000000E+00 0.  1.
        -11    1    1    2    0    0  0.12621217722E+01 -0.53054173889E+01  0.10124626442E+03  0.10139302966E+03  0.00000000000E+00 0. -1.
         11    1    1    2    0    0  0.66478513503E+01  0.11194776597E+02 -0.49973671420E+03  0.49990629168E+03  0.00000000000E+00 0.  1.
        -15    1    1    2    0    0 -0.45224979908E+01 -0.55886613805E+01  0.15193921895E+03  0.15211959147E+03  0.17770000000E+01 0. -1.
         15    1    1    2    0    0 -0.33874751317E+01 -0.30069782726E+00  0.24655123082E+03  0.24658108718E+03  0.17770000000E+01 0. -1.
</event>
<event>
 6    1  0.1823098E-004  0.5007383E+03  0.7546771E-02  0.9398159E-01
        -11   -1    0    0    0    0  0.00000000000E+00  0.00000000000E+00  0.50000000000E+03  0.50000000000E+03  0.00000000000E+00 0. -1.
         11   -1    0    0    0    0 -0.00000000000E+00 -0.00000000000E+00 -0.50000000000E+03  0.50000000000E+03  0.00000000000E+00 0. -1.
        -11    1    1    2    0    0 -0.54321849841E+01 -0.93861846249E+01  0.39398937328E+03  0.39413859917E+03  0.00000000000E+00 0. -1.
         11    1    1    2    0    0 -0.51334785617E+01  0.97077069263E+01 -0.49914095587E+03  0.49926174098E+03  0.00000000000E+00 0. -1.
        -15    1    1    2    0    0  0.24927556941E+01  0.70702721971E-01  0.81219073652E+02  0.81276777026E+02  0.17770000000E+01 0.  1.
         15    1    1    2    0    0  0.80729078516E+01 -0.39222502342E+00  0.23932508936E+02  0.25322882826E+02  0.17770000000E+01 0. -1.
</event>
<event>
 6    1  0.1823098E-004  0.5022121E+03  0.7546771E-02  0.9394874E-01
        -11   -1    0    0    0    0  0.00000000000E+00  0.00000000000E+00  0.50000000000E+03  0.50000000000E+03  0.00000000000E+00 0.  1.
         11   -1    0    0    0    0 -0.00000000000E+00 -0.00000000000E+00 -0.50000000000E+03  0.50000000000E+03  0.00000000000E+00 0.  1.
        -11    1    1    2    0    0  0.42254303422E+01  0.17986497663E+02  0.49744494536E+03  0.49778794885E+03  0.00000000000E+00 0.  1.
         11    1    1    2    0    0 -0.18661177670E+02  0.96829713375E+01 -0.37387256539E+03  0.37446320865E+03  0.00000000000E+00 0.  1.
        -15    1    1    2    0    0  0.73377333318E-01 -0.61825415037E+01 -0.21644587142E+02  0.22580413752E+02  0.17770000000E+01 0. -1.
         15    1    1    2    0    0  0.14362369995E+02 -0.21486927497E+02 -0.10192779283E+03  0.10516842875E+03  0.17770000000E+01 0.  1.
</event>
<event>
 6    1  0.1823098E-004  0.5035326E+03  0.7546771E-02  0.9391940E-01
        -11   -1    0    0    0    0  0.00000000000E+00  0.00000000000E+00  0.50000000000E+03  0.50000000000E+03  0.00000000000E+00 0.  1.
         11   -1    0    0    0    0 -0.00000000000E+00 -0.00000000000E+00 -0.50000000000E+03  0.50000000000E+03  0.00000000000E+00 0. -1.
        -11    1    1    2    0    0  0.72400028738E+01 -0.39960766067E+01  0.49639851449E+03  0.49646739214E+03  0.00000000000E+00 0.  1.
         11    1    1    2    0    0  0.74152355788E+01 -0.62485842115E+01 -0.47459595992E+03  0.47469501334E+03  0.00000000000E+00 0. -1.
        -15    1    1    2    0    0 -0.98262430204E+01  0.92488064092E+01 -0.15092979579E+02  0.20323661911E+02  0.17770000000E+01 0. -1.
         15    1    1    2    0    0 -0.48289954322E+01  0.99585440896E+00 -0.67095749937E+01  0.85139326098E+01  0.17770000000E+01 0.  1.
</event>
<event>
 6    1  0.1823098E-004  0.5002481E+03  0.7546771E-02  0.9399255E-01
        -11   -1    0    0    0    0  0.00000000000E+00  0.00000000000E+00  0.50000000000E+03  0.50000000000E+03  0.00000000000E+00 0.  1.
         11   -1    0    0    0    0 -0.00000000000E+00 -0.00000000000E+00 -0.50000000000E+03  0.50000000000E+03  0.00000000000E+00 0.  1.
        -11    1    1    2    0    0  0.93193052963E+01  0.74305906281E+01  0.49960977433E+03  0.49975192820E+03  0.00000000000E+00 0.  1.
         11    1    1    2    0    0  0.48026866714E+01 -0.56156990516E+01 -0.91639882882E+02  0.91937315654E+02  0.00000000000E+00 0.  1.
        -15    1    1    2    0    0 -0.53954498128E+01  0.31081600279E+01 -0.17064455301E+03  0.17076736438E+03  0.17770000000E+01 0.  1.
         15    1    1    2    0    0 -0.87265421550E+01 -0.49230516044E+01 -0.23732533845E+03  0.23754339177E+03  0.17770000000E+01 0.  1.
</event>
<event>
 6    1  0.1823098E-004  0.5038659E+03  0.7546771E-02  0.9391201E-01
        -11   -1    0    0    0    0  0.00000000000E+00  0.00000000000E+00  0.50000000000E+03  0.50000000000E+03  0.00000000000E+00 0. -1.
         11   -1    0    0    0    0 -0.00000000000E+00 -0.00000000000E+00 -0.50000000000E+03  0.50000000000E+03  0.00000000000E+00 0. -1.
        -11    1    1    2    0    0 -0.15808790910E+01  0.76932895467E+01  0.47454199777E+03  0.47460698850E+03  0.00000000000E+00 0. -1.
         11    1    1    2    0    0  0.19590963601E+01  0.72451903161E+01 -0.49607733237E+03  0.49613410539E+03  0.00000000000E+00 0. -1.
        -15    1    1    2    0    0 -0.43087568567E+01 -0.13199371295E+02  0.11206798065E+02  0.17931504123E+02  0.17770000000E+01 0. -1.
         15    1    1    2    0    0  0.39305395876E+01 -0.17391085681E+01  0.10328536530E+02  0.11327401993E+02  0.17770000000E+01 0.  1.
</event>
<event>
 6    1  0.1823098E-004  0.5003234E+03  0.7546771E-02  0.9399086E-01
        -11   -1    0    0    0    0  0.00000000000E+00  0.00000000000E+00  0.50000000000E+03  0.50000000000E+03  0.00000000000E+00 0.  1.
         11   -1    0    0    0    0 -0.00000000000E+00 -0.00000000000E+00 -0.50000000000E+03  0.50000000000E+03  0.00000000000E+00 0. -1.
        -11    1    1    2    0    0 -0.21468260251E+01  0.73655471096E+01  0.49961769273E+03  0.49967659444E+03  0.00000000000E+00 0.  1.
         11    1    1    2    0    0 -0.54911545025E+01  0.92800149808E+00 -0.28795676143E+02  0.29329250401E+02  0.00000000000E+00 0. -1.
        -15    1    1    2    0    0  0.47870181345E+01 -0.18115080938E+01 -0.21150905947E+03  0.21157844189E+03  0.17770000000E+01 0. -1.
         15    1    1    2    0    0  0.28509623930E+01 -0.64820405139E+01 -0.25931295711E+03  0.25941571327E+03  0.17770000000E+01 0.  1.
</event>
<event>
 6    1  0.1823098E-004  0.5004381E+03  0.7546771E-02  0.9398830E-01
        -11   -1    0    0    0    0  0.00000000000E+00  0.00000000000E+00  0.50000000000E+03  0.50000000000E+03  0.00000000000E+00 0. -1.
         11   -1    0    0    0    0 -0.00000000000E+00 -0.00000000000E+00 -0.50000000000E+03  0.50000000000E+03  0.00000000000E+00 0. -1.
        -11    1    1    2    0    0 -0.28235773489E+01 -0.26178606464E+01  0.26370694713E+03  0.26373505597E+03  0.00000000000E+00 0. -1.
         11    1    1    2    0    0 -0.88975427615E+01  0.18062409962E+02 -0.49915597224E+03  0.49956190962E+03  0.00000000000E+00 0. -1.
        -15    1    1    2    0    0  0.97622483367E+01 -0.14805989976E+02  0.22914242005E+03  0.22983456056E+03  0.17770000000E+01 0. -1.
         15    1    1    2    0    0  0.19588717737E+01 -0.63855933943E+00  0.63066050655E+01  0.68684738558E+01  0.17770000000E+01 0.  1.
</event>
<event>
 6    1  0.1823098E-004  0.5095682E+03  0.7546771E-02  0.9378651E-01
        -11   -1    0    0    0    0  0.00000000000E+00  0.00000000000E+00  0.50000000000E+03  0.50000000000E+03  0.00000000000E+00 0.  1.
         11   -1    0    0    0    0 -0.00000000000E+00 -0.00000000000E+00 -0.50000000000E+03  0.50000000000E+03  0.00000000000E+00 0. -1.
        -11    1    1    2    0    0 -0.55621945492E+01  0.53927944912E+01  0.49037064239E+03  0.49043183742E+03  0.00000000000E+00 0.  1.
         11    1    1    2    0    0  0.22895753147E+02  0.21898521325E+02 -0.46378025851E+03  0.46486115016E+03  0.00000000000E+00 0. -1.
        -15    1    1    2    0    0 -0.19161216070E+02 -0.24358889431E+02 -0.26507693880E+02  0.40820622967E+02  0.17770000000E+01 0.  1.
         15    1    1    2    0    0  0.18276574725E+01 -0.29324263849E+01 -0.82689998830E-01  0.38863894524E+01  0.17770000000E+01 0. -1.
</event>
<event>
 6    1  0.1823098E-004  0.5015078E+03  0.7546771E-02  0.9396442E-01
        -11   -1    0    0    0    0  0.00000000000E+00  0.00000000000E+00  0.50000000000E+03  0.50000000000E+03  0.00000000000E+00 0.  1.
         11   -1    0    0    0    0 -0.00000000000E+00 -0.00000000000E+00 -0.50000000000E+03  0.50000000000E+03  0.00000000000E+00 0. -1.
        -11    1    1    2    0    0  0.69046896677E+00 -0.45389087178E+01  0.21945368578E+03  0.21950170533E+03  0.00000000000E+00 0.  1.
         11    1    1    2    0    0  0.88269437587E+01 -0.40629929817E+02 -0.49675525673E+03  0.49849221782E+03  0.00000000000E+00 0. -1.
        -15    1    1    2    0    0 -0.15907312930E+02  0.37755221132E+02  0.20914158200E+03  0.21312404458E+03  0.17770000000E+01 0.  1.
         15    1    1    2    0    0  0.63899002043E+01  0.74136174030E+01  0.68159988955E+02  0.68882032280E+02  0.17770000000E+01 0. -1.
</event>
<event>
 6    1  0.1823098E-004  0.5003265E+03  0.7546771E-02  0.9399079E-01
        -11   -1    0    0    0    0  0.00000000000E+00  0.00000000000E+00  0.50000000000E+03  0.50000000000E+03  0.00000000000E+00 0.  1.
         11   -1    0    0    0    0 -0.00000000000E+00 -0.00000000000E+00 -0.50000000000E+03  0.50000000000E+03  0.00000000000E+00 0. -1.
        -11    1    1    2    0    0  0.47269591500E+01 -0.33598857265E+01  0.37522028585E+03  0.37526510081E+03  0.00000000000E+00 0.  1.
         11    1    1    2    0    0  0.19208533839E+01  0.10027715907E+02 -0.49956916928E+03  0.49967349305E+03  0.00000000000E+00 0. -1.
        -15    1    1    2    0    0 -0.40705427679E+01 -0.57028399435E+01  0.11347017089E+03  0.11370017200E+03  0.17770000000E+01 0.  1.
         15    1    1    2    0    0 -0.25772697659E+01 -0.96499023720E+00  0.10878712539E+02  0.11361234137E+02  0.17770000000E+01 0.  1.
</event>
<event>
 6    1  0.1823098E-004  0.5005971E+03  0.7546771E-02  0.9398475E-01
        -11   -1    0    0    0    0  0.00000000000E+00  0.00000000000E+00  0.50000000000E+03  0.50000000000E+03  0.00000000000E+00 0.  1.
         11   -1    0    0    0    0 -0.00000000000E+00 -0.00000000000E+00 -0.50000000000E+03  0.50000000000E+03  0.00000000000E+00 0.  1.
        -11    1    1    2    0    0  0.66748334274E+01 -0.40152216662E+01  0.42888206222E+03  0.42895279309E+03  0.00000000000E+00 0.  1.
         11    1    1    2    0    0 -0.68883411793E+01 -0.50486285176E+01 -0.49932986631E+03  0.49940289675E+03  0.00000000000E+00 0.  1.
        -15    1    1    2    0    0 -0.34375530974E+01  0.13222445509E+01  0.16906310963E+02  0.17393854700E+02  0.17770000000E+01 0. -1.
         15    1    1    2    0    0  0.36510608492E+01  0.77416056329E+01  0.53541493122E+02  0.54250455462E+02  0.17770000000E+01 0.  1.
</event>
<event>
 6    1  0.1823098E-004  0.5000940E+03  0.7546771E-02  0.9399599E-01
        -11   -1    0    0    0    0  0.00000000000E+00  0.00000000000E+00  0.50000000000E+03  0.50000000000E+03  0.00000000000E+00 0. -1.
         11   -1    0    0    0    0 -0.00000000000E+00 -0.00000000000E+00 -0.50000000000E+03  0.50000000000E+03  0.00000000000E+00 0.  1.
        -11    1    1    2    0    0 -0.84115537676E+01  0.19339861507E+01  0.49983151120E+03  0.49990602530E+03  0.00000000000E+00 0. -1.
         11    1    1    2    0    0  0.51766863417E+01  0.17187209656E+00 -0.10287666050E+03  0.10300696528E+03  0.00000000000E+00 0.  1.
        -15    1    1    2    0    0 -0.13894987454E+01 -0.27898441724E+00 -0.27302105990E+02  0.27396555615E+02  0.17770000000E+01 0.  1.
         15    1    1    2    0    0  0.46243661713E+01 -0.18268738300E+01 -0.36965274471E+03  0.36969045380E+03  0.17770000000E+01 0.  1.
</event>
<event>
 6    1  0.1823098E-004  0.5000585E+03  0.7546771E-02  0.9399679E-01
        -11   -1    0    0    0    0  0.00000000000E+00  0.00000000000E+00  0.50000000000E+03  0.50000000000E+03  0.00000000000E+00 0. -1.
         11   -1    0    0    0    0 -0.00000000000E+00 -0.00000000000E+00 -0.50000000000E+03  0.50000000000E+03  0.00000000000E+00 0.  1.
        -11    1    1    2    0    0  0.64702903625E+01 -0.30567171360E+01  0.49989030276E+03  0.49994151955E+03  0.00000000000E+00 0. -1.
         11    1    1    2    0    0 -0.34709898840E+01  0.39171188251E+00 -0.53129825726E+02  0.53244526392E+02  0.00000000000E+00 0.  1.
        -15    1    1    2    0    0 -0.35844670994E+01  0.49961447105E+00 -0.27749823795E+03  0.27752752623E+03  0.17770000000E+01 0. -1.
         15    1    1    2    0    0  0.58516662085E+00  0.21653907824E+01 -0.16926223909E+03  0.16928642783E+03  0.17770000000E+01 0.  1.
</event>
<event>
 6    1  0.1823098E-004  0.5006713E+03  0.7546771E-02  0.9398309E-01
        -11   -1    0    0    0    0  0.00000000000E+00  0.00000000000E+00  0.50000000000E+03  0.50000000000E+03  0.00000000000E+00 0. -1.
         11   -1    0    0    0    0 -0.00000000000E+00 -0.00000000000E+00 -0.50000000000E+03  0.50000000000E+03  0.00000000000E+00 0. -1.
        -11    1    1    2    0    0 -0.51515049608E+01  0.34002176190E+01  0.38402209159E+03  0.38407169423E+03  0.00000000000E+00 0. -1.
         11    1    1    2    0    0  0.63194679344E+01 -0.87624980396E+01 -0.49921183871E+03  0.49932872634E+03  0.00000000000E+00 0. -1.
        -15    1    1    2    0    0  0.16318736236E+01  0.11144259825E+02  0.74484441174E+02  0.75352154877E+02  0.17770000000E+01 0.  1.
         15    1    1    2    0    0 -0.27998365973E+01 -0.57819794046E+01  0.40705305942E+02  0.41247424545E+02  0.17770000000E+01 0. -1.
</event>
<event>
 6    1  0.1823098E-004  0.5059184E+03  0.7546771E-02  0.9386663E-01
        -11   -1    0    0    0    0  0.00000000000E+00  0.00000000000E+00  0.50000000000E+03  0.50000000000E+03  0.00000000000E+00 0. -1.
         11   -1    0    0    0    0 -0.00000000000E+00 -0.00000000000E+00 -0.50000000000E+03  0.50000000000E+03  0.00000000000E+00 0. -1.
        -11    1    1    2    0    0 -0.15888456754E+01  0.76813933871E+01  0.49401934126E+03  0.49408161044E+03  0.00000000000E+00 0. -1.
         11    1    1    2    0    0 -0.11831855595E+02  0.60801547823E+01 -0.47087756927E+03  0.47106543742E+03  0.00000000000E+00 0. -1.
        -15    1    1    2    0    0  0.14650162101E+01 -0.54742239601E+01  0.15514964270E+01  0.61382628344E+01  0.17770000000E+01 0. -1.
         15    1    1    2    0    0  0.11955685060E+02 -0.82873242093E+01 -0.24693268421E+02  0.28714689309E+02  0.17770000000E+01 0.  1.
</event>
<event>
 6    1  0.1823098E-004  0.5001574E+03  0.7546771E-02  0.9399458E-01
        -11   -1    0    0    0    0  0.00000000000E+00  0.00000000000E+00  0.50000000000E+03  0.50000000000E+03  0.00000000000E+00 0.  1.
         11   -1    0    0    0    0 -0.00000000000E+00 -0.00000000000E+00 -0.50000000000E+03  0.50000000000E+03  0.00000000000E+00 0.  1.
        -11    1    1    2    0    0 -0.96543230060E+00 -0.11980304486E+01  0.66830351428E+02  0.66848060619E+02  0.00000000000E+00 0.  1.
         11    1    1    2    0    0 -0.99379938874E+01 -0.11415391547E+02 -0.49961336295E+03  0.49984256254E+03  0.00000000000E+00 0.  1.
        -15    1    1    2    0    0  0.64954036039E+01  0.12261102124E+02  0.39189156533E+03  0.39214115010E+03  0.17770000000E+01 0.  1.
         15    1    1    2    0    0  0.44080225841E+01  0.35231987127E+00  0.40891446194E+02  0.41168226744E+02  0.17770000000E+01 0. -1.
</event>
<event>
 6    1  0.1823098E-004  0.5020892E+03  0.7546771E-02  0.9395147E-01
        -11   -1    0    0    0    0  0.00000000000E+00  0.00000000000E+00  0.50000000000E+03  0.50000000000E+03  0.00000000000E+00 0. -1.
         11   -1    0    0    0    0 -0.00000000000E+00 -0.00000000000E+00 -0.50000000000E+03  0.50000000000E+03  0.00000000000E+00 0. -1.
        -11    1    1    2    0    0 -0.10492427959E+01  0.80215396224E+01  0.49784510571E+03  0.49791083066E+03  0.00000000000E+00 0. -1.
         11    1    1    2    0    0 -0.42353977022E+01  0.61305168011E+01 -0.46263202079E+03  0.46269202337E+03  0.00000000000E+00 0. -1.
        -15    1    1    2    0    0  0.97528022494E+00 -0.37437845372E+01 -0.29547198376E+01  0.51821995810E+01  0.17770000000E+01 0.  1.
         15    1    1    2    0    0  0.43093602731E+01 -0.10408271886E+02 -0.32258365081E+02  0.34214946388E+02  0.17770000000E+01 0. -1.
</event>
<event>
 6    1  0.1823098E-004  0.5000625E+03  0.7546771E-02  0.9399670E-01
        -11   -1    0    0    0    0  0.00000000000E+00  0.00000000000E+00  0.50000000000E+03  0.50000000000E+03  0.00000000000E+00 0.  1.
         11   -1    0    0    0    0 -0.00000000000E+00 -0.00000000000E+00 -0.50000000000E+03  0.50000000000E+03  0.00000000000E+00 0.  1.
        -11    1    1    2    0    0  0.17249554907E+02  0.19447002435E+02  0.49926118568E+03  0.49993746066E+03  0.00000000000E+00 0.  1.
         11    1    1    2    0    0 -0.13229785453E+02 -0.16905492488E+02 -0.33729127899E+03  0.33797371167E+03  0.00000000000E+00 0.  1.
        -15    1    1    2    0    0 -0.26652625363E+01 -0.62420667287E+00 -0.84872600435E+02  0.84935324170E+02  0.17770000000E+01 0. -1.
         15    1    1    2    0    0 -0.13545069179E+01 -0.19173032738E+01 -0.77097306254E+02  0.77153503494E+02  0.17770000000E+01 0. -1.
</event>
<event>
 6    1  0.1823098E-004  0.5036407E+03  0.7546771E-02  0.9391700E-01
        -11   -1    0    0    0    0  0.00000000000E+00  0.00000000000E+00  0.50000000000E+03  0.50000000000E+03  0.00000000000E+00 0.  1.
         11   -1    0    0    0    0 -0.00000000000E+00 -0.00000000000E+00 -0.50000000000E+03  0.50000000000E+03  0.00000000000E+00 0.  1.
        -11    1    1    2    0    0 -0.60233433477E+01  0.54470941667E+01  0.49629286692E+03  0.49635930661E+03  0.00000000000E+00 0.  1.
         11    1    1    2    0    0  0.27339437092E+02 -0.27922911119E+02 -0.40484491295E+03  0.40672661251E+03  0.00000000000E+00 0.  1.
        -15    1    1    2    0    0 -0.44452999503E+01  0.13376496588E+01 -0.15207950618E+02  0.15999671536E+02  0.17770000000E+01 0. -1.
         15    1    1    2    0    0 -0.16870793794E+02  0.21138167294E+02 -0.76240003351E+02  0.80914409345E+02  0.17770000000E+01 0.  1.
</event>
<event>
 6    1  0.1823098E-004  0.5187482E+03  0.7546771E-02  0.9358809E-01
        -11   -1    0    0    0    0  0.00000000000E+00  0.00000000000E+00  0.50000000000E+03  0.50000000000E+03  0.00000000000E+00 0. -1.
         11   -1    0    0    0    0 -0.00000000000E+00 -0.00000000000E+00 -0.50000000000E+03  0.50000000000E+03  0.00000000000E+00 0. -1.
        -11    1    1    2    0    0 -0.30914031233E+02  0.12317817340E+02  0.42982294154E+03  0.43110922864E+03  0.00000000000E+00 0. -1.
         11    1    1    2    0    0 -0.14899126787E+02 -0.47284248499E+02 -0.47869144885E+03  0.48125179204E+03  0.00000000000E+00 0. -1.
        -15    1    1    2    0    0  0.40090486035E+02  0.31534616349E+02  0.15175986827E+02  0.53246102242E+02  0.17770000000E+01 0. -1.
         15    1    1    2    0    0  0.57226719852E+01  0.34318148096E+01  0.33692520491E+02  0.34392877076E+02  0.17770000000E+01 0.  1.
</event>
<event>
 6    1  0.1823098E-004  0.5005527E+03  0.7546771E-02  0.9398574E-01
        -11   -1    0    0    0    0  0.00000000000E+00  0.00000000000E+00  0.50000000000E+03  0.50000000000E+03  0.00000000000E+00 0.  1.
         11   -1    0    0    0    0 -0.00000000000E+00 -0.00000000000E+00 -0.50000000000E+03  0.50000000000E+03  0.00000000000E+00 0.  1.
        -11    1    1    2    0    0 -0.92534058248E+00  0.77461468023E+00  0.55696813211E+02  0.55709884984E+02  0.00000000000E+00 0.  1.
         11    1    1    2    0    0 -0.10804456348E+02  0.50478554677E+02 -0.49677240397E+03  0.49944733667E+03  0.00000000000E+00 0.  1.
        -15    1    1    2    0    0  0.17170961534E+02 -0.48359211570E+02  0.39444337939E+03  0.39777153309E+03  0.17770000000E+01 0.  1.
         15    1    1    2    0    0 -0.54411646036E+01 -0.28939577868E+01  0.46632211366E+02  0.47071245254E+02  0.17770000000E+01 0. -1.
</event>
<event>
 6    1  0.1823098E-004  0.5011174E+03  0.7546771E-02  0.9397313E-01
        -11   -1    0    0    0    0  0.00000000000E+00  0.00000000000E+00  0.50000000000E+03  0.50000000000E+03  0.00000000000E+00 0. -1.
         11   -1    0    0    0    0 -0.00000000000E+00 -0.00000000000E+00 -0.50000000000E+03  0.50000000000E+03  0.00000000000E+00 0.  1.
        -11    1    1    2    0    0 -0.66364481371E+01 -0.52311944167E+01  0.41320119260E+03  0.41328759164E+03  0.00000000000E+00 0. -1.
         11    1    1    2    0    0 -0.46465566607E+01  0.91783307557E+01 -0.49877655845E+03  0.49888263901E+03  0.00000000000E+00 0.  1.
        -15    1    1    2    0    0  0.27337328772E+01  0.28682004936E+01  0.57267015321E+02  0.57431425564E+02  0.17770000000E+01 0.  1.
         15    1    1    2    0    0  0.85492719206E+01 -0.68153368326E+01  0.28308350532E+02  0.30398343793E+02  0.17770000000E+01 0. -1.
</event>
<event>
 6    1  0.1823098E-004  0.5001419E+03  0.7546771E-02  0.9399492E-01
        -11   -1    0    0    0    0  0.00000000000E+00  0.00000000000E+00  0.50000000000E+03  0.50000000000E+03  0.00000000000E+00 0.  1.
         11   -1    0    0    0    0 -0.00000000000E+00 -0.00000000000E+00 -0.50000000000E+03  0.50000000000E+03  0.00000000000E+00 0.  1.
        -11    1    1    2    0    0 -0.38761889955E+01  0.13993354464E+02  0.49964711444E+03  0.49985805763E+03  0.00000000000E+00 0.  1.
         11    1    1    2    0    0 -0.98981671205E+00 -0.12989336038E+02 -0.21854324874E+03  0.21893116306E+03  0.00000000000E+00 0.  1.
        -15    1    1    2    0    0  0.84368884958E+00  0.10983121725E+01 -0.44763941840E+02  0.44820601497E+02  0.17770000000E+01 0.  1.
         15    1    1    2    0    0  0.40223168580E+01 -0.21023305981E+01 -0.23633992386E+03  0.23639017781E+03  0.17770000000E+01 0.  1.
</event>
<event>
 6    1  0.1823098E-004  0.5003776E+03  0.7546771E-02  0.9398965E-01
        -11   -1    0    0    0    0  0.00000000000E+00  0.00000000000E+00  0.50000000000E+03  0.50000000000E+03  0.00000000000E+00 0.  1.
         11   -1    0    0    0    0 -0.00000000000E+00 -0.00000000000E+00 -0.50000000000E+03  0.50000000000E+03  0.00000000000E+00 0. -1.
        -11    1    1    2    0    0 -0.23404276838E+02  0.18244339858E+02  0.49874035878E+03  0.49962241902E+03  0.00000000000E+00 0.  1.
         11    1    1    2    0    0  0.16879890282E+01 -0.15574606415E+02 -0.26164952936E+03  0.26211809149E+03  0.00000000000E+00 0. -1.
        -15    1    1    2    0    0  0.32800177474E+00 -0.73136119038E+00 -0.15137424381E+02  0.15262431663E+02  0.17770000000E+01 0. -1.
         15    1    1    2    0    0  0.21388286035E+02 -0.19383722527E+01 -0.22195340503E+03  0.22299705783E+03  0.17770000000E+01 0. -1.
</event>
<event>
 6    1  0.1823098E-004  0.5055281E+03  0.7546771E-02  0.9387524E-01
        -11   -1    0    0    0    0  0.00000000000E+00  0.00000000000E+00  0.50000000000E+03  0.50000000000E+03  0.00000000000E+00 0. -1.
         11   -1    0    0    0    0 -0.00000000000E+00 -0.00000000000E+00 -0.50000000000E+03  0.50000000000E+03  0.00000000000E+00 0. -1.
        -11    1    1    2    0    0 -0.21567246404E+02  0.64054161212E+01  0.49395978428E+03  0.49447188389E+03  0.00000000000E+00 0. -1.
         11    1    1    2    0    0  0.21375604089E+02  0.67306442438E+01 -0.48056590298E+03  0.48108814694E+03  0.00000000000E+00 0. -1.
        -15    1    1    2    0    0  0.70931134607E+01 -0.99983426625E+01 -0.62578552772E+01  0.13877953604E+02  0.17770000000E+01 0. -1.
         15    1    1    2    0    0 -0.69014711455E+01 -0.31377177026E+01 -0.71360260250E+01  0.10562015564E+02  0.17770000000E+01 0. -1.
</event>
<event>
 6    1  0.1823098E-004  0.5001227E+03  0.7546771E-02  0.9399535E-01
        -11   -1    0    0    0    0  0.00000000000E+00  0.00000000000E+00  0.50000000000E+03  0.50000000000E+03  0.00000000000E+00 0.  1.
         11   -1    0    0    0    0 -0.00000000000E+00 -0.00000000000E+00 -0.50000000000E+03  0.50000000000E+03  0.00000000000E+00 0.  1.
        -11    1    1    2    0    0 -0.32840631016E+01  0.91473115390E+00  0.20963529138E+03  0.20966300865E+03  0.00000000000E+00 0.  1.
         11    1    1    2    0    0 -0.81053346265E+01 -0.32148736165E+01 -0.49980125142E+03  0.49987730773E+03  0.00000000000E+00 0.  1.
        -15    1    1    2    0    0  0.85415549050E+01  0.32049775121E+00  0.16259406421E+03  0.16282827863E+03  0.17770000000E+01 0. -1.
         15    1    1    2    0    0  0.28478428232E+01  0.19796447114E+01  0.12757189584E+03  0.12763140498E+03  0.17770000000E+01 0.  1.
</event>
<event>
 6    1  0.1823098E-004  0.5041609E+03  0.7546771E-02  0.9390547E-01
        -11   -1    0    0    0    0  0.00000000000E+00  0.00000000000E+00  0.50000000000E+03  0.50000000000E+03  0.00000000000E+00 0. -1.
         11   -1    0    0    0    0 -0.00000000000E+00 -0.00000000000E+00 -0.50000000000E+03  0.50000000000E+03  0.00000000000E+00 0. -1.
        -11    1    1    2    0    0  0.53289705125E+01  0.44877756646E+01  0.21804085964E+03  0.21815213620E+03  0.00000000000E+00 0. -1.
         11    1    1    2    0    0  0.55590038800E+02  0.76118511534E+01 -0.49265430063E+03  0.49583913986E+03  0.00000000000E+00 0. -1.
        -15    1    1    2    0    0 -0.60307374782E+02 -0.15575838168E+02  0.16578355828E+03  0.17710712044E+03  0.17770000000E+01 0.  1.
         15    1    1    2    0    0 -0.61163453126E+00  0.34762113500E+01  0.10882988271E+03  0.10890160349E+03  0.17770000000E+01 0. -1.
</event>
<event>
 6    1  0.1823098E-004  0.5032082E+03  0.7546771E-02  0.9392660E-01
        -11   -1    0    0    0    0  0.00000000000E+00  0.00000000000E+00  0.50000000000E+03  0.50000000000E+03  0.00000000000E+00 0. -1.
         11   -1    0    0    0    0 -0.00000000000E+00 -0.00000000000E+00 -0.50000000000E+03  0.50000000000E+03  0.00000000000E+00 0.  1.
        -11    1    1    2    0    0 -0.32567365762E+01 -0.51073808148E+01  0.42383862168E+03  0.42388190442E+03  0.00000000000E+00 0. -1.
         11    1    1    2    0    0 -0.95558771046E+01 -0.14916615169E+02 -0.49647581268E+03  0.49679175997E+03  0.00000000000E+00 0.  1.
        -15    1    1    2    0    0  0.16538499562E+02  0.14147021366E+02  0.36918755263E+02  0.42893034405E+02  0.17770000000E+01 0.  1.
         15    1    1    2    0    0 -0.37258858817E+01  0.58769746176E+01  0.35718435737E+02  0.36433301206E+02  0.17770000000E+01 0. -1.
</event>
<event>
 6    1  0.1823098E-004  0.5050661E+03  0.7546771E-02  0.9388545E-01
        -11   -1    0    0    0    0  0.00000000000E+00  0.00000000000E+00  0.50000000000E+03  0.50000000000E+03  0.00000000000E+00 0. -1.
         11   -1    0    0    0    0 -0.00000000000E+00 -0.00000000000E+00 -0.50000000000E+03  0.50000000000E+03  0.00000000000E+00 0.  1.
        -11    1    1    2    0    0 -0.70345236444E+00 -0.94493831580E+01  0.47939575316E+03  0.47948938866E+03  0.00000000000E+00 0. -1.
         11    1    1    2    0    0 -0.84407365490E+01  0.36740754362E+01 -0.49484829621E+03  0.49493391592E+03  0.00000000000E+00 0.  1.
        -15    1    1    2    0    0 -0.46621067012E+01  0.39048554781E+01  0.48316402437E+01  0.79677858683E+01  0.17770000000E+01 0. -1.
         15    1    1    2    0    0  0.13806295615E+02  0.18704522437E+01  0.10620902806E+02  0.17608909552E+02  0.17770000000E+01 0.  1.
</event>
<event>
 6    1  0.1823098E-004  0.5002506E+03  0.7546771E-02  0.9399249E-01
        -11   -1    0    0    0    0  0.00000000000E+00  0.00000000000E+00  0.50000000000E+03  0.50000000000E+03  0.00000000000E+00 0.  1.
         11   -1    0    0    0    0 -0.00000000000E+00 -0.00000000000E+00 -0.50000000000E+03  0.50000000000E+03  0.00000000000E+00 0. -1.
        -11    1    1    2    0    0  0.45012066998E+00  0.83071121611E+00  0.50742766881E+02  0.50751562345E+02  0.00000000000E+00 0.  1.
         11    1    1    2    0    0 -0.31387496835E+02  0.21085116263E+02 -0.49831686282E+03  0.49974939005E+03  0.00000000000E+00 0. -1.
        -15    1    1    2    0    0  0.74612057218E+00  0.69412715797E+00  0.72502739475E+02  0.72531672177E+02  0.17770000000E+01 0.  1.
         15    1    1    2    0    0  0.30191255593E+02 -0.22609954637E+02  0.37507135647E+03  0.37696737542E+03  0.17770000000E+01 0.  1.
</event>
<event>
 6    1  0.1823098E-004  0.5015657E+03  0.7546771E-02  0.9396313E-01
        -11   -1    0    0    0    0  0.00000000000E+00  0.00000000000E+00  0.50000000000E+03  0.50000000000E+03  0.00000000000E+00 0. -1.
         11   -1    0    0    0    0 -0.00000000000E+00 -0.00000000000E+00 -0.50000000000E+03  0.50000000000E+03  0.00000000000E+00 0.  1.
        -11    1    1    2    0    0  0.45993948095E+01 -0.53269638987E+01  0.44980088900E+03  0.44985594441E+03  0.00000000000E+00 0. -1.
         11    1    1    2    0    0 -0.14402024550E+02 -0.79368449718E+00 -0.49822553945E+03  0.49843428495E+03  0.00000000000E+00 0.  1.
        -15    1    1    2    0    0  0.11916311336E+02  0.15520802361E+01  0.26612754955E+02  0.29254125935E+02  0.17770000000E+01 0. -1.
         15    1    1    2    0    0 -0.21136815954E+01  0.45685681597E+01  0.21811895497E+02  0.22455644704E+02  0.17770000000E+01 0.  1.
</event>
<event>
 6    1  0.1823098E-004  0.5026314E+03  0.7546771E-02  0.9393941E-01
        -11   -1    0    0    0    0  0.00000000000E+00  0.00000000000E+00  0.50000000000E+03  0.50000000000E+03  0.00000000000E+00 0. -1.
         11   -1    0    0    0    0 -0.00000000000E+00 -0.00000000000E+00 -0.50000000000E+03  0.50000000000E+03  0.00000000000E+00 0. -1.
        -11    1    1    2    0    0 -0.81942590918E+01 -0.61172480208E+00  0.45470274151E+03  0.45477698186E+03  0.00000000000E+00 0. -1.
         11    1    1    2    0    0  0.41654879830E+01  0.12483378273E+02 -0.49719444578E+03  0.49736857856E+03  0.00000000000E+00 0. -1.
        -15    1    1    2    0    0  0.35662717759E+01  0.34317090520E+01  0.19334145631E+02  0.20036512613E+02  0.17770000000E+01 0. -1.
         15    1    1    2    0    0  0.46249933281E+00 -0.15303362523E+02  0.23157558637E+02  0.27817926975E+02  0.17770000000E+01 0.  1.
</event>
<event>
 6    1  0.1823098E-004  0.5001323E+03  0.7546771E-02  0.9399514E-01
        -11   -1    0    0    0    0  0.00000000000E+00  0.00000000000E+00  0.50000000000E+03  0.50000000000E+03  0.00000000000E+00 0.  1.
         11   -1    0    0    0    0 -0.00000000000E+00 -0.00000000000E+00 -0.50000000000E+03  0.50000000000E+03  0.00000000000E+00 0. -1.
        -11    1    1    2    0    0  0.11409434107E+02  0.17074911738E+01  0.32115077909E+03  0.32135792136E+03  0.00000000000E+00 0.  1.
         11    1    1    2    0    0 -0.11660938834E+02 -0.20187223449E+01 -0.49972759017E+03  0.49986769960E+03  0.00000000000E+00 0. -1.
        -15    1    1    2    0    0 -0.31263014262E+01 -0.18119893727E+01  0.89604214123E+02  0.89694648579E+02  0.17770000000E+01 0.  1.
         15    1    1    2    0    0  0.33778061525E+01  0.21232205437E+01  0.88972596957E+02  0.89079730456E+02  0.17770000000E+01 0.  1.
</event>
<event>
 6    1  0.1823098E-004  0.5006760E+03  0.7546771E-02  0.9398298E-01
        -11   -1    0    0    0    0  0.00000000000E+00  0.00000000000E+00  0.50000000000E+03  0.50000000000E+03  0.00000000000E+00 0. -1.
         11   -1    0    0    0    0 -0.00000000000E+00 -0.00000000000E+00 -0.50000000000E+03  0.50000000000E+03  0.00000000000E+00 0. -1.
        -11    1    1    2    0    0 -0.74967563124E+01  0.54380623704E+01  0.19067574516E+03  0.19090053345E+03  0.00000000000E+00 0. -1.
         11    1    1    2    0    0  0.27979935347E+02  0.89276210393E+01 -0.49845948390E+03  0.49932397928E+03  0.00000000000E+00 0. -1.
        -15    1    1    2    0    0 -0.24072312785E+02 -0.15478176808E+02  0.21564498060E+03  0.21754302009E+03  0.17770000000E+01 0.  1.
         15    1    1    2    0    0  0.35891337504E+01  0.11124933988E+01  0.92138758130E+02  0.92232467176E+02  0.17770000000E+01 0. -1.
</event>
<event>
 6    1  0.1823098E-004  0.5035629E+03  0.7546771E-02  0.9391872E-01
        -11   -1    0    0    0    0  0.00000000000E+00  0.00000000000E+00  0.50000000000E+03  0.50000000000E+03  0.00000000000E+00 0.  1.
         11   -1    0    0    0    0 -0.00000000000E+00 -0.00000000000E+00 -0.50000000000E+03  0.50000000000E+03  0.00000000000E+00 0. -1.
        -11    1    1    2    0    0  0.49962595209E+01  0.50638456189E+01  0.49638610037E+03  0.49643707132E+03  0.00000000000E+00 0.  1.
         11    1    1    2    0    0  0.38568692537E+00  0.94078521770E+01 -0.48044093430E+03  0.48053319114E+03  0.00000000000E+00 0. -1.
        -15    1    1    2    0    0 -0.41110105916E+01 -0.53808980508E+01 -0.48308616000E+01  0.85058465020E+01  0.17770000000E+01 0. -1.
         15    1    1    2    0    0 -0.12709358547E+01 -0.90907997451E+01 -0.11114304470E+02  0.14523891035E+02  0.17770000000E+01 0.  1.
</event>
<event>
 6    1  0.1823098E-004  0.5000998E+03  0.7546771E-02  0.9399586E-01
        -11   -1    0    0    0    0  0.00000000000E+00  0.00000000000E+00  0.50000000000E+03  0.50000000000E+03  0.00000000000E+00 0.  1.
         11   -1    0    0    0    0 -0.00000000000E+00 -0.00000000000E+00 -0.50000000000E+03  0.50000000000E+03  0.00000000000E+00 0. -1.
        -11    1    1    2    0    0 -0.19167380681E+01  0.42090921992E+00  0.33801422966E+02  0.33858340832E+02  0.00000000000E+00 0.  1.
         11    1    1    2    0    0 -0.12147539566E+01 -0.16185559716E+02 -0.49963664376E+03  0.49990021380E+03  0.00000000000E+00 0. -1.
        -15    1    1    2    0    0  0.36014635793E+01  0.74594844673E+01  0.34645550988E+03  0.34655907506E+03  0.17770000000E+01 0. -1.
         15    1    1    2    0    0 -0.46997155457E+00  0.83051660293E+01  0.11937971091E+03  0.11968237031E+03  0.17770000000E+01 0.  1.
</event>
<event>
 6    1  0.1823098E-004  0.5011485E+03  0.7546771E-02  0.9397244E-01
        -11   -1    0    0    0    0  0.00000000000E+00  0.00000000000E+00  0.50000000000E+03  0.50000000000E+03  0.00000000000E+00 0.  1.
         11   -1    0    0    0    0 -0.00000000000E+00 -0.00000000000E+00 -0.50000000000E+03  0.50000000000E+03  0.00000000000E+00 0. -1.
        -11    1    1    2    0    0  0.81275904305E+01  0.16946564117E+01  0.49878242856E+03  0.49885152162E+03  0.00000000000E+00 0.  1.
         11    1    1    2    0    0  0.46464150565E+01 -0.53830253849E+01 -0.45068338178E+03  0.45073947769E+03  0.00000000000E+00 0. -1.
        -15    1    1    2    0    0 -0.94444890523E+01  0.31160400090E+01 -0.42125234268E+02  0.43319754961E+02  0.17770000000E+01 0.  1.
         15    1    1    2    0    0 -0.33295164348E+01  0.57232896412E+00 -0.59738125053E+01  0.70892457272E+01  0.17770000000E+01 0. -1.
</event>
<event>
 6    1  0.1823098E-004  0.5016791E+03  0.7546771E-02  0.9396060E-01
        -11   -1    0    0    0    0  0.00000000000E+00  0.00000000000E+00  0.50000000000E+03  0.50000000000E+03  0.00000000000E+00 0.  1.
         11   -1    0    0    0    0 -0.00000000000E+00 -0.00000000000E+00 -0.50000000000E+03  0.50000000000E+03  0.00000000000E+00 0. -1.
        -11    1    1    2    0    0  0.78090442781E+01 -0.54862877215E+00  0.49825943518E+03  0.49832092763E+03  0.00000000000E+00 0.  1.
         11    1    1    2    0    0  0.32275149344E+01  0.64193814804E+01 -0.45278508698E+03  0.45284209202E+03  0.00000000000E+00 0. -1.
        -15    1    1    2    0    0 -0.15122424261E+01 -0.41341641596E+00 -0.39007376946E+00  0.24015988079E+01  0.17770000000E+01 0. -1.
         15    1    1    2    0    0 -0.95243167864E+01 -0.54573362922E+01 -0.45084274429E+02  0.46435381548E+02  0.17770000000E+01 0.  1.
</event>
<event>
 6    1  0.1823098E-004  0.5051846E+03  0.7546771E-02  0.9388283E-01
        -11   -1    0    0    0    0  0.00000000000E+00  0.00000000000E+00  0.50000000000E+03  0.50000000000E+03  0.00000000000E+00 0. -1.
         11   -1    0    0    0    0 -0.00000000000E+00 -0.00000000000E+00 -0.50000000000E+03  0.50000000000E+03  0.00000000000E+00 0.  1.
        -11    1    1    2    0    0 -0.13445965556E+02 -0.39196862443E+01  0.49461711374E+03  0.49481536671E+03  0.00000000000E+00 0. -1.
         11    1    1    2    0    0  0.11456971255E+02  0.74644787634E+01 -0.48487702295E+03  0.48506979706E+03  0.00000000000E+00 0.  1.
        -15    1    1    2    0    0  0.90872837998E+01  0.42451393804E+00 -0.53855059772E+01  0.10720090605E+02  0.17770000000E+01 0.  1.
         15    1    1    2    0    0 -0.70982894986E+01 -0.39693064571E+01 -0.43545848069E+01  0.93947456271E+01  0.17770000000E+01 0. -1.
</event>
<event>
 6    1  0.1823098E-004  0.4930980E+03  0.7546771E-02  0.9415387E-01
        -11   -1    0    0    0    0  0.00000000000E+00  0.00000000000E+00  0.50000000000E+03  0.50000000000E+03  0.00000000000E+00 0.  1.
         11   -1    0    0    0    0 -0.00000000000E+00 -0.00000000000E+00 -0.50000000000E+03  0.50000000000E+03  0.00000000000E+00 0.  1.
        -11    1    1    2    0    0  0.24791480938E+01  0.76727172161E+01  0.49341816954E+03  0.49348404919E+03  0.00000000000E+00 0.  1.
         11    1    1    2    0    0 -0.65727800227E+01  0.14907757936E+01 -0.49271711655E+03  0.49276320966E+03  0.00000000000E+00 0.  1.
        -15    1    1    2    0    0  0.57489539397E+01 -0.65232089960E+01  0.21952151893E+01  0.91421783911E+01  0.17770000000E+01 0.  1.
         15    1    1    2    0    0 -0.16553220107E+01 -0.26402840137E+01 -0.28962681807E+01  0.46105627647E+01  0.17770000000E+01 0. -1.
</event>
<event>
 6    1  0.1823098E-004  0.5036665E+03  0.7546771E-02  0.9391643E-01
        -11   -1    0    0    0    0  0.00000000000E+00  0.00000000000E+00  0.50000000000E+03  0.50000000000E+03  0.00000000000E+00 0. -1.
         11   -1    0    0    0    0 -0.00000000000E+00 -0.00000000000E+00 -0.50000000000E+03  0.50000000000E+03  0.00000000000E+00 0.  1.
        -11    1    1    2    0    0 -0.22125408503E+01  0.10272492011E+02  0.49622224070E+03  0.49633348829E+03  0.00000000000E+00 0. -1.
         11    1    1    2    0    0  0.87837361216E+01  0.97606740711E+01 -0.46054404194E+03  0.46073120075E+03  0.00000000000E+00 0.  1.
        -15    1    1    2    0    0 -0.90885521612E+01 -0.16933377782E+02 -0.31129096532E+02  0.36626758570E+02  0.17770000000E+01 0.  1.
         15    1    1    2    0    0  0.25173568899E+01 -0.30997883004E+01 -0.45491022304E+01  0.63085523950E+01  0.17770000000E+01 0. -1.
</event>
<event>
 6    1  0.1823098E-004  0.5013247E+03  0.7546771E-02  0.9396851E-01
        -11   -1    0    0    0    0  0.00000000000E+00  0.00000000000E+00  0.50000000000E+03  0.50000000000E+03  0.00000000000E+00 0.  1.
         11   -1    0    0    0    0 -0.00000000000E+00 -0.00000000000E+00 -0.50000000000E+03  0.50000000000E+03  0.00000000000E+00 0.  1.
        -11    1    1    2    0    0 -0.60281658456E+01 -0.68660653229E+01  0.49859163432E+03  0.49867534474E+03  0.00000000000E+00 0.  1.
         11    1    1    2    0    0  0.10259205410E+02 -0.64444666614E+01 -0.44878309588E+03  0.44894659994E+03  0.00000000000E+00 0.  1.
        -15    1    1    2    0    0 -0.56518372094E+01  0.55800784293E+01 -0.24256903907E+02  0.25585848731E+02  0.17770000000E+01 0.  1.
         15    1    1    2    0    0  0.14207976452E+01  0.77304535550E+01 -0.25551634527E+02  0.26792206593E+02  0.17770000000E+01 0. -1.
</event>
<event>
 6    1  0.1823098E-004  0.5009681E+03  0.7546771E-02  0.9397646E-01
        -11   -1    0    0    0    0  0.00000000000E+00  0.00000000000E+00  0.50000000000E+03  0.50000000000E+03  0.00000000000E+00 0.  1.
         11   -1    0    0    0    0 -0.00000000000E+00 -0.00000000000E+00 -0.50000000000E+03  0.50000000000E+03  0.00000000000E+00 0.  1.
        -11    1    1    2    0    0 -0.78598859649E+02  0.13478694598E+03  0.47401213083E+03  0.49903186443E+03  0.00000000000E+00 0.  1.
         11    1    1    2    0    0  0.79206965370E+02 -0.12029556122E+03 -0.40828882806E+03  0.43294864884E+03  0.00000000000E+00 0.  1.
        -15    1    1    2    0    0  0.14428828972E+01 -0.11762310245E+02 -0.59558145501E+02  0.60751660700E+02  0.17770000000E+01 0. -1.
         15    1    1    2    0    0 -0.20509886174E+01 -0.27290745132E+01 -0.61651572693E+01  0.72678260273E+01  0.17770000000E+01 0.  1.
</event>
<event>
 6    1  0.1823098E-004  0.5015824E+03  0.7546771E-02  0.9396276E-01
        -11   -1    0    0    0    0  0.00000000000E+00  0.00000000000E+00  0.50000000000E+03  0.50000000000E+03  0.00000000000E+00 0. -1.
         11   -1    0    0    0    0 -0.00000000000E+00 -0.00000000000E+00 -0.50000000000E+03  0.50000000000E+03  0.00000000000E+00 0. -1.
        -11    1    1    2    0    0 -0.75990115771E+01 -0.12085570715E+01  0.49835821801E+03  0.49841761510E+03  0.00000000000E+00 0. -1.
         11    1    1    2    0    0  0.28992242241E+00 -0.22570250159E+02 -0.11939168248E+03  0.12150668332E+03  0.00000000000E+00 0. -1.
        -15    1    1    2    0    0  0.11295359099E+02  0.12768682492E+02 -0.21527374599E+03  0.21595501344E+03  0.17770000000E+01 0. -1.
         15    1    1    2    0    0 -0.39862699442E+01  0.11010124738E+02 -0.16369278954E+03  0.16412068813E+03  0.17770000000E+01 0. -1.
</event>
<event>
 6    1  0.1823098E-004  0.4494767E+03  0.7546771E-02  0.9520546E-01
        -11   -1    0    0    0    0  0.00000000000E+00  0.00000000000E+00  0.50000000000E+03  0.50000000000E+03  0.00000000000E+00 0.  1.
         11   -1    0    0    0    0 -0.00000000000E+00 -0.00000000000E+00 -0.50000000000E+03  0.50000000000E+03  0.00000000000E+00 0.  1.
        -11    1    1    2    0    0  0.21737827221E+02  0.53997340596E+01  0.46405584286E+03  0.46459607785E+03  0.00000000000E+00 0.  1.
         11    1    1    2    0    0  0.38159248632E+02  0.38100115075E+02 -0.43454962830E+03  0.43788254873E+03  0.00000000000E+00 0.  1.
        -15    1    1    2    0    0 -0.48616847909E+02 -0.37708975052E+02  0.39696675519E+01  0.61680472514E+02  0.17770000000E+01 0. -1.
         15    1    1    2    0    0 -0.11280227944E+02 -0.57908740826E+01 -0.33475882113E+02  0.35840900900E+02  0.17770000000E+01 0.  1.
</event>
<event>
 6    1  0.1823098E-004  0.5204434E+03  0.7546771E-02  0.9355193E-01
        -11   -1    0    0    0    0  0.00000000000E+00  0.00000000000E+00  0.50000000000E+03  0.50000000000E+03  0.00000000000E+00 0.  1.
         11   -1    0    0    0    0 -0.00000000000E+00 -0.00000000000E+00 -0.50000000000E+03  0.50000000000E+03  0.00000000000E+00 0.  1.
        -11    1    1    2    0    0  0.89774852853E+01  0.44294893000E+01  0.47945210688E+03  0.47955660606E+03  0.00000000000E+00 0.  1.
         11    1    1    2    0    0 -0.43050725358E+02 -0.66159425079E+02 -0.73258049376E+02  0.10769018655E+03  0.00000000000E+00 0.  1.
        -15    1    1    2    0    0  0.23276853927E+02  0.22460465762E+02 -0.19218612778E+03  0.19489728035E+03  0.17770000000E+01 0. -1.
         15    1    1    2    0    0  0.10796386146E+02  0.39269470017E+02 -0.21400792973E+03  0.21785592704E+03  0.17770000000E+01 0.  1.
</event>
<event>
 6    1  0.1823098E-004  0.5000718E+03  0.7546771E-02  0.9399649E-01
        -11   -1    0    0    0    0  0.00000000000E+00  0.00000000000E+00  0.50000000000E+03  0.50000000000E+03  0.00000000000E+00 0. -1.
         11   -1    0    0    0    0 -0.00000000000E+00 -0.00000000000E+00 -0.50000000000E+03  0.50000000000E+03  0.00000000000E+00 0.  1.
        -11    1    1    2    0    0 -0.14455215550E+02 -0.10168942087E+02  0.49961570040E+03  0.49992820357E+03  0.00000000000E+00 0. -1.
         11    1    1    2    0    0  0.69781324053E+01  0.88753880290E+01 -0.19052179472E+03  0.19085602193E+03  0.00000000000E+00 0.  1.
        -15    1    1    2    0    0  0.42829870612E+01  0.15146016035E+01 -0.14840032291E+03  0.14848047537E+03  0.17770000000E+01 0.  1.
         15    1    1    2    0    0  0.31940960835E+01 -0.22104754545E+00 -0.16069358277E+03  0.16073529912E+03  0.17770000000E+01 0.  1.
</event>
<event>
 6    1  0.1823098E-004  0.5000665E+03  0.7546771E-02  0.9399661E-01
        -11   -1    0    0    0    0  0.00000000000E+00  0.00000000000E+00  0.50000000000E+03  0.50000000000E+03  0.00000000000E+00 0.  1.
         11   -1    0    0    0    0 -0.00000000000E+00 -0.00000000000E+00 -0.50000000000E+03  0.50000000000E+03  0.00000000000E+00 0.  1.
        -11    1    1    2    0    0  0.64515364181E+01  0.78839594206E+01  0.36369792374E+03  0.36384056793E+03  0.00000000000E+00 0.  1.
         11    1    1    2    0    0 -0.83263092682E+01 -0.71722670642E+01 -0.49981270939E+03  0.49993350889E+03  0.00000000000E+00 0.  1.
        -15    1    1    2    0    0  0.15874825820E+01 -0.20497605388E+01  0.92656659333E+02  0.92709955598E+02  0.17770000000E+01 0. -1.
         15    1    1    2    0    0  0.28729026806E+00  0.13380681824E+01  0.43458126320E+02  0.43515967580E+02  0.17770000000E+01 0.  1.
</event>
<event>
 6    1  0.1823098E-004  0.5072079E+03  0.7546771E-02  0.9383824E-01
        -11   -1    0    0    0    0  0.00000000000E+00  0.00000000000E+00  0.50000000000E+03  0.50000000000E+03  0.00000000000E+00 0. -1.
         11   -1    0    0    0    0 -0.00000000000E+00 -0.00000000000E+00 -0.50000000000E+03  0.50000000000E+03  0.00000000000E+00 0. -1.
        -11    1    1    2    0    0  0.15722967128E+02  0.26959413017E+01  0.28998664616E+03  0.29042509318E+03  0.00000000000E+00 0. -1.
         11    1    1    2    0    0 -0.91717183560E+02  0.87574421475E+01 -0.48410261301E+03  0.49279212095E+03  0.00000000000E+00 0. -1.
        -15    1    1    2    0    0 -0.44981719042E+01  0.64152462744E+01  0.50803784585E+02  0.51435116335E+02  0.17770000000E+01 0.  1.
         15    1    1    2    0    0  0.80492388336E+02 -0.17868629724E+02  0.14331218226E+03  0.16534766954E+03  0.17770000000E+01 0. -1.
</event>
<event>
 6    1  0.1823098E-004  0.5000535E+03  0.7546771E-02  0.9399690E-01
        -11   -1    0    0    0    0  0.00000000000E+00  0.00000000000E+00  0.50000000000E+03  0.50000000000E+03  0.00000000000E+00 0.  1.
         11   -1    0    0    0    0 -0.00000000000E+00 -0.00000000000E+00 -0.50000000000E+03  0.50000000000E+03  0.00000000000E+00 0. -1.
        -11    1    1    2    0    0  0.75743540750E+01 -0.60151862800E+00  0.49988872453E+03  0.49994646671E+03  0.00000000000E+00 0.  1.
         11    1    1    2    0    0 -0.20281197607E+01 -0.18998171662E+01 -0.58397522632E+02  0.58463605984E+02  0.00000000000E+00 0. -1.
        -15    1    1    2    0    0 -0.32499224472E+01 -0.17764043761E+01 -0.17115040371E+03  0.17119969635E+03  0.17770000000E+01 0.  1.
         15    1    1    2    0    0 -0.22963118671E+01  0.42777401703E+01 -0.27034079818E+03  0.27039023096E+03  0.17770000000E+01 0. -1.
</event>
<event>
 6    1  0.1823098E-004  0.4940077E+03  0.7546771E-02  0.9413319E-01
        -11   -1    0    0    0    0  0.00000000000E+00  0.00000000000E+00  0.50000000000E+03  0.50000000000E+03  0.00000000000E+00 0.  1.
         11   -1    0    0    0    0 -0.00000000000E+00 -0.00000000000E+00 -0.50000000000E+03  0.50000000000E+03  0.00000000000E+00 0.  1.
        -11    1    1    2    0    0  0.28643915606E+01 -0.10918199995E+02  0.49518016817E+03  0.49530880346E+03  0.00000000000E+00 0.  1.
         11    1    1    2    0    0  0.23742568992E+01  0.72857439039E+01 -0.49267084939E+03  0.49273043847E+03  0.00000000000E+00 0.  1.
        -15    1    1    2    0    0 -0.10824523136E+01 -0.29792901556E+01 -0.26767445009E+00  0.36437962969E+01  0.17770000000E+01 0. -1.
         15    1    1    2    0    0 -0.41561961462E+01  0.66117462464E+01 -0.22416443353E+01  0.83169617745E+01  0.17770000000E+01 0.  1.
</event>
<event>
 6    1  0.1823098E-004  0.5054784E+03  0.7546771E-02  0.9387634E-01
        -11   -1    0    0    0    0  0.00000000000E+00  0.00000000000E+00  0.50000000000E+03  0.50000000000E+03  0.00000000000E+00 0. -1.
         11   -1    0    0    0    0 -0.00000000000E+00 -0.00000000000E+00 -0.50000000000E+03  0.50000000000E+03  0.00000000000E+00 0. -1.
        -11    1    1    2    0    0  0.58275352432E+01  0.37763559244E+01  0.49447288456E+03  0.49452164219E+03  0.00000000000E+00 0. -1.
         11    1    1    2    0    0  0.86267093207E+01 -0.51228315845E+01 -0.48058788034E+03  0.48069259849E+03  0.00000000000E+00 0. -1.
        -15    1    1    2    0    0  0.58325617653E+00  0.38709316870E+01 -0.33873049621E+00  0.43123969254E+01  0.17770000000E+01 0. -1.
         15    1    1    2    0    0 -0.15037500740E+02 -0.25244560269E+01 -0.13546273722E+02  0.20473362389E+02  0.17770000000E+01 0.  1.
</event>
<event>
 6    1  0.1823098E-004  0.5045370E+03  0.7546771E-02  0.9389715E-01
        -11   -1    0    0    0    0  0.00000000000E+00  0.00000000000E+00  0.50000000000E+03  0.50000000000E+03  0.00000000000E+00 0. -1.
         11   -1    0    0    0    0 -0.00000000000E+00 -0.00000000000E+00 -0.50000000000E+03  0.50000000000E+03  0.00000000000E+00 0. -1.
        -11    1    1    2    0    0 -0.12262868824E+01  0.69381260550E+01  0.49541294202E+03  0.49546304049E+03  0.00000000000E+00 0. -1.
         11    1    1    2    0    0 -0.22465936251E+02 -0.19210469042E+02 -0.49753319180E+02  0.57871868657E+02  0.00000000000E+00 0. -1.
        -15    1    1    2    0    0  0.23873113167E+02  0.10785466963E+02 -0.43290021344E+03  0.43369575091E+03  0.17770000000E+01 0. -1.
         15    1    1    2    0    0 -0.18089003351E+00  0.14868760245E+01 -0.12759409392E+02  0.12969339943E+02  0.17770000000E+01 0.  1.
</event>
<event>
 6    1  0.1823098E-004  0.5083999E+03  0.7546771E-02  0.9381208E-01
        -11   -1    0    0    0    0  0.00000000000E+00  0.00000000000E+00  0.50000000000E+03  0.50000000000E+03  0.00000000000E+00 0. -1.
         11   -1    0    0    0    0 -0.00000000000E+00 -0.00000000000E+00 -0.50000000000E+03  0.50000000000E+03  0.00000000000E+00 0. -1.
        -11    1    1    2    0    0 -0.32205405866E+01 -0.56481105945E+01  0.47668111631E+03  0.47672545525E+03  0.00000000000E+00 0. -1.
         11    1    1    2    0    0  0.27050122990E+02  0.53660478499E+01 -0.49082602763E+03  0.49160013530E+03  0.00000000000E+00 0. -1.
        -15    1    1    2    0    0 -0.49094161876E+01  0.65045032136E+01  0.43939339592E+01  0.94273704709E+01  0.17770000000E+01 0. -1.
         15    1    1    2    0    0 -0.18920166216E+02 -0.62224404690E+01  0.97509773593E+01  0.22247038982E+02  0.17770000000E+01 0.  1.
</event>
<event>
 6    1  0.1823098E-004  0.5005332E+03  0.7546771E-02  0.9398617E-01
        -11   -1    0    0    0    0  0.00000000000E+00  0.00000000000E+00  0.50000000000E+03  0.50000000000E+03  0.00000000000E+00 0. -1.
         11   -1    0    0    0    0 -0.00000000000E+00 -0.00000000000E+00 -0.50000000000E+03  0.50000000000E+03  0.00000000000E+00 0.  1.
        -11    1    1    2    0    0  0.14293211310E+00  0.76230624119E+00  0.28613241175E+02  0.28623750819E+02  0.00000000000E+00 0. -1.
         11    1    1    2    0    0 -0.28715731076E+01  0.19587028416E+02 -0.49907432572E+03  0.49946679590E+03  0.00000000000E+00 0.  1.
        -15    1    1    2    0    0  0.73724450938E+01 -0.20426065544E+02  0.16794087439E+03  0.16934837501E+03  0.17770000000E+01 0. -1.
         15    1    1    2    0    0 -0.46438040993E+01  0.76730886042E-01  0.30252021016E+03  0.30256107827E+03  0.17770000000E+01 0.  1.
</event>
<event>
 6    1  0.1823098E-004  0.5002021E+03  0.7546771E-02  0.9399358E-01
        -11   -1    0    0    0    0  0.00000000000E+00  0.00000000000E+00  0.50000000000E+03  0.50000000000E+03  0.00000000000E+00 0.  1.
         11   -1    0    0    0    0 -0.00000000000E+00 -0.00000000000E+00 -0.50000000000E+03  0.50000000000E+03  0.00000000000E+00 0. -1.
        -11    1    1    2    0    0 -0.53910538608E+01 -0.18471185805E+02  0.49942738244E+03  0.49979791766E+03  0.00000000000E+00 0.  1.
         11    1    1    2    0    0  0.81554156408E+01  0.14074561177E+02 -0.20531248242E+03  0.20595586788E+03  0.00000000000E+00 0. -1.
        -15    1    1    2    0    0  0.11372332309E+01  0.38826699651E+01 -0.16487247684E+03  0.16493168214E+03  0.17770000000E+01 0.  1.
         15    1    1    2    0    0 -0.39015950108E+01  0.51395466295E+00 -0.12924242317E+03  0.12931453232E+03  0.17770000000E+01 0. -1.
</event>
<event>
 6    1  0.1823098E-004  0.5022914E+03  0.7546771E-02  0.9394697E-01
        -11   -1    0    0    0    0  0.00000000000E+00  0.00000000000E+00  0.50000000000E+03  0.50000000000E+03  0.00000000000E+00 0. -1.
         11   -1    0    0    0    0 -0.00000000000E+00 -0.00000000000E+00 -0.50000000000E+03  0.50000000000E+03  0.00000000000E+00 0. -1.
        -11    1    1    2    0    0 -0.63883124399E+01 -0.86028974614E+01  0.13374744609E+03  0.13417600276E+03  0.00000000000E+00 0. -1.
         11    1    1    2    0    0  0.42743395003E+02 -0.53693771344E+02 -0.49295416148E+03  0.49770857359E+03  0.00000000000E+00 0. -1.
        -15    1    1    2    0    0 -0.17386457363E+02  0.48643373752E+02  0.30031862170E+03  0.30473414475E+03  0.17770000000E+01 0. -1.
         15    1    1    2    0    0 -0.18968625200E+02  0.13653295053E+02  0.58888093694E+02  0.63381278906E+02  0.17770000000E+01 0.  1.
</event>
<event>
 6    1  0.1823098E-004  0.5066992E+03  0.7546771E-02  0.9384943E-01
        -11   -1    0    0    0    0  0.00000000000E+00  0.00000000000E+00  0.50000000000E+03  0.50000000000E+03  0.00000000000E+00 0.  1.
         11   -1    0    0    0    0 -0.00000000000E+00 -0.00000000000E+00 -0.50000000000E+03  0.50000000000E+03  0.00000000000E+00 0.  1.
        -11    1    1    2    0    0  0.91872286053E+01 -0.78451556798E+01  0.49315284276E+03  0.49330079866E+03  0.00000000000E+00 0.  1.
         11    1    1    2    0    0 -0.17827145349E+02 -0.14258561445E+02 -0.47325846491E+03  0.47380870433E+03  0.00000000000E+00 0.  1.
        -15    1    1    2    0    0  0.96250721899E+00  0.67938809056E+01 -0.72799678245E+00  0.71253734093E+01  0.17770000000E+01 0.  1.
         15    1    1    2    0    0  0.76774095251E+01  0.15309836219E+02 -0.19166381068E+02  0.25765123604E+02  0.17770000000E+01 0. -1.
</event>
<event>
 6    1  0.1823098E-004  0.5003931E+03  0.7546771E-02  0.9398931E-01
        -11   -1    0    0    0    0  0.00000000000E+00  0.00000000000E+00  0.50000000000E+03  0.50000000000E+03  0.00000000000E+00 0.  1.
         11   -1    0    0    0    0 -0.00000000000E+00 -0.00000000000E+00 -0.50000000000E+03  0.50000000000E+03  0.00000000000E+00 0. -1.
        -11    1    1    2    0    0 -0.59354772629E+01  0.55725969864E+01  0.49954060460E+03  0.49960694488E+03  0.00000000000E+00 0.  1.
         11    1    1    2    0    0 -0.97146591202E+01  0.10756776225E+01 -0.23334530085E+03  0.23354991139E+03  0.00000000000E+00 0. -1.
        -15    1    1    2    0    0  0.15133139502E+02 -0.48454608674E+01 -0.22599002084E+03  0.22655493297E+03  0.17770000000E+01 0. -1.
         15    1    1    2    0    0  0.51699688145E+00 -0.18028137415E+01 -0.40205282914E+02  0.40288210761E+02  0.17770000000E+01 0.  1.
</event>
<event>
 6    1  0.1823098E-004  0.5012905E+03  0.7546771E-02  0.9396927E-01
        -11   -1    0    0    0    0  0.00000000000E+00  0.00000000000E+00  0.50000000000E+03  0.50000000000E+03  0.00000000000E+00 0.  1.
         11   -1    0    0    0    0 -0.00000000000E+00 -0.00000000000E+00 -0.50000000000E+03  0.50000000000E+03  0.00000000000E+00 0. -1.
        -11    1    1    2    0    0 -0.46089090004E+01 -0.86446608486E+01  0.39338933562E+03  0.39351129791E+03  0.00000000000E+00 0.  1.
         11    1    1    2    0    0  0.45329873718E+01 -0.11912430511E+02 -0.49854661844E+03  0.49870951939E+03  0.00000000000E+00 0. -1.
        -15    1    1    2    0    0 -0.39599294703E+01  0.49599671602E+01  0.19004462504E+02  0.20114910880E+02  0.17770000000E+01 0. -1.
         15    1    1    2    0    0  0.40358510990E+01  0.15597124200E+02  0.86152820311E+02  0.87664271821E+02  0.17770000000E+01 0.  1.
</event>
<event>
 6    1  0.1823098E-004  0.5001218E+03  0.7546771E-02  0.9399537E-01
        -11   -1    0    0    0    0  0.00000000000E+00  0.00000000000E+00  0.50000000000E+03  0.50000000000E+03  0.00000000000E+00 0.  1.
         11   -1    0    0    0    0 -0.00000000000E+00 -0.00000000000E+00 -0.50000000000E+03  0.50000000000E+03  0.00000000000E+00 0.  1.
        -11    1    1    2    0    0  0.62356413055E+00  0.13318133993E+01  0.55556578960E+02  0.55576038226E+02  0.00000000000E+00 0.  1.
         11    1    1    2    0    0 -0.82984826613E+01 -0.27558423497E-01 -0.49980927359E+03  0.49987816069E+03  0.00000000000E+00 0.  1.
        -15    1    1    2    0    0  0.32301897432E+01 -0.51020426861E+01  0.36626911618E+03  0.36632320178E+03  0.17770000000E+01 0.  1.
         15    1    1    2    0    0  0.44447287876E+01  0.37977877103E+01  0.77983578449E+02  0.78222599306E+02  0.17770000000E+01 0. -1.
</event>
<event>
 6    1  0.1823098E-004  0.5002382E+03  0.7546771E-02  0.9399277E-01
        -11   -1    0    0    0    0  0.00000000000E+00  0.00000000000E+00  0.50000000000E+03  0.50000000000E+03  0.00000000000E+00 0. -1.
         11   -1    0    0    0    0 -0.00000000000E+00 -0.00000000000E+00 -0.50000000000E+03  0.50000000000E+03  0.00000000000E+00 0.  1.
        -11    1    1    2    0    0  0.81725469246E+01 -0.47439925642E+01  0.49967245945E+03  0.49976180598E+03  0.00000000000E+00 0. -1.
         11    1    1    2    0    0  0.19514268720E+01 -0.43008769698E+01 -0.32970299901E+02  0.33306850423E+02  0.00000000000E+00 0.  1.
        -15    1    1    2    0    0 -0.86808349498E+01  0.69471814308E+01 -0.32448476688E+03  0.32468006082E+03  0.17770000000E+01 0.  1.
         15    1    1    2    0    0 -0.14431388469E+01  0.20976881032E+01 -0.14221739267E+03  0.14225128278E+03  0.17770000000E+01 0. -1.
</event>
<event>
 6    1  0.1823098E-004  0.4948181E+03  0.7546771E-02  0.9411480E-01
        -11   -1    0    0    0    0  0.00000000000E+00  0.00000000000E+00  0.50000000000E+03  0.50000000000E+03  0.00000000000E+00 0.  1.
         11   -1    0    0    0    0 -0.00000000000E+00 -0.00000000000E+00 -0.50000000000E+03  0.50000000000E+03  0.00000000000E+00 0. -1.
        -11    1    1    2    0    0 -0.80939310251E+01 -0.48871377755E+01  0.49408756509E+03  0.49417802239E+03  0.00000000000E+00 0.  1.
         11    1    1    2    0    0  0.12255224206E+02  0.11251156701E+01 -0.49532197413E+03  0.49547483737E+03  0.00000000000E+00 0. -1.
        -15    1    1    2    0    0  0.20032993226E+01  0.25286120752E+01  0.97031462698E+00  0.38087171959E+01  0.17770000000E+01 0. -1.
         15    1    1    2    0    0 -0.61645925038E+01  0.12334100302E+01  0.26409441164E+00  0.65384230437E+01  0.17770000000E+01 0.  1.
</event>
<event>
 6    1  0.1823098E-004  0.5001140E+03  0.7546771E-02  0.9399555E-01
        -11   -1    0    0    0    0  0.00000000000E+00  0.00000000000E+00  0.50000000000E+03  0.50000000000E+03  0.00000000000E+00 0.  1.
         11   -1    0    0    0    0 -0.00000000000E+00 -0.00000000000E+00 -0.50000000000E+03  0.50000000000E+03  0.00000000000E+00 0.  1.
        -11    1    1    2    0    0 -0.17395501166E+02 -0.18578395459E+01  0.41347357039E+03  0.41384350718E+03  0.00000000000E+00 0.  1.
         11    1    1    2    0    0  0.23524232937E+02  0.60565640564E+01 -0.49929547908E+03  0.49988603394E+03  0.00000000000E+00 0.  1.
        -15    1    1    2    0    0 -0.31192560278E+01 -0.24199969485E+01  0.59587197622E+02  0.59744271632E+02  0.17770000000E+01 0. -1.
         15    1    1    2    0    0 -0.30094757433E+01 -0.17787275620E+01  0.26234711067E+02  0.26526187245E+02  0.17770000000E+01 0.  1.
</event>
<event>
 6    1  0.1823098E-004  0.5021727E+03  0.7546771E-02  0.9394961E-01
        -11   -1    0    0    0    0  0.00000000000E+00  0.00000000000E+00  0.50000000000E+03  0.50000000000E+03  0.00000000000E+00 0.  1.
         11   -1    0    0    0    0 -0.00000000000E+00 -0.00000000000E+00 -0.50000000000E+03  0.50000000000E+03  0.00000000000E+00 0.  1.
        -11    1    1    2    0    0  0.11362881563E+02 -0.26983089576E+02  0.49696563416E+03  0.49782732322E+03  0.00000000000E+00 0.  1.
         11    1    1    2    0    0  0.16926642956E+02 -0.12518483488E+02 -0.16471741873E+03  0.16605737474E+03  0.00000000000E+00 0.  1.
        -15    1    1    2    0    0 -0.27199583538E+02  0.40247431397E+02 -0.31940976688E+03  0.32308734111E+03  0.17770000000E+01 0.  1.
         15    1    1    2    0    0 -0.10899409814E+01 -0.74585833361E+00 -0.12838448554E+02  0.13027960941E+02  0.17770000000E+01 0. -1.
</event>
<event>
 6    1  0.1823098E-004  0.5000748E+03  0.7546771E-02  0.9399642E-01
        -11   -1    0    0    0    0  0.00000000000E+00  0.00000000000E+00  0.50000000000E+03  0.50000000000E+03  0.00000000000E+00 0.  1.
         11   -1    0    0    0    0 -0.00000000000E+00 -0.00000000000E+00 -0.50000000000E+03  0.50000000000E+03  0.00000000000E+00 0. -1.
        -11    1    1    2    0    0  0.21130184707E+01  0.10737331124E+01  0.72587828972E+02  0.72626514888E+02  0.00000000000E+00 0.  1.
         11    1    1    2    0    0  0.61525520805E+01  0.82749658707E+01 -0.49981880630E+03  0.49992516249E+03  0.00000000000E+00 0. -1.
        -15    1    1    2    0    0 -0.98425321210E+00 -0.12757020798E+01  0.10997185551E+03  0.10999801318E+03  0.17770000000E+01 0. -1.
         15    1    1    2    0    0 -0.72813173391E+01 -0.80729969033E+01  0.31725912181E+03  0.31745030944E+03  0.17770000000E+01 0.  1.
</event>
<event>
 6    1  0.1823098E-004  0.5001779E+03  0.7546771E-02  0.9399412E-01
        -11   -1    0    0    0    0  0.00000000000E+00  0.00000000000E+00  0.50000000000E+03  0.50000000000E+03  0.00000000000E+00 0.  1.
         11   -1    0    0    0    0 -0.00000000000E+00 -0.00000000000E+00 -0.50000000000E+03  0.50000000000E+03  0.00000000000E+00 0. -1.
        -11    1    1    2    0    0 -0.49000520350E+01 -0.19897637462E+02  0.33148284455E+03  0.33211564660E+03  0.00000000000E+00 0.  1.
         11    1    1    2    0    0  0.54149663984E+01  0.18154797038E+02 -0.49946297048E+03  0.49982214576E+03  0.00000000000E+00 0. -1.
        -15    1    1    2    0    0  0.84568515412E+00  0.21960835433E+01  0.87396987260E+02  0.87446721365E+02  0.17770000000E+01 0. -1.
         15    1    1    2    0    0 -0.13605995175E+01 -0.45324311928E+00  0.80583138666E+02  0.80615486271E+02  0.17770000000E+01 0.  1.
</event>
<event>
 6    1  0.1823098E-004  0.5044973E+03  0.7546771E-02  0.9389802E-01
        -11   -1    0    0    0    0  0.00000000000E+00  0.00000000000E+00  0.50000000000E+03  0.50000000000E+03  0.00000000000E+00 0.  1.
         11   -1    0    0    0    0 -0.00000000000E+00 -0.00000000000E+00 -0.50000000000E+03  0.50000000000E+03  0.00000000000E+00 0.  1.
        -11    1    1    2    0    0  0.55477406552E+01 -0.27760508729E+01  0.35748592547E+03  0.35753974716E+03  0.00000000000E+00 0.  1.
         11    1    1    2    0    0 -0.12200912122E+02  0.40636180420E+02 -0.49368284769E+03  0.49550268972E+03  0.00000000000E+00 0.  1.
        -15    1    1    2    0    0  0.20651588063E+02 -0.32394917964E+02  0.11199508239E+03  0.11841442061E+03  0.17770000000E+01 0. -1.
         15    1    1    2    0    0 -0.13998416596E+02 -0.54652115833E+01  0.24201839820E+02  0.28543142513E+02  0.17770000000E+01 0.  1.
</event>
<event>
 6    1  0.1823098E-004  0.5021034E+03  0.7546771E-02  0.9395116E-01
        -11   -1    0    0    0    0  0.00000000000E+00  0.00000000000E+00  0.50000000000E+03  0.50000000000E+03  0.00000000000E+00 0.  1.
         11   -1    0    0    0    0 -0.00000000000E+00 -0.00000000000E+00 -0.50000000000E+03  0.50000000000E+03  0.00000000000E+00 0.  1.
        -11    1    1    2    0    0  0.23583715810E+02 -0.16565923084E+02  0.49706181239E+03  0.49789664268E+03  0.00000000000E+00 0.  1.
         11    1    1    2    0    0 -0.16633837790E+02  0.88005974781E+01 -0.44345584114E+03  0.44385495167E+03  0.00000000000E+00 0.  1.
        -15    1    1    2    0    0  0.23919302994E+01 -0.34730099877E+01 -0.28280607789E+01  0.53794781997E+01  0.17770000000E+01 0.  1.
         15    1    1    2    0    0 -0.93418083194E+01  0.11238335594E+02 -0.50777910465E+02  0.52868927451E+02  0.17770000000E+01 0. -1.
</event>
<event>
 6    1  0.1823098E-004  0.5024832E+03  0.7546771E-02  0.9394271E-01
        -11   -1    0    0    0    0  0.00000000000E+00  0.00000000000E+00  0.50000000000E+03  0.50000000000E+03  0.00000000000E+00 0. -1.
         11   -1    0    0    0    0 -0.00000000000E+00 -0.00000000000E+00 -0.50000000000E+03  0.50000000000E+03  0.00000000000E+00 0.  1.
        -11    1    1    2    0    0 -0.50213967786E+01  0.47855629130E+01  0.49746847797E+03  0.49751683651E+03  0.00000000000E+00 0. -1.
         11    1    1    2    0    0  0.54348111377E+01  0.17718128256E+02 -0.41161613328E+03  0.41203314238E+03  0.00000000000E+00 0.  1.
        -15    1    1    2    0    0 -0.61828370188E+01 -0.19629748381E+02 -0.52176068492E+02  0.56116435626E+02  0.17770000000E+01 0.  1.
         15    1    1    2    0    0  0.57694226597E+01 -0.28739427882E+01 -0.33676276194E+02  0.34333585485E+02  0.17770000000E+01 0. -1.
</event>
<event>
 6    1  0.1823098E-004  0.5010178E+03  0.7546771E-02  0.9397535E-01
        -11   -1    0    0    0    0  0.00000000000E+00  0.00000000000E+00  0.50000000000E+03  0.50000000000E+03  0.00000000000E+00 0. -1.
         11   -1    0    0    0    0 -0.00000000000E+00 -0.00000000000E+00 -0.50000000000E+03  0.50000000000E+03  0.00000000000E+00 0.  1.
        -11    1    1    2    0    0  0.31854373401E-01  0.67773909585E+01  0.49893621465E+03  0.49898224451E+03  0.00000000000E+00 0. -1.
         11    1    1    2    0    0  0.19136935206E+02 -0.51093722645E+01 -0.14197639737E+03  0.14335140524E+03  0.00000000000E+00 0.  1.
        -15    1    1    2    0    0 -0.97049891037E+01  0.39825723120E+00 -0.92972845573E+02  0.93495738754E+02  0.17770000000E+01 0. -1.
         15    1    1    2    0    0 -0.94638004761E+01 -0.20662759252E+01 -0.26398697171E+03  0.26417061149E+03  0.17770000000E+01 0.  1.
</event>
<event>
 6    1  0.1823098E-004  0.5048806E+03  0.7546771E-02  0.9388955E-01
        -11   -1    0    0    0    0  0.00000000000E+00  0.00000000000E+00  0.50000000000E+03  0.50000000000E+03  0.00000000000E+00 0. -1.
         11   -1    0    0    0    0 -0.00000000000E+00 -0.00000000000E+00 -0.50000000000E+03  0.50000000000E+03  0.00000000000E+00 0.  1.
        -11    1    1    2    0    0 -0.99642031382E+01 -0.33642465789E+01  0.45596279857E+03  0.45608406811E+03  0.00000000000E+00 0. -1.
         11    1    1    2    0    0 -0.37129759828E+01 -0.18769161145E+02 -0.49474959182E+03  0.49511940601E+03  0.00000000000E+00 0.  1.
        -15    1    1    2    0    0  0.49169543836E+01  0.67993453664E+01  0.24668487011E+02  0.26117035020E+02  0.17770000000E+01 0. -1.
         15    1    1    2    0    0  0.87602247375E+01  0.15334062357E+02  0.14118306236E+02  0.22679490863E+02  0.17770000000E+01 0.  1.
</event>
<event>
 6    1  0.1823098E-004  0.5013923E+03  0.7546771E-02  0.9396700E-01
        -11   -1    0    0    0    0  0.00000000000E+00  0.00000000000E+00  0.50000000000E+03  0.50000000000E+03  0.00000000000E+00 0. -1.
         11   -1    0    0    0    0 -0.00000000000E+00 -0.00000000000E+00 -0.50000000000E+03  0.50000000000E+03  0.00000000000E+00 0. -1.
        -11    1    1    2    0    0  0.12231703414E+02 -0.41005943548E+01  0.39583303389E+03  0.39604320492E+03  0.00000000000E+00 0. -1.
         11    1    1    2    0    0 -0.26435230841E+02  0.15462299938E+02 -0.49766625880E+03  0.49860767072E+03  0.00000000000E+00 0. -1.
        -15    1    1    2    0    0  0.22803256866E-01  0.38955447610E+01  0.67397659004E+01  0.79848583185E+01  0.17770000000E+01 0. -1.
         15    1    1    2    0    0  0.14180724170E+02 -0.15257250344E+02  0.95093459009E+02  0.97364266039E+02  0.17770000000E+01 0.  1.
</event>
<event>
 6    1  0.1823098E-004  0.5000540E+03  0.7546771E-02  0.9399689E-01
        -11   -1    0    0    0    0  0.00000000000E+00  0.00000000000E+00  0.50000000000E+03  0.50000000000E+03  0.00000000000E+00 0.  1.
         11   -1    0    0    0    0 -0.00000000000E+00 -0.00000000000E+00 -0.50000000000E+03  0.50000000000E+03  0.00000000000E+00 0.  1.
        -11    1    1    2    0    0 -0.40937512566E+01  0.11105057364E+02  0.49980590934E+03  0.49994602520E+03  0.00000000000E+00 0.  1.
         11    1    1    2    0    0  0.56532739259E+01 -0.77816527602E+01 -0.25124385977E+03  0.25142790358E+03  0.00000000000E+00 0.  1.
        -15    1    1    2    0    0 -0.20215069626E+01 -0.21532850408E+01 -0.14255042732E+03  0.14259209370E+03  0.17770000000E+01 0.  1.
         15    1    1    2    0    0  0.46198429332E+00 -0.11701195631E+01 -0.10601162225E+03  0.10603397752E+03  0.17770000000E+01 0.  1.
</event>
<event>
 6    1  0.1823098E-004  0.5075177E+03  0.7546771E-02  0.9383144E-01
        -11   -1    0    0    0    0  0.00000000000E+00  0.00000000000E+00  0.50000000000E+03  0.50000000000E+03  0.00000000000E+00 0. -1.
         11   -1    0    0    0    0 -0.00000000000E+00 -0.00000000000E+00 -0.50000000000E+03  0.50000000000E+03  0.00000000000E+00 0.  1.
        -11    1    1    2    0    0 -0.88991768676E+01 -0.66311143327E+00  0.47008580642E+03  0.47017050148E+03  0.00000000000E+00 0. -1.
         11    1    1    2    0    0 -0.61777081392E+01 -0.13532455714E+02 -0.49225757268E+03  0.49248229338E+03  0.00000000000E+00 0.  1.
        -15    1    1    2    0    0  0.33616649780E+01 -0.17933151916E+01  0.15952358357E+02  0.16497037217E+02  0.17770000000E+01 0. -1.
         15    1    1    2    0    0  0.11715220029E+02  0.15988882338E+02  0.62194078984E+01  0.20850167922E+02  0.17770000000E+01 0.  1.
</event>
<event>
 6    1  0.1823098E-004  0.5015846E+03  0.7546771E-02  0.9396271E-01
        -11   -1    0    0    0    0  0.00000000000E+00  0.00000000000E+00  0.50000000000E+03  0.50000000000E+03  0.00000000000E+00 0. -1.
         11   -1    0    0    0    0 -0.00000000000E+00 -0.00000000000E+00 -0.50000000000E+03  0.50000000000E+03  0.00000000000E+00 0. -1.
        -11    1    1    2    0    0 -0.18510069527E+02  0.13223865925E+02  0.49789597750E+03  0.49841538671E+03  0.00000000000E+00 0. -1.
         11    1    1    2    0    0 -0.93326275634E+01 -0.17020583329E+02 -0.69523328084E+02  0.72182347856E+02  0.00000000000E+00 0. -1.
        -15    1    1    2    0    0  0.26399290175E+02  0.30945969561E+01 -0.35840782997E+03  0.35939647934E+03  0.17770000000E+01 0. -1.
         15    1    1    2    0    0  0.14434069149E+01  0.70212044794E+00 -0.69964819447E+02  0.70005786088E+02  0.17770000000E+01 0. -1.
</event>
<event>
 6    1  0.1823098E-004  0.5066196E+03  0.7546771E-02  0.9385118E-01
        -11   -1    0    0    0    0  0.00000000000E+00  0.00000000000E+00  0.50000000000E+03  0.50000000000E+03  0.00000000000E+00 0. -1.
         11   -1    0    0    0    0 -0.00000000000E+00 -0.00000000000E+00 -0.50000000000E+03  0.50000000000E+03  0.00000000000E+00 0. -1.
        -11    1    1    2    0    0  0.21991411614E+02  0.74504754759E+01  0.46841862391E+03  0.46899375155E+03  0.00000000000E+00 0. -1.
         11    1    1    2    0    0 -0.12891301167E+02 -0.13983614071E+02 -0.49301366430E+03  0.49338038094E+03  0.00000000000E+00 0. -1.
        -15    1    1    2    0    0  0.58440305757E+01  0.10149007290E+02  0.55400332744E+01  0.13076878069E+02  0.17770000000E+01 0. -1.
         15    1    1    2    0    0 -0.14944141023E+02 -0.36158686949E+01  0.19055007121E+02  0.24548989443E+02  0.17770000000E+01 0.  1.
</event>
<event>
 6    1  0.1823098E-004  0.5002860E+03  0.7546771E-02  0.9399170E-01
        -11   -1    0    0    0    0  0.00000000000E+00  0.00000000000E+00  0.50000000000E+03  0.50000000000E+03  0.00000000000E+00 0. -1.
         11   -1    0    0    0    0 -0.00000000000E+00 -0.00000000000E+00 -0.50000000000E+03  0.50000000000E+03  0.00000000000E+00 0.  1.
        -11    1    1    2    0    0 -0.14694451275E+02  0.14139205555E+01  0.25094656998E+03  0.25138040309E+03  0.00000000000E+00 0. -1.
         11    1    1    2    0    0  0.18027521796E+02 -0.10680015079E+02 -0.49927446001E+03  0.49971395886E+03  0.00000000000E+00 0.  1.
        -15    1    1    2    0    0 -0.13706581510E+01  0.12072124906E+02  0.21593549944E+03  0.21628433265E+03  0.17770000000E+01 0.  1.
         15    1    1    2    0    0 -0.19624123701E+01 -0.28060303827E+01  0.32392390591E+02  0.32621305401E+02  0.17770000000E+01 0. -1.
</event>
<event>
 6    1  0.1823098E-004  0.5029841E+03  0.7546771E-02  0.9393157E-01
        -11   -1    0    0    0    0  0.00000000000E+00  0.00000000000E+00  0.50000000000E+03  0.50000000000E+03  0.00000000000E+00 0.  1.
         11   -1    0    0    0    0 -0.00000000000E+00 -0.00000000000E+00 -0.50000000000E+03  0.50000000000E+03  0.00000000000E+00 0. -1.
        -11    1    1    2    0    0 -0.82084672586E+02  0.59207073124E+02  0.43532740469E+03  0.44693771407E+03  0.00000000000E+00 0.  1.
         11    1    1    2    0    0  0.70474903465E+02 -0.53583025481E+02 -0.48906747462E+03  0.49701594277E+03  0.00000000000E+00 0. -1.
        -15    1    1    2    0    0  0.10895124078E+02 -0.70878440010E+01  0.49036901741E+02  0.50761370377E+02  0.17770000000E+01 0. -1.
         15    1    1    2    0    0  0.71464504359E+00  0.14637963584E+01  0.47031681866E+01  0.52849727822E+01  0.17770000000E+01 0.  1.
</event>
<event>
 6    1  0.1823098E-004  0.5016077E+03  0.7546771E-02  0.9396220E-01
        -11   -1    0    0    0    0  0.00000000000E+00  0.00000000000E+00  0.50000000000E+03  0.50000000000E+03  0.00000000000E+00 0.  1.
         11   -1    0    0    0    0 -0.00000000000E+00 -0.00000000000E+00 -0.50000000000E+03  0.50000000000E+03  0.00000000000E+00 0. -1.
        -11    1    1    2    0    0  0.62785180460E+01 -0.10343991013E+02  0.49824541078E+03  0.49839232268E+03  0.00000000000E+00 0.  1.
         11    1    1    2    0    0  0.10150992073E+02 -0.93367962716E+01 -0.32006074027E+03  0.32035776230E+03  0.00000000000E+00 0. -1.
        -15    1    1    2    0    0 -0.63473035685E+01  0.17002936825E+02 -0.15068587369E+03  0.15178530358E+03  0.17770000000E+01 0.  1.
         15    1    1    2    0    0 -0.10082206551E+02  0.26778504589E+01 -0.27498796827E+02  0.29464611451E+02  0.17770000000E+01 0. -1.
</event>
<event>
 6    1  0.1823098E-004  0.5112930E+03  0.7546771E-02  0.9374889E-01
        -11   -1    0    0    0    0  0.00000000000E+00  0.00000000000E+00  0.50000000000E+03  0.50000000000E+03  0.00000000000E+00 0.  1.
         11   -1    0    0    0    0 -0.00000000000E+00 -0.00000000000E+00 -0.50000000000E+03  0.50000000000E+03  0.00000000000E+00 0. -1.
        -11    1    1    2    0    0  0.22854067866E+01 -0.62001676830E+01  0.48866233711E+03  0.48870701332E+03  0.00000000000E+00 0.  1.
         11    1    1    2    0    0  0.48602374207E+02 -0.72877300210E+01 -0.28706338785E+03  0.29123991902E+03  0.00000000000E+00 0. -1.
        -15    1    1    2    0    0  0.61549658923E+01 -0.85155741543E-01  0.30977174324E+01  0.71164906328E+01  0.17770000000E+01 0. -1.
         15    1    1    2    0    0 -0.57042746886E+02  0.13573053446E+02 -0.20469666669E+03  0.21293657702E+03  0.17770000000E+01 0. -1.
</event>
<event>
 6    1  0.1823098E-004  0.5005077E+03  0.7546771E-02  0.9398674E-01
        -11   -1    0    0    0    0  0.00000000000E+00  0.00000000000E+00  0.50000000000E+03  0.50000000000E+03  0.00000000000E+00 0. -1.
         11   -1    0    0    0    0 -0.00000000000E+00 -0.00000000000E+00 -0.50000000000E+03  0.50000000000E+03  0.00000000000E+00 0.  1.
        -11    1    1    2    0    0  0.77870116971E+01  0.43668986750E+00  0.49943142083E+03  0.49949231461E+03  0.00000000000E+00 0. -1.
         11    1    1    2    0    0 -0.11088848252E+01 -0.72329487751E+01 -0.40784682253E+03  0.40791246098E+03  0.00000000000E+00 0.  1.
        -15    1    1    2    0    0 -0.14663654666E+01  0.29388558248E+01 -0.90904043105E+01  0.98275266862E+01  0.17770000000E+01 0. -1.
         15    1    1    2    0    0 -0.52117614053E+01  0.38574030828E+01 -0.82494193986E+02  0.82767697720E+02  0.17770000000E+01 0.  1.
</event>
<event>
 6    1  0.1823098E-004  0.5002614E+03  0.7546771E-02  0.9399225E-01
        -11   -1    0    0    0    0  0.00000000000E+00  0.00000000000E+00  0.50000000000E+03  0.50000000000E+03  0.00000000000E+00 0. -1.
         11   -1    0    0    0    0 -0.00000000000E+00 -0.00000000000E+00 -0.50000000000E+03  0.50000000000E+03  0.00000000000E+00 0.  1.
        -11    1    1    2    0    0 -0.37770961831E+01  0.41688629319E+01  0.28982679716E+03  0.28988138648E+03  0.00000000000E+00 0. -1.
         11    1    1    2    0    0  0.21978465335E+02  0.33080182588E+00 -0.49925494048E+03  0.49973858963E+03  0.00000000000E+00 0.  1.
        -15    1    1    2    0    0 -0.11090716869E+01  0.37087539349E+00  0.23118637082E+02  0.23216302420E+02  0.17770000000E+01 0. -1.
         15    1    1    2    0    0 -0.17092297465E+02 -0.48705401513E+01  0.18630950624E+03  0.18716372148E+03  0.17770000000E+01 0. -1.
</event>
<event>
 6    1  0.1823098E-004  0.5052044E+03  0.7546771E-02  0.9388239E-01
        -11   -1    0    0    0    0  0.00000000000E+00  0.00000000000E+00  0.50000000000E+03  0.50000000000E+03  0.00000000000E+00 0.  1.
         11   -1    0    0    0    0 -0.00000000000E+00 -0.00000000000E+00 -0.50000000000E+03  0.50000000000E+03  0.00000000000E+00 0. -1.
        -11    1    1    2    0    0 -0.21505882984E+01  0.95983160947E+01  0.45068456692E+03  0.45079189385E+03  0.00000000000E+00 0.  1.
         11    1    1    2    0    0  0.28854459629E+02  0.91791110848E-02 -0.49395356850E+03  0.49479562221E+03  0.00000000000E+00 0. -1.
        -15    1    1    2    0    0 -0.29720167869E+01  0.25186358477E+01  0.97627729158E+00  0.43917259323E+01  0.17770000000E+01 0.  1.
         15    1    1    2    0    0 -0.23731854544E+02 -0.12126131054E+02  0.42292724287E+02  0.50020758001E+02  0.17770000000E+01 0. -1.
</event>
<event>
 6    1  0.1823098E-004  0.5001485E+03  0.7546771E-02  0.9399478E-01
        -11   -1    0    0    0    0  0.00000000000E+00  0.00000000000E+00  0.50000000000E+03  0.50000000000E+03  0.00000000000E+00 0.  1.
         11   -1    0    0    0    0 -0.00000000000E+00 -0.00000000000E+00 -0.50000000000E+03  0.50000000000E+03  0.00000000000E+00 0.  1.
        -11    1    1    2    0    0 -0.41596504329E+01 -0.82121030599E+01  0.49976676015E+03  0.49985153383E+03  0.00000000000E+00 0.  1.
         11    1    1    2    0    0 -0.11859109474E+00  0.22742154684E+01 -0.82865472241E+01  0.85937759304E+01  0.00000000000E+00 0.  1.
        -15    1    1    2    0    0  0.47059453773E+00  0.18498460228E+01 -0.12103126706E+03  0.12105936033E+03  0.17770000000E+01 0.  1.
         15    1    1    2    0    0  0.38076469899E+01  0.40880415686E+01 -0.37044894586E+03  0.37049532990E+03  0.17770000000E+01 0.  1.
</event>
<event>
 6    1  0.1823098E-004  0.5000728E+03  0.7546771E-02  0.9399647E-01
        -11   -1    0    0    0    0  0.00000000000E+00  0.00000000000E+00  0.50000000000E+03  0.50000000000E+03  0.00000000000E+00 0. -1.
         11   -1    0    0    0    0 -0.00000000000E+00 -0.00000000000E+00 -0.50000000000E+03  0.50000000000E+03  0.00000000000E+00 0. -1.
        -11    1    1    2    0    0 -0.32470560129E+00  0.21787773384E+01  0.15279319842E+03  0.15280907691E+03  0.00000000000E+00 0. -1.
         11    1    1    2    0    0 -0.94599271184E+01 -0.46244780662E+01 -0.49981632539E+03  0.49992722985E+03  0.00000000000E+00 0. -1.
        -15    1    1    2    0    0  0.21387706465E+01  0.77629869335E+00  0.29903352374E+02  0.30042389914E+02  0.17770000000E+01 0. -1.
         15    1    1    2    0    0  0.76458620732E+01  0.16694020345E+01  0.31711977460E+03  0.31722130332E+03  0.17770000000E+01 0. -1.
</event>
<event>
 6    1  0.1823098E-004  0.5059375E+03  0.7546771E-02  0.9386621E-01
        -11   -1    0    0    0    0  0.00000000000E+00  0.00000000000E+00  0.50000000000E+03  0.50000000000E+03  0.00000000000E+00 0. -1.
         11   -1    0    0    0    0 -0.00000000000E+00 -0.00000000000E+00 -0.50000000000E+03  0.50000000000E+03  0.00000000000E+00 0.  1.
        -11    1    1    2    0    0 -0.45937149209E+01 -0.47363201454E+01  0.39626715574E+03  0.39632208324E+03  0.00000000000E+00 0. -1.
         11    1    1    2    0    0  0.86447252683E+01 -0.45543774493E+02 -0.49188286714E+03  0.49406246736E+03  0.00000000000E+00 0.  1.
        -15    1    1    2    0    0  0.29499870510E+01  0.92944177314E+00  0.87479831642E+01  0.94472865974E+01  0.17770000000E+01 0. -1.
         15    1    1    2    0    0 -0.70009973985E+01  0.49350652865E+02  0.86867728232E+02  0.10016816281E+03  0.17770000000E+01 0.  1.
</event>
<event>
 6    1  0.1823098E-004  0.5005149E+03  0.7546771E-02  0.9398658E-01
        -11   -1    0    0    0    0  0.00000000000E+00  0.00000000000E+00  0.50000000000E+03  0.50000000000E+03  0.00000000000E+00 0.  1.
         11   -1    0    0    0    0 -0.00000000000E+00 -0.00000000000E+00 -0.50000000000E+03  0.50000000000E+03  0.00000000000E+00 0. -1.
        -11    1    1    2    0    0  0.88857383429E+01 -0.39220450808E+01  0.49939062451E+03  0.49948506948E+03  0.00000000000E+00 0.  1.
         11    1    1    2    0    0 -0.10505196140E+01 -0.90937333137E+01 -0.34209541562E+03  0.34221787354E+03  0.00000000000E+00 0. -1.
        -15    1    1    2    0    0 -0.33654381490E+01  0.38526215720E+00 -0.22166732831E+02  0.22494363166E+02  0.17770000000E+01 0.  1.
         15    1    1    2    0    0 -0.44697805799E+01  0.12630516237E+02 -0.13512847605E+03  0.13580269382E+03  0.17770000000E+01 0. -1.
</event>
<event>
 6    1  0.1823098E-004  0.5012715E+03  0.7546771E-02  0.9396969E-01
        -11   -1    0    0    0    0  0.00000000000E+00  0.00000000000E+00  0.50000000000E+03  0.50000000000E+03  0.00000000000E+00 0. -1.
         11   -1    0    0    0    0 -0.00000000000E+00 -0.00000000000E+00 -0.50000000000E+03  0.50000000000E+03  0.00000000000E+00 0.  1.
        -11    1    1    2    0    0 -0.76206685790E+01  0.32252149316E+01  0.36593094855E+03  0.36602450151E+03  0.00000000000E+00 0. -1.
         11    1    1    2    0    0  0.13148918626E+02  0.22395967958E+02 -0.49805183531E+03  0.49872848735E+03  0.00000000000E+00 0.  1.
        -15    1    1    2    0    0 -0.89637394335E+01 -0.20858948170E+02  0.10483362509E+03  0.10727856740E+03  0.17770000000E+01 0. -1.
         15    1    1    2    0    0  0.34354893862E+01 -0.47622347193E+01  0.27287261671E+02  0.27968443742E+02  0.17770000000E+01 0.  1.
</event>
<event>
 6    1  0.1823098E-004  0.5036381E+03  0.7546771E-02  0.9391706E-01
        -11   -1    0    0    0    0  0.00000000000E+00  0.00000000000E+00  0.50000000000E+03  0.50000000000E+03  0.00000000000E+00 0.  1.
         11   -1    0    0    0    0 -0.00000000000E+00 -0.00000000000E+00 -0.50000000000E+03  0.50000000000E+03  0.00000000000E+00 0.  1.
        -11    1    1    2    0    0  0.73099936657E+01 -0.21563720934E+00  0.47480659677E+03  0.47486291373E+03  0.00000000000E+00 0.  1.
         11    1    1    2    0    0  0.31555100582E+01  0.15496129912E+02 -0.49610994173E+03  0.49636192598E+03  0.00000000000E+00 0.  1.
        -15    1    1    2    0    0 -0.69488418421E+01 -0.64627578039E+01  0.11464728506E+02  0.14988374498E+02  0.17770000000E+01 0. -1.
         15    1    1    2    0    0 -0.35166618819E+01 -0.88177348987E+01  0.98386164559E+01  0.13786785786E+02  0.17770000000E+01 0.  1.
</event>
<event>
 6    1  0.1823098E-004  0.5023495E+03  0.7546771E-02  0.9394568E-01
        -11   -1    0    0    0    0  0.00000000000E+00  0.00000000000E+00  0.50000000000E+03  0.50000000000E+03  0.00000000000E+00 0.  1.
         11   -1    0    0    0    0 -0.00000000000E+00 -0.00000000000E+00 -0.50000000000E+03  0.50000000000E+03  0.00000000000E+00 0.  1.
        -11    1    1    2    0    0 -0.18929386334E+02 -0.28043962636E+02  0.49649896429E+03  0.49765048684E+03  0.00000000000E+00 0.  1.
         11    1    1    2    0    0  0.18745400765E+02  0.12287007395E+02 -0.42962309745E+02  0.48457410776E+02  0.00000000000E+00 0.  1.
        -15    1    1    2    0    0 -0.32942827298E+01  0.93624733387E+01 -0.21260965120E+03  0.21284860751E+03  0.17770000000E+01 0. -1.
         15    1    1    2    0    0  0.34782682988E+01  0.63944819031E+01 -0.24092700335E+03  0.24104349487E+03  0.17770000000E+01 0.  1.
</event>
<event>
 6    1  0.1823098E-004  0.5025612E+03  0.7546771E-02  0.9394097E-01
        -11   -1    0    0    0    0  0.00000000000E+00  0.00000000000E+00  0.50000000000E+03  0.50000000000E+03  0.00000000000E+00 0.  1.
         11   -1    0    0    0    0 -0.00000000000E+00 -0.00000000000E+00 -0.50000000000E+03  0.50000000000E+03  0.00000000000E+00 0.  1.
        -11    1    1    2    0    0 -0.27418568412E+01  0.80161419379E+01  0.49736660249E+03  0.49743875360E+03  0.00000000000E+00 0.  1.
         11    1    1    2    0    0 -0.88694105792E+01  0.22646614601E+01 -0.46124926167E+03  0.46134008771E+03  0.00000000000E+00 0.  1.
        -15    1    1    2    0    0  0.45034721779E+01 -0.11238523480E+02 -0.25520229141E+02  0.28302393823E+02  0.17770000000E+01 0. -1.
         15    1    1    2    0    0  0.71077952425E+01  0.95772008170E+00 -0.10597111678E+02  0.12918764874E+02  0.17770000000E+01 0.  1.
</event>
<event>
 6    1  0.1823098E-004  0.5002432E+03  0.7546771E-02  0.9399266E-01
        -11   -1    0    0    0    0  0.00000000000E+00  0.00000000000E+00  0.50000000000E+03  0.50000000000E+03  0.00000000000E+00 0.  1.
         11   -1    0    0    0    0 -0.00000000000E+00 -0.00000000000E+00 -0.50000000000E+03  0.50000000000E+03  0.00000000000E+00 0. -1.
        -11    1    1    2    0    0 -0.13634303447E+02 -0.74096357156E+01  0.49951583484E+03  0.49975680704E+03  0.00000000000E+00 0.  1.
         11    1    1    2    0    0  0.14299929289E+02  0.11723457094E+02 -0.27876046518E+03  0.27937309171E+03  0.00000000000E+00 0. -1.
        -15    1    1    2    0    0 -0.20022365630E+01 -0.30132410156E+01 -0.91074009502E+02  0.91163158723E+02  0.17770000000E+01 0. -1.
         15    1    1    2    0    0  0.13366107211E+01 -0.13005803631E+01 -0.12968136015E+03  0.12970694252E+03  0.17770000000E+01 0.  1.
</event>
<event>
 6    1  0.1823098E-004  0.5003129E+03  0.7546771E-02  0.9399110E-01
        -11   -1    0    0    0    0  0.00000000000E+00  0.00000000000E+00  0.50000000000E+03  0.50000000000E+03  0.00000000000E+00 0. -1.
         11   -1    0    0    0    0 -0.00000000000E+00 -0.00000000000E+00 -0.50000000000E+03  0.50000000000E+03  0.00000000000E+00 0.  1.
        -11    1    1    2    0    0 -0.26281574369E+01  0.37685081324E+01  0.27664801376E+03  0.27668616225E+03  0.00000000000E+00 0. -1.
         11    1    1    2    0    0 -0.92969134951E+01  0.86516532614E+01 -0.49952565971E+03  0.49968707049E+03  0.00000000000E+00 0.  1.
        -15    1    1    2    0    0  0.87952376731E+01 -0.11424308357E+02  0.17212588775E+03  0.17273780706E+03  0.17770000000E+01 0. -1.
         15    1    1    2    0    0  0.31298332589E+01 -0.99585303702E+00  0.50751758205E+02  0.50888960192E+02  0.17770000000E+01 0.  1.
</event>
<event>
 6    1  0.1823098E-004  0.5036669E+03  0.7546771E-02  0.9391642E-01
        -11   -1    0    0    0    0  0.00000000000E+00  0.00000000000E+00  0.50000000000E+03  0.50000000000E+03  0.00000000000E+00 0.  1.
         11   -1    0    0    0    0 -0.00000000000E+00 -0.00000000000E+00 -0.50000000000E+03  0.50000000000E+03  0.00000000000E+00 0. -1.
        -11    1    1    2    0    0 -0.10568417533E+02  0.32853891770E+01  0.49620965169E+03  0.49633305719E+03  0.00000000000E+00 0.  1.
         11    1    1    2    0    0 -0.10363421136E+02  0.28653043451E+00 -0.43606608457E+03  0.43618930834E+03  0.00000000000E+00 0. -1.
        -15    1    1    2    0    0  0.99327422819E+01 -0.16888976703E+01 -0.53774713343E+01  0.11557970044E+02  0.17770000000E+01 0. -1.
         15    1    1    2    0    0  0.10999096387E+02 -0.18830219412E+01 -0.54766095789E+02  0.55919664430E+02  0.17770000000E+01 0.  1.
</event>
<event>
 6    1  0.1823098E-004  0.5002203E+03  0.7546771E-02  0.9399317E-01
        -11   -1    0    0    0    0  0.00000000000E+00  0.00000000000E+00  0.50000000000E+03  0.50000000000E+03  0.00000000000E+00 0.  1.
         11   -1    0    0    0    0 -0.00000000000E+00 -0.00000000000E+00 -0.50000000000E+03  0.50000000000E+03  0.00000000000E+00 0.  1.
        -11    1    1    2    0    0  0.14252479322E+02 -0.37586660010E+01  0.49956231766E+03  0.49977972144E+03  0.00000000000E+00 0.  1.
         11    1    1    2    0    0  0.19927247578E+01  0.11578646892E+01 -0.77966154927E+01  0.81301178183E+01  0.00000000000E+00 0.  1.
        -15    1    1    2    0    0 -0.64774843194E+01 -0.18672125852E+01 -0.18478627395E+03  0.18491773591E+03  0.17770000000E+01 0.  1.
         15    1    1    2    0    0 -0.97677197600E+01  0.44680138970E+01 -0.30697942822E+03  0.30717242483E+03  0.17770000000E+01 0.  1.
</event>
<event>
 6    1  0.1823098E-004  0.5001165E+03  0.7546771E-02  0.9399549E-01
        -11   -1    0    0    0    0  0.00000000000E+00  0.00000000000E+00  0.50000000000E+03  0.50000000000E+03  0.00000000000E+00 0. -1.
         11   -1    0    0    0    0 -0.00000000000E+00 -0.00000000000E+00 -0.50000000000E+03  0.50000000000E+03  0.00000000000E+00 0.  1.
        -11    1    1    2    0    0 -0.75634325642E+00 -0.36092636405E+01  0.15391791613E+03  0.15396208542E+03  0.00000000000E+00 0. -1.
         11    1    1    2    0    0 -0.81630018655E+01  0.18621988308E+01 -0.49981334940E+03  0.49988347304E+03  0.00000000000E+00 0.  1.
        -15    1    1    2    0    0  0.10142685304E+02 -0.25463484931E+00  0.24573469804E+03  0.24595047968E+03  0.17770000000E+01 0. -1.
         15    1    1    2    0    0 -0.12233401818E+01  0.20016996590E+01  0.10016073523E+03  0.10020396186E+03  0.17770000000E+01 0. -1.
</event>
<event>
 6    1  0.1823098E-004  0.5004492E+03  0.7546771E-02  0.9398805E-01
        -11   -1    0    0    0    0  0.00000000000E+00  0.00000000000E+00  0.50000000000E+03  0.50000000000E+03  0.00000000000E+00 0. -1.
         11   -1    0    0    0    0 -0.00000000000E+00 -0.00000000000E+00 -0.50000000000E+03  0.50000000000E+03  0.00000000000E+00 0. -1.
        -11    1    1    2    0    0 -0.20757806519E+01 -0.50172340905E+01  0.17062742837E+03  0.17071379797E+03  0.00000000000E+00 0. -1.
         11    1    1    2    0    0  0.56826990898E+01 -0.20437823887E+02 -0.49910021839E+03  0.49955082395E+03  0.00000000000E+00 0. -1.
        -15    1    1    2    0    0 -0.18578443994E+01  0.21441970101E+01  0.14195517635E+02  0.14584910577E+02  0.17770000000E+01 0.  1.
         15    1    1    2    0    0 -0.17490740385E+01  0.23310860968E+02  0.31427727238E+03  0.31515046750E+03  0.17770000000E+01 0. -1.
</event>
<event>
 6    1  0.1823098E-004  0.5002745E+03  0.7546771E-02  0.9399196E-01
        -11   -1    0    0    0    0  0.00000000000E+00  0.00000000000E+00  0.50000000000E+03  0.50000000000E+03  0.00000000000E+00 0. -1.
         11   -1    0    0    0    0 -0.00000000000E+00 -0.00000000000E+00 -0.50000000000E+03  0.50000000000E+03  0.00000000000E+00 0.  1.
        -11    1    1    2    0    0 -0.72023541737E+01 -0.41125251934E+01  0.49965662191E+03  0.49972545121E+03  0.00000000000E+00 0. -1.
         11    1    1    2    0    0  0.60636771138E+01  0.42669023772E-01 -0.38807766137E+03  0.38812503301E+03  0.00000000000E+00 0.  1.
        -15    1    1    2    0    0 -0.19608950106E+01 -0.10685622106E+01 -0.10620488153E+02  0.10997246567E+02  0.17770000000E+01 0.  1.
         15    1    1    2    0    0  0.30995720706E+01  0.51384183802E+01 -0.10095847239E+03  0.10115226921E+03  0.17770000000E+01 0.  1.
</event>
<event>
 6    1  0.1823098E-004  0.5012002E+03  0.7546771E-02  0.9397128E-01
        -11   -1    0    0    0    0  0.00000000000E+00  0.00000000000E+00  0.50000000000E+03  0.50000000000E+03  0.00000000000E+00 0.  1.
         11   -1    0    0    0    0 -0.00000000000E+00 -0.00000000000E+00 -0.50000000000E+03  0.50000000000E+03  0.00000000000E+00 0.  1.
        -11    1    1    2    0    0 -0.85602405479E+01 -0.12430522238E+02  0.44553092268E+03  0.44578649449E+03  0.00000000000E+00 0.  1.
         11    1    1    2    0    0 -0.20513317915E+01  0.77080933856E+01 -0.49873601303E+03  0.49879979286E+03  0.00000000000E+00 0.  1.
        -15    1    1    2    0    0  0.40697101909E+01 -0.25085655308E+01  0.25076510823E+02  0.25589930952E+02  0.17770000000E+01 0.  1.
         15    1    1    2    0    0  0.65418621485E+01  0.72309943833E+01  0.28128579523E+02  0.29823781704E+02  0.17770000000E+01 0. -1.
</event>
<event>
 6    1  0.1823098E-004  0.5002221E+03  0.7546771E-02  0.9399313E-01
        -11   -1    0    0    0    0  0.00000000000E+00  0.00000000000E+00  0.50000000000E+03  0.50000000000E+03  0.00000000000E+00 0. -1.
         11   -1    0    0    0    0 -0.00000000000E+00 -0.00000000000E+00 -0.50000000000E+03  0.50000000000E+03  0.00000000000E+00 0. -1.
        -11    1    1    2    0    0  0.93225105785E+01  0.35117661157E+01  0.49967861017E+03  0.49977790584E+03  0.00000000000E+00 0. -1.
         11    1    1    2    0    0 -0.13482495205E+02 -0.50415138843E+01 -0.21448437769E+03  0.21496684119E+03  0.00000000000E+00 0. -1.
        -15    1    1    2    0    0  0.17485638583E+01 -0.81848436510E-01 -0.11544153427E+03  0.11546847941E+03  0.17770000000E+01 0.  1.
         15    1    1    2    0    0  0.24114207687E+01  0.16115962051E+01 -0.16975269822E+03  0.16978677355E+03  0.17770000000E+01 0.  1.
</event>
<event>
 6    1  0.1823098E-004  0.5069628E+03  0.7546771E-02  0.9384363E-01
        -11   -1    0    0    0    0  0.00000000000E+00  0.00000000000E+00  0.50000000000E+03  0.50000000000E+03  0.00000000000E+00 0. -1.
         11   -1    0    0    0    0 -0.00000000000E+00 -0.00000000000E+00 -0.50000000000E+03  0.50000000000E+03  0.00000000000E+00 0. -1.
        -11    1    1    2    0    0 -0.10127909533E+02 -0.76604731613E+00  0.49293252789E+03  0.49303715725E+03  0.00000000000E+00 0. -1.
         11    1    1    2    0    0  0.10781859983E+02 -0.14889828542E+02 -0.47817350372E+03  0.47852675490E+03  0.00000000000E+00 0. -1.
        -15    1    1    2    0    0 -0.41979091758E+01  0.18737257032E+02 -0.11815542028E+02  0.22615746836E+02  0.17770000000E+01 0. -1.
         15    1    1    2    0    0  0.35439587256E+01 -0.30813811747E+01 -0.29434821436E+01  0.58203410142E+01  0.17770000000E+01 0.  1.
</event>
<event>
 6    1  0.1823098E-004  0.5001601E+03  0.7546771E-02  0.9399452E-01
        -11   -1    0    0    0    0  0.00000000000E+00  0.00000000000E+00  0.50000000000E+03  0.50000000000E+03  0.00000000000E+00 0.  1.
         11   -1    0    0    0    0 -0.00000000000E+00 -0.00000000000E+00 -0.50000000000E+03  0.50000000000E+03  0.00000000000E+00 0. -1.
        -11    1    1    2    0    0 -0.35006814923E+01  0.14710183070E+00  0.21555721618E+03  0.21558569029E+03  0.00000000000E+00 0.  1.
         11    1    1    2    0    0 -0.72191834000E+01 -0.47557673634E+01 -0.49976518438E+03  0.49983994784E+03  0.00000000000E+00 0. -1.
        -15    1    1    2    0    0  0.70208286871E+01  0.52868762392E+01  0.24097574266E+03  0.24114250844E+03  0.17770000000E+01 0. -1.
         15    1    1    2    0    0  0.36990362052E+01 -0.67821070656E+00  0.43232225543E+02  0.43431853437E+02  0.17770000000E+01 0.  1.
</event>
<event>
 6    1  0.1823098E-004  0.5059003E+03  0.7546771E-02  0.9386703E-01
        -11   -1    0    0    0    0  0.00000000000E+00  0.00000000000E+00  0.50000000000E+03  0.50000000000E+03  0.00000000000E+00 0.  1.
         11   -1    0    0    0    0 -0.00000000000E+00 -0.00000000000E+00 -0.50000000000E+03  0.50000000000E+03  0.00000000000E+00 0. -1.
        -11    1    1    2    0    0  0.44191209773E+01 -0.69372741361E+01  0.49403124393E+03  0.49409971098E+03  0.00000000000E+00 0.  1.
         11    1    1    2    0    0 -0.48774451836E+01 -0.15403382181E+02 -0.46968943059E+03  0.46996724871E+03  0.00000000000E+00 0. -1.
        -15    1    1    2    0    0 -0.14704520304E+01  0.12791291682E+02 -0.22315720022E+02  0.25824958106E+02  0.17770000000E+01 0. -1.
         15    1    1    2    0    0  0.19287762366E+01  0.95493646351E+01 -0.20260933205E+01  0.10108082204E+02  0.17770000000E+01 0.  1.
</event>
<event>
 6    1  0.1823098E-004  0.4819724E+03  0.7546771E-02  0.9441077E-01
        -11   -1    0    0    0    0  0.00000000000E+00  0.00000000000E+00  0.50000000000E+03  0.50000000000E+03  0.00000000000E+00 0.  1.
         11   -1    0    0    0    0 -0.00000000000E+00 -0.00000000000E+00 -0.50000000000E+03  0.50000000000E+03  0.00000000000E+00 0.  1.
        -11    1    1    2    0    0 -0.42826162667E+01  0.54018132497E+01  0.48663570581E+03  0.48668452878E+03  0.00000000000E+00 0.  1.
         11    1    1    2    0    0 -0.57068364461E+01  0.15393458255E+02 -0.47729927997E+03  0.47758154193E+03  0.00000000000E+00 0.  1.
        -15    1    1    2    0    0  0.36710921017E+01 -0.20562362436E+01 -0.14513145176E+02  0.15214931371E+02  0.17770000000E+01 0. -1.
         15    1    1    2    0    0  0.63183606111E+01 -0.18739035261E+02  0.51767193372E+01  0.20518997915E+02  0.17770000000E+01 0.  1.
</event>
<event>
 6    1  0.1823098E-004  0.5164966E+03  0.7546771E-02  0.9363635E-01
        -11   -1    0    0    0    0  0.00000000000E+00  0.00000000000E+00  0.50000000000E+03  0.50000000000E+03  0.00000000000E+00 0. -1.
         11   -1    0    0    0    0 -0.00000000000E+00 -0.00000000000E+00 -0.50000000000E+03  0.50000000000E+03  0.00000000000E+00 0.  1.
        -11    1    1    2    0    0 -0.10067316065E+02 -0.12649850443E+02  0.46149181880E+03  0.46177491095E+03  0.00000000000E+00 0. -1.
         11    1    1    2    0    0 -0.20115415449E+02  0.19842979558E+02 -0.48267706584E+03  0.48350338537E+03  0.00000000000E+00 0.  1.
        -15    1    1    2    0    0  0.21171594004E+02 -0.18289851105E+02 -0.12479777109E+01  0.28061899855E+02  0.17770000000E+01 0.  1.
         15    1    1    2    0    0  0.90111375101E+01  0.11096721990E+02  0.22433224750E+02  0.26659803822E+02  0.17770000000E+01 0. -1.
</event>
<event>
 6    1  0.1823098E-004  0.5006842E+03  0.7546771E-02  0.9398280E-01
        -11   -1    0    0    0    0  0.00000000000E+00  0.00000000000E+00  0.50000000000E+03  0.50000000000E+03  0.00000000000E+00 0. -1.
         11   -1    0    0    0    0 -0.00000000000E+00 -0.00000000000E+00 -0.50000000000E+03  0.50000000000E+03  0.00000000000E+00 0.  1.
        -11    1    1    2    0    0  0.18741502371E+01 -0.23689150584E+01  0.21351337916E+03  0.21353474489E+03  0.00000000000E+00 0. -1.
         11    1    1    2    0    0 -0.18295346060E+01 -0.11228790105E+02 -0.49918613910E+03  0.49931576622E+03  0.00000000000E+00 0.  1.
        -15    1    1    2    0    0  0.18604002102E+01  0.21059466784E+01  0.23863874315E+03  0.23866190220E+03  0.17770000000E+01 0.  1.
         15    1    1    2    0    0 -0.19050158414E+01  0.11491758485E+02  0.47034016790E+02  0.48487586688E+02  0.17770000000E+01 0. -1.
</event>
<event>
 6    1  0.1823098E-004  0.5023554E+03  0.7546771E-02  0.9394555E-01
        -11   -1    0    0    0    0  0.00000000000E+00  0.00000000000E+00  0.50000000000E+03  0.50000000000E+03  0.00000000000E+00 0.  1.
         11   -1    0    0    0    0 -0.00000000000E+00 -0.00000000000E+00 -0.50000000000E+03  0.50000000000E+03  0.00000000000E+00 0. -1.
        -11    1    1    2    0    0  0.87172897138E+01  0.10067348433E+02  0.49746642814E+03  0.49764464206E+03  0.00000000000E+00 0.  1.
         11    1    1    2    0    0 -0.94215776958E+01 -0.73847475535E+01 -0.13833638040E+02  0.18293992570E+02  0.00000000000E+00 0. -1.
        -15    1    1    2    0    0  0.73435208501E+01  0.57362125435E+01 -0.21761052760E+03  0.21781719603E+03  0.17770000000E+01 0. -1.
         15    1    1    2    0    0 -0.66392328681E+01 -0.84188134235E+01 -0.26602226250E+03  0.26624416934E+03  0.17770000000E+01 0. -1.
</event>
<event>
 6    1  0.1823098E-004  0.5056732E+03  0.7546771E-02  0.9387204E-01
        -11   -1    0    0    0    0  0.00000000000E+00  0.00000000000E+00  0.50000000000E+03  0.50000000000E+03  0.00000000000E+00 0.  1.
         11   -1    0    0    0    0 -0.00000000000E+00 -0.00000000000E+00 -0.50000000000E+03  0.50000000000E+03  0.00000000000E+00 0.  1.
        -11    1    1    2    0    0 -0.14238588299E+02 -0.11304665285E+02  0.49399236321E+03  0.49432680260E+03  0.00000000000E+00 0.  1.
         11    1    1    2    0    0 -0.74199225858E+01  0.10853984398E+02 -0.45758941086E+03  0.45777825763E+03  0.00000000000E+00 0.  1.
        -15    1    1    2    0    0  0.40439363682E+01  0.80125239748E+01 -0.22078057839E+02  0.23898793458E+02  0.17770000000E+01 0.  1.
         15    1    1    2    0    0  0.17614574516E+02 -0.75618430879E+01 -0.14324894512E+02  0.23996146317E+02  0.17770000000E+01 0. -1.
</event>
<event>
 6    1  0.4394497E-004  0.5001360E+03  0.7546771E-02  0.9399505E-01
        -11   -1    0    0    0    0  0.00000000000E+00  0.00000000000E+00  0.50000000000E+03  0.50000000000E+03  0.00000000000E+00 0.  1.
         11   -1    0    0    0    0 -0.00000000000E+00 -0.00000000000E+00 -0.50000000000E+03  0.50000000000E+03  0.00000000000E+00 0.  1.
        -11    1    1    2    0    0  0.88014705682E+00  0.11822969397E+00  0.43983631180E+02  0.43992595387E+02  0.00000000000E+00 0.  1.
         11    1    1    2    0    0  0.42026464319E+01 -0.14000240475E+02 -0.49965018023E+03  0.49986395307E+03  0.00000000000E+00 0.  1.
        -15    1    1    2    0    0  0.11037564472E+01  0.66451816554E+01  0.34023015035E+03  0.34030146878E+03  0.17770000000E+01 0.  1.
         15    1    1    2    0    0 -0.61865499360E+01  0.72368291260E+01  0.11543639870E+03  0.11584198276E+03  0.17770000000E+01 0. -1.
</event>
<event>
 6    1  0.1823098E-004  0.5007334E+03  0.7546771E-02  0.9398170E-01
        -11   -1    0    0    0    0  0.00000000000E+00  0.00000000000E+00  0.50000000000E+03  0.50000000000E+03  0.00000000000E+00 0. -1.
         11   -1    0    0    0    0 -0.00000000000E+00 -0.00000000000E+00 -0.50000000000E+03  0.50000000000E+03  0.00000000000E+00 0.  1.
        -11    1    1    2    0    0  0.86670566623E+01  0.40897710469E-01  0.44536672217E+03  0.44545104867E+03  0.00000000000E+00 0. -1.
         11    1    1    2    0    0 -0.67424986658E+01  0.77463762307E+00 -0.49922050656E+03  0.49926663770E+03  0.00000000000E+00 0.  1.
        -15    1    1    2    0    0  0.16805051640E+01 -0.38539407799E+00  0.17739761664E+01  0.30458737073E+01  0.17770000000E+01 0.  1.
         15    1    1    2    0    0 -0.36050631605E+01 -0.43014125555E+00  0.52079808227E+02  0.52236439923E+02  0.17770000000E+01 0. -1.
</event>
<event>
 6    1  0.1823098E-004  0.5006107E+03  0.7546771E-02  0.9398444E-01
        -11   -1    0    0    0    0  0.00000000000E+00  0.00000000000E+00  0.50000000000E+03  0.50000000000E+03  0.00000000000E+00 0. -1.
         11   -1    0    0    0    0 -0.00000000000E+00 -0.00000000000E+00 -0.50000000000E+03  0.50000000000E+03  0.00000000000E+00 0.  1.
        -11    1    1    2    0    0 -0.66554147510E+01  0.20727845527E+01  0.41551667035E+03  0.41557513679E+03  0.00000000000E+00 0. -1.
         11    1    1    2    0    0  0.46923036180E+01 -0.86984633030E+01 -0.49929146942E+03  0.49938927943E+03  0.00000000000E+00 0.  1.
        -15    1    1    2    0    0  0.50252462110E+01  0.24445212312E+00  0.58080225948E+02  0.58324808028E+02  0.17770000000E+01 0.  1.
         15    1    1    2    0    0 -0.30621350780E+01  0.63812266272E+01  0.25694573118E+02  0.26710775751E+02  0.17770000000E+01 0. -1.
</event>
<event>
 6    1  0.1823098E-004  0.5073190E+03  0.7546771E-02  0.9383580E-01
        -11   -1    0    0    0    0  0.00000000000E+00  0.00000000000E+00  0.50000000000E+03  0.50000000000E+03  0.00000000000E+00 0.  1.
         11   -1    0    0    0    0 -0.00000000000E+00 -0.00000000000E+00 -0.50000000000E+03  0.50000000000E+03  0.00000000000E+00 0. -1.
        -11    1    1    2    0    0  0.75992372922E+01  0.93038749216E+01  0.49253451657E+03  0.49268099264E+03  0.00000000000E+00 0.  1.
         11    1    1    2    0    0  0.28936914672E+02  0.16251455166E+01 -0.34401433156E+03  0.34523303209E+03  0.00000000000E+00 0. -1.
        -15    1    1    2    0    0 -0.22294294628E+02  0.11316250525E+02 -0.23721468108E+02  0.34510272052E+02  0.17770000000E+01 0.  1.
         15    1    1    2    0    0 -0.14241857337E+02 -0.22245270963E+02 -0.12479871691E+03  0.12757570321E+03  0.17770000000E+01 0. -1.
</event>
<event>
 6    1  0.1823098E-004  0.5007923E+03  0.7546771E-02  0.9398039E-01
        -11   -1    0    0    0    0  0.00000000000E+00  0.00000000000E+00  0.50000000000E+03  0.50000000000E+03  0.00000000000E+00 0. -1.
         11   -1    0    0    0    0 -0.00000000000E+00 -0.00000000000E+00 -0.50000000000E+03  0.50000000000E+03  0.00000000000E+00 0.  1.
        -11    1    1    2    0    0 -0.32105579397E+02  0.65596244314E+01  0.49813104107E+03  0.49920770324E+03  0.00000000000E+00 0. -1.
         11    1    1    2    0    0  0.33990489546E+02 -0.94479197683E+01 -0.24406089142E+03  0.24659751679E+03  0.00000000000E+00 0.  1.
        -15    1    1    2    0    0 -0.66700871346E+00  0.33383414190E+01 -0.22787079683E+03  0.22790315312E+03  0.17770000000E+01 0.  1.
         15    1    1    2    0    0 -0.12179014360E+01 -0.45004608203E+00 -0.26199352819E+02  0.26291626852E+02  0.17770000000E+01 0. -1.
</event>
<event>
 6    1  0.1823098E-004  0.5036909E+03  0.7546771E-02  0.9391589E-01
        -11   -1    0    0    0    0  0.00000000000E+00  0.00000000000E+00  0.50000000000E+03  0.50000000000E+03  0.00000000000E+00 0. -1.
         11   -1    0    0    0    0 -0.00000000000E+00 -0.00000000000E+00 -0.50000000000E+03  0.50000000000E+03  0.00000000000E+00 0. -1.
        -11    1    1    2    0    0  0.54571061705E+01  0.19379664131E+01  0.22422536517E+03  0.22430013399E+03  0.00000000000E+00 0. -1.
         11    1    1    2    0    0  0.41040129455E+01 -0.39285213700E+02 -0.49473484801E+03  0.49630911816E+03  0.00000000000E+00 0. -1.
        -15    1    1    2    0    0 -0.22528369309E+02  0.46841245798E+02  0.22927029230E+03  0.23509499015E+03  0.17770000000E+01 0. -1.
         15    1    1    2    0    0  0.12967250193E+02 -0.94939985118E+01  0.41239190531E+02  0.44295757698E+02  0.17770000000E+01 0.  1.
</event>
<event>
 6    1  0.1823098E-004  0.4856010E+03  0.7546771E-02  0.9432618E-01
        -11   -1    0    0    0    0  0.00000000000E+00  0.00000000000E+00  0.50000000000E+03  0.50000000000E+03  0.00000000000E+00 0. -1.
         11   -1    0    0    0    0 -0.00000000000E+00 -0.00000000000E+00 -0.50000000000E+03  0.50000000000E+03  0.00000000000E+00 0. -1.
        -11    1    1    2    0    0 -0.62236034542E+01 -0.32658184232E+01  0.48864205081E+03  0.48869259522E+03  0.00000000000E+00 0. -1.
         11    1    1    2    0    0 -0.18310559100E+02  0.11144709668E+02 -0.48239531819E+03  0.48287133291E+03  0.00000000000E+00 0. -1.
        -15    1    1    2    0    0  0.16861499670E+02 -0.81466658396E+01 -0.74508686142E+00  0.18825281376E+02  0.17770000000E+01 0. -1.
         15    1    1    2    0    0  0.76726628837E+01  0.26777459486E+00 -0.55016457515E+01  0.96107904948E+01  0.17770000000E+01 0.  1.
</event>
<event>
 6    1  0.1823098E-004  0.5000266E+03  0.7546771E-02  0.9399750E-01
        -11   -1    0    0    0    0  0.00000000000E+00  0.00000000000E+00  0.50000000000E+03  0.50000000000E+03  0.00000000000E+00 0.  1.
         11   -1    0    0    0    0 -0.00000000000E+00 -0.00000000000E+00 -0.50000000000E+03  0.50000000000E+03  0.00000000000E+00 0.  1.
        -11    1    1    2    0    0 -0.14116763263E+01 -0.17640268071E+01  0.10667151795E+03  0.10669544209E+03  0.00000000000E+00 0.  1.
         11    1    1    2    0    0  0.10618868572E+02  0.71845272244E+01 -0.49980901435E+03  0.49997342792E+03  0.00000000000E+00 0.  1.
        -15    1    1    2    0    0 -0.11914821640E+01 -0.24372503832E+00  0.12395243492E+03  0.12397113730E+03  0.17770000000E+01 0.  1.
         15    1    1    2    0    0 -0.80157100817E+01 -0.51767753789E+01  0.26918506148E+03  0.26935999269E+03  0.17770000000E+01 0. -1.
</event>
<event>
 6    1  0.1823098E-004  0.5002141E+03  0.7546771E-02  0.9399331E-01
        -11   -1    0    0    0    0  0.00000000000E+00  0.00000000000E+00  0.50000000000E+03  0.50000000000E+03  0.00000000000E+00 0.  1.
         11   -1    0    0    0    0 -0.00000000000E+00 -0.00000000000E+00 -0.50000000000E+03  0.50000000000E+03  0.00000000000E+00 0. -1.
        -11    1    1    2    0    0  0.11638887395E+02  0.36712735269E+02  0.49829975593E+03  0.49978588955E+03  0.00000000000E+00 0.  1.
         11    1    1    2    0    0 -0.87729518113E+01 -0.32973163392E+02 -0.32255163263E+03  0.32435127547E+03  0.00000000000E+00 0. -1.
        -15    1    1    2    0    0 -0.26485154232E+01 -0.22382538246E+01 -0.12541426436E+03  0.12547477773E+03  0.17770000000E+01 0.  1.
         15    1    1    2    0    0 -0.21742016048E+00 -0.15013180515E+01 -0.50333858946E+02  0.50388057244E+02  0.17770000000E+01 0. -1.
</event>
<event>
 6    1  0.1823098E-004  0.5035734E+03  0.7546771E-02  0.9391849E-01
        -11   -1    0    0    0    0  0.00000000000E+00  0.00000000000E+00  0.50000000000E+03  0.50000000000E+03  0.00000000000E+00 0. -1.
         11   -1    0    0    0    0 -0.00000000000E+00 -0.00000000000E+00 -0.50000000000E+03  0.50000000000E+03  0.00000000000E+00 0. -1.
        -11    1    1    2    0    0 -0.17165405383E+01  0.82608278648E+01  0.44413377684E+03  0.44421391189E+03  0.00000000000E+00 0. -1.
         11    1    1    2    0    0 -0.42522776559E+01 -0.15902256810E+02 -0.49615358749E+03  0.49642657666E+03  0.00000000000E+00 0. -1.
        -15    1    1    2    0    0 -0.55858193136E+01 -0.20180734164E+01  0.38645518806E+02  0.39139594409E+02  0.17770000000E+01 0.  1.
         15    1    1    2    0    0  0.11554637508E+02  0.96595023619E+01  0.13374291839E+02  0.20219917037E+02  0.17770000000E+01 0. -1.
</event>
<event>
 6    1  0.1823098E-004  0.5033260E+03  0.7546771E-02  0.9392398E-01
        -11   -1    0    0    0    0  0.00000000000E+00  0.00000000000E+00  0.50000000000E+03  0.50000000000E+03  0.00000000000E+00 0. -1.
         11   -1    0    0    0    0 -0.00000000000E+00 -0.00000000000E+00 -0.50000000000E+03  0.50000000000E+03  0.00000000000E+00 0. -1.
        -11    1    1    2    0    0  0.20924914944E+01 -0.92909779047E+01  0.45822622860E+03  0.45832518736E+03  0.00000000000E+00 0. -1.
         11    1    1    2    0    0 -0.40549498119E+01 -0.10682721366E+02 -0.49654251582E+03  0.49667397070E+03  0.00000000000E+00 0. -1.
        -15    1    1    2    0    0  0.65481954806E+01  0.12859042755E+02  0.19806841895E+02  0.24570359368E+02  0.17770000000E+01 0.  1.
         15    1    1    2    0    0 -0.45857371631E+01  0.71146565163E+01  0.18509445323E+02  0.20430482565E+02  0.17770000000E+01 0. -1.
</event>
<event>
 6    1  0.1823098E-004  0.5004420E+03  0.7546771E-02  0.9398821E-01
        -11   -1    0    0    0    0  0.00000000000E+00  0.00000000000E+00  0.50000000000E+03  0.50000000000E+03  0.00000000000E+00 0. -1.
         11   -1    0    0    0    0 -0.00000000000E+00 -0.00000000000E+00 -0.50000000000E+03  0.50000000000E+03  0.00000000000E+00 0. -1.
        -11    1    1    2    0    0 -0.12217273406E+02 -0.27594041460E+00  0.49940855738E+03  0.49955804977E+03  0.00000000000E+00 0. -1.
         11    1    1    2    0    0  0.16313551252E+02  0.10642748006E+02 -0.32214275455E+03  0.32273108674E+03  0.00000000000E+00 0. -1.
        -15    1    1    2    0    0 -0.10345414944E+01 -0.57042514321E+00 -0.33990223733E+02  0.34057138743E+02  0.17770000000E+01 0. -1.
         15    1    1    2    0    0 -0.30617363511E+01 -0.97963824480E+01 -0.14327557909E+03  0.14365372474E+03  0.17770000000E+01 0.  1.
</event>
<event>
 6    1  0.1823098E-004  0.5095391E+03  0.7546771E-02  0.9378715E-01
        -11   -1    0    0    0    0  0.00000000000E+00  0.00000000000E+00  0.50000000000E+03  0.50000000000E+03  0.00000000000E+00 0.  1.
         11   -1    0    0    0    0 -0.00000000000E+00 -0.00000000000E+00 -0.50000000000E+03  0.50000000000E+03  0.00000000000E+00 0. -1.
        -11    1    1    2    0    0 -0.18156477818E+02  0.73154547879E+01  0.49007013054E+03  0.49046091222E+03  0.00000000000E+00 0.  1.
         11    1    1    2    0    0  0.17760359504E+02  0.96321979807E+01 -0.47823004761E+03  0.47865664943E+03  0.00000000000E+00 0. -1.
        -15    1    1    2    0    0  0.10713218988E+02 -0.40514421560E+01 -0.26150078628E+01  0.11882055367E+02  0.17770000000E+01 0. -1.
         15    1    1    2    0    0 -0.10317100674E+02 -0.12896210613E+02 -0.92250750672E+01  0.19000382983E+02  0.17770000000E+01 0.  1.
</event>
<event>
 6    1  0.2364423E-004  0.5000567E+03  0.7546771E-02  0.9399683E-01
        -11   -1    0    0    0    0  0.00000000000E+00  0.00000000000E+00  0.50000000000E+03  0.50000000000E+03  0.00000000000E+00 0. -1.
         11   -1    0    0    0    0 -0.00000000000E+00 -0.00000000000E+00 -0.50000000000E+03  0.50000000000E+03  0.00000000000E+00 0.  1.
        -11    1    1    2    0    0  0.30160828746E+01 -0.13877999511E+01  0.92437982553E+02  0.92497585715E+02  0.00000000000E+00 0. -1.
         11    1    1    2    0    0  0.35748480958E+01  0.67537133146E+01 -0.49988491952E+03  0.49994332173E+03  0.00000000000E+00 0.  1.
        -15    1    1    2    0    0 -0.25168351193E+01 -0.78864285890E+00  0.13424586685E+03  0.13428353179E+03  0.17770000000E+01 0. -1.
         15    1    1    2    0    0 -0.40740958511E+01 -0.45772705046E+01  0.27320107012E+03  0.27327556076E+03  0.17770000000E+01 0. -1.
</event>
<event>
 6    1  0.1823098E-004  0.4819824E+03  0.7546771E-02  0.9441053E-01
        -11   -1    0    0    0    0  0.00000000000E+00  0.00000000000E+00  0.50000000000E+03  0.50000000000E+03  0.00000000000E+00 0.  1.
         11   -1    0    0    0    0 -0.00000000000E+00 -0.00000000000E+00 -0.50000000000E+03  0.50000000000E+03  0.00000000000E+00 0.  1.
        -11    1    1    2    0    0 -0.16058811302E+02  0.90850586915E+01  0.48140231580E+03  0.48175576112E+03  0.00000000000E+00 0.  1.
         11    1    1    2    0    0  0.96729682807E+01  0.23844178635E+02 -0.48210644574E+03  0.48279264306E+03  0.00000000000E+00 0.  1.
        -15    1    1    2    0    0  0.32883452142E+01 -0.22415742927E+02 -0.45364274795E+01  0.23173598091E+02  0.17770000000E+01 0.  1.
         15    1    1    2    0    0  0.30974978072E+01 -0.10513494399E+02  0.52405574187E+01  0.12277997728E+02  0.17770000000E+01 0. -1.
</event>
<event>
 6    1  0.1823098E-004  0.5065470E+03  0.7546771E-02  0.9385278E-01
        -11   -1    0    0    0    0  0.00000000000E+00  0.00000000000E+00  0.50000000000E+03  0.50000000000E+03  0.00000000000E+00 0. -1.
         11   -1    0    0    0    0 -0.00000000000E+00 -0.00000000000E+00 -0.50000000000E+03  0.50000000000E+03  0.00000000000E+00 0. -1.
        -11    1    1    2    0    0  0.26147301191E+01 -0.77630852651E+01  0.49338504974E+03  0.49345304702E+03  0.00000000000E+00 0. -1.
         11    1    1    2    0    0  0.24940642773E+02  0.48509201539E+01 -0.45907699125E+03  0.45977956781E+03  0.00000000000E+00 0. -1.
        -15    1    1    2    0    0 -0.72487455765E+00  0.18789430884E+01  0.53955340190E+00  0.27394738778E+01  0.17770000000E+01 0. -1.
         15    1    1    2    0    0 -0.26830498334E+02  0.10332220228E+01 -0.34847611895E+02  0.44027911288E+02  0.17770000000E+01 0. -1.
</event>
<event>
 6    1  0.1823098E-004  0.5001441E+03  0.7546771E-02  0.9399487E-01
        -11   -1    0    0    0    0  0.00000000000E+00  0.00000000000E+00  0.50000000000E+03  0.50000000000E+03  0.00000000000E+00 0.  1.
         11   -1    0    0    0    0 -0.00000000000E+00 -0.00000000000E+00 -0.50000000000E+03  0.50000000000E+03  0.00000000000E+00 0. -1.
        -11    1    1    2    0    0 -0.95019322380E+01 -0.10117546950E+02  0.49966317901E+03  0.49985592318E+03  0.00000000000E+00 0.  1.
         11    1    1    2    0    0  0.42567536598E+01  0.12051851480E+02 -0.41064949955E+03  0.41084836443E+03  0.00000000000E+00 0. -1.
        -15    1    1    2    0    0  0.22453939468E+01 -0.19333298535E+01 -0.35183440067E+02  0.35352676592E+02  0.17770000000E+01 0. -1.
         15    1    1    2    0    0  0.29997846314E+01 -0.97467682818E-03 -0.53830239398E+02  0.53943035801E+02  0.17770000000E+01 0.  1.
</event>
<event>
 6    1  0.1823098E-004  0.5047200E+03  0.7546771E-02  0.9389310E-01
        -11   -1    0    0    0    0  0.00000000000E+00  0.00000000000E+00  0.50000000000E+03  0.50000000000E+03  0.00000000000E+00 0.  1.
         11   -1    0    0    0    0 -0.00000000000E+00 -0.00000000000E+00 -0.50000000000E+03  0.50000000000E+03  0.00000000000E+00 0. -1.
        -11    1    1    2    0    0 -0.22701773078E+02 -0.69553421190E+02  0.48984616049E+03  0.49528003175E+03  0.00000000000E+00 0.  1.
         11    1    1    2    0    0  0.13789687150E+02  0.81972185564E+02 -0.24071985581E+03  0.25466771225E+03  0.00000000000E+00 0. -1.
        -15    1    1    2    0    0  0.65946372915E+01 -0.47451177798E+01 -0.20499775295E+03  0.20516637596E+03  0.17770000000E+01 0. -1.
         15    1    1    2    0    0  0.23174486359E+01 -0.76736465946E+01 -0.44128551732E+02  0.44885880042E+02  0.17770000000E+01 0.  1.
</event>
<event>
 6    1  0.1823098E-004  0.5007740E+03  0.7546771E-02  0.9398079E-01
        -11   -1    0    0    0    0  0.00000000000E+00  0.00000000000E+00  0.50000000000E+03  0.50000000000E+03  0.00000000000E+00 0. -1.
         11   -1    0    0    0    0 -0.00000000000E+00 -0.00000000000E+00 -0.50000000000E+03  0.50000000000E+03  0.00000000000E+00 0. -1.
        -11    1    1    2    0    0  0.70100893017E+01 -0.90408204212E+01  0.49909486461E+03  0.49922596253E+03  0.00000000000E+00 0. -1.
         11    1    1    2    0    0 -0.64639562045E+00 -0.30062270828E+01 -0.26374444712E+01  0.40510914468E+01  0.00000000000E+00 0. -1.
        -15    1    1    2    0    0 -0.31167378900E+01  0.46755994763E+01 -0.96088469164E+02  0.96269034070E+02  0.17770000000E+01 0.  1.
         15    1    1    2    0    0 -0.32469557913E+01  0.73714480278E+01 -0.40036895097E+03  0.40045391195E+03  0.17770000000E+01 0. -1.
</event>
<event>
 6    1  0.1823098E-004  0.5215087E+03  0.7546771E-02  0.9352928E-01
        -11   -1    0    0    0    0  0.00000000000E+00  0.00000000000E+00  0.50000000000E+03  0.50000000000E+03  0.00000000000E+00 0. -1.
         11   -1    0    0    0    0 -0.00000000000E+00 -0.00000000000E+00 -0.50000000000E+03  0.50000000000E+03  0.00000000000E+00 0.  1.
        -11    1    1    2    0    0 -0.24406163971E+02  0.46286078518E+00  0.40902551844E+03  0.40975327920E+03  0.00000000000E+00 0. -1.
         11    1    1    2    0    0 -0.39415058078E+02  0.75591416572E+01 -0.47680520164E+03  0.47849126193E+03  0.00000000000E+00 0.  1.
        -15    1    1    2    0    0  0.64721198900E+02 -0.22414565859E+02  0.37349820531E+02  0.78034692108E+02  0.17770000000E+01 0.  1.
         15    1    1    2    0    0 -0.89997685100E+00  0.14392563417E+02  0.30429862667E+02  0.33720766761E+02  0.17770000000E+01 0. -1.
</event>
<event>
 6    1  0.1823098E-004  0.5001530E+03  0.7546771E-02  0.9399467E-01
        -11   -1    0    0    0    0  0.00000000000E+00  0.00000000000E+00  0.50000000000E+03  0.50000000000E+03  0.00000000000E+00 0. -1.
         11   -1    0    0    0    0 -0.00000000000E+00 -0.00000000000E+00 -0.50000000000E+03  0.50000000000E+03  0.00000000000E+00 0. -1.
        -11    1    1    2    0    0  0.79799800537E+01 -0.17794774888E+01  0.49978015799E+03  0.49984702954E+03  0.00000000000E+00 0. -1.
         11    1    1    2    0    0 -0.37745156609E+01  0.55979116419E+01 -0.97704893350E+02  0.97937887294E+02  0.00000000000E+00 0. -1.
        -15    1    1    2    0    0  0.24280277604E+01 -0.95776199438E+00 -0.12683858206E+03  0.12687787930E+03  0.17770000000E+01 0.  1.
         15    1    1    2    0    0 -0.66334921532E+01 -0.28606721587E+01 -0.27523668258E+03  0.27533720386E+03  0.17770000000E+01 0. -1.
</event>
<event>
 6    1  0.1823098E-004  0.5031672E+03  0.7546771E-02  0.9392751E-01
        -11   -1    0    0    0    0  0.00000000000E+00  0.00000000000E+00  0.50000000000E+03  0.50000000000E+03  0.00000000000E+00 0.  1.
         11   -1    0    0    0    0 -0.00000000000E+00 -0.00000000000E+00 -0.50000000000E+03  0.50000000000E+03  0.00000000000E+00 0. -1.
        -11    1    1    2    0    0  0.55263048133E+02 -0.13413647175E+02  0.49356751301E+03  0.49683278909E+03  0.00000000000E+00 0.  1.
         11    1    1    2    0    0 -0.67925215439E+02  0.28875134029E+02 -0.42273581717E+03  0.42913072527E+03  0.00000000000E+00 0. -1.
        -15    1    1    2    0    0  0.10945248606E+02 -0.13311260124E+02 -0.49264988565E+02  0.52222456285E+02  0.17770000000E+01 0.  1.
         15    1    1    2    0    0  0.17169187005E+01 -0.21502267299E+01 -0.21566707277E+02  0.21814029353E+02  0.17770000000E+01 0. -1.
</event>
<event>
 6    1  0.1823098E-004  0.5015658E+03  0.7546771E-02  0.9396313E-01
        -11   -1    0    0    0    0  0.00000000000E+00  0.00000000000E+00  0.50000000000E+03  0.50000000000E+03  0.00000000000E+00 0. -1.
         11   -1    0    0    0    0 -0.00000000000E+00 -0.00000000000E+00 -0.50000000000E+03  0.50000000000E+03  0.00000000000E+00 0.  1.
        -11    1    1    2    0    0 -0.82212560121E+01 -0.20576361544E+01  0.26809677524E+03  0.26823069140E+03  0.00000000000E+00 0. -1.
         11    1    1    2    0    0  0.37332409535E+02  0.41168791697E+02 -0.49532622144E+03  0.49843419211E+03  0.00000000000E+00 0.  1.
        -15    1    1    2    0    0 -0.27138874020E+02 -0.41337542072E+02  0.21527902377E+03  0.22089256817E+03  0.17770000000E+01 0. -1.
         15    1    1    2    0    0 -0.19722795021E+01  0.22263865290E+01  0.11950422430E+02  0.12442548319E+02  0.17770000000E+01 0.  1.
</event>
<event>
 6    1  0.1823098E-004  0.5002958E+03  0.7546771E-02  0.9399148E-01
        -11   -1    0    0    0    0  0.00000000000E+00  0.00000000000E+00  0.50000000000E+03  0.50000000000E+03  0.00000000000E+00 0.  1.
         11   -1    0    0    0    0 -0.00000000000E+00 -0.00000000000E+00 -0.50000000000E+03  0.50000000000E+03  0.00000000000E+00 0. -1.
        -11    1    1    2    0    0 -0.43246236176E+01  0.52574411488E+01  0.49965786538E+03  0.49970423802E+03  0.00000000000E+00 0.  1.
         11    1    1    2    0    0 -0.78478154514E+01  0.10286894746E+00 -0.29858184140E+03  0.29868497586E+03  0.00000000000E+00 0. -1.
        -15    1    1    2    0    0  0.70462089148E+01 -0.56004536953E+01 -0.11661160286E+03  0.11697195302E+03  0.17770000000E+01 0. -1.
         15    1    1    2    0    0  0.51262301542E+01  0.24014359898E+00 -0.84464421116E+02  0.84638833097E+02  0.17770000000E+01 0.  1.
</event>
<event>
 6    1  0.1823098E-004  0.5004087E+03  0.7546771E-02  0.9398896E-01
        -11   -1    0    0    0    0  0.00000000000E+00  0.00000000000E+00  0.50000000000E+03  0.50000000000E+03  0.00000000000E+00 0. -1.
         11   -1    0    0    0    0 -0.00000000000E+00 -0.00000000000E+00 -0.50000000000E+03  0.50000000000E+03  0.00000000000E+00 0. -1.
        -11    1    1    2    0    0  0.51331675728E+01 -0.45936088351E+01  0.49954384900E+03  0.49959134072E+03  0.00000000000E+00 0. -1.
         11    1    1    2    0    0 -0.10081294179E+02  0.19256207320E+01 -0.42838369484E+03  0.42850662832E+03  0.00000000000E+00 0. -1.
        -15    1    1    2    0    0  0.58976675829E+01 -0.86722565362E+00 -0.41248038598E+02  0.41714421732E+02  0.17770000000E+01 0. -1.
         15    1    1    2    0    0 -0.94954097718E+00  0.35352137567E+01 -0.29912115561E+02  0.30187609225E+02  0.17770000000E+01 0.  1.
</event>
<event>
 6    1  0.1823098E-004  0.5016522E+03  0.7546771E-02  0.9396120E-01
        -11   -1    0    0    0    0  0.00000000000E+00  0.00000000000E+00  0.50000000000E+03  0.50000000000E+03  0.00000000000E+00 0.  1.
         11   -1    0    0    0    0 -0.00000000000E+00 -0.00000000000E+00 -0.50000000000E+03  0.50000000000E+03  0.00000000000E+00 0. -1.
        -11    1    1    2    0    0  0.43054562039E+01 -0.71183927376E+01  0.49827835907E+03  0.49834780183E+03  0.00000000000E+00 0.  1.
         11    1    1    2    0    0  0.58537085301E+01  0.19852642658E+02 -0.44386526503E+03  0.44434757434E+03  0.00000000000E+00 0. -1.
        -15    1    1    2    0    0 -0.49033376934E+01 -0.19029558589E+01 -0.12885081233E+02  0.14030217707E+02  0.17770000000E+01 0.  1.
         15    1    1    2    0    0 -0.52558270406E+01 -0.10831294062E+02 -0.41528012810E+02  0.43274406130E+02  0.17770000000E+01 0. -1.
</event>
<event>
 6    1  0.1823098E-004  0.5001589E+03  0.7546771E-02  0.9399454E-01
        -11   -1    0    0    0    0  0.00000000000E+00  0.00000000000E+00  0.50000000000E+03  0.50000000000E+03  0.00000000000E+00 0.  1.
         11   -1    0    0    0    0 -0.00000000000E+00 -0.00000000000E+00 -0.50000000000E+03  0.50000000000E+03  0.00000000000E+00 0. -1.
        -11    1    1    2    0    0 -0.36303715512E+02 -0.10334022426E+02  0.49841387725E+03  0.49984111957E+03  0.00000000000E+00 0.  1.
         11    1    1    2    0    0  0.24806951342E+02  0.36526265500E+00 -0.25033572986E+03  0.25156211141E+03  0.00000000000E+00 0. -1.
        -15    1    1    2    0    0  0.98778875941E+01  0.72016428686E+01 -0.18454012477E+03  0.18495310677E+03  0.17770000000E+01 0. -1.
         15    1    1    2    0    0  0.16188765759E+01  0.27671169023E+01 -0.63538022624E+02  0.63643662256E+02  0.17770000000E+01 0.  1.
</event>
<event>
 6    1  0.1823098E-004  0.5009569E+03  0.7546771E-02  0.9397671E-01
        -11   -1    0    0    0    0  0.00000000000E+00  0.00000000000E+00  0.50000000000E+03  0.50000000000E+03  0.00000000000E+00 0. -1.
         11   -1    0    0    0    0 -0.00000000000E+00 -0.00000000000E+00 -0.50000000000E+03  0.50000000000E+03  0.00000000000E+00 0.  1.
        -11    1    1    2    0    0  0.96621256087E+01  0.25138984782E+01  0.48108232900E+03  0.48118591379E+03  0.00000000000E+00 0. -1.
         11    1    1    2    0    0 -0.15944785215E+02  0.70356421276E-01 -0.49878832771E+03  0.49904312137E+03  0.00000000000E+00 0.  1.
        -15    1    1    2    0    0  0.45411080830E+01  0.18912354773E+00  0.12020854070E+02  0.12973669177E+02  0.17770000000E+01 0.  1.
         15    1    1    2    0    0  0.17415515233E+01 -0.27733784473E+01  0.56851446443E+01  0.67972956642E+01  0.17770000000E+01 0. -1.
</event>
<event>
 6    1  0.1823098E-004  0.5010333E+03  0.7546771E-02  0.9397501E-01
        -11   -1    0    0    0    0  0.00000000000E+00  0.00000000000E+00  0.50000000000E+03  0.50000000000E+03  0.00000000000E+00 0.  1.
         11   -1    0    0    0    0 -0.00000000000E+00 -0.00000000000E+00 -0.50000000000E+03  0.50000000000E+03  0.00000000000E+00 0. -1.
        -11    1    1    2    0    0  0.68583686073E+01 -0.30988389153E+01  0.49890993330E+03  0.49896669384E+03  0.00000000000E+00 0.  1.
         11    1    1    2    0    0 -0.18137938794E+01 -0.71607017058E+01 -0.38536125295E+03  0.38543204430E+03  0.00000000000E+00 0. -1.
        -15    1    1    2    0    0  0.21116923034E+01  0.29289513272E+01 -0.44170961542E+01  0.59754889086E+01  0.17770000000E+01 0. -1.
         15    1    1    2    0    0 -0.71562670313E+01  0.73305892938E+01 -0.10913158419E+03  0.10962577295E+03  0.17770000000E+01 0.  1.
</event>
<event>
 6    1  0.1823098E-004  0.5022428E+03  0.7546771E-02  0.9394805E-01
        -11   -1    0    0    0    0  0.00000000000E+00  0.00000000000E+00  0.50000000000E+03  0.50000000000E+03  0.00000000000E+00 0.  1.
         11   -1    0    0    0    0 -0.00000000000E+00 -0.00000000000E+00 -0.50000000000E+03  0.50000000000E+03  0.00000000000E+00 0.  1.
        -11    1    1    2    0    0 -0.90185324700E+01 -0.62451432138E+01  0.49763626148E+03  0.49775715412E+03  0.00000000000E+00 0.  1.
         11    1    1    2    0    0 -0.64894855591E+01 -0.99504162147E+01 -0.36739043149E+03  0.36758244430E+03  0.00000000000E+00 0.  1.
        -15    1    1    2    0    0 -0.39028894422E+01  0.22196805228E+01 -0.43467078885E+01  0.64970090110E+01  0.17770000000E+01 0. -1.
         15    1    1    2    0    0  0.19410907471E+02  0.13975878906E+02 -0.12589912210E+03  0.12816339257E+03  0.17770000000E+01 0.  1.
</event>
<event>
 6    1  0.1823098E-004  0.5006646E+03  0.7546771E-02  0.9398324E-01
        -11   -1    0    0    0    0  0.00000000000E+00  0.00000000000E+00  0.50000000000E+03  0.50000000000E+03  0.00000000000E+00 0. -1.
         11   -1    0    0    0    0 -0.00000000000E+00 -0.00000000000E+00 -0.50000000000E+03  0.50000000000E+03  0.00000000000E+00 0. -1.
        -11    1    1    2    0    0  0.19977420829E+02  0.18425361483E+02  0.49859526942E+03  0.49933539227E+03  0.00000000000E+00 0. -1.
         11    1    1    2    0    0  0.14166788631E+01  0.46864045779E+01 -0.11672373688E+02  0.12657554045E+02  0.00000000000E+00 0. -1.
        -15    1    1    2    0    0 -0.25777294781E+01 -0.35647846218E+01 -0.11145838130E+03  0.11155931547E+03  0.17770000000E+01 0.  1.
         15    1    1    2    0    0 -0.18816370214E+02 -0.19546981439E+02 -0.37546451444E+03  0.37644773821E+03  0.17770000000E+01 0. -1.
</event>
<event>
 6    1  0.1823098E-004  0.4915343E+03  0.7546771E-02  0.9418954E-01
        -11   -1    0    0    0    0  0.00000000000E+00  0.00000000000E+00  0.50000000000E+03  0.50000000000E+03  0.00000000000E+00 0.  1.
         11   -1    0    0    0    0 -0.00000000000E+00 -0.00000000000E+00 -0.50000000000E+03  0.50000000000E+03  0.00000000000E+00 0. -1.
        -11    1    1    2    0    0 -0.16765317918E+01  0.71441215650E+01  0.49356215461E+03  0.49361670322E+03  0.00000000000E+00 0.  1.
         11    1    1    2    0    0  0.92665363824E+01  0.28257611291E+00 -0.48943017236E+03  0.48951796919E+03  0.00000000000E+00 0. -1.
        -15    1    1    2    0    0 -0.93443044394E+01 -0.68219876794E+01 -0.64847973145E+01  0.13381549483E+02  0.17770000000E+01 0.  1.
         15    1    1    2    0    0  0.17542998489E+01 -0.60470999846E+00  0.23528150616E+01  0.34837781008E+01  0.17770000000E+01 0. -1.
</event>
<event>
 6    1  0.1823098E-004  0.5001697E+03  0.7546771E-02  0.9399430E-01
        -11   -1    0    0    0    0  0.00000000000E+00  0.00000000000E+00  0.50000000000E+03  0.50000000000E+03  0.00000000000E+00 0.  1.
         11   -1    0    0    0    0 -0.00000000000E+00 -0.00000000000E+00 -0.50000000000E+03  0.50000000000E+03  0.00000000000E+00 0.  1.
        -11    1    1    2    0    0 -0.57515112639E+01  0.58019770250E+01  0.49976353609E+03  0.49983030603E+03  0.00000000000E+00 0.  1.
         11    1    1    2    0    0  0.33186284707E+01  0.36964177407E+01 -0.73247077099E+02  0.73415332884E+02  0.00000000000E+00 0.  1.
        -15    1    1    2    0    0 -0.28902240403E+01 -0.68620025313E+01 -0.28390354290E+03  0.28400672505E+03  0.17770000000E+01 0.  1.
         15    1    1    2    0    0  0.53231068335E+01 -0.26363922344E+01 -0.14261291609E+03  0.14274763604E+03  0.17770000000E+01 0. -1.
</event>
<event>
 6    1  0.1823098E-004  0.5010349E+03  0.7546771E-02  0.9397497E-01
        -11   -1    0    0    0    0  0.00000000000E+00  0.00000000000E+00  0.50000000000E+03  0.50000000000E+03  0.00000000000E+00 0.  1.
         11   -1    0    0    0    0 -0.00000000000E+00 -0.00000000000E+00 -0.50000000000E+03  0.50000000000E+03  0.00000000000E+00 0. -1.
        -11    1    1    2    0    0  0.72864430962E+01 -0.95745133680E+00  0.49891098632E+03  0.49896511024E+03  0.00000000000E+00 0.  1.
         11    1    1    2    0    0 -0.98610579755E+01  0.68081353479E+01 -0.38684094530E+03  0.38702649539E+03  0.00000000000E+00 0. -1.
        -15    1    1    2    0    0 -0.75020245852E+01 -0.67104339841E+01 -0.67596738166E+02  0.68365101015E+02  0.17770000000E+01 0. -1.
         15    1    1    2    0    0  0.10076639464E+02  0.85974997308E+00 -0.44473302856E+02  0.45643293361E+02  0.17770000000E+01 0.  1.
</event>
<event>
 6    1  0.1823098E-004  0.5046453E+03  0.7546771E-02  0.9389475E-01
        -11   -1    0    0    0    0  0.00000000000E+00  0.00000000000E+00  0.50000000000E+03  0.50000000000E+03  0.00000000000E+00 0.  1.
         11   -1    0    0    0    0 -0.00000000000E+00 -0.00000000000E+00 -0.50000000000E+03  0.50000000000E+03  0.00000000000E+00 0. -1.
        -11    1    1    2    0    0  0.58081908720E+01  0.44215537702E+01  0.29774698472E+03  0.29783645198E+03  0.00000000000E+00 0.  1.
         11    1    1    2    0    0  0.45921247982E+02  0.17768992903E+02 -0.49290142469E+03  0.49535473409E+03  0.00000000000E+00 0. -1.
        -15    1    1    2    0    0 -0.46157698695E+02 -0.32285611681E+02  0.16957195516E+03  0.17869163265E+03  0.17770000000E+01 0.  1.
         15    1    1    2    0    0 -0.55717401596E+01  0.10095065008E+02  0.25582484803E+02  0.28117181289E+02  0.17770000000E+01 0. -1.
</event>
<event>
 6    1  0.1823098E-004  0.5007028E+03  0.7546771E-02  0.9398239E-01
        -11   -1    0    0    0    0  0.00000000000E+00  0.00000000000E+00  0.50000000000E+03  0.50000000000E+03  0.00000000000E+00 0. -1.
         11   -1    0    0    0    0 -0.00000000000E+00 -0.00000000000E+00 -0.50000000000E+03  0.50000000000E+03  0.00000000000E+00 0. -1.
        -11    1    1    2    0    0  0.11002814031E+02  0.15269531382E+02  0.49894236994E+03  0.49929721512E+03  0.00000000000E+00 0. -1.
         11    1    1    2    0    0 -0.90193647785E+01 -0.10173368655E+02 -0.54220790212E+02  0.55899378011E+02  0.00000000000E+00 0. -1.
        -15    1    1    2    0    0  0.15065514834E+01 -0.40683214282E+00 -0.14846832078E+03  0.14848715504E+03  0.17770000000E+01 0. -1.
         15    1    1    2    0    0 -0.34900007362E+01 -0.46893305840E+01 -0.29625325895E+03  0.29631625182E+03  0.17770000000E+01 0. -1.
</event>
<event>
 6    1  0.1823098E-004  0.4832066E+03  0.7546771E-02  0.9438191E-01
        -11   -1    0    0    0    0  0.00000000000E+00  0.00000000000E+00  0.50000000000E+03  0.50000000000E+03  0.00000000000E+00 0. -1.
         11   -1    0    0    0    0 -0.00000000000E+00 -0.00000000000E+00 -0.50000000000E+03  0.50000000000E+03  0.00000000000E+00 0.  1.
        -11    1    1    2    0    0 -0.55283796326E+01  0.16713417229E+02  0.48885704660E+03  0.48917390907E+03  0.00000000000E+00 0. -1.
         11    1    1    2    0    0  0.24779878375E+02 -0.30821056290E+01 -0.47694726340E+03  0.47760049604E+03  0.00000000000E+00 0.  1.
        -15    1    1    2    0    0 -0.96888499740E+01  0.23788277553E+01  0.14220172471E+01  0.10232912457E+02  0.17770000000E+01 0. -1.
         15    1    1    2    0    0 -0.95626487688E+01 -0.16010139356E+02 -0.13331800449E+02  0.22992682442E+02  0.17770000000E+01 0.  1.
</event>
<event>
 6    1  0.1823098E-004  0.5027578E+03  0.7546771E-02  0.9393660E-01
        -11   -1    0    0    0    0  0.00000000000E+00  0.00000000000E+00  0.50000000000E+03  0.50000000000E+03  0.00000000000E+00 0. -1.
         11   -1    0    0    0    0 -0.00000000000E+00 -0.00000000000E+00 -0.50000000000E+03  0.50000000000E+03  0.00000000000E+00 0. -1.
        -11    1    1    2    0    0  0.11544796236E+02 -0.15488519474E+01  0.36197947978E+03  0.36216684697E+03  0.00000000000E+00 0. -1.
         11    1    1    2    0    0  0.20056080791E+02 -0.81421895120E+01 -0.49677079665E+03  0.49724216035E+03  0.00000000000E+00 0. -1.
        -15    1    1    2    0    0 -0.29871394832E+02  0.80613714014E+01  0.13397610269E+03  0.13751378025E+03  0.17770000000E+01 0.  1.
         15    1    1    2    0    0 -0.17294821951E+01  0.16296700579E+01  0.81521417336E+00  0.30772124252E+01  0.17770000000E+01 0. -1.
</event>
<event>
 6    1  0.1823098E-004  0.5158094E+03  0.7546771E-02  0.9365114E-01
        -11   -1    0    0    0    0  0.00000000000E+00  0.00000000000E+00  0.50000000000E+03  0.50000000000E+03  0.00000000000E+00 0.  1.
         11   -1    0    0    0    0 -0.00000000000E+00 -0.00000000000E+00 -0.50000000000E+03  0.50000000000E+03  0.00000000000E+00 0. -1.
        -11    1    1    2    0    0  0.17514068932E+02 -0.10556305157E+02  0.39603076325E+03  0.39655837354E+03  0.00000000000E+00 0.  1.
         11    1    1    2    0    0  0.52637659849E+02  0.15727227952E+02 -0.48106390378E+03  0.48419061169E+03  0.00000000000E+00 0. -1.
        -15    1    1    2    0    0 -0.56075948136E+01 -0.16635612312E+02  0.22927969533E+02  0.28931613029E+02  0.17770000000E+01 0. -1.
         15    1    1    2    0    0 -0.64544133968E+02  0.11464689517E+02  0.62105170998E+02  0.90319401731E+02  0.17770000000E+01 0.  1.
</event>
<event>
 6    1  0.1823098E-004  0.5016779E+03  0.7546771E-02  0.9396063E-01
        -11   -1    0    0    0    0  0.00000000000E+00  0.00000000000E+00  0.50000000000E+03  0.50000000000E+03  0.00000000000E+00 0.  1.
         11   -1    0    0    0    0 -0.00000000000E+00 -0.00000000000E+00 -0.50000000000E+03  0.50000000000E+03  0.00000000000E+00 0.  1.
        -11    1    1    2    0    0  0.55627037049E+00  0.12669253498E+02  0.46777430370E+03  0.46794617065E+03  0.00000000000E+00 0.  1.
         11    1    1    2    0    0  0.78225521855E+01 -0.52926427396E+01 -0.49823261293E+03  0.49832212571E+03  0.00000000000E+00 0.  1.
        -15    1    1    2    0    0  0.12344319451E+01 -0.30303008239E+01  0.94227209527E+01  0.10131729589E+02  0.17770000000E+01 0. -1.
         15    1    1    2    0    0 -0.96132545011E+01 -0.43463099343E+01  0.21035588275E+02  0.23599974052E+02  0.17770000000E+01 0.  1.
</event>
<event>
 6    1  0.1823098E-004  0.5003595E+03  0.7546771E-02  0.9399006E-01
        -11   -1    0    0    0    0  0.00000000000E+00  0.00000000000E+00  0.50000000000E+03  0.50000000000E+03  0.00000000000E+00 0.  1.
         11   -1    0    0    0    0 -0.00000000000E+00 -0.00000000000E+00 -0.50000000000E+03  0.50000000000E+03  0.00000000000E+00 0. -1.
        -11    1    1    2    0    0 -0.36402531962E+01 -0.45897234627E+01  0.40534537940E+03  0.40538770777E+03  0.00000000000E+00 0.  1.
         11    1    1    2    0    0  0.70876604204E+01 -0.13620370852E+01 -0.49958839378E+03  0.49964052405E+03  0.00000000000E+00 0. -1.
        -15    1    1    2    0    0  0.32926777569E+00  0.77110055478E+00  0.37415193745E+01  0.42260749595E+01  0.17770000000E+01 0.  1.
         15    1    1    2    0    0 -0.37766749999E+01  0.51806599932E+01  0.90501495003E+02  0.90745693224E+02  0.17770000000E+01 0.  1.
</event>
<event>
 6    1  0.1823098E-004  0.5005531E+03  0.7546771E-02  0.9398573E-01
        -11   -1    0    0    0    0  0.00000000000E+00  0.00000000000E+00  0.50000000000E+03  0.50000000000E+03  0.00000000000E+00 0. -1.
         11   -1    0    0    0    0 -0.00000000000E+00 -0.00000000000E+00 -0.50000000000E+03  0.50000000000E+03  0.00000000000E+00 0. -1.
        -11    1    1    2    0    0 -0.89686446923E+00  0.73860664549E+01  0.49939151489E+03  0.49944693761E+03  0.00000000000E+00 0. -1.
         11    1    1    2    0    0  0.65453243595E+01 -0.66242714988E+01 -0.45012052621E+03  0.45021684815E+03  0.00000000000E+00 0. -1.
        -15    1    1    2    0    0 -0.29002099848E+01 -0.38804462388E+01 -0.34655279647E+02  0.35037340330E+02  0.17770000000E+01 0. -1.
         15    1    1    2    0    0 -0.27482499054E+01  0.31186512827E+01 -0.14615709032E+02  0.15298873909E+02  0.17770000000E+01 0.  1.
</event>
<event>
 6    1  0.1823098E-004  0.5004099E+03  0.7546771E-02  0.9398893E-01
        -11   -1    0    0    0    0  0.00000000000E+00  0.00000000000E+00  0.50000000000E+03  0.50000000000E+03  0.00000000000E+00 0.  1.
         11   -1    0    0    0    0 -0.00000000000E+00 -0.00000000000E+00 -0.50000000000E+03  0.50000000000E+03  0.00000000000E+00 0.  1.
        -11    1    1    2    0    0 -0.42393653425E+01  0.36216012168E+01  0.16876470919E+03  0.16885678926E+03  0.00000000000E+00 0.  1.
         11    1    1    2    0    0  0.22882624002E+02  0.24571312950E+01 -0.49905971974E+03  0.49959008782E+03  0.00000000000E+00 0.  1.
        -15    1    1    2    0    0 -0.10043789775E+02 -0.20944297894E+01  0.49058806914E+02  0.50151656144E+02  0.17770000000E+01 0. -1.
         15    1    1    2    0    0 -0.85994688851E+01 -0.39843027223E+01  0.28123620364E+03  0.28140146677E+03  0.17770000000E+01 0.  1.
</event>
<event>
 6    1  0.1823098E-004  0.5028960E+03  0.7546771E-02  0.9393353E-01
        -11   -1    0    0    0    0  0.00000000000E+00  0.00000000000E+00  0.50000000000E+03  0.50000000000E+03  0.00000000000E+00 0.  1.
         11   -1    0    0    0    0 -0.00000000000E+00 -0.00000000000E+00 -0.50000000000E+03  0.50000000000E+03  0.00000000000E+00 0. -1.
        -11    1    1    2    0    0 -0.73461321105E+01  0.18991515435E+01  0.48012608924E+03  0.48018604103E+03  0.00000000000E+00 0.  1.
         11    1    1    2    0    0  0.64933385483E+01 -0.12188083830E+02 -0.49691217020E+03  0.49710403109E+03  0.00000000000E+00 0. -1.
        -15    1    1    2    0    0  0.53852730033E+01  0.61401186255E+01  0.64618315822E+01  0.10564810384E+02  0.17770000000E+01 0.  1.
         15    1    1    2    0    0 -0.45324794410E+01  0.41488136610E+01  0.10324249381E+02  0.12145117494E+02  0.17770000000E+01 0. -1.
</event>
<event>
 6    1  0.1823098E-004  0.5000488E+03  0.7546771E-02  0.9399701E-01
        -11   -1    0    0    0    0  0.00000000000E+00  0.00000000000E+00  0.50000000000E+03  0.50000000000E+03  0.00000000000E+00 0. -1.
         11   -1    0    0    0    0 -0.00000000000E+00 -0.00000000000E+00 -0.50000000000E+03  0.50000000000E+03  0.00000000000E+00 0.  1.
        -11    1    1    2    0    0 -0.64292762535E+01 -0.10795615623E+02  0.49979327443E+03  0.49995119569E+03  0.00000000000E+00 0. -1.
         11    1    1    2    0    0  0.24222190894E+01  0.14097183481E+01 -0.38687159664E+02  0.38788539210E+02  0.00000000000E+00 0.  1.
        -15    1    1    2    0    0 -0.71545064632E+00  0.20389581836E+01 -0.77125318783E+02  0.77176043864E+02  0.17770000000E+01 0.  1.
         15    1    1    2    0    0  0.47225078104E+01  0.73469390915E+01 -0.38398079598E+03  0.38408422124E+03  0.17770000000E+01 0.  1.
</event>
<event>
 6    1  0.1823098E-004  0.5000800E+03  0.7546771E-02  0.9399631E-01
        -11   -1    0    0    0    0  0.00000000000E+00  0.00000000000E+00  0.50000000000E+03  0.50000000000E+03  0.00000000000E+00 0. -1.
         11   -1    0    0    0    0 -0.00000000000E+00 -0.00000000000E+00 -0.50000000000E+03  0.50000000000E+03  0.00000000000E+00 0.  1.
        -11    1    1    2    0    0  0.54953060534E+00  0.60208336383E+01  0.28333380971E+03  0.28339830653E+03  0.00000000000E+00 0. -1.
         11    1    1    2    0    0 -0.38649028791E+01 -0.76652181091E+01 -0.49984627795E+03  0.49991998822E+03  0.00000000000E+00 0.  1.
        -15    1    1    2    0    0  0.47468044298E+01  0.23209648628E+01  0.10859106662E+03  0.10873406325E+03  0.17770000000E+01 0. -1.
         15    1    1    2    0    0 -0.14314321560E+01 -0.67658039206E+00  0.10792140161E+03  0.10794764200E+03  0.17770000000E+01 0. -1.
</event>
<event>
 6    1  0.1823098E-004  0.5025135E+03  0.7546771E-02  0.9394203E-01
        -11   -1    0    0    0    0  0.00000000000E+00  0.00000000000E+00  0.50000000000E+03  0.50000000000E+03  0.00000000000E+00 0. -1.
         11   -1    0    0    0    0 -0.00000000000E+00 -0.00000000000E+00 -0.50000000000E+03  0.50000000000E+03  0.00000000000E+00 0.  1.
        -11    1    1    2    0    0  0.17362211635E+02  0.12336767989E+02  0.49703039570E+03  0.49748653900E+03  0.00000000000E+00 0. -1.
         11    1    1    2    0    0 -0.21651105222E+01  0.24196232442E+02 -0.12994203559E+03  0.13219333562E+03  0.00000000000E+00 0.  1.
        -15    1    1    2    0    0 -0.15985741402E+02 -0.26954525807E+02 -0.16281421183E+03  0.16581229054E+03  0.17770000000E+01 0.  1.
         15    1    1    2    0    0  0.78864028933E+00 -0.95784746247E+01 -0.20427414828E+03  0.20450783484E+03  0.17770000000E+01 0. -1.
</event>
<event>
 6    1  0.1823098E-004  0.4817674E+03  0.7546771E-02  0.9441557E-01
        -11   -1    0    0    0    0  0.00000000000E+00  0.00000000000E+00  0.50000000000E+03  0.50000000000E+03  0.00000000000E+00 0.  1.
         11   -1    0    0    0    0 -0.00000000000E+00 -0.00000000000E+00 -0.50000000000E+03  0.50000000000E+03  0.00000000000E+00 0.  1.
        -11    1    1    2    0    0 -0.29376858658E+02  0.21329686723E+02  0.48247358323E+03  0.48383748705E+03  0.00000000000E+00 0.  1.
         11    1    1    2    0    0  0.35257627909E+02  0.68997683987E+01 -0.36045435103E+01  0.36106784178E+02  0.00000000000E+00 0.  1.
        -15    1    1    2    0    0 -0.96194975479E+01 -0.68801534052E+01 -0.16082237520E+03  0.16126644207E+03  0.17770000000E+01 0. -1.
         15    1    1    2    0    0  0.37387282964E+01 -0.21349301716E+02 -0.31804666452E+03  0.31878928670E+03  0.17770000000E+01 0.  1.
</event>
<event>
 6    1  0.1823098E-004  0.4792135E+03  0.7546771E-02  0.9447561E-01
        -11   -1    0    0    0    0  0.00000000000E+00  0.00000000000E+00  0.50000000000E+03  0.50000000000E+03  0.00000000000E+00 0.  1.
         11   -1    0    0    0    0 -0.00000000000E+00 -0.00000000000E+00 -0.50000000000E+03  0.50000000000E+03  0.00000000000E+00 0.  1.
        -11    1    1    2    0    0 -0.12995105475E+02 -0.14061553358E+01  0.48239960742E+03  0.48257665845E+03  0.00000000000E+00 0.  1.
         11    1    1    2    0    0 -0.18234216319E+02  0.16562932743E+02 -0.47586393582E+03  0.47650110472E+03  0.00000000000E+00 0.  1.
        -15    1    1    2    0    0  0.26872286620E+02 -0.15663711034E+02 -0.12272688034E+02  0.33485044902E+02  0.17770000000E+01 0. -1.
         15    1    1    2    0    0  0.43570351749E+01  0.50693362695E+00  0.57370164359E+01  0.74371919300E+01  0.17770000000E+01 0.  1.
</event>
<event>
 6    1  0.1823098E-004  0.5002589E+03  0.7546771E-02  0.9399231E-01
        -11   -1    0    0    0    0  0.00000000000E+00  0.00000000000E+00  0.50000000000E+03  0.50000000000E+03  0.00000000000E+00 0. -1.
         11   -1    0    0    0    0 -0.00000000000E+00 -0.00000000000E+00 -0.50000000000E+03  0.50000000000E+03  0.00000000000E+00 0. -1.
        -11    1    1    2    0    0 -0.53473436165E+01  0.28821944065E+01  0.28389170335E+03  0.28395668747E+03  0.00000000000E+00 0. -1.
         11    1    1    2    0    0 -0.68880388339E+01 -0.76264566449E+01 -0.49963546283E+03  0.49974113663E+03  0.00000000000E+00 0. -1.
        -15    1    1    2    0    0  0.64156275710E+01  0.45371014115E+01  0.16464175464E+03  0.16483874140E+03  0.17770000000E+01 0.  1.
         15    1    1    2    0    0  0.58197548794E+01  0.20716082695E+00  0.51102004840E+02  0.51463434496E+02  0.17770000000E+01 0. -1.
</event>
<event>
 6    1  0.1823098E-004  0.5000815E+03  0.7546771E-02  0.9399627E-01
        -11   -1    0    0    0    0  0.00000000000E+00  0.00000000000E+00  0.50000000000E+03  0.50000000000E+03  0.00000000000E+00 0.  1.
         11   -1    0    0    0    0 -0.00000000000E+00 -0.00000000000E+00 -0.50000000000E+03  0.50000000000E+03  0.00000000000E+00 0. -1.
        -11    1    1    2    0    0  0.80856390263E+01  0.25650755658E+01  0.49984656411E+03  0.49991853819E+03  0.00000000000E+00 0.  1.
         11    1    1    2    0    0 -0.44168547292E+01 -0.41239947371E+01 -0.20976281735E+03  0.20984984031E+03  0.00000000000E+00 0. -1.
        -15    1    1    2    0    0 -0.79088615321E+00  0.34734819104E+01 -0.69693576549E+02  0.69807183861E+02  0.17770000000E+01 0.  1.
         15    1    1    2    0    0 -0.28778981439E+01 -0.19145627391E+01 -0.22039017022E+03  0.22042443763E+03  0.17770000000E+01 0. -1.
</event>
<event>
 6    1  0.1823098E-004  0.5001739E+03  0.7546771E-02  0.9399421E-01
        -11   -1    0    0    0    0  0.00000000000E+00  0.00000000000E+00  0.50000000000E+03  0.50000000000E+03  0.00000000000E+00 0. -1.
         11   -1    0    0    0    0 -0.00000000000E+00 -0.00000000000E+00 -0.50000000000E+03  0.50000000000E+03  0.00000000000E+00 0. -1.
        -11    1    1    2    0    0  0.34708163810E+01  0.86777992059E+00  0.18041585197E+03  0.18045132100E+03  0.00000000000E+00 0. -1.
         11    1    1    2    0    0 -0.13002259555E+02  0.17559018747E+02 -0.49934828569E+03  0.49982605806E+03  0.00000000000E+00 0. -1.
        -15    1    1    2    0    0  0.92278056371E+01 -0.14572963571E+02  0.21295135518E+03  0.21365617489E+03  0.17770000000E+01 0.  1.
         15    1    1    2    0    0  0.30363753657E+00 -0.38538350967E+01  0.10598107854E+03  0.10606644606E+03  0.17770000000E+01 0. -1.
</event>
<event>
 6    1  0.1823098E-004  0.5030326E+03  0.7546771E-02  0.9393049E-01
        -11   -1    0    0    0    0  0.00000000000E+00  0.00000000000E+00  0.50000000000E+03  0.50000000000E+03  0.00000000000E+00 0. -1.
         11   -1    0    0    0    0 -0.00000000000E+00 -0.00000000000E+00 -0.50000000000E+03  0.50000000000E+03  0.00000000000E+00 0.  1.
        -11    1    1    2    0    0  0.31128006683E+00 -0.71048458113E+01  0.49691647200E+03  0.49696735897E+03  0.00000000000E+00 0. -1.
         11    1    1    2    0    0 -0.11015216807E+02  0.41575678023E+01 -0.48609767106E+03  0.48624023505E+03  0.00000000000E+00 0.  1.
        -15    1    1    2    0    0  0.29219182145E+01  0.13483756606E+01 -0.67621902882E+01  0.76967960521E+01  0.17770000000E+01 0. -1.
         15    1    1    2    0    0  0.77820185260E+01  0.15989023483E+01 -0.40566106578E+01  0.90956099348E+01  0.17770000000E+01 0.  1.
</event>
<event>
 6    1  0.1823098E-004  0.5005006E+03  0.7546771E-02  0.9398690E-01
        -11   -1    0    0    0    0  0.00000000000E+00  0.00000000000E+00  0.50000000000E+03  0.50000000000E+03  0.00000000000E+00 0. -1.
         11   -1    0    0    0    0 -0.00000000000E+00 -0.00000000000E+00 -0.50000000000E+03  0.50000000000E+03  0.00000000000E+00 0. -1.
        -11    1    1    2    0    0 -0.26595047298E+02  0.32012636524E+01  0.49878061423E+03  0.49949939515E+03  0.00000000000E+00 0. -1.
         11    1    1    2    0    0  0.13437478901E+02 -0.13205117687E+02 -0.13530654251E+03  0.13661186412E+03  0.00000000000E+00 0. -1.
        -15    1    1    2    0    0  0.20982737911E+01  0.31124618521E+01 -0.74704518456E+02  0.74819870211E+02  0.17770000000E+01 0.  1.
         15    1    1    2    0    0  0.11059294606E+02  0.68913921828E+01 -0.28876955326E+03  0.28906887052E+03  0.17770000000E+01 0. -1.
</event>
<event>
 6    1  0.1823098E-004  0.5005703E+03  0.7546771E-02  0.9398534E-01
        -11   -1    0    0    0    0  0.00000000000E+00  0.00000000000E+00  0.50000000000E+03  0.50000000000E+03  0.00000000000E+00 0.  1.
         11   -1    0    0    0    0 -0.00000000000E+00 -0.00000000000E+00 -0.50000000000E+03  0.50000000000E+03  0.00000000000E+00 0. -1.
        -11    1    1    2    0    0 -0.21752341802E+01  0.12053181376E+02  0.49927945652E+03  0.49942966124E+03  0.00000000000E+00 0.  1.
         11    1    1    2    0    0 -0.22227293727E+01 -0.14704867810E+02 -0.89403535350E+02  0.90632035155E+02  0.00000000000E+00 0. -1.
        -15    1    1    2    0    0  0.36147887114E+01  0.23654030296E+00 -0.21751149260E+03  0.21754891356E+03  0.17770000000E+01 0. -1.
         15    1    1    2    0    0  0.78317484151E+00  0.24151461309E+01 -0.19236442857E+03  0.19238939004E+03  0.17770000000E+01 0.  1.
</event>
<event>
 6    1  0.1823098E-004  0.5112513E+03  0.7546771E-02  0.9374980E-01
        -11   -1    0    0    0    0  0.00000000000E+00  0.00000000000E+00  0.50000000000E+03  0.50000000000E+03  0.00000000000E+00 0.  1.
         11   -1    0    0    0    0 -0.00000000000E+00 -0.00000000000E+00 -0.50000000000E+03  0.50000000000E+03  0.00000000000E+00 0.  1.
        -11    1    1    2    0    0  0.55651629971E+01  0.15159486969E+02  0.48848182548E+03  0.48874868277E+03  0.00000000000E+00 0.  1.
         11    1    1    2    0    0 -0.36411314105E+02 -0.23444667222E+02 -0.44109208156E+03  0.44321288410E+03  0.00000000000E+00 0.  1.
        -15    1    1    2    0    0 -0.20730483566E+01 -0.77253340046E+01 -0.80316565513E-01  0.81940523993E+01  0.17770000000E+01 0.  1.
         15    1    1    2    0    0  0.32919199464E+02  0.16010514257E+02 -0.47309427348E+02  0.59844380732E+02  0.17770000000E+01 0. -1.
</event>
<event>
 6    1  0.1823098E-004  0.5022412E+03  0.7546771E-02  0.9394809E-01
        -11   -1    0    0    0    0  0.00000000000E+00  0.00000000000E+00  0.50000000000E+03  0.50000000000E+03  0.00000000000E+00 0. -1.
         11   -1    0    0    0    0 -0.00000000000E+00 -0.00000000000E+00 -0.50000000000E+03  0.50000000000E+03  0.00000000000E+00 0. -1.
        -11    1    1    2    0    0 -0.12738805575E+02 -0.13293363088E+01  0.49759397033E+03  0.49775878055E+03  0.00000000000E+00 0. -1.
         11    1    1    2    0    0 -0.12735376159E+02  0.61315504029E+01 -0.39732260496E+03  0.39757394046E+03  0.00000000000E+00 0. -1.
        -15    1    1    2    0    0  0.18563695920E+01  0.48126642703E+00 -0.16212675562E+01  0.30763554614E+01  0.17770000000E+01 0.  1.
         15    1    1    2    0    0  0.23617812141E+02 -0.52834805211E+01 -0.98650097811E+02  0.10159092353E+03  0.17770000000E+01 0. -1.
</event>
<event>
 6    1  0.1823098E-004  0.5004838E+03  0.7546771E-02  0.9398728E-01
        -11   -1    0    0    0    0  0.00000000000E+00  0.00000000000E+00  0.50000000000E+03  0.50000000000E+03  0.00000000000E+00 0.  1.
         11   -1    0    0    0    0 -0.00000000000E+00 -0.00000000000E+00 -0.50000000000E+03  0.50000000000E+03  0.00000000000E+00 0. -1.
        -11    1    1    2    0    0 -0.67836389928E+01 -0.35582282045E+01  0.27287618595E+03  0.27298368377E+03  0.00000000000E+00 0.  1.
         11    1    1    2    0    0  0.46702855626E+01 -0.12442921573E+02 -0.49933938010E+03  0.49951622034E+03  0.00000000000E+00 0. -1.
        -15    1    1    2    0    0 -0.53835784133E+01  0.63798664972E+01  0.63431925023E+02  0.64003534701E+02  0.17770000000E+01 0. -1.
         15    1    1    2    0    0  0.74969318436E+01  0.96212832802E+01  0.16303126912E+03  0.16349656119E+03  0.17770000000E+01 0.  1.
</event>
<event>
 6    1  0.1823098E-004  0.5001314E+03  0.7546771E-02  0.9399516E-01
        -11   -1    0    0    0    0  0.00000000000E+00  0.00000000000E+00  0.50000000000E+03  0.50000000000E+03  0.00000000000E+00 0. -1.
         11   -1    0    0    0    0 -0.00000000000E+00 -0.00000000000E+00 -0.50000000000E+03  0.50000000000E+03  0.00000000000E+00 0. -1.
        -11    1    1    2    0    0  0.12497134971E+01 -0.43913816102E+01  0.59825291720E+02  0.59999262876E+02  0.00000000000E+00 0. -1.
         11    1    1    2    0    0 -0.14542312554E+02 -0.41097750399E+01 -0.49964014563E+03  0.49986862697E+03  0.00000000000E+00 0. -1.
        -15    1    1    2    0    0  0.79346865361E+01  0.44737883061E+01  0.30243218121E+03  0.30257454618E+03  0.17770000000E+01 0. -1.
         15    1    1    2    0    0  0.53579125208E+01  0.40273683440E+01  0.13738267269E+03  0.13755756398E+03  0.17770000000E+01 0.  1.
</event>
<event>
 6    1  0.1823098E-004  0.5003762E+03  0.7546771E-02  0.9398968E-01
        -11   -1    0    0    0    0  0.00000000000E+00  0.00000000000E+00  0.50000000000E+03  0.50000000000E+03  0.00000000000E+00 0. -1.
         11   -1    0    0    0    0 -0.00000000000E+00 -0.00000000000E+00 -0.50000000000E+03  0.50000000000E+03  0.00000000000E+00 0.  1.
        -11    1    1    2    0    0  0.33695110038E+01 -0.36943853122E+01  0.21205877467E+03  0.21211771732E+03  0.00000000000E+00 0. -1.
         11    1    1    2    0    0  0.11063774439E+02  0.42968587487E+01 -0.49948275413E+03  0.49962375021E+03  0.00000000000E+00 0.  1.
        -15    1    1    2    0    0 -0.13887182731E+02  0.22570506102E+01  0.12550669158E+03  0.12630532642E+03  0.17770000000E+01 0.  1.
         15    1    1    2    0    0 -0.54610271147E+00 -0.28595240467E+01  0.16191728787E+03  0.16195320604E+03  0.17770000000E+01 0. -1.
</event>
<event>
 6    1  0.1823098E-004  0.5007222E+03  0.7546771E-02  0.9398195E-01
        -11   -1    0    0    0    0  0.00000000000E+00  0.00000000000E+00  0.50000000000E+03  0.50000000000E+03  0.00000000000E+00 0. -1.
         11   -1    0    0    0    0 -0.00000000000E+00 -0.00000000000E+00 -0.50000000000E+03  0.50000000000E+03  0.00000000000E+00 0. -1.
        -11    1    1    2    0    0 -0.11121544295E+01  0.58733572577E+01  0.29548101778E+03  0.29554147777E+03  0.00000000000E+00 0. -1.
         11    1    1    2    0    0  0.14283850730E+02  0.16353617654E+02 -0.49880538757E+03  0.49927776224E+03  0.00000000000E+00 0. -1.
        -15    1    1    2    0    0 -0.63702161744E+01 -0.38796104992E+01  0.46067497434E+02  0.46701210697E+02  0.17770000000E+01 0.  1.
         15    1    1    2    0    0 -0.68014801266E+01 -0.18347364413E+02  0.15725687235E+03  0.15847954929E+03  0.17770000000E+01 0. -1.
</event>
<event>
 6    1  0.1823098E-004  0.5018787E+03  0.7546771E-02  0.9395616E-01
        -11   -1    0    0    0    0  0.00000000000E+00  0.00000000000E+00  0.50000000000E+03  0.50000000000E+03  0.00000000000E+00 0.  1.
         11   -1    0    0    0    0 -0.00000000000E+00 -0.00000000000E+00 -0.50000000000E+03  0.50000000000E+03  0.00000000000E+00 0. -1.
        -11    1    1    2    0    0 -0.62056392579E+01  0.49527507001E+01  0.49805799536E+03  0.49812127684E+03  0.00000000000E+00 0.  1.
         11    1    1    2    0    0 -0.15068824269E+02 -0.25171816574E+02 -0.27954500405E+03  0.28108023606E+03  0.00000000000E+00 0. -1.
        -15    1    1    2    0    0  0.20578574592E+02  0.21145594843E+02 -0.20280863016E+03  0.20495148721E+03  0.17770000000E+01 0.  1.
         15    1    1    2    0    0  0.69588893444E+00 -0.92652896909E+00 -0.15704361145E+02  0.15846999884E+02  0.17770000000E+01 0. -1.
</event>
<event>
 6    1  0.1823098E-004  0.5002604E+03  0.7546771E-02  0.9399227E-01
        -11   -1    0    0    0    0  0.00000000000E+00  0.00000000000E+00  0.50000000000E+03  0.50000000000E+03  0.00000000000E+00 0.  1.
         11   -1    0    0    0    0 -0.00000000000E+00 -0.00000000000E+00 -0.50000000000E+03  0.50000000000E+03  0.00000000000E+00 0. -1.
        -11    1    1    2    0    0 -0.10983344173E+02  0.27526011650E+01  0.49961134439E+03  0.49973963831E+03  0.00000000000E+00 0.  1.
         11    1    1    2    0    0 -0.17114277564E+01 -0.76903443164E+01 -0.92082965708E+02  0.92419386247E+02  0.00000000000E+00 0. -1.
        -15    1    1    2    0    0  0.13175426236E+02  0.45275597000E+01 -0.34992629077E+03  0.35020802012E+03  0.17770000000E+01 0. -1.
         15    1    1    2    0    0 -0.48065430647E+00  0.41018345140E+00 -0.57602087908E+02  0.57632955324E+02  0.17770000000E+01 0.  1.
</event>
<event>
 6    1  0.1823098E-004  0.5008881E+03  0.7546771E-02  0.9397825E-01
        -11   -1    0    0    0    0  0.00000000000E+00  0.00000000000E+00  0.50000000000E+03  0.50000000000E+03  0.00000000000E+00 0.  1.
         11   -1    0    0    0    0 -0.00000000000E+00 -0.00000000000E+00 -0.50000000000E+03  0.50000000000E+03  0.00000000000E+00 0. -1.
        -11    1    1    2    0    0 -0.29455656887E+00  0.95357482780E+01  0.38136367603E+03  0.38148298868E+03  0.00000000000E+00 0.  1.
         11    1    1    2    0    0 -0.19429146748E+02 -0.46099321020E+01 -0.49871228598E+03  0.49911189868E+03  0.00000000000E+00 0. -1.
        -15    1    1    2    0    0  0.53216191126E+01 -0.12423685440E+01  0.54304833598E+02  0.54608019473E+02  0.17770000000E+01 0. -1.
         15    1    1    2    0    0  0.14402084204E+02 -0.36834476320E+01  0.63043776360E+02  0.64797093164E+02  0.17770000000E+01 0.  1.
</event>
<event>
 6    1  0.1823098E-004  0.4408771E+03  0.7546771E-02  0.9542781E-01
        -11   -1    0    0    0    0  0.00000000000E+00  0.00000000000E+00  0.50000000000E+03  0.50000000000E+03  0.00000000000E+00 0. -1.
         11   -1    0    0    0    0 -0.00000000000E+00 -0.00000000000E+00 -0.50000000000E+03  0.50000000000E+03  0.00000000000E+00 0.  1.
        -11    1    1    2    0    0  0.15136590132E+02  0.16964313367E+02  0.46448525048E+03  0.46504134462E+03  0.00000000000E+00 0. -1.
         11    1    1    2    0    0 -0.36659301621E+02 -0.81540788132E+02 -0.41132863794E+03  0.42093236144E+03  0.00000000000E+00 0.  1.
        -15    1    1    2    0    0  0.27818209244E+02  0.17311913726E+02  0.10517752365E+02  0.34457741746E+02  0.17770000000E+01 0. -1.
         15    1    1    2    0    0 -0.62954977546E+01  0.47264561038E+02 -0.63674364911E+02  0.79568552192E+02  0.17770000000E+01 0.  1.
</event>
<event>
 6    1  0.1823098E-004  0.5006078E+03  0.7546771E-02  0.9398451E-01
        -11   -1    0    0    0    0  0.00000000000E+00  0.00000000000E+00  0.50000000000E+03  0.50000000000E+03  0.00000000000E+00 0. -1.
         11   -1    0    0    0    0 -0.00000000000E+00 -0.00000000000E+00 -0.50000000000E+03  0.50000000000E+03  0.00000000000E+00 0.  1.
        -11    1    1    2    0    0 -0.39983817071E+02 -0.19041590603E+02  0.49742462116E+03  0.49939217208E+03  0.00000000000E+00 0. -1.
         11    1    1    2    0    0  0.23034709396E+02  0.14958429451E+02 -0.20580027464E+03  0.20762491539E+03  0.00000000000E+00 0.  1.
        -15    1    1    2    0    0  0.54914631040E+00  0.83108482015E+01 -0.46912094112E+02  0.47678863896E+02  0.17770000000E+01 0. -1.
         15    1    1    2    0    0  0.16399961365E+02 -0.42276870498E+01 -0.24471225241E+03  0.24530404864E+03  0.17770000000E+01 0.  1.
</event>
<event>
 6    1  0.1823098E-004  0.5014389E+03  0.7546771E-02  0.9396596E-01
        -11   -1    0    0    0    0  0.00000000000E+00  0.00000000000E+00  0.50000000000E+03  0.50000000000E+03  0.00000000000E+00 0. -1.
         11   -1    0    0    0    0 -0.00000000000E+00 -0.00000000000E+00 -0.50000000000E+03  0.50000000000E+03  0.00000000000E+00 0. -1.
        -11    1    1    2    0    0  0.71565197486E+01 -0.14418295732E+01  0.49850764251E+03  0.49856109384E+03  0.00000000000E+00 0. -1.
         11    1    1    2    0    0  0.67126325964E+00  0.71436727237E+01 -0.47587161877E+03  0.47592570871E+03  0.00000000000E+00 0. -1.
        -15    1    1    2    0    0 -0.47788597937E+01 -0.23841692948E+01 -0.61790489465E+01  0.83582377950E+01  0.17770000000E+01 0. -1.
         15    1    1    2    0    0 -0.30489232145E+01 -0.33176738556E+01 -0.16456974793E+02  0.17154959659E+02  0.17770000000E+01 0.  1.
</event>
<event>
 6    1  0.1823098E-004  0.5045695E+03  0.7546771E-02  0.9389643E-01
        -11   -1    0    0    0    0  0.00000000000E+00  0.00000000000E+00  0.50000000000E+03  0.50000000000E+03  0.00000000000E+00 0.  1.
         11   -1    0    0    0    0 -0.00000000000E+00 -0.00000000000E+00 -0.50000000000E+03  0.50000000000E+03  0.00000000000E+00 0. -1.
        -11    1    1    2    0    0 -0.67833032714E+01 -0.53842048224E+01  0.48532111066E+03  0.48539837589E+03  0.00000000000E+00 0.  1.
         11    1    1    2    0    0 -0.51172382741E+01  0.47963773680E+01 -0.49538089433E+03  0.49543054188E+03  0.00000000000E+00 0. -1.
        -15    1    1    2    0    0  0.72570862584E+01 -0.45767898070E+01  0.34388666729E+01  0.94125362625E+01  0.17770000000E+01 0.  1.
         15    1    1    2    0    0  0.46434552871E+01  0.51646172614E+01  0.66209170007E+01  0.97585459670E+01  0.17770000000E+01 0. -1.
</event>
<event>
 6    1  0.1823098E-004  0.5036244E+03  0.7546771E-02  0.9391736E-01
        -11   -1    0    0    0    0  0.00000000000E+00  0.00000000000E+00  0.50000000000E+03  0.50000000000E+03  0.00000000000E+00 0. -1.
         11   -1    0    0    0    0 -0.00000000000E+00 -0.00000000000E+00 -0.50000000000E+03  0.50000000000E+03  0.00000000000E+00 0.  1.
        -11    1    1    2    0    0  0.37567011375E+01  0.57920050190E+01  0.49632762420E+03  0.49637563464E+03  0.00000000000E+00 0. -1.
         11    1    1    2    0    0  0.14113908403E+01 -0.12466909749E+02 -0.47749734784E+03  0.47766215368E+03  0.00000000000E+00 0.  1.
        -15    1    1    2    0    0 -0.84954103934E+01 -0.61812954020E+00 -0.13857903902E+02  0.16363169358E+02  0.17770000000E+01 0.  1.
         15    1    1    2    0    0  0.33273184155E+01  0.72930342704E+01 -0.49723724575E+01  0.95990423253E+01  0.17770000000E+01 0. -1.
</event>
<event>
 6    1  0.1823098E-004  0.5011809E+03  0.7546771E-02  0.9397171E-01
        -11   -1    0    0    0    0  0.00000000000E+00  0.00000000000E+00  0.50000000000E+03  0.50000000000E+03  0.00000000000E+00 0.  1.
         11   -1    0    0    0    0 -0.00000000000E+00 -0.00000000000E+00 -0.50000000000E+03  0.50000000000E+03  0.00000000000E+00 0.  1.
        -11    1    1    2    0    0  0.21989650363E+01  0.88093384853E+01  0.49873645432E+03  0.49881909623E+03  0.00000000000E+00 0.  1.
         11    1    1    2    0    0 -0.13819622162E+01  0.10128614087E+02 -0.39757750635E+03  0.39770890384E+03  0.00000000000E+00 0.  1.
        -15    1    1    2    0    0  0.17916345200E+01 -0.77752571907E+01 -0.64641151297E+02  0.65155972471E+02  0.17770000000E+01 0. -1.
         15    1    1    2    0    0 -0.26086373401E+01 -0.11162695382E+02 -0.36517796679E+02  0.38316027459E+02  0.17770000000E+01 0.  1.
</event>
<event>
 6    1  0.1823098E-004  0.5034436E+03  0.7546771E-02  0.9392137E-01
        -11   -1    0    0    0    0  0.00000000000E+00  0.00000000000E+00  0.50000000000E+03  0.50000000000E+03  0.00000000000E+00 0. -1.
         11   -1    0    0    0    0 -0.00000000000E+00 -0.00000000000E+00 -0.50000000000E+03  0.50000000000E+03  0.00000000000E+00 0. -1.
        -11    1    1    2    0    0 -0.31246593042E+01  0.12717708864E+02  0.49638363685E+03  0.49655635989E+03  0.00000000000E+00 0. -1.
         11    1    1    2    0    0 -0.47283822493E+01  0.11943003950E+02 -0.44713955132E+03  0.44732401154E+03  0.00000000000E+00 0. -1.
        -15    1    1    2    0    0  0.82350322228E+01 -0.18833517176E+02 -0.40545587735E+02  0.45493071327E+02  0.17770000000E+01 0.  1.
         15    1    1    2    0    0 -0.38199066925E+00 -0.58271956385E+01 -0.86984977965E+01  0.10626557241E+02  0.17770000000E+01 0. -1.
</event>
<event>
 6    1  0.1823098E-004  0.5004781E+03  0.7546771E-02  0.9398740E-01
        -11   -1    0    0    0    0  0.00000000000E+00  0.00000000000E+00  0.50000000000E+03  0.50000000000E+03  0.00000000000E+00 0. -1.
         11   -1    0    0    0    0 -0.00000000000E+00 -0.00000000000E+00 -0.50000000000E+03  0.50000000000E+03  0.00000000000E+00 0. -1.
        -11    1    1    2    0    0 -0.75182653472E+01  0.36724912715E+01  0.49945178338E+03  0.49952186682E+03  0.00000000000E+00 0. -1.
         11    1    1    2    0    0  0.37849518395E+01 -0.64679252833E+01 -0.46324561348E+03  0.46330622522E+03  0.00000000000E+00 0. -1.
        -15    1    1    2    0    0  0.32127835385E+01  0.42189549415E+01 -0.30460165676E+02  0.30969355513E+02  0.17770000000E+01 0.  1.
         15    1    1    2    0    0  0.52052996920E+00 -0.14235209297E+01 -0.57460042261E+01  0.62025524466E+01  0.17770000000E+01 0. -1.
</event>
<event>
 6    1  0.1823098E-004  0.5032467E+03  0.7546771E-02  0.9392574E-01
        -11   -1    0    0    0    0  0.00000000000E+00  0.00000000000E+00  0.50000000000E+03  0.50000000000E+03  0.00000000000E+00 0.  1.
         11   -1    0    0    0    0 -0.00000000000E+00 -0.00000000000E+00 -0.50000000000E+03  0.50000000000E+03  0.00000000000E+00 0.  1.
        -11    1    1    2    0    0 -0.61937233848E+01 -0.45902198992E+01  0.49669351696E+03  0.49675334133E+03  0.00000000000E+00 0.  1.
         11    1    1    2    0    0 -0.84964872778E+01  0.94801974706E+00 -0.44958500731E+03  0.44966628497E+03  0.00000000000E+00 0.  1.
        -15    1    1    2    0    0  0.24046030174E+01  0.63081745319E+01 -0.28560405754E+01  0.75425379259E+01  0.17770000000E+01 0. -1.
         15    1    1    2    0    0  0.12285607645E+02 -0.26659743797E+01 -0.44252469078E+02  0.46037835777E+02  0.17770000000E+01 0.  1.
</event>
<event>
 6    1  0.1823098E-004  0.5004341E+03  0.7546771E-02  0.9398839E-01
        -11   -1    0    0    0    0  0.00000000000E+00  0.00000000000E+00  0.50000000000E+03  0.50000000000E+03  0.00000000000E+00 0.  1.
         11   -1    0    0    0    0 -0.00000000000E+00 -0.00000000000E+00 -0.50000000000E+03  0.50000000000E+03  0.00000000000E+00 0. -1.
        -11    1    1    2    0    0  0.72513132078E+01  0.41127112448E+01  0.49949636876E+03  0.49956592993E+03  0.00000000000E+00 0.  1.
         11    1    1    2    0    0  0.46809210995E+01 -0.59999487970E+01 -0.39580333566E+03  0.39587648444E+03  0.00000000000E+00 0. -1.
        -15    1    1    2    0    0 -0.79376810658E+01  0.11612266067E+01 -0.82373522554E+02  0.82782305929E+02  0.17770000000E+01 0. -1.
         15    1    1    2    0    0 -0.39945532414E+01  0.72601094551E+00 -0.21319510546E+02  0.21775279709E+02  0.17770000000E+01 0.  1.
</event>
<event>
 6    1  0.2061292E-004  0.5019299E+03  0.7546771E-02  0.9395502E-01
        -11   -1    0    0    0    0  0.00000000000E+00  0.00000000000E+00  0.50000000000E+03  0.50000000000E+03  0.00000000000E+00 0.  1.
         11   -1    0    0    0    0 -0.00000000000E+00 -0.00000000000E+00 -0.50000000000E+03  0.50000000000E+03  0.00000000000E+00 0. -1.
        -11    1    1    2    0    0 -0.55100140637E+01 -0.40103194596E+01  0.44912888631E+03  0.44918058666E+03  0.00000000000E+00 0.  1.
         11    1    1    2    0    0 -0.83251155825E+01  0.10136554376E+02 -0.49789735870E+03  0.49807011262E+03  0.00000000000E+00 0. -1.
        -15    1    1    2    0    0  0.10368430333E+02 -0.72130603934E+01  0.20158507525E+02  0.23854889278E+02  0.17770000000E+01 0.  1.
         15    1    1    2    0    0  0.34666993133E+01  0.10868254770E+01  0.28609964866E+02  0.28894411438E+02  0.17770000000E+01 0. -1.
</event>
<event>
 6    1  0.1823098E-004  0.5003390E+03  0.7546771E-02  0.9399052E-01
        -11   -1    0    0    0    0  0.00000000000E+00  0.00000000000E+00  0.50000000000E+03  0.50000000000E+03  0.00000000000E+00 0. -1.
         11   -1    0    0    0    0 -0.00000000000E+00 -0.00000000000E+00 -0.50000000000E+03  0.50000000000E+03  0.00000000000E+00 0. -1.
        -11    1    1    2    0    0  0.16445522520E+00  0.84568745622E+00  0.39432758048E+02  0.39442168298E+02  0.00000000000E+00 0. -1.
         11    1    1    2    0    0 -0.33718287980E+01  0.41825337855E+02 -0.49789597961E+03  0.49966101972E+03  0.00000000000E+00 0. -1.
        -15    1    1    2    0    0  0.10342920210E+02 -0.32921936912E+02  0.30582079464E+03  0.30776670725E+03  0.17770000000E+01 0. -1.
         15    1    1    2    0    0 -0.71355466375E+01 -0.97490883984E+01  0.15264242692E+03  0.15313010473E+03  0.17770000000E+01 0.  1.
</event>
<event>
 6    1  0.1823098E-004  0.5002471E+03  0.7546771E-02  0.9399257E-01
        -11   -1    0    0    0    0  0.00000000000E+00  0.00000000000E+00  0.50000000000E+03  0.50000000000E+03  0.00000000000E+00 0. -1.
         11   -1    0    0    0    0 -0.00000000000E+00 -0.00000000000E+00 -0.50000000000E+03  0.50000000000E+03  0.00000000000E+00 0.  1.
        -11    1    1    2    0    0  0.42730587665E+01 -0.16815251196E+01  0.18705119177E+03  0.18710754902E+03  0.00000000000E+00 0. -1.
         11    1    1    2    0    0 -0.39135938731E+01  0.22677370618E+02 -0.49922278854E+03  0.49975291090E+03  0.00000000000E+00 0.  1.
        -15    1    1    2    0    0  0.14350212728E+01 -0.21658411878E+02  0.26376208218E+03  0.26465966791E+03  0.17770000000E+01 0.  1.
         15    1    1    2    0    0 -0.17944861662E+01  0.66256638049E+00  0.48409514583E+02  0.48479872173E+02  0.17770000000E+01 0. -1.
</event>
<event>
 6    1  0.1823098E-004  0.5050702E+03  0.7546771E-02  0.9388536E-01
        -11   -1    0    0    0    0  0.00000000000E+00  0.00000000000E+00  0.50000000000E+03  0.50000000000E+03  0.00000000000E+00 0.  1.
         11   -1    0    0    0    0 -0.00000000000E+00 -0.00000000000E+00 -0.50000000000E+03  0.50000000000E+03  0.00000000000E+00 0. -1.
        -11    1    1    2    0    0  0.19118303545E+01 -0.71364463970E+01  0.49487465805E+03  0.49492980426E+03  0.00000000000E+00 0.  1.
         11    1    1    2    0    0 -0.33232242758E+02 -0.18685743245E+02 -0.36847083108E+03  0.37043797364E+03  0.00000000000E+00 0. -1.
        -15    1    1    2    0    0  0.13544461499E+02  0.18187314481E+01 -0.21441992444E+02  0.25488762040E+02  0.17770000000E+01 0.  1.
         15    1    1    2    0    0  0.17775950904E+02  0.24003458194E+02 -0.10496183454E+03  0.10914346006E+03  0.17770000000E+01 0. -1.
</event>
<event>
 6    1  0.1823098E-004  0.4928501E+03  0.7546771E-02  0.9415952E-01
        -11   -1    0    0    0    0  0.00000000000E+00  0.00000000000E+00  0.50000000000E+03  0.50000000000E+03  0.00000000000E+00 0. -1.
         11   -1    0    0    0    0 -0.00000000000E+00 -0.00000000000E+00 -0.50000000000E+03  0.50000000000E+03  0.00000000000E+00 0. -1.
        -11    1    1    2    0    0  0.81128537497E+00  0.87570487263E+01  0.49038411715E+03  0.49046297153E+03  0.00000000000E+00 0. -1.
         11    1    1    2    0    0 -0.12140712166E+02 -0.94281244002E+01 -0.49507518598E+03  0.49531376540E+03  0.00000000000E+00 0. -1.
        -15    1    1    2    0    0  0.50502413757E+01 -0.27799103116E+01  0.18004719606E+01  0.62954163940E+01  0.17770000000E+01 0.  1.
         15    1    1    2    0    0  0.62791854150E+01  0.34509859855E+01  0.28905968699E+01  0.79278466819E+01  0.17770000000E+01 0. -1.
</event>
<event>
 6    1  0.1823098E-004  0.5051771E+03  0.7546771E-02  0.9388300E-01
        -11   -1    0    0    0    0  0.00000000000E+00  0.00000000000E+00  0.50000000000E+03  0.50000000000E+03  0.00000000000E+00 0.  1.
         11   -1    0    0    0    0 -0.00000000000E+00 -0.00000000000E+00 -0.50000000000E+03  0.50000000000E+03  0.00000000000E+00 0. -1.
        -11    1    1    2    0    0  0.40756870885E+02  0.13216581180E+02  0.49296444190E+03  0.49482293956E+03  0.00000000000E+00 0.  1.
         11    1    1    2    0    0 -0.35470798184E+02  0.27164899962E+01 -0.17653711564E+03  0.18008584076E+03  0.00000000000E+00 0. -1.
        -15    1    1    2    0    0 -0.12472679173E+02  0.12922181488E+02 -0.19109101097E+02  0.26284329436E+02  0.17770000000E+01 0.  1.
         15    1    1    2    0    0  0.71866064722E+01 -0.28855252664E+02 -0.29731822516E+03  0.29880689024E+03  0.17770000000E+01 0. -1.
</event>
<event>
 6    1  0.1823098E-004  0.5001575E+03  0.7546771E-02  0.9399457E-01
        -11   -1    0    0    0    0  0.00000000000E+00  0.00000000000E+00  0.50000000000E+03  0.50000000000E+03  0.00000000000E+00 0. -1.
         11   -1    0    0    0    0 -0.00000000000E+00 -0.00000000000E+00 -0.50000000000E+03  0.50000000000E+03  0.00000000000E+00 0. -1.
        -11    1    1    2    0    0 -0.54710147351E+01 -0.14672135769E+02  0.49959714366E+03  0.49984248471E+03  0.00000000000E+00 0. -1.
         11    1    1    2    0    0 -0.52512440073E+01  0.24665321836E+01 -0.14245056734E+03  0.14256866234E+03  0.00000000000E+00 0. -1.
        -15    1    1    2    0    0  0.91363347085E+01  0.11718567418E+02 -0.32793749840E+03  0.32827878095E+03  0.17770000000E+01 0.  1.
         15    1    1    2    0    0  0.15859240339E+01  0.48703616706E+00 -0.29209077910E+02  0.29310072000E+02  0.17770000000E+01 0. -1.
</event>
<event>
 6    1  0.1823098E-004  0.5000708E+03  0.7546771E-02  0.9399651E-01
        -11   -1    0    0    0    0  0.00000000000E+00  0.00000000000E+00  0.50000000000E+03  0.50000000000E+03  0.00000000000E+00 0.  1.
         11   -1    0    0    0    0 -0.00000000000E+00 -0.00000000000E+00 -0.50000000000E+03  0.50000000000E+03  0.00000000000E+00 0.  1.
        -11    1    1    2    0    0  0.29656302390E+01  0.21552003378E+01  0.24378517922E+03  0.24381274261E+03  0.00000000000E+00 0.  1.
         11    1    1    2    0    0 -0.64549000438E+01 -0.31447982270E+01 -0.49987760095E+03  0.49992916641E+03  0.00000000000E+00 0.  1.
        -15    1    1    2    0    0 -0.12886617896E+01  0.26045979915E+01  0.14147366193E+03  0.14151466118E+03  0.17770000000E+01 0.  1.
         15    1    1    2    0    0  0.47779315944E+01 -0.16150001023E+01  0.11461875981E+03  0.11474342981E+03  0.17770000000E+01 0. -1.
</event>
<event>
 6    1  0.1823098E-004  0.5003463E+03  0.7546771E-02  0.9399035E-01
        -11   -1    0    0    0    0  0.00000000000E+00  0.00000000000E+00  0.50000000000E+03  0.50000000000E+03  0.00000000000E+00 0. -1.
         11   -1    0    0    0    0 -0.00000000000E+00 -0.00000000000E+00 -0.50000000000E+03  0.50000000000E+03  0.00000000000E+00 0.  1.
        -11    1    1    2    0    0  0.35993855145E+01 -0.58194976584E+01  0.49960687904E+03  0.49965373581E+03  0.00000000000E+00 0. -1.
         11    1    1    2    0    0  0.10283387449E+02  0.28526355964E+01 -0.18481332135E+03  0.18512117473E+03  0.00000000000E+00 0.  1.
        -15    1    1    2    0    0 -0.24729146656E+01  0.10990224388E+01 -0.26919616910E+02  0.27113588122E+02  0.17770000000E+01 0. -1.
         15    1    1    2    0    0 -0.11409858298E+02  0.18678396232E+01 -0.28787394078E+03  0.28811150133E+03  0.17770000000E+01 0.  1.
</event>
<event>
 6    1  0.1823098E-004  0.5002318E+03  0.7546771E-02  0.9399291E-01
        -11   -1    0    0    0    0  0.00000000000E+00  0.00000000000E+00  0.50000000000E+03  0.50000000000E+03  0.00000000000E+00 0. -1.
         11   -1    0    0    0    0 -0.00000000000E+00 -0.00000000000E+00 -0.50000000000E+03  0.50000000000E+03  0.00000000000E+00 0.  1.
        -11    1    1    2    0    0  0.11632426667E+00 -0.14563317028E+02  0.49955590420E+03  0.49976815140E+03  0.00000000000E+00 0. -1.
         11    1    1    2    0    0  0.49426096609E+01  0.15600389021E+02 -0.22856430749E+03  0.22914939272E+03  0.00000000000E+00 0.  1.
        -15    1    1    2    0    0 -0.19991877218E+01 -0.27759559599E-01 -0.17487588552E+03  0.17489634241E+03  0.17770000000E+01 0.  1.
         15    1    1    2    0    0 -0.30597462057E+01 -0.10093124336E+01 -0.96115711189E+02  0.96186113471E+02  0.17770000000E+01 0.  1.
</event>
<event>
 6    1  0.1823098E-004  0.5012251E+03  0.7546771E-02  0.9397073E-01
        -11   -1    0    0    0    0  0.00000000000E+00  0.00000000000E+00  0.50000000000E+03  0.50000000000E+03  0.00000000000E+00 0.  1.
         11   -1    0    0    0    0 -0.00000000000E+00 -0.00000000000E+00 -0.50000000000E+03  0.50000000000E+03  0.00000000000E+00 0.  1.
        -11    1    1    2    0    0  0.64996869968E+01  0.63750942759E+01  0.49869180693E+03  0.49877490520E+03  0.00000000000E+00 0.  1.
         11    1    1    2    0    0  0.79048190521E+01 -0.48215647971E+01 -0.20598810131E+02  0.22584167688E+02  0.00000000000E+00 0.  1.
        -15    1    1    2    0    0 -0.14902998951E+02 -0.47651901269E+01 -0.45323417698E+03  0.45350764418E+03  0.17770000000E+01 0.  1.
         15    1    1    2    0    0  0.49849290250E+00  0.32116606481E+01 -0.24858819817E+02  0.25133282933E+02  0.17770000000E+01 0.  1.
</event>
<event>
 6    1  0.1823098E-004  0.5020463E+03  0.7546771E-02  0.9395243E-01
        -11   -1    0    0    0    0  0.00000000000E+00  0.00000000000E+00  0.50000000000E+03  0.50000000000E+03  0.00000000000E+00 0.  1.
         11   -1    0    0    0    0 -0.00000000000E+00 -0.00000000000E+00 -0.50000000000E+03  0.50000000000E+03  0.00000000000E+00 0. -1.
        -11    1    1    2    0    0 -0.22650093475E+02  0.29308554997E+01  0.49742971290E+03  0.49795374878E+03  0.00000000000E+00 0.  1.
         11    1    1    2    0    0  0.24728205230E+02  0.23712108777E+02 -0.24380806490E+03  0.24620341335E+03  0.00000000000E+00 0. -1.
        -15    1    1    2    0    0 -0.41729640126E+01 -0.13783734382E+02 -0.58287167935E+02  0.60066268712E+02  0.17770000000E+01 0. -1.
         15    1    1    2    0    0  0.20948522582E+01 -0.12859229895E+02 -0.19533448007E+03  0.19577656916E+03  0.17770000000E+01 0.  1.
</event>
<event>
 6    1  0.1823098E-004  0.5047726E+03  0.7546771E-02  0.9389194E-01
        -11   -1    0    0    0    0  0.00000000000E+00  0.00000000000E+00  0.50000000000E+03  0.50000000000E+03  0.00000000000E+00 0. -1.
         11   -1    0    0    0    0 -0.00000000000E+00 -0.00000000000E+00 -0.50000000000E+03  0.50000000000E+03  0.00000000000E+00 0. -1.
        -11    1    1    2    0    0  0.94790414231E+01  0.11921058180E+00  0.49210213308E+03  0.49219343334E+03  0.00000000000E+00 0. -1.
         11    1    1    2    0    0 -0.81466584369E+01  0.48069511812E+00 -0.49516014682E+03  0.49522739233E+03  0.00000000000E+00 0. -1.
        -15    1    1    2    0    0  0.20983311979E+01  0.10822694998E-01 -0.37961587722E+01  0.46873938783E+01  0.17770000000E+01 0. -1.
         15    1    1    2    0    0 -0.34307141841E+01 -0.61072839492E+00  0.68541725135E+01  0.78917804601E+01  0.17770000000E+01 0.  1.
</event>
<event>
 6    1  0.1823098E-004  0.5051717E+03  0.7546771E-02  0.9388311E-01
        -11   -1    0    0    0    0  0.00000000000E+00  0.00000000000E+00  0.50000000000E+03  0.50000000000E+03  0.00000000000E+00 0. -1.
         11   -1    0    0    0    0 -0.00000000000E+00 -0.00000000000E+00 -0.50000000000E+03  0.50000000000E+03  0.00000000000E+00 0. -1.
        -11    1    1    2    0    0  0.69529026118E+00  0.95099510605E+01  0.46678020090E+03  0.46687758411E+03  0.00000000000E+00 0. -1.
         11    1    1    2    0    0 -0.18560422504E+02  0.87065399898E+01 -0.49440344655E+03  0.49482831475E+03  0.00000000000E+00 0. -1.
        -15    1    1    2    0    0  0.45610374931E+01 -0.18527456794E+01  0.70290021272E+01  0.87635797178E+01  0.17770000000E+01 0. -1.
         15    1    1    2    0    0  0.13304094749E+02 -0.16363745371E+02  0.20594243524E+02  0.29530521414E+02  0.17770000000E+01 0.  1.
</event>
<event>
 6    1  0.1823098E-004  0.5000777E+03  0.7546771E-02  0.9399636E-01
        -11   -1    0    0    0    0  0.00000000000E+00  0.00000000000E+00  0.50000000000E+03  0.50000000000E+03  0.00000000000E+00 0. -1.
         11   -1    0    0    0    0 -0.00000000000E+00 -0.00000000000E+00 -0.50000000000E+03  0.50000000000E+03  0.00000000000E+00 0.  1.
        -11    1    1    2    0    0  0.26290091649E+02 -0.17025868090E+02  0.49894010779E+03  0.49992227422E+03  0.00000000000E+00 0. -1.
         11    1    1    2    0    0 -0.17987982797E+02  0.73984212073E+01 -0.28749872050E+03  0.28815589262E+03  0.00000000000E+00 0.  1.
        -15    1    1    2    0    0 -0.29172663492E+01  0.14224089674E+01 -0.88173635311E+02  0.88251240123E+02  0.17770000000E+01 0. -1.
         15    1    1    2    0    0 -0.53848425024E+01  0.82050379157E+01 -0.12326775197E+03  0.12367059303E+03  0.17770000000E+01 0.  1.
</event>
<event>
 6    1  0.1823098E-004  0.5058548E+03  0.7546771E-02  0.9386804E-01
        -11   -1    0    0    0    0  0.00000000000E+00  0.00000000000E+00  0.50000000000E+03  0.50000000000E+03  0.00000000000E+00 0.  1.
         11   -1    0    0    0    0 -0.00000000000E+00 -0.00000000000E+00 -0.50000000000E+03  0.50000000000E+03  0.00000000000E+00 0. -1.
        -11    1    1    2    0    0 -0.11789492333E+02 -0.11472484493E+02  0.43324603612E+03  0.43355822890E+03  0.00000000000E+00 0.  1.
         11    1    1    2    0    0 -0.26059162532E+02  0.90244425487E+01 -0.49337504040E+03  0.49414517200E+03  0.00000000000E+00 0. -1.
        -15    1    1    2    0    0  0.68510025488E+01 -0.33820395693E+01  0.18031822445E+02  0.19664149543E+02  0.17770000000E+01 0.  1.
         15    1    1    2    0    0  0.30997652317E+02  0.58300815139E+01  0.42097181837E+02  0.52632449565E+02  0.17770000000E+01 0. -1.
</event>
<event>
 6    1  0.1823098E-004  0.5027540E+03  0.7546771E-02  0.9393668E-01
        -11   -1    0    0    0    0  0.00000000000E+00  0.00000000000E+00  0.50000000000E+03  0.50000000000E+03  0.00000000000E+00 0. -1.
         11   -1    0    0    0    0 -0.00000000000E+00 -0.00000000000E+00 -0.50000000000E+03  0.50000000000E+03  0.00000000000E+00 0. -1.
        -11    1    1    2    0    0 -0.68275498518E+01  0.43032090702E+01  0.48426229992E+03  0.48432954501E+03  0.00000000000E+00 0. -1.
         11    1    1    2    0    0 -0.58116956208E+00 -0.13390535836E+02  0.12641885735E+02  0.18424480535E+02  0.00000000000E+00 0. -1.
        -15    1    1    2    0    0  0.60814033075E+01 -0.16148246749E+01 -0.11524050669E+03  0.11542583435E+03  0.17770000000E+01 0.  1.
         15    1    1    2    0    0  0.13273161063E+01  0.10702151440E+02 -0.38166367897E+03  0.38182014010E+03  0.17770000000E+01 0. -1.
</event>
<event>
 6    1  0.1823098E-004  0.5002197E+03  0.7546771E-02  0.9399318E-01
        -11   -1    0    0    0    0  0.00000000000E+00  0.00000000000E+00  0.50000000000E+03  0.50000000000E+03  0.00000000000E+00 0.  1.
         11   -1    0    0    0    0 -0.00000000000E+00 -0.00000000000E+00 -0.50000000000E+03  0.50000000000E+03  0.00000000000E+00 0. -1.
        -11    1    1    2    0    0  0.55546739182E+01  0.77691410795E+01  0.49968903586E+03  0.49978029824E+03  0.00000000000E+00 0.  1.
         11    1    1    2    0    0  0.54207978932E+01  0.30485605359E+01 -0.10369954036E+03  0.10388586738E+03  0.00000000000E+00 0. -1.
        -15    1    1    2    0    0 -0.24685958677E+01 -0.96401666466E+00 -0.56295246365E+02  0.56385599101E+02  0.17770000000E+01 0. -1.
         15    1    1    2    0    0 -0.85068759437E+01 -0.98536849508E+01 -0.33969424913E+03  0.33994823527E+03  0.17770000000E+01 0. -1.
</event>
<event>
 6    1  0.1823098E-004  0.5019143E+03  0.7546771E-02  0.9395536E-01
        -11   -1    0    0    0    0  0.00000000000E+00  0.00000000000E+00  0.50000000000E+03  0.50000000000E+03  0.00000000000E+00 0.  1.
         11   -1    0    0    0    0 -0.00000000000E+00 -0.00000000000E+00 -0.50000000000E+03  0.50000000000E+03  0.00000000000E+00 0.  1.
        -11    1    1    2    0    0 -0.27733134458E+01  0.59055052598E+01  0.46507933182E+03  0.46512509193E+03  0.00000000000E+00 0.  1.
         11    1    1    2    0    0 -0.72653205354E+01 -0.10827261031E+02 -0.49791498810E+03  0.49808568524E+03  0.00000000000E+00 0.  1.
        -15    1    1    2    0    0 -0.13807214730E+01  0.73258620226E-01  0.80015767806E+00  0.23895062087E+01  0.17770000000E+01 0.  1.
         15    1    1    2    0    0  0.11419355454E+02  0.48484971508E+01  0.32035498606E+02  0.34399716620E+02  0.17770000000E+01 0.  1.
</event>
<event>
 6    1  0.1823098E-004  0.4912520E+03  0.7546771E-02  0.9419600E-01
        -11   -1    0    0    0    0  0.00000000000E+00  0.00000000000E+00  0.50000000000E+03  0.50000000000E+03  0.00000000000E+00 0.  1.
         11   -1    0    0    0    0 -0.00000000000E+00 -0.00000000000E+00 -0.50000000000E+03  0.50000000000E+03  0.00000000000E+00 0. -1.
        -11    1    1    2    0    0 -0.15732359339E+01 -0.66258840408E+01  0.49368484433E+03  0.49373181276E+03  0.00000000000E+00 0.  1.
         11    1    1    2    0    0 -0.87935508998E+01  0.53651355543E+01 -0.48873160574E+03  0.48884015145E+03  0.00000000000E+00 0. -1.
        -15    1    1    2    0    0  0.86246105231E+01 -0.13474356137E+01 -0.85415664907E+01  0.12341619688E+02  0.17770000000E+01 0.  1.
         15    1    1    2    0    0  0.17421763106E+01  0.26081841001E+01  0.35883279068E+01  0.50864161022E+01  0.17770000000E+01 0. -1.
</event>
<event>
 6    1  0.1823098E-004  0.5006368E+03  0.7546771E-02  0.9398386E-01
        -11   -1    0    0    0    0  0.00000000000E+00  0.00000000000E+00  0.50000000000E+03  0.50000000000E+03  0.00000000000E+00 0. -1.
         11   -1    0    0    0    0 -0.00000000000E+00 -0.00000000000E+00 -0.50000000000E+03  0.50000000000E+03  0.00000000000E+00 0. -1.
        -11    1    1    2    0    0  0.77247950332E+01 -0.44607822751E+01  0.49928353455E+03  0.49936321342E+03  0.00000000000E+00 0. -1.
         11    1    1    2    0    0 -0.45147312789E+01  0.12485470866E+02 -0.29252138249E+03  0.29282252133E+03  0.00000000000E+00 0. -1.
        -15    1    1    2    0    0  0.11073631475E+01 -0.38909980306E+01 -0.97618653955E+01  0.10715309786E+02  0.17770000000E+01 0. -1.
         15    1    1    2    0    0 -0.43174269018E+01 -0.41336905603E+01 -0.19700028667E+03  0.19709895547E+03  0.17770000000E+01 0.  1.
</event>
<event>
 6    1  0.1823098E-004  0.5002155E+03  0.7546771E-02  0.9399328E-01
        -11   -1    0    0    0    0  0.00000000000E+00  0.00000000000E+00  0.50000000000E+03  0.50000000000E+03  0.00000000000E+00 0. -1.
         11   -1    0    0    0    0 -0.00000000000E+00 -0.00000000000E+00 -0.50000000000E+03  0.50000000000E+03  0.00000000000E+00 0. -1.
        -11    1    1    2    0    0 -0.26672656298E+01 -0.74240474571E+01  0.33489231642E+03  0.33498521517E+03  0.00000000000E+00 0. -1.
         11    1    1    2    0    0  0.52134814001E+01  0.20625630596E+02 -0.49933146193E+03  0.49978445944E+03  0.00000000000E+00 0. -1.
        -15    1    1    2    0    0 -0.39990881650E+01 -0.12732161607E+02  0.14992773316E+03  0.15053100526E+03  0.17770000000E+01 0.  1.
         15    1    1    2    0    0  0.14528723947E+01 -0.46942153218E+00  0.14511412345E+02  0.14699320121E+02  0.17770000000E+01 0. -1.
</event>
<event>
 6    1  0.1823098E-004  0.5003253E+03  0.7546771E-02  0.9399082E-01
        -11   -1    0    0    0    0  0.00000000000E+00  0.00000000000E+00  0.50000000000E+03  0.50000000000E+03  0.00000000000E+00 0. -1.
         11   -1    0    0    0    0 -0.00000000000E+00 -0.00000000000E+00 -0.50000000000E+03  0.50000000000E+03  0.00000000000E+00 0.  1.
        -11    1    1    2    0    0 -0.49557979504E+01  0.12622311410E+02  0.49949069955E+03  0.49967473582E+03  0.00000000000E+00 0. -1.
         11    1    1    2    0    0  0.31987532934E+01 -0.39077770847E+00 -0.87931989064E+01  0.93650988706E+01  0.00000000000E+00 0.  1.
        -15    1    1    2    0    0  0.28220944530E+01  0.22191433554E+00 -0.83065596567E+02  0.83132812566E+02  0.17770000000E+01 0. -1.
         15    1    1    2    0    0 -0.10650497960E+01 -0.12453448037E+02 -0.40763190407E+03  0.40782735275E+03  0.17770000000E+01 0.  1.
</event>
<event>
 6    1  0.1823098E-004  0.5021539E+03  0.7546771E-02  0.9395003E-01
        -11   -1    0    0    0    0  0.00000000000E+00  0.00000000000E+00  0.50000000000E+03  0.50000000000E+03  0.00000000000E+00 0. -1.
         11   -1    0    0    0    0 -0.00000000000E+00 -0.00000000000E+00 -0.50000000000E+03  0.50000000000E+03  0.00000000000E+00 0.  1.
        -11    1    1    2    0    0  0.66454345786E+01  0.52059833374E+01  0.40916742387E+03  0.40925449884E+03  0.00000000000E+00 0. -1.
         11    1    1    2    0    0  0.20340371894E+01  0.12927350535E+02 -0.49767406338E+03  0.49784608772E+03  0.00000000000E+00 0.  1.
        -15    1    1    2    0    0 -0.12547828339E+01 -0.58441358855E+01  0.64992889350E+02  0.65291360832E+02  0.17770000000E+01 0.  1.
         15    1    1    2    0    0 -0.74246889341E+01 -0.12289197987E+02  0.23513750164E+02  0.27608052606E+02  0.17770000000E+01 0. -1.
</event>
<event>
 6    1  0.1823098E-004  0.5155108E+03  0.7546771E-02  0.9365757E-01
        -11   -1    0    0    0    0  0.00000000000E+00  0.00000000000E+00  0.50000000000E+03  0.50000000000E+03  0.00000000000E+00 0.  1.
         11   -1    0    0    0    0 -0.00000000000E+00 -0.00000000000E+00 -0.50000000000E+03  0.50000000000E+03  0.00000000000E+00 0.  1.
        -11    1    1    2    0    0  0.34565037105E+01 -0.41201418574E+01  0.23299079994E+03  0.23305286062E+03  0.00000000000E+00 0.  1.
         11    1    1    2    0    0 -0.10168528073E+03  0.84452389950E+01 -0.47362284586E+03  0.48448923466E+03  0.00000000000E+00 0.  1.
        -15    1    1    2    0    0  0.93000791961E+02 -0.10637461111E+02  0.84551963296E+02  0.12615266589E+03  0.17770000000E+01 0.  1.
         15    1    1    2    0    0  0.52279850620E+01  0.63123639732E+01  0.15608008262E+03  0.15630523883E+03  0.17770000000E+01 0. -1.
</event>
<event>
 6    1  0.1823098E-004  0.5004852E+03  0.7546771E-02  0.9398725E-01
        -11   -1    0    0    0    0  0.00000000000E+00  0.00000000000E+00  0.50000000000E+03  0.50000000000E+03  0.00000000000E+00 0. -1.
         11   -1    0    0    0    0 -0.00000000000E+00 -0.00000000000E+00 -0.50000000000E+03  0.50000000000E+03  0.00000000000E+00 0.  1.
        -11    1    1    2    0    0 -0.47943882307E+01  0.86068369765E+01  0.49941767848E+03  0.49951484601E+03  0.00000000000E+00 0. -1.
         11    1    1    2    0    0 -0.11145430426E+02 -0.28434450625E+01 -0.30802712140E+03  0.30824180982E+03  0.00000000000E+00 0.  1.
        -15    1    1    2    0    0  0.96875004940E+01 -0.51658928910E+01 -0.99066566896E+02  0.99688898684E+02  0.17770000000E+01 0.  1.
         15    1    1    2    0    0  0.62523181623E+01 -0.59749902304E+00 -0.92323990186E+02  0.92554445492E+02  0.17770000000E+01 0. -1.
</event>
<event>
 6    1  0.1823098E-004  0.5091343E+03  0.7546771E-02  0.9379600E-01
        -11   -1    0    0    0    0  0.00000000000E+00  0.00000000000E+00  0.50000000000E+03  0.50000000000E+03  0.00000000000E+00 0. -1.
         11   -1    0    0    0    0 -0.00000000000E+00 -0.00000000000E+00 -0.50000000000E+03  0.50000000000E+03  0.00000000000E+00 0. -1.
        -11    1    1    2    0    0  0.85018334018E+01  0.26189885747E+01  0.49078512806E+03  0.49086574763E+03  0.00000000000E+00 0. -1.
         11    1    1    2    0    0  0.26516006446E+01  0.15022676057E+02 -0.46501838804E+03  0.46526853859E+03  0.00000000000E+00 0. -1.
        -15    1    1    2    0    0 -0.96453601605E+00 -0.37792112406E+01  0.61898455870E+01  0.75289232110E+01  0.17770000000E+01 0.  1.
         15    1    1    2    0    0 -0.10188898030E+02 -0.13862453391E+02 -0.31956585601E+02  0.36336790576E+02  0.17770000000E+01 0. -1.
</event>
<event>
 6    1  0.1823098E-004  0.5045654E+03  0.7546771E-02  0.9389652E-01
        -11   -1    0    0    0    0  0.00000000000E+00  0.00000000000E+00  0.50000000000E+03  0.50000000000E+03  0.00000000000E+00 0.  1.
         11   -1    0    0    0    0 -0.00000000000E+00 -0.00000000000E+00 -0.50000000000E+03  0.50000000000E+03  0.00000000000E+00 0. -1.
        -11    1    1    2    0    0 -0.90321047769E+01  0.34491921127E+01  0.49534027517E+03  0.49543462137E+03  0.00000000000E+00 0.  1.
         11    1    1    2    0    0 -0.32598591275E+02  0.24925389021E+02 -0.20439215997E+03  0.20847085702E+03  0.00000000000E+00 0. -1.
        -15    1    1    2    0    0  0.29260294015E+02 -0.23029404679E+02 -0.15289780230E+03  0.15737666270E+03  0.17770000000E+01 0. -1.
         15    1    1    2    0    0  0.12370402037E+02 -0.53451764542E+01 -0.13805031291E+03  0.13871785891E+03  0.17770000000E+01 0.  1.
</event>
<event>
 6    1  0.1823098E-004  0.5076776E+03  0.7546771E-02  0.9382792E-01
        -11   -1    0    0    0    0  0.00000000000E+00  0.00000000000E+00  0.50000000000E+03  0.50000000000E+03  0.00000000000E+00 0.  1.
         11   -1    0    0    0    0 -0.00000000000E+00 -0.00000000000E+00 -0.50000000000E+03  0.50000000000E+03  0.00000000000E+00 0.  1.
        -11    1    1    2    0    0  0.93293773970E+01  0.27714085074E+01  0.49222619372E+03  0.49232239820E+03  0.00000000000E+00 0.  1.
         11    1    1    2    0    0 -0.20065936703E+02 -0.75974616082E+01 -0.91303509244E+02  0.93790692709E+02  0.00000000000E+00 0.  1.
        -15    1    1    2    0    0 -0.55005156870E+01  0.12192462875E+01  0.49270625613E+01  0.76925879140E+01  0.17770000000E+01 0. -1.
         15    1    1    2    0    0  0.16237074993E+02  0.36068068133E+01 -0.40584974703E+03  0.40619432118E+03  0.17770000000E+01 0.  1.
</event>
<event>
 6    1  0.1823098E-004  0.5001904E+03  0.7546771E-02  0.9399384E-01
        -11   -1    0    0    0    0  0.00000000000E+00  0.00000000000E+00  0.50000000000E+03  0.50000000000E+03  0.00000000000E+00 0.  1.
         11   -1    0    0    0    0 -0.00000000000E+00 -0.00000000000E+00 -0.50000000000E+03  0.50000000000E+03  0.00000000000E+00 0. -1.
        -11    1    1    2    0    0 -0.11892442557E+01 -0.86911959764E+01  0.49973262586E+03  0.49980961230E+03  0.00000000000E+00 0.  1.
         11    1    1    2    0    0  0.63496336200E+01  0.11520485555E+02 -0.38990723381E+03  0.39012906891E+03  0.00000000000E+00 0. -1.
        -15    1    1    2    0    0 -0.30855025594E+01 -0.46904935585E+00 -0.55677973433E+02  0.55793680538E+02  0.17770000000E+01 0. -1.
         15    1    1    2    0    0 -0.20748868049E+01 -0.23602402225E+01 -0.54147418626E+02  0.54267638257E+02  0.17770000000E+01 0.  1.
</event>
<event>
 6    1  0.1823098E-004  0.5005200E+03  0.7546771E-02  0.9398647E-01
        -11   -1    0    0    0    0  0.00000000000E+00  0.00000000000E+00  0.50000000000E+03  0.50000000000E+03  0.00000000000E+00 0. -1.
         11   -1    0    0    0    0 -0.00000000000E+00 -0.00000000000E+00 -0.50000000000E+03  0.50000000000E+03  0.00000000000E+00 0.  1.
        -11    1    1    2    0    0  0.14719519616E+01  0.61643726840E+01  0.38454384431E+03  0.38459606645E+03  0.00000000000E+00 0. -1.
         11    1    1    2    0    0  0.16826697728E+01  0.74861087688E+01 -0.49942108224E+03  0.49948002021E+03  0.00000000000E+00 0.  1.
        -15    1    1    2    0    0 -0.94946585139E+00 -0.52299306608E+01  0.25632287300E+02  0.26237864650E+02  0.17770000000E+01 0.  1.
         15    1    1    2    0    0 -0.22051558830E+01 -0.84205507919E+01  0.89244950631E+02  0.89686048694E+02  0.17770000000E+01 0. -1.
</event>
<event>
 6    1  0.1823098E-004  0.5033739E+03  0.7546771E-02  0.9392292E-01
        -11   -1    0    0    0    0  0.00000000000E+00  0.00000000000E+00  0.50000000000E+03  0.50000000000E+03  0.00000000000E+00 0.  1.
         11   -1    0    0    0    0 -0.00000000000E+00 -0.00000000000E+00 -0.50000000000E+03  0.50000000000E+03  0.00000000000E+00 0. -1.
        -11    1    1    2    0    0 -0.97021529676E+01  0.61716312694E+01  0.46448144326E+03  0.46462375309E+03  0.00000000000E+00 0.  1.
         11    1    1    2    0    0  0.22018153578E+01 -0.14529787073E+02 -0.49640858429E+03  0.49662606181E+03  0.00000000000E+00 0. -1.
        -15    1    1    2    0    0 -0.61508632796E+01  0.32995734421E+01  0.89046869548E+01  0.11453011951E+02  0.17770000000E+01 0. -1.
         15    1    1    2    0    0  0.13651200889E+02  0.50585823614E+01  0.23022454084E+02  0.27297173156E+02  0.17770000000E+01 0.  1.
</event>
<event>
 6    1  0.1823098E-004  0.5053850E+03  0.7546771E-02  0.9387840E-01
        -11   -1    0    0    0    0  0.00000000000E+00  0.00000000000E+00  0.50000000000E+03  0.50000000000E+03  0.00000000000E+00 0. -1.
         11   -1    0    0    0    0 -0.00000000000E+00 -0.00000000000E+00 -0.50000000000E+03  0.50000000000E+03  0.00000000000E+00 0. -1.
        -11    1    1    2    0    0 -0.17069479998E+02 -0.39410854693E+02  0.49274681893E+03  0.49461501209E+03  0.00000000000E+00 0. -1.
         11    1    1    2    0    0  0.57021840184E+01 -0.28245864507E+02 -0.24552031159E+03  0.24720551605E+03  0.00000000000E+00 0. -1.
        -15    1    1    2    0    0  0.13204927609E+00  0.79837320006E+01 -0.83086724641E+01  0.11659724730E+02  0.17770000000E+01 0.  1.
         15    1    1    2    0    0  0.11235246703E+02  0.59672987200E+02 -0.23891783488E+03  0.24651974713E+03  0.17770000000E+01 0. -1.
</event>
<event>
 6    1  0.1823098E-004  0.5002551E+03  0.7546771E-02  0.9399239E-01
        -11   -1    0    0    0    0  0.00000000000E+00  0.00000000000E+00  0.50000000000E+03  0.50000000000E+03  0.00000000000E+00 0. -1.
         11   -1    0    0    0    0 -0.00000000000E+00 -0.00000000000E+00 -0.50000000000E+03  0.50000000000E+03  0.00000000000E+00 0. -1.
        -11    1    1    2    0    0 -0.17693114947E+01 -0.76050007596E+01  0.49968391955E+03  0.49974492089E+03  0.00000000000E+00 0. -1.
         11    1    1    2    0    0  0.10478316267E+02  0.11297070544E+01 -0.26100020849E+03  0.26121290202E+03  0.00000000000E+00 0. -1.
        -15    1    1    2    0    0 -0.21095933159E+01  0.33998479724E+01 -0.44735141149E+02  0.44948859083E+02  0.17770000000E+01 0.  1.
         15    1    1    2    0    0 -0.65994114560E+01  0.30754457328E+01 -0.19394856991E+03  0.19409331801E+03  0.17770000000E+01 0. -1.
</event>
<event>
 6    1  0.1823098E-004  0.5017333E+03  0.7546771E-02  0.9395940E-01
        -11   -1    0    0    0    0  0.00000000000E+00  0.00000000000E+00  0.50000000000E+03  0.50000000000E+03  0.00000000000E+00 0. -1.
         11   -1    0    0    0    0 -0.00000000000E+00 -0.00000000000E+00 -0.50000000000E+03  0.50000000000E+03  0.00000000000E+00 0. -1.
        -11    1    1    2    0    0  0.79777213793E+01 -0.35098150326E+00  0.42077234330E+03  0.42084811050E+03  0.00000000000E+00 0. -1.
         11    1    1    2    0    0 -0.12952600477E+02  0.13624828013E+02 -0.49791192865E+03  0.49826669012E+03  0.00000000000E+00 0. -1.
        -15    1    1    2    0    0  0.80965331253E+01 -0.17089181119E+02  0.63239021350E+02  0.66029732017E+02  0.17770000000E+01 0. -1.
         15    1    1    2    0    0 -0.31216540275E+01  0.38153346093E+01  0.13900564001E+02  0.14855467364E+02  0.17770000000E+01 0.  1.
</event>
<event>
 6    1  0.1823098E-004  0.5013854E+03  0.7546771E-02  0.9396715E-01
        -11   -1    0    0    0    0  0.00000000000E+00  0.00000000000E+00  0.50000000000E+03  0.50000000000E+03  0.00000000000E+00 0.  1.
         11   -1    0    0    0    0 -0.00000000000E+00 -0.00000000000E+00 -0.50000000000E+03  0.50000000000E+03  0.00000000000E+00 0.  1.
        -11    1    1    2    0    0 -0.11478697542E+01  0.79954375862E+01  0.35697847094E+03  0.35706984378E+03  0.00000000000E+00 0.  1.
         11    1    1    2    0    0 -0.20466403367E+02  0.64476186233E+01 -0.49815261605E+03  0.49861455488E+03  0.00000000000E+00 0.  1.
        -15    1    1    2    0    0  0.44060087795E+01  0.12845886562E+01  0.48046525867E+02  0.48297923954E+02  0.17770000000E+01 0. -1.
         15    1    1    2    0    0  0.17208264342E+02 -0.15727644866E+02  0.93127619249E+02  0.96017677387E+02  0.17770000000E+01 0.  1.
</event>
<event>
 6    1  0.1823098E-004  0.5007933E+03  0.7546771E-02  0.9398036E-01
        -11   -1    0    0    0    0  0.00000000000E+00  0.00000000000E+00  0.50000000000E+03  0.50000000000E+03  0.00000000000E+00 0. -1.
         11   -1    0    0    0    0 -0.00000000000E+00 -0.00000000000E+00 -0.50000000000E+03  0.50000000000E+03  0.00000000000E+00 0. -1.
        -11    1    1    2    0    0 -0.24384735914E+00  0.75866185592E+01  0.49914903591E+03  0.49920674704E+03  0.00000000000E+00 0. -1.
         11    1    1    2    0    0 -0.86020777643E+01  0.69955991303E+01 -0.38177561654E+03  0.38193658575E+03  0.00000000000E+00 0. -1.
        -15    1    1    2    0    0  0.67663091547E+01 -0.14353916282E+02 -0.99087311759E+02  0.10036568603E+03  0.17770000000E+01 0.  1.
         15    1    1    2    0    0  0.20796159687E+01 -0.22830140749E+00 -0.18286107614E+02  0.18490981175E+02  0.17770000000E+01 0. -1.
</event>
<event>
 6    1  0.1823098E-004  0.5000228E+03  0.7546771E-02  0.9399759E-01
        -11   -1    0    0    0    0  0.00000000000E+00  0.00000000000E+00  0.50000000000E+03  0.50000000000E+03  0.00000000000E+00 0.  1.
         11   -1    0    0    0    0 -0.00000000000E+00 -0.00000000000E+00 -0.50000000000E+03  0.50000000000E+03  0.00000000000E+00 0.  1.
        -11    1    1    2    0    0  0.35146009157E+01 -0.20018135708E+01  0.15086572564E+03  0.15091993523E+03  0.00000000000E+00 0.  1.
         11    1    1    2    0    0 -0.12385077032E+02  0.56323716205E+00 -0.49982349199E+03  0.49997722999E+03  0.00000000000E+00 0.  1.
        -15    1    1    2    0    0  0.43699302382E+01  0.11314167136E+01  0.12803303847E+03  0.12812491195E+03  0.17770000000E+01 0.  1.
         15    1    1    2    0    0  0.45005458781E+01  0.30715969515E+00  0.22092472788E+03  0.22097792283E+03  0.17770000000E+01 0. -1.
</event>
<event>
 6    1  0.1823098E-004  0.5001976E+03  0.7546771E-02  0.9399368E-01
        -11   -1    0    0    0    0  0.00000000000E+00  0.00000000000E+00  0.50000000000E+03  0.50000000000E+03  0.00000000000E+00 0. -1.
         11   -1    0    0    0    0 -0.00000000000E+00 -0.00000000000E+00 -0.50000000000E+03  0.50000000000E+03  0.00000000000E+00 0.  1.
        -11    1    1    2    0    0  0.43400380420E+01  0.70879837007E+01  0.49973327412E+03  0.49980238165E+03  0.00000000000E+00 0. -1.
         11    1    1    2    0    0 -0.11711548934E+01 -0.72995641771E+01 -0.76699160050E+02  0.77054632523E+02  0.00000000000E+00 0.  1.
        -15    1    1    2    0    0 -0.28899296598E+01 -0.31406668909E+01 -0.32825006504E+03  0.32828261971E+03  0.17770000000E+01 0.  1.
         15    1    1    2    0    0 -0.27895348880E+00  0.33522473672E+01 -0.94784049036E+02  0.94860366108E+02  0.17770000000E+01 0. -1.
</event>
<event>
 6    1  0.1823098E-004  0.5071480E+03  0.7546771E-02  0.9383956E-01
        -11   -1    0    0    0    0  0.00000000000E+00  0.00000000000E+00  0.50000000000E+03  0.50000000000E+03  0.00000000000E+00 0. -1.
         11   -1    0    0    0    0 -0.00000000000E+00 -0.00000000000E+00 -0.50000000000E+03  0.50000000000E+03  0.00000000000E+00 0. -1.
        -11    1    1    2    0    0 -0.52225505025E+01  0.58092016277E+01  0.47145937653E+03  0.47152408801E+03  0.00000000000E+00 0. -1.
         11    1    1    2    0    0 -0.20469084493E+02  0.22698707573E+01 -0.49242157291E+03  0.49285204798E+03  0.00000000000E+00 0. -1.
        -15    1    1    2    0    0  0.97576483618E+01 -0.30302156492E+01  0.14017495356E+02  0.17436794817E+02  0.17770000000E+01 0. -1.
         15    1    1    2    0    0  0.15933986634E+02 -0.50488567358E+01  0.69447010243E+01  0.18187069189E+02  0.17770000000E+01 0.  1.
</event>
<event>
 6    1  0.1823098E-004  0.5032783E+03  0.7546771E-02  0.9392504E-01
        -11   -1    0    0    0    0  0.00000000000E+00  0.00000000000E+00  0.50000000000E+03  0.50000000000E+03  0.00000000000E+00 0. -1.
         11   -1    0    0    0    0 -0.00000000000E+00 -0.00000000000E+00 -0.50000000000E+03  0.50000000000E+03  0.00000000000E+00 0. -1.
        -11    1    1    2    0    0 -0.18993573795E+02  0.17848512027E+02  0.49603739043E+03  0.49672167049E+03  0.00000000000E+00 0. -1.
         11    1    1    2    0    0 -0.16229030672E+02  0.80104369736E+01 -0.29615363959E+02  0.34707611838E+02  0.00000000000E+00 0. -1.
        -15    1    1    2    0    0  0.32096053184E+02 -0.24568050339E+02 -0.44246489130E+03  0.44431079605E+03  0.17770000000E+01 0. -1.
         15    1    1    2    0    0  0.31265512833E+01 -0.12908986611E+01 -0.23957135176E+02  0.24259921622E+02  0.17770000000E+01 0.  1.
</event>
<event>
 6    1  0.1823098E-004  0.5013628E+03  0.7546771E-02  0.9396765E-01
        -11   -1    0    0    0    0  0.00000000000E+00  0.00000000000E+00  0.50000000000E+03  0.50000000000E+03  0.00000000000E+00 0. -1.
         11   -1    0    0    0    0 -0.00000000000E+00 -0.00000000000E+00 -0.50000000000E+03  0.50000000000E+03  0.00000000000E+00 0. -1.
        -11    1    1    2    0    0 -0.55750680378E+01 -0.12755116018E+02  0.49844284642E+03  0.49863718826E+03  0.00000000000E+00 0. -1.
         11    1    1    2    0    0 -0.10016620268E+01 -0.12425095378E+02 -0.26961678265E+03  0.26990479026E+03  0.00000000000E+00 0. -1.
        -15    1    1    2    0    0  0.49016004349E+01  0.22148654684E+02 -0.22445256749E+03  0.22560297288E+03  0.17770000000E+01 0.  1.
         15    1    1    2    0    0  0.16751296296E+01  0.30315567122E+01 -0.43734962807E+01  0.58550485986E+01  0.17770000000E+01 0. -1.
</event>
<event>
 6    1  0.1823098E-004  0.4888311E+03  0.7546771E-02  0.9425154E-01
        -11   -1    0    0    0    0  0.00000000000E+00  0.00000000000E+00  0.50000000000E+03  0.50000000000E+03  0.00000000000E+00 0. -1.
         11   -1    0    0    0    0 -0.00000000000E+00 -0.00000000000E+00 -0.50000000000E+03  0.50000000000E+03  0.00000000000E+00 0.  1.
        -11    1    1    2    0    0 -0.47500694512E+01  0.59058997630E+01  0.48870310881E+03  0.48876187594E+03  0.00000000000E+00 0. -1.
         11    1    1    2    0    0 -0.78712797604E+01 -0.20723695706E+02 -0.48859150987E+03  0.48909415467E+03  0.00000000000E+00 0.  1.
        -15    1    1    2    0    0  0.74361853066E+01  0.88911849016E+01 -0.49544610299E+01  0.12730060250E+02  0.17770000000E+01 0. -1.
         15    1    1    2    0    0  0.51851639050E+01  0.59266110414E+01  0.48428620934E+01  0.94139091463E+01  0.17770000000E+01 0.  1.
</event>
<event>
 6    1  0.1823098E-004  0.5026443E+03  0.7546771E-02  0.9393912E-01
        -11   -1    0    0    0    0  0.00000000000E+00  0.00000000000E+00  0.50000000000E+03  0.50000000000E+03  0.00000000000E+00 0.  1.
         11   -1    0    0    0    0 -0.00000000000E+00 -0.00000000000E+00 -0.50000000000E+03  0.50000000000E+03  0.00000000000E+00 0. -1.
        -11    1    1    2    0    0 -0.41584742876E+01  0.69696437420E+01  0.49728945818E+03  0.49735568164E+03  0.00000000000E+00 0.  1.
         11    1    1    2    0    0  0.15632906073E+02  0.91837755372E+01 -0.31604191820E+03  0.31656156359E+03  0.00000000000E+00 0. -1.
        -15    1    1    2    0    0 -0.18891439247E+02 -0.21576024361E+02 -0.92922660883E+02  0.97263507744E+02  0.17770000000E+01 0.  1.
         15    1    1    2    0    0  0.74170074614E+01  0.54226050814E+01 -0.88324879095E+02  0.88819247022E+02  0.17770000000E+01 0. -1.
</event>
<event>
 6    1  0.1823098E-004  0.5000322E+03  0.7546771E-02  0.9399738E-01
        -11   -1    0    0    0    0  0.00000000000E+00  0.00000000000E+00  0.50000000000E+03  0.50000000000E+03  0.00000000000E+00 0.  1.
         11   -1    0    0    0    0 -0.00000000000E+00 -0.00000000000E+00 -0.50000000000E+03  0.50000000000E+03  0.00000000000E+00 0. -1.
        -11    1    1    2    0    0 -0.47241376904E+01  0.11327104837E+02  0.49981713033E+03  0.49996778352E+03  0.00000000000E+00 0.  1.
         11    1    1    2    0    0  0.43440623910E+01 -0.48919490804E+01 -0.26636801339E+03  0.26644834509E+03  0.00000000000E+00 0. -1.
        -15    1    1    2    0    0 -0.12670315437E+01 -0.25761445858E+01 -0.98526872500E+02  0.98584705830E+02  0.17770000000E+01 0.  1.
         15    1    1    2    0    0  0.16471068431E+01 -0.38590111705E+01 -0.13492224444E+03  0.13499916556E+03  0.17770000000E+01 0. -1.
</event>
<event>
 6    1  0.1823098E-004  0.5049801E+03  0.7546771E-02  0.9388735E-01
        -11   -1    0    0    0    0  0.00000000000E+00  0.00000000000E+00  0.50000000000E+03  0.50000000000E+03  0.00000000000E+00 0.  1.
         11   -1    0    0    0    0 -0.00000000000E+00 -0.00000000000E+00 -0.50000000000E+03  0.50000000000E+03  0.00000000000E+00 0.  1.
        -11    1    1    2    0    0  0.34409767505E+01 -0.93144095277E+01  0.49492026365E+03  0.49501986417E+03  0.00000000000E+00 0.  1.
         11    1    1    2    0    0  0.17308586504E+02  0.20086234971E+01 -0.47061335874E+03  0.47093582913E+03  0.00000000000E+00 0.  1.
        -15    1    1    2    0    0 -0.12241419320E+02  0.60063982333E+00 -0.94813076261E+01  0.15596988122E+02  0.17770000000E+01 0.  1.
         15    1    1    2    0    0 -0.85081439342E+01  0.67051462073E+01 -0.14825597285E+02  0.18447318578E+02  0.17770000000E+01 0. -1.
</event>
<event>
 6    1  0.1823098E-004  0.5000601E+03  0.7546771E-02  0.9399675E-01
        -11   -1    0    0    0    0  0.00000000000E+00  0.00000000000E+00  0.50000000000E+03  0.50000000000E+03  0.00000000000E+00 0.  1.
         11   -1    0    0    0    0 -0.00000000000E+00 -0.00000000000E+00 -0.50000000000E+03  0.50000000000E+03  0.00000000000E+00 0. -1.
        -11    1    1    2    0    0  0.47922415124E+01  0.52278415304E+00  0.18778140242E+03  0.18784326971E+03  0.00000000000E+00 0.  1.
         11    1    1    2    0    0 -0.12557146942E+02  0.49713749123E+01 -0.49975742256E+03  0.49993987430E+03  0.00000000000E+00 0. -1.
        -15    1    1    2    0    0  0.57032579505E+01 -0.63638462362E+01  0.27141879250E+03  0.27155909917E+03  0.17770000000E+01 0. -1.
         15    1    1    2    0    0  0.20616474788E+01  0.86968717093E+00  0.40557227643E+02  0.40657756815E+02  0.17770000000E+01 0.  1.
</event>
<event>
 6    1  0.1823098E-004  0.5083118E+03  0.7546771E-02  0.9381401E-01
        -11   -1    0    0    0    0  0.00000000000E+00  0.00000000000E+00  0.50000000000E+03  0.50000000000E+03  0.00000000000E+00 0. -1.
         11   -1    0    0    0    0 -0.00000000000E+00 -0.00000000000E+00 -0.50000000000E+03  0.50000000000E+03  0.00000000000E+00 0. -1.
        -11    1    1    2    0    0 -0.68601257481E+01 -0.10732470496E+02  0.49152317115E+03  0.49168818882E+03  0.00000000000E+00 0. -1.
         11    1    1    2    0    0 -0.31879787786E+02  0.41841174207E+02 -0.17252684589E+03  0.18036772794E+03  0.00000000000E+00 0. -1.
        -15    1    1    2    0    0  0.33432931562E+02 -0.40926349061E+01 -0.73118356110E+02  0.80523054478E+02  0.17770000000E+01 0. -1.
         15    1    1    2    0    0  0.53069819723E+01 -0.27016068805E+02 -0.24587796915E+03  0.24742102876E+03  0.17770000000E+01 0.  1.
</event>
<event>
 6    1  0.1823098E-004  0.5008170E+03  0.7546771E-02  0.9397984E-01
        -11   -1    0    0    0    0  0.00000000000E+00  0.00000000000E+00  0.50000000000E+03  0.50000000000E+03  0.00000000000E+00 0.  1.
         11   -1    0    0    0    0 -0.00000000000E+00 -0.00000000000E+00 -0.50000000000E+03  0.50000000000E+03  0.00000000000E+00 0. -1.
        -11    1    1    2    0    0  0.81507567998E+01 -0.29410187023E+00  0.49911638789E+03  0.49918302254E+03  0.00000000000E+00 0.  1.
         11    1    1    2    0    0  0.10741160610E+02 -0.10354735029E+02 -0.10407476973E+03  0.10513872152E+03  0.00000000000E+00 0. -1.
        -15    1    1    2    0    0 -0.61416971125E+01  0.34953873832E+01 -0.97200105298E+02  0.97472849426E+02  0.17770000000E+01 0.  1.
         15    1    1    2    0    0 -0.12750220297E+02  0.71534495156E+01 -0.29784151287E+03  0.29820540651E+03  0.17770000000E+01 0. -1.
</event>
<event>
 6    1  0.1823098E-004  0.5096917E+03  0.7546771E-02  0.9378381E-01
        -11   -1    0    0    0    0  0.00000000000E+00  0.00000000000E+00  0.50000000000E+03  0.50000000000E+03  0.00000000000E+00 0.  1.
         11   -1    0    0    0    0 -0.00000000000E+00 -0.00000000000E+00 -0.50000000000E+03  0.50000000000E+03  0.00000000000E+00 0. -1.
        -11    1    1    2    0    0  0.19153697138E+02 -0.20712565895E+02  0.48949604048E+03  0.49030831947E+03  0.00000000000E+00 0.  1.
         11    1    1    2    0    0 -0.54527301920E+01  0.26951312441E+02 -0.47089714271E+03  0.47169929460E+03  0.00000000000E+00 0. -1.
        -15    1    1    2    0    0 -0.11276580641E+02  0.22438237984E+00  0.56344449299E+01  0.12732490608E+02  0.17770000000E+01 0. -1.
         15    1    1    2    0    0 -0.24243863046E+01 -0.64631289263E+01 -0.24233342695E+02  0.25259895321E+02  0.17770000000E+01 0.  1.
</event>
<event>
 6    1  0.1823098E-004  0.5005441E+03  0.7546771E-02  0.9398593E-01
        -11   -1    0    0    0    0  0.00000000000E+00  0.00000000000E+00  0.50000000000E+03  0.50000000000E+03  0.00000000000E+00 0. -1.
         11   -1    0    0    0    0 -0.00000000000E+00 -0.00000000000E+00 -0.50000000000E+03  0.50000000000E+03  0.00000000000E+00 0. -1.
        -11    1    1    2    0    0  0.17485597227E+02  0.16403131481E+02  0.37006525941E+03  0.37084107789E+03  0.00000000000E+00 0. -1.
         11    1    1    2    0    0 -0.34943962796E+02 -0.12499413060E+02 -0.49807520705E+03  0.49945593173E+03  0.00000000000E+00 0. -1.
        -15    1    1    2    0    0  0.11713459791E+02  0.12888346808E+01  0.95285825925E+02  0.96028186416E+02  0.17770000000E+01 0. -1.
         15    1    1    2    0    0  0.57449057779E+01 -0.51925531023E+01  0.32724121722E+02  0.33674803957E+02  0.17770000000E+01 0.  1.
</event>
<event>
 6    1  0.1823098E-004  0.5001096E+03  0.7546771E-02  0.9399565E-01
        -11   -1    0    0    0    0  0.00000000000E+00  0.00000000000E+00  0.50000000000E+03  0.50000000000E+03  0.00000000000E+00 0. -1.
         11   -1    0    0    0    0 -0.00000000000E+00 -0.00000000000E+00 -0.50000000000E+03  0.50000000000E+03  0.00000000000E+00 0.  1.
        -11    1    1    2    0    0 -0.55878910972E+01 -0.61783052438E+01  0.24459465706E+03  0.24473647510E+03  0.00000000000E+00 0. -1.
         11    1    1    2    0    0  0.14420970129E+02  0.10078258151E+01 -0.49968137413E+03  0.49989044374E+03  0.00000000000E+00 0.  1.
        -15    1    1    2    0    0 -0.60042773715E+01  0.40352590795E+01  0.21571615171E+03  0.21584473702E+03  0.17770000000E+01 0. -1.
         15    1    1    2    0    0 -0.28288016606E+01  0.11352203492E+01  0.39370565368E+02  0.39528344140E+02  0.17770000000E+01 0.  1.
</event>
<event>
 6    1  0.1823098E-004  0.5001542E+03  0.7546771E-02  0.9399465E-01
        -11   -1    0    0    0    0  0.00000000000E+00  0.00000000000E+00  0.50000000000E+03  0.50000000000E+03  0.00000000000E+00 0.  1.
         11   -1    0    0    0    0 -0.00000000000E+00 -0.00000000000E+00 -0.50000000000E+03  0.50000000000E+03  0.00000000000E+00 0. -1.
        -11    1    1    2    0    0  0.14192762912E+02  0.60994314462E+00  0.49964384777E+03  0.49984575738E+03  0.00000000000E+00 0.  1.
         11    1    1    2    0    0 -0.59372505674E+01  0.58861261777E+01 -0.11251130510E+03  0.11282150151E+03  0.00000000000E+00 0. -1.
        -15    1    1    2    0    0 -0.80258990673E+01 -0.48505200383E+01 -0.34337161315E+03  0.34350424313E+03  0.17770000000E+01 0. -1.
         15    1    1    2    0    0 -0.22961327745E+00 -0.16455492840E+01 -0.43760929515E+02  0.43828497986E+02  0.17770000000E+01 0. -1.
</event>
<event>
 6    1  0.1823098E-004  0.5014715E+03  0.7546771E-02  0.9396523E-01
        -11   -1    0    0    0    0  0.00000000000E+00  0.00000000000E+00  0.50000000000E+03  0.50000000000E+03  0.00000000000E+00 0.  1.
         11   -1    0    0    0    0 -0.00000000000E+00 -0.00000000000E+00 -0.50000000000E+03  0.50000000000E+03  0.00000000000E+00 0. -1.
        -11    1    1    2    0    0 -0.79144398948E+01  0.69886439674E+01  0.49841672480E+03  0.49852854588E+03  0.00000000000E+00 0.  1.
         11    1    1    2    0    0 -0.14204602549E+02  0.88217357076E+01 -0.25579628829E+03  0.25634222215E+03  0.00000000000E+00 0. -1.
        -15    1    1    2    0    0  0.10384218935E+02 -0.95398469097E+01 -0.19859473817E+03  0.19910265804E+03  0.17770000000E+01 0. -1.
         15    1    1    2    0    0  0.11734823509E+02 -0.62705327653E+01 -0.44025698340E+02  0.46026573925E+02  0.17770000000E+01 0.  1.
</event>
<event>
 6    1  0.1823098E-004  0.4663083E+03  0.7546771E-02  0.9478523E-01
        -11   -1    0    0    0    0  0.00000000000E+00  0.00000000000E+00  0.50000000000E+03  0.50000000000E+03  0.00000000000E+00 0.  1.
         11   -1    0    0    0    0 -0.00000000000E+00 -0.00000000000E+00 -0.50000000000E+03  0.50000000000E+03  0.00000000000E+00 0.  1.
        -11    1    1    2    0    0  0.32204667355E+02 -0.16090198393E+03  0.45502911726E+03  0.48371281416E+03  0.00000000000E+00 0.  1.
         11    1    1    2    0    0  0.22020765637E+02  0.16261926232E+03 -0.42022269517E+03  0.45112864255E+03  0.00000000000E+00 0.  1.
        -15    1    1    2    0    0 -0.49944497632E+02  0.42240617868E+00 -0.31614486608E+02  0.59137676342E+02  0.17770000000E+01 0.  1.
         15    1    1    2    0    0 -0.42809353603E+01 -0.21396845708E+01 -0.31919354868E+01  0.60208669453E+01  0.17770000000E+01 0.  1.
</event>
<event>
 6    1  0.1823098E-004  0.5110141E+03  0.7546771E-02  0.9375497E-01
        -11   -1    0    0    0    0  0.00000000000E+00  0.00000000000E+00  0.50000000000E+03  0.50000000000E+03  0.00000000000E+00 0.  1.
         11   -1    0    0    0    0 -0.00000000000E+00 -0.00000000000E+00 -0.50000000000E+03  0.50000000000E+03  0.00000000000E+00 0. -1.
        -11    1    1    2    0    0 -0.14122692273E+02 -0.34291524449E+01  0.48876986672E+03  0.48898588133E+03  0.00000000000E+00 0.  1.
         11    1    1    2    0    0 -0.94888929645E+01 -0.56683206373E+01 -0.46838287706E+03  0.46851327459E+03  0.00000000000E+00 0. -1.
        -15    1    1    2    0    0  0.61210630028E+01  0.26583410416E+01 -0.22615126512E+02  0.23646053910E+02  0.17770000000E+01 0.  1.
         15    1    1    2    0    0  0.17490522235E+02  0.64391320406E+01  0.22281368459E+01  0.18854790168E+02  0.17770000000E+01 0. -1.
</event>
<event>
 6    1  0.1864184E-004  0.5000342E+03  0.7546771E-02  0.9399733E-01
        -11   -1    0    0    0    0  0.00000000000E+00  0.00000000000E+00  0.50000000000E+03  0.50000000000E+03  0.00000000000E+00 0.  1.
         11   -1    0    0    0    0 -0.00000000000E+00 -0.00000000000E+00 -0.50000000000E+03  0.50000000000E+03  0.00000000000E+00 0. -1.
        -11    1    1    2    0    0 -0.18353575610E+01 -0.32577889402E+01  0.18100362270E+03  0.18104224136E+03  0.00000000000E+00 0.  1.
         11    1    1    2    0    0  0.40852195564E+01  0.86553252496E+01 -0.49987417871E+03  0.49996579704E+03  0.00000000000E+00 0. -1.
        -15    1    1    2    0    0 -0.42537592793E+00 -0.59205069219E+01  0.22019385502E+03  0.22028101340E+03  0.17770000000E+01 0.  1.
         15    1    1    2    0    0 -0.18244860675E+01  0.52297061255E+00  0.98676700982E+02  0.98710948194E+02  0.17770000000E+01 0.  1.
</event>
<event>
 6    1  0.1823098E-004  0.5079899E+03  0.7546771E-02  0.9382107E-01
        -11   -1    0    0    0    0  0.00000000000E+00  0.00000000000E+00  0.50000000000E+03  0.50000000000E+03  0.00000000000E+00 0. -1.
         11   -1    0    0    0    0 -0.00000000000E+00 -0.00000000000E+00 -0.50000000000E+03  0.50000000000E+03  0.00000000000E+00 0. -1.
        -11    1    1    2    0    0 -0.22351194931E+02  0.28998126745E+01  0.38413872225E+03  0.38479935390E+03  0.00000000000E+00 0. -1.
         11    1    1    2    0    0  0.55323073933E+01  0.45523405475E+02 -0.48986828155E+03  0.49201008134E+03  0.00000000000E+00 0. -1.
        -15    1    1    2    0    0  0.19452135159E+02 -0.17481250898E+02  0.23241599999E+02  0.35032975819E+02  0.17770000000E+01 0.  1.
         15    1    1    2    0    0 -0.26332476211E+01 -0.30941967251E+02  0.82487959300E+02  0.88157588947E+02  0.17770000000E+01 0. -1.
</event>
<event>
 6    1  0.1823098E-004  0.5045669E+03  0.7546771E-02  0.9389649E-01
        -11   -1    0    0    0    0  0.00000000000E+00  0.00000000000E+00  0.50000000000E+03  0.50000000000E+03  0.00000000000E+00 0.  1.
         11   -1    0    0    0    0 -0.00000000000E+00 -0.00000000000E+00 -0.50000000000E+03  0.50000000000E+03  0.00000000000E+00 0. -1.
        -11    1    1    2    0    0  0.62888740207E+01 -0.75413812421E+01  0.49533578971E+03  0.49543311045E+03  0.00000000000E+00 0.  1.
         11    1    1    2    0    0 -0.19439458145E+02 -0.39803841000E+01 -0.46900538609E+03  0.46942495479E+03  0.00000000000E+00 0. -1.
        -15    1    1    2    0    0  0.75091594705E+01  0.18133935117E+01 -0.18339455406E+01  0.81361512540E+01  0.17770000000E+01 0. -1.
         15    1    1    2    0    0  0.56414246537E+01  0.97083718304E+01 -0.24496458073E+02  0.27005783507E+02  0.17770000000E+01 0.  1.
</event>
<event>
 6    1  0.1823098E-004  0.5007994E+03  0.7546771E-02  0.9398023E-01
        -11   -1    0    0    0    0  0.00000000000E+00  0.00000000000E+00  0.50000000000E+03  0.50000000000E+03  0.00000000000E+00 0.  1.
         11   -1    0    0    0    0 -0.00000000000E+00 -0.00000000000E+00 -0.50000000000E+03  0.50000000000E+03  0.00000000000E+00 0.  1.
        -11    1    1    2    0    0 -0.94666301760E+00  0.86809599168E+01  0.49912423536E+03  0.49920061855E+03  0.00000000000E+00 0.  1.
         11    1    1    2    0    0  0.95345954913E+01  0.60961420066E+01 -0.70867114572E+02  0.71765028993E+02  0.00000000000E+00 0.  1.
        -15    1    1    2    0    0 -0.90892343458E+00 -0.57304137795E+01 -0.30578780155E+02  0.31175043041E+02  0.17770000000E+01 0.  1.
         15    1    1    2    0    0 -0.76790090392E+01 -0.90466881439E+01 -0.39767834064E+03  0.39785930941E+03  0.17770000000E+01 0.  1.
</event>
<event>
 6    1  0.1823098E-004  0.5032152E+03  0.7546771E-02  0.9392644E-01
        -11   -1    0    0    0    0  0.00000000000E+00  0.00000000000E+00  0.50000000000E+03  0.50000000000E+03  0.00000000000E+00 0.  1.
         11   -1    0    0    0    0 -0.00000000000E+00 -0.00000000000E+00 -0.50000000000E+03  0.50000000000E+03  0.00000000000E+00 0.  1.
        -11    1    1    2    0    0  0.12431593610E+02  0.17886735374E+01  0.49662605858E+03  0.49678484873E+03  0.00000000000E+00 0.  1.
         11    1    1    2    0    0  0.19654921316E+02  0.12494643134E-01 -0.40662959374E+03  0.40710433870E+03  0.00000000000E+00 0.  1.
        -15    1    1    2    0    0 -0.10023332748E+01  0.10672143116E+01 -0.89742884438E+01  0.92649447086E+01  0.17770000000E+01 0. -1.
         15    1    1    2    0    0 -0.31084181652E+02 -0.28683824922E+01 -0.81022176395E+02  0.86845867857E+02  0.17770000000E+01 0.  1.
</event>
<event>
 6    1  0.1823098E-004  0.5032147E+03  0.7546771E-02  0.9392645E-01
        -11   -1    0    0    0    0  0.00000000000E+00  0.00000000000E+00  0.50000000000E+03  0.50000000000E+03  0.00000000000E+00 0.  1.
         11   -1    0    0    0    0 -0.00000000000E+00 -0.00000000000E+00 -0.50000000000E+03  0.50000000000E+03  0.00000000000E+00 0. -1.
        -11    1    1    2    0    0 -0.21213022387E+02 -0.38475115684E+02  0.47317858640E+03  0.47521395336E+03  0.00000000000E+00 0.  1.
         11    1    1    2    0    0  0.30193769302E+02  0.27353149835E+02 -0.49511190815E+03  0.49678532597E+03  0.00000000000E+00 0. -1.
        -15    1    1    2    0    0 -0.19417731223E+01  0.27041127214E+01  0.13583763305E+02  0.14098193607E+02  0.17770000000E+01 0. -1.
         15    1    1    2    0    0 -0.70389737925E+01  0.84178531278E+01  0.83495584461E+01  0.13902527057E+02  0.17770000000E+01 0.  1.
</event>
<event>
 6    1  0.1823098E-004  0.5002695E+03  0.7546771E-02  0.9399207E-01
        -11   -1    0    0    0    0  0.00000000000E+00  0.00000000000E+00  0.50000000000E+03  0.50000000000E+03  0.00000000000E+00 0.  1.
         11   -1    0    0    0    0 -0.00000000000E+00 -0.00000000000E+00 -0.50000000000E+03  0.50000000000E+03  0.00000000000E+00 0. -1.
        -11    1    1    2    0    0  0.29418306798E+01 -0.91666581473E+01  0.49963777564E+03  0.49973051621E+03  0.00000000000E+00 0.  1.
         11    1    1    2    0    0  0.87219984245E+01  0.54281102730E+01 -0.28233780735E+03  0.28252464512E+03  0.00000000000E+00 0. -1.
        -15    1    1    2    0    0 -0.63601921792E+01  0.24857729245E+01 -0.75484474277E+02  0.75813552202E+02  0.17770000000E+01 0.  1.
         15    1    1    2    0    0 -0.53036369251E+01  0.12527749498E+01 -0.14181549401E+03  0.14193128647E+03  0.17770000000E+01 0. -1.
</event>
<event>
 6    1  0.1823098E-004  0.5039274E+03  0.7546771E-02  0.9391064E-01
        -11   -1    0    0    0    0  0.00000000000E+00  0.00000000000E+00  0.50000000000E+03  0.50000000000E+03  0.00000000000E+00 0.  1.
         11   -1    0    0    0    0 -0.00000000000E+00 -0.00000000000E+00 -0.50000000000E+03  0.50000000000E+03  0.00000000000E+00 0. -1.
        -11    1    1    2    0    0  0.32525123941E+02  0.73288623224E+01  0.17810383589E+03  0.18119760559E+03  0.00000000000E+00 0.  1.
         11    1    1    2    0    0  0.24855749143E+02 -0.20087575389E+02 -0.49504211934E+03  0.49607259436E+03  0.00000000000E+00 0. -1.
        -15    1    1    2    0    0 -0.96027600621E+01  0.34635634194E+01  0.91816661795E+02  0.92399493421E+02  0.17770000000E+01 0. -1.
         15    1    1    2    0    0 -0.47778113022E+02  0.92951496476E+01  0.22512162165E+03  0.23033030664E+03  0.17770000000E+01 0.  1.
</event>
<event>
 6    1  0.1823098E-004  0.5020977E+03  0.7546771E-02  0.9395128E-01
        -11   -1    0    0    0    0  0.00000000000E+00  0.00000000000E+00  0.50000000000E+03  0.50000000000E+03  0.00000000000E+00 0.  1.
         11   -1    0    0    0    0 -0.00000000000E+00 -0.00000000000E+00 -0.50000000000E+03  0.50000000000E+03  0.00000000000E+00 0. -1.
        -11    1    1    2    0    0  0.42872374565E+01  0.10097907210E+02  0.47326581367E+03  0.47339294305E+03  0.00000000000E+00 0.  1.
         11    1    1    2    0    0 -0.11740649103E+02 -0.35143570105E+00 -0.49776371607E+03  0.49790228297E+03  0.00000000000E+00 0. -1.
        -15    1    1    2    0    0  0.66333592813E+01 -0.39180868058E+01  0.87167637403E+01  0.11768286140E+02  0.17770000000E+01 0.  1.
         15    1    1    2    0    0  0.82005236529E+00 -0.58283847033E+01  0.15781138659E+02  0.16936487845E+02  0.17770000000E+01 0. -1.
</event>
<event>
 6    1  0.1823098E-004  0.5002191E+03  0.7546771E-02  0.9399320E-01
        -11   -1    0    0    0    0  0.00000000000E+00  0.00000000000E+00  0.50000000000E+03  0.50000000000E+03  0.00000000000E+00 0.  1.
         11   -1    0    0    0    0 -0.00000000000E+00 -0.00000000000E+00 -0.50000000000E+03  0.50000000000E+03  0.00000000000E+00 0.  1.
        -11    1    1    2    0    0  0.91194436977E+00 -0.93410381571E+01  0.49969279958E+03  0.49978093260E+03  0.00000000000E+00 0.  1.
         11    1    1    2    0    0 -0.18810438268E+01  0.33028880403E+01 -0.14391802526E+03  0.14396820965E+03  0.00000000000E+00 0.  1.
        -15    1    1    2    0    0  0.23888677892E+00  0.10444403513E+02 -0.13207913346E+03  0.13250357677E+03  0.17770000000E+01 0.  1.
         15    1    1    2    0    0  0.73021267807E+00 -0.44062533964E+01 -0.22369564085E+03  0.22374728098E+03  0.17770000000E+01 0. -1.
</event>
<event>
 6    1  0.1823098E-004  0.5086486E+03  0.7546771E-02  0.9380663E-01
        -11   -1    0    0    0    0  0.00000000000E+00  0.00000000000E+00  0.50000000000E+03  0.50000000000E+03  0.00000000000E+00 0. -1.
         11   -1    0    0    0    0 -0.00000000000E+00 -0.00000000000E+00 -0.50000000000E+03  0.50000000000E+03  0.00000000000E+00 0. -1.
        -11    1    1    2    0    0 -0.26333386216E+02  0.39321825996E+02  0.48906697496E+03  0.49135136026E+03  0.00000000000E+00 0. -1.
         11    1    1    2    0    0 -0.14674412068E+02 -0.68454685017E+02 -0.15806390883E+03  0.17287446759E+03  0.00000000000E+00 0. -1.
        -15    1    1    2    0    0  0.21919034156E+02  0.21977682250E+02 -0.12712014779E+03  0.13086692584E+03  0.17770000000E+01 0.  1.
         15    1    1    2    0    0  0.19088764127E+02  0.71551767718E+01 -0.20388291834E+03  0.20490724631E+03  0.17770000000E+01 0. -1.
</event>
<event>
 6    1  0.1823098E-004  0.5026763E+03  0.7546771E-02  0.9393841E-01
        -11   -1    0    0    0    0  0.00000000000E+00  0.00000000000E+00  0.50000000000E+03  0.50000000000E+03  0.00000000000E+00 0. -1.
         11   -1    0    0    0    0 -0.00000000000E+00 -0.00000000000E+00 -0.50000000000E+03  0.50000000000E+03  0.00000000000E+00 0.  1.
        -11    1    1    2    0    0  0.52099996241E+01  0.13167631831E+02  0.43925180655E+03  0.43948001112E+03  0.00000000000E+00 0. -1.
         11    1    1    2    0    0  0.88906068631E+01 -0.62081903343E+01 -0.49720546815E+03  0.49732369949E+03  0.00000000000E+00 0.  1.
        -15    1    1    2    0    0 -0.45232828554E+00  0.10416074896E+01  0.36084899001E+02  0.36146468873E+02  0.17770000000E+01 0. -1.
         15    1    1    2    0    0 -0.13648278202E+02 -0.80010489867E+01  0.21868762605E+02  0.27049820510E+02  0.17770000000E+01 0.  1.
</event>
<event>
 6    1  0.1823098E-004  0.5005105E+03  0.7546771E-02  0.9398668E-01
        -11   -1    0    0    0    0  0.00000000000E+00  0.00000000000E+00  0.50000000000E+03  0.50000000000E+03  0.00000000000E+00 0.  1.
         11   -1    0    0    0    0 -0.00000000000E+00 -0.00000000000E+00 -0.50000000000E+03  0.50000000000E+03  0.00000000000E+00 0. -1.
        -11    1    1    2    0    0 -0.18221944324E+02  0.70452052180E+01  0.49910725087E+03  0.49948946140E+03  0.00000000000E+00 0.  1.
         11    1    1    2    0    0  0.23229014293E+02  0.20486102054E+01 -0.36486125424E+03  0.36560568753E+03  0.00000000000E+00 0. -1.
        -15    1    1    2    0    0 -0.26375033281E+01 -0.93105846514E+00 -0.15951046200E+02  0.16291620470E+02  0.17770000000E+01 0.  1.
         15    1    1    2    0    0 -0.23695666411E+01 -0.81627569583E+01 -0.11829495043E+03  0.11861323060E+03  0.17770000000E+01 0. -1.
</event>
<event>
 6    1  0.1823098E-004  0.5015720E+03  0.7546771E-02  0.9396299E-01
        -11   -1    0    0    0    0  0.00000000000E+00  0.00000000000E+00  0.50000000000E+03  0.50000000000E+03  0.00000000000E+00 0.  1.
         11   -1    0    0    0    0 -0.00000000000E+00 -0.00000000000E+00 -0.50000000000E+03  0.50000000000E+03  0.00000000000E+00 0.  1.
        -11    1    1    2    0    0 -0.84057297007E+01 -0.26002798527E+02  0.49767825076E+03  0.49842797183E+03  0.00000000000E+00 0.  1.
         11    1    1    2    0    0  0.90363893127E+01 -0.10963467733E+02 -0.11826198097E+03  0.11911234235E+03  0.00000000000E+00 0.  1.
        -15    1    1    2    0    0  0.11033865482E+02  0.33694760588E+02 -0.25877687068E+03  0.26120051609E+03  0.17770000000E+01 0.  1.
         15    1    1    2    0    0 -0.11664525094E+02  0.32715056727E+01 -0.12063939911E+03  0.12125916972E+03  0.17770000000E+01 0. -1.
</event>
<event>
 6    1  0.1823098E-004  0.4856440E+03  0.7546771E-02  0.9432518E-01
        -11   -1    0    0    0    0  0.00000000000E+00  0.00000000000E+00  0.50000000000E+03  0.50000000000E+03  0.00000000000E+00 0. -1.
         11   -1    0    0    0    0 -0.00000000000E+00 -0.00000000000E+00 -0.50000000000E+03  0.50000000000E+03  0.00000000000E+00 0. -1.
        -11    1    1    2    0    0  0.86557718702E+01 -0.39061266743E+00  0.48559149844E+03  0.48566879489E+03  0.00000000000E+00 0. -1.
         11    1    1    2    0    0  0.72287049934E+01  0.21086606033E+02 -0.48545802450E+03  0.48596953884E+03  0.00000000000E+00 0. -1.
        -15    1    1    2    0    0 -0.30041257929E+01 -0.50663342090E+01  0.43594041208E+01  0.75402020785E+01  0.17770000000E+01 0. -1.
         15    1    1    2    0    0 -0.12880351071E+02 -0.15629659157E+02 -0.44928780682E+01  0.20821464199E+02  0.17770000000E+01 0.  1.
</event>
<event>
 6    1  0.1823098E-004  0.5000838E+03  0.7546771E-02  0.9399622E-01
        -11   -1    0    0    0    0  0.00000000000E+00  0.00000000000E+00  0.50000000000E+03  0.50000000000E+03  0.00000000000E+00 0.  1.
         11   -1    0    0    0    0 -0.00000000000E+00 -0.00000000000E+00 -0.50000000000E+03  0.50000000000E+03  0.00000000000E+00 0.  1.
        -11    1    1    2    0    0 -0.18827467639E+01  0.23330738138E+01  0.10662861087E+03  0.10667074868E+03  0.00000000000E+00 0.  1.
         11    1    1    2    0    0  0.28669805374E+00  0.94722113453E+01 -0.49982635281E+03  0.49991618092E+03  0.00000000000E+00 0.  1.
        -15    1    1    2    0    0  0.52423999847E-02 -0.84903680699E+01  0.22821433187E+03  0.22837912641E+03  0.17770000000E+01 0.  1.
         15    1    1    2    0    0  0.15908063102E+01 -0.33149170892E+01  0.16498341007E+03  0.16503394399E+03  0.17770000000E+01 0.  1.
</event>
<event>
 6    1  0.1823098E-004  0.5015594E+03  0.7546771E-02  0.9396327E-01
        -11   -1    0    0    0    0  0.00000000000E+00  0.00000000000E+00  0.50000000000E+03  0.50000000000E+03  0.00000000000E+00 0.  1.
         11   -1    0    0    0    0 -0.00000000000E+00 -0.00000000000E+00 -0.50000000000E+03  0.50000000000E+03  0.00000000000E+00 0.  1.
        -11    1    1    2    0    0 -0.41245396170E+01 -0.20049859044E+01  0.32994648336E+03  0.32997835335E+03  0.00000000000E+00 0.  1.
         11    1    1    2    0    0 -0.41738714769E+00 -0.29851109578E+02 -0.49754571736E+03  0.49844057200E+03  0.00000000000E+00 0.  1.
        -15    1    1    2    0    0 -0.51659374846E+01  0.15917741282E+02  0.10105235515E+03  0.10244411944E+03  0.17770000000E+01 0.  1.
         15    1    1    2    0    0  0.97078642494E+01  0.15938354200E+02  0.66546878846E+02  0.69136955212E+02  0.17770000000E+01 0. -1.
</event>
<event>
 6    1  0.1823098E-004  0.5004963E+03  0.7546771E-02  0.9398700E-01
        -11   -1    0    0    0    0  0.00000000000E+00  0.00000000000E+00  0.50000000000E+03  0.50000000000E+03  0.00000000000E+00 0.  1.
         11   -1    0    0    0    0 -0.00000000000E+00 -0.00000000000E+00 -0.50000000000E+03  0.50000000000E+03  0.00000000000E+00 0.  1.
        -11    1    1    2    0    0  0.15013748149E+02  0.87064456730E+01  0.49920205333E+03  0.49950365853E+03  0.00000000000E+00 0.  1.
         11    1    1    2    0    0 -0.77697118534E+01 -0.55634738952E+01 -0.37534263182E+02  0.38731661166E+02  0.00000000000E+00 0.  1.
        -15    1    1    2    0    0 -0.35588366563E+01 -0.30344586205E+01 -0.31526355544E+03  0.31530325145E+03  0.17770000000E+01 0.  1.
         15    1    1    2    0    0 -0.36851996393E+01 -0.10851315738E+00 -0.14640423471E+03  0.14646142886E+03  0.17770000000E+01 0.  1.
</event>
<event>
 6    1  0.1823098E-004  0.5042936E+03  0.7546771E-02  0.9390253E-01
        -11   -1    0    0    0    0  0.00000000000E+00  0.00000000000E+00  0.50000000000E+03  0.50000000000E+03  0.00000000000E+00 0. -1.
         11   -1    0    0    0    0 -0.00000000000E+00 -0.00000000000E+00 -0.50000000000E+03  0.50000000000E+03  0.00000000000E+00 0.  1.
        -11    1    1    2    0    0  0.32794979069E+01 -0.71378448669E+01  0.49564413510E+03  0.49570637740E+03  0.00000000000E+00 0. -1.
         11    1    1    2    0    0 -0.96711035448E+01  0.17314520602E+02 -0.20584961608E+02  0.28584322833E+02  0.00000000000E+00 0.  1.
        -15    1    1    2    0    0  0.12349760628E+02 -0.41819224159E+01 -0.16288892110E+03  0.16341959310E+03  0.17770000000E+01 0. -1.
         15    1    1    2    0    0 -0.59581549905E+01 -0.59947533190E+01 -0.31217025239E+03  0.31228970666E+03  0.17770000000E+01 0.  1.
</event>
<event>
 6    1  0.1823098E-004  0.5067409E+03  0.7546771E-02  0.9384852E-01
        -11   -1    0    0    0    0  0.00000000000E+00  0.00000000000E+00  0.50000000000E+03  0.50000000000E+03  0.00000000000E+00 0. -1.
         11   -1    0    0    0    0 -0.00000000000E+00 -0.00000000000E+00 -0.50000000000E+03  0.50000000000E+03  0.00000000000E+00 0. -1.
        -11    1    1    2    0    0 -0.97854420507E+01 -0.35623223635E+01  0.47786296083E+03  0.47797641610E+03  0.00000000000E+00 0. -1.
         11    1    1    2    0    0  0.69813029384E+00 -0.10267207980E+02 -0.49315176781E+03  0.49325912971E+03  0.00000000000E+00 0. -1.
        -15    1    1    2    0    0  0.32209588382E+01  0.65153407012E+00  0.13634202647E+02  0.14136770610E+02  0.17770000000E+01 0.  1.
         15    1    1    2    0    0  0.58663529186E+01  0.13177996274E+02  0.16546043347E+01  0.14627683578E+02  0.17770000000E+01 0. -1.
</event>
<event>
 6    1  0.1823098E-004  0.5002500E+03  0.7546771E-02  0.9399251E-01
        -11   -1    0    0    0    0  0.00000000000E+00  0.00000000000E+00  0.50000000000E+03  0.50000000000E+03  0.00000000000E+00 0.  1.
         11   -1    0    0    0    0 -0.00000000000E+00 -0.00000000000E+00 -0.50000000000E+03  0.50000000000E+03  0.00000000000E+00 0.  1.
        -11    1    1    2    0    0  0.25081169596E+02 -0.23645353304E+02  0.31649705354E+03  0.31836857995E+03  0.00000000000E+00 0.  1.
         11    1    1    2    0    0 -0.31803498923E+02  0.27999614161E+02 -0.49795044138E+03  0.49975002051E+03  0.00000000000E+00 0.  1.
        -15    1    1    2    0    0 -0.14764131861E+01 -0.17929601382E+01  0.22961568318E+02  0.23147048420E+02  0.17770000000E+01 0.  1.
         15    1    1    2    0    0  0.81987425131E+01 -0.25613007188E+01  0.15849181952E+03  0.15873435111E+03  0.17770000000E+01 0.  1.
</event>
<event>
 6    1  0.1823098E-004  0.4488309E+03  0.7546771E-02  0.9522198E-01
        -11   -1    0    0    0    0  0.00000000000E+00  0.00000000000E+00  0.50000000000E+03  0.50000000000E+03  0.00000000000E+00 0. -1.
         11   -1    0    0    0    0 -0.00000000000E+00 -0.00000000000E+00 -0.50000000000E+03  0.50000000000E+03  0.00000000000E+00 0. -1.
        -11    1    1    2    0    0  0.18465884804E+01  0.24097826018E+02  0.42719974365E+03  0.42788285323E+03  0.00000000000E+00 0. -1.
         11    1    1    2    0    0 -0.87040969311E+02 -0.29305160015E+02 -0.46567806103E+03  0.47464826901E+03  0.00000000000E+00 0. -1.
        -15    1    1    2    0    0  0.23650274819E+02 -0.10227144222E+02  0.14471087518E+02  0.29605744053E+02  0.17770000000E+01 0.  1.
         15    1    1    2    0    0  0.61544106012E+02  0.15434478219E+02  0.24007229862E+02  0.67863133713E+02  0.17770000000E+01 0. -1.
</event>
<event>
 6    1  0.1823098E-004  0.5068515E+03  0.7546771E-02  0.9384608E-01
        -11   -1    0    0    0    0  0.00000000000E+00  0.00000000000E+00  0.50000000000E+03  0.50000000000E+03  0.00000000000E+00 0.  1.
         11   -1    0    0    0    0 -0.00000000000E+00 -0.00000000000E+00 -0.50000000000E+03  0.50000000000E+03  0.00000000000E+00 0.  1.
        -11    1    1    2    0    0 -0.56816627964E+02  0.15673459475E+02  0.96333592562E+02  0.11293337683E+03  0.00000000000E+00 0.  1.
         11    1    1    2    0    0  0.58609310911E+02 -0.46044962633E+02 -0.48748363479E+03  0.49314854161E+03  0.00000000000E+00 0.  1.
        -15    1    1    2    0    0 -0.17111627846E+02  0.69106989480E+01  0.15419928097E+03  0.15530982438E+03  0.17770000000E+01 0.  1.
         15    1    1    2    0    0  0.15318944899E+02  0.23460804210E+02  0.23695076125E+03  0.23860825718E+03  0.17770000000E+01 0. -1.
</event>
<event>
 6    1  0.1823098E-004  0.5003562E+03  0.7546771E-02  0.9399013E-01
        -11   -1    0    0    0    0  0.00000000000E+00  0.00000000000E+00  0.50000000000E+03  0.50000000000E+03  0.00000000000E+00 0.  1.
         11   -1    0    0    0    0 -0.00000000000E+00 -0.00000000000E+00 -0.50000000000E+03  0.50000000000E+03  0.00000000000E+00 0. -1.
        -11    1    1    2    0    0  0.10707679191E+02  0.30204849790E+01  0.49951993766E+03  0.49964381898E+03  0.00000000000E+00 0.  1.
         11    1    1    2    0    0  0.53231068826E+01 -0.92948833403E+01 -0.20555254160E+03  0.20583143026E+03  0.00000000000E+00 0. -1.
        -15    1    1    2    0    0 -0.11612912678E+02  0.58315913472E+01 -0.19385246817E+03  0.19429566218E+03  0.17770000000E+01 0. -1.
         15    1    1    2    0    0 -0.44178733963E+01  0.44280701412E+00 -0.10011492789E+03  0.10022908858E+03  0.17770000000E+01 0. -1.
</event>
<event>
 6    1  0.1823098E-004  0.5036008E+03  0.7546771E-02  0.9391789E-01
        -11   -1    0    0    0    0  0.00000000000E+00  0.00000000000E+00  0.50000000000E+03  0.50000000000E+03  0.00000000000E+00 0.  1.
         11   -1    0    0    0    0 -0.00000000000E+00 -0.00000000000E+00 -0.50000000000E+03  0.50000000000E+03  0.00000000000E+00 0. -1.
        -11    1    1    2    0    0 -0.35834647662E+01 -0.63003885640E+01  0.49299465054E+03  0.49304793031E+03  0.00000000000E+00 0.  1.
         11    1    1    2    0    0  0.26532915735E+01  0.76812833293E+01 -0.49633267946E+03  0.49639920505E+03  0.00000000000E+00 0. -1.
        -15    1    1    2    0    0  0.33434123222E+01  0.29106958010E+01  0.16589010904E+01  0.50557133849E+01  0.17770000000E+01 0.  1.
         15    1    1    2    0    0 -0.24132391295E+01 -0.42915905663E+01  0.16791278310E+01  0.54971512584E+01  0.17770000000E+01 0.  1.
</event>
<event>
 6    1  0.1823098E-004  0.5000863E+03  0.7546771E-02  0.9399617E-01
        -11   -1    0    0    0    0  0.00000000000E+00  0.00000000000E+00  0.50000000000E+03  0.50000000000E+03  0.00000000000E+00 0. -1.
         11   -1    0    0    0    0 -0.00000000000E+00 -0.00000000000E+00 -0.50000000000E+03  0.50000000000E+03  0.00000000000E+00 0. -1.
        -11    1    1    2    0    0  0.13131340417E+02  0.17364459854E+02  0.49943943715E+03  0.49991370050E+03  0.00000000000E+00 0. -1.
         11    1    1    2    0    0 -0.78728943376E+01 -0.42480118209E+01 -0.14503174451E+03  0.14530738104E+03  0.00000000000E+00 0. -1.
        -15    1    1    2    0    0 -0.45944112975E+00 -0.10230288932E+01 -0.19303146734E+02  0.19417179947E+02  0.17770000000E+01 0.  1.
         15    1    1    2    0    0 -0.47990049491E+01 -0.12093419140E+02 -0.33510454591E+03  0.33536173851E+03  0.17770000000E+01 0.  1.
</event>
<event>
 6    1  0.1823098E-004  0.5094025E+03  0.7546771E-02  0.9379013E-01
        -11   -1    0    0    0    0  0.00000000000E+00  0.00000000000E+00  0.50000000000E+03  0.50000000000E+03  0.00000000000E+00 0.  1.
         11   -1    0    0    0    0 -0.00000000000E+00 -0.00000000000E+00 -0.50000000000E+03  0.50000000000E+03  0.00000000000E+00 0.  1.
        -11    1    1    2    0    0  0.30896119671E+01 -0.58955814909E+01  0.46982589625E+03  0.46987304282E+03  0.00000000000E+00 0.  1.
         11    1    1    2    0    0  0.15454346078E+02 -0.12683670634E+02 -0.49019000445E+03  0.49059754665E+03  0.00000000000E+00 0.  1.
        -15    1    1    2    0    0  0.41984667923E+01  0.68298160359E+01  0.45515255369E+01  0.93886966189E+01  0.17770000000E+01 0. -1.
         15    1    1    2    0    0 -0.22742424837E+02  0.11749436089E+02  0.15812582666E+02  0.30140713918E+02  0.17770000000E+01 0.  1.
</event>
<event>
 6    1  0.1823098E-004  0.5009103E+03  0.7546771E-02  0.9397775E-01
        -11   -1    0    0    0    0  0.00000000000E+00  0.00000000000E+00  0.50000000000E+03  0.50000000000E+03  0.00000000000E+00 0. -1.
         11   -1    0    0    0    0 -0.00000000000E+00 -0.00000000000E+00 -0.50000000000E+03  0.50000000000E+03  0.00000000000E+00 0. -1.
        -11    1    1    2    0    0 -0.29571604718E+01 -0.10720157401E+02  0.36849321182E+03  0.36866097397E+03  0.00000000000E+00 0. -1.
         11    1    1    2    0    0  0.14768890445E+02 -0.67620750587E+01 -0.49882534200E+03  0.49908973903E+03  0.00000000000E+00 0. -1.
        -15    1    1    2    0    0 -0.68942979940E+01  0.79113462212E+01  0.46019866048E+02  0.47234590544E+02  0.17770000000E+01 0.  1.
         15    1    1    2    0    0 -0.49174319795E+01  0.95708862380E+01  0.84312264138E+02  0.85014696457E+02  0.17770000000E+01 0. -1.
</event>
<event>
 6    1  0.1823098E-004  0.5001442E+03  0.7546771E-02  0.9399487E-01
        -11   -1    0    0    0    0  0.00000000000E+00  0.00000000000E+00  0.50000000000E+03  0.50000000000E+03  0.00000000000E+00 0. -1.
         11   -1    0    0    0    0 -0.00000000000E+00 -0.00000000000E+00 -0.50000000000E+03  0.50000000000E+03  0.00000000000E+00 0. -1.
        -11    1    1    2    0    0  0.11618106483E+01  0.43894445490E+01  0.10140801224E+03  0.10150961518E+03  0.00000000000E+00 0. -1.
         11    1    1    2    0    0 -0.99822186227E+01  0.79085105816E+01 -0.49969350875E+03  0.49985577112E+03  0.00000000000E+00 0. -1.
        -15    1    1    2    0    0  0.91764213861E+01 -0.10059024830E+02  0.34182651306E+03  0.34210219737E+03  0.17770000000E+01 0. -1.
         15    1    1    2    0    0 -0.35601341170E+00 -0.22389303010E+01  0.56458983457E+02  0.56532416332E+02  0.17770000000E+01 0.  1.
</event>
<event>
 6    1  0.1823098E-004  0.5001287E+03  0.7546771E-02  0.9399522E-01
        -11   -1    0    0    0    0  0.00000000000E+00  0.00000000000E+00  0.50000000000E+03  0.50000000000E+03  0.00000000000E+00 0. -1.
         11   -1    0    0    0    0 -0.00000000000E+00 -0.00000000000E+00 -0.50000000000E+03  0.50000000000E+03  0.00000000000E+00 0.  1.
        -11    1    1    2    0    0  0.83538202176E+01 -0.13138356603E+02  0.49962879748E+03  0.49987132144E+03  0.00000000000E+00 0. -1.
         11    1    1    2    0    0 -0.43997965644E+01  0.90938885765E+01 -0.13950797719E+03  0.13987327378E+03  0.00000000000E+00 0.  1.
        -15    1    1    2    0    0 -0.57419259087E+01  0.39577269487E+01 -0.28986510525E+03  0.28995442795E+03  0.17770000000E+01 0.  1.
         15    1    1    2    0    0  0.17879022555E+01  0.86741077847E-01 -0.70255715041E+02  0.70300976831E+02  0.17770000000E+01 0. -1.
</event>
<event>
 6    1  0.1823098E-004  0.5044944E+03  0.7546771E-02  0.9389809E-01
        -11   -1    0    0    0    0  0.00000000000E+00  0.00000000000E+00  0.50000000000E+03  0.50000000000E+03  0.00000000000E+00 0.  1.
         11   -1    0    0    0    0 -0.00000000000E+00 -0.00000000000E+00 -0.50000000000E+03  0.50000000000E+03  0.00000000000E+00 0. -1.
        -11    1    1    2    0    0  0.69296429146E+01 -0.55080570846E+01  0.49542648359E+03  0.49550555929E+03  0.00000000000E+00 0.  1.
         11    1    1    2    0    0 -0.28811239875E+02  0.14159187173E+02 -0.44467508476E+03  0.44583236886E+03  0.00000000000E+00 0. -1.
        -15    1    1    2    0    0  0.19645817533E+02 -0.12407491899E+02 -0.47568971645E+02  0.52970452085E+02  0.17770000000E+01 0. -1.
         15    1    1    2    0    0  0.22357794275E+01  0.37563618107E+01 -0.31824271887E+01  0.56916197618E+01  0.17770000000E+01 0.  1.
</event>
<event>
 6    1  0.1823098E-004  0.5009373E+03  0.7546771E-02  0.9397715E-01
        -11   -1    0    0    0    0  0.00000000000E+00  0.00000000000E+00  0.50000000000E+03  0.50000000000E+03  0.00000000000E+00 0.  1.
         11   -1    0    0    0    0 -0.00000000000E+00 -0.00000000000E+00 -0.50000000000E+03  0.50000000000E+03  0.00000000000E+00 0. -1.
        -11    1    1    2    0    0 -0.10070234014E+02  0.22671801665E+01  0.45323477500E+03  0.45335230339E+03  0.00000000000E+00 0.  1.
         11    1    1    2    0    0  0.11630114252E+02 -0.34330546592E+01 -0.49891538633E+03  0.49906272967E+03  0.00000000000E+00 0. -1.
        -15    1    1    2    0    0  0.91903051099E+00 -0.12443619780E+01  0.42491610188E+02  0.42556876285E+02  0.17770000000E+01 0.  1.
         15    1    1    2    0    0 -0.24789107488E+01  0.24102364707E+01  0.31890011470E+01  0.50280906575E+01  0.17770000000E+01 0.  1.
</event>
<event>
 6    1  0.1823098E-004  0.5074354E+03  0.7546771E-02  0.9383324E-01
        -11   -1    0    0    0    0  0.00000000000E+00  0.00000000000E+00  0.50000000000E+03  0.50000000000E+03  0.00000000000E+00 0.  1.
         11   -1    0    0    0    0 -0.00000000000E+00 -0.00000000000E+00 -0.50000000000E+03  0.50000000000E+03  0.00000000000E+00 0.  1.
        -11    1    1    2    0    0 -0.39408805043E+01 -0.11143581484E+02  0.49242274190E+03  0.49256458124E+03  0.00000000000E+00 0.  1.
         11    1    1    2    0    0  0.15362361015E+01  0.26594999910E+02 -0.47993772327E+03  0.48067647359E+03  0.00000000000E+00 0.  1.
        -15    1    1    2    0    0 -0.69094966983E+01 -0.50360005423E+01 -0.14201983433E+01  0.88474368277E+01  0.17770000000E+01 0. -1.
         15    1    1    2    0    0  0.93141411011E+01 -0.10415417883E+02 -0.11064820291E+02  0.17911508346E+02  0.17770000000E+01 0.  1.
</event>
<event>
 6    1  0.1823098E-004  0.5017048E+03  0.7546771E-02  0.9396003E-01
        -11   -1    0    0    0    0  0.00000000000E+00  0.00000000000E+00  0.50000000000E+03  0.50000000000E+03  0.00000000000E+00 0. -1.
         11   -1    0    0    0    0 -0.00000000000E+00 -0.00000000000E+00 -0.50000000000E+03  0.50000000000E+03  0.00000000000E+00 0.  1.
        -11    1    1    2    0    0  0.68183566748E+01 -0.22903951276E+01  0.49824324845E+03  0.49829516406E+03  0.00000000000E+00 0. -1.
         11    1    1    2    0    0 -0.85333125292E+00 -0.72116014219E+01 -0.47084792545E+03  0.47090392255E+03  0.00000000000E+00 0.  1.
        -15    1    1    2    0    0 -0.40162809589E+00  0.32317077412E+01 -0.25036644531E+01  0.44756345635E+01  0.17770000000E+01 0. -1.
         15    1    1    2    0    0 -0.55633973260E+01  0.62702888083E+01 -0.24891658543E+02  0.26325278831E+02  0.17770000000E+01 0.  1.
</event>
<event>
 6    1  0.1823098E-004  0.5000797E+03  0.7546771E-02  0.9399631E-01
        -11   -1    0    0    0    0  0.00000000000E+00  0.00000000000E+00  0.50000000000E+03  0.50000000000E+03  0.00000000000E+00 0.  1.
         11   -1    0    0    0    0 -0.00000000000E+00 -0.00000000000E+00 -0.50000000000E+03  0.50000000000E+03  0.00000000000E+00 0. -1.
        -11    1    1    2    0    0 -0.63865316540E+01  0.28030464310E+01  0.49987163375E+03  0.49992028873E+03  0.00000000000E+00 0.  1.
         11    1    1    2    0    0 -0.39054233408E+00  0.19792201601E+01 -0.31040344283E+02  0.31105832394E+02  0.00000000000E+00 0. -1.
        -15    1    1    2    0    0  0.20434708030E+01 -0.49017672374E+00 -0.41511838813E+02  0.41602963077E+02  0.17770000000E+01 0.  1.
         15    1    1    2    0    0  0.47336031850E+01 -0.42920898674E+01 -0.42731945065E+03  0.42737091580E+03  0.17770000000E+01 0. -1.
</event>
<event>
 6    1  0.1823098E-004  0.4761437E+03  0.7546771E-02  0.9454832E-01
        -11   -1    0    0    0    0  0.00000000000E+00  0.00000000000E+00  0.50000000000E+03  0.50000000000E+03  0.00000000000E+00 0.  1.
         11   -1    0    0    0    0 -0.00000000000E+00 -0.00000000000E+00 -0.50000000000E+03  0.50000000000E+03  0.00000000000E+00 0. -1.
        -11    1    1    2    0    0 -0.46265737772E+00 -0.23378189525E+02  0.48231282846E+03  0.48287929992E+03  0.00000000000E+00 0.  1.
         11    1    1    2    0    0 -0.27323164823E+02  0.94283386442E+01 -0.46911720514E+03  0.47000680959E+03  0.00000000000E+00 0. -1.
        -15    1    1    2    0    0  0.10714276199E+02 -0.54570836872E+01  0.72124446689E+01  0.14133384730E+02  0.17770000000E+01 0. -1.
         15    1    1    2    0    0  0.17071546002E+02  0.19406934568E+02 -0.20408067986E+02  0.32980505760E+02  0.17770000000E+01 0.  1.
</event>
<event>
 6    1  0.1823098E-004  0.5009669E+03  0.7546771E-02  0.9397649E-01
        -11   -1    0    0    0    0  0.00000000000E+00  0.00000000000E+00  0.50000000000E+03  0.50000000000E+03  0.00000000000E+00 0.  1.
         11   -1    0    0    0    0 -0.00000000000E+00 -0.00000000000E+00 -0.50000000000E+03  0.50000000000E+03  0.00000000000E+00 0.  1.
        -11    1    1    2    0    0  0.38758090742E-01  0.29725967899E+01  0.16101163754E+03  0.16103907991E+03  0.00000000000E+00 0.  1.
         11    1    1    2    0    0 -0.84878675705E+01  0.23918545305E+02 -0.49838732189E+03  0.49903312848E+03  0.00000000000E+00 0.  1.
        -15    1    1    2    0    0 -0.41823517603E+01 -0.12162332836E+02  0.43233794210E+02  0.45141257150E+02  0.17770000000E+01 0. -1.
         15    1    1    2    0    0  0.12631461240E+02 -0.14728809259E+02  0.29414189014E+03  0.29478653446E+03  0.17770000000E+01 0.  1.
</event>
<event>
 6    1  0.1823098E-004  0.5099873E+03  0.7546771E-02  0.9377736E-01
        -11   -1    0    0    0    0  0.00000000000E+00  0.00000000000E+00  0.50000000000E+03  0.50000000000E+03  0.00000000000E+00 0.  1.
         11   -1    0    0    0    0 -0.00000000000E+00 -0.00000000000E+00 -0.50000000000E+03  0.50000000000E+03  0.00000000000E+00 0. -1.
        -11    1    1    2    0    0  0.13062588273E+01  0.13824433043E+02  0.48981594943E+03  0.49001274022E+03  0.00000000000E+00 0.  1.
         11    1    1    2    0    0  0.13446475736E+02  0.34888724293E+02 -0.42169917896E+03  0.42335355004E+03  0.00000000000E+00 0. -1.
        -15    1    1    2    0    0 -0.10522422794E+02 -0.45795935153E+02 -0.65415032284E+02  0.80562232068E+02  0.17770000000E+01 0. -1.
         15    1    1    2    0    0 -0.42303117700E+01 -0.29172221832E+01 -0.27017381856E+01  0.60714776753E+01  0.17770000000E+01 0.  1.
</event>
<event>
 6    1  0.1823098E-004  0.5012467E+03  0.7546771E-02  0.9397024E-01
        -11   -1    0    0    0    0  0.00000000000E+00  0.00000000000E+00  0.50000000000E+03  0.50000000000E+03  0.00000000000E+00 0. -1.
         11   -1    0    0    0    0 -0.00000000000E+00 -0.00000000000E+00 -0.50000000000E+03  0.50000000000E+03  0.00000000000E+00 0. -1.
        -11    1    1    2    0    0 -0.50340350260E+01 -0.12551107347E+02  0.49856990885E+03  0.49875327149E+03  0.00000000000E+00 0. -1.
         11    1    1    2    0    0  0.10123545504E+02  0.18260810120E+02 -0.10048759636E+03  0.10263381695E+03  0.00000000000E+00 0. -1.
        -15    1    1    2    0    0 -0.51224591054E+01 -0.11639174395E+02 -0.18723488399E+03  0.18767463728E+03  0.17770000000E+01 0. -1.
         15    1    1    2    0    0  0.32948627472E-01  0.59294716221E+01 -0.21084742851E+03  0.21093827428E+03  0.17770000000E+01 0.  1.
</event>
<event>
 6    1  0.1823098E-004  0.5003152E+03  0.7546771E-02  0.9399105E-01
        -11   -1    0    0    0    0  0.00000000000E+00  0.00000000000E+00  0.50000000000E+03  0.50000000000E+03  0.00000000000E+00 0.  1.
         11   -1    0    0    0    0 -0.00000000000E+00 -0.00000000000E+00 -0.50000000000E+03  0.50000000000E+03  0.00000000000E+00 0. -1.
        -11    1    1    2    0    0  0.31295152091E+02  0.79935979920E+01  0.49863972478E+03  0.49968475990E+03  0.00000000000E+00 0.  1.
         11    1    1    2    0    0 -0.31554664716E+02 -0.13388312888E+02 -0.42260814884E+03  0.42399598023E+03  0.00000000000E+00 0. -1.
        -15    1    1    2    0    0 -0.21357960104E+00  0.24543744952E+01 -0.28530561495E+02  0.28691814836E+02  0.17770000000E+01 0.  1.
         15    1    1    2    0    0  0.47309222636E+00  0.29403404003E+01 -0.47501014441E+02  0.47627445028E+02  0.17770000000E+01 0.  1.
</event>
<event>
 6    1  0.1823098E-004  0.5000768E+03  0.7546771E-02  0.9399638E-01
        -11   -1    0    0    0    0  0.00000000000E+00  0.00000000000E+00  0.50000000000E+03  0.50000000000E+03  0.00000000000E+00 0. -1.
         11   -1    0    0    0    0 -0.00000000000E+00 -0.00000000000E+00 -0.50000000000E+03  0.50000000000E+03  0.00000000000E+00 0.  1.
        -11    1    1    2    0    0 -0.30883344093E+01 -0.61899528011E+00  0.18686269304E+03  0.18688923729E+03  0.00000000000E+00 0. -1.
         11    1    1    2    0    0 -0.20860861851E+01  0.97606972041E+01 -0.49982355871E+03  0.49992320691E+03  0.00000000000E+00 0.  1.
        -15    1    1    2    0    0  0.29977808002E+01 -0.53928733957E+01  0.12165000112E+03  0.12181933457E+03  0.17770000000E+01 0.  1.
         15    1    1    2    0    0  0.21766397941E+01 -0.37488285284E+01  0.19131086455E+03  0.19136822123E+03  0.17770000000E+01 0. -1.
</event>
<event>
 6    1  0.1823098E-004  0.5020702E+03  0.7546771E-02  0.9395189E-01
        -11   -1    0    0    0    0  0.00000000000E+00  0.00000000000E+00  0.50000000000E+03  0.50000000000E+03  0.00000000000E+00 0.  1.
         11   -1    0    0    0    0 -0.00000000000E+00 -0.00000000000E+00 -0.50000000000E+03  0.50000000000E+03  0.00000000000E+00 0. -1.
        -11    1    1    2    0    0 -0.17809427554E+03 -0.83677417322E+02  0.45739983044E+03  0.49792980031E+03  0.00000000000E+00 0.  1.
         11    1    1    2    0    0  0.15720460688E+03  0.77538366565E+02 -0.40527052664E+03  0.44155371868E+03  0.00000000000E+00 0. -1.
        -15    1    1    2    0    0  0.17242244909E+02  0.93722219590E+00 -0.15418666444E+02  0.23217803489E+02  0.17770000000E+01 0.  1.
         15    1    1    2    0    0  0.36474237479E+01  0.52018285612E+01 -0.36710637359E+02  0.37298677520E+02  0.17770000000E+01 0. -1.
</event>
<event>
 6    1  0.1823098E-004  0.5008772E+03  0.7546771E-02  0.9397849E-01
        -11   -1    0    0    0    0  0.00000000000E+00  0.00000000000E+00  0.50000000000E+03  0.50000000000E+03  0.00000000000E+00 0.  1.
         11   -1    0    0    0    0 -0.00000000000E+00 -0.00000000000E+00 -0.50000000000E+03  0.50000000000E+03  0.00000000000E+00 0. -1.
        -11    1    1    2    0    0 -0.73543178338E+01 -0.40549121916E+01  0.49905210490E+03  0.49912276216E+03  0.00000000000E+00 0.  1.
         11    1    1    2    0    0 -0.97355497163E+00  0.10554539021E+02 -0.13494275248E+03  0.13535838559E+03  0.00000000000E+00 0. -1.
        -15    1    1    2    0    0  0.26583226465E+01 -0.18164127157E+02 -0.17916218145E+03  0.18010898696E+03  0.17770000000E+01 0.  1.
         15    1    1    2    0    0  0.56695501589E+01  0.11664500328E+02 -0.18494717097E+03  0.18540986529E+03  0.17770000000E+01 0. -1.
</event>
<event>
 6    1  0.1823098E-004  0.5094353E+03  0.7546771E-02  0.9378942E-01
        -11   -1    0    0    0    0  0.00000000000E+00  0.00000000000E+00  0.50000000000E+03  0.50000000000E+03  0.00000000000E+00 0.  1.
         11   -1    0    0    0    0 -0.00000000000E+00 -0.00000000000E+00 -0.50000000000E+03  0.50000000000E+03  0.00000000000E+00 0. -1.
        -11    1    1    2    0    0 -0.15341615161E+01 -0.98232177292E+01  0.49046398125E+03  0.49056474207E+03  0.00000000000E+00 0.  1.
         11    1    1    2    0    0 -0.25444824069E+02 -0.11046289680E+02 -0.41139744633E+03  0.41233156372E+03  0.00000000000E+00 0. -1.
        -15    1    1    2    0    0 -0.12639513924E+00  0.35670793509E+01  0.53959842596E+01  0.67092776032E+01  0.17770000000E+01 0. -1.
         15    1    1    2    0    0  0.27105380725E+02  0.17302428059E+02 -0.84462519174E+02  0.90394416615E+02  0.17770000000E+01 0.  1.
</event>
<event>
 6    1  0.1823098E-004  0.4287626E+03  0.7546771E-02  0.9575037E-01
        -11   -1    0    0    0    0  0.00000000000E+00  0.00000000000E+00  0.50000000000E+03  0.50000000000E+03  0.00000000000E+00 0.  1.
         11   -1    0    0    0    0 -0.00000000000E+00 -0.00000000000E+00 -0.50000000000E+03  0.50000000000E+03  0.00000000000E+00 0.  1.
        -11    1    1    2    0    0  0.14822779788E+02  0.23417395505E+02  0.43945685380E+03  0.44032989402E+03  0.00000000000E+00 0.  1.
         11    1    1    2    0    0  0.55380323429E+02  0.68957877212E+02 -0.41602873695E+03  0.42532585040E+03  0.00000000000E+00 0.  1.
        -15    1    1    2    0    0  0.39633550352E+01 -0.25274190920E+00  0.10439720071E+02  0.11310063916E+02  0.17770000000E+01 0. -1.
         15    1    1    2    0    0 -0.74166458252E+02 -0.92122530808E+02 -0.33867836928E+02  0.12303419167E+03  0.17770000000E+01 0.  1.
</event>
<event>
 6    1  0.1823098E-004  0.4761433E+03  0.7546771E-02  0.9454832E-01
        -11   -1    0    0    0    0  0.00000000000E+00  0.00000000000E+00  0.50000000000E+03  0.50000000000E+03  0.00000000000E+00 0. -1.
         11   -1    0    0    0    0 -0.00000000000E+00 -0.00000000000E+00 -0.50000000000E+03  0.50000000000E+03  0.00000000000E+00 0.  1.
        -11    1    1    2    0    0  0.12878984448E+02 -0.27691828136E+00  0.47935411239E+03  0.47952717336E+03  0.00000000000E+00 0. -1.
         11    1    1    2    0    0  0.27062632414E+02 -0.21882875527E+01 -0.47284323719E+03  0.47362210847E+03  0.00000000000E+00 0.  1.
        -15    1    1    2    0    0 -0.37125585801E+02  0.96784876736E+01 -0.46233838787E+01  0.38684824572E+02  0.17770000000E+01 0. -1.
         15    1    1    2    0    0 -0.28160310622E+01 -0.72132818395E+01 -0.18874913261E+01  0.81658936036E+01  0.17770000000E+01 0.  1.
</event>
<event>
 6    1  0.1823098E-004  0.5038448E+03  0.7546771E-02  0.9391247E-01
        -11   -1    0    0    0    0  0.00000000000E+00  0.00000000000E+00  0.50000000000E+03  0.50000000000E+03  0.00000000000E+00 0.  1.
         11   -1    0    0    0    0 -0.00000000000E+00 -0.00000000000E+00 -0.50000000000E+03  0.50000000000E+03  0.00000000000E+00 0. -1.
        -11    1    1    2    0    0  0.11710303210E+02 -0.13190468504E+02  0.49584153165E+03  0.49615516138E+03  0.00000000000E+00 0.  1.
         11    1    1    2    0    0 -0.46150976025E+02  0.17089059787E+02 -0.21694366754E+03  0.22245562127E+03  0.00000000000E+00 0. -1.
        -15    1    1    2    0    0  0.24097057812E+02 -0.61562874845E+01 -0.15133010350E+03  0.15337055136E+03  0.17770000000E+01 0.  1.
         15    1    1    2    0    0  0.10343615003E+02  0.22576962023E+01 -0.12756776061E+03  0.12801866598E+03  0.17770000000E+01 0. -1.
</event>
<event>
 6    1  0.1823098E-004  0.5005391E+03  0.7546771E-02  0.9398604E-01
        -11   -1    0    0    0    0  0.00000000000E+00  0.00000000000E+00  0.50000000000E+03  0.50000000000E+03  0.00000000000E+00 0. -1.
         11   -1    0    0    0    0 -0.00000000000E+00 -0.00000000000E+00 -0.50000000000E+03  0.50000000000E+03  0.00000000000E+00 0.  1.
        -11    1    1    2    0    0  0.43153358058E+01  0.60000635989E+01  0.49940626377E+03  0.49946094861E+03  0.00000000000E+00 0. -1.
         11    1    1    2    0    0  0.10573052580E+02 -0.63317729342E+01 -0.30430874661E+03  0.30455819485E+03  0.00000000000E+00 0.  1.
        -15    1    1    2    0    0 -0.14913563763E+02 -0.24217811261E+01 -0.15223795883E+03  0.15299618703E+03  0.17770000000E+01 0.  1.
         15    1    1    2    0    0  0.25175376507E-01  0.27534904614E+01 -0.42859558332E+02  0.42984669510E+02  0.17770000000E+01 0. -1.
</event>
<event>
 6    1  0.1823098E-004  0.5069599E+03  0.7546771E-02  0.9384370E-01
        -11   -1    0    0    0    0  0.00000000000E+00  0.00000000000E+00  0.50000000000E+03  0.50000000000E+03  0.00000000000E+00 0. -1.
         11   -1    0    0    0    0 -0.00000000000E+00 -0.00000000000E+00 -0.50000000000E+03  0.50000000000E+03  0.00000000000E+00 0. -1.
        -11    1    1    2    0    0  0.13262134640E+01 -0.67949410473E+01  0.49299149525E+03  0.49304010431E+03  0.00000000000E+00 0. -1.
         11    1    1    2    0    0  0.87033257517E+01 -0.10922153765E+02 -0.47982867612E+03  0.48003187368E+03  0.00000000000E+00 0. -1.
        -15    1    1    2    0    0 -0.11740399825E+02  0.12368282318E+02 -0.11990545142E+02  0.20922291876E+02  0.17770000000E+01 0. -1.
         15    1    1    2    0    0  0.17108606097E+01  0.53488124943E+01 -0.11722739900E+01  0.60057301332E+01  0.17770000000E+01 0.  1.
</event>
<event>
 6    1  0.1823098E-004  0.5079822E+03  0.7546771E-02  0.9382124E-01
        -11   -1    0    0    0    0  0.00000000000E+00  0.00000000000E+00  0.50000000000E+03  0.50000000000E+03  0.00000000000E+00 0. -1.
         11   -1    0    0    0    0 -0.00000000000E+00 -0.00000000000E+00 -0.50000000000E+03  0.50000000000E+03  0.00000000000E+00 0.  1.
        -11    1    1    2    0    0  0.14516435996E+01 -0.46927426848E+01  0.18170993631E+03  0.18177631874E+03  0.00000000000E+00 0. -1.
         11    1    1    2    0    0 -0.33632804911E+02 -0.13044111463E+03 -0.47321819242E+03  0.49201779194E+03  0.00000000000E+00 0.  1.
        -15    1    1    2    0    0  0.24492135518E+02  0.12499577340E+03  0.22580480714E+03  0.25925812760E+03  0.17770000000E+01 0. -1.
         15    1    1    2    0    0  0.76890257934E+01  0.10138083916E+02  0.65703448965E+02  0.66947761711E+02  0.17770000000E+01 0.  1.
</event>
<event>
 6    1  0.1823098E-004  0.5046032E+03  0.7546771E-02  0.9389568E-01
        -11   -1    0    0    0    0  0.00000000000E+00  0.00000000000E+00  0.50000000000E+03  0.50000000000E+03  0.00000000000E+00 0.  1.
         11   -1    0    0    0    0 -0.00000000000E+00 -0.00000000000E+00 -0.50000000000E+03  0.50000000000E+03  0.00000000000E+00 0. -1.
        -11    1    1    2    0    0 -0.87063584155E+00 -0.19880131986E+02  0.49499695032E+03  0.49539676874E+03  0.00000000000E+00 0.  1.
         11    1    1    2    0    0  0.18318898049E+02 -0.17471332155E+02 -0.39695721357E+03  0.39776357158E+03  0.00000000000E+00 0. -1.
        -15    1    1    2    0    0 -0.12947492023E+02  0.31600187657E+02 -0.87047683625E+02  0.93523613933E+02  0.17770000000E+01 0.  1.
         15    1    1    2    0    0 -0.45007701844E+01  0.57512764834E+01 -0.10992053124E+02  0.13316045747E+02  0.17770000000E+01 0. -1.
</event>
<event>
 6    1  0.1823098E-004  0.4245907E+03  0.7546771E-02  0.9586409E-01
        -11   -1    0    0    0    0  0.00000000000E+00  0.00000000000E+00  0.50000000000E+03  0.50000000000E+03  0.00000000000E+00 0. -1.
         11   -1    0    0    0    0 -0.00000000000E+00 -0.00000000000E+00 -0.50000000000E+03  0.50000000000E+03  0.00000000000E+00 0. -1.
        -11    1    1    2    0    0 -0.21613308770E+02 -0.32970055655E+02  0.44805780164E+03  0.44978878743E+03  0.00000000000E+00 0. -1.
         11    1    1    2    0    0 -0.92177804273E+02  0.36316716873E+02 -0.39635318534E+03  0.40854803763E+03  0.00000000000E+00 0. -1.
        -15    1    1    2    0    0  0.58359988472E+02  0.19650981615E+02 -0.53506247568E+02  0.81597338135E+02  0.17770000000E+01 0.  1.
         15    1    1    2    0    0  0.55431124571E+02 -0.22997642834E+02  0.18016312668E+01  0.60065836807E+02  0.17770000000E+01 0. -1.
</event>
<event>
 6    1  0.1823098E-004  0.5004834E+03  0.7546771E-02  0.9398729E-01
        -11   -1    0    0    0    0  0.00000000000E+00  0.00000000000E+00  0.50000000000E+03  0.50000000000E+03  0.00000000000E+00 0.  1.
         11   -1    0    0    0    0 -0.00000000000E+00 -0.00000000000E+00 -0.50000000000E+03  0.50000000000E+03  0.00000000000E+00 0. -1.
        -11    1    1    2    0    0  0.73388687175E+01 -0.34843878208E+01  0.49945055641E+03  0.49951662460E+03  0.00000000000E+00 0.  1.
         11    1    1    2    0    0 -0.43561741602E+01 -0.75368947692E+01 -0.38729122504E+03  0.38738904738E+03  0.00000000000E+00 0. -1.
        -15    1    1    2    0    0 -0.15450410000E+01  0.57142693867E+01 -0.89384091791E+02  0.89597509009E+02  0.17770000000E+01 0. -1.
         15    1    1    2    0    0 -0.14376535574E+01  0.53070132033E+01 -0.22775239576E+02  0.23496819011E+02  0.17770000000E+01 0.  1.
</event>
<event>
 6    1  0.1823098E-004  0.5210887E+03  0.7546771E-02  0.9353820E-01
        -11   -1    0    0    0    0  0.00000000000E+00  0.00000000000E+00  0.50000000000E+03  0.50000000000E+03  0.00000000000E+00 0.  1.
         11   -1    0    0    0    0 -0.00000000000E+00 -0.00000000000E+00 -0.50000000000E+03  0.50000000000E+03  0.00000000000E+00 0. -1.
        -11    1    1    2    0    0 -0.64718833939E+01  0.87967303106E+01  0.47878677585E+03  0.47891131170E+03  0.00000000000E+00 0.  1.
         11    1    1    2    0    0  0.37481139368E+01  0.50643192737E+02 -0.43197518452E+03  0.43494981477E+03  0.00000000000E+00 0. -1.
        -15    1    1    2    0    0 -0.57216238928E+01 -0.62158630736E+02 -0.44840610189E+02  0.76878283058E+02  0.17770000000E+01 0. -1.
         15    1    1    2    0    0  0.84453933499E+01  0.27187076876E+01 -0.19709811477E+01  0.92605904784E+01  0.17770000000E+01 0.  1.
</event>
<event>
 6    1  0.1823098E-004  0.5011568E+03  0.7546771E-02  0.9397225E-01
        -11   -1    0    0    0    0  0.00000000000E+00  0.00000000000E+00  0.50000000000E+03  0.50000000000E+03  0.00000000000E+00 0. -1.
         11   -1    0    0    0    0 -0.00000000000E+00 -0.00000000000E+00 -0.50000000000E+03  0.50000000000E+03  0.00000000000E+00 0.  1.
        -11    1    1    2    0    0  0.99514499091E+01  0.16566978983E+02  0.49846865382E+03  0.49884315670E+03  0.00000000000E+00 0. -1.
         11    1    1    2    0    0 -0.16780928125E+01 -0.95542694300E+01 -0.18613110105E+02  0.20989233611E+02  0.00000000000E+00 0.  1.
        -15    1    1    2    0    0 -0.68560732764E+01 -0.10728285899E+02 -0.37926970265E+03  0.37948750564E+03  0.17770000000E+01 0.  1.
         15    1    1    2    0    0 -0.14172838201E+01  0.37155763461E+01 -0.10058584106E+03  0.10068010405E+03  0.17770000000E+01 0. -1.
</event>
<event>
 6    1  0.1823098E-004  0.5182012E+03  0.7546771E-02  0.9359980E-01
        -11   -1    0    0    0    0  0.00000000000E+00  0.00000000000E+00  0.50000000000E+03  0.50000000000E+03  0.00000000000E+00 0. -1.
         11   -1    0    0    0    0 -0.00000000000E+00 -0.00000000000E+00 -0.50000000000E+03  0.50000000000E+03  0.00000000000E+00 0. -1.
        -11    1    1    2    0    0 -0.11695921785E+02 -0.11740550086E+02  0.48151375121E+03  0.48179884568E+03  0.00000000000E+00 0. -1.
         11    1    1    2    0    0  0.40252897123E+02 -0.39346051603E+02 -0.42692600510E+03  0.43062073955E+03  0.00000000000E+00 0. -1.
        -15    1    1    2    0    0 -0.34324482343E+02  0.39205082121E+02 -0.52679470712E+02  0.74118101134E+02  0.17770000000E+01 0.  1.
         15    1    1    2    0    0  0.57675070052E+01  0.11881519567E+02 -0.19082753977E+01  0.13462313630E+02  0.17770000000E+01 0. -1.
</event>
<event>
 6    1  0.1823098E-004  0.5029079E+03  0.7546771E-02  0.9393326E-01
        -11   -1    0    0    0    0  0.00000000000E+00  0.00000000000E+00  0.50000000000E+03  0.50000000000E+03  0.00000000000E+00 0.  1.
         11   -1    0    0    0    0 -0.00000000000E+00 -0.00000000000E+00 -0.50000000000E+03  0.50000000000E+03  0.00000000000E+00 0. -1.
        -11    1    1    2    0    0  0.29846827989E+01 -0.76217895120E+01  0.47500559049E+03  0.47507611075E+03  0.00000000000E+00 0.  1.
         11    1    1    2    0    0 -0.71811455186E+00 -0.67462529235E+01 -0.49704575298E+03  0.49709205201E+03  0.00000000000E+00 0. -1.
        -15    1    1    2    0    0 -0.35826691521E+01  0.14197418604E+02  0.18597612710E+02  0.23736704506E+02  0.17770000000E+01 0.  1.
         15    1    1    2    0    0  0.13161009051E+01  0.17062383164E+00  0.34425497789E+01  0.40951327286E+01  0.17770000000E+01 0. -1.
</event>
<event>
 6    1  0.1823098E-004  0.5001153E+03  0.7546771E-02  0.9399552E-01
        -11   -1    0    0    0    0  0.00000000000E+00  0.00000000000E+00  0.50000000000E+03  0.50000000000E+03  0.00000000000E+00 0. -1.
         11   -1    0    0    0    0 -0.00000000000E+00 -0.00000000000E+00 -0.50000000000E+03  0.50000000000E+03  0.00000000000E+00 0. -1.
        -11    1    1    2    0    0 -0.82802545083E+01 -0.25537779888E+01  0.49980961681E+03  0.49988472416E+03  0.00000000000E+00 0. -1.
         11    1    1    2    0    0  0.43601981968E+01  0.28668476805E+01 -0.92166132663E+02  0.92313737624E+02  0.00000000000E+00 0. -1.
        -15    1    1    2    0    0 -0.21065608264E+01  0.28015975810E+01 -0.98208713540E+02  0.98287311957E+02  0.17770000000E+01 0. -1.
         15    1    1    2    0    0  0.60266171379E+01 -0.31146672727E+01 -0.30943477061E+03  0.30951422626E+03  0.17770000000E+01 0.  1.
</event>
<event>
 6    1  0.1823098E-004  0.4759376E+03  0.7546771E-02  0.9455322E-01
        -11   -1    0    0    0    0  0.00000000000E+00  0.00000000000E+00  0.50000000000E+03  0.50000000000E+03  0.00000000000E+00 0. -1.
         11   -1    0    0    0    0 -0.00000000000E+00 -0.00000000000E+00 -0.50000000000E+03  0.50000000000E+03  0.00000000000E+00 0. -1.
        -11    1    1    2    0    0  0.35976134586E+01 -0.67303969315E+01  0.47318319743E+03  0.47324473520E+03  0.00000000000E+00 0. -1.
         11    1    1    2    0    0  0.36731474018E+01 -0.37422318346E+02 -0.47821884504E+03  0.47969488810E+03  0.00000000000E+00 0. -1.
        -15    1    1    2    0    0 -0.93461956474E+01  0.41391872609E+02  0.27647848453E+01  0.42561018026E+02  0.17770000000E+01 0.  1.
         15    1    1    2    0    0  0.20754347870E+01  0.27608426685E+01  0.22708627649E+01  0.44993586757E+01  0.17770000000E+01 0. -1.
</event>
<event>
 6    1  0.1823098E-004  0.5013874E+03  0.7546771E-02  0.9396711E-01
        -11   -1    0    0    0    0  0.00000000000E+00  0.00000000000E+00  0.50000000000E+03  0.50000000000E+03  0.00000000000E+00 0. -1.
         11   -1    0    0    0    0 -0.00000000000E+00 -0.00000000000E+00 -0.50000000000E+03  0.50000000000E+03  0.00000000000E+00 0.  1.
        -11    1    1    2    0    0  0.81212513320E+01  0.25482653310E+01  0.49853998002E+03  0.49861263527E+03  0.00000000000E+00 0. -1.
         11    1    1    2    0    0 -0.46517346364E+00 -0.11082335768E+02 -0.46363867828E+03  0.46377134296E+03  0.00000000000E+00 0.  1.
        -15    1    1    2    0    0 -0.73793659915E+01  0.41073349281E+01 -0.16702664122E+02  0.18800584044E+02  0.17770000000E+01 0.  1.
         15    1    1    2    0    0 -0.27671187681E+00  0.44267355084E+01 -0.18198637612E+02  0.18815437722E+02  0.17770000000E+01 0. -1.
</event>
<event>
 6    1  0.1823098E-004  0.5038374E+03  0.7546771E-02  0.9391264E-01
        -11   -1    0    0    0    0  0.00000000000E+00  0.00000000000E+00  0.50000000000E+03  0.50000000000E+03  0.00000000000E+00 0.  1.
         11   -1    0    0    0    0 -0.00000000000E+00 -0.00000000000E+00 -0.50000000000E+03  0.50000000000E+03  0.00000000000E+00 0. -1.
        -11    1    1    2    0    0 -0.32823253114E+02  0.35254685106E+02  0.49381889664E+03  0.49616263608E+03  0.00000000000E+00 0.  1.
         11    1    1    2    0    0 -0.14736977185E+02  0.13594049660E+01 -0.26863702626E+03  0.26904437990E+03  0.00000000000E+00 0. -1.
        -15    1    1    2    0    0  0.14682230089E+01  0.27558173801E+00 -0.36863553362E+00  0.23505840242E+01  0.17770000000E+01 0. -1.
         15    1    1    2    0    0  0.46092007290E+02 -0.36889671810E+02 -0.22481323484E+03  0.23244239999E+03  0.17770000000E+01 0.  1.
</event>
<event>
 6    1  0.1823098E-004  0.5018083E+03  0.7546771E-02  0.9395773E-01
        -11   -1    0    0    0    0  0.00000000000E+00  0.00000000000E+00  0.50000000000E+03  0.50000000000E+03  0.00000000000E+00 0.  1.
         11   -1    0    0    0    0 -0.00000000000E+00 -0.00000000000E+00 -0.50000000000E+03  0.50000000000E+03  0.00000000000E+00 0.  1.
        -11    1    1    2    0    0 -0.11764534994E+02  0.44979754495E+01  0.49803250710E+03  0.49819174441E+03  0.00000000000E+00 0.  1.
         11    1    1    2    0    0 -0.75513301886E+01 -0.87812761765E+01 -0.42454304958E+03  0.42470099405E+03  0.00000000000E+00 0.  1.
        -15    1    1    2    0    0  0.64276508463E+01 -0.68109022165E+00 -0.43852601647E+02  0.44361999273E+02  0.17770000000E+01 0.  1.
         15    1    1    2    0    0  0.12888214336E+02  0.49643909486E+01 -0.29636855874E+02  0.32745262274E+02  0.17770000000E+01 0. -1.
</event>
<event>
 6    1  0.1823098E-004  0.5026222E+03  0.7546771E-02  0.9393961E-01
        -11   -1    0    0    0    0  0.00000000000E+00  0.00000000000E+00  0.50000000000E+03  0.50000000000E+03  0.00000000000E+00 0.  1.
         11   -1    0    0    0    0 -0.00000000000E+00 -0.00000000000E+00 -0.50000000000E+03  0.50000000000E+03  0.00000000000E+00 0. -1.
        -11    1    1    2    0    0  0.73504708256E+01  0.32778684740E+01  0.49731270068E+03  0.49737782027E+03  0.00000000000E+00 0.  1.
         11    1    1    2    0    0  0.57289445485E+01 -0.27825033384E+02 -0.33670788445E+03  0.33790420645E+03  0.00000000000E+00 0. -1.
        -15    1    1    2    0    0 -0.99853371512E+01  0.27899091434E+02 -0.15149526621E+03  0.15437629246E+03  0.17770000000E+01 0. -1.
         15    1    1    2    0    0 -0.30940782229E+01 -0.33519265242E+01 -0.91095500211E+01  0.10341680814E+02  0.17770000000E+01 0.  1.
</event>
<event>
 6    1  0.1823098E-004  0.5093806E+03  0.7546771E-02  0.9379061E-01
        -11   -1    0    0    0    0  0.00000000000E+00  0.00000000000E+00  0.50000000000E+03  0.50000000000E+03  0.00000000000E+00 0.  1.
         11   -1    0    0    0    0 -0.00000000000E+00 -0.00000000000E+00 -0.50000000000E+03  0.50000000000E+03  0.00000000000E+00 0. -1.
        -11    1    1    2    0    0  0.10938556564E+02 -0.49143700380E+01  0.47428112716E+03  0.47443270401E+03  0.00000000000E+00 0.  1.
         11    1    1    2    0    0  0.47947665728E+01 -0.12714512333E+02 -0.49043117668E+03  0.49061939186E+03  0.00000000000E+00 0. -1.
        -15    1    1    2    0    0 -0.14620105745E+00  0.86354332460E+01  0.14260463310E+02  0.16766353954E+02  0.17770000000E+01 0. -1.
         15    1    1    2    0    0 -0.15587122079E+02  0.89934491246E+01  0.18895862069E+01  0.18181550179E+02  0.17770000000E+01 0.  1.
</event>
<event>
 6    1  0.1823098E-004  0.5046983E+03  0.7546771E-02  0.9389358E-01
        -11   -1    0    0    0    0  0.00000000000E+00  0.00000000000E+00  0.50000000000E+03  0.50000000000E+03  0.00000000000E+00 0. -1.
         11   -1    0    0    0    0 -0.00000000000E+00 -0.00000000000E+00 -0.50000000000E+03  0.50000000000E+03  0.00000000000E+00 0. -1.
        -11    1    1    2    0    0  0.36638023601E+01 -0.16217361579E+02  0.34973315000E+03  0.35012812294E+03  0.00000000000E+00 0. -1.
         11    1    1    2    0    0  0.50466295457E+02  0.12886433258E+02 -0.49255547849E+03  0.49530173281E+03  0.00000000000E+00 0. -1.
        -15    1    1    2    0    0 -0.49208690215E+02  0.99286788190E+01  0.11477017901E+03  0.12528138558E+03  0.17770000000E+01 0. -1.
         15    1    1    2    0    0 -0.49214076024E+01 -0.65977504973E+01  0.28052149481E+02  0.29288758661E+02  0.17770000000E+01 0.  1.
</event>
<event>
 6    1  0.1823098E-004  0.5002810E+03  0.7546771E-02  0.9399181E-01
        -11   -1    0    0    0    0  0.00000000000E+00  0.00000000000E+00  0.50000000000E+03  0.50000000000E+03  0.00000000000E+00 0. -1.
         11   -1    0    0    0    0 -0.00000000000E+00 -0.00000000000E+00 -0.50000000000E+03  0.50000000000E+03  0.00000000000E+00 0. -1.
        -11    1    1    2    0    0 -0.40365205696E+01  0.70650138596E+01  0.49965274336E+03  0.49971899290E+03  0.00000000000E+00 0. -1.
         11    1    1    2    0    0 -0.15258280117E+01 -0.43652348174E+01 -0.30450299933E+03  0.30453810932E+03  0.00000000000E+00 0. -1.
        -15    1    1    2    0    0  0.64150171683E+01 -0.32925652627E+01 -0.47351324961E+02  0.47930148507E+02  0.17770000000E+01 0.  1.
         15    1    1    2    0    0 -0.85266858707E+00  0.59278622058E+00 -0.14779841907E+03  0.14781274927E+03  0.17770000000E+01 0. -1.
</event>
<event>
 6    1  0.1823098E-004  0.5045116E+03  0.7546771E-02  0.9389771E-01
        -11   -1    0    0    0    0  0.00000000000E+00  0.00000000000E+00  0.50000000000E+03  0.50000000000E+03  0.00000000000E+00 0.  1.
         11   -1    0    0    0    0 -0.00000000000E+00 -0.00000000000E+00 -0.50000000000E+03  0.50000000000E+03  0.00000000000E+00 0.  1.
        -11    1    1    2    0    0  0.13754390294E+02 -0.35421665538E+01  0.49528475983E+03  0.49548836870E+03  0.00000000000E+00 0.  1.
         11    1    1    2    0    0  0.12550611595E+02  0.18422671491E+02 -0.43951898840E+03  0.44008391682E+03  0.00000000000E+00 0.  1.
        -15    1    1    2    0    0 -0.22907047683E+02 -0.10444599803E+02 -0.50878819004E+02  0.56794669211E+02  0.17770000000E+01 0.  1.
         15    1    1    2    0    0 -0.33979542053E+01 -0.44359051345E+01 -0.48869524232E+01  0.76330452724E+01  0.17770000000E+01 0. -1.
</event>
<event>
 6    1  0.1823098E-004  0.5006078E+03  0.7546771E-02  0.9398451E-01
        -11   -1    0    0    0    0  0.00000000000E+00  0.00000000000E+00  0.50000000000E+03  0.50000000000E+03  0.00000000000E+00 0. -1.
         11   -1    0    0    0    0 -0.00000000000E+00 -0.00000000000E+00 -0.50000000000E+03  0.50000000000E+03  0.00000000000E+00 0. -1.
        -11    1    1    2    0    0  0.49113972610E+01  0.88333375709E+01  0.22983401841E+03  0.23005613597E+03  0.00000000000E+00 0. -1.
         11    1    1    2    0    0  0.16924254737E+02  0.48554208757E+01 -0.49908176187E+03  0.49939224117E+03  0.00000000000E+00 0. -1.
        -15    1    1    2    0    0 -0.75793427854E+01 -0.77156889204E+01  0.11502163824E+03  0.11554269031E+03  0.17770000000E+01 0. -1.
         15    1    1    2    0    0 -0.14256309212E+02 -0.59730695263E+01  0.15422610522E+03  0.15500893255E+03  0.17770000000E+01 0.  1.
</event>
<event>
 6    1  0.1823098E-004  0.5188047E+03  0.7546771E-02  0.9358689E-01
        -11   -1    0    0    0    0  0.00000000000E+00  0.00000000000E+00  0.50000000000E+03  0.50000000000E+03  0.00000000000E+00 0. -1.
         11   -1    0    0    0    0 -0.00000000000E+00 -0.00000000000E+00 -0.50000000000E+03  0.50000000000E+03  0.00000000000E+00 0. -1.
        -11    1    1    2    0    0  0.11037735833E+02 -0.81045876049E+01  0.48100038845E+03  0.48119527184E+03  0.00000000000E+00 0. -1.
         11    1    1    2    0    0  0.90629181058E+01 -0.39084624420E+02 -0.43637056666E+03  0.43821115435E+03  0.00000000000E+00 0. -1.
        -15    1    1    2    0    0  0.33839949815E+01  0.14394784118E+01  0.67424098203E+01  0.78829778204E+01  0.17770000000E+01 0. -1.
         15    1    1    2    0    0 -0.23484648920E+02  0.45749733614E+02 -0.51372231608E+02  0.72710595995E+02  0.17770000000E+01 0.  1.
</event>
<event>
 6    1  0.1823098E-004  0.4995054E+03  0.7546771E-02  0.9400917E-01
        -11   -1    0    0    0    0  0.00000000000E+00  0.00000000000E+00  0.50000000000E+03  0.50000000000E+03  0.00000000000E+00 0.  1.
         11   -1    0    0    0    0 -0.00000000000E+00 -0.00000000000E+00 -0.50000000000E+03  0.50000000000E+03  0.00000000000E+00 0. -1.
        -11    1    1    2    0    0  0.15993543919E+01 -0.83904678000E+01  0.49884955670E+03  0.49892267748E+03  0.00000000000E+00 0.  1.
         11    1    1    2    0    0  0.21206481033E+00 -0.13880869214E+01  0.26065464898E+00  0.14281798315E+01  0.00000000000E+00 0. -1.
        -15    1    1    2    0    0 -0.22183797141E+00  0.16133864683E+02 -0.37871181676E+03  0.37905955822E+03  0.17770000000E+01 0. -1.
         15    1    1    2    0    0 -0.15895812308E+01 -0.63553099611E+01 -0.12039839459E+03  0.12058958447E+03  0.17770000000E+01 0.  1.
</event>
<event>
 6    1  0.1823098E-004  0.4748756E+03  0.7546771E-02  0.9457852E-01
        -11   -1    0    0    0    0  0.00000000000E+00  0.00000000000E+00  0.50000000000E+03  0.50000000000E+03  0.00000000000E+00 0. -1.
         11   -1    0    0    0    0 -0.00000000000E+00 -0.00000000000E+00 -0.50000000000E+03  0.50000000000E+03  0.00000000000E+00 0.  1.
        -11    1    1    2    0    0 -0.49119076011E+01  0.12636347605E+02  0.46768828640E+03  0.46788474793E+03  0.00000000000E+00 0. -1.
         11    1    1    2    0    0 -0.30105997157E+02 -0.24414049531E+02 -0.48112077729E+03  0.48267962379E+03  0.00000000000E+00 0.  1.
        -15    1    1    2    0    0  0.46654366506E+01 -0.85357322204E+00  0.15638245109E+02  0.16437984228E+02  0.17770000000E+01 0.  1.
         15    1    1    2    0    0  0.30352468108E+02  0.12631275148E+02 -0.22057542152E+01  0.32997644048E+02  0.17770000000E+01 0. -1.
</event>
<event>
 6    1  0.1823098E-004  0.5019604E+03  0.7546771E-02  0.9395434E-01
        -11   -1    0    0    0    0  0.00000000000E+00  0.00000000000E+00  0.50000000000E+03  0.50000000000E+03  0.00000000000E+00 0. -1.
         11   -1    0    0    0    0 -0.00000000000E+00 -0.00000000000E+00 -0.50000000000E+03  0.50000000000E+03  0.00000000000E+00 0.  1.
        -11    1    1    2    0    0  0.77095473095E+01 -0.31628259981E+01  0.44351898966E+03  0.44359726642E+03  0.00000000000E+00 0. -1.
         11    1    1    2    0    0 -0.18973053902E+01 -0.80761435500E+01 -0.49797047953E+03  0.49803957909E+03  0.00000000000E+00 0.  1.
        -15    1    1    2    0    0 -0.51913983491E+01 -0.15389744749E+01  0.62362160595E+01  0.84479097411E+01  0.17770000000E+01 0. -1.
         15    1    1    2    0    0 -0.62084357011E+00  0.12777944023E+02  0.48215273809E+02  0.49915244742E+02  0.17770000000E+01 0.  1.
</event>
<event>
 6    1  0.1823098E-004  0.5010183E+03  0.7546771E-02  0.9397534E-01
        -11   -1    0    0    0    0  0.00000000000E+00  0.00000000000E+00  0.50000000000E+03  0.50000000000E+03  0.00000000000E+00 0. -1.
         11   -1    0    0    0    0 -0.00000000000E+00 -0.00000000000E+00 -0.50000000000E+03  0.50000000000E+03  0.00000000000E+00 0.  1.
        -11    1    1    2    0    0 -0.67518168348E+01  0.96427843420E+00  0.38659622874E+03  0.38665638614E+03  0.00000000000E+00 0. -1.
         11    1    1    2    0    0 -0.95132709674E+01 -0.62296746605E+01 -0.49885206970E+03  0.49898166160E+03  0.00000000000E+00 0.  1.
        -15    1    1    2    0    0  0.11899418827E+02 -0.19970113913E+01  0.81622258633E+02  0.82528389396E+02  0.17770000000E+01 0.  1.
         15    1    1    2    0    0  0.43656689748E+01  0.72624076176E+01  0.30633582321E+02  0.31833562867E+02  0.17770000000E+01 0. -1.
</event>
<event>
 6    1  0.1823098E-004  0.5028810E+03  0.7546771E-02  0.9393386E-01
        -11   -1    0    0    0    0  0.00000000000E+00  0.00000000000E+00  0.50000000000E+03  0.50000000000E+03  0.00000000000E+00 0. -1.
         11   -1    0    0    0    0 -0.00000000000E+00 -0.00000000000E+00 -0.50000000000E+03  0.50000000000E+03  0.00000000000E+00 0.  1.
        -11    1    1    2    0    0 -0.72388074749E+01 -0.41935344343E+01  0.47369780603E+03  0.47377167233E+03  0.00000000000E+00 0. -1.
         11    1    1    2    0    0 -0.21002511256E+01 -0.87319903945E+01 -0.49703783685E+03  0.49711896964E+03  0.00000000000E+00 0.  1.
        -15    1    1    2    0    0  0.24146053135E+01  0.82979580140E+01  0.13047538357E+02  0.15750632121E+02  0.17770000000E+01 0.  1.
         15    1    1    2    0    0  0.69244532870E+01  0.46275668148E+01  0.10292492466E+02  0.13358725916E+02  0.17770000000E+01 0. -1.
</event>
<event>
 6    1  0.1823098E-004  0.5009011E+03  0.7546771E-02  0.9397796E-01
        -11   -1    0    0    0    0  0.00000000000E+00  0.00000000000E+00  0.50000000000E+03  0.50000000000E+03  0.00000000000E+00 0. -1.
         11   -1    0    0    0    0 -0.00000000000E+00 -0.00000000000E+00 -0.50000000000E+03  0.50000000000E+03  0.00000000000E+00 0.  1.
        -11    1    1    2    0    0  0.33851876136E+01 -0.49701770823E+01  0.40550655208E+03  0.40555113849E+03  0.00000000000E+00 0. -1.
         11    1    1    2    0    0  0.48804308107E+00  0.14723328593E+02 -0.49888143391E+03  0.49909888769E+03  0.00000000000E+00 0.  1.
        -15    1    1    2    0    0 -0.41944273198E+01  0.35960928172E+01  0.25652203850E+02  0.26300539832E+02  0.17770000000E+01 0.  1.
         15    1    1    2    0    0  0.32119662519E+00 -0.13349244328E+02  0.67722677986E+02  0.69049433988E+02  0.17770000000E+01 0. -1.
</event>
<event>
 6    1  0.2466448E-004  0.4835108E+03  0.7546771E-02  0.9437481E-01
        -11   -1    0    0    0    0  0.00000000000E+00  0.00000000000E+00  0.50000000000E+03  0.50000000000E+03  0.00000000000E+00 0. -1.
         11   -1    0    0    0    0 -0.00000000000E+00 -0.00000000000E+00 -0.50000000000E+03  0.50000000000E+03  0.00000000000E+00 0. -1.
        -11    1    1    2    0    0 -0.18712575166E+00  0.55218046741E+00  0.35527435340E+02  0.35532218917E+02  0.00000000000E+00 0. -1.
         11    1    1    2    0    0  0.63715730879E+02  0.14700215945E+02 -0.49386209739E+03  0.49817222117E+03  0.00000000000E+00 0. -1.
        -15    1    1    2    0    0 -0.25601288239E+01 -0.92068407840E+01  0.21970405375E+03  0.21991896039E+03  0.17770000000E+01 0. -1.
         15    1    1    2    0    0 -0.60968476304E+02 -0.60455556285E+01  0.23863060830E+03  0.24637659952E+03  0.17770000000E+01 0.  1.
</event>
<event>
 6    1  0.1823098E-004  0.5008239E+03  0.7546771E-02  0.9397968E-01
        -11   -1    0    0    0    0  0.00000000000E+00  0.00000000000E+00  0.50000000000E+03  0.50000000000E+03  0.00000000000E+00 0.  1.
         11   -1    0    0    0    0 -0.00000000000E+00 -0.00000000000E+00 -0.50000000000E+03  0.50000000000E+03  0.00000000000E+00 0.  1.
        -11    1    1    2    0    0  0.78627685358E+01 -0.28088189727E+02  0.49832320866E+03  0.49917611103E+03  0.00000000000E+00 0.  1.
         11    1    1    2    0    0  0.63016069711E+01  0.66709519836E+01 -0.27911007217E+03  0.27926088920E+03  0.00000000000E+00 0.  1.
        -15    1    1    2    0    0 -0.34053461475E+01 -0.33612139836E+01 -0.36533373077E+02  0.36888198915E+02  0.17770000000E+01 0. -1.
         15    1    1    2    0    0 -0.10759029359E+02  0.24778451727E+02 -0.18267976341E+03  0.18467480086E+03  0.17770000000E+01 0.  1.
</event>
<event>
 6    1  0.1823098E-004  0.5012172E+03  0.7546771E-02  0.9397090E-01
        -11   -1    0    0    0    0  0.00000000000E+00  0.00000000000E+00  0.50000000000E+03  0.50000000000E+03  0.00000000000E+00 0.  1.
         11   -1    0    0    0    0 -0.00000000000E+00 -0.00000000000E+00 -0.50000000000E+03  0.50000000000E+03  0.00000000000E+00 0.  1.
        -11    1    1    2    0    0  0.84545405362E+01  0.11497500772E+02  0.49857860959E+03  0.49878282020E+03  0.00000000000E+00 0.  1.
         11    1    1    2    0    0  0.57546201882E+01 -0.41837960255E+01 -0.40003662561E+03  0.40009988957E+03  0.00000000000E+00 0.  1.
        -15    1    1    2    0    0 -0.15733289222E+02 -0.48617777619E+01 -0.94008632279E+02  0.95456555274E+02  0.17770000000E+01 0.  1.
         15    1    1    2    0    0  0.15241284976E+01 -0.24519269845E+01 -0.45333517037E+01  0.56607349597E+01  0.17770000000E+01 0. -1.
</event>
<event>
 6    1  0.1823098E-004  0.5022441E+03  0.7546771E-02  0.9394802E-01
        -11   -1    0    0    0    0  0.00000000000E+00  0.00000000000E+00  0.50000000000E+03  0.50000000000E+03  0.00000000000E+00 0. -1.
         11   -1    0    0    0    0 -0.00000000000E+00 -0.00000000000E+00 -0.50000000000E+03  0.50000000000E+03  0.00000000000E+00 0. -1.
        -11    1    1    2    0    0  0.33088971363E+01  0.10318305991E+02  0.49763798185E+03  0.49775594142E+03  0.00000000000E+00 0. -1.
         11    1    1    2    0    0  0.17470610766E+02 -0.65212334429E+00 -0.40829087917E+03  0.40866500893E+03  0.00000000000E+00 0. -1.
        -15    1    1    2    0    0 -0.10179829590E+02 -0.10537718595E+01 -0.16919732963E+02  0.19853827292E+02  0.17770000000E+01 0. -1.
         15    1    1    2    0    0 -0.10599678312E+02 -0.86124107869E+01 -0.72427369715E+02  0.73725222364E+02  0.17770000000E+01 0.  1.
</event>
<event>
 6    1  0.1823098E-004  0.5019053E+03  0.7546771E-02  0.9395557E-01
        -11   -1    0    0    0    0  0.00000000000E+00  0.00000000000E+00  0.50000000000E+03  0.50000000000E+03  0.00000000000E+00 0. -1.
         11   -1    0    0    0    0 -0.00000000000E+00 -0.00000000000E+00 -0.50000000000E+03  0.50000000000E+03  0.00000000000E+00 0. -1.
        -11    1    1    2    0    0 -0.43697601295E+01  0.72256777418E+01  0.49237820426E+03  0.49245060793E+03  0.00000000000E+00 0. -1.
         11    1    1    2    0    0  0.73311286956E+01 -0.28505407301E+01 -0.49803263272E+03  0.49809474429E+03  0.00000000000E+00 0. -1.
        -15    1    1    2    0    0  0.32730531061E+00 -0.24325762719E+01  0.10333736372E+01  0.32015849448E+01  0.17770000000E+01 0.  1.
         15    1    1    2    0    0 -0.32886738767E+01 -0.19425607398E+01  0.46210548308E+01  0.62530628371E+01  0.17770000000E+01 0. -1.
</event>
<event>
 6    1  0.1823098E-004  0.5008472E+03  0.7546771E-02  0.9397916E-01
        -11   -1    0    0    0    0  0.00000000000E+00  0.00000000000E+00  0.50000000000E+03  0.50000000000E+03  0.00000000000E+00 0. -1.
         11   -1    0    0    0    0 -0.00000000000E+00 -0.00000000000E+00 -0.50000000000E+03  0.50000000000E+03  0.00000000000E+00 0.  1.
        -11    1    1    2    0    0 -0.70725212786E+01  0.82618240464E+01  0.49903426277E+03  0.49915275589E+03  0.00000000000E+00 0. -1.
         11    1    1    2    0    0 -0.23558111189E+01 -0.14028322720E+02 -0.44969449868E+03  0.44991942148E+03  0.00000000000E+00 0.  1.
        -15    1    1    2    0    0  0.11417089945E+01  0.81345872617E+00 -0.46361771845E+01  0.51591745864E+01  0.17770000000E+01 0.  1.
         15    1    1    2    0    0  0.82866234030E+01  0.49530399476E+01 -0.44703586907E+02  0.45768648041E+02  0.17770000000E+01 0.  1.
</event>
<event>
 6    1  0.1823098E-004  0.5062321E+03  0.7546771E-02  0.9385972E-01
        -11   -1    0    0    0    0  0.00000000000E+00  0.00000000000E+00  0.50000000000E+03  0.50000000000E+03  0.00000000000E+00 0.  1.
         11   -1    0    0    0    0 -0.00000000000E+00 -0.00000000000E+00 -0.50000000000E+03  0.50000000000E+03  0.00000000000E+00 0. -1.
        -11    1    1    2    0    0 -0.89916363220E+01 -0.76184100260E+01  0.49362721188E+03  0.49376787462E+03  0.00000000000E+00 0.  1.
         11    1    1    2    0    0  0.28967931679E+02 -0.18494070464E+02 -0.37053165806E+03  0.37212213228E+03  0.00000000000E+00 0. -1.
        -15    1    1    2    0    0 -0.31385043455E+02  0.25926249893E+02 -0.10515986342E+03  0.11277830461E+03  0.17770000000E+01 0. -1.
         15    1    1    2    0    0  0.11408748098E+02  0.18623059650E+00 -0.17935690398E+02  0.21331688495E+02  0.17770000000E+01 0.  1.
</event>
<event>
 6    1  0.1823098E-004  0.5000369E+03  0.7546771E-02  0.9399727E-01
        -11   -1    0    0    0    0  0.00000000000E+00  0.00000000000E+00  0.50000000000E+03  0.50000000000E+03  0.00000000000E+00 0. -1.
         11   -1    0    0    0    0 -0.00000000000E+00 -0.00000000000E+00 -0.50000000000E+03  0.50000000000E+03  0.00000000000E+00 0.  1.
        -11    1    1    2    0    0 -0.17841035147E+01 -0.65753039775E+01  0.49991671075E+03  0.49996313397E+03  0.00000000000E+00 0. -1.
         11    1    1    2    0    0 -0.20101429043E+01  0.13734257972E+01 -0.53541766935E+02  0.53597087416E+02  0.00000000000E+00 0.  1.
        -15    1    1    2    0    0  0.16991278074E+01  0.18321673417E+01 -0.13713765649E+03  0.13717193017E+03  0.17770000000E+01 0.  1.
         15    1    1    2    0    0  0.20951186116E+01  0.33697108386E+01 -0.30923728733E+03  0.30926784844E+03  0.17770000000E+01 0.  1.
</event>
<event>
 6    1  0.1823098E-004  0.5100465E+03  0.7546771E-02  0.9377606E-01
        -11   -1    0    0    0    0  0.00000000000E+00  0.00000000000E+00  0.50000000000E+03  0.50000000000E+03  0.00000000000E+00 0.  1.
         11   -1    0    0    0    0 -0.00000000000E+00 -0.00000000000E+00 -0.50000000000E+03  0.50000000000E+03  0.00000000000E+00 0.  1.
        -11    1    1    2    0    0 -0.77478023033E+01 -0.25860120247E+01  0.47871778318E+03  0.47878745998E+03  0.00000000000E+00 0.  1.
         11    1    1    2    0    0  0.21268517254E+02  0.10083561981E+02 -0.48938775163E+03  0.48995346666E+03  0.00000000000E+00 0.  1.
        -15    1    1    2    0    0  0.33303146703E+01 -0.74981667563E+01 -0.35731792100E+01  0.91235321655E+01  0.17770000000E+01 0. -1.
         15    1    1    2    0    0 -0.16851029621E+02  0.61680048140E-03  0.14243147661E+02  0.22135541194E+02  0.17770000000E+01 0.  1.
</event>
<event>
 6    1  0.1823098E-004  0.5000634E+03  0.7546771E-02  0.9399668E-01
        -11   -1    0    0    0    0  0.00000000000E+00  0.00000000000E+00  0.50000000000E+03  0.50000000000E+03  0.00000000000E+00 0.  1.
         11   -1    0    0    0    0 -0.00000000000E+00 -0.00000000000E+00 -0.50000000000E+03  0.50000000000E+03  0.00000000000E+00 0.  1.
        -11    1    1    2    0    0  0.98593830336E+01  0.64176415000E+00  0.49983893978E+03  0.49993658099E+03  0.00000000000E+00 0.  1.
         11    1    1    2    0    0  0.41588604395E+00  0.64802642289E+00 -0.19678154835E+02  0.19693213987E+02  0.00000000000E+00 0.  1.
        -15    1    1    2    0    0 -0.31008927378E+01 -0.25740377448E+01 -0.68702229537E+02  0.68843266036E+02  0.17770000000E+01 0. -1.
         15    1    1    2    0    0 -0.71743763397E+01  0.12842471719E+01 -0.41145855540E+03  0.41152693899E+03  0.17770000000E+01 0.  1.
</event>
<event>
 6    1  0.1823098E-004  0.5069272E+03  0.7546771E-02  0.9384442E-01
        -11   -1    0    0    0    0  0.00000000000E+00  0.00000000000E+00  0.50000000000E+03  0.50000000000E+03  0.00000000000E+00 0.  1.
         11   -1    0    0    0    0 -0.00000000000E+00 -0.00000000000E+00 -0.50000000000E+03  0.50000000000E+03  0.00000000000E+00 0. -1.
        -11    1    1    2    0    0 -0.10522562543E+02  0.68500697069E+01  0.49291292915E+03  0.49307281765E+03  0.00000000000E+00 0.  1.
         11    1    1    2    0    0  0.13862643256E+02 -0.23617504219E+01 -0.46672706782E+03  0.46693886814E+03  0.00000000000E+00 0. -1.
        -15    1    1    2    0    0  0.12489761988E+02 -0.63609813520E+01 -0.11068985559E+02  0.17948158919E+02  0.17770000000E+01 0.  1.
         15    1    1    2    0    0 -0.15829842701E+02  0.18726620671E+01 -0.15116875774E+02  0.22040155293E+02  0.17770000000E+01 0. -1.
</event>
<event>
 6    1  0.1823098E-004  0.5004806E+03  0.7546771E-02  0.9398735E-01
        -11   -1    0    0    0    0  0.00000000000E+00  0.00000000000E+00  0.50000000000E+03  0.50000000000E+03  0.00000000000E+00 0. -1.
         11   -1    0    0    0    0 -0.00000000000E+00 -0.00000000000E+00 -0.50000000000E+03  0.50000000000E+03  0.00000000000E+00 0.  1.
        -11    1    1    2    0    0  0.11630396780E+02 -0.81211716549E+00  0.49938335505E+03  0.49951943002E+03  0.00000000000E+00 0. -1.
         11    1    1    2    0    0  0.72805301812E+01 -0.13915403937E+01 -0.25280270573E+03  0.25291134915E+03  0.00000000000E+00 0.  1.
        -15    1    1    2    0    0 -0.13886769465E+02 -0.21882922449E+00 -0.21466515517E+03  0.21512130723E+03  0.17770000000E+01 0. -1.
         15    1    1    2    0    0 -0.50241574965E+01  0.24224867837E+01 -0.31915494158E+02  0.32447913602E+02  0.17770000000E+01 0.  1.
</event>
<event>
 6    1  0.1823098E-004  0.5001596E+03  0.7546771E-02  0.9399453E-01
        -11   -1    0    0    0    0  0.00000000000E+00  0.00000000000E+00  0.50000000000E+03  0.50000000000E+03  0.00000000000E+00 0. -1.
         11   -1    0    0    0    0 -0.00000000000E+00 -0.00000000000E+00 -0.50000000000E+03  0.50000000000E+03  0.00000000000E+00 0.  1.
        -11    1    1    2    0    0  0.27333633400E+01 -0.18098381183E+02  0.23144497615E+03  0.23216761114E+03  0.00000000000E+00 0. -1.
         11    1    1    2    0    0 -0.94664085587E+01  0.26976102443E+02 -0.49902215102E+03  0.49984040473E+03  0.00000000000E+00 0.  1.
        -15    1    1    2    0    0 -0.85468094068E+00 -0.64436754136E+01  0.12321218220E+03  0.12339631681E+03  0.17770000000E+01 0. -1.
         15    1    1    2    0    0  0.75877261594E+01 -0.24340458466E+01  0.14436499268E+03  0.14459566732E+03  0.17770000000E+01 0.  1.
</event>
<event>
 6    1  0.1823098E-004  0.5053989E+03  0.7546771E-02  0.9387810E-01
        -11   -1    0    0    0    0  0.00000000000E+00  0.00000000000E+00  0.50000000000E+03  0.50000000000E+03  0.00000000000E+00 0. -1.
         11   -1    0    0    0    0 -0.00000000000E+00 -0.00000000000E+00 -0.50000000000E+03  0.50000000000E+03  0.00000000000E+00 0. -1.
        -11    1    1    2    0    0 -0.68548289978E+01 -0.20241024176E+01  0.49454943305E+03  0.49460107905E+03  0.00000000000E+00 0. -1.
         11    1    1    2    0    0  0.81854537127E+01 -0.26572756224E+00 -0.49252573919E+03  0.49259382459E+03  0.00000000000E+00 0. -1.
        -15    1    1    2    0    0 -0.35888986598E+01 -0.33996086007E+01  0.15766164082E+01  0.54846130699E+01  0.17770000000E+01 0.  1.
         15    1    1    2    0    0  0.22582739449E+01  0.56894385805E+01 -0.36003102649E+01  0.73204832884E+01  0.17770000000E+01 0. -1.
</event>
<event>
 6    1  0.1823098E-004  0.5059827E+03  0.7546771E-02  0.9386522E-01
        -11   -1    0    0    0    0  0.00000000000E+00  0.00000000000E+00  0.50000000000E+03  0.50000000000E+03  0.00000000000E+00 0. -1.
         11   -1    0    0    0    0 -0.00000000000E+00 -0.00000000000E+00 -0.50000000000E+03  0.50000000000E+03  0.00000000000E+00 0.  1.
        -11    1    1    2    0    0  0.39540375885E+01 -0.57415584989E+01  0.49396809809E+03  0.49401728900E+03  0.00000000000E+00 0. -1.
         11    1    1    2    0    0 -0.10051982276E+02 -0.95253208399E+01 -0.48021695117E+03  0.48041658410E+03  0.00000000000E+00 0.  1.
        -15    1    1    2    0    0  0.48000357944E+01 -0.88186784169E+00 -0.25181572516E+01  0.57720775689E+01  0.17770000000E+01 0.  1.
         15    1    1    2    0    0  0.12979088930E+01  0.16148747180E+02 -0.11232989664E+02  0.19794049328E+02  0.17770000000E+01 0. -1.
</event>
<event>
 6    1  0.1823098E-004  0.5088616E+03  0.7546771E-02  0.9380197E-01
        -11   -1    0    0    0    0  0.00000000000E+00  0.00000000000E+00  0.50000000000E+03  0.50000000000E+03  0.00000000000E+00 0. -1.
         11   -1    0    0    0    0 -0.00000000000E+00 -0.00000000000E+00 -0.50000000000E+03  0.50000000000E+03  0.00000000000E+00 0. -1.
        -11    1    1    2    0    0  0.47639641748E+01  0.29245258568E+01  0.32130770620E+03  0.32135632913E+03  0.00000000000E+00 0. -1.
         11    1    1    2    0    0  0.49725611824E+02  0.47883643367E+02 -0.48626277036E+03  0.49113843426E+03  0.00000000000E+00 0. -1.
        -15    1    1    2    0    0 -0.10344985446E+02  0.81743925978E+01  0.43024770605E+02  0.45034742509E+02  0.17770000000E+01 0.  1.
         15    1    1    2    0    0 -0.44144590553E+02 -0.58982561822E+02  0.12193029355E+03  0.14247049410E+03  0.17770000000E+01 0. -1.
</event>
<event>
 6    1  0.1823098E-004  0.5031899E+03  0.7546771E-02  0.9392700E-01
        -11   -1    0    0    0    0  0.00000000000E+00  0.00000000000E+00  0.50000000000E+03  0.50000000000E+03  0.00000000000E+00 0. -1.
         11   -1    0    0    0    0 -0.00000000000E+00 -0.00000000000E+00 -0.50000000000E+03  0.50000000000E+03  0.00000000000E+00 0. -1.
        -11    1    1    2    0    0  0.10146897445E+02  0.29041695913E+01  0.49669801229E+03  0.49681013389E+03  0.00000000000E+00 0. -1.
         11    1    1    2    0    0  0.17739674209E+02  0.22259070637E+02 -0.25738634609E+03  0.25895538886E+03  0.00000000000E+00 0. -1.
        -15    1    1    2    0    0 -0.34037374273E+02 -0.24966143413E+02 -0.20116939890E+03  0.20555810844E+03  0.17770000000E+01 0. -1.
         15    1    1    2    0    0  0.61508026185E+01 -0.19709681513E+00 -0.38142267300E+02  0.38676368803E+02  0.17770000000E+01 0.  1.
</event>
<event>
 6    1  0.1823098E-004  0.5036915E+03  0.7546771E-02  0.9391587E-01
        -11   -1    0    0    0    0  0.00000000000E+00  0.00000000000E+00  0.50000000000E+03  0.50000000000E+03  0.00000000000E+00 0. -1.
         11   -1    0    0    0    0 -0.00000000000E+00 -0.00000000000E+00 -0.50000000000E+03  0.50000000000E+03  0.00000000000E+00 0. -1.
        -11    1    1    2    0    0 -0.12753769544E+02  0.34034625139E+01  0.40818955437E+03  0.40840293154E+03  0.00000000000E+00 0. -1.
         11    1    1    2    0    0 -0.11891899801E+02  0.18972900075E+02 -0.49580312133E+03  0.49630849614E+03  0.00000000000E+00 0. -1.
        -15    1    1    2    0    0  0.16301230687E+02 -0.10340757646E+02  0.68223116197E+02  0.70923992437E+02  0.17770000000E+01 0.  1.
         15    1    1    2    0    0  0.83444386573E+01 -0.12035604943E+02  0.19390450767E+02  0.24364579882E+02  0.17770000000E+01 0. -1.
</event>
<event>
 6    1  0.1823098E-004  0.2702326E+03  0.7546771E-02  0.1014375E+00
        -11   -1    0    0    0    0  0.00000000000E+00  0.00000000000E+00  0.50000000000E+03  0.50000000000E+03  0.00000000000E+00 0. -1.
         11   -1    0    0    0    0 -0.00000000000E+00 -0.00000000000E+00 -0.50000000000E+03  0.50000000000E+03  0.00000000000E+00 0.  1.
        -11    1    1    2    0    0  0.51850804876E+00  0.74844040369E+01  0.22627773124E+03  0.22640206892E+03  0.00000000000E+00 0. -1.
         11    1    1    2    0    0 -0.23096790740E+03  0.39676384961E+02 -0.22197110733E+02  0.23539987574E+03  0.00000000000E+00 0.  1.
        -15    1    1    2    0    0 -0.68032066905E+01  0.20517044624E+01  0.12739258516E+03  0.12760298427E+03  0.17770000000E+01 0. -1.
         15    1    1    2    0    0  0.23725260604E+03 -0.49212493460E+02 -0.33147320567E+03  0.41059507107E+03  0.17770000000E+01 0.  1.
</event>
<event>
 6    1  0.1823098E-004  0.4625866E+03  0.7546771E-02  0.9487651E-01
        -11   -1    0    0    0    0  0.00000000000E+00  0.00000000000E+00  0.50000000000E+03  0.50000000000E+03  0.00000000000E+00 0.  1.
         11   -1    0    0    0    0 -0.00000000000E+00 -0.00000000000E+00 -0.50000000000E+03  0.50000000000E+03  0.00000000000E+00 0.  1.
        -11    1    1    2    0    0  0.15059198271E+02 -0.97170568050E+00  0.44743349651E+03  0.44768790185E+03  0.00000000000E+00 0.  1.
         11    1    1    2    0    0 -0.36492686048E+01  0.56696701329E+02 -0.47630539150E+03  0.47968183109E+03  0.00000000000E+00 0.  1.
        -15    1    1    2    0    0 -0.80012766128E+01 -0.59105488861E+01  0.19262290088E+02  0.21751978393E+02  0.17770000000E+01 0.  1.
         15    1    1    2    0    0 -0.34086530533E+01 -0.49814446762E+02  0.96096049043E+01  0.50878288663E+02  0.17770000000E+01 0. -1.
</event>
<event>
 6    1  0.1823098E-004  0.5028945E+03  0.7546771E-02  0.9393356E-01
        -11   -1    0    0    0    0  0.00000000000E+00  0.00000000000E+00  0.50000000000E+03  0.50000000000E+03  0.00000000000E+00 0. -1.
         11   -1    0    0    0    0 -0.00000000000E+00 -0.00000000000E+00 -0.50000000000E+03  0.50000000000E+03  0.00000000000E+00 0. -1.
        -11    1    1    2    0    0 -0.84481526676E+01 -0.50311499241E+01  0.40796249555E+03  0.40808097423E+03  0.00000000000E+00 0. -1.
         11    1    1    2    0    0  0.14970749650E+02  0.16910138963E+02 -0.49659214130E+03  0.49710545254E+03  0.00000000000E+00 0. -1.
        -15    1    1    2    0    0 -0.82426596062E+01 -0.11178684188E+02  0.12894974103E+02  0.19035296259E+02  0.17770000000E+01 0.  1.
         15    1    1    2    0    0  0.17200626240E+01 -0.70030485076E+00  0.75734671649E+02  0.75778276974E+02  0.17770000000E+01 0. -1.
</event>
<event>
 6    1  0.1823098E-004  0.4862895E+03  0.7546771E-02  0.9431022E-01
        -11   -1    0    0    0    0  0.00000000000E+00  0.00000000000E+00  0.50000000000E+03  0.50000000000E+03  0.00000000000E+00 0.  1.
         11   -1    0    0    0    0 -0.00000000000E+00 -0.00000000000E+00 -0.50000000000E+03  0.50000000000E+03  0.00000000000E+00 0. -1.
        -11    1    1    2    0    0  0.52924162413E+01  0.44803913675E+01  0.49215546792E+03  0.49220431548E+03  0.00000000000E+00 0.  1.
         11    1    1    2    0    0 -0.30759987705E+01  0.18753232998E+02 -0.48035058249E+03  0.48072635420E+03  0.00000000000E+00 0. -1.
        -15    1    1    2    0    0 -0.90754572939E+00 -0.28816699784E+01 -0.35723578757E+01  0.50047108715E+01  0.17770000000E+01 0.  1.
         15    1    1    2    0    0 -0.13088717414E+01 -0.20351954387E+02 -0.82325275500E+01  0.22064619450E+02  0.17770000000E+01 0. -1.
</event>
<event>
 6    1  0.1823098E-004  0.5034365E+03  0.7546771E-02  0.9392153E-01
        -11   -1    0    0    0    0  0.00000000000E+00  0.00000000000E+00  0.50000000000E+03  0.50000000000E+03  0.00000000000E+00 0. -1.
         11   -1    0    0    0    0 -0.00000000000E+00 -0.00000000000E+00 -0.50000000000E+03  0.50000000000E+03  0.00000000000E+00 0. -1.
        -11    1    1    2    0    0 -0.72881114380E+01  0.84098809150E+00  0.47828217373E+03  0.47833843828E+03  0.00000000000E+00 0. -1.
         11    1    1    2    0    0  0.14083068810E+02  0.37253912995E+01 -0.49634978754E+03  0.49656351352E+03  0.00000000000E+00 0. -1.
        -15    1    1    2    0    0  0.48577681079E+00 -0.86434998177E+01  0.82310905188E+01  0.12077029781E+02  0.17770000000E+01 0. -1.
         15    1    1    2    0    0 -0.72807341830E+01  0.40771204267E+01  0.98365232942E+01  0.13021018422E+02  0.17770000000E+01 0.  1.
</event>
<event>
 6    1  0.1823098E-004  0.5063712E+03  0.7546771E-02  0.9385665E-01
        -11   -1    0    0    0    0  0.00000000000E+00  0.00000000000E+00  0.50000000000E+03  0.50000000000E+03  0.00000000000E+00 0.  1.
         11   -1    0    0    0    0 -0.00000000000E+00 -0.00000000000E+00 -0.50000000000E+03  0.50000000000E+03  0.00000000000E+00 0. -1.
        -11    1    1    2    0    0  0.73521885675E+01  0.25560882082E+01  0.48134523469E+03  0.48140816696E+03  0.00000000000E+00 0.  1.
         11    1    1    2    0    0  0.12755204170E+02 -0.65693723712E+00 -0.49346351905E+03  0.49362877898E+03  0.00000000000E+00 0. -1.
        -15    1    1    2    0    0 -0.90875742971E+01 -0.13014534848E+01  0.98032797038E+01  0.13547686508E+02  0.17770000000E+01 0. -1.
         15    1    1    2    0    0 -0.11019818441E+02 -0.59769748631E+00  0.23150046582E+01  0.11415367551E+02  0.17770000000E+01 0.  1.
</event>
<event>
 6    1  0.1823098E-004  0.5111569E+03  0.7546771E-02  0.9375186E-01
        -11   -1    0    0    0    0  0.00000000000E+00  0.00000000000E+00  0.50000000000E+03  0.50000000000E+03  0.00000000000E+00 0. -1.
         11   -1    0    0    0    0 -0.00000000000E+00 -0.00000000000E+00 -0.50000000000E+03  0.50000000000E+03  0.00000000000E+00 0.  1.
        -11    1    1    2    0    0 -0.27289977830E+01  0.64570740461E+01  0.48879283577E+03  0.48884310115E+03  0.00000000000E+00 0. -1.
         11    1    1    2    0    0 -0.19527324642E+02  0.95067482847E+00 -0.45856456669E+03  0.45898113471E+03  0.00000000000E+00 0.  1.
        -15    1    1    2    0    0 -0.29307271564E+01 -0.63811903686E+01 -0.25445823537E+02  0.26456689451E+02  0.17770000000E+01 0.  1.
         15    1    1    2    0    0  0.25187049581E+02 -0.10265585060E+01 -0.47824455432E+01  0.25719074698E+02  0.17770000000E+01 0. -1.
</event>
<event>
 6    1  0.1823098E-004  0.5034557E+03  0.7546771E-02  0.9392110E-01
        -11   -1    0    0    0    0  0.00000000000E+00  0.00000000000E+00  0.50000000000E+03  0.50000000000E+03  0.00000000000E+00 0.  1.
         11   -1    0    0    0    0 -0.00000000000E+00 -0.00000000000E+00 -0.50000000000E+03  0.50000000000E+03  0.00000000000E+00 0.  1.
        -11    1    1    2    0    0  0.10041749986E+02  0.70843876374E+01  0.49639221384E+03  0.49654431349E+03  0.00000000000E+00 0.  1.
         11    1    1    2    0    0 -0.27126023418E+02  0.22018414125E+02 -0.10994243382E+03  0.11536017710E+03  0.00000000000E+00 0.  1.
        -15    1    1    2    0    0  0.46677972815E+00 -0.90335944853E+01 -0.78242235043E+02  0.78783429642E+02  0.17770000000E+01 0. -1.
         15    1    1    2    0    0  0.16617493704E+02 -0.20069207278E+02 -0.30820754499E+03  0.30931207977E+03  0.17770000000E+01 0.  1.
</event>
<event>
 6    1  0.1823098E-004  0.5037189E+03  0.7546771E-02  0.9391527E-01
        -11   -1    0    0    0    0  0.00000000000E+00  0.00000000000E+00  0.50000000000E+03  0.50000000000E+03  0.00000000000E+00 0. -1.
         11   -1    0    0    0    0 -0.00000000000E+00 -0.00000000000E+00 -0.50000000000E+03  0.50000000000E+03  0.00000000000E+00 0. -1.
        -11    1    1    2    0    0  0.10621923067E+02  0.89964337543E+01  0.49608586527E+03  0.49628111670E+03  0.00000000000E+00 0. -1.
         11    1    1    2    0    0 -0.19786867884E+02  0.16229987705E+02 -0.36977155237E+03  0.37065608531E+03  0.00000000000E+00 0. -1.
        -15    1    1    2    0    0  0.43270069161E+00 -0.24348805817E+02 -0.11906188080E+03  0.12153987314E+03  0.17770000000E+01 0. -1.
         15    1    1    2    0    0  0.87322441253E+01 -0.87761564223E+00 -0.72524321059E+01  0.11522924851E+02  0.17770000000E+01 0.  1.
</event>
<event>
 6    1  0.1823098E-004  0.5021982E+03  0.7546771E-02  0.9394904E-01
        -11   -1    0    0    0    0  0.00000000000E+00  0.00000000000E+00  0.50000000000E+03  0.50000000000E+03  0.00000000000E+00 0.  1.
         11   -1    0    0    0    0 -0.00000000000E+00 -0.00000000000E+00 -0.50000000000E+03  0.50000000000E+03  0.00000000000E+00 0. -1.
        -11    1    1    2    0    0 -0.93543000507E+01  0.84795806702E+01  0.36661889111E+03  0.36683622713E+03  0.00000000000E+00 0.  1.
         11    1    1    2    0    0 -0.20303727975E+02  0.76178609635E+01 -0.49732922643E+03  0.49780180055E+03  0.00000000000E+00 0. -1.
        -15    1    1    2    0    0  0.87476343154E+01 -0.17188851146E+01  0.24068715377E+02  0.25728125875E+02  0.17770000000E+01 0. -1.
         15    1    1    2    0    0  0.20910393711E+02 -0.14378556519E+02  0.10664161994E+03  0.10963384644E+03  0.17770000000E+01 0.  1.
</event>
<event>
 6    1  0.1823098E-004  0.5060577E+03  0.7546771E-02  0.9386356E-01
        -11   -1    0    0    0    0  0.00000000000E+00  0.00000000000E+00  0.50000000000E+03  0.50000000000E+03  0.00000000000E+00 0. -1.
         11   -1    0    0    0    0 -0.00000000000E+00 -0.00000000000E+00 -0.50000000000E+03  0.50000000000E+03  0.00000000000E+00 0. -1.
        -11    1    1    2    0    0  0.70521119768E+01 -0.51542197592E+00  0.49389168124E+03  0.49394229495E+03  0.00000000000E+00 0. -1.
         11    1    1    2    0    0  0.66391932173E+01 -0.16065230790E+01 -0.48562919933E+03  0.48567723752E+03  0.00000000000E+00 0. -1.
        -15    1    1    2    0    0 -0.87214823955E+01 -0.18139704043E+01 -0.10061361526E+02  0.13555200794E+02  0.17770000000E+01 0.  1.
         15    1    1    2    0    0 -0.49698227987E+01  0.39359154592E+01  0.17988796168E+01  0.68252667368E+01  0.17770000000E+01 0. -1.
</event>
<event>
 6    1  0.1823098E-004  0.5099603E+03  0.7546771E-02  0.9377794E-01
        -11   -1    0    0    0    0  0.00000000000E+00  0.00000000000E+00  0.50000000000E+03  0.50000000000E+03  0.00000000000E+00 0. -1.
         11   -1    0    0    0    0 -0.00000000000E+00 -0.00000000000E+00 -0.50000000000E+03  0.50000000000E+03  0.00000000000E+00 0. -1.
        -11    1    1    2    0    0 -0.64011355370E+01 -0.37992957453E+01  0.48998313814E+03  0.49003967681E+03  0.00000000000E+00 0. -1.
         11    1    1    2    0    0  0.16304480533E+02 -0.27940252862E+02 -0.45293344831E+03  0.45408721895E+03  0.00000000000E+00 0. -1.
        -15    1    1    2    0    0 -0.57477864699E+01  0.10393960521E+02 -0.30979146661E+02  0.33225543208E+02  0.17770000000E+01 0.  1.
         15    1    1    2    0    0 -0.41555585262E+01  0.21345588086E+02 -0.60705431662E+01  0.22647561033E+02  0.17770000000E+01 0. -1.
</event>
<event>
 6    1  0.1823098E-004  0.4968045E+03  0.7546771E-02  0.9406988E-01
        -11   -1    0    0    0    0  0.00000000000E+00  0.00000000000E+00  0.50000000000E+03  0.50000000000E+03  0.00000000000E+00 0.  1.
         11   -1    0    0    0    0 -0.00000000000E+00 -0.00000000000E+00 -0.50000000000E+03  0.50000000000E+03  0.00000000000E+00 0.  1.
        -11    1    1    2    0    0 -0.60842401014E+01 -0.84818730950E+01  0.49740436460E+03  0.49751388128E+03  0.00000000000E+00 0.  1.
         11    1    1    2    0    0  0.58167828456E+01 -0.23078047887E+01 -0.15686832379E+01  0.64514876359E+01  0.00000000000E+00 0.  1.
        -15    1    1    2    0    0 -0.14825565335E+01  0.45724394317E+00 -0.36591510488E+02  0.36667470798E+02  0.17770000000E+01 0.  1.
         15    1    1    2    0    0  0.17500137894E+01  0.10332433941E+02 -0.45924417087E+03  0.45936716028E+03  0.17770000000E+01 0.  1.
</event>
<event>
 6    1  0.1823098E-004  0.5004620E+03  0.7546771E-02  0.9398777E-01
        -11   -1    0    0    0    0  0.00000000000E+00  0.00000000000E+00  0.50000000000E+03  0.50000000000E+03  0.00000000000E+00 0.  1.
         11   -1    0    0    0    0 -0.00000000000E+00 -0.00000000000E+00 -0.50000000000E+03  0.50000000000E+03  0.00000000000E+00 0. -1.
        -11    1    1    2    0    0 -0.46190870681E+01  0.16914872127E+02  0.28463449509E+03  0.28517406028E+03  0.00000000000E+00 0.  1.
         11    1    1    2    0    0  0.17986106743E+02 -0.67148218101E+01 -0.49916892718E+03  0.49953799328E+03  0.00000000000E+00 0. -1.
        -15    1    1    2    0    0 -0.48423507785E+01 -0.70232674764E+01  0.10810876997E+03  0.10845938650E+03  0.17770000000E+01 0. -1.
         15    1    1    2    0    0 -0.85246688964E+01 -0.31767828406E+01  0.10642566213E+03  0.10682855993E+03  0.17770000000E+01 0.  1.
</event>
<event>
 6    1  0.1823098E-004  0.5005903E+03  0.7546771E-02  0.9398490E-01
        -11   -1    0    0    0    0  0.00000000000E+00  0.00000000000E+00  0.50000000000E+03  0.50000000000E+03  0.00000000000E+00 0. -1.
         11   -1    0    0    0    0 -0.00000000000E+00 -0.00000000000E+00 -0.50000000000E+03  0.50000000000E+03  0.00000000000E+00 0. -1.
        -11    1    1    2    0    0 -0.92229858266E+01  0.91263940473E+01  0.49924111871E+03  0.49940970069E+03  0.00000000000E+00 0. -1.
         11    1    1    2    0    0 -0.79537833731E+01  0.42038480711E+01 -0.20065568726E+03  0.20085726235E+03  0.00000000000E+00 0. -1.
        -15    1    1    2    0    0  0.18536651034E+00 -0.74575892529E+01 -0.65188038098E+02  0.65637550520E+02  0.17770000000E+01 0.  1.
         15    1    1    2    0    0  0.16991402689E+02 -0.58726528656E+01 -0.23339739335E+03  0.23409548644E+03  0.17770000000E+01 0. -1.
</event>
<event>
 6    1  0.1823098E-004  0.5033216E+03  0.7546771E-02  0.9392408E-01
        -11   -1    0    0    0    0  0.00000000000E+00  0.00000000000E+00  0.50000000000E+03  0.50000000000E+03  0.00000000000E+00 0. -1.
         11   -1    0    0    0    0 -0.00000000000E+00 -0.00000000000E+00 -0.50000000000E+03  0.50000000000E+03  0.00000000000E+00 0.  1.
        -11    1    1    2    0    0  0.10113400596E+03 -0.99520848245E+02  0.47598002321E+03  0.49667843611E+03  0.00000000000E+00 0. -1.
         11    1    1    2    0    0 -0.82173129360E+02  0.75295263383E+02 -0.23393583094E+03  0.25912887310E+03  0.00000000000E+00 0.  1.
        -15    1    1    2    0    0 -0.64254907948E+01  0.14903946666E+02 -0.13908011028E+03  0.14003517187E+03  0.17770000000E+01 0.  1.
         15    1    1    2    0    0 -0.12535385808E+02  0.93216381956E+01 -0.10296408199E+03  0.10415751891E+03  0.17770000000E+01 0. -1.
</event>
<event>
 6    1  0.1823098E-004  0.5004562E+03  0.7546771E-02  0.9398790E-01
        -11   -1    0    0    0    0  0.00000000000E+00  0.00000000000E+00  0.50000000000E+03  0.50000000000E+03  0.00000000000E+00 0.  1.
         11   -1    0    0    0    0 -0.00000000000E+00 -0.00000000000E+00 -0.50000000000E+03  0.50000000000E+03  0.00000000000E+00 0.  1.
        -11    1    1    2    0    0  0.10431332311E+02  0.24386389935E+01  0.49942893432E+03  0.49954381198E+03  0.00000000000E+00 0.  1.
         11    1    1    2    0    0  0.78924385730E+00  0.10510799429E+02 -0.20355181576E+03  0.20382453608E+03  0.00000000000E+00 0.  1.
        -15    1    1    2    0    0 -0.50820305921E+01 -0.11135425808E+02 -0.24644193837E+03  0.24675212554E+03  0.17770000000E+01 0. -1.
         15    1    1    2    0    0 -0.61385455766E+01 -0.18140126141E+01 -0.49435180192E+02  0.49879526393E+02  0.17770000000E+01 0.  1.
</event>
<event>
 6    1  0.1823098E-004  0.5084001E+03  0.7546771E-02  0.9381207E-01
        -11   -1    0    0    0    0  0.00000000000E+00  0.00000000000E+00  0.50000000000E+03  0.50000000000E+03  0.00000000000E+00 0.  1.
         11   -1    0    0    0    0 -0.00000000000E+00 -0.00000000000E+00 -0.50000000000E+03  0.50000000000E+03  0.00000000000E+00 0.  1.
        -11    1    1    2    0    0  0.57328648209E+01 -0.91567747732E+01  0.49148114111E+03  0.49159986201E+03  0.00000000000E+00 0.  1.
         11    1    1    2    0    0 -0.24792432177E+02  0.28663388442E+02 -0.42830458438E+03  0.42997798959E+03  0.00000000000E+00 0.  1.
        -15    1    1    2    0    0  0.14931525210E+01  0.67462659748E+01  0.67098223520E+00  0.71658603959E+01  0.17770000000E+01 0. -1.
         15    1    1    2    0    0  0.17566414835E+02 -0.26252879644E+02 -0.63847538959E+02  0.71256288003E+02  0.17770000000E+01 0.  1.
</event>
<event>
 6    1  0.1823098E-004  0.5009030E+03  0.7546771E-02  0.9397792E-01
        -11   -1    0    0    0    0  0.00000000000E+00  0.00000000000E+00  0.50000000000E+03  0.50000000000E+03  0.00000000000E+00 0.  1.
         11   -1    0    0    0    0 -0.00000000000E+00 -0.00000000000E+00 -0.50000000000E+03  0.50000000000E+03  0.00000000000E+00 0. -1.
        -11    1    1    2    0    0 -0.35936947010E+01  0.89805870678E+01  0.49900330072E+03  0.49909704439E+03  0.00000000000E+00 0.  1.
         11    1    1    2    0    0  0.26253382268E+01  0.14919574137E+02 -0.12762714859E+03  0.12852305299E+03  0.00000000000E+00 0. -1.
        -15    1    1    2    0    0 -0.15472116349E+01 -0.24062686177E+02 -0.33662597916E+03  0.33749313223E+03  0.17770000000E+01 0. -1.
         15    1    1    2    0    0  0.25155681092E+01  0.16252497186E+00 -0.34750172970E+02  0.34886770383E+02  0.17770000000E+01 0.  1.
</event>
<event>
 6    1  0.1823098E-004  0.5004261E+03  0.7546771E-02  0.9398857E-01
        -11   -1    0    0    0    0  0.00000000000E+00  0.00000000000E+00  0.50000000000E+03  0.50000000000E+03  0.00000000000E+00 0.  1.
         11   -1    0    0    0    0 -0.00000000000E+00 -0.00000000000E+00 -0.50000000000E+03  0.50000000000E+03  0.00000000000E+00 0. -1.
        -11    1    1    2    0    0 -0.30812863341E+01  0.10406875267E+02  0.49945596851E+03  0.49957388028E+03  0.00000000000E+00 0.  1.
         11    1    1    2    0    0  0.69217400064E+00  0.61034818025E+01 -0.77434009088E+02  0.77677264102E+02  0.00000000000E+00 0. -1.
        -15    1    1    2    0    0  0.47646503256E+00  0.37554549728E+00 -0.44819893629E+01  0.48594249657E+01  0.17770000000E+01 0. -1.
         15    1    1    2    0    0  0.19126473009E+01 -0.16885902567E+02 -0.41753997006E+03  0.41788943065E+03  0.17770000000E+01 0. -1.
</event>
<event>
 6    1  0.1823098E-004  0.5008000E+03  0.7546771E-02  0.9398021E-01
        -11   -1    0    0    0    0  0.00000000000E+00  0.00000000000E+00  0.50000000000E+03  0.50000000000E+03  0.00000000000E+00 0.  1.
         11   -1    0    0    0    0 -0.00000000000E+00 -0.00000000000E+00 -0.50000000000E+03  0.50000000000E+03  0.00000000000E+00 0. -1.
        -11    1    1    2    0    0 -0.18780562381E+02  0.21685976801E+01  0.49884190471E+03  0.49920001827E+03  0.00000000000E+00 0.  1.
         11    1    1    2    0    0  0.30511502829E+02 -0.45105938735E+01 -0.34435487435E+03  0.34573338970E+03  0.00000000000E+00 0. -1.
        -15    1    1    2    0    0 -0.55207300799E+01  0.33996066958E+01 -0.67639861454E+02  0.67973115074E+02  0.17770000000E+01 0. -1.
         15    1    1    2    0    0 -0.62102103682E+01 -0.10576105023E+01 -0.86847168908E+02  0.87093476961E+02  0.17770000000E+01 0. -1.
</event>
<event>
 6    1  0.1823098E-004  0.4959871E+03  0.7546771E-02  0.9408834E-01
        -11   -1    0    0    0    0  0.00000000000E+00  0.00000000000E+00  0.50000000000E+03  0.50000000000E+03  0.00000000000E+00 0. -1.
         11   -1    0    0    0    0 -0.00000000000E+00 -0.00000000000E+00 -0.50000000000E+03  0.50000000000E+03  0.00000000000E+00 0. -1.
        -11    1    1    2    0    0 -0.15049272131E+02  0.20721554390E+02  0.48428106377E+03  0.48495774263E+03  0.00000000000E+00 0. -1.
         11    1    1    2    0    0  0.96378773263E+01  0.10189054811E+02  0.66627571947E+01  0.15527325936E+02  0.00000000000E+00 0. -1.
        -15    1    1    2    0    0 -0.28069627235E+02 -0.21963658411E+02 -0.86317154628E+02  0.93402971987E+02  0.17770000000E+01 0.  1.
         15    1    1    2    0    0  0.33481022039E+02 -0.89469507898E+01 -0.40462666634E+03  0.40611195945E+03  0.17770000000E+01 0. -1.
</event>
<event>
 6    1  0.1823098E-004  0.5017941E+03  0.7546771E-02  0.9395804E-01
        -11   -1    0    0    0    0  0.00000000000E+00  0.00000000000E+00  0.50000000000E+03  0.50000000000E+03  0.00000000000E+00 0.  1.
         11   -1    0    0    0    0 -0.00000000000E+00 -0.00000000000E+00 -0.50000000000E+03  0.50000000000E+03  0.00000000000E+00 0. -1.
        -11    1    1    2    0    0  0.90149002419E+01 -0.90562680825E+00  0.45222204183E+03  0.45231279410E+03  0.00000000000E+00 0.  1.
         11    1    1    2    0    0 -0.57424287727E+01 -0.15416375041E+02 -0.49793424687E+03  0.49820593565E+03  0.00000000000E+00 0. -1.
        -15    1    1    2    0    0  0.15049949720E+01  0.80004402455E+01  0.13902148896E+02  0.16208008111E+02  0.17770000000E+01 0.  1.
         15    1    1    2    0    0 -0.47774664412E+01  0.83215616039E+01  0.31810056139E+02  0.33273262144E+02  0.17770000000E+01 0. -1.
</event>
<event>
 6    1  0.1823098E-004  0.5160045E+03  0.7546771E-02  0.9364694E-01
        -11   -1    0    0    0    0  0.00000000000E+00  0.00000000000E+00  0.50000000000E+03  0.50000000000E+03  0.00000000000E+00 0. -1.
         11   -1    0    0    0    0 -0.00000000000E+00 -0.00000000000E+00 -0.50000000000E+03  0.50000000000E+03  0.00000000000E+00 0. -1.
        -11    1    1    2    0    0 -0.25934496732E+01 -0.86187859099E+01  0.41960741573E+03  0.41970393468E+03  0.00000000000E+00 0. -1.
         11    1    1    2    0    0  0.11905567794E+02 -0.19713255919E+02 -0.48344734530E+03  0.48399554821E+03  0.00000000000E+00 0. -1.
        -15    1    1    2    0    0 -0.80102276829E+01  0.26217782121E+02 -0.45470130382E+01  0.27845446728E+02  0.17770000000E+01 0.  1.
         15    1    1    2    0    0 -0.13018904379E+01  0.21142597072E+01  0.68386942613E+02  0.68455070388E+02  0.17770000000E+01 0. -1.
</event>
<event>
 6    1  0.1823098E-004  0.5012998E+03  0.7546771E-02  0.9396906E-01
        -11   -1    0    0    0    0  0.00000000000E+00  0.00000000000E+00  0.50000000000E+03  0.50000000000E+03  0.00000000000E+00 0.  1.
         11   -1    0    0    0    0 -0.00000000000E+00 -0.00000000000E+00 -0.50000000000E+03  0.50000000000E+03  0.00000000000E+00 0. -1.
        -11    1    1    2    0    0  0.40637578691E+01 -0.13199007277E+02  0.49850898468E+03  0.49870024636E+03  0.00000000000E+00 0.  1.
         11    1    1    2    0    0 -0.23648335671E+02 -0.17878599102E+01 -0.28484565107E+03  0.28583121795E+03  0.00000000000E+00 0. -1.
        -15    1    1    2    0    0  0.16842315038E+02  0.10830577244E+02 -0.12134290784E+03  0.12299684545E+03  0.17770000000E+01 0.  1.
         15    1    1    2    0    0  0.27422627636E+01  0.41562899438E+01 -0.92320425764E+02  0.92471690227E+02  0.17770000000E+01 0. -1.
</event>
<event>
 6    1  0.1823098E-004  0.5002434E+03  0.7546771E-02  0.9399265E-01
        -11   -1    0    0    0    0  0.00000000000E+00  0.00000000000E+00  0.50000000000E+03  0.50000000000E+03  0.00000000000E+00 0. -1.
         11   -1    0    0    0    0 -0.00000000000E+00 -0.00000000000E+00 -0.50000000000E+03  0.50000000000E+03  0.00000000000E+00 0. -1.
        -11    1    1    2    0    0  0.87136887038E+01 -0.30225916278E+01  0.49967148441E+03  0.49975659752E+03  0.00000000000E+00 0. -1.
         11    1    1    2    0    0 -0.70789880622E+01 -0.74780665814E+01 -0.33304184810E+03  0.33320099960E+03  0.00000000000E+00 0. -1.
        -15    1    1    2    0    0 -0.42489395042E+00  0.88190414433E+01 -0.12752352726E+03  0.12784116614E+03  0.17770000000E+01 0.  1.
         15    1    1    2    0    0 -0.12098066912E+01  0.16816167660E+01 -0.39106109052E+02  0.39201236733E+02  0.17770000000E+01 0. -1.
</event>
<event>
 6    1  0.1823098E-004  0.5000363E+03  0.7546771E-02  0.9399729E-01
        -11   -1    0    0    0    0  0.00000000000E+00  0.00000000000E+00  0.50000000000E+03  0.50000000000E+03  0.00000000000E+00 0.  1.
         11   -1    0    0    0    0 -0.00000000000E+00 -0.00000000000E+00 -0.50000000000E+03  0.50000000000E+03  0.00000000000E+00 0. -1.
        -11    1    1    2    0    0 -0.75106287588E+01  0.65500873655E+01  0.49986437788E+03  0.49996370814E+03  0.00000000000E+00 0.  1.
         11    1    1    2    0    0  0.62029452334E+01 -0.35242074670E+01 -0.21364999846E+03  0.21376907730E+03  0.00000000000E+00 0. -1.
        -15    1    1    2    0    0  0.82031336531E+00 -0.13960880275E+00 -0.77985867140E+02  0.78010548050E+02  0.17770000000E+01 0. -1.
         15    1    1    2    0    0  0.48737016011E+00 -0.28862710958E+01 -0.20822851228E+03  0.20825666651E+03  0.17770000000E+01 0. -1.
</event>
<event>
 6    1  0.1823098E-004  0.5050497E+03  0.7546771E-02  0.9388581E-01
        -11   -1    0    0    0    0  0.00000000000E+00  0.00000000000E+00  0.50000000000E+03  0.50000000000E+03  0.00000000000E+00 0.  1.
         11   -1    0    0    0    0 -0.00000000000E+00 -0.00000000000E+00 -0.50000000000E+03  0.50000000000E+03  0.00000000000E+00 0.  1.
        -11    1    1    2    0    0 -0.11298176744E+01  0.81329742463E+01  0.48103086127E+03  0.48110093665E+03  0.00000000000E+00 0.  1.
         11    1    1    2    0    0 -0.61895130780E+01  0.59084839733E+01 -0.49487628875E+03  0.49495026157E+03  0.00000000000E+00 0.  1.
        -15    1    1    2    0    0  0.96202329463E+01 -0.87155813250E+01  0.11534241199E+02  0.17455849701E+02  0.17770000000E+01 0.  1.
         15    1    1    2    0    0 -0.23009021938E+01 -0.53258768946E+01  0.23111862887E+01  0.64929520762E+01  0.17770000000E+01 0. -1.
</event>
<event>
 6    1  0.1823098E-004  0.5001153E+03  0.7546771E-02  0.9399552E-01
        -11   -1    0    0    0    0  0.00000000000E+00  0.00000000000E+00  0.50000000000E+03  0.50000000000E+03  0.00000000000E+00 0. -1.
         11   -1    0    0    0    0 -0.00000000000E+00 -0.00000000000E+00 -0.50000000000E+03  0.50000000000E+03  0.00000000000E+00 0.  1.
        -11    1    1    2    0    0 -0.18919282445E+02 -0.26903106060E+02  0.49880155459E+03  0.49988469393E+03  0.00000000000E+00 0. -1.
         11    1    1    2    0    0  0.13224334005E+02  0.21014048645E+02 -0.40764116431E+03  0.40839661126E+03  0.00000000000E+00 0.  1.
        -15    1    1    2    0    0  0.10664789217E+01  0.44829873389E+01 -0.46876430653E+02  0.47135889008E+02  0.17770000000E+01 0.  1.
         15    1    1    2    0    0  0.46284695188E+01  0.14060700761E+01 -0.44283959632E+02  0.44582805798E+02  0.17770000000E+01 0. -1.
</event>
<event>
 6    1  0.1823098E-004  0.5002391E+03  0.7546771E-02  0.9399275E-01
        -11   -1    0    0    0    0  0.00000000000E+00  0.00000000000E+00  0.50000000000E+03  0.50000000000E+03  0.00000000000E+00 0. -1.
         11   -1    0    0    0    0 -0.00000000000E+00 -0.00000000000E+00 -0.50000000000E+03  0.50000000000E+03  0.00000000000E+00 0.  1.
        -11    1    1    2    0    0  0.61468658274E+00  0.12688811840E+02  0.49959945554E+03  0.49976094261E+03  0.00000000000E+00 0. -1.
         11    1    1    2    0    0  0.56471535460E+01  0.20003353591E+01 -0.13910791685E+03  0.13923686371E+03  0.00000000000E+00 0.  1.
        -15    1    1    2    0    0 -0.37241367916E+01 -0.56542702078E+00 -0.49589942277E+02  0.49764535631E+02  0.17770000000E+01 0. -1.
         15    1    1    2    0    0 -0.25377033371E+01 -0.14123720178E+02 -0.31090159641E+03  0.31123765805E+03  0.17770000000E+01 0.  1.
</event>
<event>
 6    1  0.1823098E-004  0.5004629E+03  0.7546771E-02  0.9398775E-01
        -11   -1    0    0    0    0  0.00000000000E+00  0.00000000000E+00  0.50000000000E+03  0.50000000000E+03  0.00000000000E+00 0. -1.
         11   -1    0    0    0    0 -0.00000000000E+00 -0.00000000000E+00 -0.50000000000E+03  0.50000000000E+03  0.00000000000E+00 0.  1.
        -11    1    1    2    0    0  0.68158568453E+01 -0.87054665560E+01  0.17323218966E+03  0.17358465539E+03  0.00000000000E+00 0. -1.
         11    1    1    2    0    0 -0.18328616131E+02 -0.13291964239E+02 -0.49902374170E+03  0.49953709498E+03  0.00000000000E+00 0.  1.
        -15    1    1    2    0    0  0.32961096212E+01  0.14582966032E+02  0.21284380470E+03  0.21337565504E+03  0.17770000000E+01 0. -1.
         15    1    1    2    0    0  0.82166496641E+01  0.74144647630E+01  0.11294774735E+03  0.11350259459E+03  0.17770000000E+01 0. -1.
</event>
<event>
 6    1  0.1823098E-004  0.5064485E+03  0.7546771E-02  0.9385495E-01
        -11   -1    0    0    0    0  0.00000000000E+00  0.00000000000E+00  0.50000000000E+03  0.50000000000E+03  0.00000000000E+00 0.  1.
         11   -1    0    0    0    0 -0.00000000000E+00 -0.00000000000E+00 -0.50000000000E+03  0.50000000000E+03  0.00000000000E+00 0. -1.
        -11    1    1    2    0    0 -0.61360652958E+01  0.18044013253E+02  0.49318337243E+03  0.49355149331E+03  0.00000000000E+00 0.  1.
         11    1    1    2    0    0 -0.10743824697E+02  0.16834361033E+02 -0.43095469775E+03  0.43141717281E+03  0.00000000000E+00 0. -1.
        -15    1    1    2    0    0  0.10146696093E+02 -0.57786231010E+01 -0.20928590980E+02  0.24031470533E+02  0.17770000000E+01 0. -1.
         15    1    1    2    0    0  0.67331938994E+01 -0.29099751185E+02 -0.41300083697E+02  0.50999863348E+02  0.17770000000E+01 0.  1.
</event>
<event>
 6    1  0.1823098E-004  0.5090707E+03  0.7546771E-02  0.9379739E-01
        -11   -1    0    0    0    0  0.00000000000E+00  0.00000000000E+00  0.50000000000E+03  0.50000000000E+03  0.00000000000E+00 0.  1.
         11   -1    0    0    0    0 -0.00000000000E+00 -0.00000000000E+00 -0.50000000000E+03  0.50000000000E+03  0.00000000000E+00 0. -1.
        -11    1    1    2    0    0 -0.82027313039E+01 -0.59124636839E+01  0.49082513552E+03  0.49092927768E+03  0.00000000000E+00 0.  1.
         11    1    1    2    0    0 -0.11606216400E+02 -0.16024752295E+02 -0.46712599424E+03  0.46754485500E+03  0.00000000000E+00 0. -1.
        -15    1    1    2    0    0  0.13439591612E+02  0.14577028433E+02 -0.52439617564E+01  0.20585656281E+02  0.17770000000E+01 0.  1.
         15    1    1    2    0    0  0.63693560920E+01  0.73601875461E+01 -0.18455179528E+02  0.20940211034E+02  0.17770000000E+01 0. -1.
</event>
<event>
 6    1  0.1823098E-004  0.5001435E+03  0.7546771E-02  0.9399489E-01
        -11   -1    0    0    0    0  0.00000000000E+00  0.00000000000E+00  0.50000000000E+03  0.50000000000E+03  0.00000000000E+00 0.  1.
         11   -1    0    0    0    0 -0.00000000000E+00 -0.00000000000E+00 -0.50000000000E+03  0.50000000000E+03  0.00000000000E+00 0.  1.
        -11    1    1    2    0    0 -0.14061932569E+01 -0.49983694662E+00  0.96511453134E+02  0.96522991056E+02  0.00000000000E+00 0.  1.
         11    1    1    2    0    0 -0.15400194537E+02  0.79583119091E+01 -0.49955585408E+03  0.49985653148E+03  0.00000000000E+00 0.  1.
        -15    1    1    2    0    0  0.84487658778E+01 -0.19795699930E+01  0.28589386492E+03  0.28603104738E+03  0.17770000000E+01 0.  1.
         15    1    1    2    0    0  0.83576219157E+01 -0.54789049694E+01  0.11715053603E+03  0.11758943008E+03  0.17770000000E+01 0. -1.
</event>
<event>
 6    1  0.1823098E-004  0.5059447E+03  0.7546771E-02  0.9386605E-01
        -11   -1    0    0    0    0  0.00000000000E+00  0.00000000000E+00  0.50000000000E+03  0.50000000000E+03  0.00000000000E+00 0. -1.
         11   -1    0    0    0    0 -0.00000000000E+00 -0.00000000000E+00 -0.50000000000E+03  0.50000000000E+03  0.00000000000E+00 0. -1.
        -11    1    1    2    0    0 -0.65200987485E+01 -0.69856503105E+01  0.49396288320E+03  0.49405530154E+03  0.00000000000E+00 0. -1.
         11    1    1    2    0    0 -0.44592731575E+01 -0.18479277788E+02 -0.44816907740E+03  0.44857205750E+03  0.00000000000E+00 0. -1.
        -15    1    1    2    0    0  0.24607559612E+01  0.36509579562E+01  0.11469483415E+01  0.48844685890E+01  0.17770000000E+01 0.  1.
         15    1    1    2    0    0  0.85186159448E+01  0.21813970142E+02 -0.46940754140E+02  0.52488172374E+02  0.17770000000E+01 0. -1.
</event>
<event>
 6    1  0.1823098E-004  0.5012451E+03  0.7546771E-02  0.9397028E-01
        -11   -1    0    0    0    0  0.00000000000E+00  0.00000000000E+00  0.50000000000E+03  0.50000000000E+03  0.00000000000E+00 0. -1.
         11   -1    0    0    0    0 -0.00000000000E+00 -0.00000000000E+00 -0.50000000000E+03  0.50000000000E+03  0.00000000000E+00 0.  1.
        -11    1    1    2    0    0  0.16643592718E+02 -0.50099439030E+02  0.49595313011E+03  0.49875492001E+03  0.00000000000E+00 0. -1.
         11    1    1    2    0    0 -0.29511281825E+02  0.49559788270E+02 -0.36288174108E+03  0.36743740470E+03  0.00000000000E+00 0.  1.
        -15    1    1    2    0    0  0.23284245175E+01  0.14904653254E+01 -0.31929171539E+02  0.32097862418E+02  0.17770000000E+01 0. -1.
         15    1    1    2    0    0  0.10539264590E+02 -0.95081456516E+00 -0.10114221749E+03  0.10170981287E+03  0.17770000000E+01 0.  1.
</event>
<event>
 6    1  0.1823098E-004  0.4819857E+03  0.7546771E-02  0.9441045E-01
        -11   -1    0    0    0    0  0.00000000000E+00  0.00000000000E+00  0.50000000000E+03  0.50000000000E+03  0.00000000000E+00 0.  1.
         11   -1    0    0    0    0 -0.00000000000E+00 -0.00000000000E+00 -0.50000000000E+03  0.50000000000E+03  0.00000000000E+00 0.  1.
        -11    1    1    2    0    0  0.10010755778E+02 -0.29567281775E+01  0.47994279969E+03  0.48005629717E+03  0.00000000000E+00 0.  1.
         11    1    1    2    0    0  0.13402940925E+02  0.12230262443E+02 -0.48391219562E+03  0.48425223925E+03  0.00000000000E+00 0.  1.
        -15    1    1    2    0    0 -0.15724550500E+02 -0.59855740179E+01 -0.97493682462E+01  0.19526814767E+02  0.17770000000E+01 0.  1.
         15    1    1    2    0    0 -0.76891462023E+01 -0.32879602481E+01  0.13718764176E+02  0.16164648818E+02  0.17770000000E+01 0. -1.
</event>
<event>
 6    1  0.1823098E-004  0.5041554E+03  0.7546771E-02  0.9390559E-01
        -11   -1    0    0    0    0  0.00000000000E+00  0.00000000000E+00  0.50000000000E+03  0.50000000000E+03  0.00000000000E+00 0.  1.
         11   -1    0    0    0    0 -0.00000000000E+00 -0.00000000000E+00 -0.50000000000E+03  0.50000000000E+03  0.00000000000E+00 0. -1.
        -11    1    1    2    0    0  0.24755817044E+01 -0.63510278205E+01  0.48788565687E+03  0.48793327233E+03  0.00000000000E+00 0.  1.
         11    1    1    2    0    0 -0.82826554825E+01  0.75173801706E-01 -0.49577541098E+03  0.49584459881E+03  0.00000000000E+00 0. -1.
        -15    1    1    2    0    0  0.57427804959E+01  0.28075708950E+01 -0.81503943201E+00  0.66846092205E+01  0.17770000000E+01 0. -1.
         15    1    1    2    0    0  0.64293282163E-01  0.34682831238E+01  0.87047935389E+01  0.95375196465E+01  0.17770000000E+01 0.  1.
</event>
<event>
 6    1  0.1823098E-004  0.4746154E+03  0.7546771E-02  0.9458473E-01
        -11   -1    0    0    0    0  0.00000000000E+00  0.00000000000E+00  0.50000000000E+03  0.50000000000E+03  0.00000000000E+00 0.  1.
         11   -1    0    0    0    0 -0.00000000000E+00 -0.00000000000E+00 -0.50000000000E+03  0.50000000000E+03  0.00000000000E+00 0. -1.
        -11    1    1    2    0    0 -0.60131642659E+01  0.13752508349E+02  0.48373204743E+03  0.48396485755E+03  0.00000000000E+00 0.  1.
         11    1    1    2    0    0  0.21133264271E+02  0.22143554593E+02 -0.46523879660E+03  0.46624466724E+03  0.00000000000E+00 0. -1.
        -15    1    1    2    0    0 -0.12007142069E+02 -0.34952684602E+02 -0.69247249299E+01  0.37642677454E+02  0.17770000000E+01 0. -1.
         15    1    1    2    0    0 -0.31129579361E+01 -0.94337833985E+00 -0.11568525902E+02  0.12147797758E+02  0.17770000000E+01 0.  1.
</event>
<event>
 6    1  0.1823098E-004  0.5019986E+03  0.7546771E-02  0.9395349E-01
        -11   -1    0    0    0    0  0.00000000000E+00  0.00000000000E+00  0.50000000000E+03  0.50000000000E+03  0.00000000000E+00 0. -1.
         11   -1    0    0    0    0 -0.00000000000E+00 -0.00000000000E+00 -0.50000000000E+03  0.50000000000E+03  0.00000000000E+00 0. -1.
        -11    1    1    2    0    0 -0.13676174248E+02 -0.18281274634E+02  0.26925141356E+03  0.27021762794E+03  0.00000000000E+00 0. -1.
         11    1    1    2    0    0  0.48448806187E+02 -0.71151470055E+01 -0.49558799300E+03  0.49800137645E+03  0.00000000000E+00 0. -1.
        -15    1    1    2    0    0 -0.32481743403E+02  0.15992277246E+02  0.13051170454E+03  0.13545212932E+03  0.17770000000E+01 0. -1.
         15    1    1    2    0    0 -0.22908885356E+01  0.94041443935E+01  0.95824874900E+02  0.96328866290E+02  0.17770000000E+01 0.  1.
</event>
<event>
 6    1  0.1823098E-004  0.5013256E+03  0.7546771E-02  0.9396849E-01
        -11   -1    0    0    0    0  0.00000000000E+00  0.00000000000E+00  0.50000000000E+03  0.50000000000E+03  0.00000000000E+00 0. -1.
         11   -1    0    0    0    0 -0.00000000000E+00 -0.00000000000E+00 -0.50000000000E+03  0.50000000000E+03  0.00000000000E+00 0.  1.
        -11    1    1    2    0    0  0.31759696860E+01  0.59949902137E+01  0.45431744879E+03  0.45436810074E+03  0.00000000000E+00 0. -1.
         11    1    1    2    0    0 -0.12991477431E+01  0.80684423711E+01 -0.49860746492E+03  0.49867443450E+03  0.00000000000E+00 0.  1.
        -15    1    1    2    0    0 -0.30496977928E+00 -0.49701578653E+01  0.24301479181E+02  0.24869963715E+02  0.17770000000E+01 0. -1.
         15    1    1    2    0    0 -0.15718521636E+01 -0.90932747195E+01  0.19988536949E+02  0.22087501052E+02  0.17770000000E+01 0.  1.
</event>
<event>
 6    1  0.1823098E-004  0.5000462E+03  0.7546771E-02  0.9399706E-01
        -11   -1    0    0    0    0  0.00000000000E+00  0.00000000000E+00  0.50000000000E+03  0.50000000000E+03  0.00000000000E+00 0.  1.
         11   -1    0    0    0    0 -0.00000000000E+00 -0.00000000000E+00 -0.50000000000E+03  0.50000000000E+03  0.00000000000E+00 0. -1.
        -11    1    1    2    0    0 -0.92312751430E+00 -0.75052486568E+01  0.28704060656E+03  0.28714019352E+03  0.00000000000E+00 0.  1.
         11    1    1    2    0    0  0.34570409847E+01  0.17330976226E+02 -0.49964136652E+03  0.49995380687E+03  0.00000000000E+00 0. -1.
        -15    1    1    2    0    0 -0.14013893113E+00 -0.69025969989E+01  0.14668638360E+03  0.14685951908E+03  0.17770000000E+01 0.  1.
         15    1    1    2    0    0 -0.23937745393E+01 -0.29231305700E+01  0.65914376363E+02  0.66046480521E+02  0.17770000000E+01 0. -1.
</event>
<event>
 6    1  0.1823098E-004  0.5025200E+03  0.7546771E-02  0.9394189E-01
        -11   -1    0    0    0    0  0.00000000000E+00  0.00000000000E+00  0.50000000000E+03  0.50000000000E+03  0.00000000000E+00 0. -1.
         11   -1    0    0    0    0 -0.00000000000E+00 -0.00000000000E+00 -0.50000000000E+03  0.50000000000E+03  0.00000000000E+00 0.  1.
        -11    1    1    2    0    0  0.50732667094E+01 -0.72655421088E+01  0.49740108255E+03  0.49748001272E+03  0.00000000000E+00 0. -1.
         11    1    1    2    0    0 -0.21260976384E+02 -0.11709220615E+02 -0.34288833427E+03  0.34374633779E+03  0.00000000000E+00 0.  1.
        -15    1    1    2    0    0  0.18597318859E+02  0.12291190890E+02 -0.14527002156E+03  0.14698119110E+03  0.17770000000E+01 0.  1.
         15    1    1    2    0    0 -0.24096091847E+01  0.66835718340E+01 -0.92427267188E+01  0.11792458399E+02  0.17770000000E+01 0. -1.
</event>
<event>
 6    1  0.1823098E-004  0.5005675E+03  0.7546771E-02  0.9398541E-01
        -11   -1    0    0    0    0  0.00000000000E+00  0.00000000000E+00  0.50000000000E+03  0.50000000000E+03  0.00000000000E+00 0. -1.
         11   -1    0    0    0    0 -0.00000000000E+00 -0.00000000000E+00 -0.50000000000E+03  0.50000000000E+03  0.00000000000E+00 0. -1.
        -11    1    1    2    0    0  0.24115258711E+01 -0.69866525520E+01  0.49937782111E+03  0.49943251495E+03  0.00000000000E+00 0. -1.
         11    1    1    2    0    0 -0.74033770497E+01  0.11559954106E+02 -0.39048518959E+03  0.39072640788E+03  0.00000000000E+00 0. -1.
        -15    1    1    2    0    0  0.11326611567E+01  0.25710751915E+01 -0.88506484327E+01  0.94543670130E+01  0.17770000000E+01 0. -1.
         15    1    1    2    0    0  0.38591900219E+01 -0.71443767459E+01 -0.10004198309E+03  0.10038671016E+03  0.17770000000E+01 0.  1.
</event>
<event>
 6    1  0.1837567E-004  0.5000964E+03  0.7546771E-02  0.9399594E-01
        -11   -1    0    0    0    0  0.00000000000E+00  0.00000000000E+00  0.50000000000E+03  0.50000000000E+03  0.00000000000E+00 0.  1.
         11   -1    0    0    0    0 -0.00000000000E+00 -0.00000000000E+00 -0.50000000000E+03  0.50000000000E+03  0.00000000000E+00 0.  1.
        -11    1    1    2    0    0  0.29515783586E+01 -0.83285730402E+00  0.21216186816E+03  0.21218403278E+03  0.00000000000E+00 0.  1.
         11    1    1    2    0    0 -0.62298182827E+01 -0.80060644730E+01 -0.49980064988E+03  0.49990358803E+03  0.00000000000E+00 0.  1.
        -15    1    1    2    0    0  0.31110511299E+01  0.38667101950E+01  0.65838624248E+02  0.66049316868E+02  0.17770000000E+01 0. -1.
         15    1    1    2    0    0  0.16718879422E+00  0.49722115821E+01  0.22180015747E+03  0.22186306233E+03  0.17770000000E+01 0.  1.
</event>
<event>
 6    1  0.1823098E-004  0.5058286E+03  0.7546771E-02  0.9386861E-01
        -11   -1    0    0    0    0  0.00000000000E+00  0.00000000000E+00  0.50000000000E+03  0.50000000000E+03  0.00000000000E+00 0.  1.
         11   -1    0    0    0    0 -0.00000000000E+00 -0.00000000000E+00 -0.50000000000E+03  0.50000000000E+03  0.00000000000E+00 0.  1.
        -11    1    1    2    0    0 -0.16719054204E+01 -0.67622730330E+01  0.42436013288E+03  0.42441730170E+03  0.00000000000E+00 0.  1.
         11    1    1    2    0    0  0.15130342038E+02  0.23887263976E+02 -0.49336181640E+03  0.49417143839E+03  0.00000000000E+00 0.  1.
        -15    1    1    2    0    0  0.91061047326E+01  0.40524374565E+00  0.34965302705E+01  0.99231456115E+01  0.17770000000E+01 0. -1.
         15    1    1    2    0    0 -0.22564541350E+02 -0.17530234689E+02  0.65505153250E+02  0.71488114298E+02  0.17770000000E+01 0.  1.
</event>
<event>
 6    1  0.1823098E-004  0.5028947E+03  0.7546771E-02  0.9393356E-01
        -11   -1    0    0    0    0  0.00000000000E+00  0.00000000000E+00  0.50000000000E+03  0.50000000000E+03  0.00000000000E+00 0. -1.
         11   -1    0    0    0    0 -0.00000000000E+00 -0.00000000000E+00 -0.50000000000E+03  0.50000000000E+03  0.00000000000E+00 0. -1.
        -11    1    1    2    0    0 -0.17095234125E+02 -0.15257788064E+02  0.49657693758E+03  0.49710532291E+03  0.00000000000E+00 0. -1.
         11    1    1    2    0    0  0.10536572122E+02  0.13597559451E+02 -0.23793599766E+02  0.29360660159E+02  0.00000000000E+00 0. -1.
        -15    1    1    2    0    0  0.14997469397E+02 -0.45305756377E+00 -0.18578799329E+03  0.18640135603E+03  0.17770000000E+01 0.  1.
         15    1    1    2    0    0 -0.84388073941E+01  0.21132861765E+01 -0.28699534453E+03  0.28713266091E+03  0.17770000000E+01 0. -1.
</event>
<event>
 6    1  0.1823098E-004  0.5036342E+03  0.7546771E-02  0.9391714E-01
        -11   -1    0    0    0    0  0.00000000000E+00  0.00000000000E+00  0.50000000000E+03  0.50000000000E+03  0.00000000000E+00 0.  1.
         11   -1    0    0    0    0 -0.00000000000E+00 -0.00000000000E+00 -0.50000000000E+03  0.50000000000E+03  0.00000000000E+00 0. -1.
        -11    1    1    2    0    0  0.99266037582E+02 -0.60437437328E+02  0.48256870437E+03  0.49636577691E+03  0.00000000000E+00 0.  1.
         11    1    1    2    0    0  0.45178054298E+01  0.20311634691E+02 -0.30734690824E+02  0.37115957347E+02  0.00000000000E+00 0. -1.
        -15    1    1    2    0    0 -0.10055488074E+02 -0.54262632171E+01 -0.35476338937E+02  0.37313342470E+02  0.17770000000E+01 0.  1.
         15    1    1    2    0    0 -0.93728354938E+02  0.45552065854E+02 -0.41635767461E+03  0.42920492327E+03  0.17770000000E+01 0. -1.
</event>
<event>
 6    1  0.1823098E-004  0.5146402E+03  0.7546771E-02  0.9367634E-01
        -11   -1    0    0    0    0  0.00000000000E+00  0.00000000000E+00  0.50000000000E+03  0.50000000000E+03  0.00000000000E+00 0. -1.
         11   -1    0    0    0    0 -0.00000000000E+00 -0.00000000000E+00 -0.50000000000E+03  0.50000000000E+03  0.00000000000E+00 0. -1.
        -11    1    1    2    0    0  0.44805406965E+00  0.23693785830E+02  0.45931192999E+03  0.45992286883E+03  0.00000000000E+00 0. -1.
         11    1    1    2    0    0  0.14000741183E+02 -0.56986406574E+02 -0.48179936055E+03  0.48535975845E+03  0.00000000000E+00 0. -1.
        -15    1    1    2    0    0 -0.42497323040E+01 -0.16568698904E+01  0.17202745971E+02  0.17885682555E+02  0.17770000000E+01 0. -1.
         15    1    1    2    0    0 -0.10199062948E+02  0.34949490634E+02  0.52846845904E+01  0.36831690171E+02  0.17770000000E+01 0.  1.
</event>
<event>
 6    1  0.1823098E-004  0.5003431E+03  0.7546771E-02  0.9399042E-01
        -11   -1    0    0    0    0  0.00000000000E+00  0.00000000000E+00  0.50000000000E+03  0.50000000000E+03  0.00000000000E+00 0. -1.
         11   -1    0    0    0    0 -0.00000000000E+00 -0.00000000000E+00 -0.50000000000E+03  0.50000000000E+03  0.00000000000E+00 0.  1.
        -11    1    1    2    0    0 -0.11828393582E+02  0.49378567148E+01  0.97368297904E+02  0.98208343639E+02  0.00000000000E+00 0. -1.
         11    1    1    2    0    0  0.16635376930E+02 -0.38340055339E+01 -0.49936515788E+03  0.49965687853E+03  0.00000000000E+00 0.  1.
        -15    1    1    2    0    0  0.15948331781E+01 -0.27323507743E+01  0.16079217165E+03  0.16083311048E+03  0.17770000000E+01 0.  1.
         15    1    1    2    0    0 -0.64018165266E+01  0.16284995934E+01  0.24120468832E+03  0.24130166734E+03  0.17770000000E+01 0. -1.
</event>
<event>
 6    1  0.1823098E-004  0.4880135E+03  0.7546771E-02  0.9427037E-01
        -11   -1    0    0    0    0  0.00000000000E+00  0.00000000000E+00  0.50000000000E+03  0.50000000000E+03  0.00000000000E+00 0.  1.
         11   -1    0    0    0    0 -0.00000000000E+00 -0.00000000000E+00 -0.50000000000E+03  0.50000000000E+03  0.00000000000E+00 0. -1.
        -11    1    1    2    0    0 -0.75933631658E+01  0.14723182290E+02  0.48607711235E+03  0.48635932232E+03  0.00000000000E+00 0.  1.
         11    1    1    2    0    0 -0.10692334260E+02 -0.16414150294E+01 -0.48981425641E+03  0.48993369556E+03  0.00000000000E+00 0. -1.
        -15    1    1    2    0    0  0.29008981038E+01 -0.27269064990E+01  0.25235904520E+01  0.50376052477E+01  0.17770000000E+01 0. -1.
         15    1    1    2    0    0  0.15384799322E+02 -0.10354860761E+02  0.12135536146E+01  0.18669376876E+02  0.17770000000E+01 0.  1.
</event>
<event>
 6    1  0.1823098E-004  0.5025569E+03  0.7546771E-02  0.9394106E-01
        -11   -1    0    0    0    0  0.00000000000E+00  0.00000000000E+00  0.50000000000E+03  0.50000000000E+03  0.00000000000E+00 0.  1.
         11   -1    0    0    0    0 -0.00000000000E+00 -0.00000000000E+00 -0.50000000000E+03  0.50000000000E+03  0.00000000000E+00 0.  1.
        -11    1    1    2    0    0 -0.51898152058E+01 -0.88185172783E+01  0.38152156938E+03  0.38165875901E+03  0.00000000000E+00 0.  1.
         11    1    1    2    0    0  0.67885944227E+01  0.44914989386E+01 -0.49737645013E+03  0.49744305375E+03  0.00000000000E+00 0.  1.
        -15    1    1    2    0    0 -0.16686803876E+02  0.32413214084E+01  0.39501412377E+02  0.43040386811E+02  0.17770000000E+01 0. -1.
         15    1    1    2    0    0  0.15088024659E+02  0.10856969313E+01  0.76353468374E+02  0.77857800429E+02  0.17770000000E+01 0.  1.
</event>
<event>
 6    1  0.1823098E-004  0.4903057E+03  0.7546771E-02  0.9421767E-01
        -11   -1    0    0    0    0  0.00000000000E+00  0.00000000000E+00  0.50000000000E+03  0.50000000000E+03  0.00000000000E+00 0.  1.
         11   -1    0    0    0    0 -0.00000000000E+00 -0.00000000000E+00 -0.50000000000E+03  0.50000000000E+03  0.00000000000E+00 0. -1.
        -11    1    1    2    0    0 -0.59477547800E+01  0.46454226576E+01  0.48932066721E+03  0.48937886253E+03  0.00000000000E+00 0.  1.
         11    1    1    2    0    0 -0.64789269752E+01  0.40906719020E+01 -0.49129240180E+03  0.49135214883E+03  0.00000000000E+00 0. -1.
        -15    1    1    2    0    0  0.66627100822E+00 -0.28582127405E+01  0.46055774632E+01  0.57430279379E+01  0.17770000000E+01 0. -1.
         15    1    1    2    0    0  0.11760410747E+02 -0.58778818190E+01 -0.26338428659E+01  0.13525960700E+02  0.17770000000E+01 0.  1.
</event>
<event>
 6    1  0.1823098E-004  0.5034126E+03  0.7546771E-02  0.9392206E-01
        -11   -1    0    0    0    0  0.00000000000E+00  0.00000000000E+00  0.50000000000E+03  0.50000000000E+03  0.00000000000E+00 0.  1.
         11   -1    0    0    0    0 -0.00000000000E+00 -0.00000000000E+00 -0.50000000000E+03  0.50000000000E+03  0.00000000000E+00 0. -1.
        -11    1    1    2    0    0 -0.10128846412E+02  0.81761397923E+01  0.44916366529E+03  0.44935224602E+03  0.00000000000E+00 0.  1.
         11    1    1    2    0    0  0.23237253110E+00 -0.12632248754E+02 -0.49642666936E+03  0.49658742005E+03  0.00000000000E+00 0. -1.
        -15    1    1    2    0    0  0.12863422327E+02  0.54176340340E+01  0.11651501414E+02  0.18268377232E+02  0.17770000000E+01 0.  1.
         15    1    1    2    0    0 -0.29669484457E+01 -0.96152507224E+00  0.35611502654E+02  0.35791956692E+02  0.17770000000E+01 0. -1.
</event>
<event>
 6    1  0.1823098E-004  0.5133273E+03  0.7546771E-02  0.9370473E-01
        -11   -1    0    0    0    0  0.00000000000E+00  0.00000000000E+00  0.50000000000E+03  0.50000000000E+03  0.00000000000E+00 0.  1.
         11   -1    0    0    0    0 -0.00000000000E+00 -0.00000000000E+00 -0.50000000000E+03  0.50000000000E+03  0.00000000000E+00 0. -1.
        -11    1    1    2    0    0 -0.16716702751E+01 -0.10934876805E+02  0.39699738957E+03  0.39715147405E+03  0.00000000000E+00 0.  1.
         11    1    1    2    0    0 -0.55154261154E+02 -0.38292795254E+01 -0.48352211201E+03  0.48667267101E+03  0.00000000000E+00 0. -1.
        -15    1    1    2    0    0  0.56089508847E+02  0.13666751205E+02  0.41558956646E+02  0.71155587959E+02  0.17770000000E+01 0.  1.
         15    1    1    2    0    0  0.73642258143E+00  0.10974051258E+01  0.44965765794E+02  0.45020266977E+02  0.17770000000E+01 0. -1.
</event>
<event>
 6    1  0.4492593E-004  0.5001997E+03  0.7546771E-02  0.9399363E-01
        -11   -1    0    0    0    0  0.00000000000E+00  0.00000000000E+00  0.50000000000E+03  0.50000000000E+03  0.00000000000E+00 0.  1.
         11   -1    0    0    0    0 -0.00000000000E+00 -0.00000000000E+00 -0.50000000000E+03  0.50000000000E+03  0.00000000000E+00 0.  1.
        -11    1    1    2    0    0 -0.31653474074E+02  0.15287854280E+02  0.34936586083E+03  0.35112984155E+03  0.00000000000E+00 0.  1.
         11    1    1    2    0    0  0.33192804789E+02 -0.19358135342E+02 -0.49832101998E+03  0.49980029877E+03  0.00000000000E+00 0.  1.
        -15    1    1    2    0    0 -0.10682948458E+01  0.23560054254E+01  0.10113299215E+03  0.10118167742E+03  0.17770000000E+01 0.  1.
         15    1    1    2    0    0 -0.47103586971E+00  0.17142756366E+01  0.47822166995E+02  0.47888182267E+02  0.17770000000E+01 0.  1.
</event>
<event>
 6    1  0.1823098E-004  0.5002765E+03  0.7546771E-02  0.9399191E-01
        -11   -1    0    0    0    0  0.00000000000E+00  0.00000000000E+00  0.50000000000E+03  0.50000000000E+03  0.00000000000E+00 0. -1.
         11   -1    0    0    0    0 -0.00000000000E+00 -0.00000000000E+00 -0.50000000000E+03  0.50000000000E+03  0.00000000000E+00 0.  1.
        -11    1    1    2    0    0 -0.24023611804E+01  0.29097264927E+01  0.24079255395E+03  0.24082211668E+03  0.00000000000E+00 0. -1.
         11    1    1    2    0    0 -0.25542624596E+01  0.77262038940E+01 -0.49965723446E+03  0.49972349397E+03  0.00000000000E+00 0.  1.
        -15    1    1    2    0    0  0.41095481746E+01 -0.40986159313E+01  0.37796245067E+02  0.38280555232E+02  0.17770000000E+01 0.  1.
         15    1    1    2    0    0  0.84707546544E+00 -0.65373144554E+01  0.22106843544E+03  0.22117383411E+03  0.17770000000E+01 0. -1.
</event>
<event>
 6    1  0.1823098E-004  0.4910050E+03  0.7546771E-02  0.9420165E-01
        -11   -1    0    0    0    0  0.00000000000E+00  0.00000000000E+00  0.50000000000E+03  0.50000000000E+03  0.00000000000E+00 0. -1.
         11   -1    0    0    0    0 -0.00000000000E+00 -0.00000000000E+00 -0.50000000000E+03  0.50000000000E+03  0.00000000000E+00 0.  1.
        -11    1    1    2    0    0 -0.30843205875E+01  0.61609301103E+01  0.48987484018E+03  0.48992328903E+03  0.00000000000E+00 0. -1.
         11    1    1    2    0    0  0.17775714890E+02 -0.20033487221E+01 -0.49188232410E+03  0.49220748695E+03  0.00000000000E+00 0.  1.
        -15    1    1    2    0    0 -0.83282750749E+01 -0.63506295658E+01 -0.52479591292E-02  0.10623013609E+02  0.17770000000E+01 0.  1.
         15    1    1    2    0    0 -0.63631192277E+01  0.21930481776E+01  0.20127318793E+01  0.72462104050E+01  0.17770000000E+01 0. -1.
</event>
<event>
 6    1  0.1823098E-004  0.5002336E+03  0.7546771E-02  0.9399287E-01
        -11   -1    0    0    0    0  0.00000000000E+00  0.00000000000E+00  0.50000000000E+03  0.50000000000E+03  0.00000000000E+00 0. -1.
         11   -1    0    0    0    0 -0.00000000000E+00 -0.00000000000E+00 -0.50000000000E+03  0.50000000000E+03  0.00000000000E+00 0. -1.
        -11    1    1    2    0    0  0.16643860800E+00  0.77566770745E+01  0.40998162996E+03  0.41005503368E+03  0.00000000000E+00 0. -1.
         11    1    1    2    0    0  0.57673033132E+00 -0.79682452726E+01 -0.49970258848E+03  0.49976644793E+03  0.00000000000E+00 0. -1.
        -15    1    1    2    0    0 -0.27721050507E+01  0.21731157997E+01  0.20435358597E+02  0.20812703060E+02  0.17770000000E+01 0.  1.
         15    1    1    2    0    0  0.20289361114E+01 -0.19615476016E+01  0.69285599921E+02  0.69365815329E+02  0.17770000000E+01 0. -1.
</event>
<event>
 6    1  0.1823098E-004  0.5027650E+03  0.7546771E-02  0.9393644E-01
        -11   -1    0    0    0    0  0.00000000000E+00  0.00000000000E+00  0.50000000000E+03  0.50000000000E+03  0.00000000000E+00 0.  1.
         11   -1    0    0    0    0 -0.00000000000E+00 -0.00000000000E+00 -0.50000000000E+03  0.50000000000E+03  0.00000000000E+00 0. -1.
        -11    1    1    2    0    0 -0.10615591109E+02 -0.32655075757E+01  0.48483238610E+03  0.48495958278E+03  0.00000000000E+00 0.  1.
         11    1    1    2    0    0  0.16329957492E+02 -0.25981280992E+01 -0.49695995679E+03  0.49723497105E+03  0.00000000000E+00 0. -1.
        -15    1    1    2    0    0  0.23651692086E+01  0.31449670121E+01  0.36777175494E+01  0.56716997687E+01  0.17770000000E+01 0.  1.
         15    1    1    2    0    0 -0.80795355909E+01  0.27186686628E+01  0.84498531426E+01  0.12133746404E+02  0.17770000000E+01 0. -1.
</event>
<event>
 6    1  0.1823098E-004  0.5012311E+03  0.7546771E-02  0.9397059E-01
        -11   -1    0    0    0    0  0.00000000000E+00  0.00000000000E+00  0.50000000000E+03  0.50000000000E+03  0.00000000000E+00 0. -1.
         11   -1    0    0    0    0 -0.00000000000E+00 -0.00000000000E+00 -0.50000000000E+03  0.50000000000E+03  0.00000000000E+00 0. -1.
        -11    1    1    2    0    0  0.19677951558E+01  0.12163275844E+02  0.49861663874E+03  0.49876885421E+03  0.00000000000E+00 0. -1.
         11    1    1    2    0    0  0.10241365510E+02  0.46154635220E+01 -0.32881590429E+03  0.32900773089E+03  0.00000000000E+00 0. -1.
        -15    1    1    2    0    0 -0.85708731670E+01  0.16539544355E+01 -0.35373030687E+02  0.36477451407E+02  0.17770000000E+01 0.  1.
         15    1    1    2    0    0 -0.36382874985E+01 -0.18432693801E+02 -0.13442770376E+03  0.13574596349E+03  0.17770000000E+01 0. -1.
</event>
<event>
 6    1  0.1823098E-004  0.5000930E+03  0.7546771E-02  0.9399602E-01
        -11   -1    0    0    0    0  0.00000000000E+00  0.00000000000E+00  0.50000000000E+03  0.50000000000E+03  0.00000000000E+00 0.  1.
         11   -1    0    0    0    0 -0.00000000000E+00 -0.00000000000E+00 -0.50000000000E+03  0.50000000000E+03  0.00000000000E+00 0.  1.
        -11    1    1    2    0    0  0.22103147145E+02  0.10994476145E+02  0.36456910067E+03  0.36540396383E+03  0.00000000000E+00 0.  1.
         11    1    1    2    0    0 -0.25109227427E+02 -0.16664970817E+02 -0.49899785265E+03  0.49990704287E+03  0.00000000000E+00 0.  1.
        -15    1    1    2    0    0  0.31205307475E+01  0.51594139175E+01  0.11514427197E+03  0.11531573336E+03  0.17770000000E+01 0. -1.
         15    1    1    2    0    0 -0.11445046619E+00  0.51108075440E+00  0.19284480012E+02  0.19373259942E+02  0.17770000000E+01 0. -1.
</event>
<event>
 6    1  0.1823098E-004  0.5010907E+03  0.7546771E-02  0.9397373E-01
        -11   -1    0    0    0    0  0.00000000000E+00  0.00000000000E+00  0.50000000000E+03  0.50000000000E+03  0.00000000000E+00 0. -1.
         11   -1    0    0    0    0 -0.00000000000E+00 -0.00000000000E+00 -0.50000000000E+03  0.50000000000E+03  0.00000000000E+00 0.  1.
        -11    1    1    2    0    0  0.77303994590E+01 -0.16238045442E-01  0.49884945313E+03  0.49890934671E+03  0.00000000000E+00 0. -1.
         11    1    1    2    0    0 -0.64790135370E+01  0.33486418087E+01 -0.31350100977E+03  0.31358583218E+03  0.00000000000E+00 0.  1.
        -15    1    1    2    0    0  0.10505991077E+02 -0.15548893637E+00 -0.33401423214E+02  0.35060131589E+02  0.17770000000E+01 0. -1.
         15    1    1    2    0    0 -0.11757376999E+02 -0.31769148269E+01 -0.15194702015E+03  0.15244468953E+03  0.17770000000E+01 0.  1.
</event>
<event>
 6    1  0.1823098E-004  0.5000899E+03  0.7546771E-02  0.9399608E-01
        -11   -1    0    0    0    0  0.00000000000E+00  0.00000000000E+00  0.50000000000E+03  0.50000000000E+03  0.00000000000E+00 0. -1.
         11   -1    0    0    0    0 -0.00000000000E+00 -0.00000000000E+00 -0.50000000000E+03  0.50000000000E+03  0.00000000000E+00 0.  1.
        -11    1    1    2    0    0 -0.22621311948E+02  0.72505370099E+01  0.49934534536E+03  0.49991005989E+03  0.00000000000E+00 0. -1.
         11    1    1    2    0    0  0.18430135910E+02 -0.69437402671E+01 -0.29967838853E+03  0.30032486076E+03  0.00000000000E+00 0.  1.
        -15    1    1    2    0    0  0.29112527627E+01  0.82708154774E+00 -0.14508241919E+03  0.14512486190E+03  0.17770000000E+01 0. -1.
         15    1    1    2    0    0  0.12799232745E+01 -0.11338782905E+01 -0.54584537646E+02  0.54640217446E+02  0.17770000000E+01 0.  1.
</event>
<event>
 6    1  0.1823098E-004  0.5017423E+03  0.7546771E-02  0.9395920E-01
        -11   -1    0    0    0    0  0.00000000000E+00  0.00000000000E+00  0.50000000000E+03  0.50000000000E+03  0.00000000000E+00 0.  1.
         11   -1    0    0    0    0 -0.00000000000E+00 -0.00000000000E+00 -0.50000000000E+03  0.50000000000E+03  0.00000000000E+00 0. -1.
        -11    1    1    2    0    0 -0.59844541647E+01 -0.46941578152E+01  0.49819962151E+03  0.49825767599E+03  0.00000000000E+00 0.  1.
         11    1    1    2    0    0  0.84147942377E+01 -0.85108903969E+01 -0.46121554358E+03  0.46137080711E+03  0.00000000000E+00 0. -1.
        -15    1    1    2    0    0  0.43240579996E+00  0.64766071703E+01 -0.81386460124E+01  0.10560715086E+02  0.17770000000E+01 0. -1.
         15    1    1    2    0    0 -0.28627458730E+01  0.67284410419E+01 -0.28845431920E+02  0.29810801808E+02  0.17770000000E+01 0.  1.
</event>
<event>
 6    1  0.1823098E-004  0.5000629E+03  0.7546771E-02  0.9399669E-01
        -11   -1    0    0    0    0  0.00000000000E+00  0.00000000000E+00  0.50000000000E+03  0.50000000000E+03  0.00000000000E+00 0. -1.
         11   -1    0    0    0    0 -0.00000000000E+00 -0.00000000000E+00 -0.50000000000E+03  0.50000000000E+03  0.00000000000E+00 0.  1.
        -11    1    1    2    0    0  0.14806126621E+02 -0.29523032183E+01  0.49970906882E+03  0.49993708698E+03  0.00000000000E+00 0. -1.
         11    1    1    2    0    0 -0.12304422128E+02  0.22089720515E+01 -0.30673535184E+03  0.30698999076E+03  0.00000000000E+00 0.  1.
        -15    1    1    2    0    0 -0.12712308873E+01 -0.16586780307E+01 -0.64048408245E+02  0.64107125723E+02  0.17770000000E+01 0. -1.
         15    1    1    2    0    0 -0.12304736063E+01  0.24020091975E+01 -0.12892530874E+03  0.12896579653E+03  0.17770000000E+01 0.  1.
</event>
<event>
 6    1  0.1823098E-004  0.5016209E+03  0.7546771E-02  0.9396190E-01
        -11   -1    0    0    0    0  0.00000000000E+00  0.00000000000E+00  0.50000000000E+03  0.50000000000E+03  0.00000000000E+00 0. -1.
         11   -1    0    0    0    0 -0.00000000000E+00 -0.00000000000E+00 -0.50000000000E+03  0.50000000000E+03  0.00000000000E+00 0. -1.
        -11    1    1    2    0    0 -0.10360297756E+02 -0.58128250597E+02  0.49486918772E+03  0.49837911497E+03  0.00000000000E+00 0. -1.
         11    1    1    2    0    0  0.52096637294E+01  0.60078801341E+02 -0.27080270966E+03  0.27743595752E+03  0.00000000000E+00 0. -1.
        -15    1    1    2    0    0  0.25969137692E+01  0.64336132792E+00 -0.10824993668E+03  0.10829757336E+03  0.17770000000E+01 0. -1.
         15    1    1    2    0    0  0.25537202570E+01 -0.25939120713E+01 -0.11581654137E+03  0.11588735415E+03  0.17770000000E+01 0.  1.
</event>
<event>
 6    1  0.1823098E-004  0.4856139E+03  0.7546771E-02  0.9432588E-01
        -11   -1    0    0    0    0  0.00000000000E+00  0.00000000000E+00  0.50000000000E+03  0.50000000000E+03  0.00000000000E+00 0.  1.
         11   -1    0    0    0    0 -0.00000000000E+00 -0.00000000000E+00 -0.50000000000E+03  0.50000000000E+03  0.00000000000E+00 0. -1.
        -11    1    1    2    0    0 -0.93876085280E+01 -0.20130085217E+01  0.48000407147E+03  0.48010008126E+03  0.00000000000E+00 0.  1.
         11    1    1    2    0    0 -0.10611715957E+02  0.12836281983E+02 -0.49117585493E+03  0.49145813567E+03  0.00000000000E+00 0. -1.
        -15    1    1    2    0    0  0.71923108609E+01 -0.97531727150E+01  0.16715408092E+01  0.12361451824E+02  0.17770000000E+01 0. -1.
         15    1    1    2    0    0  0.12807013624E+02 -0.10701007460E+01  0.95002426483E+01  0.16080331245E+02  0.17770000000E+01 0.  1.
</event>
<event>
 6    1  0.1823098E-004  0.4862491E+03  0.7546771E-02  0.9431115E-01
        -11   -1    0    0    0    0  0.00000000000E+00  0.00000000000E+00  0.50000000000E+03  0.50000000000E+03  0.00000000000E+00 0.  1.
         11   -1    0    0    0    0 -0.00000000000E+00 -0.00000000000E+00 -0.50000000000E+03  0.50000000000E+03  0.00000000000E+00 0.  1.
        -11    1    1    2    0    0 -0.19226354805E+02 -0.13842803245E+02  0.48751936390E+03  0.48809466920E+03  0.00000000000E+00 0.  1.
         11    1    1    2    0    0 -0.59967175421E+01  0.16468822394E+02 -0.48442206625E+03  0.48473902360E+03  0.00000000000E+00 0.  1.
        -15    1    1    2    0    0  0.76062663328E+01  0.30564119448E+01 -0.12216186862E+01  0.84762623081E+01  0.17770000000E+01 0. -1.
         15    1    1    2    0    0  0.17616806014E+02 -0.56824310939E+01 -0.18756789659E+01  0.18690044887E+02  0.17770000000E+01 0.  1.
</event>
<event>
 6    1  0.1823098E-004  0.5004848E+03  0.7546771E-02  0.9398726E-01
        -11   -1    0    0    0    0  0.00000000000E+00  0.00000000000E+00  0.50000000000E+03  0.50000000000E+03  0.00000000000E+00 0.  1.
         11   -1    0    0    0    0 -0.00000000000E+00 -0.00000000000E+00 -0.50000000000E+03  0.50000000000E+03  0.00000000000E+00 0. -1.
        -11    1    1    2    0    0  0.13012702680E+02 -0.17778688192E+02  0.49902910374E+03  0.49951522355E+03  0.00000000000E+00 0.  1.
         11    1    1    2    0    0 -0.12488339061E+02  0.20576872908E+02 -0.48054117439E+03  0.48114362367E+03  0.00000000000E+00 0. -1.
        -15    1    1    2    0    0 -0.19558541865E+01 -0.12522792982E+01 -0.93571376629E+01  0.98034342596E+01  0.17770000000E+01 0. -1.
         15    1    1    2    0    0  0.14314905675E+01 -0.15459054182E+01 -0.91307916845E+01  0.95377185213E+01  0.17770000000E+01 0.  1.
</event>
<event>
 6    1  0.1823098E-004  0.5001453E+03  0.7546771E-02  0.9399485E-01
        -11   -1    0    0    0    0  0.00000000000E+00  0.00000000000E+00  0.50000000000E+03  0.50000000000E+03  0.00000000000E+00 0. -1.
         11   -1    0    0    0    0 -0.00000000000E+00 -0.00000000000E+00 -0.50000000000E+03  0.50000000000E+03  0.00000000000E+00 0. -1.
        -11    1    1    2    0    0  0.48801190910E+00 -0.57508354750E+01  0.40276761200E+03  0.40280896159E+03  0.00000000000E+00 0. -1.
         11    1    1    2    0    0 -0.41238578701E+01  0.73185438233E+01 -0.49978408585E+03  0.49985467863E+03  0.00000000000E+00 0. -1.
        -15    1    1    2    0    0  0.22123532256E+01 -0.33071912684E+01  0.76084010996E+02  0.76208703434E+02  0.17770000000E+01 0. -1.
         15    1    1    2    0    0  0.14234927354E+01  0.17394829200E+01  0.20932462854E+02  0.21127656343E+02  0.17770000000E+01 0.  1.
</event>
<event>
 6    1  0.1823098E-004  0.5038637E+03  0.7546771E-02  0.9391206E-01
        -11   -1    0    0    0    0  0.00000000000E+00  0.00000000000E+00  0.50000000000E+03  0.50000000000E+03  0.00000000000E+00 0.  1.
         11   -1    0    0    0    0 -0.00000000000E+00 -0.00000000000E+00 -0.50000000000E+03  0.50000000000E+03  0.00000000000E+00 0.  1.
        -11    1    1    2    0    0  0.75222885273E+01  0.50312841675E+01  0.49605372223E+03  0.49613626554E+03  0.00000000000E+00 0.  1.
         11    1    1    2    0    0  0.93228911167E+01 -0.26537970986E+01 -0.47721656933E+03  0.47731500393E+03  0.00000000000E+00 0.  1.
        -15    1    1    2    0    0 -0.14787488890E+02 -0.26742164399E+01 -0.18326800629E+02  0.23766586030E+02  0.17770000000E+01 0. -1.
         15    1    1    2    0    0 -0.20576907541E+01  0.29672937109E+00 -0.51035227794E+00  0.27821444978E+01  0.17770000000E+01 0.  1.
</event>
<event>
 6    1  0.1823098E-004  0.5047126E+03  0.7546771E-02  0.9389326E-01
        -11   -1    0    0    0    0  0.00000000000E+00  0.00000000000E+00  0.50000000000E+03  0.50000000000E+03  0.00000000000E+00 0.  1.
         11   -1    0    0    0    0 -0.00000000000E+00 -0.00000000000E+00 -0.50000000000E+03  0.50000000000E+03  0.00000000000E+00 0. -1.
        -11    1    1    2    0    0  0.55475939290E+01  0.89435142335E+01  0.49517559246E+03  0.49528742121E+03  0.00000000000E+00 0.  1.
         11    1    1    2    0    0 -0.93901089480E+01  0.17922141276E+02 -0.43328577576E+03  0.43375792877E+03  0.00000000000E+00 0. -1.
        -15    1    1    2    0    0 -0.43309797125E+01 -0.37021292562E+01 -0.21604807520E+01  0.63473263962E+01  0.17770000000E+01 0.  1.
         15    1    1    2    0    0  0.81734947315E+01 -0.23163526253E+02 -0.59729335939E+02  0.64607323620E+02  0.17770000000E+01 0. -1.
</event>
<event>
 6    1  0.1823098E-004  0.5001664E+03  0.7546771E-02  0.9399437E-01
        -11   -1    0    0    0    0  0.00000000000E+00  0.00000000000E+00  0.50000000000E+03  0.50000000000E+03  0.00000000000E+00 0. -1.
         11   -1    0    0    0    0 -0.00000000000E+00 -0.00000000000E+00 -0.50000000000E+03  0.50000000000E+03  0.00000000000E+00 0.  1.
        -11    1    1    2    0    0  0.18554091146E+02  0.48895937129E+02  0.49709010791E+03  0.49983361466E+03  0.00000000000E+00 0. -1.
         11    1    1    2    0    0 -0.13911424277E+02 -0.43845189493E+02 -0.38729361738E+03  0.39001573613E+03  0.00000000000E+00 0.  1.
        -15    1    1    2    0    0 -0.73910903321E+00  0.80088377698E-01 -0.15886256052E+02  0.16002610933E+02  0.17770000000E+01 0. -1.
         15    1    1    2    0    0 -0.39035578360E+01 -0.51308360140E+01 -0.93910234475E+02  0.94148038270E+02  0.17770000000E+01 0. -1.
</event>
<event>
 6    1  0.1823098E-004  0.5001211E+03  0.7546771E-02  0.9399539E-01
        -11   -1    0    0    0    0  0.00000000000E+00  0.00000000000E+00  0.50000000000E+03  0.50000000000E+03  0.00000000000E+00 0.  1.
         11   -1    0    0    0    0 -0.00000000000E+00 -0.00000000000E+00 -0.50000000000E+03  0.50000000000E+03  0.00000000000E+00 0.  1.
        -11    1    1    2    0    0 -0.17026235049E+02  0.23414158264E+01  0.18788092345E+03  0.18866535534E+03  0.00000000000E+00 0.  1.
         11    1    1    2    0    0  0.27143615052E+02 -0.64611064120E+01 -0.49909953373E+03  0.49987885163E+03  0.00000000000E+00 0.  1.
        -15    1    1    2    0    0 -0.63980049754E+01  0.44654018541E+01  0.21216594930E+03  0.21231679644E+03  0.17770000000E+01 0.  1.
         15    1    1    2    0    0 -0.37193750277E+01 -0.34571126852E+00  0.99052660992E+02  0.99138996593E+02  0.17770000000E+01 0.  1.
</event>
<event>
 6    1  0.1823098E-004  0.5000343E+03  0.7546771E-02  0.9399733E-01
        -11   -1    0    0    0    0  0.00000000000E+00  0.00000000000E+00  0.50000000000E+03  0.50000000000E+03  0.00000000000E+00 0. -1.
         11   -1    0    0    0    0 -0.00000000000E+00 -0.00000000000E+00 -0.50000000000E+03  0.50000000000E+03  0.00000000000E+00 0. -1.
        -11    1    1    2    0    0 -0.42544821168E+01  0.13464347098E+01  0.22873724230E+03  0.22878076738E+03  0.00000000000E+00 0. -1.
         11    1    1    2    0    0  0.93158008678E+01 -0.56585123120E+01 -0.49984690649E+03  0.49996573166E+03  0.00000000000E+00 0. -1.
        -15    1    1    2    0    0 -0.33831046741E+01 -0.45322872610E-01  0.10982141229E+03  0.10988788731E+03  0.17770000000E+01 0. -1.
         15    1    1    2    0    0 -0.16782140769E+01  0.43574004748E+01  0.16128825190E+03  0.16136561365E+03  0.17770000000E+01 0.  1.
</event>
<event>
 6    1  0.1823098E-004  0.5007756E+03  0.7546771E-02  0.9398076E-01
        -11   -1    0    0    0    0  0.00000000000E+00  0.00000000000E+00  0.50000000000E+03  0.50000000000E+03  0.00000000000E+00 0.  1.
         11   -1    0    0    0    0 -0.00000000000E+00 -0.00000000000E+00 -0.50000000000E+03  0.50000000000E+03  0.00000000000E+00 0. -1.
        -11    1    1    2    0    0  0.22429872601E+02 -0.11576501735E+02  0.49858583991E+03  0.49922435270E+03  0.00000000000E+00 0.  1.
         11    1    1    2    0    0  0.65526656326E+01 -0.53472336780E+01 -0.45571354930E+02  0.46349527776E+02  0.00000000000E+00 0. -1.
        -15    1    1    2    0    0 -0.13439086735E+02  0.52154496612E+01 -0.12728754328E+03  0.12811356826E+03  0.17770000000E+01 0.  1.
         15    1    1    2    0    0 -0.15543451499E+02  0.11708285752E+02 -0.32572694169E+03  0.32631255126E+03  0.17770000000E+01 0. -1.
</event>
<event>
 6    1  0.1823098E-004  0.5030729E+03  0.7546771E-02  0.9392960E-01
        -11   -1    0    0    0    0  0.00000000000E+00  0.00000000000E+00  0.50000000000E+03  0.50000000000E+03  0.00000000000E+00 0.  1.
         11   -1    0    0    0    0 -0.00000000000E+00 -0.00000000000E+00 -0.50000000000E+03  0.50000000000E+03  0.00000000000E+00 0. -1.
        -11    1    1    2    0    0  0.53286625371E+01 -0.53213774670E+01  0.49687000413E+03  0.49692706980E+03  0.00000000000E+00 0.  1.
         11    1    1    2    0    0 -0.21365133257E+02  0.28643904896E+01 -0.45451084314E+03  0.45502173594E+03  0.00000000000E+00 0. -1.
        -15    1    1    2    0    0  0.11209672674E+02 -0.59211364804E+01 -0.22321189073E+02  0.25731494890E+02  0.17770000000E+01 0.  1.
         15    1    1    2    0    0  0.48267980463E+01  0.83781234578E+01 -0.20037971918E+02  0.22319699363E+02  0.17770000000E+01 0. -1.
</event>
<event>
 6    1  0.1823098E-004  0.5002027E+03  0.7546771E-02  0.9399356E-01
        -11   -1    0    0    0    0  0.00000000000E+00  0.00000000000E+00  0.50000000000E+03  0.50000000000E+03  0.00000000000E+00 0. -1.
         11   -1    0    0    0    0 -0.00000000000E+00 -0.00000000000E+00 -0.50000000000E+03  0.50000000000E+03  0.00000000000E+00 0. -1.
        -11    1    1    2    0    0 -0.70625339079E+01  0.67371041185E+00  0.49974694204E+03  0.49979729826E+03  0.00000000000E+00 0. -1.
         11    1    1    2    0    0  0.91334319705E-01 -0.61582800442E+01 -0.33900158096E+03  0.33905752410E+03  0.00000000000E+00 0. -1.
        -15    1    1    2    0    0  0.63051723625E+01  0.12876083385E+01 -0.86668919113E+02  0.86925671714E+02  0.17770000000E+01 0. -1.
         15    1    1    2    0    0  0.66602722575E+00  0.41969612938E+01 -0.74076441965E+02  0.74219505924E+02  0.17770000000E+01 0.  1.
</event>
<event>
 6    1  0.1823098E-004  0.5100071E+03  0.7546771E-02  0.9377692E-01
        -11   -1    0    0    0    0  0.00000000000E+00  0.00000000000E+00  0.50000000000E+03  0.50000000000E+03  0.00000000000E+00 0.  1.
         11   -1    0    0    0    0 -0.00000000000E+00 -0.00000000000E+00 -0.50000000000E+03  0.50000000000E+03  0.00000000000E+00 0. -1.
        -11    1    1    2    0    0 -0.20791871559E+02 -0.10009103234E+02  0.48944923652E+03  0.48999289710E+03  0.00000000000E+00 0.  1.
         11    1    1    2    0    0  0.13589077647E+02 -0.14594080759E+01 -0.46760194402E+03  0.46780163634E+03  0.00000000000E+00 0. -1.
        -15    1    1    2    0    0 -0.11216690881E+02 -0.34573255039E+01 -0.10557879292E+02  0.15886906499E+02  0.17770000000E+01 0. -1.
         15    1    1    2    0    0  0.18419484792E+02  0.14925836814E+02 -0.11289413208E+02  0.26318560070E+02  0.17770000000E+01 0.  1.
</event>
<event>
 6    1  0.1823098E-004  0.5006603E+03  0.7546771E-02  0.9398333E-01
        -11   -1    0    0    0    0  0.00000000000E+00  0.00000000000E+00  0.50000000000E+03  0.50000000000E+03  0.00000000000E+00 0.  1.
         11   -1    0    0    0    0 -0.00000000000E+00 -0.00000000000E+00 -0.50000000000E+03  0.50000000000E+03  0.00000000000E+00 0. -1.
        -11    1    1    2    0    0  0.28293053236E+02 -0.17976421699E+02  0.49821325118E+03  0.49933965620E+03  0.00000000000E+00 0.  1.
         11    1    1    2    0    0 -0.18470165092E+02  0.12649584273E+02 -0.13315483206E+03  0.13502358416E+03  0.00000000000E+00 0. -1.
        -15    1    1    2    0    0 -0.46287372351E+00  0.61037763568E+01 -0.46485109901E+02  0.46920075761E+02  0.17770000000E+01 0. -1.
         15    1    1    2    0    0 -0.93600144213E+01 -0.77693893096E+00 -0.31857330922E+03  0.31871668388E+03  0.17770000000E+01 0.  1.
</event>
<event>
 6    1  0.1823098E-004  0.5004814E+03  0.7546771E-02  0.9398733E-01
        -11   -1    0    0    0    0  0.00000000000E+00  0.00000000000E+00  0.50000000000E+03  0.50000000000E+03  0.00000000000E+00 0.  1.
         11   -1    0    0    0    0 -0.00000000000E+00 -0.00000000000E+00 -0.50000000000E+03  0.50000000000E+03  0.00000000000E+00 0. -1.
        -11    1    1    2    0    0 -0.21292028886E+01 -0.73145240549E+01  0.49946054085E+03  0.49951863593E+03  0.00000000000E+00 0.  1.
         11    1    1    2    0    0 -0.99938722405E+01 -0.39233004549E+01 -0.87531760381E+02  0.88187747699E+02  0.00000000000E+00 0. -1.
        -15    1    1    2    0    0  0.78264532252E+01  0.49744204458E+01 -0.20355921353E+03  0.20377808854E+03  0.17770000000E+01 0. -1.
         15    1    1    2    0    0  0.42966219039E+01  0.62634040640E+01 -0.20836956695E+03  0.20851552783E+03  0.17770000000E+01 0. -1.
</event>
<event>
 6    1  0.1823098E-004  0.4906345E+03  0.7546771E-02  0.9421013E-01
        -11   -1    0    0    0    0  0.00000000000E+00  0.00000000000E+00  0.50000000000E+03  0.50000000000E+03  0.00000000000E+00 0. -1.
         11   -1    0    0    0    0 -0.00000000000E+00 -0.00000000000E+00 -0.50000000000E+03  0.50000000000E+03  0.00000000000E+00 0. -1.
        -11    1    1    2    0    0  0.36316189743E+01 -0.76997183626E+01  0.48891118390E+03  0.48898529637E+03  0.00000000000E+00 0. -1.
         11    1    1    2    0    0  0.93972747636E+01  0.15409152207E+01 -0.49230337912E+03  0.49239547143E+03  0.00000000000E+00 0. -1.
        -15    1    1    2    0    0 -0.50039133561E+01  0.22164294910E+01 -0.38951599849E+01  0.69485040744E+01  0.17770000000E+01 0. -1.
         15    1    1    2    0    0 -0.80249803817E+01  0.39423736509E+01  0.72873552014E+01  0.11670728125E+02  0.17770000000E+01 0.  1.
</event>
<event>
 6    1  0.1823098E-004  0.5025131E+03  0.7546771E-02  0.9394204E-01
        -11   -1    0    0    0    0  0.00000000000E+00  0.00000000000E+00  0.50000000000E+03  0.50000000000E+03  0.00000000000E+00 0.  1.
         11   -1    0    0    0    0 -0.00000000000E+00 -0.00000000000E+00 -0.50000000000E+03  0.50000000000E+03  0.00000000000E+00 0. -1.
        -11    1    1    2    0    0 -0.13258792137E+02 -0.24777035739E+01  0.49730405100E+03  0.49748693825E+03  0.00000000000E+00 0.  1.
         11    1    1    2    0    0 -0.11317413642E+02  0.23015959632E+01 -0.43038576621E+03  0.43054069372E+03  0.00000000000E+00 0. -1.
        -15    1    1    2    0    0  0.21936905831E+02 -0.95195040345E+00 -0.63300370723E+02  0.67024090517E+02  0.17770000000E+01 0. -1.
         15    1    1    2    0    0  0.26392999479E+01  0.11280580142E+01 -0.36179140729E+01  0.49482775122E+01  0.17770000000E+01 0.  1.
</event>
<event>
 6    1  0.1823098E-004  0.5018395E+03  0.7546771E-02  0.9395703E-01
        -11   -1    0    0    0    0  0.00000000000E+00  0.00000000000E+00  0.50000000000E+03  0.50000000000E+03  0.00000000000E+00 0.  1.
         11   -1    0    0    0    0 -0.00000000000E+00 -0.00000000000E+00 -0.50000000000E+03  0.50000000000E+03  0.00000000000E+00 0. -1.
        -11    1    1    2    0    0 -0.19260227820E+01  0.10179885150E+02  0.43915910753E+03  0.43928130094E+03  0.00000000000E+00 0.  1.
         11    1    1    2    0    0 -0.11663274428E+02  0.52166218754E+01 -0.49799663488E+03  0.49816050975E+03  0.00000000000E+00 0. -1.
        -15    1    1    2    0    0  0.37251738728E+01 -0.63301673723E+01  0.17334398323E+02  0.18909971802E+02  0.17770000000E+01 0.  1.
         15    1    1    2    0    0  0.98641233370E+01 -0.90663396534E+01  0.41503129029E+02  0.43648217513E+02  0.17770000000E+01 0. -1.
</event>
<event>
 6    1  0.1823098E-004  0.5052665E+03  0.7546771E-02  0.9388102E-01
        -11   -1    0    0    0    0  0.00000000000E+00  0.00000000000E+00  0.50000000000E+03  0.50000000000E+03  0.00000000000E+00 0.  1.
         11   -1    0    0    0    0 -0.00000000000E+00 -0.00000000000E+00 -0.50000000000E+03  0.50000000000E+03  0.00000000000E+00 0.  1.
        -11    1    1    2    0    0  0.98663967568E+01 -0.75778629136E+01  0.49457703711E+03  0.49473347919E+03  0.00000000000E+00 0.  1.
         11    1    1    2    0    0  0.59498899535E+01  0.39397849743E+01 -0.48285677522E+03  0.48290950340E+03  0.00000000000E+00 0.  1.
        -15    1    1    2    0    0 -0.99189419850E+01 -0.22063560577E+01 -0.81478530631E+01  0.13145290248E+02  0.17770000000E+01 0.  1.
         15    1    1    2    0    0 -0.58973447253E+01  0.58444339970E+01 -0.35724088256E+01  0.92117271655E+01  0.17770000000E+01 0. -1.
</event>
<event>
 6    1  0.1823098E-004  0.5007584E+03  0.7546771E-02  0.9398114E-01
        -11   -1    0    0    0    0  0.00000000000E+00  0.00000000000E+00  0.50000000000E+03  0.50000000000E+03  0.00000000000E+00 0. -1.
         11   -1    0    0    0    0 -0.00000000000E+00 -0.00000000000E+00 -0.50000000000E+03  0.50000000000E+03  0.00000000000E+00 0.  1.
        -11    1    1    2    0    0  0.81242862985E+01  0.63204452559E+02  0.49515789571E+03  0.49924157332E+03  0.00000000000E+00 0. -1.
         11    1    1    2    0    0 -0.20042647294E+02 -0.48841289116E+02 -0.40177354788E+03  0.40522729796E+03  0.00000000000E+00 0.  1.
        -15    1    1    2    0    0  0.93941388176E+01 -0.14093510727E+02 -0.77925283314E+02  0.79764556021E+02  0.17770000000E+01 0.  1.
         15    1    1    2    0    0  0.25242221775E+01 -0.26965271608E+00 -0.15459064513E+02  0.15766572703E+02  0.17770000000E+01 0.  1.
</event>
<event>
 6    1  0.1823098E-004  0.5009635E+03  0.7546771E-02  0.9397656E-01
        -11   -1    0    0    0    0  0.00000000000E+00  0.00000000000E+00  0.50000000000E+03  0.50000000000E+03  0.00000000000E+00 0.  1.
         11   -1    0    0    0    0 -0.00000000000E+00 -0.00000000000E+00 -0.50000000000E+03  0.50000000000E+03  0.00000000000E+00 0. -1.
        -11    1    1    2    0    0  0.11318978398E+02 -0.30243689296E+01  0.49889898026E+03  0.49903653031E+03  0.00000000000E+00 0.  1.
         11    1    1    2    0    0 -0.10518741352E+02  0.13442725794E+02 -0.75193358986E+02  0.77106368297E+02  0.00000000000E+00 0. -1.
        -15    1    1    2    0    0 -0.45605660281E+00 -0.72561611481E+01 -0.24482607885E+03  0.24494045496E+03  0.17770000000E+01 0. -1.
         15    1    1    2    0    0 -0.34418044262E+00 -0.31621957160E+01 -0.17887954243E+03  0.17891664643E+03  0.17770000000E+01 0.  1.
</event>
<event>
 6    1  0.1823098E-004  0.4727208E+03  0.7546771E-02  0.9463007E-01
        -11   -1    0    0    0    0  0.00000000000E+00  0.00000000000E+00  0.50000000000E+03  0.50000000000E+03  0.00000000000E+00 0.  1.
         11   -1    0    0    0    0 -0.00000000000E+00 -0.00000000000E+00 -0.50000000000E+03  0.50000000000E+03  0.00000000000E+00 0. -1.
        -11    1    1    2    0    0 -0.14691049043E+02 -0.34561778489E+01  0.47740864199E+03  0.47764713287E+03  0.00000000000E+00 0.  1.
         11    1    1    2    0    0 -0.25546440876E+02  0.17447281052E+02 -0.46778097930E+03  0.46880280807E+03  0.00000000000E+00 0. -1.
        -15    1    1    2    0    0  0.27051619929E+02 -0.21102929781E+02 -0.15065637038E+02  0.37513396734E+02  0.17770000000E+01 0. -1.
         15    1    1    2    0    0  0.13185869989E+02  0.71118265789E+01  0.54379743504E+01  0.16036662330E+02  0.17770000000E+01 0.  1.
</event>
<event>
 6    1  0.1823098E-004  0.5015158E+03  0.7546771E-02  0.9396424E-01
        -11   -1    0    0    0    0  0.00000000000E+00  0.00000000000E+00  0.50000000000E+03  0.50000000000E+03  0.00000000000E+00 0.  1.
         11   -1    0    0    0    0 -0.00000000000E+00 -0.00000000000E+00 -0.50000000000E+03  0.50000000000E+03  0.00000000000E+00 0.  1.
        -11    1    1    2    0    0  0.23004262887E+01  0.77187787454E+01  0.49841911832E+03  0.49848419134E+03  0.00000000000E+00 0.  1.
         11    1    1    2    0    0  0.66911487716E+01 -0.37730883586E+01 -0.47059191189E+03  0.47065460287E+03  0.00000000000E+00 0.  1.
        -15    1    1    2    0    0 -0.60119872587E+01 -0.51979200642E+01 -0.11307940233E+02  0.13935193041E+02  0.17770000000E+01 0.  1.
         15    1    1    2    0    0 -0.29795878016E+01  0.12522296774E+01 -0.16519266203E+02  0.16926012747E+02  0.17770000000E+01 0. -1.
</event>
<event>
 6    1  0.1823098E-004  0.5051347E+03  0.7546771E-02  0.9388393E-01
        -11   -1    0    0    0    0  0.00000000000E+00  0.00000000000E+00  0.50000000000E+03  0.50000000000E+03  0.00000000000E+00 0.  1.
         11   -1    0    0    0    0 -0.00000000000E+00 -0.00000000000E+00 -0.50000000000E+03  0.50000000000E+03  0.00000000000E+00 0. -1.
        -11    1    1    2    0    0 -0.17154999284E+01  0.12924704083E+02  0.49469355651E+03  0.49486534105E+03  0.00000000000E+00 0.  1.
         11    1    1    2    0    0  0.28903213595E+00 -0.17207311218E+02 -0.48575012850E+03  0.48605489653E+03  0.00000000000E+00 0. -1.
        -15    1    1    2    0    0 -0.42104020629E+01 -0.35481935109E+01 -0.69942275460E+01  0.90771201759E+01  0.17770000000E+01 0. -1.
         15    1    1    2    0    0  0.56368698553E+01  0.78308006460E+01 -0.19492004666E+01  0.10002642250E+02  0.17770000000E+01 0.  1.
</event>
<event>
 6    1  0.1823098E-004  0.5009593E+03  0.7546771E-02  0.9397666E-01
        -11   -1    0    0    0    0  0.00000000000E+00  0.00000000000E+00  0.50000000000E+03  0.50000000000E+03  0.00000000000E+00 0.  1.
         11   -1    0    0    0    0 -0.00000000000E+00 -0.00000000000E+00 -0.50000000000E+03  0.50000000000E+03  0.00000000000E+00 0. -1.
        -11    1    1    2    0    0  0.11504530982E+02  0.86471972239E+01  0.49883308449E+03  0.49904065409E+03  0.00000000000E+00 0.  1.
         11    1    1    2    0    0 -0.21411367149E+01  0.63454093367E+01 -0.41404927639E+03  0.41410343148E+03  0.00000000000E+00 0. -1.
        -15    1    1    2    0    0 -0.74932218088E+01 -0.83989415882E+01 -0.60374457526E+02  0.61440405625E+02  0.17770000000E+01 0. -1.
         15    1    1    2    0    0 -0.18701724580E+01 -0.65936649723E+01 -0.24409350577E+02  0.25415508797E+02  0.17770000000E+01 0.  1.
</event>
<event>
 6    1  0.1823098E-004  0.4896841E+03  0.7546771E-02  0.9423193E-01
        -11   -1    0    0    0    0  0.00000000000E+00  0.00000000000E+00  0.50000000000E+03  0.50000000000E+03  0.00000000000E+00 0.  1.
         11   -1    0    0    0    0 -0.00000000000E+00 -0.00000000000E+00 -0.50000000000E+03  0.50000000000E+03  0.00000000000E+00 0. -1.
        -11    1    1    2    0    0  0.55000024138E+01 -0.44514176388E+01  0.48933762128E+03  0.48938877465E+03  0.00000000000E+00 0.  1.
         11    1    1    2    0    0  0.75884950778E+01  0.48006153286E+01 -0.48998483939E+03  0.49006711173E+03  0.00000000000E+00 0. -1.
        -15    1    1    2    0    0 -0.34247416785E+01 -0.14969760455E+01  0.74610384247E+01  0.85319761028E+01  0.17770000000E+01 0.  1.
         15    1    1    2    0    0 -0.96637558132E+01  0.11477783557E+01 -0.68138203177E+01  0.12012137524E+02  0.17770000000E+01 0. -1.
</event>
<event>
 6    1  0.1823098E-004  0.4866618E+03  0.7546771E-02  0.9430160E-01
        -11   -1    0    0    0    0  0.00000000000E+00  0.00000000000E+00  0.50000000000E+03  0.50000000000E+03  0.00000000000E+00 0.  1.
         11   -1    0    0    0    0 -0.00000000000E+00 -0.00000000000E+00 -0.50000000000E+03  0.50000000000E+03  0.00000000000E+00 0. -1.
        -11    1    1    2    0    0 -0.38760388519E+01 -0.13141419055E+02  0.48971232702E+03  0.48990395366E+03  0.00000000000E+00 0.  1.
         11    1    1    2    0    0 -0.83904174721E+01 -0.67835929772E+01 -0.48359965683E+03  0.48372000613E+03  0.00000000000E+00 0. -1.
        -15    1    1    2    0    0  0.18557954481E+01  0.11006151375E+02 -0.10229803262E+00  0.11302545674E+02  0.17770000000E+01 0. -1.
         15    1    1    2    0    0  0.10410660876E+02  0.89188606573E+01 -0.60103721562E+01  0.15073494544E+02  0.17770000000E+01 0.  1.
</event>
<event>
 6    1  0.1823098E-004  0.5005340E+03  0.7546771E-02  0.9398616E-01
        -11   -1    0    0    0    0  0.00000000000E+00  0.00000000000E+00  0.50000000000E+03  0.50000000000E+03  0.00000000000E+00 0.  1.
         11   -1    0    0    0    0 -0.00000000000E+00 -0.00000000000E+00 -0.50000000000E+03  0.50000000000E+03  0.00000000000E+00 0. -1.
        -11    1    1    2    0    0  0.26126847778E+02  0.96583758249E+01  0.49868862557E+03  0.49946595647E+03  0.00000000000E+00 0.  1.
         11    1    1    2    0    0 -0.24782838873E+02 -0.16968137010E+02 -0.27293156423E+03  0.27457921540E+03  0.00000000000E+00 0. -1.
        -15    1    1    2    0    0 -0.30047737697E+01  0.49948523268E+01 -0.14531449869E+03  0.14544221696E+03  0.17770000000E+01 0.  1.
         15    1    1    2    0    0  0.16607648642E+01  0.23149088580E+01 -0.80442562653E+02  0.80512611174E+02  0.17770000000E+01 0.  1.
</event>
<event>
 6    1  0.1823098E-004  0.5135607E+03  0.7546771E-02  0.9369968E-01
        -11   -1    0    0    0    0  0.00000000000E+00  0.00000000000E+00  0.50000000000E+03  0.50000000000E+03  0.00000000000E+00 0. -1.
         11   -1    0    0    0    0 -0.00000000000E+00 -0.00000000000E+00 -0.50000000000E+03  0.50000000000E+03  0.00000000000E+00 0. -1.
        -11    1    1    2    0    0  0.44173054073E+01  0.85848514085E+01  0.48634344062E+03  0.48643926085E+03  0.00000000000E+00 0. -1.
         11    1    1    2    0    0  0.38335318039E+02 -0.51972581110E+01 -0.45431524200E+03  0.45595937014E+03  0.00000000000E+00 0. -1.
        -15    1    1    2    0    0 -0.29811169464E+02 -0.32069694306E+01 -0.32849932677E+02  0.44511417453E+02  0.17770000000E+01 0.  1.
         15    1    1    2    0    0 -0.12941453982E+02 -0.18062386697E+00  0.82173406080E+00  0.13089951566E+02  0.17770000000E+01 0. -1.
</event>
<event>
 6    1  0.1823098E-004  0.5001354E+03  0.7546771E-02  0.9399507E-01
        -11   -1    0    0    0    0  0.00000000000E+00  0.00000000000E+00  0.50000000000E+03  0.50000000000E+03  0.00000000000E+00 0. -1.
         11   -1    0    0    0    0 -0.00000000000E+00 -0.00000000000E+00 -0.50000000000E+03  0.50000000000E+03  0.00000000000E+00 0.  1.
        -11    1    1    2    0    0  0.51408860407E+02  0.19275337298E+02  0.49684023605E+03  0.49986461138E+03  0.00000000000E+00 0. -1.
         11    1    1    2    0    0 -0.45370326136E+02 -0.16431968214E+02 -0.41377591385E+03  0.41658010388E+03  0.00000000000E+00 0.  1.
        -15    1    1    2    0    0 -0.47634968966E+01 -0.21870052629E+01 -0.74039047568E+02  0.74245620668E+02  0.17770000000E+01 0.  1.
         15    1    1    2    0    0 -0.12750373751E+01 -0.65636382063E+00 -0.90252746346E+01  0.93096640649E+01  0.17770000000E+01 0.  1.
</event>
<event>
 6    1  0.1823098E-004  0.5001432E+03  0.7546771E-02  0.9399489E-01
        -11   -1    0    0    0    0  0.00000000000E+00  0.00000000000E+00  0.50000000000E+03  0.50000000000E+03  0.00000000000E+00 0. -1.
         11   -1    0    0    0    0 -0.00000000000E+00 -0.00000000000E+00 -0.50000000000E+03  0.50000000000E+03  0.00000000000E+00 0.  1.
        -11    1    1    2    0    0 -0.16820193923E+02  0.63034651069E+01  0.49953397621E+03  0.49985682549E+03  0.00000000000E+00 0. -1.
         11    1    1    2    0    0  0.10920341387E+02 -0.84021482732E+01 -0.23889578263E+03  0.23929280163E+03  0.00000000000E+00 0.  1.
        -15    1    1    2    0    0  0.40263679756E+01  0.31127422199E+01 -0.75831148349E+02  0.76022507142E+02  0.17770000000E+01 0.  1.
         15    1    1    2    0    0  0.18734845608E+01 -0.10140590536E+01 -0.18480704523E+03  0.18482786574E+03  0.17770000000E+01 0. -1.
</event>
<event>
 6    1  0.1823098E-004  0.5083334E+03  0.7546771E-02  0.9381354E-01
        -11   -1    0    0    0    0  0.00000000000E+00  0.00000000000E+00  0.50000000000E+03  0.50000000000E+03  0.00000000000E+00 0. -1.
         11   -1    0    0    0    0 -0.00000000000E+00 -0.00000000000E+00 -0.50000000000E+03  0.50000000000E+03  0.00000000000E+00 0.  1.
        -11    1    1    2    0    0 -0.12854460589E+02  0.79395878962E+02  0.48504339919E+03  0.49166659623E+03  0.00000000000E+00 0. -1.
         11    1    1    2    0    0  0.62488970947E+02 -0.63116556998E+02 -0.23751364505E+03  0.25357701560E+03  0.00000000000E+00 0.  1.
        -15    1    1    2    0    0 -0.45582327378E+02 -0.34764352154E+01 -0.16980008876E+03  0.17585523036E+03  0.17770000000E+01 0.  1.
         15    1    1    2    0    0 -0.40521829798E+01 -0.12802886749E+02 -0.77729665373E+02  0.78901157811E+02  0.17770000000E+01 0. -1.
</event>
<event>
 6    1  0.1823098E-004  0.5027873E+03  0.7546771E-02  0.9393594E-01
        -11   -1    0    0    0    0  0.00000000000E+00  0.00000000000E+00  0.50000000000E+03  0.50000000000E+03  0.00000000000E+00 0.  1.
         11   -1    0    0    0    0 -0.00000000000E+00 -0.00000000000E+00 -0.50000000000E+03  0.50000000000E+03  0.00000000000E+00 0. -1.
        -11    1    1    2    0    0 -0.65412447293E+02  0.33677264504E+01  0.49287959804E+03  0.49721265873E+03  0.00000000000E+00 0.  1.
         11    1    1    2    0    0  0.66764197904E+02 -0.19947710617E+02 -0.25962703592E+03  0.26881511688E+03  0.00000000000E+00 0. -1.
        -15    1    1    2    0    0  0.11525468519E+01  0.91139450488E+01 -0.16064201650E+03  0.16091428635E+03  0.17770000000E+01 0. -1.
         15    1    1    2    0    0 -0.25042974622E+01  0.74660391181E+01 -0.72610545621E+02  0.73057938037E+02  0.17770000000E+01 0.  1.
</event>
<event>
 6    1  0.1823098E-004  0.5000965E+03  0.7546771E-02  0.9399594E-01
        -11   -1    0    0    0    0  0.00000000000E+00  0.00000000000E+00  0.50000000000E+03  0.50000000000E+03  0.00000000000E+00 0. -1.
         11   -1    0    0    0    0 -0.00000000000E+00 -0.00000000000E+00 -0.50000000000E+03  0.50000000000E+03  0.00000000000E+00 0.  1.
        -11    1    1    2    0    0 -0.57209623129E+01  0.69094374521E+01  0.49982300565E+03  0.49990349740E+03  0.00000000000E+00 0. -1.
         11    1    1    2    0    0  0.53843239916E+01 -0.62895092946E+01 -0.17071656173E+03  0.17091721189E+03  0.00000000000E+00 0.  1.
        -15    1    1    2    0    0  0.25775171914E+01 -0.12040968494E+01 -0.24348695670E+03  0.24351005987E+03  0.17770000000E+01 0. -1.
         15    1    1    2    0    0 -0.22408788701E+01  0.58416869192E+00 -0.85619487226E+02  0.85669230842E+02  0.17770000000E+01 0.  1.
</event>
<event>
 6    1  0.1823098E-004  0.4862638E+03  0.7546771E-02  0.9431081E-01
        -11   -1    0    0    0    0  0.00000000000E+00  0.00000000000E+00  0.50000000000E+03  0.50000000000E+03  0.00000000000E+00 0.  1.
         11   -1    0    0    0    0 -0.00000000000E+00 -0.00000000000E+00 -0.50000000000E+03  0.50000000000E+03  0.00000000000E+00 0. -1.
        -11    1    1    2    0    0 -0.15095473698E+02  0.15974594336E+01  0.48244289373E+03  0.48268164552E+03  0.00000000000E+00 0.  1.
         11    1    1    2    0    0 -0.84068730925E+01 -0.86131953643E+01 -0.49003711679E+03  0.49018490234E+03  0.00000000000E+00 0. -1.
        -15    1    1    2    0    0  0.61793094622E+01 -0.15490056475E+01  0.24933386944E+01  0.70680797088E+01  0.17770000000E+01 0. -1.
         15    1    1    2    0    0  0.17323037328E+02  0.85647415781E+01  0.51008843645E+01  0.20065372433E+02  0.17770000000E+01 0.  1.
</event>
<event>
 6    1  0.1823098E-004  0.5007148E+03  0.7546771E-02  0.9398212E-01
        -11   -1    0    0    0    0  0.00000000000E+00  0.00000000000E+00  0.50000000000E+03  0.50000000000E+03  0.00000000000E+00 0.  1.
         11   -1    0    0    0    0 -0.00000000000E+00 -0.00000000000E+00 -0.50000000000E+03  0.50000000000E+03  0.00000000000E+00 0. -1.
        -11    1    1    2    0    0 -0.46633927030E+01 -0.64173864079E+01  0.49922218477E+03  0.49928520892E+03  0.00000000000E+00 0.  1.
         11    1    1    2    0    0  0.63460985030E+01 -0.19100086309E+01 -0.43916189881E+03  0.43921190156E+03  0.00000000000E+00 0. -1.
        -15    1    1    2    0    0 -0.17088556666E+01  0.10302839276E+01 -0.32917317996E+01  0.42396815801E+01  0.17770000000E+01 0. -1.
         15    1    1    2    0    0  0.26149866562E-01  0.72971111112E+01 -0.56768554155E+02  0.57263207946E+02  0.17770000000E+01 0. -1.
</event>
<event>
 6    1  0.1823098E-004  0.5004153E+03  0.7546771E-02  0.9398881E-01
        -11   -1    0    0    0    0  0.00000000000E+00  0.00000000000E+00  0.50000000000E+03  0.50000000000E+03  0.00000000000E+00 0. -1.
         11   -1    0    0    0    0 -0.00000000000E+00 -0.00000000000E+00 -0.50000000000E+03  0.50000000000E+03  0.00000000000E+00 0. -1.
        -11    1    1    2    0    0  0.88650078412E+01  0.23079573306E+00  0.49950596973E+03  0.49958468293E+03  0.00000000000E+00 0. -1.
         11    1    1    2    0    0  0.40724015868E+01 -0.53093493426E+01 -0.36665380516E+03  0.36671485719E+03  0.00000000000E+00 0. -1.
        -15    1    1    2    0    0 -0.48893282476E+01  0.11460148355E+01 -0.32502829514E+02  0.32936462107E+02  0.17770000000E+01 0.  1.
         15    1    1    2    0    0 -0.80480811805E+01  0.39325387740E+01 -0.10034933505E+03  0.10076399777E+03  0.17770000000E+01 0. -1.
</event>
<event>
 6    1  0.1823098E-004  0.5001520E+03  0.7546771E-02  0.9399470E-01
        -11   -1    0    0    0    0  0.00000000000E+00  0.00000000000E+00  0.50000000000E+03  0.50000000000E+03  0.00000000000E+00 0. -1.
         11   -1    0    0    0    0 -0.00000000000E+00 -0.00000000000E+00 -0.50000000000E+03  0.50000000000E+03  0.00000000000E+00 0. -1.
        -11    1    1    2    0    0 -0.26336022364E+01 -0.22813191779E+01  0.15859589277E+03  0.15863416240E+03  0.00000000000E+00 0. -1.
         11    1    1    2    0    0 -0.56699403629E+01 -0.11125159255E+02 -0.49969197523E+03  0.49984796438E+03  0.00000000000E+00 0. -1.
        -15    1    1    2    0    0  0.18536923940E+01  0.71743468655E+01  0.18177913742E+03  0.18193878080E+03  0.17770000000E+01 0.  1.
         15    1    1    2    0    0  0.64498502054E+01  0.62321315672E+01  0.15931694504E+03  0.15957909242E+03  0.17770000000E+01 0. -1.
</event>
<event>
 6    1  0.1823098E-004  0.5034285E+03  0.7546771E-02  0.9392171E-01
        -11   -1    0    0    0    0  0.00000000000E+00  0.00000000000E+00  0.50000000000E+03  0.50000000000E+03  0.00000000000E+00 0. -1.
         11   -1    0    0    0    0 -0.00000000000E+00 -0.00000000000E+00 -0.50000000000E+03  0.50000000000E+03  0.00000000000E+00 0.  1.
        -11    1    1    2    0    0  0.72422244058E+01 -0.16973965378E+00  0.47238742527E+03  0.47244296817E+03  0.00000000000E+00 0. -1.
         11    1    1    2    0    0 -0.77419420024E+01 -0.11386627321E+02 -0.49638059986E+03  0.49657153852E+03  0.00000000000E+00 0.  1.
        -15    1    1    2    0    0 -0.58111720529E+01  0.24150220188E+01  0.30568639837E+01  0.72183237939E+01  0.17770000000E+01 0. -1.
         15    1    1    2    0    0  0.63108896494E+01  0.91413449563E+01  0.20936310610E+02  0.23767169514E+02  0.17770000000E+01 0. -1.
</event>
<event>
 6    1  0.1823098E-004  0.5002447E+03  0.7546771E-02  0.9399262E-01
        -11   -1    0    0    0    0  0.00000000000E+00  0.00000000000E+00  0.50000000000E+03  0.50000000000E+03  0.00000000000E+00 0.  1.
         11   -1    0    0    0    0 -0.00000000000E+00 -0.00000000000E+00 -0.50000000000E+03  0.50000000000E+03  0.00000000000E+00 0. -1.
        -11    1    1    2    0    0  0.72727745748E+01  0.14997328756E+02  0.49947726596E+03  0.49975529245E+03  0.00000000000E+00 0.  1.
         11    1    1    2    0    0 -0.97496240624E+01 -0.98868997457E+01 -0.19743274738E+03  0.19792042768E+03  0.00000000000E+00 0. -1.
        -15    1    1    2    0    0  0.11490800685E+01  0.18574410612E+01 -0.21391755100E+02  0.21576269084E+02  0.17770000000E+01 0. -1.
         15    1    1    2    0    0  0.13277694191E+01 -0.69678700718E+01 -0.28065276348E+03  0.28074801079E+03  0.17770000000E+01 0.  1.
</event>
<event>
 6    1  0.1823098E-004  0.5037411E+03  0.7546771E-02  0.9391477E-01
        -11   -1    0    0    0    0  0.00000000000E+00  0.00000000000E+00  0.50000000000E+03  0.50000000000E+03  0.00000000000E+00 0.  1.
         11   -1    0    0    0    0 -0.00000000000E+00 -0.00000000000E+00 -0.50000000000E+03  0.50000000000E+03  0.00000000000E+00 0. -1.
        -11    1    1    2    0    0  0.62519487263E+00  0.16521487085E+02  0.49598337365E+03  0.49625886122E+03  0.00000000000E+00 0.  1.
         11    1    1    2    0    0 -0.67469083557E+01  0.26021533712E+01 -0.46859179461E+03  0.46864758823E+03  0.00000000000E+00 0. -1.
        -15    1    1    2    0    0  0.13495767575E+01 -0.14148431988E+02 -0.21592896422E+02  0.25911587949E+02  0.17770000000E+01 0. -1.
         15    1    1    2    0    0  0.47721367255E+01 -0.49752084681E+01 -0.57986826083E+01  0.91819626018E+01  0.17770000000E+01 0.  1.
</event>
<event>
 6    1  0.1823098E-004  0.5004096E+03  0.7546771E-02  0.9398894E-01
        -11   -1    0    0    0    0  0.00000000000E+00  0.00000000000E+00  0.50000000000E+03  0.50000000000E+03  0.00000000000E+00 0. -1.
         11   -1    0    0    0    0 -0.00000000000E+00 -0.00000000000E+00 -0.50000000000E+03  0.50000000000E+03  0.00000000000E+00 0. -1.
        -11    1    1    2    0    0 -0.22861342675E+01  0.39924912413E+01  0.28598450774E+03  0.28602151154E+03  0.00000000000E+00 0. -1.
         11    1    1    2    0    0  0.77860305122E+01 -0.28513248663E+01 -0.49952154010E+03  0.49959035354E+03  0.00000000000E+00 0. -1.
        -15    1    1    2    0    0  0.17402954802E+00 -0.86123002407E+01  0.73171863216E+02  0.73698584093E+02  0.17770000000E+01 0. -1.
         15    1    1    2    0    0 -0.56739257927E+01  0.74711338657E+01  0.14036516915E+03  0.14068955083E+03  0.17770000000E+01 0.  1.
</event>
<event>
 6    1  0.1823098E-004  0.5001470E+03  0.7546771E-02  0.9399481E-01
        -11   -1    0    0    0    0  0.00000000000E+00  0.00000000000E+00  0.50000000000E+03  0.50000000000E+03  0.00000000000E+00 0.  1.
         11   -1    0    0    0    0 -0.00000000000E+00 -0.00000000000E+00 -0.50000000000E+03  0.50000000000E+03  0.00000000000E+00 0.  1.
        -11    1    1    2    0    0 -0.11504917642E+02 -0.61622750580E+01  0.49968259963E+03  0.49985301553E+03  0.00000000000E+00 0.  1.
         11    1    1    2    0    0  0.59410568696E+01  0.89231930621E+01 -0.17004103462E+03  0.17037861658E+03  0.00000000000E+00 0.  1.
        -15    1    1    2    0    0  0.66255797334E+00 -0.17716124157E+01 -0.43342615910E+02  0.43420245008E+02  0.17770000000E+01 0.  1.
         15    1    1    2    0    0  0.49013027987E+01 -0.98930558838E+00 -0.28629894910E+03  0.28634812288E+03  0.17770000000E+01 0.  1.
</event>
<event>
 6    1  0.1823098E-004  0.5210978E+03  0.7546771E-02  0.9353801E-01
        -11   -1    0    0    0    0  0.00000000000E+00  0.00000000000E+00  0.50000000000E+03  0.50000000000E+03  0.00000000000E+00 0.  1.
         11   -1    0    0    0    0 -0.00000000000E+00 -0.00000000000E+00 -0.50000000000E+03  0.50000000000E+03  0.00000000000E+00 0. -1.
        -11    1    1    2    0    0  0.27346526088E+02  0.28528049053E+02  0.43215590203E+03  0.43395899084E+03  0.00000000000E+00 0.  1.
         11    1    1    2    0    0  0.27313212938E+02 -0.48739775288E+02 -0.47563196869E+03  0.47890223108E+03  0.00000000000E+00 0. -1.
        -15    1    1    2    0    0  0.74147854283E+00  0.18216213019E+02  0.19374852398E+02  0.26663136380E+02  0.17770000000E+01 0.  1.
         15    1    1    2    0    0 -0.55401217569E+02  0.19955132157E+01  0.24101214261E+02  0.60475641699E+02  0.17770000000E+01 0. -1.
</event>
<event>
 6    1  0.1823098E-004  0.5002552E+03  0.7546771E-02  0.9399239E-01
        -11   -1    0    0    0    0  0.00000000000E+00  0.00000000000E+00  0.50000000000E+03  0.50000000000E+03  0.00000000000E+00 0.  1.
         11   -1    0    0    0    0 -0.00000000000E+00 -0.00000000000E+00 -0.50000000000E+03  0.50000000000E+03  0.00000000000E+00 0.  1.
        -11    1    1    2    0    0 -0.51242224298E+01  0.32190368430E+01  0.40436382264E+03  0.40440910093E+03  0.00000000000E+00 0.  1.
         11    1    1    2    0    0  0.96928095482E+01 -0.11027358128E+01 -0.49964954363E+03  0.49974476789E+03  0.00000000000E+00 0.  1.
        -15    1    1    2    0    0 -0.38802235332E+01  0.12873525095E+01  0.77932292081E+02  0.78059677742E+02  0.17770000000E+01 0.  1.
         15    1    1    2    0    0 -0.68836358516E+00 -0.34036535397E+01  0.17353428910E+02  0.17786453435E+02  0.17770000000E+01 0.  1.
</event>
<event>
 6    1  0.1823098E-004  0.5005686E+03  0.7546771E-02  0.9398538E-01
        -11   -1    0    0    0    0  0.00000000000E+00  0.00000000000E+00  0.50000000000E+03  0.50000000000E+03  0.00000000000E+00 0.  1.
         11   -1    0    0    0    0 -0.00000000000E+00 -0.00000000000E+00 -0.50000000000E+03  0.50000000000E+03  0.00000000000E+00 0. -1.
        -11    1    1    2    0    0 -0.82748850291E+01  0.51556602211E+00  0.40082532961E+03  0.40091106793E+03  0.00000000000E+00 0.  1.
         11    1    1    2    0    0  0.28151894289E+01 -0.11041628031E+02 -0.49930143967E+03  0.49943144724E+03  0.00000000000E+00 0. -1.
        -15    1    1    2    0    0  0.35881426797E+01  0.10200936227E+02  0.53747744687E+02  0.54853547340E+02  0.17770000000E+01 0. -1.
         15    1    1    2    0    0  0.18715529205E+01  0.32512578195E+00  0.44728365370E+02  0.44803937492E+02  0.17770000000E+01 0. -1.
</event>
<event>
 6    1  0.1823098E-004  0.5013995E+03  0.7546771E-02  0.9396684E-01
        -11   -1    0    0    0    0  0.00000000000E+00  0.00000000000E+00  0.50000000000E+03  0.50000000000E+03  0.00000000000E+00 0.  1.
         11   -1    0    0    0    0 -0.00000000000E+00 -0.00000000000E+00 -0.50000000000E+03  0.50000000000E+03  0.00000000000E+00 0.  1.
        -11    1    1    2    0    0 -0.55963236483E+01 -0.39484085575E+01  0.36255947233E+03  0.36262415769E+03  0.00000000000E+00 0.  1.
         11    1    1    2    0    0 -0.17148089340E+02  0.59681509469E+01 -0.49826979947E+03  0.49860051028E+03  0.00000000000E+00 0.  1.
        -15    1    1    2    0    0  0.16550824094E+02 -0.60826381967E+01  0.56860123794E+02  0.59558036171E+02  0.17770000000E+01 0. -1.
         15    1    1    2    0    0  0.61935888943E+01  0.40628958073E+01  0.78850203346E+02  0.79217295854E+02  0.17770000000E+01 0.  1.
</event>
<event>
 6    1  0.1823098E-004  0.4785460E+03  0.7546771E-02  0.9449137E-01
        -11   -1    0    0    0    0  0.00000000000E+00  0.00000000000E+00  0.50000000000E+03  0.50000000000E+03  0.00000000000E+00 0.  1.
         11   -1    0    0    0    0 -0.00000000000E+00 -0.00000000000E+00 -0.50000000000E+03  0.50000000000E+03  0.00000000000E+00 0. -1.
        -11    1    1    2    0    0 -0.58952114138E+01  0.14697237290E+02  0.48676574256E+03  0.48702325451E+03  0.00000000000E+00 0.  1.
         11    1    1    2    0    0  0.69879498723E+00  0.20337342794E+02 -0.47042341778E+03  0.47086334304E+03  0.00000000000E+00 0. -1.
        -15    1    1    2    0    0  0.85490617847E+00 -0.72108123716E+01  0.28369220836E+01  0.79957823595E+01  0.17770000000E+01 0.  1.
         15    1    1    2    0    0  0.43415102481E+01 -0.27823767713E+02 -0.19179246867E+02  0.34117620086E+02  0.17770000000E+01 0. -1.
</event>
<event>
 6    1  0.1823098E-004  0.5052812E+03  0.7546771E-02  0.9388069E-01
        -11   -1    0    0    0    0  0.00000000000E+00  0.00000000000E+00  0.50000000000E+03  0.50000000000E+03  0.00000000000E+00 0.  1.
         11   -1    0    0    0    0 -0.00000000000E+00 -0.00000000000E+00 -0.50000000000E+03  0.50000000000E+03  0.00000000000E+00 0. -1.
        -11    1    1    2    0    0  0.72247995824E+01 -0.56236526311E+01  0.45755896268E+03  0.45765055176E+03  0.00000000000E+00 0.  1.
         11    1    1    2    0    0 -0.16476020979E+01  0.23837821879E+02 -0.49414137427E+03  0.49471876264E+03  0.00000000000E+00 0. -1.
        -15    1    1    2    0    0 -0.16515194547E+01  0.60135224328E+00  0.24989728935E+02  0.25114406668E+02  0.17770000000E+01 0. -1.
         15    1    1    2    0    0 -0.39256780299E+01 -0.18815521491E+02  0.11592682650E+02  0.22516278933E+02  0.17770000000E+01 0.  1.
</event>
<event>
 6    1  0.1823098E-004  0.5000723E+03  0.7546771E-02  0.9399648E-01
        -11   -1    0    0    0    0  0.00000000000E+00  0.00000000000E+00  0.50000000000E+03  0.50000000000E+03  0.00000000000E+00 0. -1.
         11   -1    0    0    0    0 -0.00000000000E+00 -0.00000000000E+00 -0.50000000000E+03  0.50000000000E+03  0.00000000000E+00 0.  1.
        -11    1    1    2    0    0 -0.69166885995E+01 -0.50097519985E+01  0.49985476407E+03  0.49992771813E+03  0.00000000000E+00 0. -1.
         11    1    1    2    0    0  0.57032586804E+01  0.56654971932E+01 -0.21780164123E+03  0.21794994824E+03  0.00000000000E+00 0.  1.
        -15    1    1    2    0    0 -0.32560749899E+00 -0.23033316731E+01 -0.89609466099E+02  0.89657266859E+02  0.17770000000E+01 0. -1.
         15    1    1    2    0    0  0.15390374181E+01  0.16475864784E+01 -0.19244365674E+03  0.19246506677E+03  0.17770000000E+01 0.  1.
</event>
<event>
 6    1  0.1823098E-004  0.5041834E+03  0.7546771E-02  0.9390497E-01
        -11   -1    0    0    0    0  0.00000000000E+00  0.00000000000E+00  0.50000000000E+03  0.50000000000E+03  0.00000000000E+00 0. -1.
         11   -1    0    0    0    0 -0.00000000000E+00 -0.00000000000E+00 -0.50000000000E+03  0.50000000000E+03  0.00000000000E+00 0.  1.
        -11    1    1    2    0    0  0.61354293233E+01  0.33673869708E+01  0.49576717171E+03  0.49581657025E+03  0.00000000000E+00 0. -1.
         11    1    1    2    0    0  0.56130331723E+01  0.80286248211E+01 -0.47988713835E+03  0.47998711494E+03  0.00000000000E+00 0.  1.
        -15    1    1    2    0    0  0.13076948062E+00 -0.33485557612E+01 -0.30738857044E+01  0.48822565138E+01  0.17770000000E+01 0.  1.
         15    1    1    2    0    0 -0.11879231976E+02 -0.80474560307E+01 -0.12806147660E+02  0.19314058294E+02  0.17770000000E+01 0. -1.
</event>
<event>
 6    1  0.1823098E-004  0.5249222E+03  0.7546771E-02  0.9345709E-01
        -11   -1    0    0    0    0  0.00000000000E+00  0.00000000000E+00  0.50000000000E+03  0.50000000000E+03  0.00000000000E+00 0.  1.
         11   -1    0    0    0    0 -0.00000000000E+00 -0.00000000000E+00 -0.50000000000E+03  0.50000000000E+03  0.00000000000E+00 0.  1.
        -11    1    1    2    0    0  0.92598079597E+01  0.39594067016E+01  0.47497103739E+03  0.47507779079E+03  0.00000000000E+00 0.  1.
         11    1    1    2    0    0 -0.17878031358E+02  0.15324324889E+02 -0.44619737558E+03  0.44681825938E+03  0.00000000000E+00 0.  1.
        -15    1    1    2    0    0 -0.29639710196E+02 -0.12621569297E+02 -0.20895155706E+02  0.38439324825E+02  0.17770000000E+01 0.  1.
         15    1    1    2    0    0  0.38257933594E+02 -0.66621622935E+01 -0.78785061014E+01  0.39664625004E+02  0.17770000000E+01 0. -1.
</event>
<event>
 6    1  0.1823098E-004  0.5001929E+03  0.7546771E-02  0.9399378E-01
        -11   -1    0    0    0    0  0.00000000000E+00  0.00000000000E+00  0.50000000000E+03  0.50000000000E+03  0.00000000000E+00 0.  1.
         11   -1    0    0    0    0 -0.00000000000E+00 -0.00000000000E+00 -0.50000000000E+03  0.50000000000E+03  0.00000000000E+00 0. -1.
        -11    1    1    2    0    0 -0.43602733247E-01  0.97890371255E+01  0.49971126285E+03  0.49980713617E+03  0.00000000000E+00 0.  1.
         11    1    1    2    0    0 -0.72556195053E+00 -0.69987921080E+01 -0.65521473782E+02  0.65898202234E+02  0.00000000000E+00 0. -1.
        -15    1    1    2    0    0  0.34587754634E+01  0.13648517207E+01 -0.15191645994E+03  0.15197234774E+03  0.17770000000E+01 0.  1.
         15    1    1    2    0    0 -0.26896107796E+01 -0.41550967382E+01 -0.28227332913E+03  0.28232231386E+03  0.17770000000E+01 0. -1.
</event>
<event>
 6    1  0.1823098E-004  0.5028855E+03  0.7546771E-02  0.9393376E-01
        -11   -1    0    0    0    0  0.00000000000E+00  0.00000000000E+00  0.50000000000E+03  0.50000000000E+03  0.00000000000E+00 0.  1.
         11   -1    0    0    0    0 -0.00000000000E+00 -0.00000000000E+00 -0.50000000000E+03  0.50000000000E+03  0.00000000000E+00 0. -1.
        -11    1    1    2    0    0 -0.13492526370E+01  0.83775840486E+01  0.47715423076E+03  0.47722967671E+03  0.00000000000E+00 0.  1.
         11    1    1    2    0    0 -0.75269179271E+01 -0.11407461534E+02 -0.49692658533E+03  0.49711448972E+03  0.00000000000E+00 0. -1.
        -15    1    1    2    0    0  0.22694369792E+01  0.16123318339E+01  0.18196083747E+02  0.18493381272E+02  0.17770000000E+01 0.  1.
         15    1    1    2    0    0  0.66067335850E+01  0.14175456517E+01  0.15762708298E+01  0.71624523081E+01  0.17770000000E+01 0. -1.
</event>
<event>
 6    1  0.1823098E-004  0.5001381E+03  0.7546771E-02  0.9399501E-01
        -11   -1    0    0    0    0  0.00000000000E+00  0.00000000000E+00  0.50000000000E+03  0.50000000000E+03  0.00000000000E+00 0.  1.
         11   -1    0    0    0    0 -0.00000000000E+00 -0.00000000000E+00 -0.50000000000E+03  0.50000000000E+03  0.00000000000E+00 0. -1.
        -11    1    1    2    0    0 -0.10971458038E+02  0.50491170336E+01  0.49971593596E+03  0.49986186404E+03  0.00000000000E+00 0.  1.
         11    1    1    2    0    0  0.38666793943E+01 -0.12957348115E+00 -0.33999878851E+02  0.34219289307E+02  0.00000000000E+00 0. -1.
        -15    1    1    2    0    0  0.58464015651E+00  0.21840214811E+01 -0.46923444162E+02  0.47011478332E+02  0.17770000000E+01 0. -1.
         15    1    1    2    0    0  0.65201384871E+01 -0.71035650336E+01 -0.41879261295E+03  0.41890736832E+03  0.17770000000E+01 0. -1.
</event>
<event>
 6    1  0.1823098E-004  0.5005003E+03  0.7546771E-02  0.9398691E-01
        -11   -1    0    0    0    0  0.00000000000E+00  0.00000000000E+00  0.50000000000E+03  0.50000000000E+03  0.00000000000E+00 0.  1.
         11   -1    0    0    0    0 -0.00000000000E+00 -0.00000000000E+00 -0.50000000000E+03  0.50000000000E+03  0.00000000000E+00 0. -1.
        -11    1    1    2    0    0 -0.12187111157E+02 -0.42410836834E+01  0.49933302204E+03  0.49949972910E+03  0.00000000000E+00 0.  1.
         11    1    1    2    0    0 -0.89573556194E+01 -0.10617135710E+01 -0.21709789095E+03  0.21728519441E+03  0.00000000000E+00 0. -1.
        -15    1    1    2    0    0  0.46761268630E+01  0.30676150979E+01 -0.43262121059E+02  0.43658278395E+02  0.17770000000E+01 0.  1.
         15    1    1    2    0    0  0.16468339914E+02  0.22351821565E+01 -0.23897301003E+03  0.23955679809E+03  0.17770000000E+01 0. -1.
</event>
<event>
 6    1  0.1823098E-004  0.5205009E+03  0.7546771E-02  0.9355071E-01
        -11   -1    0    0    0    0  0.00000000000E+00  0.00000000000E+00  0.50000000000E+03  0.50000000000E+03  0.00000000000E+00 0. -1.
         11   -1    0    0    0    0 -0.00000000000E+00 -0.00000000000E+00 -0.50000000000E+03  0.50000000000E+03  0.00000000000E+00 0. -1.
        -11    1    1    2    0    0 -0.20884231306E+01  0.64545612964E+01  0.47945112304E+03  0.47949911601E+03  0.00000000000E+00 0. -1.
         11    1    1    2    0    0  0.43728037689E+02  0.50489533322E+02 -0.36316716551E+03  0.36925834365E+03  0.00000000000E+00 0. -1.
        -15    1    1    2    0    0 -0.25631416881E+01 -0.98041843197E+00 -0.66890889388E+02  0.66970737846E+02  0.17770000000E+01 0. -1.
         15    1    1    2    0    0 -0.39076472871E+02 -0.55963676187E+02 -0.49393068149E+02  0.84271802488E+02  0.17770000000E+01 0.  1.
</event>
<event>
 6    1  0.1823098E-004  0.4861996E+03  0.7546771E-02  0.9431230E-01
        -11   -1    0    0    0    0  0.00000000000E+00  0.00000000000E+00  0.50000000000E+03  0.50000000000E+03  0.00000000000E+00 0. -1.
         11   -1    0    0    0    0 -0.00000000000E+00 -0.00000000000E+00 -0.50000000000E+03  0.50000000000E+03  0.00000000000E+00 0.  1.
        -11    1    1    2    0    0 -0.68227462777E+01 -0.36718532856E+01  0.48384820750E+03  0.48391023989E+03  0.00000000000E+00 0. -1.
         11    1    1    2    0    0 -0.15946788148E+02  0.76652121094E+01 -0.48845423513E+03  0.48877458541E+03  0.00000000000E+00 0.  1.
        -15    1    1    2    0    0  0.31814129674E+01  0.39363606174E+01 -0.81664411954E+00  0.54259524507E+01  0.17770000000E+01 0. -1.
         15    1    1    2    0    0  0.19588121458E+02 -0.79297194412E+01  0.54226717506E+01  0.21889222248E+02  0.17770000000E+01 0.  1.
</event>
<event>
 6    1  0.1823098E-004  0.5087214E+03  0.7546771E-02  0.9380504E-01
        -11   -1    0    0    0    0  0.00000000000E+00  0.00000000000E+00  0.50000000000E+03  0.50000000000E+03  0.00000000000E+00 0. -1.
         11   -1    0    0    0    0 -0.00000000000E+00 -0.00000000000E+00 -0.50000000000E+03  0.50000000000E+03  0.00000000000E+00 0.  1.
        -11    1    1    2    0    0  0.48471665458E+01  0.67951629245E+01  0.49120770436E+03  0.49127861554E+03  0.00000000000E+00 0. -1.
         11    1    1    2    0    0  0.49965377927E+01  0.25194157875E+02 -0.40387529138E+03  0.40469119334E+03  0.00000000000E+00 0.  1.
        -15    1    1    2    0    0 -0.30625825013E+01 -0.23310976585E+02 -0.89596324384E+02  0.92646857006E+02  0.17770000000E+01 0. -1.
         15    1    1    2    0    0 -0.67811218371E+01 -0.86783442145E+01  0.22639114045E+01  0.11383334113E+02  0.17770000000E+01 0. -1.
</event>
<event>
 6    1  0.1823098E-004  0.5002179E+03  0.7546771E-02  0.9399322E-01
        -11   -1    0    0    0    0  0.00000000000E+00  0.00000000000E+00  0.50000000000E+03  0.50000000000E+03  0.00000000000E+00 0.  1.
         11   -1    0    0    0    0 -0.00000000000E+00 -0.00000000000E+00 -0.50000000000E+03  0.50000000000E+03  0.00000000000E+00 0.  1.
        -11    1    1    2    0    0  0.71281942647E+01 -0.14697283735E+01  0.49972914866E+03  0.49978214581E+03  0.00000000000E+00 0.  1.
         11    1    1    2    0    0 -0.60817776982E+01  0.88862396977E+01 -0.36256845435E+03  0.36272832446E+03  0.00000000000E+00 0.  1.
        -15    1    1    2    0    0 -0.25993904690E+01 -0.24908689062E+01 -0.53073988510E+02  0.53225625821E+02  0.17770000000E+01 0.  1.
         15    1    1    2    0    0  0.15529739024E+01 -0.49256424179E+01 -0.84086705798E+02  0.84263903910E+02  0.17770000000E+01 0. -1.
</event>
<event>
 6    1  0.1823098E-004  0.5004827E+03  0.7546771E-02  0.9398730E-01
        -11   -1    0    0    0    0  0.00000000000E+00  0.00000000000E+00  0.50000000000E+03  0.50000000000E+03  0.00000000000E+00 0. -1.
         11   -1    0    0    0    0 -0.00000000000E+00 -0.00000000000E+00 -0.50000000000E+03  0.50000000000E+03  0.00000000000E+00 0.  1.
        -11    1    1    2    0    0 -0.10534308128E+01  0.16472675231E+01  0.52754072300E+02  0.52790295992E+02  0.00000000000E+00 0. -1.
         11    1    1    2    0    0 -0.15296816858E+02 -0.35290951466E+01 -0.49927052353E+03  0.49951726975E+03  0.00000000000E+00 0.  1.
        -15    1    1    2    0    0  0.94848332421E+00 -0.10296229992E+02  0.86042187799E+02  0.86679454215E+02  0.17770000000E+01 0.  1.
         15    1    1    2    0    0  0.15401764347E+02  0.12178057615E+02  0.36047426343E+03  0.36101298004E+03  0.17770000000E+01 0. -1.
</event>
<event>
 6    1  0.1823098E-004  0.5041138E+03  0.7546771E-02  0.9390652E-01
        -11   -1    0    0    0    0  0.00000000000E+00  0.00000000000E+00  0.50000000000E+03  0.50000000000E+03  0.00000000000E+00 0.  1.
         11   -1    0    0    0    0 -0.00000000000E+00 -0.00000000000E+00 -0.50000000000E+03  0.50000000000E+03  0.00000000000E+00 0. -1.
        -11    1    1    2    0    0  0.17081146873E+01 -0.10032247614E+02  0.49578178198E+03  0.49588621577E+03  0.00000000000E+00 0.  1.
         11    1    1    2    0    0  0.51744956786E+01  0.16307477424E+02 -0.48929189799E+03  0.48959092175E+03  0.00000000000E+00 0. -1.
        -15    1    1    2    0    0 -0.44828029704E+01  0.96376711202E+00 -0.11663029106E+01  0.50539450924E+01  0.17770000000E+01 0. -1.
         15    1    1    2    0    0 -0.23998073956E+01 -0.72389969229E+01 -0.53235810759E+01  0.94689173857E+01  0.17770000000E+01 0.  1.
</event>
<event>
 6    1  0.1823098E-004  0.5008668E+03  0.7546771E-02  0.9397872E-01
        -11   -1    0    0    0    0  0.00000000000E+00  0.00000000000E+00  0.50000000000E+03  0.50000000000E+03  0.00000000000E+00 0.  1.
         11   -1    0    0    0    0 -0.00000000000E+00 -0.00000000000E+00 -0.50000000000E+03  0.50000000000E+03  0.00000000000E+00 0. -1.
        -11    1    1    2    0    0 -0.69176297123E+01  0.11427389647E+02  0.39505062618E+03  0.39527640466E+03  0.00000000000E+00 0.  1.
         11    1    1    2    0    0  0.11576629846E+02 -0.75870407656E+01 -0.49894122859E+03  0.49913317976E+03  0.00000000000E+00 0. -1.
        -15    1    1    2    0    0  0.52364615971E+01 -0.35274905908E+01  0.68041503287E+02  0.68356913466E+02  0.17770000000E+01 0. -1.
         15    1    1    2    0    0 -0.98954617308E+01 -0.31285829036E+00  0.35849099124E+02  0.37233502121E+02  0.17770000000E+01 0.  1.
</event>
<event>
 6    1  0.1823098E-004  0.5002039E+03  0.7546771E-02  0.9399354E-01
        -11   -1    0    0    0    0  0.00000000000E+00  0.00000000000E+00  0.50000000000E+03  0.50000000000E+03  0.00000000000E+00 0. -1.
         11   -1    0    0    0    0 -0.00000000000E+00 -0.00000000000E+00 -0.50000000000E+03  0.50000000000E+03  0.00000000000E+00 0. -1.
        -11    1    1    2    0    0 -0.35454895767E+01 -0.32617698440E+01  0.26193040089E+03  0.26197470212E+03  0.00000000000E+00 0. -1.
         11    1    1    2    0    0  0.26046007492E+01  0.90068628601E+01 -0.49970813671E+03  0.49979608783E+03  0.00000000000E+00 0. -1.
        -15    1    1    2    0    0 -0.34739995920E+01 -0.83519550618E+01  0.15478044955E+03  0.15505472943E+03  0.17770000000E+01 0. -1.
         15    1    1    2    0    0  0.44148884195E+01  0.26068620457E+01  0.82997286271E+02  0.83174480622E+02  0.17770000000E+01 0. -1.
</event>
<event>
 6    1  0.1823098E-004  0.5043113E+03  0.7546771E-02  0.9390214E-01
        -11   -1    0    0    0    0  0.00000000000E+00  0.00000000000E+00  0.50000000000E+03  0.50000000000E+03  0.00000000000E+00 0. -1.
         11   -1    0    0    0    0 -0.00000000000E+00 -0.00000000000E+00 -0.50000000000E+03  0.50000000000E+03  0.00000000000E+00 0. -1.
        -11    1    1    2    0    0 -0.65732739492E+02  0.50592577881E+01  0.49128489984E+03  0.49568865424E+03  0.00000000000E+00 0. -1.
         11    1    1    2    0    0  0.39683788350E+02 -0.21363484181E+02 -0.87798904835E+02  0.98690674354E+02  0.00000000000E+00 0. -1.
        -15    1    1    2    0    0  0.71126881190E+01  0.96201432732E+01 -0.29681794963E+03  0.29706428672E+03  0.17770000000E+01 0. -1.
         15    1    1    2    0    0  0.18936263023E+02  0.66840831197E+01 -0.10666804537E+03  0.10855638469E+03  0.17770000000E+01 0. -1.
</event>
<event>
 6    1  0.1823098E-004  0.5000574E+03  0.7546771E-02  0.9399681E-01
        -11   -1    0    0    0    0  0.00000000000E+00  0.00000000000E+00  0.50000000000E+03  0.50000000000E+03  0.00000000000E+00 0. -1.
         11   -1    0    0    0    0 -0.00000000000E+00 -0.00000000000E+00 -0.50000000000E+03  0.50000000000E+03  0.00000000000E+00 0. -1.
        -11    1    1    2    0    0  0.27706771899E+01  0.21657731626E+01  0.17387143583E+03  0.17390699648E+03  0.00000000000E+00 0. -1.
         11    1    1    2    0    0 -0.77758321433E+01 -0.12463365446E+02 -0.49972670989E+03  0.49994258032E+03  0.00000000000E+00 0. -1.
        -15    1    1    2    0    0  0.59992177731E+01  0.81768406754E+01  0.20397219845E+03  0.20423189469E+03  0.17770000000E+01 0. -1.
         15    1    1    2    0    0 -0.99406281969E+00  0.21207516077E+01  0.12188307560E+03  0.12191852851E+03  0.17770000000E+01 0.  1.
</event>
<event>
 6    1  0.1823098E-004  0.5002430E+03  0.7546771E-02  0.9399266E-01
        -11   -1    0    0    0    0  0.00000000000E+00  0.00000000000E+00  0.50000000000E+03  0.50000000000E+03  0.00000000000E+00 0. -1.
         11   -1    0    0    0    0 -0.00000000000E+00 -0.00000000000E+00 -0.50000000000E+03  0.50000000000E+03  0.00000000000E+00 0.  1.
        -11    1    1    2    0    0 -0.64257264212E+00  0.46318127420E+01  0.17393236605E+03  0.17399521416E+03  0.00000000000E+00 0. -1.
         11    1    1    2    0    0 -0.23437306476E+01  0.13950181310E+02 -0.49955674757E+03  0.49975698562E+03  0.00000000000E+00 0.  1.
        -15    1    1    2    0    0  0.19468559604E+01 -0.17009721071E+02  0.29983071818E+03  0.30032438820E+03  0.17770000000E+01 0. -1.
         15    1    1    2    0    0  0.10394473294E+01 -0.15722729810E+01  0.25793663341E+02  0.25923412018E+02  0.17770000000E+01 0.  1.
</event>
<event>
 6    1  0.1823098E-004  0.5181635E+03  0.7546771E-02  0.9360060E-01
        -11   -1    0    0    0    0  0.00000000000E+00  0.00000000000E+00  0.50000000000E+03  0.50000000000E+03  0.00000000000E+00 0. -1.
         11   -1    0    0    0    0 -0.00000000000E+00 -0.00000000000E+00 -0.50000000000E+03  0.50000000000E+03  0.00000000000E+00 0.  1.
        -11    1    1    2    0    0  0.23033123221E+02  0.19753968882E+02  0.48088009566E+03  0.48183649763E+03  0.00000000000E+00 0. -1.
         11    1    1    2    0    0  0.10857582288E+02  0.39530743530E+02 -0.42544686466E+03  0.42741736210E+03  0.00000000000E+00 0.  1.
        -15    1    1    2    0    0 -0.17613319891E+02 -0.12455833108E+02 -0.22374714357E+02  0.31131373043E+02  0.17770000000E+01 0.  1.
         15    1    1    2    0    0 -0.16277385618E+02 -0.46828879304E+02 -0.33058516641E+02  0.59614767222E+02  0.17770000000E+01 0. -1.
</event>
<event>
 6    1  0.1823098E-004  0.5007889E+03  0.7546771E-02  0.9398046E-01
        -11   -1    0    0    0    0  0.00000000000E+00  0.00000000000E+00  0.50000000000E+03  0.50000000000E+03  0.00000000000E+00 0. -1.
         11   -1    0    0    0    0 -0.00000000000E+00 -0.00000000000E+00 -0.50000000000E+03  0.50000000000E+03  0.00000000000E+00 0.  1.
        -11    1    1    2    0    0  0.66928145937E+01 -0.92525865287E+01  0.49908048016E+03  0.49921110745E+03  0.00000000000E+00 0. -1.
         11    1    1    2    0    0  0.37630850407E+01 -0.67306095365E+01 -0.33719632991E+03  0.33728448944E+03  0.00000000000E+00 0.  1.
        -15    1    1    2    0    0 -0.10889976498E+02  0.10232309672E+02 -0.13989995626E+03  0.14070695519E+03  0.17770000000E+01 0. -1.
         15    1    1    2    0    0  0.43407686385E+00  0.57508863928E+01 -0.21984193996E+02  0.22797447920E+02  0.17770000000E+01 0. -1.
</event>
<event>
 6    1  0.1823098E-004  0.5049170E+03  0.7546771E-02  0.9388874E-01
        -11   -1    0    0    0    0  0.00000000000E+00  0.00000000000E+00  0.50000000000E+03  0.50000000000E+03  0.00000000000E+00 0. -1.
         11   -1    0    0    0    0 -0.00000000000E+00 -0.00000000000E+00 -0.50000000000E+03  0.50000000000E+03  0.00000000000E+00 0.  1.
        -11    1    1    2    0    0 -0.20988992278E+01 -0.64121537942E+01  0.48590190704E+03  0.48594874664E+03  0.00000000000E+00 0. -1.
         11    1    1    2    0    0 -0.64425772653E+01 -0.59857113518E+01 -0.49500489139E+03  0.49508300117E+03  0.00000000000E+00 0.  1.
        -15    1    1    2    0    0  0.67754035643E+01  0.12257243233E+02  0.74406820143E+01  0.15958307648E+02  0.17770000000E+01 0. -1.
         15    1    1    2    0    0  0.17660729289E+01  0.14062191274E+00  0.16623023319E+01  0.30099445436E+01  0.17770000000E+01 0.  1.
</event>
<event>
 6    1  0.1823098E-004  0.5053189E+03  0.7546771E-02  0.9387986E-01
        -11   -1    0    0    0    0  0.00000000000E+00  0.00000000000E+00  0.50000000000E+03  0.50000000000E+03  0.00000000000E+00 0. -1.
         11   -1    0    0    0    0 -0.00000000000E+00 -0.00000000000E+00 -0.50000000000E+03  0.50000000000E+03  0.00000000000E+00 0.  1.
        -11    1    1    2    0    0  0.78481998728E+01  0.23423839535E+01  0.48594297811E+03  0.48601199469E+03  0.00000000000E+00 0. -1.
         11    1    1    2    0    0 -0.29260689801E+01  0.98837115347E+01 -0.49457373838E+03  0.49468114208E+03  0.00000000000E+00 0.  1.
        -15    1    1    2    0    0 -0.26996514309E+01 -0.22695772938E+01  0.80129110543E+01  0.89332844747E+01  0.17770000000E+01 0.  1.
         15    1    1    2    0    0 -0.22224794618E+01 -0.99565181944E+01  0.61784921596E+00  0.10373578754E+02  0.17770000000E+01 0. -1.
</event>
<event>
 6    1  0.1823098E-004  0.5023548E+03  0.7546771E-02  0.9394556E-01
        -11   -1    0    0    0    0  0.00000000000E+00  0.00000000000E+00  0.50000000000E+03  0.50000000000E+03  0.00000000000E+00 0.  1.
         11   -1    0    0    0    0 -0.00000000000E+00 -0.00000000000E+00 -0.50000000000E+03  0.50000000000E+03  0.00000000000E+00 0. -1.
        -11    1    1    2    0    0 -0.69241238849E+01  0.86267144093E+01  0.42234036867E+03  0.42248520767E+03  0.00000000000E+00 0.  1.
         11    1    1    2    0    0 -0.10197869659E+02  0.81446319837E+01 -0.49747407982E+03  0.49764524681E+03  0.00000000000E+00 0. -1.
        -15    1    1    2    0    0  0.16427527581E+02 -0.10219626882E+02  0.45759234562E+02  0.49712872706E+02  0.17770000000E+01 0.  1.
         15    1    1    2    0    0  0.69446596224E+00 -0.65517195112E+01  0.29374476591E+02  0.30156672819E+02  0.17770000000E+01 0. -1.
</event>
<event>
 6    1  0.1823098E-004  0.5318498E+03  0.7546771E-02  0.9331234E-01
        -11   -1    0    0    0    0  0.00000000000E+00  0.00000000000E+00  0.50000000000E+03  0.50000000000E+03  0.00000000000E+00 0. -1.
         11   -1    0    0    0    0 -0.00000000000E+00 -0.00000000000E+00 -0.50000000000E+03  0.50000000000E+03  0.00000000000E+00 0.  1.
        -11    1    1    2    0    0 -0.17236573320E+01 -0.21039350781E+02  0.46767398298E+03  0.46815016782E+03  0.00000000000E+00 0. -1.
         11    1    1    2    0    0 -0.10231953156E+03  0.25217100623E+02 -0.35775769370E+03  0.37295543448E+03  0.00000000000E+00 0.  1.
        -15    1    1    2    0    0  0.23302749192E+02  0.11057362714E+01 -0.12886364183E+01  0.23432009847E+02  0.17770000000E+01 0. -1.
         15    1    1    2    0    0  0.80740439700E+02 -0.52834861130E+01 -0.10862765286E+03  0.13546238786E+03  0.17770000000E+01 0.  1.
</event>
<event>
 6    1  0.1823098E-004  0.5008159E+03  0.7546771E-02  0.9397986E-01
        -11   -1    0    0    0    0  0.00000000000E+00  0.00000000000E+00  0.50000000000E+03  0.50000000000E+03  0.00000000000E+00 0.  1.
         11   -1    0    0    0    0 -0.00000000000E+00 -0.00000000000E+00 -0.50000000000E+03  0.50000000000E+03  0.00000000000E+00 0. -1.
        -11    1    1    2    0    0  0.10282314857E+02 -0.12188339753E+01  0.49907674582E+03  0.49918414415E+03  0.00000000000E+00 0.  1.
         11    1    1    2    0    0 -0.14917114201E+02 -0.59885437685E+01 -0.32539709466E+03  0.32579387987E+03  0.00000000000E+00 0. -1.
        -15    1    1    2    0    0  0.12130673043E+02  0.63065261959E+01 -0.10321251666E+03  0.10412927939E+03  0.17770000000E+01 0. -1.
         15    1    1    2    0    0 -0.74958736989E+01  0.90085154792E+00 -0.70467134499E+02  0.70892696588E+02  0.17770000000E+01 0.  1.
</event>
<event>
 6    1  0.1823098E-004  0.5003679E+03  0.7546771E-02  0.9398987E-01
        -11   -1    0    0    0    0  0.00000000000E+00  0.00000000000E+00  0.50000000000E+03  0.50000000000E+03  0.00000000000E+00 0.  1.
         11   -1    0    0    0    0 -0.00000000000E+00 -0.00000000000E+00 -0.50000000000E+03  0.50000000000E+03  0.00000000000E+00 0.  1.
        -11    1    1    2    0    0 -0.11404212682E+02  0.77738429531E+01  0.22313335024E+03  0.22355979220E+03  0.00000000000E+00 0.  1.
         11    1    1    2    0    0  0.65201256951E+01 -0.24275533111E+02 -0.49899943731E+03  0.49963211665E+03  0.00000000000E+00 0.  1.
        -15    1    1    2    0    0  0.77797786334E+01  0.61335752087E+01  0.18766990548E+03  0.18793960959E+03  0.17770000000E+01 0.  1.
         15    1    1    2    0    0 -0.28956916461E+01  0.10368114949E+02  0.88196181594E+02  0.88868481558E+02  0.17770000000E+01 0. -1.
</event>
<event>
 6    1  0.1823098E-004  0.5053813E+03  0.7546771E-02  0.9387849E-01
        -11   -1    0    0    0    0  0.00000000000E+00  0.00000000000E+00  0.50000000000E+03  0.50000000000E+03  0.00000000000E+00 0. -1.
         11   -1    0    0    0    0 -0.00000000000E+00 -0.00000000000E+00 -0.50000000000E+03  0.50000000000E+03  0.00000000000E+00 0. -1.
        -11    1    1    2    0    0 -0.65911715807E+01 -0.61874641503E+01  0.48325006730E+03  0.48333462095E+03  0.00000000000E+00 0. -1.
         11    1    1    2    0    0 -0.39699972001E+01  0.12961284975E+02 -0.49443291621E+03  0.49461870610E+03  0.00000000000E+00 0. -1.
        -15    1    1    2    0    0  0.12246816041E+02 -0.13130264508E+01  0.49139521482E+01  0.13379581321E+02  0.17770000000E+01 0.  1.
         15    1    1    2    0    0 -0.16856472605E+01 -0.54607943735E+01  0.62688967603E+01  0.86670916384E+01  0.17770000000E+01 0. -1.
</event>
<event>
 6    1  0.1823098E-004  0.5005293E+03  0.7546771E-02  0.9398626E-01
        -11   -1    0    0    0    0  0.00000000000E+00  0.00000000000E+00  0.50000000000E+03  0.50000000000E+03  0.00000000000E+00 0. -1.
         11   -1    0    0    0    0 -0.00000000000E+00 -0.00000000000E+00 -0.50000000000E+03  0.50000000000E+03  0.00000000000E+00 0.  1.
        -11    1    1    2    0    0  0.18541808564E+02  0.42135804055E+01  0.49910861879E+03  0.49947068610E+03  0.00000000000E+00 0. -1.
         11    1    1    2    0    0 -0.13660082267E+02  0.77451839472E+00 -0.77961228519E+02  0.79152706072E+02  0.00000000000E+00 0.  1.
        -15    1    1    2    0    0 -0.77528342149E+01 -0.52149804714E+01 -0.22622917307E+03  0.22642901523E+03  0.17770000000E+01 0. -1.
         15    1    1    2    0    0  0.28711079185E+01  0.22688167118E+00 -0.19491821720E+03  0.19494759260E+03  0.17770000000E+01 0.  1.
</event>
<event>
 6    1  0.1823098E-004  0.5024415E+03  0.7546771E-02  0.9394363E-01
        -11   -1    0    0    0    0  0.00000000000E+00  0.00000000000E+00  0.50000000000E+03  0.50000000000E+03  0.00000000000E+00 0. -1.
         11   -1    0    0    0    0 -0.00000000000E+00 -0.00000000000E+00 -0.50000000000E+03  0.50000000000E+03  0.00000000000E+00 0. -1.
        -11    1    1    2    0    0  0.31792112069E+02 -0.27706439215E+02  0.49576820004E+03  0.49755853258E+03  0.00000000000E+00 0. -1.
         11    1    1    2    0    0 -0.33345967496E+02 -0.14321464093E+02 -0.26862884058E+03  0.27106920126E+03  0.00000000000E+00 0. -1.
        -15    1    1    2    0    0 -0.40607072461E+01  0.26345083134E+02 -0.12056951215E+03  0.12349379636E+03  0.17770000000E+01 0. -1.
         15    1    1    2    0    0  0.56145626730E+01  0.15682820173E+02 -0.10656984731E+03  0.10787846981E+03  0.17770000000E+01 0.  1.
</event>
<event>
 6    1  0.1823098E-004  0.4923527E+03  0.7546771E-02  0.9417086E-01
        -11   -1    0    0    0    0  0.00000000000E+00  0.00000000000E+00  0.50000000000E+03  0.50000000000E+03  0.00000000000E+00 0. -1.
         11   -1    0    0    0    0 -0.00000000000E+00 -0.00000000000E+00 -0.50000000000E+03  0.50000000000E+03  0.00000000000E+00 0. -1.
        -11    1    1    2    0    0  0.14873727040E+02  0.72108541674E+01  0.49125878689E+03  0.49153679402E+03  0.00000000000E+00 0. -1.
         11    1    1    2    0    0 -0.87944662664E+01 -0.11773705903E+02 -0.49298036293E+03  0.49319935221E+03  0.00000000000E+00 0. -1.
        -15    1    1    2    0    0 -0.85590494235E+01  0.26057243079E+01 -0.27317540504E+01  0.95219396866E+01  0.17770000000E+01 0. -1.
         15    1    1    2    0    0  0.24797886503E+01  0.19571274280E+01  0.44533300843E+01  0.57419140850E+01  0.17770000000E+01 0.  1.
</event>
<event>
 6    1  0.1823098E-004  0.5093722E+03  0.7546771E-02  0.9379079E-01
        -11   -1    0    0    0    0  0.00000000000E+00  0.00000000000E+00  0.50000000000E+03  0.50000000000E+03  0.00000000000E+00 0. -1.
         11   -1    0    0    0    0 -0.00000000000E+00 -0.00000000000E+00 -0.50000000000E+03  0.50000000000E+03  0.00000000000E+00 0. -1.
        -11    1    1    2    0    0  0.44973243337E+01  0.31929124887E+01  0.31478121223E+03  0.31482952877E+03  0.00000000000E+00 0. -1.
         11    1    1    2    0    0  0.33567318577E+02  0.57983107143E+02 -0.48603169403E+03  0.49062777458E+03  0.00000000000E+00 0. -1.
        -15    1    1    2    0    0 -0.21663486178E+02 -0.40358664839E+02  0.40646803749E+02  0.61265396799E+02  0.17770000000E+01 0.  1.
         15    1    1    2    0    0 -0.16401156733E+02 -0.20817354793E+02  0.13060367806E+03  0.13327729984E+03  0.17770000000E+01 0. -1.
</event>
<event>
 6    1  0.1823098E-004  0.5034945E+03  0.7546771E-02  0.9392024E-01
        -11   -1    0    0    0    0  0.00000000000E+00  0.00000000000E+00  0.50000000000E+03  0.50000000000E+03  0.00000000000E+00 0. -1.
         11   -1    0    0    0    0 -0.00000000000E+00 -0.00000000000E+00 -0.50000000000E+03  0.50000000000E+03  0.00000000000E+00 0. -1.
        -11    1    1    2    0    0 -0.47037823294E+01 -0.83953749210E+01  0.49641226662E+03  0.49650553505E+03  0.00000000000E+00 0. -1.
         11    1    1    2    0    0 -0.31536641951E+02 -0.11784688898E+02 -0.29842237148E+03  0.30031541832E+03  0.00000000000E+00 0. -1.
        -15    1    1    2    0    0  0.44423162509E+01  0.23210268842E+00 -0.67203477794E+01  0.82528085285E+01  0.17770000000E+01 0.  1.
         15    1    1    2    0    0  0.31798108029E+02  0.19947961130E+02 -0.19126954736E+03  0.19492623811E+03  0.17770000000E+01 0. -1.
</event>
<event>
 6    1  0.1823098E-004  0.5136863E+03  0.7546771E-02  0.9369696E-01
        -11   -1    0    0    0    0  0.00000000000E+00  0.00000000000E+00  0.50000000000E+03  0.50000000000E+03  0.00000000000E+00 0.  1.
         11   -1    0    0    0    0 -0.00000000000E+00 -0.00000000000E+00 -0.50000000000E+03  0.50000000000E+03  0.00000000000E+00 0.  1.
        -11    1    1    2    0    0  0.23784566266E+02 -0.55046980535E+01  0.42165436303E+03  0.42236052035E+03  0.00000000000E+00 0.  1.
         11    1    1    2    0    0 -0.33415676615E+02 -0.45084508597E+02 -0.48306496955E+03  0.48631366952E+03  0.00000000000E+00 0.  1.
        -15    1    1    2    0    0  0.14982894764E+01  0.45109520888E+02  0.21197230246E+02  0.49895831942E+02  0.17770000000E+01 0. -1.
         15    1    1    2    0    0  0.81328208723E+01  0.54796857626E+01  0.40213376278E+02  0.41429978181E+02  0.17770000000E+01 0.  1.
</event>
<event>
 6    1  0.1823098E-004  0.5003951E+03  0.7546771E-02  0.9398926E-01
        -11   -1    0    0    0    0  0.00000000000E+00  0.00000000000E+00  0.50000000000E+03  0.50000000000E+03  0.00000000000E+00 0. -1.
         11   -1    0    0    0    0 -0.00000000000E+00 -0.00000000000E+00 -0.50000000000E+03  0.50000000000E+03  0.00000000000E+00 0. -1.
        -11    1    1    2    0    0 -0.31155029980E+01  0.17569937347E+01  0.17479502183E+03  0.17483161340E+03  0.00000000000E+00 0. -1.
         11    1    1    2    0    0  0.23074139717E+02 -0.13071200500E+02 -0.49890057572E+03  0.49960490055E+03  0.00000000000E+00 0. -1.
        -15    1    1    2    0    0 -0.59034728125E+00 -0.11568779999E+01  0.13954692316E+03  0.13956428042E+03  0.17770000000E+01 0. -1.
         15    1    1    2    0    0 -0.19368289438E+02  0.12471084765E+02  0.18455863073E+03  0.18599920563E+03  0.17770000000E+01 0.  1.
</event>
<event>
 6    1  0.1823098E-004  0.5037295E+03  0.7546771E-02  0.9391503E-01
        -11   -1    0    0    0    0  0.00000000000E+00  0.00000000000E+00  0.50000000000E+03  0.50000000000E+03  0.00000000000E+00 0. -1.
         11   -1    0    0    0    0 -0.00000000000E+00 -0.00000000000E+00 -0.50000000000E+03  0.50000000000E+03  0.00000000000E+00 0. -1.
        -11    1    1    2    0    0 -0.99620847920E+01  0.10335821384E+02  0.49606283156E+03  0.49627049599E+03  0.00000000000E+00 0. -1.
         11    1    1    2    0    0  0.48817231254E+01  0.14177462697E+02 -0.44939281952E+03  0.44964290042E+03  0.00000000000E+00 0. -1.
        -15    1    1    2    0    0  0.59635883620E+01 -0.12277632207E+02 -0.32290842014E+02  0.35102148734E+02  0.17770000000E+01 0. -1.
         15    1    1    2    0    0 -0.88322669548E+00 -0.12235651874E+02 -0.14379170030E+02  0.18984454849E+02  0.17770000000E+01 0.  1.
</event>
<event>
 6    1  0.1823098E-004  0.5004813E+03  0.7546771E-02  0.9398733E-01
        -11   -1    0    0    0    0  0.00000000000E+00  0.00000000000E+00  0.50000000000E+03  0.50000000000E+03  0.00000000000E+00 0. -1.
         11   -1    0    0    0    0 -0.00000000000E+00 -0.00000000000E+00 -0.50000000000E+03  0.50000000000E+03  0.00000000000E+00 0.  1.
        -11    1    1    2    0    0 -0.55493498766E+00 -0.13492972792E+02  0.23185640906E+03  0.23224935456E+03  0.00000000000E+00 0. -1.
         11    1    1    2    0    0 -0.82533234229E+01  0.16661027996E+02 -0.49917251164E+03  0.49951867190E+03  0.00000000000E+00 0.  1.
        -15    1    1    2    0    0 -0.32413629672E+01 -0.65499757225E+01  0.15952657512E+03  0.15970377114E+03  0.17770000000E+01 0. -1.
         15    1    1    2    0    0  0.12049621378E+02  0.33819205181E+01  0.10778952745E+03  0.10852820241E+03  0.17770000000E+01 0.  1.
</event>
<event>
 6    1  0.1823098E-004  0.5009776E+03  0.7546771E-02  0.9397625E-01
        -11   -1    0    0    0    0  0.00000000000E+00  0.00000000000E+00  0.50000000000E+03  0.50000000000E+03  0.00000000000E+00 0. -1.
         11   -1    0    0    0    0 -0.00000000000E+00 -0.00000000000E+00 -0.50000000000E+03  0.50000000000E+03  0.00000000000E+00 0.  1.
        -11    1    1    2    0    0 -0.18163411005E+02 -0.15650496039E+02  0.25002743189E+03  0.25117437016E+03  0.00000000000E+00 0. -1.
         11    1    1    2    0    0 -0.44753253833E+01  0.33111761728E+02 -0.49790258464E+03  0.49902244548E+03  0.00000000000E+00 0.  1.
        -15    1    1    2    0    0  0.26057394739E+01 -0.79400624113E+01  0.57311111211E+02  0.57944418770E+02  0.17770000000E+01 0. -1.
         15    1    1    2    0    0  0.20032996914E+02 -0.95212032777E+01  0.19056404154E+03  0.19185876559E+03  0.17770000000E+01 0.  1.
</event>
<event>
 6    1  0.1823098E-004  0.5013867E+03  0.7546771E-02  0.9396712E-01
        -11   -1    0    0    0    0  0.00000000000E+00  0.00000000000E+00  0.50000000000E+03  0.50000000000E+03  0.00000000000E+00 0.  1.
         11   -1    0    0    0    0 -0.00000000000E+00 -0.00000000000E+00 -0.50000000000E+03  0.50000000000E+03  0.00000000000E+00 0. -1.
        -11    1    1    2    0    0  0.10716589381E+02  0.14396524721E+02  0.49829020307E+03  0.49861330878E+03  0.00000000000E+00 0.  1.
         11    1    1    2    0    0  0.98836835149E+01 -0.11709434369E+02 -0.40639580297E+03  0.40668457891E+03  0.00000000000E+00 0. -1.
        -15    1    1    2    0    0 -0.12256775168E+02  0.28265389915E+01 -0.53392846420E+02  0.54883254623E+02  0.17770000000E+01 0. -1.
         15    1    1    2    0    0 -0.83434977282E+01 -0.55136293433E+01 -0.38501553684E+02  0.39818857693E+02  0.17770000000E+01 0.  1.
</event>
<event>
 6    1  0.1823098E-004  0.4934414E+03  0.7546771E-02  0.9414606E-01
        -11   -1    0    0    0    0  0.00000000000E+00  0.00000000000E+00  0.50000000000E+03  0.50000000000E+03  0.00000000000E+00 0. -1.
         11   -1    0    0    0    0 -0.00000000000E+00 -0.00000000000E+00 -0.50000000000E+03  0.50000000000E+03  0.00000000000E+00 0.  1.
        -11    1    1    2    0    0  0.57441623892E+01 -0.41733199829E+01  0.49522040953E+03  0.49527130546E+03  0.00000000000E+00 0. -1.
         11    1    1    2    0    0 -0.43625052061E+01 -0.54293789481E+01 -0.49161645195E+03  0.49166578631E+03  0.00000000000E+00 0.  1.
        -15    1    1    2    0    0 -0.11694409415E+01  0.84120543078E+01  0.21616930947E+00  0.86795568990E+01  0.17770000000E+01 0.  1.
         15    1    1    2    0    0 -0.21221624161E+00  0.11906446233E+01 -0.38201268933E+01  0.43833513244E+01  0.17770000000E+01 0. -1.
</event>
<event>
 6    1  0.1823098E-004  0.5006955E+03  0.7546771E-02  0.9398255E-01
        -11   -1    0    0    0    0  0.00000000000E+00  0.00000000000E+00  0.50000000000E+03  0.50000000000E+03  0.00000000000E+00 0. -1.
         11   -1    0    0    0    0 -0.00000000000E+00 -0.00000000000E+00 -0.50000000000E+03  0.50000000000E+03  0.00000000000E+00 0.  1.
        -11    1    1    2    0    0 -0.94213628608E-01  0.83682772992E+01  0.49923439360E+03  0.49930453302E+03  0.00000000000E+00 0. -1.
         11    1    1    2    0    0  0.43598380051E+01 -0.70877780451E+01 -0.24303381620E+02  0.25688502160E+02  0.00000000000E+00 0.  1.
        -15    1    1    2    0    0 -0.28230300400E+01 -0.36729609277E+01 -0.33526657021E+03  0.33530328208E+03  0.17770000000E+01 0.  1.
         15    1    1    2    0    0 -0.14425943365E+01  0.23924616736E+01 -0.13966444176E+03  0.13970368275E+03  0.17770000000E+01 0. -1.
</event>
<event>
 6    1  0.1823098E-004  0.5005758E+03  0.7546771E-02  0.9398522E-01
        -11   -1    0    0    0    0  0.00000000000E+00  0.00000000000E+00  0.50000000000E+03  0.50000000000E+03  0.00000000000E+00 0.  1.
         11   -1    0    0    0    0 -0.00000000000E+00 -0.00000000000E+00 -0.50000000000E+03  0.50000000000E+03  0.00000000000E+00 0. -1.
        -11    1    1    2    0    0 -0.48216845350E+01  0.59492115482E+01  0.49936549221E+03  0.49942420503E+03  0.00000000000E+00 0.  1.
         11    1    1    2    0    0  0.11020622407E+02  0.10696354971E+01 -0.19835996406E+03  0.19866875341E+03  0.00000000000E+00 0. -1.
        -15    1    1    2    0    0  0.11731771953E+01  0.68948926354E+01 -0.11593715273E+03  0.11616151257E+03  0.17770000000E+01 0. -1.
         15    1    1    2    0    0 -0.73721150672E+01 -0.13913739681E+02 -0.18506837542E+03  0.18574552900E+03  0.17770000000E+01 0.  1.
</event>
<event>
 6    1  0.1823098E-004  0.5004282E+03  0.7546771E-02  0.9398852E-01
        -11   -1    0    0    0    0  0.00000000000E+00  0.00000000000E+00  0.50000000000E+03  0.50000000000E+03  0.00000000000E+00 0. -1.
         11   -1    0    0    0    0 -0.00000000000E+00 -0.00000000000E+00 -0.50000000000E+03  0.50000000000E+03  0.00000000000E+00 0.  1.
        -11    1    1    2    0    0  0.92184871936E+01  0.14589301997E+01  0.49948458252E+03  0.49957177378E+03  0.00000000000E+00 0. -1.
         11    1    1    2    0    0  0.16854714802E+01  0.93375805849E+01 -0.18977472087E+03  0.19001177834E+03  0.00000000000E+00 0.  1.
        -15    1    1    2    0    0 -0.22248489047E+01 -0.64514177691E+01 -0.47461960131E+02  0.47982977527E+02  0.17770000000E+01 0. -1.
         15    1    1    2    0    0 -0.86791097691E+01 -0.43450930155E+01 -0.26224790152E+03  0.26243347035E+03  0.17770000000E+01 0.  1.
</event>
<event>
 6    1  0.1823098E-004  0.5007894E+03  0.7546771E-02  0.9398045E-01
        -11   -1    0    0    0    0  0.00000000000E+00  0.00000000000E+00  0.50000000000E+03  0.50000000000E+03  0.00000000000E+00 0. -1.
         11   -1    0    0    0    0 -0.00000000000E+00 -0.00000000000E+00 -0.50000000000E+03  0.50000000000E+03  0.00000000000E+00 0. -1.
        -11    1    1    2    0    0 -0.68162226691E+01  0.11605864286E+01  0.49916275675E+03  0.49921064249E+03  0.00000000000E+00 0. -1.
         11    1    1    2    0    0  0.71572021094E+01 -0.65164958547E+01 -0.46759245828E+03  0.46769263122E+03  0.00000000000E+00 0. -1.
        -15    1    1    2    0    0  0.20271501553E+01 -0.65894152466E+00 -0.14381882740E+02  0.14647177948E+02  0.17770000000E+01 0.  1.
         15    1    1    2    0    0 -0.23681295956E+01  0.60148509508E+01 -0.17188415729E+02  0.18449548342E+02  0.17770000000E+01 0. -1.
</event>
<event>
 6    1  0.1823098E-004  0.5008337E+03  0.7546771E-02  0.9397946E-01
        -11   -1    0    0    0    0  0.00000000000E+00  0.00000000000E+00  0.50000000000E+03  0.50000000000E+03  0.00000000000E+00 0. -1.
         11   -1    0    0    0    0 -0.00000000000E+00 -0.00000000000E+00 -0.50000000000E+03  0.50000000000E+03  0.00000000000E+00 0.  1.
        -11    1    1    2    0    0 -0.43248936697E+01 -0.32759947668E+01  0.35704963680E+03  0.35709085676E+03  0.00000000000E+00 0. -1.
         11    1    1    2    0    0  0.20839154560E+02  0.14201419863E+02 -0.49852890460E+03  0.49916632439E+03  0.00000000000E+00 0.  1.
        -15    1    1    2    0    0 -0.18144505095E+02 -0.12724706346E+02  0.11852326148E+03  0.12059047415E+03  0.17770000000E+01 0.  1.
         15    1    1    2    0    0  0.16302442041E+01  0.17992812492E+01  0.22956006324E+02  0.23152344687E+02  0.17770000000E+01 0. -1.
</event>
<event>
 6    1  0.1823098E-004  0.5001884E+03  0.7546771E-02  0.9399388E-01
        -11   -1    0    0    0    0  0.00000000000E+00  0.00000000000E+00  0.50000000000E+03  0.50000000000E+03  0.00000000000E+00 0. -1.
         11   -1    0    0    0    0 -0.00000000000E+00 -0.00000000000E+00 -0.50000000000E+03  0.50000000000E+03  0.00000000000E+00 0.  1.
        -11    1    1    2    0    0 -0.90482335338E+01  0.14129424195E+02  0.49952991652E+03  0.49981161317E+03  0.00000000000E+00 0. -1.
         11    1    1    2    0    0  0.10446597616E+02 -0.93717783678E+01 -0.34219775361E+03  0.34248542189E+03  0.00000000000E+00 0.  1.
        -15    1    1    2    0    0  0.22632218010E+01  0.14548912461E+01 -0.36194096175E+02  0.36337435358E+02  0.17770000000E+01 0.  1.
         15    1    1    2    0    0 -0.36615858828E+01 -0.62125370736E+01 -0.12113806674E+03  0.12136552958E+03  0.17770000000E+01 0. -1.
</event>
<event>
 6    1  0.1823098E-004  0.5037020E+03  0.7546771E-02  0.9391564E-01
        -11   -1    0    0    0    0  0.00000000000E+00  0.00000000000E+00  0.50000000000E+03  0.50000000000E+03  0.00000000000E+00 0. -1.
         11   -1    0    0    0    0 -0.00000000000E+00 -0.00000000000E+00 -0.50000000000E+03  0.50000000000E+03  0.00000000000E+00 0.  1.
        -11    1    1    2    0    0 -0.80446345449E+01  0.17041008444E+01  0.49622991557E+03  0.49629804474E+03  0.00000000000E+00 0. -1.
         11    1    1    2    0    0  0.26792265362E+02  0.10144909910E+02 -0.80997207058E+02  0.85914447164E+02  0.00000000000E+00 0.  1.
        -15    1    1    2    0    0 -0.69233261508E+01  0.12687340922E+02 -0.24003953914E+03  0.24048084985E+03  0.17770000000E+01 0. -1.
         15    1    1    2    0    0 -0.11824304666E+02 -0.24536351677E+02 -0.17519316938E+03  0.17730665825E+03  0.17770000000E+01 0.  1.
</event>
<event>
 6    1  0.1823098E-004  0.5015410E+03  0.7546771E-02  0.9396368E-01
        -11   -1    0    0    0    0  0.00000000000E+00  0.00000000000E+00  0.50000000000E+03  0.50000000000E+03  0.00000000000E+00 0.  1.
         11   -1    0    0    0    0 -0.00000000000E+00 -0.00000000000E+00 -0.50000000000E+03  0.50000000000E+03  0.00000000000E+00 0. -1.
        -11    1    1    2    0    0  0.10371148255E+02 -0.34106208570E+01  0.49833941522E+03  0.49845899110E+03  0.00000000000E+00 0.  1.
         11    1    1    2    0    0  0.15199671290E+01  0.98509149464E+01 -0.41880251585E+03  0.41892111203E+03  0.00000000000E+00 0. -1.
        -15    1    1    2    0    0 -0.47496465528E+01 -0.32491167640E+01 -0.55202487677E+01  0.81698701079E+01  0.17770000000E+01 0. -1.
         15    1    1    2    0    0 -0.71414688310E+01 -0.31911773255E+01 -0.74016650599E+02  0.74450026760E+02  0.17770000000E+01 0.  1.
</event>
<event>
 6    1  0.1823098E-004  0.5000526E+03  0.7546771E-02  0.9399692E-01
        -11   -1    0    0    0    0  0.00000000000E+00  0.00000000000E+00  0.50000000000E+03  0.50000000000E+03  0.00000000000E+00 0. -1.
         11   -1    0    0    0    0 -0.00000000000E+00 -0.00000000000E+00 -0.50000000000E+03  0.50000000000E+03  0.00000000000E+00 0. -1.
        -11    1    1    2    0    0  0.14934900804E+01 -0.87593363286E+01  0.49986837909E+03  0.49994735012E+03  0.00000000000E+00 0. -1.
         11    1    1    2    0    0 -0.24285799613E+01  0.56916981303E+01 -0.18028362672E+03  0.18038979874E+03  0.00000000000E+00 0. -1.
        -15    1    1    2    0    0  0.30814274096E+01  0.16744249273E+01 -0.16660729078E+03  0.16665367072E+03  0.17770000000E+01 0. -1.
         15    1    1    2    0    0 -0.21463375287E+01  0.13932132710E+01 -0.15297746159E+03  0.15300918041E+03  0.17770000000E+01 0. -1.
</event>
<event>
 6    1  0.1823098E-004  0.5014369E+03  0.7546771E-02  0.9396600E-01
        -11   -1    0    0    0    0  0.00000000000E+00  0.00000000000E+00  0.50000000000E+03  0.50000000000E+03  0.00000000000E+00 0.  1.
         11   -1    0    0    0    0 -0.00000000000E+00 -0.00000000000E+00 -0.50000000000E+03  0.50000000000E+03  0.00000000000E+00 0. -1.
        -11    1    1    2    0    0  0.36829499256E+01  0.12310898930E+02  0.49839747165E+03  0.49856309741E+03  0.00000000000E+00 0.  1.
         11    1    1    2    0    0  0.60532076135E+01 -0.24710887775E+01 -0.43991185113E+03  0.43996043501E+03  0.00000000000E+00 0. -1.
        -15    1    1    2    0    0 -0.63842060271E+01 -0.24376065990E+01 -0.97622333560E+01  0.12048192463E+02  0.17770000000E+01 0. -1.
         15    1    1    2    0    0 -0.33519515121E+01 -0.74022035539E+01 -0.48723387158E+02  0.49428275122E+02  0.17770000000E+01 0.  1.
</event>
<event>
 6    1  0.1823098E-004  0.4909214E+03  0.7546771E-02  0.9420356E-01
        -11   -1    0    0    0    0  0.00000000000E+00  0.00000000000E+00  0.50000000000E+03  0.50000000000E+03  0.00000000000E+00 0. -1.
         11   -1    0    0    0    0 -0.00000000000E+00 -0.00000000000E+00 -0.50000000000E+03  0.50000000000E+03  0.00000000000E+00 0.  1.
        -11    1    1    2    0    0  0.70849574694E+01  0.32315159780E+01  0.49161682077E+03  0.49167849026E+03  0.00000000000E+00 0. -1.
         11    1    1    2    0    0 -0.10447036793E+01 -0.19228239698E+02 -0.48993644035E+03  0.49031472769E+03  0.00000000000E+00 0.  1.
        -15    1    1    2    0    0 -0.58293145699E+01  0.11653929941E+02 -0.48528727517E+00  0.13160099702E+02  0.17770000000E+01 0.  1.
         15    1    1    2    0    0 -0.21093922014E+00  0.43427937791E+01 -0.11950931426E+01  0.48466823479E+01  0.17770000000E+01 0. -1.
</event>
<event>
 6    1  0.1823098E-004  0.5006453E+03  0.7546771E-02  0.9398367E-01
        -11   -1    0    0    0    0  0.00000000000E+00  0.00000000000E+00  0.50000000000E+03  0.50000000000E+03  0.00000000000E+00 0.  1.
         11   -1    0    0    0    0 -0.00000000000E+00 -0.00000000000E+00 -0.50000000000E+03  0.50000000000E+03  0.00000000000E+00 0. -1.
        -11    1    1    2    0    0  0.74391390966E+01 -0.26526564761E+00  0.44049022674E+03  0.44055311940E+03  0.00000000000E+00 0.  1.
         11    1    1    2    0    0 -0.22899536483E+01  0.92026941459E+01 -0.49926463536E+03  0.49935469316E+03  0.00000000000E+00 0. -1.
        -15    1    1    2    0    0 -0.61378374098E+01 -0.79235375204E+01  0.45500032402E+02  0.46624737774E+02  0.17770000000E+01 0.  1.
         15    1    1    2    0    0  0.98865196150E+00 -0.10138909779E+01  0.13274376212E+02  0.13467449663E+02  0.17770000000E+01 0. -1.
</event>
<event>
 6    1  0.1823098E-004  0.5001602E+03  0.7546771E-02  0.9399451E-01
        -11   -1    0    0    0    0  0.00000000000E+00  0.00000000000E+00  0.50000000000E+03  0.50000000000E+03  0.00000000000E+00 0.  1.
         11   -1    0    0    0    0 -0.00000000000E+00 -0.00000000000E+00 -0.50000000000E+03  0.50000000000E+03  0.00000000000E+00 0. -1.
        -11    1    1    2    0    0  0.56022181138E+01  0.17583987361E+02  0.49949901994E+03  0.49983982673E+03  0.00000000000E+00 0.  1.
         11    1    1    2    0    0 -0.58208190468E+01 -0.11265036498E+02 -0.20664349245E+03  0.20703216165E+03  0.00000000000E+00 0. -1.
        -15    1    1    2    0    0  0.32633295515E+01 -0.78754355345E+01 -0.21701388182E+03  0.21718852280E+03  0.17770000000E+01 0. -1.
         15    1    1    2    0    0 -0.30447286186E+01  0.15564846711E+01 -0.75841645671E+02  0.75939488831E+02  0.17770000000E+01 0.  1.
</event>
<event>
 6    1  0.1823098E-004  0.4714427E+03  0.7546771E-02  0.9466079E-01
        -11   -1    0    0    0    0  0.00000000000E+00  0.00000000000E+00  0.50000000000E+03  0.50000000000E+03  0.00000000000E+00 0.  1.
         11   -1    0    0    0    0 -0.00000000000E+00 -0.00000000000E+00 -0.50000000000E+03  0.50000000000E+03  0.00000000000E+00 0.  1.
        -11    1    1    2    0    0 -0.67784298029E+01  0.71952293388E+01  0.46641152705E+03  0.46651627089E+03  0.00000000000E+00 0.  1.
         11    1    1    2    0    0 -0.59624763334E+01 -0.27902511877E+02 -0.47587531970E+03  0.47672992479E+03  0.00000000000E+00 0.  1.
        -15    1    1    2    0    0  0.11523890628E+02 -0.52294851911E+01  0.23819563828E+02  0.27031036246E+02  0.17770000000E+01 0.  1.
         15    1    1    2    0    0  0.12170155082E+01  0.25936767730E+02 -0.14355771184E+02  0.29722768079E+02  0.17770000000E+01 0. -1.
</event>
<event>
 6    1  0.1823098E-004  0.5002210E+03  0.7546771E-02  0.9399315E-01
        -11   -1    0    0    0    0  0.00000000000E+00  0.00000000000E+00  0.50000000000E+03  0.50000000000E+03  0.00000000000E+00 0.  1.
         11   -1    0    0    0    0 -0.00000000000E+00 -0.00000000000E+00 -0.50000000000E+03  0.50000000000E+03  0.00000000000E+00 0. -1.
        -11    1    1    2    0    0 -0.16266300780E+02  0.14568242265E+02  0.33519646012E+03  0.33590697090E+03  0.00000000000E+00 0.  1.
         11    1    1    2    0    0  0.18424365521E+02 -0.28318952395E+02 -0.49863577667E+03  0.49977900924E+03  0.00000000000E+00 0. -1.
        -15    1    1    2    0    0 -0.31999353094E+01  0.93834999231E+01  0.66893155971E+02  0.67647185467E+02  0.17770000000E+01 0. -1.
         15    1    1    2    0    0  0.10418705682E+01  0.43672102065E+01  0.96546160574E+02  0.96666834384E+02  0.17770000000E+01 0.  1.
</event>
<event>
 6    1  0.1823098E-004  0.5003430E+03  0.7546771E-02  0.9399042E-01
        -11   -1    0    0    0    0  0.00000000000E+00  0.00000000000E+00  0.50000000000E+03  0.50000000000E+03  0.00000000000E+00 0. -1.
         11   -1    0    0    0    0 -0.00000000000E+00 -0.00000000000E+00 -0.50000000000E+03  0.50000000000E+03  0.00000000000E+00 0.  1.
        -11    1    1    2    0    0 -0.70046938414E+01 -0.37414316246E+01  0.39516150435E+03  0.39524129158E+03  0.00000000000E+00 0. -1.
         11    1    1    2    0    0  0.37586050994E+01  0.10448721746E+02 -0.49953355022E+03  0.49965695301E+03  0.00000000000E+00 0.  1.
        -15    1    1    2    0    0  0.40798483700E+01 -0.11577572320E+01  0.19877303968E+02  0.20402218177E+02  0.17770000000E+01 0. -1.
         15    1    1    2    0    0 -0.83375962797E+00 -0.55495328893E+01  0.84494741898E+02  0.84699537235E+02  0.17770000000E+01 0.  1.
</event>
<event>
 6    1  0.1823098E-004  0.5008333E+03  0.7546771E-02  0.9397947E-01
        -11   -1    0    0    0    0  0.00000000000E+00  0.00000000000E+00  0.50000000000E+03  0.50000000000E+03  0.00000000000E+00 0.  1.
         11   -1    0    0    0    0 -0.00000000000E+00 -0.00000000000E+00 -0.50000000000E+03  0.50000000000E+03  0.00000000000E+00 0. -1.
        -11    1    1    2    0    0  0.42221073644E+01 -0.53717299525E+01  0.49911991033E+03  0.49916667213E+03  0.00000000000E+00 0.  1.
         11    1    1    2    0    0  0.56642987302E+01 -0.45798915429E+01 -0.40487135023E+03  0.40493687153E+03  0.00000000000E+00 0. -1.
        -15    1    1    2    0    0 -0.86890837239E+01  0.77376895183E+01 -0.89263476101E+02  0.90036092261E+02  0.17770000000E+01 0. -1.
         15    1    1    2    0    0 -0.11973223707E+01  0.22139319771E+01 -0.49850839980E+01  0.58603640779E+01  0.17770000000E+01 0.  1.
</event>
<event>
 6    1  0.1823098E-004  0.4844154E+03  0.7546771E-02  0.9435373E-01
        -11   -1    0    0    0    0  0.00000000000E+00  0.00000000000E+00  0.50000000000E+03  0.50000000000E+03  0.00000000000E+00 0. -1.
         11   -1    0    0    0    0 -0.00000000000E+00 -0.00000000000E+00 -0.50000000000E+03  0.50000000000E+03  0.00000000000E+00 0. -1.
        -11    1    1    2    0    0 -0.33909503524E+01 -0.78241273623E+01  0.47845038546E+03  0.47852637008E+03  0.00000000000E+00 0. -1.
         11    1    1    2    0    0  0.96455253343E+01  0.28777827525E+02  0.95535879045E+01  0.31819342511E+02  0.00000000000E+00 0. -1.
        -15    1    1    2    0    0 -0.11313054577E+02 -0.28560106340E+02 -0.38802389789E+03  0.38924204287E+03  0.17770000000E+01 0. -1.
         15    1    1    2    0    0  0.50584795956E+01  0.76064061779E+01 -0.99980075480E+02  0.10041224454E+03  0.17770000000E+01 0.  1.
</event>
<event>
 6    1  0.1823098E-004  0.5071785E+03  0.7546771E-02  0.9383889E-01
        -11   -1    0    0    0    0  0.00000000000E+00  0.00000000000E+00  0.50000000000E+03  0.50000000000E+03  0.00000000000E+00 0. -1.
         11   -1    0    0    0    0 -0.00000000000E+00 -0.00000000000E+00 -0.50000000000E+03  0.50000000000E+03  0.00000000000E+00 0. -1.
        -11    1    1    2    0    0 -0.80787268489E+01 -0.29326527173E+01  0.22441191427E+03  0.22457643142E+03  0.00000000000E+00 0. -1.
         11    1    1    2    0    0 -0.92315336246E+02  0.24606986620E+02 -0.48347225850E+03  0.49282151925E+03  0.00000000000E+00 0. -1.
        -15    1    1    2    0    0  0.21699099669E+01 -0.33158476928E+01  0.57114632392E+02  0.57279510451E+02  0.17770000000E+01 0.  1.
         15    1    1    2    0    0  0.98224153128E+02 -0.18358486210E+02  0.20194571183E+03  0.22532253889E+03  0.17770000000E+01 0. -1.
</event>
<event>
 6    1  0.1823098E-004  0.5034232E+03  0.7546771E-02  0.9392182E-01
        -11   -1    0    0    0    0  0.00000000000E+00  0.00000000000E+00  0.50000000000E+03  0.50000000000E+03  0.00000000000E+00 0. -1.
         11   -1    0    0    0    0 -0.00000000000E+00 -0.00000000000E+00 -0.50000000000E+03  0.50000000000E+03  0.00000000000E+00 0.  1.
        -11    1    1    2    0    0 -0.70602516378E+01 -0.30065822222E+01  0.49651750346E+03  0.49657679963E+03  0.00000000000E+00 0. -1.
         11    1    1    2    0    0 -0.28854930274E+02 -0.21382335179E+01 -0.26941856544E+03  0.27096778857E+03  0.00000000000E+00 0.  1.
        -15    1    1    2    0    0  0.32298625614E+02 -0.55867170856E+01 -0.20447415312E+03  0.20709236984E+03  0.17770000000E+01 0.  1.
         15    1    1    2    0    0  0.36165562972E+01  0.10731532826E+02 -0.22624784905E+02  0.25363041955E+02  0.17770000000E+01 0. -1.
</event>
<event>
 6    1  0.1823098E-004  0.5008368E+03  0.7546771E-02  0.9397939E-01
        -11   -1    0    0    0    0  0.00000000000E+00  0.00000000000E+00  0.50000000000E+03  0.50000000000E+03  0.00000000000E+00 0. -1.
         11   -1    0    0    0    0 -0.00000000000E+00 -0.00000000000E+00 -0.50000000000E+03  0.50000000000E+03  0.00000000000E+00 0.  1.
        -11    1    1    2    0    0  0.10991015048E+02  0.82686257623E+01  0.41761050481E+03  0.41783693746E+03  0.00000000000E+00 0. -1.
         11    1    1    2    0    0 -0.27487210339E+02 -0.88458127792E+00 -0.49840506776E+03  0.49916324062E+03  0.00000000000E+00 0.  1.
        -15    1    1    2    0    0  0.13920772835E+02 -0.71808924994E+01  0.70357272507E+02  0.72101710500E+02  0.17770000000E+01 0. -1.
         15    1    1    2    0    0  0.25754224565E+01 -0.20315198493E+00  0.10437290449E+02  0.10898111417E+02  0.17770000000E+01 0.  1.
</event>
<event>
 6    1  0.1823098E-004  0.5003750E+03  0.7546771E-02  0.9398971E-01
        -11   -1    0    0    0    0  0.00000000000E+00  0.00000000000E+00  0.50000000000E+03  0.50000000000E+03  0.00000000000E+00 0. -1.
         11   -1    0    0    0    0 -0.00000000000E+00 -0.00000000000E+00 -0.50000000000E+03  0.50000000000E+03  0.00000000000E+00 0. -1.
        -11    1    1    2    0    0 -0.45313736072E+01 -0.17471299088E+01  0.12040378907E+03  0.12050169390E+03  0.00000000000E+00 0. -1.
         11    1    1    2    0    0 -0.15392896799E+02  0.10564824639E+02 -0.49927603498E+03  0.49962497525E+03  0.00000000000E+00 0. -1.
        -15    1    1    2    0    0  0.89755029589E+01 -0.20440810156E+01  0.27919258670E+03  0.27934995278E+03  0.17770000000E+01 0. -1.
         15    1    1    2    0    0  0.10948767447E+02 -0.67736137144E+01  0.99679659206E+02  0.10052337808E+03  0.17770000000E+01 0.  1.
</event>
<event>
 6    1  0.1823098E-004  0.5021919E+03  0.7546771E-02  0.9394918E-01
        -11   -1    0    0    0    0  0.00000000000E+00  0.00000000000E+00  0.50000000000E+03  0.50000000000E+03  0.00000000000E+00 0. -1.
         11   -1    0    0    0    0 -0.00000000000E+00 -0.00000000000E+00 -0.50000000000E+03  0.50000000000E+03  0.00000000000E+00 0. -1.
        -11    1    1    2    0    0  0.83369620027E+01  0.13255072808E+01  0.49773647409E+03  0.49780805492E+03  0.00000000000E+00 0. -1.
         11    1    1    2    0    0  0.50927414571E+01  0.75798226796E+01 -0.46606119201E+03  0.46615064563E+03  0.00000000000E+00 0. -1.
        -15    1    1    2    0    0 -0.17317981377E+01 -0.29739636126E+00 -0.36072471137E+01  0.43883402472E+01  0.17770000000E+01 0.  1.
         15    1    1    2    0    0 -0.11697905322E+02 -0.86079335992E+01 -0.28068034972E+02  0.31652959198E+02  0.17770000000E+01 0. -1.
</event>
<event>
 6    1  0.1823098E-004  0.5004840E+03  0.7546771E-02  0.9398727E-01
        -11   -1    0    0    0    0  0.00000000000E+00  0.00000000000E+00  0.50000000000E+03  0.50000000000E+03  0.00000000000E+00 0.  1.
         11   -1    0    0    0    0 -0.00000000000E+00 -0.00000000000E+00 -0.50000000000E+03  0.50000000000E+03  0.00000000000E+00 0.  1.
        -11    1    1    2    0    0 -0.47932736316E+01 -0.47500855405E+01  0.35838874823E+03  0.35845227526E+03  0.00000000000E+00 0.  1.
         11    1    1    2    0    0 -0.10846777617E+02  0.54836557027E+01 -0.49936814653E+03  0.49951603462E+03  0.00000000000E+00 0.  1.
        -15    1    1    2    0    0  0.12907449193E+01  0.13113171562E+01  0.26933176308E+02  0.27054376544E+02  0.17770000000E+01 0. -1.
         15    1    1    2    0    0  0.14349306330E+02 -0.20448873184E+01  0.11404622200E+03  0.11497731358E+03  0.17770000000E+01 0.  1.
</event>
<event>
 6    1  0.1823098E-004  0.5009660E+03  0.7546771E-02  0.9397651E-01
        -11   -1    0    0    0    0  0.00000000000E+00  0.00000000000E+00  0.50000000000E+03  0.50000000000E+03  0.00000000000E+00 0.  1.
         11   -1    0    0    0    0 -0.00000000000E+00 -0.00000000000E+00 -0.50000000000E+03  0.50000000000E+03  0.00000000000E+00 0.  1.
        -11    1    1    2    0    0  0.88223970690E+00  0.86707536859E+01  0.32047440024E+03  0.32059289064E+03  0.00000000000E+00 0.  1.
         11    1    1    2    0    0 -0.15034282515E+02  0.12008150719E+02 -0.49866293623E+03  0.49903401618E+03  0.00000000000E+00 0.  1.
        -15    1    1    2    0    0  0.32883233785E+01 -0.12172995924E+01  0.57266727099E+02  0.57401486483E+02  0.17770000000E+01 0. -1.
         15    1    1    2    0    0  0.10863719430E+02 -0.19461604812E+02  0.12092180889E+03  0.12297160670E+03  0.17770000000E+01 0.  1.
</event>
<event>
 6    1  0.1823098E-004  0.5050255E+03  0.7546771E-02  0.9388634E-01
        -11   -1    0    0    0    0  0.00000000000E+00  0.00000000000E+00  0.50000000000E+03  0.50000000000E+03  0.00000000000E+00 0. -1.
         11   -1    0    0    0    0 -0.00000000000E+00 -0.00000000000E+00 -0.50000000000E+03  0.50000000000E+03  0.00000000000E+00 0. -1.
        -11    1    1    2    0    0 -0.35141453302E+01 -0.84417289537E+01  0.49489003391E+03  0.49497450204E+03  0.00000000000E+00 0. -1.
         11    1    1    2    0    0 -0.15711148487E+02  0.35541041531E+02 -0.41468951641E+03  0.41650618343E+03  0.00000000000E+00 0. -1.
        -15    1    1    2    0    0  0.29069624056E+01  0.18168525305E+01 -0.51834230969E+01  0.64635120133E+01  0.17770000000E+01 0. -1.
         15    1    1    2    0    0  0.16318331411E+02 -0.28916165108E+02 -0.75017094406E+02  0.82055802517E+02  0.17770000000E+01 0.  1.
</event>
<event>
 6    1  0.1823098E-004  0.5022152E+03  0.7546771E-02  0.9394867E-01
        -11   -1    0    0    0    0  0.00000000000E+00  0.00000000000E+00  0.50000000000E+03  0.50000000000E+03  0.00000000000E+00 0.  1.
         11   -1    0    0    0    0 -0.00000000000E+00 -0.00000000000E+00 -0.50000000000E+03  0.50000000000E+03  0.00000000000E+00 0.  1.
        -11    1    1    2    0    0  0.10974465729E+02 -0.50230500017E+01  0.49763850988E+03  0.49778484956E+03  0.00000000000E+00 0.  1.
         11    1    1    2    0    0 -0.18452821045E+02  0.12288441748E+02 -0.45604644347E+03  0.45658500961E+03  0.00000000000E+00 0.  1.
        -15    1    1    2    0    0  0.12230400947E+01 -0.10963577043E+02 -0.22416913704E+02  0.25047387042E+02  0.17770000000E+01 0. -1.
         15    1    1    2    0    0  0.62553152211E+01  0.36981852969E+01 -0.19175152710E+02  0.20582753787E+02  0.17770000000E+01 0.  1.
</event>
<event>
 6    1  0.1823098E-004  0.5001916E+03  0.7546771E-02  0.9399381E-01
        -11   -1    0    0    0    0  0.00000000000E+00  0.00000000000E+00  0.50000000000E+03  0.50000000000E+03  0.00000000000E+00 0. -1.
         11   -1    0    0    0    0 -0.00000000000E+00 -0.00000000000E+00 -0.50000000000E+03  0.50000000000E+03  0.00000000000E+00 0. -1.
        -11    1    1    2    0    0 -0.39330240439E+02  0.31909992248E+01  0.40019827942E+03  0.40213892268E+03  0.00000000000E+00 0. -1.
         11    1    1    2    0    0  0.44283619268E+02 -0.37958234054E+01 -0.49782827543E+03  0.49980840231E+03  0.00000000000E+00 0. -1.
        -15    1    1    2    0    0  0.13828829088E+00  0.95519110653E+00  0.60261882830E+02  0.60295802217E+02  0.17770000000E+01 0. -1.
         15    1    1    2    0    0 -0.50916671198E+01 -0.35036692594E+00  0.37368113179E+02  0.37756872787E+02  0.17770000000E+01 0. -1.
</event>
<event>
 6    1  0.1823098E-004  0.5002439E+03  0.7546771E-02  0.9399264E-01
        -11   -1    0    0    0    0  0.00000000000E+00  0.00000000000E+00  0.50000000000E+03  0.50000000000E+03  0.00000000000E+00 0.  1.
         11   -1    0    0    0    0 -0.00000000000E+00 -0.00000000000E+00 -0.50000000000E+03  0.50000000000E+03  0.00000000000E+00 0.  1.
        -11    1    1    2    0    0  0.76796361516E+01  0.18608018854E+00  0.49969705288E+03  0.49975609660E+03  0.00000000000E+00 0.  1.
         11    1    1    2    0    0 -0.12374899313E+02  0.10170884927E+01 -0.34455773673E+03  0.34478138950E+03  0.00000000000E+00 0.  1.
        -15    1    1    2    0    0  0.66647766227E+01  0.39861984608E+00 -0.11046088435E+03  0.11067674934E+03  0.17770000000E+01 0. -1.
         15    1    1    2    0    0 -0.19695134609E+01 -0.16017885273E+01 -0.44678431799E+02  0.44785764555E+02  0.17770000000E+01 0.  1.
</event>
<event>
 6    1  0.1823098E-004  0.4905869E+03  0.7546771E-02  0.9421122E-01
        -11   -1    0    0    0    0  0.00000000000E+00  0.00000000000E+00  0.50000000000E+03  0.50000000000E+03  0.00000000000E+00 0.  1.
         11   -1    0    0    0    0 -0.00000000000E+00 -0.00000000000E+00 -0.50000000000E+03  0.50000000000E+03  0.00000000000E+00 0.  1.
        -11    1    1    2    0    0  0.62591884839E+01 -0.51423235457E+01  0.49178981296E+03  0.49185652487E+03  0.00000000000E+00 0.  1.
         11    1    1    2    0    0  0.68061486593E+01 -0.62785176317E+01 -0.48938598981E+03  0.48947358506E+03  0.00000000000E+00 0.  1.
        -15    1    1    2    0    0 -0.11369589698E+02  0.10078717651E+02 -0.34504735280E+01  0.15681569307E+02  0.17770000000E+01 0. -1.
         15    1    1    2    0    0 -0.16957474457E+01  0.13421235267E+01  0.10466503832E+01  0.29883207634E+01  0.17770000000E+01 0.  1.
</event>
<event>
 6    1  0.1823098E-004  0.5005887E+03  0.7546771E-02  0.9398493E-01
        -11   -1    0    0    0    0  0.00000000000E+00  0.00000000000E+00  0.50000000000E+03  0.50000000000E+03  0.00000000000E+00 0. -1.
         11   -1    0    0    0    0 -0.00000000000E+00 -0.00000000000E+00 -0.50000000000E+03  0.50000000000E+03  0.00000000000E+00 0.  1.
        -11    1    1    2    0    0  0.71127187268E+01 -0.39480333846E+01  0.31812400346E+03  0.31822799895E+03  0.00000000000E+00 0. -1.
         11    1    1    2    0    0  0.11485779560E+02  0.39805973208E+01 -0.49926330267E+03  0.49941126707E+03  0.00000000000E+00 0.  1.
        -15    1    1    2    0    0 -0.11942473667E+02  0.42850869026E+01  0.12038934908E+03  0.12106914449E+03  0.17770000000E+01 0. -1.
         15    1    1    2    0    0 -0.66560246193E+01 -0.43176508388E+01  0.60749950134E+02  0.61291589494E+02  0.17770000000E+01 0.  1.
</event>
<event>
 6    1  0.1823098E-004  0.5001777E+03  0.7546771E-02  0.9399412E-01
        -11   -1    0    0    0    0  0.00000000000E+00  0.00000000000E+00  0.50000000000E+03  0.50000000000E+03  0.00000000000E+00 0.  1.
         11   -1    0    0    0    0 -0.00000000000E+00 -0.00000000000E+00 -0.50000000000E+03  0.50000000000E+03  0.00000000000E+00 0. -1.
        -11    1    1    2    0    0  0.28487980710E+01 -0.88569533968E+00  0.52315400842E+02  0.52400393814E+02  0.00000000000E+00 0.  1.
         11    1    1    2    0    0  0.97815091992E+01  0.55065747530E+01 -0.49969624860E+03  0.49982230958E+03  0.00000000000E+00 0. -1.
        -15    1    1    2    0    0 -0.24350561253E+00 -0.38931453723E+01  0.22685747538E+03  0.22689796769E+03  0.17770000000E+01 0. -1.
         15    1    1    2    0    0 -0.12386801658E+02 -0.72773404105E+00  0.22052337238E+03  0.22087932892E+03  0.17770000000E+01 0.  1.
</event>
<event>
 6    1  0.1823098E-004  0.4900958E+03  0.7546771E-02  0.9422248E-01
        -11   -1    0    0    0    0  0.00000000000E+00  0.00000000000E+00  0.50000000000E+03  0.50000000000E+03  0.00000000000E+00 0.  1.
         11   -1    0    0    0    0 -0.00000000000E+00 -0.00000000000E+00 -0.50000000000E+03  0.50000000000E+03  0.00000000000E+00 0.  1.
        -11    1    1    2    0    0 -0.13559204905E+01 -0.67609596145E+01  0.48784030092E+03  0.48788903277E+03  0.00000000000E+00 0.  1.
         11    1    1    2    0    0 -0.13582679813E+01 -0.70364553101E+01 -0.49236168664E+03  0.49241383720E+03  0.00000000000E+00 0.  1.
        -15    1    1    2    0    0  0.28034801332E+01  0.12282886295E+02 -0.18993620927E+01  0.12864451094E+02  0.17770000000E+01 0. -1.
         15    1    1    2    0    0 -0.89291661405E-01  0.15145286297E+01  0.64207478104E+01  0.68326789341E+01  0.17770000000E+01 0.  1.
</event>
<event>
 6    1  0.1823098E-004  0.5040374E+03  0.7546771E-02  0.9390821E-01
        -11   -1    0    0    0    0  0.00000000000E+00  0.00000000000E+00  0.50000000000E+03  0.50000000000E+03  0.00000000000E+00 0.  1.
         11   -1    0    0    0    0 -0.00000000000E+00 -0.00000000000E+00 -0.50000000000E+03  0.50000000000E+03  0.00000000000E+00 0.  1.
        -11    1    1    2    0    0 -0.67672171855E+00 -0.75125573046E+01  0.49590522462E+03  0.49596258758E+03  0.00000000000E+00 0.  1.
         11    1    1    2    0    0  0.91892845823E+01  0.10201838285E+02 -0.46380019847E+03  0.46400338851E+03  0.00000000000E+00 0.  1.
        -15    1    1    2    0    0 -0.82479014300E+00  0.82956443173E+01 -0.53750196842E+01  0.10077031260E+02  0.17770000000E+01 0. -1.
         15    1    1    2    0    0 -0.76877727208E+01 -0.10984925298E+02 -0.26730006474E+02  0.29956992644E+02  0.17770000000E+01 0.  1.
</event>
<event>
 6    1  0.1823098E-004  0.5001143E+03  0.7546771E-02  0.9399554E-01
        -11   -1    0    0    0    0  0.00000000000E+00  0.00000000000E+00  0.50000000000E+03  0.50000000000E+03  0.00000000000E+00 0.  1.
         11   -1    0    0    0    0 -0.00000000000E+00 -0.00000000000E+00 -0.50000000000E+03  0.50000000000E+03  0.00000000000E+00 0. -1.
        -11    1    1    2    0    0 -0.16395075520E+02  0.34782205959E+01  0.49960468995E+03  0.49988572968E+03  0.00000000000E+00 0.  1.
         11    1    1    2    0    0  0.10363600293E+02  0.17130310173E+01 -0.17436371886E+03  0.17467983610E+03  0.00000000000E+00 0. -1.
        -15    1    1    2    0    0  0.29248700573E+01  0.12775011824E+01 -0.13615929269E+03  0.13620828752E+03  0.17770000000E+01 0.  1.
         15    1    1    2    0    0  0.31066051697E+01 -0.64687527956E+01 -0.18908167840E+03  0.18922614670E+03  0.17770000000E+01 0. -1.
</event>
<event>
 6    1  0.1823098E-004  0.5022604E+03  0.7546771E-02  0.9394766E-01
        -11   -1    0    0    0    0  0.00000000000E+00  0.00000000000E+00  0.50000000000E+03  0.50000000000E+03  0.00000000000E+00 0. -1.
         11   -1    0    0    0    0 -0.00000000000E+00 -0.00000000000E+00 -0.50000000000E+03  0.50000000000E+03  0.00000000000E+00 0.  1.
        -11    1    1    2    0    0  0.19743157759E+01  0.19696091556E+02  0.49734586252E+03  0.49773963164E+03  0.00000000000E+00 0. -1.
         11    1    1    2    0    0 -0.14459840594E+02  0.12923075575E+02 -0.17560488535E+03  0.17667248975E+03  0.00000000000E+00 0.  1.
        -15    1    1    2    0    0  0.22379277754E+02 -0.31898668494E+02 -0.22868834320E+03  0.23199110579E+03  0.17770000000E+01 0.  1.
         15    1    1    2    0    0 -0.98937529364E+01 -0.72049863715E+00 -0.93052633965E+02  0.93596772820E+02  0.17770000000E+01 0. -1.
</event>
<event>
 6    1  0.1823098E-004  0.5008425E+03  0.7546771E-02  0.9397927E-01
        -11   -1    0    0    0    0  0.00000000000E+00  0.00000000000E+00  0.50000000000E+03  0.50000000000E+03  0.00000000000E+00 0. -1.
         11   -1    0    0    0    0 -0.00000000000E+00 -0.00000000000E+00 -0.50000000000E+03  0.50000000000E+03  0.00000000000E+00 0.  1.
        -11    1    1    2    0    0 -0.80192876638E+01 -0.85878178588E+00  0.30625952045E+03  0.30636569708E+03  0.00000000000E+00 0. -1.
         11    1    1    2    0    0 -0.12644279913E+02 -0.10294984854E+02 -0.49889112768E+03  0.49915751202E+03  0.00000000000E+00 0.  1.
        -15    1    1    2    0    0  0.20436970697E+02  0.75794439962E+01  0.17683016176E+03  0.17817738796E+03  0.17770000000E+01 0. -1.
         15    1    1    2    0    0  0.22659688050E+00  0.35743226435E+01  0.15801445461E+02  0.16299402939E+02  0.17770000000E+01 0.  1.
</event>
<event>
 6    1  0.1823098E-004  0.5005244E+03  0.7546771E-02  0.9398637E-01
        -11   -1    0    0    0    0  0.00000000000E+00  0.00000000000E+00  0.50000000000E+03  0.50000000000E+03  0.00000000000E+00 0. -1.
         11   -1    0    0    0    0 -0.00000000000E+00 -0.00000000000E+00 -0.50000000000E+03  0.50000000000E+03  0.00000000000E+00 0.  1.
        -11    1    1    2    0    0  0.26580174306E+01 -0.59263321182E+01  0.39844595190E+03  0.39849888714E+03  0.00000000000E+00 0. -1.
         11    1    1    2    0    0 -0.51322396342E+01 -0.74822448417E+01 -0.49939314281E+03  0.49947555992E+03  0.00000000000E+00 0.  1.
        -15    1    1    2    0    0  0.35223338862E+01  0.69429008724E+01  0.57339540960E+02  0.57892930441E+02  0.17770000000E+01 0. -1.
         15    1    1    2    0    0 -0.10481116826E+01  0.64656760874E+01  0.43607649950E+02  0.44132622497E+02  0.17770000000E+01 0.  1.
</event>
<event>
 6    1  0.1823098E-004  0.4220479E+03  0.7546771E-02  0.9593410E-01
        -11   -1    0    0    0    0  0.00000000000E+00  0.00000000000E+00  0.50000000000E+03  0.50000000000E+03  0.00000000000E+00 0.  1.
         11   -1    0    0    0    0 -0.00000000000E+00 -0.00000000000E+00 -0.50000000000E+03  0.50000000000E+03  0.00000000000E+00 0.  1.
        -11    1    1    2    0    0 -0.60067873442E+01  0.58430839308E+01  0.40561343208E+03  0.40569998695E+03  0.00000000000E+00 0.  1.
         11    1    1    2    0    0 -0.61300345645E+02  0.15732818455E+02 -0.43739088503E+03  0.44194574357E+03  0.00000000000E+00 0.  1.
        -15    1    1    2    0    0  0.37824882222E+01  0.53841886660E+01  0.72091515011E+02  0.72412988961E+02  0.17770000000E+01 0.  1.
         15    1    1    2    0    0  0.63524644767E+02 -0.26960091052E+02 -0.40314062066E+02  0.79941280522E+02  0.17770000000E+01 0. -1.
</event>
<event>
 6    1  0.1823098E-004  0.5004351E+03  0.7546771E-02  0.9398837E-01
        -11   -1    0    0    0    0  0.00000000000E+00  0.00000000000E+00  0.50000000000E+03  0.50000000000E+03  0.00000000000E+00 0. -1.
         11   -1    0    0    0    0 -0.00000000000E+00 -0.00000000000E+00 -0.50000000000E+03  0.50000000000E+03  0.00000000000E+00 0. -1.
        -11    1    1    2    0    0  0.64252070846E+01  0.40052950949E+01  0.49950755859E+03  0.49956493748E+03  0.00000000000E+00 0. -1.
         11    1    1    2    0    0 -0.14869994078E+02 -0.96642006310E+00 -0.31069533609E+03  0.31105247558E+03  0.00000000000E+00 0. -1.
        -15    1    1    2    0    0  0.10524321559E+02 -0.13088767792E+00 -0.13282798426E+03  0.13325618037E+03  0.17770000000E+01 0. -1.
         15    1    1    2    0    0 -0.20795345647E+01 -0.29079873539E+01 -0.55984238237E+02  0.56126406569E+02  0.17770000000E+01 0.  1.
</event>
<event>
 6    1  0.1823098E-004  0.5000414E+03  0.7546771E-02  0.9399717E-01
        -11   -1    0    0    0    0  0.00000000000E+00  0.00000000000E+00  0.50000000000E+03  0.50000000000E+03  0.00000000000E+00 0. -1.
         11   -1    0    0    0    0 -0.00000000000E+00 -0.00000000000E+00 -0.50000000000E+03  0.50000000000E+03  0.00000000000E+00 0. -1.
        -11    1    1    2    0    0 -0.87260096419E+00  0.17073239451E-01  0.65675107942E+01  0.66252488233E+01  0.00000000000E+00 0. -1.
         11    1    1    2    0    0  0.15561418721E+02 -0.98802421223E+01 -0.49961872027E+03  0.49995864087E+03  0.00000000000E+00 0. -1.
        -15    1    1    2    0    0 -0.38222093509E+01  0.32882806924E+01  0.21868775559E+03  0.21875308969E+03  0.17770000000E+01 0.  1.
         15    1    1    2    0    0 -0.10866608406E+02  0.65748881905E+01  0.27436345389E+03  0.27466302061E+03  0.17770000000E+01 0. -1.
</event>
<event>
 6    1  0.1823098E-004  0.5000923E+03  0.7546771E-02  0.9399603E-01
        -11   -1    0    0    0    0  0.00000000000E+00  0.00000000000E+00  0.50000000000E+03  0.50000000000E+03  0.00000000000E+00 0. -1.
         11   -1    0    0    0    0 -0.00000000000E+00 -0.00000000000E+00 -0.50000000000E+03  0.50000000000E+03  0.00000000000E+00 0.  1.
        -11    1    1    2    0    0  0.51291699791E+00  0.71034310818E+01  0.49985698477E+03  0.49990771853E+03  0.00000000000E+00 0. -1.
         11    1    1    2    0    0  0.33741375902E+01 -0.65789013320E+01 -0.23068753307E+03  0.23080598922E+03  0.00000000000E+00 0.  1.
        -15    1    1    2    0    0 -0.15588609915E+01  0.25579641198E+01 -0.92192804600E+02  0.92258572377E+02  0.17770000000E+01 0. -1.
         15    1    1    2    0    0 -0.23281935967E+01 -0.30824938697E+01 -0.17697664710E+03  0.17702771987E+03  0.17770000000E+01 0.  1.
</event>
<event>
 6    1  0.1823098E-004  0.5043711E+03  0.7546771E-02  0.9390082E-01
        -11   -1    0    0    0    0  0.00000000000E+00  0.00000000000E+00  0.50000000000E+03  0.50000000000E+03  0.00000000000E+00 0.  1.
         11   -1    0    0    0    0 -0.00000000000E+00 -0.00000000000E+00 -0.50000000000E+03  0.50000000000E+03  0.00000000000E+00 0. -1.
        -11    1    1    2    0    0 -0.69243694279E+02 -0.70403344676E+01  0.49071763715E+03  0.49562894883E+03  0.00000000000E+00 0.  1.
         11    1    1    2    0    0  0.69357070336E+02  0.91625732366E+01 -0.17849059222E+03  0.19171136499E+03  0.00000000000E+00 0. -1.
        -15    1    1    2    0    0 -0.64200229875E+00 -0.50931382788E+01 -0.29640316214E+03  0.29645293806E+03  0.17770000000E+01 0. -1.
         15    1    1    2    0    0  0.52862624104E+00  0.29708995098E+01 -0.15823882780E+02  0.16206748127E+02  0.17770000000E+01 0.  1.
</event>
<event>
 6    1  0.1823098E-004  0.5001688E+03  0.7546771E-02  0.9399432E-01
        -11   -1    0    0    0    0  0.00000000000E+00  0.00000000000E+00  0.50000000000E+03  0.50000000000E+03  0.00000000000E+00 0.  1.
         11   -1    0    0    0    0 -0.00000000000E+00 -0.00000000000E+00 -0.50000000000E+03  0.50000000000E+03  0.00000000000E+00 0. -1.
        -11    1    1    2    0    0 -0.17646847161E+01  0.83917330297E+01  0.49975763770E+03  0.49983120324E+03  0.00000000000E+00 0.  1.
         11    1    1    2    0    0 -0.22637642853E+01  0.93469722382E+00 -0.17361668707E+03  0.17363396072E+03  0.00000000000E+00 0. -1.
        -15    1    1    2    0    0  0.43679089816E+01  0.62323543396E+00 -0.54978673542E+02  0.55184049550E+02  0.17770000000E+01 0. -1.
         15    1    1    2    0    0 -0.33945998021E+00 -0.99496656875E+01 -0.27116227709E+03  0.27135078649E+03  0.17770000000E+01 0. -1.
</event>
<event>
 6    1  0.1823098E-004  0.5012979E+03  0.7546771E-02  0.9396910E-01
        -11   -1    0    0    0    0  0.00000000000E+00  0.00000000000E+00  0.50000000000E+03  0.50000000000E+03  0.00000000000E+00 0.  1.
         11   -1    0    0    0    0 -0.00000000000E+00 -0.00000000000E+00 -0.50000000000E+03  0.50000000000E+03  0.00000000000E+00 0. -1.
        -11    1    1    2    0    0  0.87710775198E+01 -0.30356515734E+01  0.49861567746E+03  0.49870205614E+03  0.00000000000E+00 0.  1.
         11    1    1    2    0    0 -0.89937791119E+01 -0.14943860517E+02 -0.24523513376E+03  0.24585458682E+03  0.00000000000E+00 0. -1.
        -15    1    1    2    0    0 -0.12820128804E+01  0.54356769181E+01 -0.90625681128E+01  0.10792497875E+02  0.17770000000E+01 0.  1.
         15    1    1    2    0    0  0.15047144725E+01  0.12543835172E+02 -0.24431797559E+03  0.24465085917E+03  0.17770000000E+01 0. -1.
</event>
<event>
 6    1  0.1823098E-004  0.5000454E+03  0.7546771E-02  0.9399708E-01
        -11   -1    0    0    0    0  0.00000000000E+00  0.00000000000E+00  0.50000000000E+03  0.50000000000E+03  0.00000000000E+00 0. -1.
         11   -1    0    0    0    0 -0.00000000000E+00 -0.00000000000E+00 -0.50000000000E+03  0.50000000000E+03  0.00000000000E+00 0.  1.
        -11    1    1    2    0    0  0.13827514811E+01 -0.20941640257E+02  0.49951385944E+03  0.49995455801E+03  0.00000000000E+00 0. -1.
         11    1    1    2    0    0 -0.40022260660E+01  0.11396829942E+02 -0.28299643746E+03  0.28325410705E+03  0.00000000000E+00 0.  1.
        -15    1    1    2    0    0  0.22045084137E+01  0.65423538535E+01 -0.12148155662E+03  0.12169054433E+03  0.17770000000E+01 0.  1.
         15    1    1    2    0    0  0.41496617131E+00  0.30024564622E+01 -0.95035865363E+02  0.95100790617E+02  0.17770000000E+01 0. -1.
</event>
<event>
 6    1  0.1823098E-004  0.5003756E+03  0.7546771E-02  0.9398970E-01
        -11   -1    0    0    0    0  0.00000000000E+00  0.00000000000E+00  0.50000000000E+03  0.50000000000E+03  0.00000000000E+00 0.  1.
         11   -1    0    0    0    0 -0.00000000000E+00 -0.00000000000E+00 -0.50000000000E+03  0.50000000000E+03  0.00000000000E+00 0. -1.
        -11    1    1    2    0    0  0.15082262732E+02 -0.20024777589E+02  0.49899511179E+03  0.49962444692E+03  0.00000000000E+00 0.  1.
         11    1    1    2    0    0 -0.10508166828E+02  0.12485216219E+02 -0.11145604934E+03  0.11264436572E+03  0.00000000000E+00 0. -1.
        -15    1    1    2    0    0 -0.51686383329E+01  0.18193006151E+01 -0.13911623321E+03  0.13923544358E+03  0.17770000000E+01 0. -1.
         15    1    1    2    0    0  0.59454242917E+00  0.57202607545E+01 -0.24842282924E+03  0.24849574379E+03  0.17770000000E+01 0.  1.
</event>
<event>
 6    1  0.1823098E-004  0.5022890E+03  0.7546771E-02  0.9394702E-01
        -11   -1    0    0    0    0  0.00000000000E+00  0.00000000000E+00  0.50000000000E+03  0.50000000000E+03  0.00000000000E+00 0.  1.
         11   -1    0    0    0    0 -0.00000000000E+00 -0.00000000000E+00 -0.50000000000E+03  0.50000000000E+03  0.00000000000E+00 0.  1.
        -11    1    1    2    0    0 -0.53892127216E+01 -0.10397548555E+02  0.45724039495E+03  0.45739034905E+03  0.00000000000E+00 0.  1.
         11    1    1    2    0    0 -0.93174466164E+01  0.11860071515E+01 -0.49762238512E+03  0.49771102017E+03  0.00000000000E+00 0.  1.
        -15    1    1    2    0    0  0.11698028679E+02  0.39437370320E+01  0.20107108291E+02  0.23661159515E+02  0.17770000000E+01 0. -1.
         15    1    1    2    0    0  0.30086306591E+01  0.52678043719E+01  0.20274881884E+02  0.21237471266E+02  0.17770000000E+01 0.  1.
</event>
<event>
 6    1  0.1823098E-004  0.5060504E+03  0.7546771E-02  0.9386372E-01
        -11   -1    0    0    0    0  0.00000000000E+00  0.00000000000E+00  0.50000000000E+03  0.50000000000E+03  0.00000000000E+00 0. -1.
         11   -1    0    0    0    0 -0.00000000000E+00 -0.00000000000E+00 -0.50000000000E+03  0.50000000000E+03  0.00000000000E+00 0.  1.
        -11    1    1    2    0    0  0.68983130761E+01  0.12143595996E+02  0.49375214368E+03  0.49394962601E+03  0.00000000000E+00 0. -1.
         11    1    1    2    0    0 -0.92714961339E+01  0.19782592600E+02 -0.43911532085E+03  0.43965847725E+03  0.00000000000E+00 0.  1.
        -15    1    1    2    0    0  0.81469518919E+01 -0.29832732054E+02 -0.41540666878E+02  0.51818427809E+02  0.17770000000E+01 0.  1.
         15    1    1    2    0    0 -0.57737688341E+01 -0.20934565431E+01 -0.13096155955E+02  0.14573468930E+02  0.17770000000E+01 0. -1.
</event>
<event>
 6    1  0.1823098E-004  0.5038039E+03  0.7546771E-02  0.9391338E-01
        -11   -1    0    0    0    0  0.00000000000E+00  0.00000000000E+00  0.50000000000E+03  0.50000000000E+03  0.00000000000E+00 0.  1.
         11   -1    0    0    0    0 -0.00000000000E+00 -0.00000000000E+00 -0.50000000000E+03  0.50000000000E+03  0.00000000000E+00 0.  1.
        -11    1    1    2    0    0 -0.57966088410E+01 -0.17740777355E+01  0.43943221710E+03  0.43947402819E+03  0.00000000000E+00 0.  1.
         11    1    1    2    0    0  0.53991896043E+01 -0.11315090455E+02 -0.49603768169E+03  0.49619609448E+03  0.00000000000E+00 0.  1.
        -15    1    1    2    0    0 -0.41310935375E+00  0.21667340126E+02  0.41393315307E+02  0.46756909313E+02  0.17770000000E+01 0.  1.
         15    1    1    2    0    0  0.81052859047E+00 -0.85781719355E+01  0.15212149279E+02  0.17572968020E+02  0.17770000000E+01 0. -1.
</event>
<event>
 6    1  0.1823098E-004  0.5052040E+03  0.7546771E-02  0.9388240E-01
        -11   -1    0    0    0    0  0.00000000000E+00  0.00000000000E+00  0.50000000000E+03  0.50000000000E+03  0.00000000000E+00 0. -1.
         11   -1    0    0    0    0 -0.00000000000E+00 -0.00000000000E+00 -0.50000000000E+03  0.50000000000E+03  0.00000000000E+00 0. -1.
        -11    1    1    2    0    0  0.13149991128E+02  0.96041199022E+01  0.49452802283E+03  0.49479604561E+03  0.00000000000E+00 0. -1.
         11    1    1    2    0    0  0.71039926686E+01 -0.94930271109E+01 -0.44982008426E+03  0.44997632435E+03  0.00000000000E+00 0. -1.
        -15    1    1    2    0    0 -0.42806412633E+01  0.81438906233E+01 -0.31063155868E+01  0.98718675859E+01  0.17770000000E+01 0. -1.
         15    1    1    2    0    0 -0.15973342534E+02 -0.82549834146E+01 -0.41601622988E+02  0.45355762447E+02  0.17770000000E+01 0.  1.
</event>
<event>
 6    1  0.1823098E-004  0.5003702E+03  0.7546771E-02  0.9398982E-01
        -11   -1    0    0    0    0  0.00000000000E+00  0.00000000000E+00  0.50000000000E+03  0.50000000000E+03  0.00000000000E+00 0.  1.
         11   -1    0    0    0    0 -0.00000000000E+00 -0.00000000000E+00 -0.50000000000E+03  0.50000000000E+03  0.00000000000E+00 0. -1.
        -11    1    1    2    0    0 -0.48586776343E+01 -0.51652634537E+01  0.49957942740E+03  0.49962975389E+03  0.00000000000E+00 0.  1.
         11    1    1    2    0    0 -0.91749945666E+00 -0.49465912018E+01 -0.19961095984E+02  0.20585332706E+02  0.00000000000E+00 0. -1.
        -15    1    1    2    0    0  0.14313918945E+01  0.19176147486E+01 -0.15743378260E+03  0.15746199466E+03  0.17770000000E+01 0.  1.
         15    1    1    2    0    0  0.43447851965E+01  0.81942399069E+01 -0.32218454881E+03  0.32232291875E+03  0.17770000000E+01 0. -1.
</event>
<event>
 6    1  0.1823098E-004  0.5005481E+03  0.7546771E-02  0.9398584E-01
        -11   -1    0    0    0    0  0.00000000000E+00  0.00000000000E+00  0.50000000000E+03  0.50000000000E+03  0.00000000000E+00 0. -1.
         11   -1    0    0    0    0 -0.00000000000E+00 -0.00000000000E+00 -0.50000000000E+03  0.50000000000E+03  0.00000000000E+00 0.  1.
        -11    1    1    2    0    0  0.15857557580E+02  0.85870087285E+01  0.49912626549E+03  0.49945192737E+03  0.00000000000E+00 0. -1.
         11    1    1    2    0    0 -0.23887812690E+02 -0.43276150002E+01 -0.42201179721E+03  0.42270948988E+03  0.00000000000E+00 0.  1.
        -15    1    1    2    0    0  0.23395734567E+01  0.23210961320E+00 -0.15910840770E+02  0.16181472796E+02  0.17770000000E+01 0.  1.
         15    1    1    2    0    0  0.56906816533E+01 -0.44915033414E+01 -0.61203627504E+02  0.61657109959E+02  0.17770000000E+01 0.  1.
</event>
<event>
 6    1  0.1823098E-004  0.5006057E+03  0.7546771E-02  0.9398455E-01
        -11   -1    0    0    0    0  0.00000000000E+00  0.00000000000E+00  0.50000000000E+03  0.50000000000E+03  0.00000000000E+00 0. -1.
         11   -1    0    0    0    0 -0.00000000000E+00 -0.00000000000E+00 -0.50000000000E+03  0.50000000000E+03  0.00000000000E+00 0.  1.
        -11    1    1    2    0    0  0.16379305174E+02 -0.27768787167E+01  0.49911786781E+03  0.49939427175E+03  0.00000000000E+00 0. -1.
         11    1    1    2    0    0 -0.19021649093E+02 -0.94391770378E+01 -0.23309541350E+03  0.23406066093E+03  0.00000000000E+00 0.  1.
        -15    1    1    2    0    0  0.34960416869E+01  0.19846659802E+01 -0.33214424138E+02  0.33503983440E+02  0.17770000000E+01 0. -1.
         15    1    1    2    0    0 -0.85369776829E+00  0.10231389774E+02 -0.23280803017E+03  0.23304108388E+03  0.17770000000E+01 0.  1.
</event>
<event>
 6    1  0.1823098E-004  0.5003303E+03  0.7546771E-02  0.9399071E-01
        -11   -1    0    0    0    0  0.00000000000E+00  0.00000000000E+00  0.50000000000E+03  0.50000000000E+03  0.00000000000E+00 0.  1.
         11   -1    0    0    0    0 -0.00000000000E+00 -0.00000000000E+00 -0.50000000000E+03  0.50000000000E+03  0.00000000000E+00 0. -1.
        -11    1    1    2    0    0 -0.10175856684E+02 -0.11990185017E+02  0.49942214945E+03  0.49966968685E+03  0.00000000000E+00 0.  1.
         11    1    1    2    0    0 -0.49912714523E+01  0.62165244076E+01 -0.12102088575E+03  0.12128319238E+03  0.00000000000E+00 0. -1.
        -15    1    1    2    0    0  0.16685482090E+02  0.35715126958E+01 -0.24167473785E+03  0.24228288768E+03  0.17770000000E+01 0.  1.
         15    1    1    2    0    0 -0.15183539535E+01  0.22021479136E+01 -0.13672652585E+03  0.13676423310E+03  0.17770000000E+01 0. -1.
</event>
<event>
 6    1  0.1948266E-004  0.5146592E+03  0.7546771E-02  0.9367593E-01
        -11   -1    0    0    0    0  0.00000000000E+00  0.00000000000E+00  0.50000000000E+03  0.50000000000E+03  0.00000000000E+00 0.  1.
         11   -1    0    0    0    0 -0.00000000000E+00 -0.00000000000E+00 -0.50000000000E+03  0.50000000000E+03  0.00000000000E+00 0.  1.
        -11    1    1    2    0    0  0.37484862241E+01 -0.55333228356E+01  0.45904309799E+03  0.45909174968E+03  0.00000000000E+00 0.  1.
         11    1    1    2    0    0  0.19941961020E+01  0.28216135663E+02 -0.48451583428E+03  0.48534082952E+03  0.00000000000E+00 0.  1.
        -15    1    1    2    0    0 -0.40911351445E+01 -0.26779849312E+02 -0.24337670059E+01  0.27257635018E+02  0.17770000000E+01 0. -1.
         15    1    1    2    0    0 -0.16515471816E+01  0.40970364851E+01  0.27906503292E+02  0.28309785783E+02  0.17770000000E+01 0. -1.
</event>
<event>
 6    1  0.1823098E-004  0.4530349E+03  0.7546771E-02  0.9511501E-01
        -11   -1    0    0    0    0  0.00000000000E+00  0.00000000000E+00  0.50000000000E+03  0.50000000000E+03  0.00000000000E+00 0.  1.
         11   -1    0    0    0    0 -0.00000000000E+00 -0.00000000000E+00 -0.50000000000E+03  0.50000000000E+03  0.00000000000E+00 0.  1.
        -11    1    1    2    0    0 -0.10717990288E+02 -0.46707429379E+00  0.46968871938E+03  0.46981122442E+03  0.00000000000E+00 0.  1.
         11    1    1    2    0    0 -0.60442743702E+02 -0.18904796206E+02 -0.43532197924E+03  0.43990446940E+03  0.00000000000E+00 0.  1.
        -15    1    1    2    0    0  0.74670805463E+01 -0.69430933432E+01  0.43396517004E+01  0.11222929339E+02  0.17770000000E+01 0. -1.
         15    1    1    2    0    0  0.63693653443E+02  0.26314963842E+02 -0.38706391839E+02  0.79061376848E+02  0.17770000000E+01 0.  1.
</event>
<event>
 6    1  0.1823098E-004  0.5009073E+03  0.7546771E-02  0.9397782E-01
        -11   -1    0    0    0    0  0.00000000000E+00  0.00000000000E+00  0.50000000000E+03  0.50000000000E+03  0.00000000000E+00 0. -1.
         11   -1    0    0    0    0 -0.00000000000E+00 -0.00000000000E+00 -0.50000000000E+03  0.50000000000E+03  0.00000000000E+00 0.  1.
        -11    1    1    2    0    0  0.21264221354E+02 -0.21100814371E+02  0.49819282260E+03  0.49909267673E+03  0.00000000000E+00 0. -1.
         11    1    1    2    0    0 -0.15234817513E+02  0.28917810790E+02 -0.25648284927E+03  0.25855713375E+03  0.00000000000E+00 0.  1.
        -15    1    1    2    0    0 -0.21400139620E+00  0.22822321420E+01 -0.12758789411E+03  0.12762085579E+03  0.17770000000E+01 0. -1.
         15    1    1    2    0    0 -0.58154024453E+01 -0.10099228562E+02 -0.11412207922E+03  0.11472933372E+03  0.17770000000E+01 0.  1.
</event>
<event>
 6    1  0.1823098E-004  0.5002226E+03  0.7546771E-02  0.9399312E-01
        -11   -1    0    0    0    0  0.00000000000E+00  0.00000000000E+00  0.50000000000E+03  0.50000000000E+03  0.00000000000E+00 0.  1.
         11   -1    0    0    0    0 -0.00000000000E+00 -0.00000000000E+00 -0.50000000000E+03  0.50000000000E+03  0.00000000000E+00 0. -1.
        -11    1    1    2    0    0  0.76316500752E+01  0.79351314867E+01  0.49965616318E+03  0.49977744026E+03  0.00000000000E+00 0.  1.
         11    1    1    2    0    0 -0.25332073415E+01 -0.11586984972E+02 -0.19139915677E+03  0.19176629676E+03  0.00000000000E+00 0. -1.
        -15    1    1    2    0    0 -0.20067687749E+01  0.61629756515E+01 -0.19057182649E+03  0.19069029386E+03  0.17770000000E+01 0.  1.
         15    1    1    2    0    0 -0.30916739588E+01 -0.25111221663E+01 -0.11768517992E+03  0.11776596912E+03  0.17770000000E+01 0. -1.
</event>
<event>
 6    1  0.1823098E-004  0.5015705E+03  0.7546771E-02  0.9396302E-01
        -11   -1    0    0    0    0  0.00000000000E+00  0.00000000000E+00  0.50000000000E+03  0.50000000000E+03  0.00000000000E+00 0. -1.
         11   -1    0    0    0    0 -0.00000000000E+00 -0.00000000000E+00 -0.50000000000E+03  0.50000000000E+03  0.00000000000E+00 0. -1.
        -11    1    1    2    0    0  0.15682740758E+00  0.93064529977E+01  0.49834259191E+03  0.49842950712E+03  0.00000000000E+00 0. -1.
         11    1    1    2    0    0  0.11015185185E+02  0.42836125601E+01 -0.43661889355E+03  0.43677882486E+03  0.00000000000E+00 0. -1.
        -15    1    1    2    0    0 -0.73107940268E+01 -0.11835454913E+02 -0.35535536654E+02  0.38202850635E+02  0.17770000000E+01 0.  1.
         15    1    1    2    0    0 -0.38612185660E+01 -0.17546106446E+01 -0.26188161706E+02  0.26588817384E+02  0.17770000000E+01 0. -1.
</event>
<event>
 6    1  0.1823098E-004  0.5000682E+03  0.7546771E-02  0.9399657E-01
        -11   -1    0    0    0    0  0.00000000000E+00  0.00000000000E+00  0.50000000000E+03  0.50000000000E+03  0.00000000000E+00 0.  1.
         11   -1    0    0    0    0 -0.00000000000E+00 -0.00000000000E+00 -0.50000000000E+03  0.50000000000E+03  0.00000000000E+00 0.  1.
        -11    1    1    2    0    0  0.99999144239E+01  0.13554895481E+02  0.49964795006E+03  0.49993180282E+03  0.00000000000E+00 0.  1.
         11    1    1    2    0    0 -0.43828149704E+01 -0.19873975606E+01 -0.67257711231E+02  0.67429656207E+02  0.00000000000E+00 0.  1.
        -15    1    1    2    0    0 -0.19921917264E+01 -0.68771142793E+01 -0.31402227210E+03  0.31410891206E+03  0.17770000000E+01 0.  1.
         15    1    1    2    0    0 -0.36249077271E+01 -0.46903836409E+01 -0.11836796672E+03  0.11852962891E+03  0.17770000000E+01 0. -1.
</event>
<event>
 6    1  0.1823098E-004  0.5014908E+03  0.7546771E-02  0.9396480E-01
        -11   -1    0    0    0    0  0.00000000000E+00  0.00000000000E+00  0.50000000000E+03  0.50000000000E+03  0.00000000000E+00 0. -1.
         11   -1    0    0    0    0 -0.00000000000E+00 -0.00000000000E+00 -0.50000000000E+03  0.50000000000E+03  0.00000000000E+00 0.  1.
        -11    1    1    2    0    0 -0.12997967332E+01  0.14433372642E+02  0.44408660338E+03  0.44432299403E+03  0.00000000000E+00 0. -1.
         11    1    1    2    0    0 -0.12048182487E+02 -0.16375776135E+02 -0.49809447029E+03  0.49850920360E+03  0.00000000000E+00 0.  1.
        -15    1    1    2    0    0  0.15077985592E+02  0.35808039432E+01  0.42173679913E+02  0.44966040662E+02  0.17770000000E+01 0.  1.
         15    1    1    2    0    0 -0.17300063717E+01 -0.16384004503E+01  0.11834186992E+02  0.12201761710E+02  0.17770000000E+01 0. -1.
</event>
<event>
 6    1  0.1823098E-004  0.5067531E+03  0.7546771E-02  0.9384825E-01
        -11   -1    0    0    0    0  0.00000000000E+00  0.00000000000E+00  0.50000000000E+03  0.50000000000E+03  0.00000000000E+00 0.  1.
         11   -1    0    0    0    0 -0.00000000000E+00 -0.00000000000E+00 -0.50000000000E+03  0.50000000000E+03  0.00000000000E+00 0. -1.
        -11    1    1    2    0    0  0.87017305793E+01  0.83165760142E+00  0.24719337703E+03  0.24734788743E+03  0.00000000000E+00 0.  1.
         11    1    1    2    0    0  0.67629417948E+02  0.77349868803E+01 -0.48852731843E+03  0.49324690475E+03  0.00000000000E+00 0. -1.
        -15    1    1    2    0    0 -0.18467783183E+02 -0.11786298071E+02  0.14731607759E+03  0.14894683710E+03  0.17770000000E+01 0. -1.
         15    1    1    2    0    0 -0.57863365345E+02  0.32196535889E+01  0.94017863807E+02  0.11045837072E+03  0.17770000000E+01 0.  1.
</event>
<event>
 6    1  0.1823098E-004  0.5014585E+03  0.7546771E-02  0.9396552E-01
        -11   -1    0    0    0    0  0.00000000000E+00  0.00000000000E+00  0.50000000000E+03  0.50000000000E+03  0.00000000000E+00 0.  1.
         11   -1    0    0    0    0 -0.00000000000E+00 -0.00000000000E+00 -0.50000000000E+03  0.50000000000E+03  0.00000000000E+00 0. -1.
        -11    1    1    2    0    0  0.41690391204E+00 -0.57496266657E+01  0.33540253717E+03  0.33545207401E+03  0.00000000000E+00 0.  1.
         11    1    1    2    0    0  0.69177310740E+01 -0.18895526798E+02 -0.49813527183E+03  0.49854151781E+03  0.00000000000E+00 0. -1.
        -15    1    1    2    0    0 -0.81686162279E+01  0.28473559716E+00  0.40838768976E+02  0.41686570330E+02  0.17770000000E+01 0. -1.
         15    1    1    2    0    0  0.83398124186E+00  0.24360417866E+02  0.12189396569E+03  0.12431983785E+03  0.17770000000E+01 0.  1.
</event>
<event>
 6    1  0.1823098E-004  0.4779196E+03  0.7546771E-02  0.9450618E-01
        -11   -1    0    0    0    0  0.00000000000E+00  0.00000000000E+00  0.50000000000E+03  0.50000000000E+03  0.00000000000E+00 0.  1.
         11   -1    0    0    0    0 -0.00000000000E+00 -0.00000000000E+00 -0.50000000000E+03  0.50000000000E+03  0.00000000000E+00 0.  1.
        -11    1    1    2    0    0  0.39579300104E+01 -0.93931119144E+01  0.47453608601E+03  0.47464554427E+03  0.00000000000E+00 0.  1.
         11    1    1    2    0    0 -0.41243101131E+02  0.24902135738E+02 -0.47964642335E+03  0.48205995601E+03  0.00000000000E+00 0.  1.
        -15    1    1    2    0    0  0.32441042559E+02 -0.14094644681E+02 -0.66553773177E+00  0.35421475414E+02  0.17770000000E+01 0. -1.
         15    1    1    2    0    0  0.48441285615E+01 -0.14143791427E+01  0.57758750721E+01  0.78730243063E+01  0.17770000000E+01 0.  1.
</event>
<event>
 6    1  0.1823098E-004  0.4852088E+03  0.7546771E-02  0.9433528E-01
        -11   -1    0    0    0    0  0.00000000000E+00  0.00000000000E+00  0.50000000000E+03  0.50000000000E+03  0.00000000000E+00 0.  1.
         11   -1    0    0    0    0 -0.00000000000E+00 -0.00000000000E+00 -0.50000000000E+03  0.50000000000E+03  0.00000000000E+00 0. -1.
        -11    1    1    2    0    0 -0.17479776671E+01  0.10599742667E+02  0.48076795579E+03  0.48088796750E+03  0.00000000000E+00 0.  1.
         11    1    1    2    0    0 -0.11279998050E+00  0.14668128876E+02 -0.48968157805E+03  0.48990122944E+03  0.00000000000E+00 0. -1.
        -15    1    1    2    0    0  0.40158157723E+01 -0.42138375035E+01  0.43678522958E+01  0.74912659478E+01  0.17770000000E+01 0.  1.
         15    1    1    2    0    0 -0.21550381247E+01 -0.21054034040E+02  0.45457699655E+01  0.21719537110E+02  0.17770000000E+01 0. -1.
</event>
<event>
 6    1  0.1823098E-004  0.5008216E+03  0.7546771E-02  0.9397973E-01
        -11   -1    0    0    0    0  0.00000000000E+00  0.00000000000E+00  0.50000000000E+03  0.50000000000E+03  0.00000000000E+00 0. -1.
         11   -1    0    0    0    0 -0.00000000000E+00 -0.00000000000E+00 -0.50000000000E+03  0.50000000000E+03  0.00000000000E+00 0.  1.
        -11    1    1    2    0    0 -0.54649094240E+00  0.90108705026E+01  0.49909671749E+03  0.49917835275E+03  0.00000000000E+00 0. -1.
         11    1    1    2    0    0  0.14572874187E+02  0.56567621561E+01 -0.10640793290E+03  0.10755006185E+03  0.00000000000E+00 0.  1.
        -15    1    1    2    0    0 -0.21035280451E+01 -0.34627714154E+01 -0.12426699877E+03  0.12434572903E+03  0.17770000000E+01 0.  1.
         15    1    1    2    0    0 -0.11922855200E+02 -0.11204861243E+02 -0.26842178582E+03  0.26892585636E+03  0.17770000000E+01 0.  1.
</event>
<event>
 6    1  0.1823098E-004  0.4730614E+03  0.7546771E-02  0.9462190E-01
        -11   -1    0    0    0    0  0.00000000000E+00  0.00000000000E+00  0.50000000000E+03  0.50000000000E+03  0.00000000000E+00 0. -1.
         11   -1    0    0    0    0 -0.00000000000E+00 -0.00000000000E+00 -0.50000000000E+03  0.50000000000E+03  0.00000000000E+00 0. -1.
        -11    1    1    2    0    0 -0.74429433902E+01 -0.53024732800E+01  0.47873106032E+03  0.47881827632E+03  0.00000000000E+00 0. -1.
         11    1    1    2    0    0 -0.38059290542E+02 -0.35686838278E+00 -0.46693963258E+03  0.46848826818E+03  0.00000000000E+00 0. -1.
        -15    1    1    2    0    0  0.88999647656E+01 -0.54704893013E+01  0.39187200299E+01  0.11298217634E+02  0.17770000000E+01 0. -1.
         15    1    1    2    0    0  0.36602269166E+02  0.11129830964E+02 -0.15710147768E+02  0.41395237858E+02  0.17770000000E+01 0.  1.
</event>
<event>
 6    1  0.1823098E-004  0.5014541E+03  0.7546771E-02  0.9396562E-01
        -11   -1    0    0    0    0  0.00000000000E+00  0.00000000000E+00  0.50000000000E+03  0.50000000000E+03  0.00000000000E+00 0. -1.
         11   -1    0    0    0    0 -0.00000000000E+00 -0.00000000000E+00 -0.50000000000E+03  0.50000000000E+03  0.00000000000E+00 0.  1.
        -11    1    1    2    0    0 -0.12266354081E+02 -0.82929189999E+00  0.49839432540E+03  0.49854594047E+03  0.00000000000E+00 0. -1.
         11    1    1    2    0    0  0.12715490605E+02 -0.45018714160E+01 -0.47309282349E+03  0.47328508341E+03  0.00000000000E+00 0.  1.
        -15    1    1    2    0    0 -0.44433974010E+01  0.26892527300E+01 -0.20265881909E+02  0.20996179635E+02  0.17770000000E+01 0. -1.
         15    1    1    2    0    0  0.39942608766E+01  0.26419105859E+01 -0.50356200062E+01  0.71727964798E+01  0.17770000000E+01 0.  1.
</event>
<event>
 6    1  0.1823098E-004  0.5023274E+03  0.7546771E-02  0.9394617E-01
        -11   -1    0    0    0    0  0.00000000000E+00  0.00000000000E+00  0.50000000000E+03  0.50000000000E+03  0.00000000000E+00 0.  1.
         11   -1    0    0    0    0 -0.00000000000E+00 -0.00000000000E+00 -0.50000000000E+03  0.50000000000E+03  0.00000000000E+00 0.  1.
        -11    1    1    2    0    0 -0.91385611176E+01 -0.13512666303E+01  0.49758683343E+03  0.49767257914E+03  0.00000000000E+00 0.  1.
         11    1    1    2    0    0  0.17128006161E+02  0.38581528684E+01 -0.47789282377E+03  0.47821522869E+03  0.00000000000E+00 0.  1.
        -15    1    1    2    0    0 -0.64220294161E+01  0.23259030544E+01 -0.55492847492E+01  0.89780051831E+01  0.17770000000E+01 0.  1.
         15    1    1    2    0    0 -0.15674156275E+01 -0.48327892925E+01 -0.14144724907E+02  0.15134186988E+02  0.17770000000E+01 0. -1.
</event>
<event>
 6    1  0.1823098E-004  0.5021641E+03  0.7546771E-02  0.9394980E-01
        -11   -1    0    0    0    0  0.00000000000E+00  0.00000000000E+00  0.50000000000E+03  0.50000000000E+03  0.00000000000E+00 0. -1.
         11   -1    0    0    0    0 -0.00000000000E+00 -0.00000000000E+00 -0.50000000000E+03  0.50000000000E+03  0.00000000000E+00 0. -1.
        -11    1    1    2    0    0  0.11336299852E+02 -0.10763719604E+02  0.48918593248E+03  0.48943564020E+03  0.00000000000E+00 0. -1.
         11    1    1    2    0    0 -0.44580282862E+01  0.85787122902E+01  0.82792800526E+01  0.12728503406E+02  0.00000000000E+00 0. -1.
        -15    1    1    2    0    0 -0.68562947964E+01  0.73302255474E+01 -0.43886584248E+03  0.43898419836E+03  0.17770000000E+01 0. -1.
         15    1    1    2    0    0 -0.21976769182E-01 -0.51452182331E+01 -0.58599370057E+02  0.58851658038E+02  0.17770000000E+01 0.  1.
</event>
<event>
 6    1  0.1823098E-004  0.5083120E+03  0.7546771E-02  0.9381401E-01
        -11   -1    0    0    0    0  0.00000000000E+00  0.00000000000E+00  0.50000000000E+03  0.50000000000E+03  0.00000000000E+00 0.  1.
         11   -1    0    0    0    0 -0.00000000000E+00 -0.00000000000E+00 -0.50000000000E+03  0.50000000000E+03  0.00000000000E+00 0. -1.
        -11    1    1    2    0    0 -0.80070271690E+01  0.45556526824E+01  0.49160172265E+03  0.49168803134E+03  0.00000000000E+00 0.  1.
         11    1    1    2    0    0  0.21151837409E+01  0.15743285426E+02 -0.47778379189E+03  0.47804777672E+03  0.00000000000E+00 0. -1.
        -15    1    1    2    0    0  0.93050602836E+01 -0.18813818090E+02 -0.15131038076E+02  0.25935495759E+02  0.17770000000E+01 0. -1.
         15    1    1    2    0    0 -0.34132168555E+01 -0.14851200181E+01  0.13131073131E+01  0.43286961763E+01  0.17770000000E+01 0.  1.
</event>
<event>
 6    1  0.1823098E-004  0.5005573E+03  0.7546771E-02  0.9398564E-01
        -11   -1    0    0    0    0  0.00000000000E+00  0.00000000000E+00  0.50000000000E+03  0.50000000000E+03  0.00000000000E+00 0. -1.
         11   -1    0    0    0    0 -0.00000000000E+00 -0.00000000000E+00 -0.50000000000E+03  0.50000000000E+03  0.00000000000E+00 0. -1.
        -11    1    1    2    0    0 -0.83548730692E+01 -0.44324426927E+00  0.49937263745E+03  0.49944272084E+03  0.00000000000E+00 0. -1.
         11    1    1    2    0    0  0.79012063960E+01 -0.47735996466E+01 -0.46800550158E+03  0.46809653473E+03  0.00000000000E+00 0. -1.
        -15    1    1    2    0    0 -0.22757225711E+01  0.35067448344E+01 -0.14401800900E+02  0.15101184415E+02  0.17770000000E+01 0.  1.
         15    1    1    2    0    0  0.27293892443E+01  0.17100990815E+01 -0.16965334966E+02  0.17359560018E+02  0.17770000000E+01 0. -1.
</event>
<event>
 6    1  0.1823098E-004  0.5002420E+03  0.7546771E-02  0.9399268E-01
        -11   -1    0    0    0    0  0.00000000000E+00  0.00000000000E+00  0.50000000000E+03  0.50000000000E+03  0.00000000000E+00 0. -1.
         11   -1    0    0    0    0 -0.00000000000E+00 -0.00000000000E+00 -0.50000000000E+03  0.50000000000E+03  0.00000000000E+00 0.  1.
        -11    1    1    2    0    0 -0.27947692057E+01 -0.37930481642E+01  0.11130388429E+03  0.11140355743E+03  0.00000000000E+00 0. -1.
         11    1    1    2    0    0 -0.63918649325E+01  0.13546048729E+02 -0.49953346360E+03  0.49975797406E+03  0.00000000000E+00 0.  1.
        -15    1    1    2    0    0  0.83104646352E+01  0.20508836879E+01  0.22545607440E+03  0.22562550645E+03  0.17770000000E+01 0.  1.
         15    1    1    2    0    0  0.87616950302E+00 -0.11803884253E+02  0.16277350491E+03  0.16321296207E+03  0.17770000000E+01 0. -1.
</event>
<event>
 6    1  0.1823098E-004  0.5044287E+03  0.7546771E-02  0.9389954E-01
        -11   -1    0    0    0    0  0.00000000000E+00  0.00000000000E+00  0.50000000000E+03  0.50000000000E+03  0.00000000000E+00 0.  1.
         11   -1    0    0    0    0 -0.00000000000E+00 -0.00000000000E+00 -0.50000000000E+03  0.50000000000E+03  0.00000000000E+00 0. -1.
        -11    1    1    2    0    0  0.54742409155E+01 -0.46062282931E+01  0.49551963506E+03  0.49557127982E+03  0.00000000000E+00 0.  1.
         11    1    1    2    0    0 -0.13470603276E+02  0.26474551271E+01 -0.48843594309E+03  0.48862883324E+03  0.00000000000E+00 0. -1.
        -15    1    1    2    0    0  0.88887867893E+01 -0.21868453839E+01 -0.34609470817E+01  0.99462911189E+01  0.17770000000E+01 0.  1.
         15    1    1    2    0    0 -0.89242442919E+00  0.41456185498E+01 -0.36227448876E+01  0.58535958216E+01  0.17770000000E+01 0. -1.
</event>
<event>
 6    1  0.1823098E-004  0.5018509E+03  0.7546771E-02  0.9395678E-01
        -11   -1    0    0    0    0  0.00000000000E+00  0.00000000000E+00  0.50000000000E+03  0.50000000000E+03  0.00000000000E+00 0.  1.
         11   -1    0    0    0    0 -0.00000000000E+00 -0.00000000000E+00 -0.50000000000E+03  0.50000000000E+03  0.00000000000E+00 0. -1.
        -11    1    1    2    0    0 -0.18988085027E+01  0.72567546982E+00  0.10021960452E+03  0.10024021753E+03  0.00000000000E+00 0.  1.
         11    1    1    2    0    0  0.46704234715E+02 -0.73642932975E+01 -0.49590020049E+03  0.49814910137E+03  0.00000000000E+00 0. -1.
        -15    1    1    2    0    0  0.31225337219E+01 -0.67169654860E+01  0.92345927422E+01  0.11970934562E+02  0.17770000000E+01 0.  1.
         15    1    1    2    0    0 -0.47927959934E+02  0.13355583314E+02  0.38644600322E+03  0.38963974654E+03  0.17770000000E+01 0. -1.
</event>
<event>
 6    1  0.1823098E-004  0.5009718E+03  0.7546771E-02  0.9397638E-01
        -11   -1    0    0    0    0  0.00000000000E+00  0.00000000000E+00  0.50000000000E+03  0.50000000000E+03  0.00000000000E+00 0.  1.
         11   -1    0    0    0    0 -0.00000000000E+00 -0.00000000000E+00 -0.50000000000E+03  0.50000000000E+03  0.00000000000E+00 0. -1.
        -11    1    1    2    0    0  0.14262616602E+02 -0.87741781418E+01  0.49874718796E+03  0.49902822158E+03  0.00000000000E+00 0.  1.
         11    1    1    2    0    0 -0.19334764140E+02 -0.50889701524E+01 -0.12750393091E+03  0.12906193521E+03  0.00000000000E+00 0. -1.
        -15    1    1    2    0    0 -0.37549055202E+01  0.75512791723E+01 -0.80767621134E+02  0.81226150255E+02  0.17770000000E+01 0.  1.
         15    1    1    2    0    0  0.88270530585E+01  0.63118691219E+01 -0.29047563592E+03  0.29068369295E+03  0.17770000000E+01 0. -1.
</event>
<event>
 6    1  0.1823098E-004  0.5018425E+03  0.7546771E-02  0.9395696E-01
        -11   -1    0    0    0    0  0.00000000000E+00  0.00000000000E+00  0.50000000000E+03  0.50000000000E+03  0.00000000000E+00 0.  1.
         11   -1    0    0    0    0 -0.00000000000E+00 -0.00000000000E+00 -0.50000000000E+03  0.50000000000E+03  0.00000000000E+00 0.  1.
        -11    1    1    2    0    0 -0.75660912151E+01  0.12736516800E+01  0.45650331541E+03  0.45656778785E+03  0.00000000000E+00 0.  1.
         11    1    1    2    0    0  0.18611081100E+02 -0.18590760431E+01 -0.49780627185E+03  0.49815751805E+03  0.00000000000E+00 0.  1.
        -15    1    1    2    0    0  0.27595418881E+01  0.29269553899E+01  0.10978473681E+02  0.11826527497E+02  0.17770000000E+01 0.  1.
         15    1    1    2    0    0 -0.13804531773E+02 -0.23415310268E+01  0.30324482756E+02  0.33448166593E+02  0.17770000000E+01 0. -1.
</event>
<event>
 6    1  0.1823098E-004  0.5000881E+03  0.7546771E-02  0.9399613E-01
        -11   -1    0    0    0    0  0.00000000000E+00  0.00000000000E+00  0.50000000000E+03  0.50000000000E+03  0.00000000000E+00 0.  1.
         11   -1    0    0    0    0 -0.00000000000E+00 -0.00000000000E+00 -0.50000000000E+03  0.50000000000E+03  0.00000000000E+00 0.  1.
        -11    1    1    2    0    0 -0.68150240211E+01  0.10437463528E+01  0.34832142654E+03  0.34838965275E+03  0.00000000000E+00 0.  1.
         11    1    1    2    0    0  0.99800945495E+01 -0.43741951312E+01 -0.49979312195E+03  0.49991189286E+03  0.00000000000E+00 0.  1.
        -15    1    1    2    0    0 -0.30200186053E+01 -0.23989867947E+00  0.10400708384E+03  0.10406636960E+03  0.17770000000E+01 0. -1.
         15    1    1    2    0    0 -0.14505192308E+00  0.35703474578E+01  0.47464611569E+02  0.47632084790E+02  0.17770000000E+01 0. -1.
</event>
<event>
 6    1  0.1989742E-004  0.5000295E+03  0.7546771E-02  0.9399744E-01
        -11   -1    0    0    0    0  0.00000000000E+00  0.00000000000E+00  0.50000000000E+03  0.50000000000E+03  0.00000000000E+00 0. -1.
         11   -1    0    0    0    0 -0.00000000000E+00 -0.00000000000E+00 -0.50000000000E+03  0.50000000000E+03  0.00000000000E+00 0. -1.
        -11    1    1    2    0    0  0.42902561663E+01 -0.75919071748E+00  0.31670301969E+03  0.31673298746E+03  0.00000000000E+00 0. -1.
         11    1    1    2    0    0 -0.72380791078E+01 -0.20184988760E+01 -0.49991407145E+03  0.49997054209E+03  0.00000000000E+00 0. -1.
        -15    1    1    2    0    0  0.17208394574E+01  0.22537212422E+01  0.10115752605E+03  0.10121286160E+03  0.17770000000E+01 0. -1.
         15    1    1    2    0    0  0.12269834841E+01  0.52396835135E+00  0.82053525711E+02  0.82083608850E+02  0.17770000000E+01 0.  1.
</event>
<event>
 6    1  0.1823098E-004  0.4444952E+03  0.7546771E-02  0.9533361E-01
        -11   -1    0    0    0    0  0.00000000000E+00  0.00000000000E+00  0.50000000000E+03  0.50000000000E+03  0.00000000000E+00 0.  1.
         11   -1    0    0    0    0 -0.00000000000E+00 -0.00000000000E+00 -0.50000000000E+03  0.50000000000E+03  0.00000000000E+00 0.  1.
        -11    1    1    2    0    0  0.24494786855E+02 -0.11940307890E+02  0.46914377056E+03  0.46993450925E+03  0.00000000000E+00 0.  1.
         11    1    1    2    0    0  0.64717923272E+02  0.70364738458E+00 -0.41998529403E+03  0.42494299843E+03  0.00000000000E+00 0.  1.
        -15    1    1    2    0    0 -0.62607268972E+02  0.53668653234E+01 -0.21968983312E+02  0.66590294550E+02  0.17770000000E+01 0.  1.
         15    1    1    2    0    0 -0.26605441156E+02  0.58697951825E+01 -0.27189493211E+02  0.38532197766E+02  0.17770000000E+01 0. -1.
</event>
<event>
 6    1  0.1823098E-004  0.5003542E+03  0.7546771E-02  0.9399017E-01
        -11   -1    0    0    0    0  0.00000000000E+00  0.00000000000E+00  0.50000000000E+03  0.50000000000E+03  0.00000000000E+00 0. -1.
         11   -1    0    0    0    0 -0.00000000000E+00 -0.00000000000E+00 -0.50000000000E+03  0.50000000000E+03  0.00000000000E+00 0.  1.
        -11    1    1    2    0    0 -0.15303636553E+01 -0.68152798244E+01  0.35819281689E+03  0.35826091627E+03  0.00000000000E+00 0. -1.
         11    1    1    2    0    0 -0.66361426010E+01  0.65748099103E+01 -0.49955845562E+03  0.49964579164E+03  0.00000000000E+00 0.  1.
        -15    1    1    2    0    0  0.54790410800E+01  0.40410816253E+01  0.40648025765E+02  0.41252514583E+02  0.17770000000E+01 0. -1.
         15    1    1    2    0    0  0.26874651762E+01 -0.38006117112E+01  0.10071761297E+03  0.10084077751E+03  0.17770000000E+01 0.  1.
</event>
<event>
 6    1  0.1823098E-004  0.5005488E+03  0.7546771E-02  0.9398583E-01
        -11   -1    0    0    0    0  0.00000000000E+00  0.00000000000E+00  0.50000000000E+03  0.50000000000E+03  0.00000000000E+00 0. -1.
         11   -1    0    0    0    0 -0.00000000000E+00 -0.00000000000E+00 -0.50000000000E+03  0.50000000000E+03  0.00000000000E+00 0. -1.
        -11    1    1    2    0    0  0.33117576333E+01  0.77037540705E+01  0.49938083173E+03  0.49945122952E+03  0.00000000000E+00 0. -1.
         11    1    1    2    0    0 -0.14575171163E+02 -0.15818153706E+01 -0.34795434960E+03  0.34826307177E+03  0.00000000000E+00 0. -1.
        -15    1    1    2    0    0  0.11719520983E+02 -0.55974253690E+01 -0.14473701677E+03  0.14532941924E+03  0.17770000000E+01 0.  1.
         15    1    1    2    0    0 -0.45610745365E+00 -0.52451333091E+00 -0.66894653590E+01  0.69562794677E+01  0.17770000000E+01 0. -1.
</event>
<event>
 6    1  0.1823098E-004  0.5021597E+03  0.7546771E-02  0.9394990E-01
        -11   -1    0    0    0    0  0.00000000000E+00  0.00000000000E+00  0.50000000000E+03  0.50000000000E+03  0.00000000000E+00 0. -1.
         11   -1    0    0    0    0 -0.00000000000E+00 -0.00000000000E+00 -0.50000000000E+03  0.50000000000E+03  0.00000000000E+00 0.  1.
        -11    1    1    2    0    0 -0.11463750437E+01 -0.21484708186E+01  0.11511080586E+03  0.11513656121E+03  0.00000000000E+00 0. -1.
         11    1    1    2    0    0  0.54393178761E+02  0.11466935508E+01 -0.49485857202E+03  0.49784027469E+03  0.00000000000E+00 0.  1.
        -15    1    1    2    0    0 -0.43339884361E+02 -0.20717231503E+00  0.12952799256E+03  0.13659812254E+03  0.17770000000E+01 0.  1.
         15    1    1    2    0    0 -0.99069193561E+01  0.12089495828E+01  0.25021977360E+03  0.25042504156E+03  0.17770000000E+01 0. -1.
</event>
<event>
 6    1  0.1823098E-004  0.5034403E+03  0.7546771E-02  0.9392145E-01
        -11   -1    0    0    0    0  0.00000000000E+00  0.00000000000E+00  0.50000000000E+03  0.50000000000E+03  0.00000000000E+00 0. -1.
         11   -1    0    0    0    0 -0.00000000000E+00 -0.00000000000E+00 -0.50000000000E+03  0.50000000000E+03  0.00000000000E+00 0. -1.
        -11    1    1    2    0    0 -0.10384433709E+02  0.51592009770E+01  0.47120448734E+03  0.47134713609E+03  0.00000000000E+00 0. -1.
         11    1    1    2    0    0  0.94397616662E+01  0.11941148490E+02 -0.49632635060E+03  0.49655971084E+03  0.00000000000E+00 0. -1.
        -15    1    1    2    0    0 -0.32212141726E-01 -0.11221237958E+02  0.22765078396E+02  0.25442557700E+02  0.17770000000E+01 0. -1.
         15    1    1    2    0    0  0.97688418411E+00 -0.58791115085E+01  0.23567848672E+01  0.66505953680E+01  0.17770000000E+01 0.  1.
</event>
<event>
 6    1  0.1823098E-004  0.5002402E+03  0.7546771E-02  0.9399272E-01
        -11   -1    0    0    0    0  0.00000000000E+00  0.00000000000E+00  0.50000000000E+03  0.50000000000E+03  0.00000000000E+00 0.  1.
         11   -1    0    0    0    0 -0.00000000000E+00 -0.00000000000E+00 -0.50000000000E+03  0.50000000000E+03  0.00000000000E+00 0. -1.
        -11    1    1    2    0    0 -0.19808607013E+02  0.76133619870E+02  0.49352924683E+03  0.49975976875E+03  0.00000000000E+00 0.  1.
         11    1    1    2    0    0  0.20545605254E+02 -0.73539807538E+02 -0.46376719294E+03  0.47001088757E+03  0.00000000000E+00 0. -1.
        -15    1    1    2    0    0  0.74269206302E-01 -0.15507836830E+01 -0.22843070329E+02  0.22964625776E+02  0.17770000000E+01 0.  1.
         15    1    1    2    0    0 -0.81126744715E+00 -0.10430286486E+01 -0.69189835630E+01  0.72647179008E+01  0.17770000000E+01 0.  1.
</event>
<event>
 6    1  0.1823098E-004  0.5147423E+03  0.7546771E-02  0.9367414E-01
        -11   -1    0    0    0    0  0.00000000000E+00  0.00000000000E+00  0.50000000000E+03  0.50000000000E+03  0.00000000000E+00 0. -1.
         11   -1    0    0    0    0 -0.00000000000E+00 -0.00000000000E+00 -0.50000000000E+03  0.50000000000E+03  0.00000000000E+00 0.  1.
        -11    1    1    2    0    0  0.79306928562E+01 -0.19354401933E+02  0.43967791427E+03  0.44017514361E+03  0.00000000000E+00 0. -1.
         11    1    1    2    0    0  0.36941478964E+02  0.10347024240E+02 -0.48373892342E+03  0.48525774575E+03  0.00000000000E+00 0.  1.
        -15    1    1    2    0    0 -0.69503470982E+01  0.10801207542E+02 -0.37431596241E+01  0.13496013564E+02  0.17770000000E+01 0. -1.
         15    1    1    2    0    0 -0.37921824722E+02 -0.17938298482E+01  0.47804168779E+02  0.61071097071E+02  0.17770000000E+01 0.  1.
</event>
<event>
 6    1  0.1823098E-004  0.5007562E+03  0.7546771E-02  0.9398119E-01
        -11   -1    0    0    0    0  0.00000000000E+00  0.00000000000E+00  0.50000000000E+03  0.50000000000E+03  0.00000000000E+00 0.  1.
         11   -1    0    0    0    0 -0.00000000000E+00 -0.00000000000E+00 -0.50000000000E+03  0.50000000000E+03  0.00000000000E+00 0. -1.
        -11    1    1    2    0    0  0.83464770512E+01 -0.19374146670E+01  0.42365833498E+03  0.42374497289E+03  0.00000000000E+00 0.  1.
         11    1    1    2    0    0 -0.96559940953E+01  0.12727868105E+02 -0.49898806203E+03  0.49924375099E+03  0.00000000000E+00 0. -1.
        -15    1    1    2    0    0 -0.33753952619E+01 -0.67227381558E+01  0.58110239783E+02  0.58622062384E+02  0.17770000000E+01 0.  1.
         15    1    1    2    0    0  0.46849123060E+01 -0.40677152826E+01  0.17219487272E+02  0.18389213736E+02  0.17770000000E+01 0. -1.
</event>
<event>
 6    1  0.1823098E-004  0.5000612E+03  0.7546771E-02  0.9399673E-01
        -11   -1    0    0    0    0  0.00000000000E+00  0.00000000000E+00  0.50000000000E+03  0.50000000000E+03  0.00000000000E+00 0. -1.
         11   -1    0    0    0    0 -0.00000000000E+00 -0.00000000000E+00 -0.50000000000E+03  0.50000000000E+03  0.00000000000E+00 0. -1.
        -11    1    1    2    0    0 -0.26582583041E+01 -0.13391700872E+02  0.37803697916E+03  0.37828344082E+03  0.00000000000E+00 0. -1.
         11    1    1    2    0    0 -0.25039578824E+00  0.15992589453E+02 -0.49968285990E+03  0.49993878234E+03  0.00000000000E+00 0. -1.
        -15    1    1    2    0    0  0.22670204644E+01 -0.15075052320E+01  0.88765728413E+02  0.88825245418E+02  0.17770000000E+01 0.  1.
         15    1    1    2    0    0  0.64163362796E+00 -0.10933833488E+01  0.32880152325E+02  0.32952531417E+02  0.17770000000E+01 0.  1.
</event>
<event>
 6    1  0.1823098E-004  0.5006498E+03  0.7546771E-02  0.9398357E-01
        -11   -1    0    0    0    0  0.00000000000E+00  0.00000000000E+00  0.50000000000E+03  0.50000000000E+03  0.00000000000E+00 0.  1.
         11   -1    0    0    0    0 -0.00000000000E+00 -0.00000000000E+00 -0.50000000000E+03  0.50000000000E+03  0.00000000000E+00 0. -1.
        -11    1    1    2    0    0 -0.17732126698E+00  0.12990929521E+02  0.43497752466E+03  0.43517150947E+03  0.00000000000E+00 0.  1.
         11    1    1    2    0    0 -0.90533719460E+01 -0.12822226175E+02 -0.49910347523E+03  0.49935022981E+03  0.00000000000E+00 0. -1.
        -15    1    1    2    0    0  0.44417245452E+01 -0.65414641666E+00  0.99482671282E+01  0.11058145067E+02  0.17770000000E+01 0.  1.
         15    1    1    2    0    0  0.47889686677E+01  0.48544307019E+00  0.54177683440E+02  0.54420115654E+02  0.17770000000E+01 0. -1.
</event>
<event>
 6    1  0.1823098E-004  0.5001620E+03  0.7546771E-02  0.9399447E-01
        -11   -1    0    0    0    0  0.00000000000E+00  0.00000000000E+00  0.50000000000E+03  0.50000000000E+03  0.00000000000E+00 0. -1.
         11   -1    0    0    0    0 -0.00000000000E+00 -0.00000000000E+00 -0.50000000000E+03  0.50000000000E+03  0.00000000000E+00 0. -1.
        -11    1    1    2    0    0  0.11017477907E+02 -0.24343194113E+02  0.35029864657E+03  0.35131626450E+03  0.00000000000E+00 0. -1.
         11    1    1    2    0    0 -0.13608387672E+02  0.24297675735E+02 -0.49906161072E+03  0.49983803032E+03  0.00000000000E+00 0. -1.
        -15    1    1    2    0    0  0.89132875028E+00  0.10521562344E+01  0.57224100188E+02  0.57268288529E+02  0.17770000000E+01 0. -1.
         15    1    1    2    0    0  0.16995810149E+01 -0.10066378559E+01  0.91538863963E+02  0.91577416649E+02  0.17770000000E+01 0.  1.
</event>
<event>
 6    1  0.1823098E-004  0.5005485E+03  0.7546771E-02  0.9398583E-01
        -11   -1    0    0    0    0  0.00000000000E+00  0.00000000000E+00  0.50000000000E+03  0.50000000000E+03  0.00000000000E+00 0. -1.
         11   -1    0    0    0    0 -0.00000000000E+00 -0.00000000000E+00 -0.50000000000E+03  0.50000000000E+03  0.00000000000E+00 0. -1.
        -11    1    1    2    0    0 -0.25875050748E+01  0.20225946403E+01  0.23282388361E+03  0.23284704604E+03  0.00000000000E+00 0. -1.
         11    1    1    2    0    0 -0.24053247166E+01  0.24413188037E+02 -0.49884869191E+03  0.49945150591E+03  0.00000000000E+00 0. -1.
        -15    1    1    2    0    0 -0.40718327784E+01 -0.96936058573E+01  0.10751300852E+03  0.10804050419E+03  0.17770000000E+01 0. -1.
         15    1    1    2    0    0  0.90646625697E+01 -0.16742176820E+02  0.15851179979E+03  0.15966094386E+03  0.17770000000E+01 0.  1.
</event>
<event>
 6    1  0.1823098E-004  0.5001139E+03  0.7546771E-02  0.9399555E-01
        -11   -1    0    0    0    0  0.00000000000E+00  0.00000000000E+00  0.50000000000E+03  0.50000000000E+03  0.00000000000E+00 0. -1.
         11   -1    0    0    0    0 -0.00000000000E+00 -0.00000000000E+00 -0.50000000000E+03  0.50000000000E+03  0.00000000000E+00 0.  1.
        -11    1    1    2    0    0 -0.22724830865E+01 -0.84760951317E+01  0.49980903575E+03  0.49988606761E+03  0.00000000000E+00 0. -1.
         11    1    1    2    0    0  0.13884626965E+01  0.63560713214E+01 -0.38981715761E+03  0.38987144527E+03  0.00000000000E+00 0.  1.
        -15    1    1    2    0    0 -0.23659658784E+01 -0.33395901542E+00 -0.46698392991E+02  0.46793236265E+02  0.17770000000E+01 0.  1.
         15    1    1    2    0    0  0.32499862684E+01  0.24539828257E+01 -0.63293485152E+02  0.63449250856E+02  0.17770000000E+01 0.  1.
</event>
<event>
 6    1  0.1823098E-004  0.5015871E+03  0.7546771E-02  0.9396266E-01
        -11   -1    0    0    0    0  0.00000000000E+00  0.00000000000E+00  0.50000000000E+03  0.50000000000E+03  0.00000000000E+00 0. -1.
         11   -1    0    0    0    0 -0.00000000000E+00 -0.00000000000E+00 -0.50000000000E+03  0.50000000000E+03  0.00000000000E+00 0. -1.
        -11    1    1    2    0    0 -0.56835488192E+01 -0.57025574080E+01  0.49834789868E+03  0.49841293122E+03  0.00000000000E+00 0. -1.
         11    1    1    2    0    0  0.54040372565E+00  0.71304610869E+01 -0.47040550192E+03  0.47045985137E+03  0.00000000000E+00 0. -1.
        -15    1    1    2    0    0  0.20595390822E+01 -0.45557530332E+01 -0.24984262649E+02  0.25541489699E+02  0.17770000000E+01 0. -1.
         15    1    1    2    0    0  0.30836060114E+01  0.31278493542E+01 -0.29581341175E+01  0.55857277120E+01  0.17770000000E+01 0.  1.
</event>
<event>
 6    1  0.1823098E-004  0.5014698E+03  0.7546771E-02  0.9396527E-01
        -11   -1    0    0    0    0  0.00000000000E+00  0.00000000000E+00  0.50000000000E+03  0.50000000000E+03  0.00000000000E+00 0.  1.
         11   -1    0    0    0    0 -0.00000000000E+00 -0.00000000000E+00 -0.50000000000E+03  0.50000000000E+03  0.00000000000E+00 0. -1.
        -11    1    1    2    0    0 -0.60804594014E+02 -0.13584758136E+03  0.47579472056E+03  0.49853021987E+03  0.00000000000E+00 0.  1.
         11    1    1    2    0    0  0.63201165833E+02  0.13748870716E+03 -0.44162318658E+03  0.46682820275E+03  0.00000000000E+00 0. -1.
        -15    1    1    2    0    0 -0.16344722225E+01 -0.20780694290E+01 -0.13302103664E+02  0.13678214901E+02  0.17770000000E+01 0.  1.
         15    1    1    2    0    0 -0.76209959596E+00  0.43694363228E+00 -0.20869430312E+02  0.20963362471E+02  0.17770000000E+01 0. -1.
</event>
<event>
 6    1  0.1823098E-004  0.5148673E+03  0.7546771E-02  0.9367144E-01
        -11   -1    0    0    0    0  0.00000000000E+00  0.00000000000E+00  0.50000000000E+03  0.50000000000E+03  0.00000000000E+00 0.  1.
         11   -1    0    0    0    0 -0.00000000000E+00 -0.00000000000E+00 -0.50000000000E+03  0.50000000000E+03  0.00000000000E+00 0.  1.
        -11    1    1    2    0    0 -0.70805040592E+01  0.24209030505E+02  0.48447651847E+03  0.48513267015E+03  0.00000000000E+00 0.  1.
         11    1    1    2    0    0  0.91647246395E+01  0.52267106652E+02 -0.34981596908E+03  0.35381782719E+03  0.00000000000E+00 0.  1.
        -15    1    1    2    0    0 -0.41312215416E+01 -0.68909709708E+02 -0.13634674509E+03  0.15283719347E+03  0.17770000000E+01 0.  1.
         15    1    1    2    0    0  0.20470009612E+01 -0.75664274492E+01  0.16861956955E+01  0.82123091883E+01  0.17770000000E+01 0. -1.
</event>
<event>
 6    1  0.1823098E-004  0.5013205E+03  0.7546771E-02  0.9396860E-01
        -11   -1    0    0    0    0  0.00000000000E+00  0.00000000000E+00  0.50000000000E+03  0.50000000000E+03  0.00000000000E+00 0.  1.
         11   -1    0    0    0    0 -0.00000000000E+00 -0.00000000000E+00 -0.50000000000E+03  0.50000000000E+03  0.00000000000E+00 0. -1.
        -11    1    1    2    0    0  0.31300954468E+01 -0.62670982059E+02  0.49471589962E+03  0.49867952718E+03  0.00000000000E+00 0.  1.
         11    1    1    2    0    0  0.66857526707E+01  0.54800423988E+02 -0.24139972085E+03  0.24763200719E+03  0.00000000000E+00 0. -1.
        -15    1    1    2    0    0 -0.85862368120E+01  0.61853226501E+01 -0.17859951781E+03  0.17892156709E+03  0.17770000000E+01 0. -1.
         15    1    1    2    0    0 -0.12296113055E+01  0.16852354204E+01 -0.74716660967E+02  0.74766898541E+02  0.17770000000E+01 0.  1.
</event>
<event>
 6    1  0.1823098E-004  0.5017666E+03  0.7546771E-02  0.9395865E-01
        -11   -1    0    0    0    0  0.00000000000E+00  0.00000000000E+00  0.50000000000E+03  0.50000000000E+03  0.00000000000E+00 0.  1.
         11   -1    0    0    0    0 -0.00000000000E+00 -0.00000000000E+00 -0.50000000000E+03  0.50000000000E+03  0.00000000000E+00 0.  1.
        -11    1    1    2    0    0 -0.31805799507E+01  0.12007148151E+02  0.49807853837E+03  0.49823339719E+03  0.00000000000E+00 0.  1.
         11    1    1    2    0    0  0.11442461527E+02 -0.32144407032E+01 -0.47467824095E+03  0.47482701586E+03  0.00000000000E+00 0.  1.
        -15    1    1    2    0    0 -0.25940240736E+01 -0.59044223300E+01 -0.12979748014E+02  0.14602148865E+02  0.17770000000E+01 0.  1.
         15    1    1    2    0    0 -0.56678575025E+01 -0.28882851174E+01 -0.10420549406E+02  0.12337438085E+02  0.17770000000E+01 0. -1.
</event>
<event>
 6    1  0.1823098E-004  0.4880612E+03  0.7546771E-02  0.9426927E-01
        -11   -1    0    0    0    0  0.00000000000E+00  0.00000000000E+00  0.50000000000E+03  0.50000000000E+03  0.00000000000E+00 0.  1.
         11   -1    0    0    0    0 -0.00000000000E+00 -0.00000000000E+00 -0.50000000000E+03  0.50000000000E+03  0.00000000000E+00 0.  1.
        -11    1    1    2    0    0 -0.72716296002E+01 -0.17809871405E+01  0.48776028568E+03  0.48781773728E+03  0.00000000000E+00 0.  1.
         11    1    1    2    0    0 -0.94670874785E+01  0.12374733531E+02 -0.48825715032E+03  0.48850568535E+03  0.00000000000E+00 0.  1.
        -15    1    1    2    0    0  0.14956675985E+02 -0.12048932953E+02 -0.25608443159E+01  0.19457507406E+02  0.17770000000E+01 0.  1.
         15    1    1    2    0    0  0.17820410934E+01  0.14551865622E+01  0.30577089536E+01  0.42190699727E+01  0.17770000000E+01 0. -1.
</event>
<event>
 6    1  0.1823098E-004  0.5024060E+03  0.7546771E-02  0.9394442E-01
        -11   -1    0    0    0    0  0.00000000000E+00  0.00000000000E+00  0.50000000000E+03  0.50000000000E+03  0.00000000000E+00 0.  1.
         11   -1    0    0    0    0 -0.00000000000E+00 -0.00000000000E+00 -0.50000000000E+03  0.50000000000E+03  0.00000000000E+00 0. -1.
        -11    1    1    2    0    0 -0.52175003099E+01 -0.46602350260E+01  0.49754486580E+03  0.49759404496E+03  0.00000000000E+00 0.  1.
         11    1    1    2    0    0 -0.27610377719E+01 -0.15402266533E+02 -0.42320367581E+03  0.42349286224E+03  0.00000000000E+00 0. -1.
        -15    1    1    2    0    0  0.64858991818E+01  0.15994948808E+02 -0.32780611631E+02  0.37089506649E+02  0.17770000000E+01 0.  1.
         15    1    1    2    0    0  0.14926389000E+01  0.40675527508E+01 -0.41560578355E+02  0.41823586151E+02  0.17770000000E+01 0. -1.
</event>
<event>
 6    1  0.1823098E-004  0.5002308E+03  0.7546771E-02  0.9399294E-01
        -11   -1    0    0    0    0  0.00000000000E+00  0.00000000000E+00  0.50000000000E+03  0.50000000000E+03  0.00000000000E+00 0. -1.
         11   -1    0    0    0    0 -0.00000000000E+00 -0.00000000000E+00 -0.50000000000E+03  0.50000000000E+03  0.00000000000E+00 0.  1.
        -11    1    1    2    0    0 -0.18749556294E+02 -0.92268044710E+01  0.49933216439E+03  0.49976923693E+03  0.00000000000E+00 0. -1.
         11    1    1    2    0    0  0.18168997543E+02  0.80885908916E+01 -0.22935913646E+03  0.23021978901E+03  0.00000000000E+00 0.  1.
        -15    1    1    2    0    0  0.14903682645E+01  0.75223405305E+00 -0.16782728557E+03  0.16784499565E+03  0.17770000000E+01 0.  1.
         15    1    1    2    0    0 -0.90980951383E+00  0.38597952639E+00 -0.10214574236E+03  0.10216597841E+03  0.17770000000E+01 0.  1.
</event>
<event>
 6    1  0.1823098E-004  0.5005379E+03  0.7546771E-02  0.9398607E-01
        -11   -1    0    0    0    0  0.00000000000E+00  0.00000000000E+00  0.50000000000E+03  0.50000000000E+03  0.00000000000E+00 0. -1.
         11   -1    0    0    0    0 -0.00000000000E+00 -0.00000000000E+00 -0.50000000000E+03  0.50000000000E+03  0.00000000000E+00 0.  1.
        -11    1    1    2    0    0 -0.17006983367E+01 -0.85145221831E+01  0.33240042752E+03  0.33251380976E+03  0.00000000000E+00 0. -1.
         11    1    1    2    0    0  0.15405713910E+02  0.41428696018E+00 -0.49922425584E+03  0.49946207591E+03  0.00000000000E+00 0.  1.
        -15    1    1    2    0    0 -0.36544847205E+01 -0.23245921876E+01  0.63921947659E+02  0.64093151810E+02  0.17770000000E+01 0. -1.
         15    1    1    2    0    0 -0.10050530852E+02  0.10424827411E+02  0.10290188066E+03  0.10393096252E+03  0.17770000000E+01 0.  1.
</event>
<event>
 6    1  0.1823098E-004  0.5019199E+03  0.7546771E-02  0.9395524E-01
        -11   -1    0    0    0    0  0.00000000000E+00  0.00000000000E+00  0.50000000000E+03  0.50000000000E+03  0.00000000000E+00 0. -1.
         11   -1    0    0    0    0 -0.00000000000E+00 -0.00000000000E+00 -0.50000000000E+03  0.50000000000E+03  0.00000000000E+00 0.  1.
        -11    1    1    2    0    0  0.23458677700E+02  0.41536777979E+01  0.49751004794E+03  0.49808012448E+03  0.00000000000E+00 0. -1.
         11    1    1    2    0    0 -0.18580449649E+02  0.10261508992E+02 -0.72554733658E+02  0.75595774036E+02  0.00000000000E+00 0.  1.
        -15    1    1    2    0    0 -0.77308403778E+01  0.63089662776E+01 -0.67923794404E+02  0.68675821973E+02  0.17770000000E+01 0.  1.
         15    1    1    2    0    0  0.28526123266E+01 -0.20724153068E+02 -0.35703151988E+03  0.35764827951E+03  0.17770000000E+01 0. -1.
</event>
<event>
 6    1  0.1823098E-004  0.5080670E+03  0.7546771E-02  0.9381938E-01
        -11   -1    0    0    0    0  0.00000000000E+00  0.00000000000E+00  0.50000000000E+03  0.50000000000E+03  0.00000000000E+00 0. -1.
         11   -1    0    0    0    0 -0.00000000000E+00 -0.00000000000E+00 -0.50000000000E+03  0.50000000000E+03  0.00000000000E+00 0.  1.
        -11    1    1    2    0    0 -0.57602830560E+01  0.53170962040E+01  0.45915778835E+03  0.45922470205E+03  0.00000000000E+00 0. -1.
         11    1    1    2    0    0 -0.18404187576E+02  0.67481662969E+01 -0.49154229871E+03  0.49193300692E+03  0.00000000000E+00 0.  1.
        -15    1    1    2    0    0  0.92844655643E+01 -0.14805055893E+01  0.28534207770E+02  0.30095712979E+02  0.17770000000E+01 0. -1.
         15    1    1    2    0    0  0.14880005068E+02 -0.10584756912E+02  0.38503025954E+01  0.18746578055E+02  0.17770000000E+01 0.  1.
</event>
<event>
 6    1  0.1823098E-004  0.5016322E+03  0.7546771E-02  0.9396165E-01
        -11   -1    0    0    0    0  0.00000000000E+00  0.00000000000E+00  0.50000000000E+03  0.50000000000E+03  0.00000000000E+00 0.  1.
         11   -1    0    0    0    0 -0.00000000000E+00 -0.00000000000E+00 -0.50000000000E+03  0.50000000000E+03  0.00000000000E+00 0.  1.
        -11    1    1    2    0    0 -0.48908639777E+01 -0.15594589573E+02  0.49809975510E+03  0.49836781377E+03  0.00000000000E+00 0.  1.
         11    1    1    2    0    0 -0.94078666222E+01  0.19187113526E+02 -0.22172544882E+03  0.22275284046E+03  0.00000000000E+00 0.  1.
        -15    1    1    2    0    0  0.13376474865E+02 -0.12320140294E+02 -0.25566475040E+03  0.25631687081E+03  0.17770000000E+01 0.  1.
         15    1    1    2    0    0  0.92225573518E+00  0.87276163412E+01 -0.20709555873E+02  0.22562474955E+02  0.17770000000E+01 0. -1.
</event>
<event>
 6    1  0.1823098E-004  0.5008210E+03  0.7546771E-02  0.9397974E-01
        -11   -1    0    0    0    0  0.00000000000E+00  0.00000000000E+00  0.50000000000E+03  0.50000000000E+03  0.00000000000E+00 0.  1.
         11   -1    0    0    0    0 -0.00000000000E+00 -0.00000000000E+00 -0.50000000000E+03  0.50000000000E+03  0.00000000000E+00 0.  1.
        -11    1    1    2    0    0 -0.14032393655E+01 -0.19535971151E+01  0.62563174926E+02  0.62609396093E+02  0.00000000000E+00 0.  1.
         11    1    1    2    0    0 -0.16371306912E+02  0.33664344111E+02 -0.49777338280E+03  0.49917897430E+03  0.00000000000E+00 0.  1.
        -15    1    1    2    0    0  0.21046471689E+02 -0.73058446593E+01  0.29493854080E+03  0.29578409341E+03  0.17770000000E+01 0.  1.
         15    1    1    2    0    0 -0.32719254114E+01 -0.24404902337E+02  0.14027166708E+03  0.14242753620E+03  0.17770000000E+01 0. -1.
</event>
<event>
 6    1  0.1823098E-004  0.4810410E+03  0.7546771E-02  0.9443261E-01
        -11   -1    0    0    0    0  0.00000000000E+00  0.00000000000E+00  0.50000000000E+03  0.50000000000E+03  0.00000000000E+00 0. -1.
         11   -1    0    0    0    0 -0.00000000000E+00 -0.00000000000E+00 -0.50000000000E+03  0.50000000000E+03  0.00000000000E+00 0. -1.
        -11    1    1    2    0    0 -0.11750794679E+02  0.10569645232E+02  0.48182721075E+03  0.48208636114E+03  0.00000000000E+00 0. -1.
         11    1    1    2    0    0  0.36464783518E+01  0.22053173485E+02 -0.48006417074E+03  0.48058427699E+03  0.00000000000E+00 0. -1.
        -15    1    1    2    0    0  0.26440812812E+01 -0.29741212322E+02 -0.46770330421E+01  0.30274795512E+02  0.17770000000E+01 0. -1.
         15    1    1    2    0    0  0.54602350465E+01 -0.28816063948E+01  0.29139930288E+01  0.70545663616E+01  0.17770000000E+01 0.  1.
</event>
<event>
 6    1  0.1823098E-004  0.5003118E+03  0.7546771E-02  0.9399112E-01
        -11   -1    0    0    0    0  0.00000000000E+00  0.00000000000E+00  0.50000000000E+03  0.50000000000E+03  0.00000000000E+00 0. -1.
         11   -1    0    0    0    0 -0.00000000000E+00 -0.00000000000E+00 -0.50000000000E+03  0.50000000000E+03  0.00000000000E+00 0. -1.
        -11    1    1    2    0    0 -0.42145550817E+01  0.72418781568E+00  0.30483731898E+03  0.30486731207E+03  0.00000000000E+00 0. -1.
         11    1    1    2    0    0 -0.10632913138E+02  0.36740392730E+01 -0.49956158470E+03  0.49968823712E+03  0.00000000000E+00 0. -1.
        -15    1    1    2    0    0  0.32178087762E+01  0.74371248618E+00  0.33342215434E+02  0.33552473241E+02  0.17770000000E+01 0. -1.
         15    1    1    2    0    0  0.11629659443E+02 -0.51419395749E+01  0.16138205028E+03  0.16189197758E+03  0.17770000000E+01 0. -1.
</event>
<event>
 6    1  0.1823098E-004  0.5000883E+03  0.7546771E-02  0.9399612E-01
        -11   -1    0    0    0    0  0.00000000000E+00  0.00000000000E+00  0.50000000000E+03  0.50000000000E+03  0.00000000000E+00 0. -1.
         11   -1    0    0    0    0 -0.00000000000E+00 -0.00000000000E+00 -0.50000000000E+03  0.50000000000E+03  0.00000000000E+00 0.  1.
        -11    1    1    2    0    0 -0.52664268920E+01 -0.58371556238E+01  0.49984986016E+03  0.49991168254E+03  0.00000000000E+00 0. -1.
         11    1    1    2    0    0  0.78631011131E+01  0.69994501161E+01 -0.35900177785E+03  0.35915609025E+03  0.00000000000E+00 0.  1.
        -15    1    1    2    0    0 -0.70540103769E+00 -0.10698218084E+01 -0.77462129282E+02  0.77493104927E+02  0.17770000000E+01 0.  1.
         15    1    1    2    0    0 -0.18912731834E+01 -0.92472683858E-01 -0.63385953030E+02  0.63439122282E+02  0.17770000000E+01 0. -1.
</event>
<event>
 6    1  0.1823098E-004  0.5044392E+03  0.7546771E-02  0.9389931E-01
        -11   -1    0    0    0    0  0.00000000000E+00  0.00000000000E+00  0.50000000000E+03  0.50000000000E+03  0.00000000000E+00 0. -1.
         11   -1    0    0    0    0 -0.00000000000E+00 -0.00000000000E+00 -0.50000000000E+03  0.50000000000E+03  0.00000000000E+00 0.  1.
        -11    1    1    2    0    0 -0.23696471513E+01  0.94797175145E+01  0.49546449624E+03  0.49556084117E+03  0.00000000000E+00 0. -1.
         11    1    1    2    0    0  0.15006674796E+01 -0.27598193585E+02 -0.46958543058E+03  0.47039811746E+03  0.00000000000E+00 0.  1.
        -15    1    1    2    0    0  0.16540066956E+01  0.30558092355E+01  0.14950148608E+00  0.39056098022E+01  0.17770000000E+01 0.  1.
         15    1    1    2    0    0 -0.78502702392E+00  0.15062666835E+02 -0.26028567138E+02  0.30135431569E+02  0.17770000000E+01 0.  1.
</event>
<event>
 6    1  0.1823098E-004  0.5081138E+03  0.7546771E-02  0.9381835E-01
        -11   -1    0    0    0    0  0.00000000000E+00  0.00000000000E+00  0.50000000000E+03  0.50000000000E+03  0.00000000000E+00 0.  1.
         11   -1    0    0    0    0 -0.00000000000E+00 -0.00000000000E+00 -0.50000000000E+03  0.50000000000E+03  0.00000000000E+00 0.  1.
        -11    1    1    2    0    0  0.10662747829E+02 -0.42680478603E+01  0.49175213779E+03  0.49188624238E+03  0.00000000000E+00 0.  1.
         11    1    1    2    0    0 -0.38223902309E+02 -0.10417886718E+02 -0.40423561839E+03  0.40617241936E+03  0.00000000000E+00 0.  1.
        -15    1    1    2    0    0 -0.59328813745E+01 -0.23415533728E+01  0.67318962383E-01  0.66214963902E+01  0.17770000000E+01 0. -1.
         15    1    1    2    0    0  0.33494035855E+02  0.17027487951E+02 -0.87583838360E+02  0.95319841872E+02  0.17770000000E+01 0.  1.
</event>
<event>
 6    1  0.1823098E-004  0.5033260E+03  0.7546771E-02  0.9392398E-01
        -11   -1    0    0    0    0  0.00000000000E+00  0.00000000000E+00  0.50000000000E+03  0.50000000000E+03  0.00000000000E+00 0. -1.
         11   -1    0    0    0    0 -0.00000000000E+00 -0.00000000000E+00 -0.50000000000E+03  0.50000000000E+03  0.00000000000E+00 0. -1.
        -11    1    1    2    0    0  0.11855739400E+01 -0.81989181491E+01  0.45437074865E+03  0.45444626203E+03  0.00000000000E+00 0. -1.
         11    1    1    2    0    0  0.75155605094E+01  0.29870484649E+02 -0.49571800562E+03  0.49667400838E+03  0.00000000000E+00 0. -1.
        -15    1    1    2    0    0 -0.65845946298E+01 -0.22224206350E+02  0.36595606507E+02  0.43355142473E+02  0.17770000000E+01 0. -1.
         15    1    1    2    0    0 -0.21165398195E+01  0.55263984980E+00  0.47516504667E+01  0.55245871130E+01  0.17770000000E+01 0. -1.
</event>
<event>
 6    1  0.1823098E-004  0.5008704E+03  0.7546771E-02  0.9397864E-01
        -11   -1    0    0    0    0  0.00000000000E+00  0.00000000000E+00  0.50000000000E+03  0.50000000000E+03  0.00000000000E+00 0.  1.
         11   -1    0    0    0    0 -0.00000000000E+00 -0.00000000000E+00 -0.50000000000E+03  0.50000000000E+03  0.00000000000E+00 0. -1.
        -11    1    1    2    0    0 -0.11692275034E+01 -0.69050887546E+01  0.49908044577E+03  0.49912958107E+03  0.00000000000E+00 0.  1.
         11    1    1    2    0    0  0.26348792259E+00  0.60273213291E+01 -0.36721146771E+03  0.36726102440E+03  0.00000000000E+00 0. -1.
        -15    1    1    2    0    0 -0.36362594869E+01 -0.93118234482E+01 -0.58112746426E+02  0.58993062857E+02  0.17770000000E+01 0.  1.
         15    1    1    2    0    0  0.45419990677E+01  0.10189590874E+02 -0.73756231642E+02  0.74616331676E+02  0.17770000000E+01 0. -1.
</event>
<event>
 6    1  0.1823098E-004  0.5009430E+03  0.7546771E-02  0.9397702E-01
        -11   -1    0    0    0    0  0.00000000000E+00  0.00000000000E+00  0.50000000000E+03  0.50000000000E+03  0.00000000000E+00 0. -1.
         11   -1    0    0    0    0 -0.00000000000E+00 -0.00000000000E+00 -0.50000000000E+03  0.50000000000E+03  0.00000000000E+00 0.  1.
        -11    1    1    2    0    0 -0.75951491265E+01  0.38594925303E+01  0.44604240001E+03  0.44612375478E+03  0.00000000000E+00 0. -1.
         11    1    1    2    0    0  0.16711668865E+02 -0.41802199013E+00 -0.49877693550E+03  0.49905699675E+03  0.00000000000E+00 0.  1.
        -15    1    1    2    0    0 -0.62437524101E+01 -0.55335690813E+01  0.47433639411E+02  0.48194529853E+02  0.17770000000E+01 0.  1.
         15    1    1    2    0    0 -0.28727673286E+01  0.20920985411E+01  0.53008960817E+01  0.66247186129E+01  0.17770000000E+01 0. -1.
</event>
<event>
 6    1  0.1823098E-004  0.5048772E+03  0.7546771E-02  0.9388962E-01
        -11   -1    0    0    0    0  0.00000000000E+00  0.00000000000E+00  0.50000000000E+03  0.50000000000E+03  0.00000000000E+00 0. -1.
         11   -1    0    0    0    0 -0.00000000000E+00 -0.00000000000E+00 -0.50000000000E+03  0.50000000000E+03  0.00000000000E+00 0.  1.
        -11    1    1    2    0    0  0.29308466454E+02 -0.21167138005E+02  0.40985904814E+03  0.41145045058E+03  0.00000000000E+00 0. -1.
         11    1    1    2    0    0 -0.22698100583E+02  0.63494803372E+02 -0.49050968402E+03  0.49512275644E+03  0.00000000000E+00 0.  1.
        -15    1    1    2    0    0  0.63977578797E+01 -0.15668512402E+02  0.23533391000E+02  0.29041553122E+02  0.17770000000E+01 0. -1.
         15    1    1    2    0    0 -0.13008123750E+02 -0.26659152965E+02  0.57117244877E+02  0.64385239859E+02  0.17770000000E+01 0.  1.
</event>
<event>
 6    1  0.1823098E-004  0.5001529E+03  0.7546771E-02  0.9399468E-01
        -11   -1    0    0    0    0  0.00000000000E+00  0.00000000000E+00  0.50000000000E+03  0.50000000000E+03  0.00000000000E+00 0. -1.
         11   -1    0    0    0    0 -0.00000000000E+00 -0.00000000000E+00 -0.50000000000E+03  0.50000000000E+03  0.00000000000E+00 0. -1.
        -11    1    1    2    0    0  0.89945179531E+01  0.58998490584E+01  0.16100494766E+03  0.16136388302E+03  0.00000000000E+00 0. -1.
         11    1    1    2    0    0 -0.12536610672E+02 -0.15928695587E+01 -0.49968735313E+03  0.49984713135E+03  0.00000000000E+00 0. -1.
        -15    1    1    2    0    0 -0.11667996182E+01 -0.18285324284E+01  0.91655432194E+02  0.91698314771E+02  0.17770000000E+01 0. -1.
         15    1    1    2    0    0  0.47088923375E+01 -0.24784470713E+01  0.24702697328E+03  0.24709067085E+03  0.17770000000E+01 0. -1.
</event>
<event>
 6    1  0.1823098E-004  0.5001615E+03  0.7546771E-02  0.9399448E-01
        -11   -1    0    0    0    0  0.00000000000E+00  0.00000000000E+00  0.50000000000E+03  0.50000000000E+03  0.00000000000E+00 0.  1.
         11   -1    0    0    0    0 -0.00000000000E+00 -0.00000000000E+00 -0.50000000000E+03  0.50000000000E+03  0.00000000000E+00 0. -1.
        -11    1    1    2    0    0 -0.13586571917E+02  0.73816650852E+01  0.49959926923E+03  0.49983848765E+03  0.00000000000E+00 0.  1.
         11    1    1    2    0    0  0.82321575198E+01 -0.11903129777E+02 -0.25115737978E+03  0.25157400965E+03  0.00000000000E+00 0. -1.
        -15    1    1    2    0    0  0.64231541683E+00  0.20394693460E+01 -0.10239035524E+03  0.10242809468E+03  0.17770000000E+01 0. -1.
         15    1    1    2    0    0  0.47120989806E+01  0.24819953458E+01 -0.14605153422E+03  0.14615940802E+03  0.17770000000E+01 0. -1.
</event>
<event>
 6    1  0.1823098E-004  0.5011514E+03  0.7546771E-02  0.9397237E-01
        -11   -1    0    0    0    0  0.00000000000E+00  0.00000000000E+00  0.50000000000E+03  0.50000000000E+03  0.00000000000E+00 0. -1.
         11   -1    0    0    0    0 -0.00000000000E+00 -0.00000000000E+00 -0.50000000000E+03  0.50000000000E+03  0.00000000000E+00 0. -1.
        -11    1    1    2    0    0 -0.67174508331E+01  0.17431875161E+01  0.49880029956E+03  0.49884857592E+03  0.00000000000E+00 0. -1.
         11    1    1    2    0    0 -0.64874338670E+01 -0.11921398849E+02 -0.29964048608E+03  0.29994770785E+03  0.00000000000E+00 0. -1.
        -15    1    1    2    0    0  0.10862598093E+02  0.12418338738E+02 -0.19472381390E+03  0.19542961035E+03  0.17770000000E+01 0.  1.
         15    1    1    2    0    0  0.23422866075E+01 -0.22401274049E+01 -0.44359995851E+01  0.57741058754E+01  0.17770000000E+01 0. -1.
</event>
<event>
 6    1  0.1823098E-004  0.5004572E+03  0.7546771E-02  0.9398787E-01
        -11   -1    0    0    0    0  0.00000000000E+00  0.00000000000E+00  0.50000000000E+03  0.50000000000E+03  0.00000000000E+00 0.  1.
         11   -1    0    0    0    0 -0.00000000000E+00 -0.00000000000E+00 -0.50000000000E+03  0.50000000000E+03  0.00000000000E+00 0.  1.
        -11    1    1    2    0    0  0.82211887254E+01  0.28896658752E+01  0.49946678401E+03  0.49954279741E+03  0.00000000000E+00 0.  1.
         11    1    1    2    0    0 -0.83167439524E+01  0.78653328311E+01 -0.28327691707E+03  0.28350810118E+03  0.00000000000E+00 0.  1.
        -15    1    1    2    0    0  0.26712986265E+01 -0.12701417563E+02 -0.19512776108E+03  0.19556702871E+03  0.17770000000E+01 0. -1.
         15    1    1    2    0    0 -0.25757433995E+01  0.19464188569E+01 -0.21062105862E+02  0.21382072696E+02  0.17770000000E+01 0.  1.
</event>
<event>
 6    1  0.1823098E-004  0.5092981E+03  0.7546771E-02  0.9379241E-01
        -11   -1    0    0    0    0  0.00000000000E+00  0.00000000000E+00  0.50000000000E+03  0.50000000000E+03  0.00000000000E+00 0. -1.
         11   -1    0    0    0    0 -0.00000000000E+00 -0.00000000000E+00 -0.50000000000E+03  0.50000000000E+03  0.00000000000E+00 0.  1.
        -11    1    1    2    0    0 -0.72693875586E+01 -0.30540173848E+01  0.43025850000E+03  0.43033074238E+03  0.00000000000E+00 0. -1.
         11    1    1    2    0    0  0.17547576400E+02 -0.32395932189E+02 -0.48931676176E+03  0.49070185164E+03  0.00000000000E+00 0.  1.
        -15    1    1    2    0    0 -0.10173728952E+02  0.28761660985E+01 -0.84841535996E+00  0.10754284255E+02  0.17770000000E+01 0.  1.
         15    1    1    2    0    0 -0.10445988958E+00  0.32573783476E+02  0.59906677126E+02  0.68213121722E+02  0.17770000000E+01 0. -1.
</event>
<event>
 6    1  0.1823098E-004  0.5008708E+03  0.7546771E-02  0.9397863E-01
        -11   -1    0    0    0    0  0.00000000000E+00  0.00000000000E+00  0.50000000000E+03  0.50000000000E+03  0.00000000000E+00 0. -1.
         11   -1    0    0    0    0 -0.00000000000E+00 -0.00000000000E+00 -0.50000000000E+03  0.50000000000E+03  0.00000000000E+00 0. -1.
        -11    1    1    2    0    0  0.65226398952E+01  0.38730190034E+01  0.49907152092E+03  0.49912916975E+03  0.00000000000E+00 0. -1.
         11    1    1    2    0    0 -0.12128070707E+02  0.84914468741E+01 -0.40766212399E+03  0.40793087908E+03  0.00000000000E+00 0. -1.
        -15    1    1    2    0    0 -0.22970358409E+01 -0.15686636720E+01 -0.18173179608E+02  0.18470497163E+02  0.17770000000E+01 0. -1.
         15    1    1    2    0    0  0.79024666529E+01 -0.10795802206E+02 -0.73236217313E+02  0.74469454004E+02  0.17770000000E+01 0.  1.
</event>
<event>
 6    1  0.1823098E-004  0.5005923E+03  0.7546771E-02  0.9398485E-01
        -11   -1    0    0    0    0  0.00000000000E+00  0.00000000000E+00  0.50000000000E+03  0.50000000000E+03  0.00000000000E+00 0. -1.
         11   -1    0    0    0    0 -0.00000000000E+00 -0.00000000000E+00 -0.50000000000E+03  0.50000000000E+03  0.00000000000E+00 0. -1.
        -11    1    1    2    0    0 -0.27235464029E+01  0.86526231913E+01  0.49932534536E+03  0.49940773534E+03  0.00000000000E+00 0. -1.
         11    1    1    2    0    0  0.77188435933E+01  0.17033877938E+01 -0.28049138609E+02  0.29141658379E+02  0.00000000000E+00 0. -1.
        -15    1    1    2    0    0 -0.42876399077E+01 -0.96131728123E+01 -0.41417132174E+03  0.41430886839E+03  0.17770000000E+01 0. -1.
         15    1    1    2    0    0 -0.70765728265E+00 -0.74283817283E+00 -0.57104885016E+02  0.57141737890E+02  0.17770000000E+01 0. -1.
</event>
<event>
 6    1  0.1823098E-004  0.5123237E+03  0.7546771E-02  0.9372649E-01
        -11   -1    0    0    0    0  0.00000000000E+00  0.00000000000E+00  0.50000000000E+03  0.50000000000E+03  0.00000000000E+00 0.  1.
         11   -1    0    0    0    0 -0.00000000000E+00 -0.00000000000E+00 -0.50000000000E+03  0.50000000000E+03  0.00000000000E+00 0.  1.
        -11    1    1    2    0    0  0.10199873023E+02  0.11303460351E+02  0.48743859745E+03  0.48767631879E+03  0.00000000000E+00 0.  1.
         11    1    1    2    0    0 -0.27000847830E+02  0.30241219171E+02 -0.37806824954E+02  0.55434043093E+02  0.00000000000E+00 0.  1.
        -15    1    1    2    0    0  0.36412399855E+02 -0.48066998211E+02 -0.34087392897E+03  0.34617118939E+03  0.17770000000E+01 0.  1.
         15    1    1    2    0    0 -0.19611425047E+02  0.65223186882E+01 -0.10875784352E+03  0.11071844873E+03  0.17770000000E+01 0. -1.
</event>
<event>
 6    1  0.1823098E-004  0.4898522E+03  0.7546771E-02  0.9422807E-01
        -11   -1    0    0    0    0  0.00000000000E+00  0.00000000000E+00  0.50000000000E+03  0.50000000000E+03  0.00000000000E+00 0. -1.
         11   -1    0    0    0    0 -0.00000000000E+00 -0.00000000000E+00 -0.50000000000E+03  0.50000000000E+03  0.00000000000E+00 0. -1.
        -11    1    1    2    0    0 -0.31182602334E+01 -0.58959383274E+01  0.48546370645E+03  0.48550952196E+03  0.00000000000E+00 0. -1.
         11    1    1    2    0    0 -0.74847571515E+01 -0.69996548706E+01 -0.49427047683E+03  0.49437669952E+03  0.00000000000E+00 0. -1.
        -15    1    1    2    0    0  0.14028420658E+01  0.59478406834E+01  0.23731360077E+01  0.67922218874E+01  0.17770000000E+01 0.  1.
         15    1    1    2    0    0  0.92001753190E+01  0.69477525147E+01  0.64336343744E+01  0.13321556635E+02  0.17770000000E+01 0. -1.
</event>
<event>
 6    1  0.1823098E-004  0.5061774E+03  0.7546771E-02  0.9386092E-01
        -11   -1    0    0    0    0  0.00000000000E+00  0.00000000000E+00  0.50000000000E+03  0.50000000000E+03  0.00000000000E+00 0. -1.
         11   -1    0    0    0    0 -0.00000000000E+00 -0.00000000000E+00 -0.50000000000E+03  0.50000000000E+03  0.00000000000E+00 0. -1.
        -11    1    1    2    0    0 -0.85521711910E-01 -0.11151157989E+02  0.49369669639E+03  0.49382262369E+03  0.00000000000E+00 0. -1.
         11    1    1    2    0    0 -0.13473578669E+02 -0.11032319305E+02 -0.46413610837E+03  0.46446267502E+03  0.00000000000E+00 0. -1.
        -15    1    1    2    0    0  0.39381517722E+01  0.17272402888E+02 -0.13805952388E+02  0.22530135180E+02  0.17770000000E+01 0.  1.
         15    1    1    2    0    0  0.96209486083E+01  0.49110744055E+01 -0.15754635634E+02  0.19184566111E+02  0.17770000000E+01 0. -1.
</event>
<event>
 6    1  0.1823098E-004  0.5033675E+03  0.7546771E-02  0.9392306E-01
        -11   -1    0    0    0    0  0.00000000000E+00  0.00000000000E+00  0.50000000000E+03  0.50000000000E+03  0.00000000000E+00 0. -1.
         11   -1    0    0    0    0 -0.00000000000E+00 -0.00000000000E+00 -0.50000000000E+03  0.50000000000E+03  0.00000000000E+00 0.  1.
        -11    1    1    2    0    0  0.15316714105E+02 -0.12016479260E+02  0.43205480828E+03  0.43249318476E+03  0.00000000000E+00 0. -1.
         11    1    1    2    0    0 -0.38913134914E+01 -0.94173874726E+01 -0.49652794416E+03  0.49663248871E+03  0.00000000000E+00 0.  1.
        -15    1    1    2    0    0 -0.20258780276E+01  0.20979613107E+01  0.30094583248E+02  0.30287741634E+02  0.17770000000E+01 0.  1.
         15    1    1    2    0    0 -0.93995225856E+01  0.19335905422E+02  0.34378552633E+02  0.40586584895E+02  0.17770000000E+01 0. -1.
</event>
<event>
 6    1  0.1823098E-004  0.5005070E+03  0.7546771E-02  0.9398676E-01
        -11   -1    0    0    0    0  0.00000000000E+00  0.00000000000E+00  0.50000000000E+03  0.50000000000E+03  0.00000000000E+00 0. -1.
         11   -1    0    0    0    0 -0.00000000000E+00 -0.00000000000E+00 -0.50000000000E+03  0.50000000000E+03  0.00000000000E+00 0. -1.
        -11    1    1    2    0    0  0.11098545485E+01  0.67659133348E+01  0.49944595575E+03  0.49949301504E+03  0.00000000000E+00 0. -1.
         11    1    1    2    0    0  0.64333075375E+01  0.24297338966E+01 -0.35172212862E+03  0.35178935005E+03  0.00000000000E+00 0. -1.
        -15    1    1    2    0    0 -0.18095250879E+01  0.25320558463E+01 -0.20237212124E+02  0.20552084357E+02  0.17770000000E+01 0. -1.
         15    1    1    2    0    0 -0.57336369981E+01 -0.11727703078E+02 -0.12748661501E+03  0.12816555055E+03  0.17770000000E+01 0.  1.
</event>
<event>
 6    1  0.1823098E-004  0.4931817E+03  0.7546771E-02  0.9415197E-01
        -11   -1    0    0    0    0  0.00000000000E+00  0.00000000000E+00  0.50000000000E+03  0.50000000000E+03  0.00000000000E+00 0.  1.
         11   -1    0    0    0    0 -0.00000000000E+00 -0.00000000000E+00 -0.50000000000E+03  0.50000000000E+03  0.00000000000E+00 0. -1.
        -11    1    1    2    0    0 -0.28053352942E+01 -0.65215970814E+01  0.49551122643E+03  0.49556208153E+03  0.00000000000E+00 0.  1.
         11    1    1    2    0    0 -0.83926798161E+01  0.10096463473E+02 -0.49070742835E+03  0.49088303687E+03  0.00000000000E+00 0. -1.
        -15    1    1    2    0    0  0.85728067002E+01 -0.15294359631E+01 -0.30706171794E+01  0.94031169272E+01  0.17770000000E+01 0. -1.
         15    1    1    2    0    0  0.26252084101E+01 -0.20454304288E+01 -0.17331809063E+01  0.41517646717E+01  0.17770000000E+01 0.  1.
</event>
<event>
 6    1  0.1823098E-004  0.5071082E+03  0.7546771E-02  0.9384044E-01
        -11   -1    0    0    0    0  0.00000000000E+00  0.00000000000E+00  0.50000000000E+03  0.50000000000E+03  0.00000000000E+00 0.  1.
         11   -1    0    0    0    0 -0.00000000000E+00 -0.00000000000E+00 -0.50000000000E+03  0.50000000000E+03  0.00000000000E+00 0.  1.
        -11    1    1    2    0    0  0.20172775660E+01 -0.13136553524E+02  0.49271259060E+03  0.49289180901E+03  0.00000000000E+00 0.  1.
         11    1    1    2    0    0  0.18317885173E+02  0.25960160107E+02 -0.30604851016E+02  0.44114983120E+02  0.00000000000E+00 0.  1.
        -15    1    1    2    0    0 -0.19444098278E+02 -0.10054300312E+02 -0.44540689925E+03  0.44594800766E+03  0.17770000000E+01 0.  1.
         15    1    1    2    0    0 -0.89106446155E+00 -0.27693062701E+01 -0.16700840342E+02  0.17045200211E+02  0.17770000000E+01 0. -1.
</event>
<event>
 6    1  0.1823098E-004  0.4921198E+03  0.7546771E-02  0.9417617E-01
        -11   -1    0    0    0    0  0.00000000000E+00  0.00000000000E+00  0.50000000000E+03  0.50000000000E+03  0.00000000000E+00 0. -1.
         11   -1    0    0    0    0 -0.00000000000E+00 -0.00000000000E+00 -0.50000000000E+03  0.50000000000E+03  0.00000000000E+00 0. -1.
        -11    1    1    2    0    0  0.12764632248E+01 -0.88051005351E+01  0.48892913903E+03  0.48901008389E+03  0.00000000000E+00 0. -1.
         11    1    1    2    0    0 -0.99127476941E+01  0.15348577401E+01 -0.49521275577E+03  0.49531433639E+03  0.00000000000E+00 0. -1.
        -15    1    1    2    0    0  0.73964390664E+01  0.11598886739E+01  0.46465401067E+01  0.89889218798E+01  0.17770000000E+01 0. -1.
         15    1    1    2    0    0  0.12398454030E+01  0.61103541212E+01  0.16370766304E+01  0.66866578351E+01  0.17770000000E+01 0.  1.
</event>
<event>
 6    1  0.1823098E-004  0.5025184E+03  0.7546771E-02  0.9394192E-01
        -11   -1    0    0    0    0  0.00000000000E+00  0.00000000000E+00  0.50000000000E+03  0.50000000000E+03  0.00000000000E+00 0. -1.
         11   -1    0    0    0    0 -0.00000000000E+00 -0.00000000000E+00 -0.50000000000E+03  0.50000000000E+03  0.00000000000E+00 0.  1.
        -11    1    1    2    0    0  0.18282014047E+02 -0.49138547870E+01  0.27987846243E+03  0.28051797044E+03  0.00000000000E+00 0. -1.
         11    1    1    2    0    0 -0.36014343939E+02 -0.10715223530E+02 -0.49606058058E+03  0.49748160628E+03  0.00000000000E+00 0.  1.
        -15    1    1    2    0    0 -0.91261854229E+01  0.49301233455E+01  0.14160817868E+03  0.14199868794E+03  0.17770000000E+01 0. -1.
         15    1    1    2    0    0  0.26858515315E+02  0.10698954971E+02  0.74573939466E+02  0.80001735350E+02  0.17770000000E+01 0.  1.
</event>
<event>
 6    1  0.1823098E-004  0.4868539E+03  0.7546771E-02  0.9429715E-01
        -11   -1    0    0    0    0  0.00000000000E+00  0.00000000000E+00  0.50000000000E+03  0.50000000000E+03  0.00000000000E+00 0. -1.
         11   -1    0    0    0    0 -0.00000000000E+00 -0.00000000000E+00 -0.50000000000E+03  0.50000000000E+03  0.00000000000E+00 0. -1.
        -11    1    1    2    0    0 -0.92570282831E+01  0.36893179405E+01  0.48406898811E+03  0.48417154902E+03  0.00000000000E+00 0. -1.
         11    1    1    2    0    0 -0.63164774454E+01  0.76678503518E+01 -0.48964222324E+03  0.48974299443E+03  0.00000000000E+00 0. -1.
        -15    1    1    2    0    0  0.16018103202E+02 -0.61675169583E+01 -0.12711004118E+01  0.17302928101E+02  0.17770000000E+01 0.  1.
         15    1    1    2    0    0 -0.44459747313E+00 -0.51896513340E+01  0.68443355428E+01  0.87825284459E+01  0.17770000000E+01 0. -1.
</event>
<event>
 6    1  0.1823098E-004  0.5136421E+03  0.7546771E-02  0.9369791E-01
        -11   -1    0    0    0    0  0.00000000000E+00  0.00000000000E+00  0.50000000000E+03  0.50000000000E+03  0.00000000000E+00 0.  1.
         11   -1    0    0    0    0 -0.00000000000E+00 -0.00000000000E+00 -0.50000000000E+03  0.50000000000E+03  0.00000000000E+00 0.  1.
        -11    1    1    2    0    0 -0.73752759124E+01  0.22230402870E+02  0.48579357108E+03  0.48635787154E+03  0.00000000000E+00 0.  1.
         11    1    1    2    0    0 -0.25502819525E+02  0.30668417814E+01 -0.43922173276E+03  0.43997219213E+03  0.00000000000E+00 0.  1.
        -15    1    1    2    0    0  0.19384740872E+02  0.71358740737E+01 -0.10319921436E+02  0.23159174961E+02  0.17770000000E+01 0. -1.
         15    1    1    2    0    0  0.13493354566E+02 -0.32433118725E+02 -0.36251916885E+02  0.50510761374E+02  0.17770000000E+01 0.  1.
</event>
<event>
 6    1  0.1823098E-004  0.4835168E+03  0.7546771E-02  0.9437467E-01
        -11   -1    0    0    0    0  0.00000000000E+00  0.00000000000E+00  0.50000000000E+03  0.50000000000E+03  0.00000000000E+00 0. -1.
         11   -1    0    0    0    0 -0.00000000000E+00 -0.00000000000E+00 -0.50000000000E+03  0.50000000000E+03  0.00000000000E+00 0.  1.
        -11    1    1    2    0    0  0.66645693674E+01 -0.38446976535E+01  0.48211805234E+03  0.48217944230E+03  0.00000000000E+00 0. -1.
         11    1    1    2    0    0  0.21515789870E+02  0.77840621383E+01 -0.48473661341E+03  0.48527631842E+03  0.00000000000E+00 0.  1.
        -15    1    1    2    0    0 -0.26434706617E+01 -0.31202746415E+01  0.51448840850E+01  0.68082018350E+01  0.17770000000E+01 0. -1.
         15    1    1    2    0    0 -0.25536888576E+02 -0.81908984334E+00 -0.25263230097E+01  0.25736037443E+02  0.17770000000E+01 0.  1.
</event>
<event>
 6    1  0.1823098E-004  0.5002833E+03  0.7546771E-02  0.9399176E-01
        -11   -1    0    0    0    0  0.00000000000E+00  0.00000000000E+00  0.50000000000E+03  0.50000000000E+03  0.00000000000E+00 0. -1.
         11   -1    0    0    0    0 -0.00000000000E+00 -0.00000000000E+00 -0.50000000000E+03  0.50000000000E+03  0.00000000000E+00 0.  1.
        -11    1    1    2    0    0  0.18891718310E+02 -0.23457967895E+02  0.49880822702E+03  0.49971674038E+03  0.00000000000E+00 0. -1.
         11    1    1    2    0    0 -0.11270930893E+02  0.21879702606E+02 -0.23010046321E+03  0.23141300404E+03  0.00000000000E+00 0.  1.
        -15    1    1    2    0    0 -0.86659870084E+00 -0.32452615307E+00 -0.76513450519E+02  0.76539676964E+02  0.17770000000E+01 0. -1.
         15    1    1    2    0    0 -0.67541887162E+01  0.19027914418E+01 -0.19219431329E+03  0.19233057862E+03  0.17770000000E+01 0.  1.
</event>
<event>
 6    1  0.1823098E-004  0.5108151E+03  0.7546771E-02  0.9375930E-01
        -11   -1    0    0    0    0  0.00000000000E+00  0.00000000000E+00  0.50000000000E+03  0.50000000000E+03  0.00000000000E+00 0.  1.
         11   -1    0    0    0    0 -0.00000000000E+00 -0.00000000000E+00 -0.50000000000E+03  0.50000000000E+03  0.00000000000E+00 0. -1.
        -11    1    1    2    0    0  0.10300291290E+02  0.23209570817E+01  0.48907092687E+03  0.48918488770E+03  0.00000000000E+00 0.  1.
         11    1    1    2    0    0 -0.55156454276E+02  0.37181231166E+02 -0.26983358514E+03  0.27791157239E+03  0.00000000000E+00 0. -1.
        -15    1    1    2    0    0 -0.36073414408E+01  0.92860108835E+00  0.60758264045E+00  0.41715821839E+01  0.17770000000E+01 0.  1.
         15    1    1    2    0    0  0.48463504427E+02 -0.40430789336E+02 -0.21984492437E+03  0.22873195773E+03  0.17770000000E+01 0. -1.
</event>
<event>
 6    1  0.1823098E-004  0.4728281E+03  0.7546771E-02  0.9462750E-01
        -11   -1    0    0    0    0  0.00000000000E+00  0.00000000000E+00  0.50000000000E+03  0.50000000000E+03  0.00000000000E+00 0.  1.
         11   -1    0    0    0    0 -0.00000000000E+00 -0.00000000000E+00 -0.50000000000E+03  0.50000000000E+03  0.00000000000E+00 0. -1.
        -11    1    1    2    0    0 -0.10370857464E+02 -0.12289761690E+02  0.47201568272E+03  0.47228952737E+03  0.00000000000E+00 0.  1.
         11    1    1    2    0    0  0.12159199866E+02 -0.33905384600E+02 -0.47312745942E+03  0.47449659019E+03  0.00000000000E+00 0. -1.
        -15    1    1    2    0    0 -0.12564336716E+02  0.12624914674E+02  0.30974463900E+00  0.17902645011E+02  0.17770000000E+01 0. -1.
         15    1    1    2    0    0  0.10775994314E+02  0.33570231616E+02  0.80203206186E+00  0.35311237427E+02  0.17770000000E+01 0.  1.
</event>
<event>
 6    1  0.1823098E-004  0.5053213E+03  0.7546771E-02  0.9387981E-01
        -11   -1    0    0    0    0  0.00000000000E+00  0.00000000000E+00  0.50000000000E+03  0.50000000000E+03  0.00000000000E+00 0. -1.
         11   -1    0    0    0    0 -0.00000000000E+00 -0.00000000000E+00 -0.50000000000E+03  0.50000000000E+03  0.00000000000E+00 0. -1.
        -11    1    1    2    0    0 -0.10225423143E+02 -0.56263145693E+00  0.49457268611E+03  0.49467870146E+03  0.00000000000E+00 0. -1.
         11    1    1    2    0    0  0.45905216743E+01  0.16131228733E+02 -0.42129204926E+03  0.42162575846E+03  0.00000000000E+00 0. -1.
        -15    1    1    2    0    0 -0.11826734687E+02 -0.16174679014E+02 -0.23642653913E+02  0.31042305127E+02  0.17770000000E+01 0. -1.
         15    1    1    2    0    0  0.17461636156E+02  0.60608173800E+00 -0.49637982935E+02  0.52653234954E+02  0.17770000000E+01 0.  1.
</event>
<event>
 6    1  0.1823098E-004  0.5020384E+03  0.7546771E-02  0.9395260E-01
        -11   -1    0    0    0    0  0.00000000000E+00  0.00000000000E+00  0.50000000000E+03  0.50000000000E+03  0.00000000000E+00 0. -1.
         11   -1    0    0    0    0 -0.00000000000E+00 -0.00000000000E+00 -0.50000000000E+03  0.50000000000E+03  0.00000000000E+00 0. -1.
        -11    1    1    2    0    0  0.10223309234E+02  0.66156498387E+01  0.44920578764E+03  0.44937080738E+03  0.00000000000E+00 0. -1.
         11    1    1    2    0    0  0.10331565441E+01  0.88624774266E+01 -0.49788165624E+03  0.49796159947E+03  0.00000000000E+00 0. -1.
        -15    1    1    2    0    0 -0.39720968635E+01 -0.58615898262E+01  0.24884494357E+02  0.25933213784E+02  0.17770000000E+01 0. -1.
         15    1    1    2    0    0 -0.72843689145E+01 -0.96165374391E+01  0.23791374242E+02  0.26734379367E+02  0.17770000000E+01 0.  1.
</event>
<event>
 6    1  0.1823098E-004  0.5002614E+03  0.7546771E-02  0.9399225E-01
        -11   -1    0    0    0    0  0.00000000000E+00  0.00000000000E+00  0.50000000000E+03  0.50000000000E+03  0.00000000000E+00 0. -1.
         11   -1    0    0    0    0 -0.00000000000E+00 -0.00000000000E+00 -0.50000000000E+03  0.50000000000E+03  0.00000000000E+00 0.  1.
        -11    1    1    2    0    0 -0.49438317371E+01 -0.51485809302E+01  0.49968766556E+03  0.49973864417E+03  0.00000000000E+00 0. -1.
         11    1    1    2    0    0  0.86519731825E+01 -0.65386202909E+01 -0.23869319315E+03  0.23893942884E+03  0.00000000000E+00 0.  1.
        -15    1    1    2    0    0 -0.20563935651E+01  0.41704119566E+01 -0.12407731702E+03  0.12417712921E+03  0.17770000000E+01 0.  1.
         15    1    1    2    0    0 -0.16517478803E+01  0.75167892644E+01 -0.13691715539E+03  0.13714479779E+03  0.17770000000E+01 0.  1.
</event>
<event>
 6    1  0.1823098E-004  0.5005807E+03  0.7546771E-02  0.9398511E-01
        -11   -1    0    0    0    0  0.00000000000E+00  0.00000000000E+00  0.50000000000E+03  0.50000000000E+03  0.00000000000E+00 0.  1.
         11   -1    0    0    0    0 -0.00000000000E+00 -0.00000000000E+00 -0.50000000000E+03  0.50000000000E+03  0.00000000000E+00 0.  1.
        -11    1    1    2    0    0 -0.99184645101E+01  0.17884668728E+01  0.49931760210E+03  0.49941930511E+03  0.00000000000E+00 0.  1.
         11    1    1    2    0    0  0.14935093692E+02 -0.33579679814E+01 -0.13266443109E+03  0.13354469008E+03  0.00000000000E+00 0.  1.
        -15    1    1    2    0    0 -0.81049814248E+01  0.92515604370E+00 -0.34349698287E+03  0.34359843074E+03  0.17770000000E+01 0.  1.
         15    1    1    2    0    0  0.30883522433E+01  0.64434506490E+00 -0.23156188141E+02  0.23437574072E+02  0.17770000000E+01 0. -1.
</event>
<event>
 6    1  0.1823098E-004  0.4889102E+03  0.7546771E-02  0.9424972E-01
        -11   -1    0    0    0    0  0.00000000000E+00  0.00000000000E+00  0.50000000000E+03  0.50000000000E+03  0.00000000000E+00 0. -1.
         11   -1    0    0    0    0 -0.00000000000E+00 -0.00000000000E+00 -0.50000000000E+03  0.50000000000E+03  0.00000000000E+00 0. -1.
        -11    1    1    2    0    0 -0.12144320272E+01 -0.81820853077E+01  0.48919742558E+03  0.48926735284E+03  0.00000000000E+00 0. -1.
         11    1    1    2    0    0 -0.12741887480E+02 -0.64072353984E+00 -0.48852604202E+03  0.48869260272E+03  0.00000000000E+00 0. -1.
        -15    1    1    2    0    0 -0.86299993357E+00  0.74660803347E-01 -0.39636412637E+01  0.44292803239E+01  0.17770000000E+01 0.  1.
         15    1    1    2    0    0  0.14819319440E+02  0.87481480442E+01  0.32922577060E+01  0.17610764114E+02  0.17770000000E+01 0. -1.
</event>
<event>
 6    1  0.1823098E-004  0.5038209E+03  0.7546771E-02  0.9391300E-01
        -11   -1    0    0    0    0  0.00000000000E+00  0.00000000000E+00  0.50000000000E+03  0.50000000000E+03  0.00000000000E+00 0. -1.
         11   -1    0    0    0    0 -0.00000000000E+00 -0.00000000000E+00 -0.50000000000E+03  0.50000000000E+03  0.00000000000E+00 0.  1.
        -11    1    1    2    0    0  0.57277240191E+01  0.12360894252E+02  0.48910533386E+03  0.48929502975E+03  0.00000000000E+00 0. -1.
         11    1    1    2    0    0 -0.13069152686E+02 -0.19937826984E+02 -0.49560603290E+03  0.49617905996E+03  0.00000000000E+00 0.  1.
        -15    1    1    2    0    0  0.27073201731E+01 -0.71963152710E+00  0.14872528387E+01  0.36355332567E+01  0.17770000000E+01 0. -1.
         15    1    1    2    0    0  0.46341084941E+01  0.82965642584E+01  0.50134462072E+01  0.10890377032E+02  0.17770000000E+01 0.  1.
</event>
<event>
 6    1  0.1823098E-004  0.5129890E+03  0.7546771E-02  0.9371206E-01
        -11   -1    0    0    0    0  0.00000000000E+00  0.00000000000E+00  0.50000000000E+03  0.50000000000E+03  0.00000000000E+00 0.  1.
         11   -1    0    0    0    0 -0.00000000000E+00 -0.00000000000E+00 -0.50000000000E+03  0.50000000000E+03  0.00000000000E+00 0. -1.
        -11    1    1    2    0    0  0.62238767434E+01 -0.44963485260E+01  0.48695046888E+03  0.48701099878E+03  0.00000000000E+00 0.  1.
         11    1    1    2    0    0 -0.37909872456E+02 -0.11311804961E+02 -0.46093190339E+03  0.46262656098E+03  0.00000000000E+00 0. -1.
        -15    1    1    2    0    0 -0.12312158124E+01  0.34526478434E+01  0.27359959125E+01  0.49071450091E+01  0.17770000000E+01 0.  1.
         15    1    1    2    0    0  0.32917211525E+02  0.12355505644E+02 -0.28754561401E+02  0.45455295233E+02  0.17770000000E+01 0. -1.
</event>
<event>
 6    1  0.1823098E-004  0.5001402E+03  0.7546771E-02  0.9399496E-01
        -11   -1    0    0    0    0  0.00000000000E+00  0.00000000000E+00  0.50000000000E+03  0.50000000000E+03  0.00000000000E+00 0.  1.
         11   -1    0    0    0    0 -0.00000000000E+00 -0.00000000000E+00 -0.50000000000E+03  0.50000000000E+03  0.00000000000E+00 0.  1.
        -11    1    1    2    0    0  0.57600779139E+01  0.19687872999E-01  0.30356533909E+03  0.30361998284E+03  0.00000000000E+00 0.  1.
         11    1    1    2    0    0 -0.10672527344E+02 -0.40320063878E+01 -0.49972958193E+03  0.49985979531E+03  0.00000000000E+00 0.  1.
        -15    1    1    2    0    0  0.43385018926E+01  0.14986461055E+01  0.17931052608E+03  0.17937806731E+03  0.17770000000E+01 0.  1.
         15    1    1    2    0    0  0.57394753771E+00  0.25136724093E+01  0.16853716751E+02  0.17142154534E+02  0.17770000000E+01 0.  1.
</event>
<event>
 6    1  0.1823098E-004  0.5003470E+03  0.7546771E-02  0.9399034E-01
        -11   -1    0    0    0    0  0.00000000000E+00  0.00000000000E+00  0.50000000000E+03  0.50000000000E+03  0.00000000000E+00 0. -1.
         11   -1    0    0    0    0 -0.00000000000E+00 -0.00000000000E+00 -0.50000000000E+03  0.50000000000E+03  0.00000000000E+00 0. -1.
        -11    1    1    2    0    0 -0.12231613437E+02  0.59866921114E+01  0.49946734118E+03  0.49965295732E+03  0.00000000000E+00 0. -1.
         11    1    1    2    0    0  0.13463551748E+02  0.86591619149E+00 -0.11873471754E+03  0.11949874554E+03  0.00000000000E+00 0. -1.
        -15    1    1    2    0    0 -0.10943601954E+01 -0.31972689500E+01 -0.82866169252E+02  0.82954083013E+02  0.17770000000E+01 0. -1.
         15    1    1    2    0    0 -0.13757811537E+00 -0.36553393530E+01 -0.29786645439E+03  0.29789421413E+03  0.17770000000E+01 0. -1.
</event>
<event>
 6    1  0.1823098E-004  0.5040073E+03  0.7546771E-02  0.9390887E-01
        -11   -1    0    0    0    0  0.00000000000E+00  0.00000000000E+00  0.50000000000E+03  0.50000000000E+03  0.00000000000E+00 0.  1.
         11   -1    0    0    0    0 -0.00000000000E+00 -0.00000000000E+00 -0.50000000000E+03  0.50000000000E+03  0.00000000000E+00 0. -1.
        -11    1    1    2    0    0  0.67303259490E+01 -0.26376555606E+01  0.49593997818E+03  0.49599265768E+03  0.00000000000E+00 0.  1.
         11    1    1    2    0    0 -0.10611026553E+02 -0.35065759417E+01 -0.42963121444E+03  0.42977653540E+03  0.00000000000E+00 0. -1.
        -15    1    1    2    0    0  0.67190754941E+01 -0.83347852877E+01 -0.53566537626E+02  0.54654792137E+02  0.17770000000E+01 0.  1.
         15    1    1    2    0    0 -0.28383748905E+01  0.14479016790E+02 -0.12742226118E+02  0.19576014780E+02  0.17770000000E+01 0. -1.
</event>
<event>
 6    1  0.1823098E-004  0.5010060E+03  0.7546771E-02  0.9397562E-01
        -11   -1    0    0    0    0  0.00000000000E+00  0.00000000000E+00  0.50000000000E+03  0.50000000000E+03  0.00000000000E+00 0.  1.
         11   -1    0    0    0    0 -0.00000000000E+00 -0.00000000000E+00 -0.50000000000E+03  0.50000000000E+03  0.00000000000E+00 0.  1.
        -11    1    1    2    0    0 -0.99582820870E+01  0.53784429599E+01  0.42207170287E+03  0.42222342118E+03  0.00000000000E+00 0.  1.
         11    1    1    2    0    0  0.82752427523E+00 -0.92691313134E+01 -0.49890721021E+03  0.49899399394E+03  0.00000000000E+00 0.  1.
        -15    1    1    2    0    0  0.10339388738E+02 -0.12807710041E+01  0.62585847627E+02  0.63471957478E+02  0.17770000000E+01 0.  1.
         15    1    1    2    0    0 -0.12086309267E+01  0.51714593576E+01  0.14249659709E+02  0.15310627401E+02  0.17770000000E+01 0. -1.
</event>
<event>
 6    1  0.2304340E-004  0.5000660E+03  0.7546771E-02  0.9399662E-01
        -11   -1    0    0    0    0  0.00000000000E+00  0.00000000000E+00  0.50000000000E+03  0.50000000000E+03  0.00000000000E+00 0.  1.
         11   -1    0    0    0    0 -0.00000000000E+00 -0.00000000000E+00 -0.50000000000E+03  0.50000000000E+03  0.00000000000E+00 0.  1.
        -11    1    1    2    0    0 -0.25728479173E+01 -0.29968880797E+01  0.17669775780E+03  0.17674189797E+03  0.00000000000E+00 0.  1.
         11    1    1    2    0    0 -0.27765408161E+01  0.77528676754E+01 -0.49986619778E+03  0.49993402747E+03  0.00000000000E+00 0.  1.
        -15    1    1    2    0    0  0.18405798182E+01 -0.35669727457E+01  0.25125670867E+03  0.25129505051E+03  0.17770000000E+01 0. -1.
         15    1    1    2    0    0  0.35088089152E+01 -0.11890068499E+01  0.71911731310E+02  0.72029024055E+02  0.17770000000E+01 0.  1.
</event>
<event>
 6    1  0.1823098E-004  0.5049291E+03  0.7546771E-02  0.9388848E-01
        -11   -1    0    0    0    0  0.00000000000E+00  0.00000000000E+00  0.50000000000E+03  0.50000000000E+03  0.00000000000E+00 0.  1.
         11   -1    0    0    0    0 -0.00000000000E+00 -0.00000000000E+00 -0.50000000000E+03  0.50000000000E+03  0.00000000000E+00 0. -1.
        -11    1    1    2    0    0  0.42065793629E+01 -0.11512506575E+02  0.49491917565E+03  0.49507092779E+03  0.00000000000E+00 0.  1.
         11    1    1    2    0    0 -0.43784459031E+01 -0.21556632128E+02 -0.40600790156E+03  0.40660333903E+03  0.00000000000E+00 0. -1.
        -15    1    1    2    0    0  0.27141739931E+01  0.25059846301E+02 -0.85377225636E+02  0.89038143644E+02  0.17770000000E+01 0. -1.
         15    1    1    2    0    0 -0.25423074529E+01  0.80092924011E+01 -0.35340484525E+01  0.92875895375E+01  0.17770000000E+01 0.  1.
</event>
<event>
 6    1  0.1823098E-004  0.4909455E+03  0.7546771E-02  0.9420301E-01
        -11   -1    0    0    0    0  0.00000000000E+00  0.00000000000E+00  0.50000000000E+03  0.50000000000E+03  0.00000000000E+00 0. -1.
         11   -1    0    0    0    0 -0.00000000000E+00 -0.00000000000E+00 -0.50000000000E+03  0.50000000000E+03  0.00000000000E+00 0. -1.
        -11    1    1    2    0    0  0.18823027535E+01  0.78808168075E+01  0.48824481115E+03  0.48831203749E+03  0.00000000000E+00 0. -1.
         11    1    1    2    0    0 -0.12556947807E+02 -0.83773782843E+00 -0.49351589293E+03  0.49367632647E+03  0.00000000000E+00 0. -1.
        -15    1    1    2    0    0  0.18261573395E+01 -0.77616683052E+01  0.25380644023E+01  0.85544050300E+01  0.17770000000E+01 0. -1.
         15    1    1    2    0    0  0.88484877143E+01  0.71858932613E+00  0.27330173753E+01  0.94572310125E+01  0.17770000000E+01 0.  1.
</event>
<event>
 6    1  0.1823098E-004  0.5001718E+03  0.7546771E-02  0.9399425E-01
        -11   -1    0    0    0    0  0.00000000000E+00  0.00000000000E+00  0.50000000000E+03  0.50000000000E+03  0.00000000000E+00 0.  1.
         11   -1    0    0    0    0 -0.00000000000E+00 -0.00000000000E+00 -0.50000000000E+03  0.50000000000E+03  0.00000000000E+00 0. -1.
        -11    1    1    2    0    0  0.13350299991E+02  0.35288361862E+01  0.49963740277E+03  0.49982818792E+03  0.00000000000E+00 0.  1.
         11    1    1    2    0    0 -0.14707155615E+02 -0.42639377154E+01 -0.23896199111E+03  0.23945211376E+03  0.00000000000E+00 0. -1.
        -15    1    1    2    0    0  0.49992752756E+00  0.16595050200E+01 -0.10667434756E+03  0.10670322414E+03  0.17770000000E+01 0. -1.
         15    1    1    2    0    0  0.85692809581E+00 -0.92440349076E+00 -0.15400106410E+03  0.15401647418E+03  0.17770000000E+01 0.  1.
</event>
<event>
 6    1  0.1823098E-004  0.5004181E+03  0.7546771E-02  0.9398875E-01
        -11   -1    0    0    0    0  0.00000000000E+00  0.00000000000E+00  0.50000000000E+03  0.50000000000E+03  0.00000000000E+00 0. -1.
         11   -1    0    0    0    0 -0.00000000000E+00 -0.00000000000E+00 -0.50000000000E+03  0.50000000000E+03  0.00000000000E+00 0.  1.
        -11    1    1    2    0    0  0.80723869327E+01 -0.40421700894E+00  0.49951649925E+03  0.49958188503E+03  0.00000000000E+00 0. -1.
         11    1    1    2    0    0 -0.45013374588E+01 -0.80786149387E+01 -0.35245175189E+03  0.35257306118E+03  0.00000000000E+00 0.  1.
        -15    1    1    2    0    0 -0.20780099748E+01  0.56777389946E+00 -0.69829448016E+01  0.75206209689E+01  0.17770000000E+01 0.  1.
         15    1    1    2    0    0 -0.14930394991E+01  0.79150580482E+01 -0.14008180256E+03  0.14032443283E+03  0.17770000000E+01 0.  1.
</event>
<event>
 6    1  0.1823098E-004  0.5014609E+03  0.7546771E-02  0.9396547E-01
        -11   -1    0    0    0    0  0.00000000000E+00  0.00000000000E+00  0.50000000000E+03  0.50000000000E+03  0.00000000000E+00 0.  1.
         11   -1    0    0    0    0 -0.00000000000E+00 -0.00000000000E+00 -0.50000000000E+03  0.50000000000E+03  0.00000000000E+00 0.  1.
        -11    1    1    2    0    0 -0.20569267688E+02 -0.15988338659E+02  0.49785791629E+03  0.49853909231E+03  0.00000000000E+00 0.  1.
         11    1    1    2    0    0  0.29968129513E+02  0.96591110262E+01 -0.14821615983E+03  0.15152365244E+03  0.00000000000E+00 0.  1.
        -15    1    1    2    0    0 -0.47270520983E+01  0.60159372633E+01 -0.12914835934E+03  0.12938698919E+03  0.17770000000E+01 0.  1.
         15    1    1    2    0    0 -0.46718097273E+01  0.31329036956E+00 -0.22049339713E+03  0.22055026607E+03  0.17770000000E+01 0. -1.
</event>
<event>
 6    1  0.1823098E-004  0.5034234E+03  0.7546771E-02  0.9392182E-01
        -11   -1    0    0    0    0  0.00000000000E+00  0.00000000000E+00  0.50000000000E+03  0.50000000000E+03  0.00000000000E+00 0. -1.
         11   -1    0    0    0    0 -0.00000000000E+00 -0.00000000000E+00 -0.50000000000E+03  0.50000000000E+03  0.00000000000E+00 0.  1.
        -11    1    1    2    0    0  0.41361811085E+01 -0.91102916927E+01  0.48326565193E+03  0.48336921266E+03  0.00000000000E+00 0. -1.
         11    1    1    2    0    0 -0.65903590754E+01 -0.44422927908E+01 -0.49651296855E+03  0.49657657490E+03  0.00000000000E+00 0.  1.
        -15    1    1    2    0    0 -0.12744793771E+01  0.41569508873E+01  0.31432041741E+01  0.56517253863E+01  0.17770000000E+01 0.  1.
         15    1    1    2    0    0  0.37286573439E+01  0.93956335962E+01  0.10104112445E+02  0.14402487062E+02  0.17770000000E+01 0. -1.
</event>
<event>
 6    1  0.1907411E-004  0.5000811E+03  0.7546771E-02  0.9399628E-01
        -11   -1    0    0    0    0  0.00000000000E+00  0.00000000000E+00  0.50000000000E+03  0.50000000000E+03  0.00000000000E+00 0. -1.
         11   -1    0    0    0    0 -0.00000000000E+00 -0.00000000000E+00 -0.50000000000E+03  0.50000000000E+03  0.00000000000E+00 0. -1.
        -11    1    1    2    0    0  0.39657604401E+01 -0.72717335811E+01  0.10042191533E+03  0.10076292197E+03  0.00000000000E+00 0. -1.
         11    1    1    2    0    0 -0.11089756975E+02  0.16225228392E+02 -0.49953248226E+03  0.49991893501E+03  0.00000000000E+00 0. -1.
        -15    1    1    2    0    0  0.27955923469E+01 -0.53789043143E+01  0.14239000659E+03  0.14253006579E+03  0.17770000000E+01 0. -1.
         15    1    1    2    0    0  0.43284041883E+01 -0.35745904963E+01  0.25672056034E+03  0.25678807724E+03  0.17770000000E+01 0. -1.
</event>
<event>
 6    1  0.1823098E-004  0.5012290E+03  0.7546771E-02  0.9397064E-01
        -11   -1    0    0    0    0  0.00000000000E+00  0.00000000000E+00  0.50000000000E+03  0.50000000000E+03  0.00000000000E+00 0. -1.
         11   -1    0    0    0    0 -0.00000000000E+00 -0.00000000000E+00 -0.50000000000E+03  0.50000000000E+03  0.00000000000E+00 0. -1.
        -11    1    1    2    0    0 -0.71350550739E+01 -0.97914986846E+00  0.25750653822E+03  0.25760723004E+03  0.00000000000E+00 0. -1.
         11    1    1    2    0    0  0.50711640580E+02 -0.10679618380E+02 -0.49607139876E+03  0.49877104708E+03  0.00000000000E+00 0. -1.
        -15    1    1    2    0    0 -0.12205308010E+01  0.45584584291E+01  0.48269714950E+02  0.48532384539E+02  0.17770000000E+01 0.  1.
         15    1    1    2    0    0 -0.42356054705E+02  0.71003098196E+01  0.19029514559E+03  0.19508933834E+03  0.17770000000E+01 0. -1.
</event>
<event>
 6    1  0.1823098E-004  0.4863840E+03  0.7546771E-02  0.9430803E-01
        -11   -1    0    0    0    0  0.00000000000E+00  0.00000000000E+00  0.50000000000E+03  0.50000000000E+03  0.00000000000E+00 0. -1.
         11   -1    0    0    0    0 -0.00000000000E+00 -0.00000000000E+00 -0.50000000000E+03  0.50000000000E+03  0.00000000000E+00 0.  1.
        -11    1    1    2    0    0 -0.91183862983E+01 -0.66071712767E+01  0.49166058600E+03  0.49178951952E+03  0.00000000000E+00 0. -1.
         11    1    1    2    0    0 -0.85647402969E+01 -0.46518155284E+01 -0.48116225242E+03  0.48126095553E+03  0.00000000000E+00 0.  1.
        -15    1    1    2    0    0  0.14173172356E+02  0.77851441987E+01 -0.12501234085E+01  0.16315876390E+02  0.17770000000E+01 0. -1.
         15    1    1    2    0    0  0.35099542389E+01  0.34738426064E+01 -0.92482101796E+01  0.10633648562E+02  0.17770000000E+01 0.  1.
</event>
<event>
 6    1  0.1823098E-004  0.5018194E+03  0.7546771E-02  0.9395748E-01
        -11   -1    0    0    0    0  0.00000000000E+00  0.00000000000E+00  0.50000000000E+03  0.50000000000E+03  0.00000000000E+00 0. -1.
         11   -1    0    0    0    0 -0.00000000000E+00 -0.00000000000E+00 -0.50000000000E+03  0.50000000000E+03  0.00000000000E+00 0. -1.
        -11    1    1    2    0    0 -0.20107405869E+02  0.99877846346E+01  0.75336900385E+02  0.78611145344E+02  0.00000000000E+00 0. -1.
         11    1    1    2    0    0  0.46008541865E+01 -0.77350226596E+02 -0.49211755293E+03  0.49818060110E+03  0.00000000000E+00 0. -1.
        -15    1    1    2    0    0 -0.14490511953E+00  0.14733619061E+02  0.44833337558E+02  0.47225908289E+02  0.17770000000E+01 0.  1.
         15    1    1    2    0    0  0.15651456802E+02  0.52628822900E+02  0.37194731498E+03  0.37598234527E+03  0.17770000000E+01 0. -1.
</event>
<event>
 6    1  0.1823098E-004  0.4994296E+03  0.7546771E-02  0.9401087E-01
        -11   -1    0    0    0    0  0.00000000000E+00  0.00000000000E+00  0.50000000000E+03  0.50000000000E+03  0.00000000000E+00 0. -1.
         11   -1    0    0    0    0 -0.00000000000E+00 -0.00000000000E+00 -0.50000000000E+03  0.50000000000E+03  0.00000000000E+00 0. -1.
        -11    1    1    2    0    0 -0.65548155577E+01 -0.27764366064E+01  0.49913734252E+03  0.49918810172E+03  0.00000000000E+00 0. -1.
         11    1    1    2    0    0  0.14045655179E+01  0.58550344682E+00 -0.33283083576E+00  0.15576889759E+01  0.00000000000E+00 0. -1.
        -15    1    1    2    0    0  0.83943387611E+01 -0.64909969016E+01 -0.18898744999E+03  0.18929345458E+03  0.17770000000E+01 0.  1.
         15    1    1    2    0    0 -0.32440887213E+01  0.86819300612E+01 -0.30981706170E+03  0.30996075472E+03  0.17770000000E+01 0. -1.
</event>
<event>
 6    1  0.1823098E-004  0.5331769E+03  0.7546771E-02  0.9328488E-01
        -11   -1    0    0    0    0  0.00000000000E+00  0.00000000000E+00  0.50000000000E+03  0.50000000000E+03  0.00000000000E+00 0.  1.
         11   -1    0    0    0    0 -0.00000000000E+00 -0.00000000000E+00 -0.50000000000E+03  0.50000000000E+03  0.00000000000E+00 0. -1.
        -11    1    1    2    0    0 -0.30994955154E+02  0.34104325226E+02  0.35855599147E+03  0.36150545122E+03  0.00000000000E+00 0.  1.
         11    1    1    2    0    0 -0.56186353885E+02 -0.94342486605E+02 -0.45372503407E+03  0.46682311177E+03  0.00000000000E+00 0. -1.
        -15    1    1    2    0    0  0.36690946673E+02  0.45335606586E+02  0.10303863554E+03  0.11841309444E+03  0.17770000000E+01 0.  1.
         15    1    1    2    0    0  0.50490362366E+02  0.14902554794E+02 -0.78695929304E+01  0.53258342569E+02  0.17770000000E+01 0. -1.
</event>
<event>
 6    1  0.1823098E-004  0.5001722E+03  0.7546771E-02  0.9399425E-01
        -11   -1    0    0    0    0  0.00000000000E+00  0.00000000000E+00  0.50000000000E+03  0.50000000000E+03  0.00000000000E+00 0. -1.
         11   -1    0    0    0    0 -0.00000000000E+00 -0.00000000000E+00 -0.50000000000E+03  0.50000000000E+03  0.00000000000E+00 0. -1.
        -11    1    1    2    0    0  0.45249912885E+01  0.37937470760E+01  0.22387698089E+03  0.22395484061E+03  0.00000000000E+00 0. -1.
         11    1    1    2    0    0 -0.57913756187E+01  0.52706827730E+01 -0.49976649986E+03  0.49982784488E+03  0.00000000000E+00 0. -1.
        -15    1    1    2    0    0 -0.17663170042E+01 -0.83700153335E+01  0.13510255360E+03  0.13538476558E+03  0.17770000000E+01 0. -1.
         15    1    1    2    0    0  0.30327013344E+01 -0.69441451553E+00  0.14078696538E+03  0.14083254893E+03  0.17770000000E+01 0.  1.
</event>
<event>
 6    1  0.1823098E-004  0.5004383E+03  0.7546771E-02  0.9398829E-01
        -11   -1    0    0    0    0  0.00000000000E+00  0.00000000000E+00  0.50000000000E+03  0.50000000000E+03  0.00000000000E+00 0.  1.
         11   -1    0    0    0    0 -0.00000000000E+00 -0.00000000000E+00 -0.50000000000E+03  0.50000000000E+03  0.00000000000E+00 0.  1.
        -11    1    1    2    0    0  0.15585335623E+02  0.12858323171E+02  0.49915292059E+03  0.49956168518E+03  0.00000000000E+00 0.  1.
         11    1    1    2    0    0 -0.15172433561E+02 -0.19185951643E+02 -0.28422259342E+03  0.28527317801E+03  0.00000000000E+00 0.  1.
        -15    1    1    2    0    0 -0.33099041848E+01  0.30346744341E+01 -0.14156454071E+03  0.14164689065E+03  0.17770000000E+01 0. -1.
         15    1    1    2    0    0  0.28970021220E+01  0.32929540377E+01 -0.73365786464E+02  0.73518246171E+02  0.17770000000E+01 0.  1.
</event>
<event>
 6    1  0.1823098E-004  0.5005581E+03  0.7546771E-02  0.9398562E-01
        -11   -1    0    0    0    0  0.00000000000E+00  0.00000000000E+00  0.50000000000E+03  0.50000000000E+03  0.00000000000E+00 0.  1.
         11   -1    0    0    0    0 -0.00000000000E+00 -0.00000000000E+00 -0.50000000000E+03  0.50000000000E+03  0.00000000000E+00 0.  1.
        -11    1    1    2    0    0  0.49776934735E+01 -0.80925707724E+01  0.49935150581E+03  0.49944188199E+03  0.00000000000E+00 0.  1.
         11    1    1    2    0    0  0.34112069354E+01  0.10971433067E+02 -0.37209531622E+03  0.37227265952E+03  0.00000000000E+00 0.  1.
        -15    1    1    2    0    0 -0.24516783169E+01 -0.48059243513E+00 -0.51136851048E+01  0.59623149874E+01  0.17770000000E+01 0.  1.
         15    1    1    2    0    0 -0.59372220920E+01 -0.23982698591E+01 -0.12214250449E+03  0.12232314350E+03  0.17770000000E+01 0.  1.
</event>
<event>
 6    1  0.1823098E-004  0.5173903E+03  0.7546771E-02  0.9361717E-01
        -11   -1    0    0    0    0  0.00000000000E+00  0.00000000000E+00  0.50000000000E+03  0.50000000000E+03  0.00000000000E+00 0. -1.
         11   -1    0    0    0    0 -0.00000000000E+00 -0.00000000000E+00 -0.50000000000E+03  0.50000000000E+03  0.00000000000E+00 0. -1.
        -11    1    1    2    0    0  0.65711258800E+01  0.37570863205E+01  0.43207549725E+03  0.43214179469E+03  0.00000000000E+00 0. -1.
         11    1    1    2    0    0  0.48000753111E+01 -0.47976421223E+02 -0.48019509535E+03  0.48260968423E+03  0.00000000000E+00 0. -1.
        -15    1    1    2    0    0  0.11666149222E+02 -0.70917724573E+01  0.63188637672E+01  0.15148532687E+02  0.17770000000E+01 0.  1.
         15    1    1    2    0    0 -0.23037350413E+02  0.51311107360E+02  0.41800734337E+02  0.70099988393E+02  0.17770000000E+01 0. -1.
</event>
<event>
 6    1  0.1823098E-004  0.5034137E+03  0.7546771E-02  0.9392204E-01
        -11   -1    0    0    0    0  0.00000000000E+00  0.00000000000E+00  0.50000000000E+03  0.50000000000E+03  0.00000000000E+00 0. -1.
         11   -1    0    0    0    0 -0.00000000000E+00 -0.00000000000E+00 -0.50000000000E+03  0.50000000000E+03  0.00000000000E+00 0. -1.
        -11    1    1    2    0    0 -0.86658431925E+02  0.46854060659E+02  0.48671654839E+03  0.49658633217E+03  0.00000000000E+00 0. -1.
         11    1    1    2    0    0  0.96949340858E+02 -0.45963532700E+02 -0.34720399239E+03  0.36340395342E+03  0.00000000000E+00 0. -1.
        -15    1    1    2    0    0 -0.14232262065E+01 -0.11285739808E+01 -0.42626084129E+02  0.42701756746E+02  0.17770000000E+01 0. -1.
         15    1    1    2    0    0 -0.88676827261E+01  0.23804602139E+00 -0.96886471873E+02  0.97307957659E+02  0.17770000000E+01 0. -1.
</event>
<event>
 6    1  0.1823098E-004  0.5011560E+03  0.7546771E-02  0.9397227E-01
        -11   -1    0    0    0    0  0.00000000000E+00  0.00000000000E+00  0.50000000000E+03  0.50000000000E+03  0.00000000000E+00 0.  1.
         11   -1    0    0    0    0 -0.00000000000E+00 -0.00000000000E+00 -0.50000000000E+03  0.50000000000E+03  0.00000000000E+00 0. -1.
        -11    1    1    2    0    0  0.92588217007E+00  0.54558964369E+01  0.35153343122E+03  0.35157698635E+03  0.00000000000E+00 0.  1.
         11    1    1    2    0    0 -0.98189768936E+01 -0.23143888341E+02 -0.49821010163E+03  0.49884402095E+03  0.00000000000E+00 0. -1.
        -15    1    1    2    0    0  0.80312249404E+01  0.20167943717E+02  0.82584228643E+02  0.85408190926E+02  0.17770000000E+01 0.  1.
         15    1    1    2    0    0  0.86186978310E+00 -0.24799518125E+01  0.64092441763E+02  0.64170801777E+02  0.17770000000E+01 0. -1.
</event>
<event>
 6    1  0.1823098E-004  0.5004912E+03  0.7546771E-02  0.9398711E-01
        -11   -1    0    0    0    0  0.00000000000E+00  0.00000000000E+00  0.50000000000E+03  0.50000000000E+03  0.00000000000E+00 0.  1.
         11   -1    0    0    0    0 -0.00000000000E+00 -0.00000000000E+00 -0.50000000000E+03  0.50000000000E+03  0.00000000000E+00 0.  1.
        -11    1    1    2    0    0  0.67514927801E+01 -0.35548561070E+01  0.49945054796E+03  0.49950882827E+03  0.00000000000E+00 0.  1.
         11    1    1    2    0    0 -0.83162712237E+01  0.61518335600E+01 -0.53074623419E+02  0.54073293540E+02  0.00000000000E+00 0.  1.
        -15    1    1    2    0    0  0.19207037788E+01  0.37034639875E+00 -0.19535319482E+03  0.19537106929E+03  0.17770000000E+01 0. -1.
         15    1    1    2    0    0 -0.35592533524E+00 -0.29673238517E+01 -0.25102272972E+03  0.25104680890E+03  0.17770000000E+01 0.  1.
</event>
<event>
 6    1  0.1823098E-004  0.5010650E+03  0.7546771E-02  0.9397430E-01
        -11   -1    0    0    0    0  0.00000000000E+00  0.00000000000E+00  0.50000000000E+03  0.50000000000E+03  0.00000000000E+00 0.  1.
         11   -1    0    0    0    0 -0.00000000000E+00 -0.00000000000E+00 -0.50000000000E+03  0.50000000000E+03  0.00000000000E+00 0.  1.
        -11    1    1    2    0    0 -0.78883986771E+01 -0.85140853052E-01  0.49887261257E+03  0.49893498339E+03  0.00000000000E+00 0.  1.
         11    1    1    2    0    0 -0.37034661852E+01 -0.72226260124E+01 -0.43830192262E+03  0.43837707212E+03  0.00000000000E+00 0.  1.
        -15    1    1    2    0    0  0.74843010601E+01  0.57870818541E+00 -0.36181386612E+02  0.36994595979E+02  0.17770000000E+01 0. -1.
         15    1    1    2    0    0  0.41075638021E+01  0.67290586800E+01 -0.24389303337E+02  0.25693348505E+02  0.17770000000E+01 0.  1.
</event>
<event>
 6    1  0.1823098E-004  0.5015885E+03  0.7546771E-02  0.9396262E-01
        -11   -1    0    0    0    0  0.00000000000E+00  0.00000000000E+00  0.50000000000E+03  0.50000000000E+03  0.00000000000E+00 0.  1.
         11   -1    0    0    0    0 -0.00000000000E+00 -0.00000000000E+00 -0.50000000000E+03  0.50000000000E+03  0.00000000000E+00 0. -1.
        -11    1    1    2    0    0  0.47943579041E+01  0.57928523198E+01  0.43164343349E+03  0.43170892587E+03  0.00000000000E+00 0.  1.
         11    1    1    2    0    0  0.10544253841E+02 -0.15162054804E+00 -0.49829991612E+03  0.49841148731E+03  0.00000000000E+00 0. -1.
        -15    1    1    2    0    0  0.12279267824E+01  0.41601251180E+00  0.17229569896E+02  0.17369417906E+02  0.17770000000E+01 0. -1.
         15    1    1    2    0    0 -0.16566538527E+02 -0.60572442836E+01  0.49426912737E+02  0.52510168908E+02  0.17770000000E+01 0. -1.
</event>
<event>
 6    1  0.1823098E-004  0.5009512E+03  0.7546771E-02  0.9397684E-01
        -11   -1    0    0    0    0  0.00000000000E+00  0.00000000000E+00  0.50000000000E+03  0.50000000000E+03  0.00000000000E+00 0. -1.
         11   -1    0    0    0    0 -0.00000000000E+00 -0.00000000000E+00 -0.50000000000E+03  0.50000000000E+03  0.00000000000E+00 0. -1.
        -11    1    1    2    0    0 -0.11200238886E+02  0.21889314868E+01  0.49891827148E+03  0.49904877356E+03  0.00000000000E+00 0. -1.
         11    1    1    2    0    0  0.77112880283E+01 -0.12433686056E+02 -0.30917831752E+03  0.30952430040E+03  0.00000000000E+00 0. -1.
        -15    1    1    2    0    0  0.11001613016E+02  0.14208696200E+01 -0.52580134585E+02  0.53766928882E+02  0.17770000000E+01 0. -1.
         15    1    1    2    0    0 -0.75126621586E+01  0.88238849487E+01 -0.13715981937E+03  0.13765999716E+03  0.17770000000E+01 0.  1.
</event>
<event>
 6    1  0.1823098E-004  0.5001762E+03  0.7546771E-02  0.9399415E-01
        -11   -1    0    0    0    0  0.00000000000E+00  0.00000000000E+00  0.50000000000E+03  0.50000000000E+03  0.00000000000E+00 0.  1.
         11   -1    0    0    0    0 -0.00000000000E+00 -0.00000000000E+00 -0.50000000000E+03  0.50000000000E+03  0.00000000000E+00 0. -1.
        -11    1    1    2    0    0 -0.40792405945E+02 -0.26021695525E+01  0.49814958544E+03  0.49982377008E+03  0.00000000000E+00 0.  1.
         11    1    1    2    0    0  0.63417053364E+01 -0.28144059199E+01 -0.40690658768E+02  0.41277933794E+02  0.00000000000E+00 0. -1.
        -15    1    1    2    0    0  0.77027936406E+01  0.44193524439E+01 -0.14906901009E+03  0.14934386899E+03  0.17770000000E+01 0.  1.
         15    1    1    2    0    0  0.26747906968E+02  0.99722302840E+00 -0.30838991658E+03  0.30955442713E+03  0.17770000000E+01 0. -1.
</event>
<event>
 6    1  0.1823098E-004  0.5019823E+03  0.7546771E-02  0.9395385E-01
        -11   -1    0    0    0    0  0.00000000000E+00  0.00000000000E+00  0.50000000000E+03  0.50000000000E+03  0.00000000000E+00 0.  1.
         11   -1    0    0    0    0 -0.00000000000E+00 -0.00000000000E+00 -0.50000000000E+03  0.50000000000E+03  0.00000000000E+00 0.  1.
        -11    1    1    2    0    0  0.62297791233E+00  0.10319360406E+02  0.49791033696E+03  0.49801765125E+03  0.00000000000E+00 0.  1.
         11    1    1    2    0    0 -0.69925906174E+01  0.13098342339E+02 -0.37803939540E+03  0.37833087023E+03  0.00000000000E+00 0.  1.
        -15    1    1    2    0    0  0.92032438113E+01 -0.74508717833E+01 -0.74079452471E+02  0.75040910138E+02  0.17770000000E+01 0.  1.
         15    1    1    2    0    0 -0.28336311063E+01 -0.15966830962E+02 -0.45791489091E+02  0.48610568382E+02  0.17770000000E+01 0.  1.
</event>
<event>
 6    1  0.1823098E-004  0.4835003E+03  0.7546771E-02  0.9437505E-01
        -11   -1    0    0    0    0  0.00000000000E+00  0.00000000000E+00  0.50000000000E+03  0.50000000000E+03  0.00000000000E+00 0. -1.
         11   -1    0    0    0    0 -0.00000000000E+00 -0.00000000000E+00 -0.50000000000E+03  0.50000000000E+03  0.00000000000E+00 0.  1.
        -11    1    1    2    0    0  0.57126934296E+01 -0.52704829326E+01  0.49118682652E+03  0.49124831949E+03  0.00000000000E+00 0. -1.
         11    1    1    2    0    0  0.18974800430E+02 -0.19728724767E+01 -0.47583411027E+03  0.47621637496E+03  0.00000000000E+00 0.  1.
        -15    1    1    2    0    0 -0.15386123002E+02  0.54046255447E+01 -0.15937054699E+02  0.22871165248E+02  0.17770000000E+01 0.  1.
         15    1    1    2    0    0 -0.93013708581E+01  0.18387298646E+01  0.58433845271E+00  0.96641403022E+01  0.17770000000E+01 0. -1.
</event>
<event>
 6    1  0.1823098E-004  0.5001296E+03  0.7546771E-02  0.9399520E-01
        -11   -1    0    0    0    0  0.00000000000E+00  0.00000000000E+00  0.50000000000E+03  0.50000000000E+03  0.00000000000E+00 0. -1.
         11   -1    0    0    0    0 -0.00000000000E+00 -0.00000000000E+00 -0.50000000000E+03  0.50000000000E+03  0.00000000000E+00 0. -1.
        -11    1    1    2    0    0  0.26804464366E-01  0.14546664902E+01  0.45940951261E+02  0.45963983464E+02  0.00000000000E+00 0. -1.
         11    1    1    2    0    0  0.12623593331E+02  0.74505023811E+01 -0.49965546496E+03  0.49987043197E+03  0.00000000000E+00 0. -1.
        -15    1    1    2    0    0 -0.14222332724E+02 -0.67870516486E+01  0.42055459822E+03  0.42085349782E+03  0.17770000000E+01 0. -1.
         15    1    1    2    0    0  0.15719349284E+01 -0.21181172226E+01  0.33159915477E+02  0.33312086747E+02  0.17770000000E+01 0.  1.
</event>
<event>
 6    1  0.1823098E-004  0.5000648E+03  0.7546771E-02  0.9399665E-01
        -11   -1    0    0    0    0  0.00000000000E+00  0.00000000000E+00  0.50000000000E+03  0.50000000000E+03  0.00000000000E+00 0. -1.
         11   -1    0    0    0    0 -0.00000000000E+00 -0.00000000000E+00 -0.50000000000E+03  0.50000000000E+03  0.00000000000E+00 0.  1.
        -11    1    1    2    0    0 -0.11135540960E+02  0.35664936942E+00  0.49981106943E+03  0.49993522840E+03  0.00000000000E+00 0. -1.
         11    1    1    2    0    0  0.10430738921E+02 -0.16139263417E+01 -0.37418875928E+03  0.37433759181E+03  0.00000000000E+00 0.  1.
        -15    1    1    2    0    0  0.79515254551E+00  0.20989439965E+01 -0.94058867486E+02  0.94102423536E+02  0.17770000000E+01 0.  1.
         15    1    1    2    0    0 -0.90350506471E-01 -0.84166702420E+00 -0.31563442658E+02  0.31624756253E+02  0.17770000000E+01 0.  1.
</event>
<event>
 6    1  0.1823098E-004  0.5000971E+03  0.7546771E-02  0.9399592E-01
        -11   -1    0    0    0    0  0.00000000000E+00  0.00000000000E+00  0.50000000000E+03  0.50000000000E+03  0.00000000000E+00 0.  1.
         11   -1    0    0    0    0 -0.00000000000E+00 -0.00000000000E+00 -0.50000000000E+03  0.50000000000E+03  0.00000000000E+00 0. -1.
        -11    1    1    2    0    0  0.65861854663E+01 -0.31966867433E+01  0.49984925232E+03  0.49990286226E+03  0.00000000000E+00 0.  1.
         11    1    1    2    0    0 -0.27934899448E+01  0.38503157487E+01 -0.17253047786E+03  0.17259604372E+03  0.00000000000E+00 0. -1.
        -15    1    1    2    0    0 -0.28824681021E+00  0.42393595053E+01 -0.15347400689E+03  0.15354310071E+03  0.17770000000E+01 0. -1.
         15    1    1    2    0    0 -0.35044487114E+01 -0.48929885107E+01 -0.17384476757E+03  0.17395799331E+03  0.17770000000E+01 0.  1.
</event>
<event>
 6    1  0.1823098E-004  0.5056079E+03  0.7546771E-02  0.9387348E-01
        -11   -1    0    0    0    0  0.00000000000E+00  0.00000000000E+00  0.50000000000E+03  0.50000000000E+03  0.00000000000E+00 0. -1.
         11   -1    0    0    0    0 -0.00000000000E+00 -0.00000000000E+00 -0.50000000000E+03  0.50000000000E+03  0.00000000000E+00 0.  1.
        -11    1    1    2    0    0 -0.17038719445E+01  0.49826745616E+01  0.38531961169E+03  0.38535559342E+03  0.00000000000E+00 0. -1.
         11    1    1    2    0    0  0.14095721642E+02 -0.40606960206E+02 -0.49252002644E+03  0.49439214297E+03  0.00000000000E+00 0.  1.
        -15    1    1    2    0    0 -0.36847445459E+01 -0.48487688476E+01  0.45429077719E+02  0.45869889177E+02  0.17770000000E+01 0.  1.
         15    1    1    2    0    0 -0.87071051519E+01  0.40473054492E+02  0.61771337026E+02  0.74382374438E+02  0.17770000000E+01 0. -1.
</event>
<event>
 6    1  0.1823098E-004  0.5024000E+03  0.7546771E-02  0.9394455E-01
        -11   -1    0    0    0    0  0.00000000000E+00  0.00000000000E+00  0.50000000000E+03  0.50000000000E+03  0.00000000000E+00 0. -1.
         11   -1    0    0    0    0 -0.00000000000E+00 -0.00000000000E+00 -0.50000000000E+03  0.50000000000E+03  0.00000000000E+00 0.  1.
        -11    1    1    2    0    0  0.79432443701E+01 -0.53986286435E+00  0.49753628059E+03  0.49759997698E+03  0.00000000000E+00 0. -1.
         11    1    1    2    0    0  0.19660095594E+01  0.89754726170E+01 -0.47604563894E+03  0.47613430317E+03  0.00000000000E+00 0.  1.
        -15    1    1    2    0    0 -0.90562446151E+01 -0.90580975836E+01 -0.19484338527E+02  0.23385078046E+02  0.17770000000E+01 0. -1.
         15    1    1    2    0    0 -0.85300931440E+00  0.62248783086E+00 -0.20063031227E+01  0.28806418053E+01  0.17770000000E+01 0. -1.
</event>
<event>
 6    1  0.1823098E-004  0.5005450E+03  0.7546771E-02  0.9398591E-01
        -11   -1    0    0    0    0  0.00000000000E+00  0.00000000000E+00  0.50000000000E+03  0.50000000000E+03  0.00000000000E+00 0. -1.
         11   -1    0    0    0    0 -0.00000000000E+00 -0.00000000000E+00 -0.50000000000E+03  0.50000000000E+03  0.00000000000E+00 0. -1.
        -11    1    1    2    0    0  0.90704854808E+01  0.70660586106E+01  0.27315531207E+03  0.27339719714E+03  0.00000000000E+00 0. -1.
         11    1    1    2    0    0 -0.46194684123E+01  0.13301643415E+02 -0.49925642913E+03  0.49945495816E+03  0.00000000000E+00 0. -1.
        -15    1    1    2    0    0 -0.36902839395E+01 -0.96618039409E+01  0.89207349761E+02  0.89822478430E+02  0.17770000000E+01 0. -1.
         15    1    1    2    0    0 -0.76073312898E+00 -0.10705898085E+02  0.13689376730E+03  0.13732536627E+03  0.17770000000E+01 0. -1.
</event>
<event>
 6    1  0.1823098E-004  0.5007480E+03  0.7546771E-02  0.9398138E-01
        -11   -1    0    0    0    0  0.00000000000E+00  0.00000000000E+00  0.50000000000E+03  0.50000000000E+03  0.00000000000E+00 0. -1.
         11   -1    0    0    0    0 -0.00000000000E+00 -0.00000000000E+00 -0.50000000000E+03  0.50000000000E+03  0.00000000000E+00 0. -1.
        -11    1    1    2    0    0  0.23110389609E+01  0.76728262395E+01  0.30681555406E+03  0.30692018080E+03  0.00000000000E+00 0. -1.
         11    1    1    2    0    0  0.23410626133E+02 -0.52206149200E+01 -0.49867551697E+03  0.49925202399E+03  0.00000000000E+00 0. -1.
        -15    1    1    2    0    0 -0.75007548717E+01  0.24556463427E+01  0.75778405619E+02  0.76209028400E+02  0.17770000000E+01 0.  1.
         15    1    1    2    0    0 -0.18220910222E+02 -0.49078576622E+01  0.11608155728E+03  0.11761876681E+03  0.17770000000E+01 0. -1.
</event>
<event>
 6    1  0.1823098E-004  0.5080498E+03  0.7546771E-02  0.9381976E-01
        -11   -1    0    0    0    0  0.00000000000E+00  0.00000000000E+00  0.50000000000E+03  0.50000000000E+03  0.00000000000E+00 0.  1.
         11   -1    0    0    0    0 -0.00000000000E+00 -0.00000000000E+00 -0.50000000000E+03  0.50000000000E+03  0.00000000000E+00 0. -1.
        -11    1    1    2    0    0  0.43989452864E+01 -0.66826196825E+01  0.49188514652E+03  0.49195020631E+03  0.00000000000E+00 0.  1.
         11    1    1    2    0    0 -0.37145767149E+02 -0.21288200975E+02 -0.42203899378E+03  0.42420503037E+03  0.00000000000E+00 0. -1.
        -15    1    1    2    0    0  0.21696366022E+02  0.20525998378E+02 -0.32608705392E+02  0.44255330801E+02  0.17770000000E+01 0. -1.
         15    1    1    2    0    0  0.11050455840E+02  0.74448222799E+01 -0.37237447347E+02  0.39589432516E+02  0.17770000000E+01 0.  1.
</event>
<event>
 6    1  0.1823098E-004  0.4862089E+03  0.7546771E-02  0.9431208E-01
        -11   -1    0    0    0    0  0.00000000000E+00  0.00000000000E+00  0.50000000000E+03  0.50000000000E+03  0.00000000000E+00 0. -1.
         11   -1    0    0    0    0 -0.00000000000E+00 -0.00000000000E+00 -0.50000000000E+03  0.50000000000E+03  0.00000000000E+00 0.  1.
        -11    1    1    2    0    0  0.70583489947E+01  0.73564746306E+00  0.48124162274E+03  0.48129394441E+03  0.00000000000E+00 0. -1.
         11    1    1    2    0    0  0.15084407818E+02  0.27245344494E+01 -0.49119396274E+03  0.49143307935E+03  0.00000000000E+00 0.  1.
        -15    1    1    2    0    0 -0.18466731976E+02  0.32361783910E+00  0.37337646779E+01  0.18926797037E+02  0.17770000000E+01 0. -1.
         15    1    1    2    0    0 -0.36760248361E+01 -0.37837997515E+01  0.62185753282E+01  0.83461792017E+01  0.17770000000E+01 0.  1.
</event>
<event>
 6    1  0.1823098E-004  0.5034188E+03  0.7546771E-02  0.9392192E-01
        -11   -1    0    0    0    0  0.00000000000E+00  0.00000000000E+00  0.50000000000E+03  0.50000000000E+03  0.00000000000E+00 0. -1.
         11   -1    0    0    0    0 -0.00000000000E+00 -0.00000000000E+00 -0.50000000000E+03  0.50000000000E+03  0.00000000000E+00 0. -1.
        -11    1    1    2    0    0  0.45765257314E+01 -0.24101686242E+01  0.30939179793E+03  0.30943503054E+03  0.00000000000E+00 0. -1.
         11    1    1    2    0    0 -0.62882936187E+02 -0.71032288105E+01 -0.49253238416E+03  0.49658118064E+03  0.00000000000E+00 0. -1.
        -15    1    1    2    0    0  0.68804325059E+01  0.71463171669E+00  0.57320666768E+02  0.57763895451E+02  0.17770000000E+01 0.  1.
         15    1    1    2    0    0  0.51425977950E+02  0.87987657181E+01  0.12581991946E+03  0.13621989337E+03  0.17770000000E+01 0. -1.
</event>
<event>
 6    1  0.1823098E-004  0.5038908E+03  0.7546771E-02  0.9391146E-01
        -11   -1    0    0    0    0  0.00000000000E+00  0.00000000000E+00  0.50000000000E+03  0.50000000000E+03  0.00000000000E+00 0. -1.
         11   -1    0    0    0    0 -0.00000000000E+00 -0.00000000000E+00 -0.50000000000E+03  0.50000000000E+03  0.00000000000E+00 0.  1.
        -11    1    1    2    0    0 -0.77133406874E+01  0.35467454540E+01  0.49603657374E+03  0.49610921934E+03  0.00000000000E+00 0. -1.
         11    1    1    2    0    0  0.10885739865E+02  0.99668946790E+01 -0.48179745272E+03  0.48202346807E+03  0.00000000000E+00 0.  1.
        -15    1    1    2    0    0 -0.51421021121E+01 -0.12429493609E+02 -0.12831202908E+02  0.18674341289E+02  0.17770000000E+01 0. -1.
         15    1    1    2    0    0  0.19697029345E+01 -0.10841465243E+01 -0.14079181128E+01  0.31929713041E+01  0.17770000000E+01 0.  1.
</event>
<event>
 6    1  0.1823098E-004  0.4891353E+03  0.7546771E-02  0.9424454E-01
        -11   -1    0    0    0    0  0.00000000000E+00  0.00000000000E+00  0.50000000000E+03  0.50000000000E+03  0.00000000000E+00 0. -1.
         11   -1    0    0    0    0 -0.00000000000E+00 -0.00000000000E+00 -0.50000000000E+03  0.50000000000E+03  0.00000000000E+00 0.  1.
        -11    1    1    2    0    0 -0.10780628601E+01  0.10351834889E+02  0.48604469288E+03  0.48615611297E+03  0.00000000000E+00 0. -1.
         11    1    1    2    0    0 -0.27905787098E+01  0.80291812872E+01 -0.49224112969E+03  0.49231451821E+03  0.00000000000E+00 0.  1.
        -15    1    1    2    0    0  0.60038383177E+01 -0.10094903774E+02  0.35573052875E+01  0.12400213977E+02  0.17770000000E+01 0.  1.
         15    1    1    2    0    0 -0.21351967478E+01 -0.82861124017E+01  0.26391315230E+01  0.91291548394E+01  0.17770000000E+01 0. -1.
</event>
<event>
 6    1  0.1823098E-004  0.5003835E+03  0.7546771E-02  0.9398952E-01
        -11   -1    0    0    0    0  0.00000000000E+00  0.00000000000E+00  0.50000000000E+03  0.50000000000E+03  0.00000000000E+00 0. -1.
         11   -1    0    0    0    0 -0.00000000000E+00 -0.00000000000E+00 -0.50000000000E+03  0.50000000000E+03  0.00000000000E+00 0. -1.
        -11    1    1    2    0    0 -0.72099400690E+00 -0.10506565300E+02  0.49950547377E+03  0.49961647899E+03  0.00000000000E+00 0. -1.
         11    1    1    2    0    0 -0.72953890373E+01  0.59282224186E+01 -0.16248407251E+03  0.16275576900E+03  0.00000000000E+00 0. -1.
        -15    1    1    2    0    0  0.18036318531E+01  0.51901329394E+01 -0.30748293491E+02  0.31285873000E+02  0.17770000000E+01 0.  1.
         15    1    1    2    0    0  0.62127511911E+01 -0.61179005818E+00 -0.30627310777E+03  0.30634187901E+03  0.17770000000E+01 0. -1.
</event>
<event>
 6    1  0.1823098E-004  0.5059902E+03  0.7546771E-02  0.9386505E-01
        -11   -1    0    0    0    0  0.00000000000E+00  0.00000000000E+00  0.50000000000E+03  0.50000000000E+03  0.00000000000E+00 0.  1.
         11   -1    0    0    0    0 -0.00000000000E+00 -0.00000000000E+00 -0.50000000000E+03  0.50000000000E+03  0.00000000000E+00 0. -1.
        -11    1    1    2    0    0 -0.64368499692E+01  0.37297928489E+01  0.49395380993E+03  0.49400982858E+03  0.00000000000E+00 0.  1.
         11    1    1    2    0    0  0.24476299714E+02 -0.33841668496E+02 -0.24425693091E+03  0.24780192912E+03  0.00000000000E+00 0. -1.
        -15    1    1    2    0    0  0.92493670099E+01  0.48265372163E+01 -0.70888648153E+01  0.12737974131E+02  0.17770000000E+01 0.  1.
         15    1    1    2    0    0 -0.27288816755E+02  0.25285338431E+02 -0.24260801420E+03  0.24545026817E+03  0.17770000000E+01 0. -1.
</event>
<event>
 6    1  0.1823098E-004  0.5146860E+03  0.7546771E-02  0.9367535E-01
        -11   -1    0    0    0    0  0.00000000000E+00  0.00000000000E+00  0.50000000000E+03  0.50000000000E+03  0.00000000000E+00 0.  1.
         11   -1    0    0    0    0 -0.00000000000E+00 -0.00000000000E+00 -0.50000000000E+03  0.50000000000E+03  0.00000000000E+00 0.  1.
        -11    1    1    2    0    0  0.61156001363E+01  0.26228605853E+01  0.48526835568E+03  0.48531397774E+03  0.00000000000E+00 0.  1.
         11    1    1    2    0    0  0.45490678148E+02 -0.35858130185E+02 -0.58834278764E+02  0.82563185842E+02  0.00000000000E+00 0.  1.
        -15    1    1    2    0    0 -0.27625429722E+02  0.21728615421E+02 -0.13641530036E+03  0.14088147144E+03  0.17770000000E+01 0. -1.
         15    1    1    2    0    0 -0.23980848562E+02  0.11506654178E+02 -0.29001877656E+03  0.29124136498E+03  0.17770000000E+01 0.  1.
</event>
<event>
 6    1  0.1823098E-004  0.5000920E+03  0.7546771E-02  0.9399604E-01
        -11   -1    0    0    0    0  0.00000000000E+00  0.00000000000E+00  0.50000000000E+03  0.50000000000E+03  0.00000000000E+00 0.  1.
         11   -1    0    0    0    0 -0.00000000000E+00 -0.00000000000E+00 -0.50000000000E+03  0.50000000000E+03  0.00000000000E+00 0. -1.
        -11    1    1    2    0    0  0.56926123010E+01 -0.62619933179E+01  0.49983635881E+03  0.49990799552E+03  0.00000000000E+00 0.  1.
         11    1    1    2    0    0 -0.83319731817E+01  0.34689934540E+01 -0.21543182586E+03  0.21562079511E+03  0.00000000000E+00 0. -1.
        -15    1    1    2    0    0  0.12539038886E+01  0.26987244311E+01 -0.21979859321E+03  0.21982591907E+03  0.17770000000E+01 0. -1.
         15    1    1    2    0    0  0.13854569921E+01  0.94275432808E-01 -0.64605939747E+02  0.64645290304E+02  0.17770000000E+01 0.  1.
</event>
<event>
 6    1  0.1823098E-004  0.5001691E+03  0.7546771E-02  0.9399431E-01
        -11   -1    0    0    0    0  0.00000000000E+00  0.00000000000E+00  0.50000000000E+03  0.50000000000E+03  0.00000000000E+00 0.  1.
         11   -1    0    0    0    0 -0.00000000000E+00 -0.00000000000E+00 -0.50000000000E+03  0.50000000000E+03  0.00000000000E+00 0.  1.
        -11    1    1    2    0    0 -0.50528548932E+01  0.70392673668E+01  0.49975576003E+03  0.49983087371E+03  0.00000000000E+00 0.  1.
         11    1    1    2    0    0  0.54501148659E+01  0.19412131746E+01 -0.13751620994E+03  0.13763785838E+03  0.00000000000E+00 0.  1.
        -15    1    1    2    0    0  0.21096866039E+01 -0.86239658748E+01 -0.33401483209E+03  0.33413753059E+03  0.17770000000E+01 0.  1.
         15    1    1    2    0    0 -0.25069465765E+01 -0.35651466663E+00 -0.28224718005E+02  0.28393737326E+02  0.17770000000E+01 0.  1.
</event>
<event>
 6    1  0.1823098E-004  0.5021519E+03  0.7546771E-02  0.9395007E-01
        -11   -1    0    0    0    0  0.00000000000E+00  0.00000000000E+00  0.50000000000E+03  0.50000000000E+03  0.00000000000E+00 0.  1.
         11   -1    0    0    0    0 -0.00000000000E+00 -0.00000000000E+00 -0.50000000000E+03  0.50000000000E+03  0.00000000000E+00 0.  1.
        -11    1    1    2    0    0  0.96110989270E+01 -0.38511638319E+01  0.43237584383E+03  0.43249979770E+03  0.00000000000E+00 0.  1.
         11    1    1    2    0    0 -0.15318929700E+02 -0.17739955741E+02 -0.49729600669E+03  0.49784806307E+03  0.00000000000E+00 0.  1.
        -15    1    1    2    0    0 -0.20726197585E+01  0.10616228390E+02  0.37319219933E+02  0.38895783362E+02  0.17770000000E+01 0. -1.
         15    1    1    2    0    0  0.77804505313E+01  0.10974891183E+02  0.27600942925E+02  0.30756355869E+02  0.17770000000E+01 0.  1.
</event>
<event>
 6    1  0.1823098E-004  0.5003664E+03  0.7546771E-02  0.9398990E-01
        -11   -1    0    0    0    0  0.00000000000E+00  0.00000000000E+00  0.50000000000E+03  0.50000000000E+03  0.00000000000E+00 0.  1.
         11   -1    0    0    0    0 -0.00000000000E+00 -0.00000000000E+00 -0.50000000000E+03  0.50000000000E+03  0.00000000000E+00 0. -1.
        -11    1    1    2    0    0  0.15091890763E+02 -0.12479499796E+01  0.49940401604E+03  0.49963355950E+03  0.00000000000E+00 0.  1.
         11    1    1    2    0    0 -0.15032834274E+02  0.28901917162E+01 -0.28299810420E+03  0.28341183161E+03  0.00000000000E+00 0. -1.
        -15    1    1    2    0    0 -0.24060824091E+01 -0.25204056154E+01 -0.14298456587E+02  0.14823807433E+02  0.17770000000E+01 0.  1.
         15    1    1    2    0    0  0.23470259205E+01  0.87816387878E+00 -0.20210745525E+03  0.20213080146E+03  0.17770000000E+01 0. -1.
</event>
<event>
 6    1  0.1823098E-004  0.5003978E+03  0.7546771E-02  0.9398920E-01
        -11   -1    0    0    0    0  0.00000000000E+00  0.00000000000E+00  0.50000000000E+03  0.50000000000E+03  0.00000000000E+00 0.  1.
         11   -1    0    0    0    0 -0.00000000000E+00 -0.00000000000E+00 -0.50000000000E+03  0.50000000000E+03  0.00000000000E+00 0.  1.
        -11    1    1    2    0    0 -0.65253997081E+01 -0.85280355917E+01  0.49948682151E+03  0.49960223488E+03  0.00000000000E+00 0.  1.
         11    1    1    2    0    0  0.13815805568E+02  0.12060007785E+02 -0.23204923858E+03  0.23277278491E+03  0.00000000000E+00 0.  1.
        -15    1    1    2    0    0 -0.73635008602E+01 -0.26546014385E+01 -0.21147407477E+03  0.21162634544E+03  0.17770000000E+01 0.  1.
         15    1    1    2    0    0  0.73095000016E-01 -0.87737075487E+00 -0.55963508161E+02  0.55998634778E+02  0.17770000000E+01 0.  1.
</event>
<event>
 6    1  0.1823098E-004  0.5000796E+03  0.7546771E-02  0.9399632E-01
        -11   -1    0    0    0    0  0.00000000000E+00  0.00000000000E+00  0.50000000000E+03  0.50000000000E+03  0.00000000000E+00 0.  1.
         11   -1    0    0    0    0 -0.00000000000E+00 -0.00000000000E+00 -0.50000000000E+03  0.50000000000E+03  0.00000000000E+00 0. -1.
        -11    1    1    2    0    0 -0.69790232769E+01  0.57218904968E+01  0.49983898030E+03  0.49992044670E+03  0.00000000000E+00 0.  1.
         11    1    1    2    0    0  0.69117832825E+00  0.16634949440E+01 -0.22520073940E+02  0.22592004629E+02  0.00000000000E+00 0. -1.
        -15    1    1    2    0    0  0.18251975785E+01  0.78674708767E+00 -0.57669748062E+02  0.57731342334E+02  0.17770000000E+01 0.  1.
         15    1    1    2    0    0  0.44626473701E+01 -0.81721325284E+01 -0.41964915830E+03  0.41975620634E+03  0.17770000000E+01 0. -1.
</event>
<event>
 6    1  0.1823098E-004  0.5223524E+03  0.7546771E-02  0.9351138E-01
        -11   -1    0    0    0    0  0.00000000000E+00  0.00000000000E+00  0.50000000000E+03  0.50000000000E+03  0.00000000000E+00 0.  1.
         11   -1    0    0    0    0 -0.00000000000E+00 -0.00000000000E+00 -0.50000000000E+03  0.50000000000E+03  0.00000000000E+00 0.  1.
        -11    1    1    2    0    0  0.84380386910E+01 -0.68291928851E+01  0.47752418445E+03  0.47764755323E+03  0.00000000000E+00 0.  1.
         11    1    1    2    0    0  0.87803900228E+01  0.73704697353E+02 -0.37348769339E+03  0.38079198360E+03  0.00000000000E+00 0.  1.
        -15    1    1    2    0    0 -0.78966712538E+01  0.37602544808E+01  0.57878618997E+01  0.10637387133E+02  0.17770000000E+01 0. -1.
         15    1    1    2    0    0 -0.93217574601E+01 -0.70635758949E+02 -0.10982435296E+03  0.13092307603E+03  0.17770000000E+01 0.  1.
</event>
<event>
 6    1  0.1823098E-004  0.5047336E+03  0.7546771E-02  0.9389280E-01
        -11   -1    0    0    0    0  0.00000000000E+00  0.00000000000E+00  0.50000000000E+03  0.50000000000E+03  0.00000000000E+00 0.  1.
         11   -1    0    0    0    0 -0.00000000000E+00 -0.00000000000E+00 -0.50000000000E+03  0.50000000000E+03  0.00000000000E+00 0.  1.
        -11    1    1    2    0    0  0.12730799288E+02 -0.70909392796E+01  0.49505196917E+03  0.49526639988E+03  0.00000000000E+00 0.  1.
         11    1    1    2    0    0 -0.17478814831E+01 -0.93147337408E+01 -0.46957546736E+03  0.46967109651E+03  0.00000000000E+00 0.  1.
        -15    1    1    2    0    0 -0.12592787779E+01  0.13656805761E+02 -0.14483514274E+02  0.20025584670E+02  0.17770000000E+01 0.  1.
         15    1    1    2    0    0 -0.97236390269E+01  0.27488672591E+01 -0.10992987540E+02  0.15036918939E+02  0.17770000000E+01 0. -1.
</event>
<event>
 6    1  0.1823098E-004  0.4692997E+03  0.7546771E-02  0.9471252E-01
        -11   -1    0    0    0    0  0.00000000000E+00  0.00000000000E+00  0.50000000000E+03  0.50000000000E+03  0.00000000000E+00 0.  1.
         11   -1    0    0    0    0 -0.00000000000E+00 -0.00000000000E+00 -0.50000000000E+03  0.50000000000E+03  0.00000000000E+00 0. -1.
        -11    1    1    2    0    0  0.13223175593E+02 -0.73001423796E+01  0.47020868926E+03  0.47045122585E+03  0.00000000000E+00 0.  1.
         11    1    1    2    0    0  0.27334829268E+02  0.46092573475E+02 -0.46676483795E+03  0.46983096127E+03  0.00000000000E+00 0. -1.
        -15    1    1    2    0    0 -0.72299043726E+01 -0.57215354622E+01  0.68444349692E+01  0.11619445096E+02  0.17770000000E+01 0.  1.
         15    1    1    2    0    0 -0.33328100488E+02 -0.33070895633E+02 -0.10288286272E+02  0.48098367784E+02  0.17770000000E+01 0. -1.
</event>
<event>
 6    1  0.1823098E-004  0.4931427E+03  0.7546771E-02  0.9415285E-01
        -11   -1    0    0    0    0  0.00000000000E+00  0.00000000000E+00  0.50000000000E+03  0.50000000000E+03  0.00000000000E+00 0.  1.
         11   -1    0    0    0    0 -0.00000000000E+00 -0.00000000000E+00 -0.50000000000E+03  0.50000000000E+03  0.00000000000E+00 0.  1.
        -11    1    1    2    0    0  0.20196394303E+02 -0.19044458238E+02  0.49235956378E+03  0.49314148657E+03  0.00000000000E+00 0.  1.
         11    1    1    2    0    0 -0.44269999827E+01  0.13035428028E+02  0.28901333039E+00  0.13769685596E+02  0.00000000000E+00 0.  1.
        -15    1    1    2    0    0 -0.64630227553E+01  0.39091813844E+00 -0.76380515263E+02  0.76675056707E+02  0.17770000000E+01 0. -1.
         15    1    1    2    0    0 -0.93063715650E+01  0.56181120712E+01 -0.41626806185E+03  0.41641377112E+03  0.17770000000E+01 0.  1.
</event>
<event>
 6    1  0.1823098E-004  0.5006144E+03  0.7546771E-02  0.9398436E-01
        -11   -1    0    0    0    0  0.00000000000E+00  0.00000000000E+00  0.50000000000E+03  0.50000000000E+03  0.00000000000E+00 0. -1.
         11   -1    0    0    0    0 -0.00000000000E+00 -0.00000000000E+00 -0.50000000000E+03  0.50000000000E+03  0.00000000000E+00 0.  1.
        -11    1    1    2    0    0 -0.98394508805E+01 -0.10402680520E+01  0.49928760214E+03  0.49938562915E+03  0.00000000000E+00 0. -1.
         11    1    1    2    0    0 -0.40886977179E+01 -0.12857499304E+02 -0.18998535038E+03  0.19046381834E+03  0.00000000000E+00 0.  1.
        -15    1    1    2    0    0  0.74728403650E+01  0.86963074801E+01 -0.99025159784E+02  0.99702603307E+02  0.17770000000E+01 0.  1.
         15    1    1    2    0    0  0.64553082334E+01  0.52014598760E+01 -0.21027709197E+03  0.21044794920E+03  0.17770000000E+01 0. -1.
</event>
<event>
 6    1  0.1823098E-004  0.5070123E+03  0.7546771E-02  0.9384254E-01
        -11   -1    0    0    0    0  0.00000000000E+00  0.00000000000E+00  0.50000000000E+03  0.50000000000E+03  0.00000000000E+00 0.  1.
         11   -1    0    0    0    0 -0.00000000000E+00 -0.00000000000E+00 -0.50000000000E+03  0.50000000000E+03  0.00000000000E+00 0.  1.
        -11    1    1    2    0    0 -0.92915212023E+01  0.21398677309E+00  0.47315006523E+03  0.47324133630E+03  0.00000000000E+00 0.  1.
         11    1    1    2    0    0  0.22112951793E+02  0.17516574181E+02 -0.49217990710E+03  0.49298770163E+03  0.00000000000E+00 0.  1.
        -15    1    1    2    0    0 -0.41863674293E+00 -0.10296089678E+02  0.87513255620E+00  0.10493250467E+02  0.17770000000E+01 0. -1.
         15    1    1    2    0    0 -0.12402793848E+02 -0.74344712758E+01  0.18154709313E+02  0.23277711606E+02  0.17770000000E+01 0.  1.
</event>
<event>
 6    1  0.1823098E-004  0.5042650E+03  0.7546771E-02  0.9390317E-01
        -11   -1    0    0    0    0  0.00000000000E+00  0.00000000000E+00  0.50000000000E+03  0.50000000000E+03  0.00000000000E+00 0. -1.
         11   -1    0    0    0    0 -0.00000000000E+00 -0.00000000000E+00 -0.50000000000E+03  0.50000000000E+03  0.00000000000E+00 0. -1.
        -11    1    1    2    0    0  0.22988470505E+01 -0.57645689209E+01  0.36165635803E+03  0.36170960211E+03  0.00000000000E+00 0. -1.
         11    1    1    2    0    0  0.16473032752E+01 -0.38620312344E+02 -0.49422565420E+03  0.49573504960E+03  0.00000000000E+00 0. -1.
        -15    1    1    2    0    0  0.16574987981E+00  0.73811438575E+01  0.64528817257E+02  0.64974108253E+02  0.17770000000E+01 0. -1.
         15    1    1    2    0    0 -0.41119002055E+01  0.37003737408E+02  0.68040478917E+02  0.77581240037E+02  0.17770000000E+01 0.  1.
</event>
<event>
 6    1  0.1823098E-004  0.5002270E+03  0.7546771E-02  0.9399302E-01
        -11   -1    0    0    0    0  0.00000000000E+00  0.00000000000E+00  0.50000000000E+03  0.50000000000E+03  0.00000000000E+00 0.  1.
         11   -1    0    0    0    0 -0.00000000000E+00 -0.00000000000E+00 -0.50000000000E+03  0.50000000000E+03  0.00000000000E+00 0. -1.
        -11    1    1    2    0    0  0.65239577271E+01 -0.20641823558E+02  0.49930394481E+03  0.49977302469E+03  0.00000000000E+00 0.  1.
         11    1    1    2    0    0 -0.11029926072E+02  0.10709061227E+02 -0.17481859532E+03  0.17549326064E+03  0.00000000000E+00 0. -1.
        -15    1    1    2    0    0  0.55256814054E+00  0.68663664402E+01 -0.15155416661E+03  0.15172104490E+03  0.17770000000E+01 0. -1.
         15    1    1    2    0    0  0.39534002042E+01  0.30663958908E+01 -0.17293118288E+03  0.17301266976E+03  0.17770000000E+01 0. -1.
</event>
<event>
 6    1  0.1823098E-004  0.5016609E+03  0.7546771E-02  0.9396101E-01
        -11   -1    0    0    0    0  0.00000000000E+00  0.00000000000E+00  0.50000000000E+03  0.50000000000E+03  0.00000000000E+00 0. -1.
         11   -1    0    0    0    0 -0.00000000000E+00 -0.00000000000E+00 -0.50000000000E+03  0.50000000000E+03  0.00000000000E+00 0.  1.
        -11    1    1    2    0    0  0.81033831131E+01 -0.25746392270E+01  0.49826653917E+03  0.49833907899E+03  0.00000000000E+00 0. -1.
         11    1    1    2    0    0  0.38054594867E+01 -0.79559573573E+01 -0.42784533772E+03  0.42793622397E+03  0.00000000000E+00 0.  1.
        -15    1    1    2    0    0  0.19253119252E+00  0.30908793824E+01 -0.26201472436E+01  0.44287136050E+01  0.17770000000E+01 0. -1.
         15    1    1    2    0    0 -0.12101373792E+02  0.74397172019E+01 -0.67801054208E+02  0.69295983436E+02  0.17770000000E+01 0.  1.
</event>
<event>
 6    1  0.1823098E-004  0.5012225E+03  0.7546771E-02  0.9397078E-01
        -11   -1    0    0    0    0  0.00000000000E+00  0.00000000000E+00  0.50000000000E+03  0.50000000000E+03  0.00000000000E+00 0.  1.
         11   -1    0    0    0    0 -0.00000000000E+00 -0.00000000000E+00 -0.50000000000E+03  0.50000000000E+03  0.00000000000E+00 0. -1.
        -11    1    1    2    0    0 -0.73441578787E+01  0.79697355273E+01  0.47846460606E+03  0.47858733016E+03  0.00000000000E+00 0.  1.
         11    1    1    2    0    0  0.86726007778E+01 -0.17190326329E+01 -0.49869910882E+03  0.49877747565E+03  0.00000000000E+00 0. -1.
        -15    1    1    2    0    0 -0.38517537076E+01 -0.48970281856E+01  0.10543870863E+02  0.12375291247E+02  0.17770000000E+01 0.  1.
         15    1    1    2    0    0  0.25233108085E+01 -0.13536747087E+01  0.96906318980E+01  0.10259902935E+02  0.17770000000E+01 0.  1.
</event>
<event>
 6    1  0.1823098E-004  0.5047031E+03  0.7546771E-02  0.9389347E-01
        -11   -1    0    0    0    0  0.00000000000E+00  0.00000000000E+00  0.50000000000E+03  0.50000000000E+03  0.00000000000E+00 0. -1.
         11   -1    0    0    0    0 -0.00000000000E+00 -0.00000000000E+00 -0.50000000000E+03  0.50000000000E+03  0.00000000000E+00 0.  1.
        -11    1    1    2    0    0  0.74576743295E+01  0.44179029134E+01  0.49522106747E+03  0.49529692149E+03  0.00000000000E+00 0. -1.
         11    1    1    2    0    0 -0.66289242945E+01  0.79601512623E+01 -0.47577247075E+03  0.47588522836E+03  0.00000000000E+00 0.  1.
        -15    1    1    2    0    0 -0.15755048574E+01 -0.15600449458E+02 -0.10080171504E+02  0.18724951946E+02  0.17770000000E+01 0.  1.
         15    1    1    2    0    0  0.74675482236E+00  0.32223952821E+01 -0.93684252126E+01  0.10092898200E+02  0.17770000000E+01 0. -1.
</event>
<event>
 6    1  0.1823098E-004  0.5035268E+03  0.7546771E-02  0.9391953E-01
        -11   -1    0    0    0    0  0.00000000000E+00  0.00000000000E+00  0.50000000000E+03  0.50000000000E+03  0.00000000000E+00 0. -1.
         11   -1    0    0    0    0 -0.00000000000E+00 -0.00000000000E+00 -0.50000000000E+03  0.50000000000E+03  0.00000000000E+00 0.  1.
        -11    1    1    2    0    0  0.60742928361E+01 -0.28590384358E+01  0.49642783093E+03  0.49647322431E+03  0.00000000000E+00 0. -1.
         11    1    1    2    0    0  0.95208464350E+00  0.17455227008E+02 -0.44952775063E+03  0.44986752494E+03  0.00000000000E+00 0.  1.
        -15    1    1    2    0    0  0.13057434826E+01  0.23470279676E+01 -0.16697997769E+00  0.32247662917E+01  0.17770000000E+01 0.  1.
         15    1    1    2    0    0 -0.83321209622E+01 -0.16943216540E+02 -0.46733100331E+02  0.50434484453E+02  0.17770000000E+01 0.  1.
</event>
<event>
 6    1  0.1823098E-004  0.5001234E+03  0.7546771E-02  0.9399534E-01
        -11   -1    0    0    0    0  0.00000000000E+00  0.00000000000E+00  0.50000000000E+03  0.50000000000E+03  0.00000000000E+00 0. -1.
         11   -1    0    0    0    0 -0.00000000000E+00 -0.00000000000E+00 -0.50000000000E+03  0.50000000000E+03  0.00000000000E+00 0.  1.
        -11    1    1    2    0    0  0.59498883682E+01  0.94323510207E-01  0.23975431969E+03  0.23982815489E+03  0.00000000000E+00 0. -1.
         11    1    1    2    0    0 -0.72557211804E+01 -0.94936979266E+01 -0.49973379156E+03  0.49987662299E+03  0.00000000000E+00 0.  1.
        -15    1    1    2    0    0  0.38883049940E+01  0.34083775978E+01  0.78699855685E+02  0.78889549164E+02  0.17770000000E+01 0. -1.
         15    1    1    2    0    0 -0.25824721818E+01  0.59909968186E+01  0.18127961618E+03  0.18140567295E+03  0.17770000000E+01 0.  1.
</event>
<event>
 6    1  0.1823098E-004  0.5037936E+03  0.7546771E-02  0.9391361E-01
        -11   -1    0    0    0    0  0.00000000000E+00  0.00000000000E+00  0.50000000000E+03  0.50000000000E+03  0.00000000000E+00 0. -1.
         11   -1    0    0    0    0 -0.00000000000E+00 -0.00000000000E+00 -0.50000000000E+03  0.50000000000E+03  0.00000000000E+00 0.  1.
        -11    1    1    2    0    0  0.20437018412E+01 -0.82487278692E+01  0.46661951342E+03  0.46669689150E+03  0.00000000000E+00 0. -1.
         11    1    1    2    0    0 -0.50159711655E+01  0.13126799648E+02 -0.49600733360E+03  0.49620635609E+03  0.00000000000E+00 0.  1.
        -15    1    1    2    0    0  0.24724607333E+01  0.73460230539E+01  0.40955163706E+01  0.89447247094E+01  0.17770000000E+01 0. -1.
         15    1    1    2    0    0  0.49980859102E+00 -0.12224094832E+02  0.25292303809E+02  0.28152027708E+02  0.17770000000E+01 0.  1.
</event>
<event>
 6    1  0.1823098E-004  0.4876586E+03  0.7546771E-02  0.9427856E-01
        -11   -1    0    0    0    0  0.00000000000E+00  0.00000000000E+00  0.50000000000E+03  0.50000000000E+03  0.00000000000E+00 0.  1.
         11   -1    0    0    0    0 -0.00000000000E+00 -0.00000000000E+00 -0.50000000000E+03  0.50000000000E+03  0.00000000000E+00 0. -1.
        -11    1    1    2    0    0  0.13148527332E+02  0.30334221434E+00  0.49106975775E+03  0.49124584758E+03  0.00000000000E+00 0.  1.
         11    1    1    2    0    0  0.38736632912E+01 -0.15100135488E+02 -0.48410594231E+03  0.48435687539E+03  0.00000000000E+00 0. -1.
        -15    1    1    2    0    0 -0.30517076518E+01  0.10081953741E+01 -0.11521286134E+01  0.38489617881E+01  0.17770000000E+01 0. -1.
         15    1    1    2    0    0 -0.13970482972E+02  0.13788597899E+02 -0.58116868292E+01  0.20548315242E+02  0.17770000000E+01 0.  1.
</event>
<event>
 6    1  0.1823098E-004  0.5007352E+03  0.7546771E-02  0.9398166E-01
        -11   -1    0    0    0    0  0.00000000000E+00  0.00000000000E+00  0.50000000000E+03  0.50000000000E+03  0.00000000000E+00 0. -1.
         11   -1    0    0    0    0 -0.00000000000E+00 -0.00000000000E+00 -0.50000000000E+03  0.50000000000E+03  0.00000000000E+00 0. -1.
        -11    1    1    2    0    0  0.72044165602E+01 -0.55056273894E+01  0.49918244851E+03  0.49926479192E+03  0.00000000000E+00 0. -1.
         11    1    1    2    0    0 -0.61602154543E+01 -0.60055079823E+01 -0.42344573677E+03  0.42353312310E+03  0.00000000000E+00 0. -1.
        -15    1    1    2    0    0 -0.14496225096E+01  0.33020640782E+01 -0.80811804386E+01  0.90259757854E+01  0.17770000000E+01 0. -1.
         15    1    1    2    0    0  0.40542140371E+00  0.82090712935E+01 -0.67655531308E+02  0.68176109185E+02  0.17770000000E+01 0.  1.
</event>
<event>
 6    1  0.1823098E-004  0.5014654E+03  0.7546771E-02  0.9396537E-01
        -11   -1    0    0    0    0  0.00000000000E+00  0.00000000000E+00  0.50000000000E+03  0.50000000000E+03  0.00000000000E+00 0.  1.
         11   -1    0    0    0    0 -0.00000000000E+00 -0.00000000000E+00 -0.50000000000E+03  0.50000000000E+03  0.00000000000E+00 0.  1.
        -11    1    1    2    0    0 -0.93862645494E+01  0.65781998534E+01  0.45599934665E+03  0.45614337529E+03  0.00000000000E+00 0.  1.
         11    1    1    2    0    0  0.22193991763E+02 -0.16196315480E+01 -0.49803766779E+03  0.49853456753E+03  0.00000000000E+00 0.  1.
        -15    1    1    2    0    0 -0.96643672774E+01  0.93529841807E+00  0.21651884989E+02  0.23795727150E+02  0.17770000000E+01 0.  1.
         15    1    1    2    0    0 -0.31433599365E+01 -0.58938667235E+01  0.20386436156E+02  0.21526330036E+02  0.17770000000E+01 0. -1.
</event>
<event>
 6    1  0.1823098E-004  0.5015088E+03  0.7546771E-02  0.9396440E-01
        -11   -1    0    0    0    0  0.00000000000E+00  0.00000000000E+00  0.50000000000E+03  0.50000000000E+03  0.00000000000E+00 0. -1.
         11   -1    0    0    0    0 -0.00000000000E+00 -0.00000000000E+00 -0.50000000000E+03  0.50000000000E+03  0.00000000000E+00 0. -1.
        -11    1    1    2    0    0 -0.19849877186E+01 -0.11622654827E+02  0.45475396548E+03  0.45490679859E+03  0.00000000000E+00 0. -1.
         11    1    1    2    0    0 -0.13706804171E+02  0.13053508337E+02 -0.49813170147E+03  0.49849118605E+03  0.00000000000E+00 0. -1.
        -15    1    1    2    0    0  0.10060661008E+02  0.16408680993E+01  0.27720245178E+02  0.29588495564E+02  0.17770000000E+01 0.  1.
         15    1    1    2    0    0  0.56311308816E+01 -0.30717216094E+01  0.15657490810E+02  0.17013519803E+02  0.17770000000E+01 0. -1.
</event>
<event>
 6    1  0.1823098E-004  0.5040154E+03  0.7546771E-02  0.9390870E-01
        -11   -1    0    0    0    0  0.00000000000E+00  0.00000000000E+00  0.50000000000E+03  0.50000000000E+03  0.00000000000E+00 0.  1.
         11   -1    0    0    0    0 -0.00000000000E+00 -0.00000000000E+00 -0.50000000000E+03  0.50000000000E+03  0.00000000000E+00 0. -1.
        -11    1    1    2    0    0  0.29177138905E+01 -0.88743634969E+01  0.49589666830E+03  0.49598464998E+03  0.00000000000E+00 0.  1.
         11    1    1    2    0    0  0.19038877350E+02  0.96162520580E+01 -0.45481794748E+03  0.45531781923E+03  0.00000000000E+00 0. -1.
        -15    1    1    2    0    0 -0.21421824972E+02 -0.35917557961E+01 -0.39098802745E+02  0.44762365888E+02  0.17770000000E+01 0. -1.
         15    1    1    2    0    0 -0.53476626779E+00  0.28498672349E+01 -0.19799180786E+01  0.39351649033E+01  0.17770000000E+01 0.  1.
</event>
<event>
 6    1  0.1823098E-004  0.5041075E+03  0.7546771E-02  0.9390666E-01
        -11   -1    0    0    0    0  0.00000000000E+00  0.00000000000E+00  0.50000000000E+03  0.50000000000E+03  0.00000000000E+00 0.  1.
         11   -1    0    0    0    0 -0.00000000000E+00 -0.00000000000E+00 -0.50000000000E+03  0.50000000000E+03  0.00000000000E+00 0. -1.
        -11    1    1    2    0    0  0.11231288654E+02  0.41893349399E+01  0.49574760888E+03  0.49589251263E+03  0.00000000000E+00 0.  1.
         11    1    1    2    0    0 -0.29602135613E+02 -0.25381016037E+02 -0.30944241626E+03  0.31188954998E+03  0.00000000000E+00 0. -1.
        -15    1    1    2    0    0  0.10149125952E+02  0.11437203892E+02 -0.19163683737E+02  0.24580864383E+02  0.17770000000E+01 0.  1.
         15    1    1    2    0    0  0.82217210078E+01  0.97544772057E+01 -0.16714150889E+03  0.16763707300E+03  0.17770000000E+01 0. -1.
</event>
<event>
 6    1  0.1823098E-004  0.5022822E+03  0.7546771E-02  0.9394718E-01
        -11   -1    0    0    0    0  0.00000000000E+00  0.00000000000E+00  0.50000000000E+03  0.50000000000E+03  0.00000000000E+00 0. -1.
         11   -1    0    0    0    0 -0.00000000000E+00 -0.00000000000E+00 -0.50000000000E+03  0.50000000000E+03  0.00000000000E+00 0. -1.
        -11    1    1    2    0    0 -0.65739634580E+01  0.22223287882E+01  0.49766940162E+03  0.49771778053E+03  0.00000000000E+00 0. -1.
         11    1    1    2    0    0 -0.10841584639E+00  0.23937894478E+02 -0.39657218760E+03  0.39729401522E+03  0.00000000000E+00 0. -1.
        -15    1    1    2    0    0  0.41934252969E+01 -0.24301536926E+02 -0.87176720648E+02  0.90615053190E+02  0.17770000000E+01 0. -1.
         15    1    1    2    0    0  0.24889540075E+01 -0.18586863405E+01 -0.13920493370E+02  0.14373151068E+02  0.17770000000E+01 0.  1.
</event>
<event>
 6    1  0.1823098E-004  0.5147901E+03  0.7546771E-02  0.9367311E-01
        -11   -1    0    0    0    0  0.00000000000E+00  0.00000000000E+00  0.50000000000E+03  0.50000000000E+03  0.00000000000E+00 0. -1.
         11   -1    0    0    0    0 -0.00000000000E+00 -0.00000000000E+00 -0.50000000000E+03  0.50000000000E+03  0.00000000000E+00 0.  1.
        -11    1    1    2    0    0  0.20536693884E+02  0.16078599013E+02  0.41451267434E+03  0.41533243833E+03  0.00000000000E+00 0. -1.
         11    1    1    2    0    0 -0.13739327059E+02 -0.49457193835E+02 -0.48248719454E+03  0.48520992985E+03  0.00000000000E+00 0.  1.
        -15    1    1    2    0    0  0.40728221173E+01  0.42987689872E+02  0.17019038074E+02  0.46447117741E+02  0.17770000000E+01 0.  1.
         15    1    1    2    0    0 -0.10870188943E+02 -0.96090950495E+01  0.50955482124E+02  0.53010514078E+02  0.17770000000E+01 0. -1.
</event>
<event>
 6    1  0.1823098E-004  0.5036465E+03  0.7546771E-02  0.9391687E-01
        -11   -1    0    0    0    0  0.00000000000E+00  0.00000000000E+00  0.50000000000E+03  0.50000000000E+03  0.00000000000E+00 0.  1.
         11   -1    0    0    0    0 -0.00000000000E+00 -0.00000000000E+00 -0.50000000000E+03  0.50000000000E+03  0.00000000000E+00 0.  1.
        -11    1    1    2    0    0  0.32090498351E+01  0.93666516170E+01  0.45076095716E+03  0.45086968479E+03  0.00000000000E+00 0.  1.
         11    1    1    2    0    0 -0.27776494008E+02 -0.12155298454E+01 -0.49557419981E+03  0.49635350170E+03  0.00000000000E+00 0.  1.
        -15    1    1    2    0    0  0.21915504634E+02 -0.56515807152E+01  0.31285058024E+02  0.38654136810E+02  0.17770000000E+01 0. -1.
         15    1    1    2    0    0  0.26519395383E+01 -0.24995410564E+01  0.13528184629E+02  0.14122676699E+02  0.17770000000E+01 0.  1.
</event>
<event>
 6    1  0.1823098E-004  0.5014012E+03  0.7546771E-02  0.9396680E-01
        -11   -1    0    0    0    0  0.00000000000E+00  0.00000000000E+00  0.50000000000E+03  0.50000000000E+03  0.00000000000E+00 0. -1.
         11   -1    0    0    0    0 -0.00000000000E+00 -0.00000000000E+00 -0.50000000000E+03  0.50000000000E+03  0.00000000000E+00 0. -1.
        -11    1    1    2    0    0  0.22307369977E+01  0.89005789563E+01  0.37675045688E+03  0.37686218072E+03  0.00000000000E+00 0. -1.
         11    1    1    2    0    0  0.11919204582E+02 -0.31546725570E+01 -0.49844637799E+03  0.49859884790E+03  0.00000000000E+00 0. -1.
        -15    1    1    2    0    0 -0.19262859963E+02 -0.38432861286E+01  0.77413497787E+02  0.79886394278E+02  0.17770000000E+01 0.  1.
         15    1    1    2    0    0  0.51129183830E+01 -0.19026202707E+01  0.44282423319E+02  0.44652577107E+02  0.17770000000E+01 0. -1.
</event>
<event>
 6    1  0.1823098E-004  0.5029728E+03  0.7546771E-02  0.9393182E-01
        -11   -1    0    0    0    0  0.00000000000E+00  0.00000000000E+00  0.50000000000E+03  0.50000000000E+03  0.00000000000E+00 0.  1.
         11   -1    0    0    0    0 -0.00000000000E+00 -0.00000000000E+00 -0.50000000000E+03  0.50000000000E+03  0.00000000000E+00 0. -1.
        -11    1    1    2    0    0 -0.40745111490E+01 -0.86257178847E+01  0.44167439348E+03  0.44177740380E+03  0.00000000000E+00 0.  1.
         11    1    1    2    0    0 -0.91365324655E+01 -0.12005936471E+02 -0.49679816100E+03  0.49702719393E+03  0.00000000000E+00 0. -1.
        -15    1    1    2    0    0  0.92124827752E+01  0.17878618237E+02  0.34884587256E+02  0.40306413708E+02  0.17770000000E+01 0.  1.
         15    1    1    2    0    0  0.39985608393E+01  0.27530361183E+01  0.20239180258E+02  0.20888988563E+02  0.17770000000E+01 0. -1.
</event>
<event>
 6    1  0.1823098E-004  0.4775812E+03  0.7546771E-02  0.9451420E-01
        -11   -1    0    0    0    0  0.00000000000E+00  0.00000000000E+00  0.50000000000E+03  0.50000000000E+03  0.00000000000E+00 0.  1.
         11   -1    0    0    0    0 -0.00000000000E+00 -0.00000000000E+00 -0.50000000000E+03  0.50000000000E+03  0.00000000000E+00 0.  1.
        -11    1    1    2    0    0  0.17483555288E+02  0.64825078978E+01  0.47058365447E+03  0.47095294188E+03  0.00000000000E+00 0.  1.
         11    1    1    2    0    0  0.14304173683E+02  0.96805829520E+01 -0.48467114884E+03  0.48497880943E+03  0.00000000000E+00 0.  1.
        -15    1    1    2    0    0 -0.10206067665E+02  0.20778951851E+00  0.13366275824E+02  0.16912186496E+02  0.17770000000E+01 0.  1.
         15    1    1    2    0    0 -0.21581661306E+02 -0.16370880368E+02  0.72121855314E+00  0.27156062196E+02  0.17770000000E+01 0. -1.
</event>
<event>
 6    1  0.1823098E-004  0.5001555E+03  0.7546771E-02  0.9399462E-01
        -11   -1    0    0    0    0  0.00000000000E+00  0.00000000000E+00  0.50000000000E+03  0.50000000000E+03  0.00000000000E+00 0. -1.
         11   -1    0    0    0    0 -0.00000000000E+00 -0.00000000000E+00 -0.50000000000E+03  0.50000000000E+03  0.00000000000E+00 0. -1.
        -11    1    1    2    0    0 -0.71730574033E+00 -0.37031473737E+00  0.52682625612E+02  0.52688810025E+02  0.00000000000E+00 0. -1.
         11    1    1    2    0    0  0.17672917574E+02 -0.27434613490E+00 -0.49953186900E+03  0.49984447124E+03  0.00000000000E+00 0. -1.
        -15    1    1    2    0    0 -0.39346929041E+01 -0.14983554501E+01  0.25442635256E+02  0.25849802612E+02  0.17770000000E+01 0.  1.
         15    1    1    2    0    0 -0.13020918930E+02  0.21430163224E+01  0.42140660814E+03  0.42161691612E+03  0.17770000000E+01 0. -1.
</event>
<event>
 6    1  0.1823098E-004  0.5069898E+03  0.7546771E-02  0.9384304E-01
        -11   -1    0    0    0    0  0.00000000000E+00  0.00000000000E+00  0.50000000000E+03  0.50000000000E+03  0.00000000000E+00 0. -1.
         11   -1    0    0    0    0 -0.00000000000E+00 -0.00000000000E+00 -0.50000000000E+03  0.50000000000E+03  0.00000000000E+00 0. -1.
        -11    1    1    2    0    0 -0.64002015145E+01 -0.20334018118E+01  0.49296441164E+03  0.49301015045E+03  0.00000000000E+00 0. -1.
         11    1    1    2    0    0 -0.14752259524E+02 -0.68742980592E+00 -0.47775566211E+03  0.47798386416E+03  0.00000000000E+00 0. -1.
        -15    1    1    2    0    0  0.39107656329E+01  0.55874025187E+01 -0.33026657111E+01  0.77832181352E+01  0.17770000000E+01 0. -1.
         15    1    1    2    0    0  0.17241695406E+02 -0.28665709010E+01 -0.11906083816E+02  0.21222767257E+02  0.17770000000E+01 0.  1.
</event>
<event>
 6    1  0.1823098E-004  0.5001639E+03  0.7546771E-02  0.9399443E-01
        -11   -1    0    0    0    0  0.00000000000E+00  0.00000000000E+00  0.50000000000E+03  0.50000000000E+03  0.00000000000E+00 0. -1.
         11   -1    0    0    0    0 -0.00000000000E+00 -0.00000000000E+00 -0.50000000000E+03  0.50000000000E+03  0.00000000000E+00 0. -1.
        -11    1    1    2    0    0  0.14889572421E+02  0.18909833949E+01  0.16855583439E+03  0.16922276588E+03  0.00000000000E+00 0. -1.
         11    1    1    2    0    0 -0.54943496516E+02  0.67979503474E+01 -0.49676062731E+03  0.49983609392E+03  0.00000000000E+00 0. -1.
        -15    1    1    2    0    0  0.27366338189E+02 -0.10087957320E+02  0.24655742532E+03  0.24828291335E+03  0.17770000000E+01 0. -1.
         15    1    1    2    0    0  0.12687585905E+02  0.13990235779E+01  0.81647367591E+02  0.82658226854E+02  0.17770000000E+01 0.  1.
</event>
<event>
 6    1  0.1823098E-004  0.5021931E+03  0.7546771E-02  0.9394916E-01
        -11   -1    0    0    0    0  0.00000000000E+00  0.00000000000E+00  0.50000000000E+03  0.50000000000E+03  0.00000000000E+00 0. -1.
         11   -1    0    0    0    0 -0.00000000000E+00 -0.00000000000E+00 -0.50000000000E+03  0.50000000000E+03  0.00000000000E+00 0. -1.
        -11    1    1    2    0    0 -0.76076460851E+01  0.14743063057E+02  0.39842990228E+03  0.39877515120E+03  0.00000000000E+00 0. -1.
         11    1    1    2    0    0 -0.15900412578E+02 -0.55594927509E+01 -0.49752188072E+03  0.49780694338E+03  0.00000000000E+00 0. -1.
        -15    1    1    2    0    0  0.14561679282E+02 -0.12757571894E+02  0.57886780015E+02  0.61064188962E+02  0.17770000000E+01 0. -1.
         15    1    1    2    0    0  0.89463793812E+01  0.35740015878E+01  0.41205198428E+02  0.42353716458E+02  0.17770000000E+01 0.  1.
</event>
<event>
 6    1  0.1823098E-004  0.5003020E+03  0.7546771E-02  0.9399134E-01
        -11   -1    0    0    0    0  0.00000000000E+00  0.00000000000E+00  0.50000000000E+03  0.50000000000E+03  0.00000000000E+00 0.  1.
         11   -1    0    0    0    0 -0.00000000000E+00 -0.00000000000E+00 -0.50000000000E+03  0.50000000000E+03  0.00000000000E+00 0. -1.
        -11    1    1    2    0    0 -0.21646339673E+01  0.53054700327E+01  0.40480352169E+03  0.40484407471E+03  0.00000000000E+00 0.  1.
         11    1    1    2    0    0 -0.17145196971E+01 -0.67890471741E+01 -0.49964897482E+03  0.49969803760E+03  0.00000000000E+00 0. -1.
        -15    1    1    2    0    0 -0.69166597232E+00  0.45030710839E+01  0.35847553424E+02  0.36179564210E+02  0.17770000000E+01 0. -1.
         15    1    1    2    0    0  0.45708196367E+01 -0.30194939425E+01  0.58997899707E+02  0.59278323480E+02  0.17770000000E+01 0.  1.
</event>
<event>
 6    1  0.1823098E-004  0.5181958E+03  0.7546771E-02  0.9359991E-01
        -11   -1    0    0    0    0  0.00000000000E+00  0.00000000000E+00  0.50000000000E+03  0.50000000000E+03  0.00000000000E+00 0.  1.
         11   -1    0    0    0    0 -0.00000000000E+00 -0.00000000000E+00 -0.50000000000E+03  0.50000000000E+03  0.00000000000E+00 0. -1.
        -11    1    1    2    0    0  0.26944770735E+02  0.92704929869E+00  0.44831017649E+03  0.44912013363E+03  0.00000000000E+00 0.  1.
         11    1    1    2    0    0 -0.35017721584E+02 -0.42367448744E+02 -0.47865854013E+03  0.48180415064E+03  0.00000000000E+00 0. -1.
        -15    1    1    2    0    0 -0.14713013017E+02  0.95646524041E+01 -0.26273093806E+01  0.17832997820E+02  0.17770000000E+01 0. -1.
         15    1    1    2    0    0  0.22785963866E+02  0.31875747041E+02  0.32975673016E+02  0.51242717908E+02  0.17770000000E+01 0.  1.
</event>
<event>
 6    1  0.1823098E-004  0.3307240E+03  0.7546771E-02  0.9886630E-01
        -11   -1    0    0    0    0  0.00000000000E+00  0.00000000000E+00  0.50000000000E+03  0.50000000000E+03  0.00000000000E+00 0. -1.
         11   -1    0    0    0    0 -0.00000000000E+00 -0.00000000000E+00 -0.50000000000E+03  0.50000000000E+03  0.00000000000E+00 0.  1.
        -11    1    1    2    0    0  0.70079038391E+02  0.11163046308E+01  0.39710881343E+03  0.40324648475E+03  0.00000000000E+00 0. -1.
         11    1    1    2    0    0 -0.24482739860E+03 -0.10908063874E+02 -0.14391286262E+03  0.28420125438E+03  0.00000000000E+00 0.  1.
        -15    1    1    2    0    0  0.16472025511E+03  0.90994877590E+01 -0.20427463382E+03  0.26257731599E+03  0.17770000000E+01 0. -1.
         15    1    1    2    0    0  0.10028105100E+02  0.69227148442E+00 -0.48921316990E+02  0.49974944889E+02  0.17770000000E+01 0.  1.
</event>
<event>
 6    1  0.1823098E-004  0.5034139E+03  0.7546771E-02  0.9392203E-01
        -11   -1    0    0    0    0  0.00000000000E+00  0.00000000000E+00  0.50000000000E+03  0.50000000000E+03  0.00000000000E+00 0. -1.
         11   -1    0    0    0    0 -0.00000000000E+00 -0.00000000000E+00 -0.50000000000E+03  0.50000000000E+03  0.00000000000E+00 0. -1.
        -11    1    1    2    0    0 -0.13261069670E+02  0.29579516292E+01  0.38036734999E+03  0.38060993995E+03  0.00000000000E+00 0. -1.
         11    1    1    2    0    0 -0.15102916614E+02 -0.18044423646E+02 -0.49602828233E+03  0.49658610148E+03  0.00000000000E+00 0. -1.
        -15    1    1    2    0    0  0.54879369612E+01 -0.53132809137E+01  0.46190962246E+02  0.46852013066E+02  0.17770000000E+01 0.  1.
         15    1    1    2    0    0  0.22876049324E+02  0.20399752930E+02  0.69469970091E+02  0.75951945503E+02  0.17770000000E+01 0. -1.
</event>
<event>
 6    1  0.1823098E-004  0.5000794E+03  0.7546771E-02  0.9399632E-01
        -11   -1    0    0    0    0  0.00000000000E+00  0.00000000000E+00  0.50000000000E+03  0.50000000000E+03  0.00000000000E+00 0. -1.
         11   -1    0    0    0    0 -0.00000000000E+00 -0.00000000000E+00 -0.50000000000E+03  0.50000000000E+03  0.00000000000E+00 0. -1.
        -11    1    1    2    0    0 -0.16242880605E+01  0.65685432263E+01  0.49987483339E+03  0.49992062683E+03  0.00000000000E+00 0. -1.
         11    1    1    2    0    0  0.12576962674E+01 -0.63104671955E+00 -0.11699171794E+02  0.11783490168E+02  0.00000000000E+00 0. -1.
        -15    1    1    2    0    0 -0.24382472983E+01  0.96527119884E+00 -0.13484211556E+03  0.13487931886E+03  0.17770000000E+01 0.  1.
         15    1    1    2    0    0  0.28048390914E+01 -0.69027677056E+01 -0.35333354603E+03  0.35341656414E+03  0.17770000000E+01 0. -1.
</event>
<event>
 6    1  0.1823098E-004  0.3741477E+03  0.7546771E-02  0.9736030E-01
        -11   -1    0    0    0    0  0.00000000000E+00  0.00000000000E+00  0.50000000000E+03  0.50000000000E+03  0.00000000000E+00 0.  1.
         11   -1    0    0    0    0 -0.00000000000E+00 -0.00000000000E+00 -0.50000000000E+03  0.50000000000E+03  0.00000000000E+00 0. -1.
        -11    1    1    2    0    0  0.77597471989E+02 -0.39639070697E+02  0.31420756105E+03  0.32606596726E+03  0.00000000000E+00 0.  1.
         11    1    1    2    0    0 -0.80332971048E+02  0.16760283370E+03  0.11937579901E+03  0.22089517308E+03  0.00000000000E+00 0. -1.
        -15    1    1    2    0    0  0.31559444749E+01 -0.10110401520E+03 -0.29502311936E+03  0.31188744855E+03  0.17770000000E+01 0. -1.
         15    1    1    2    0    0 -0.42044541613E+00 -0.26859747805E+02 -0.13856024070E+03  0.14115141111E+03  0.17770000000E+01 0.  1.
</event>
<event>
 6    1  0.1823098E-004  0.5276993E+03  0.7546771E-02  0.9339878E-01
        -11   -1    0    0    0    0  0.00000000000E+00  0.00000000000E+00  0.50000000000E+03  0.50000000000E+03  0.00000000000E+00 0. -1.
         11   -1    0    0    0    0 -0.00000000000E+00 -0.00000000000E+00 -0.50000000000E+03  0.50000000000E+03  0.00000000000E+00 0. -1.
        -11    1    1    2    0    0 -0.82005634646E+01 -0.44971622282E+01  0.26223879731E+03  0.26240552685E+03  0.00000000000E+00 0. -1.
         11    1    1    2    0    0  0.45792797174E+01  0.12842506027E+03 -0.45448205884E+03  0.47230065394E+03  0.00000000000E+00 0. -1.
        -15    1    1    2    0    0  0.11692630305E+01  0.42947365712E+01  0.11597154414E+03  0.11607053337E+03  0.17770000000E+01 0. -1.
         15    1    1    2    0    0  0.24520207167E+01 -0.12822263461E+03  0.76271717396E+02  0.14922328584E+03  0.17770000000E+01 0. -1.
</event>
<event>
 6    1  0.1823098E-004  0.5027276E+03  0.7546771E-02  0.9393727E-01
        -11   -1    0    0    0    0  0.00000000000E+00  0.00000000000E+00  0.50000000000E+03  0.50000000000E+03  0.00000000000E+00 0.  1.
         11   -1    0    0    0    0 -0.00000000000E+00 -0.00000000000E+00 -0.50000000000E+03  0.50000000000E+03  0.00000000000E+00 0.  1.
        -11    1    1    2    0    0 -0.86513661050E+01  0.57803600143E+00  0.47430402170E+03  0.47438326832E+03  0.00000000000E+00 0.  1.
         11    1    1    2    0    0 -0.29603675471E+01  0.84820783997E+01 -0.49719127376E+03  0.49727243251E+03  0.00000000000E+00 0.  1.
        -15    1    1    2    0    0  0.41437436277E+01  0.30526422633E+00  0.75998087270E+01  0.88418674039E+01  0.17770000000E+01 0.  1.
         15    1    1    2    0    0  0.74679900244E+01 -0.93653786274E+01  0.15287443334E+02  0.19502431760E+02  0.17770000000E+01 0. -1.
</event>
<event>
 6    1  0.1823098E-004  0.5035490E+03  0.7546771E-02  0.9391903E-01
        -11   -1    0    0    0    0  0.00000000000E+00  0.00000000000E+00  0.50000000000E+03  0.50000000000E+03  0.00000000000E+00 0. -1.
         11   -1    0    0    0    0 -0.00000000000E+00 -0.00000000000E+00 -0.50000000000E+03  0.50000000000E+03  0.00000000000E+00 0. -1.
        -11    1    1    2    0    0  0.84665983941E+01 -0.27265801390E+01  0.49637127436E+03  0.49645096388E+03  0.00000000000E+00 0. -1.
         11    1    1    2    0    0 -0.48734140211E+01  0.47804634888E+01 -0.47977248569E+03  0.47982105104E+03  0.00000000000E+00 0. -1.
        -15    1    1    2    0    0  0.58753567933E+01  0.20442157083E+01 -0.58299091714E+01  0.87088578618E+01  0.17770000000E+01 0. -1.
         15    1    1    2    0    0 -0.94685411663E+01 -0.40980990582E+01 -0.10768879502E+02  0.15019127220E+02  0.17770000000E+01 0.  1.
</event>
<event>
 6    1  0.1823098E-004  0.5012020E+03  0.7546771E-02  0.9397124E-01
        -11   -1    0    0    0    0  0.00000000000E+00  0.00000000000E+00  0.50000000000E+03  0.50000000000E+03  0.00000000000E+00 0.  1.
         11   -1    0    0    0    0 -0.00000000000E+00 -0.00000000000E+00 -0.50000000000E+03  0.50000000000E+03  0.00000000000E+00 0.  1.
        -11    1    1    2    0    0 -0.61733757807E+01  0.42758991103E+01  0.49874149311E+03  0.49879802609E+03  0.00000000000E+00 0.  1.
         11    1    1    2    0    0 -0.76642106517E+01  0.77990807648E+01 -0.41395276267E+03  0.41409715709E+03  0.00000000000E+00 0.  1.
        -15    1    1    2    0    0  0.11217350245E+02 -0.12005034785E+02 -0.65200921930E+02  0.67262677290E+02  0.17770000000E+01 0.  1.
         15    1    1    2    0    0  0.26202361876E+01 -0.69945089751E-01 -0.19587808512E+02  0.19842139535E+02  0.17770000000E+01 0.  1.
</event>
<event>
 6    1  0.1823098E-004  0.4798146E+03  0.7546771E-02  0.9446145E-01
        -11   -1    0    0    0    0  0.00000000000E+00  0.00000000000E+00  0.50000000000E+03  0.50000000000E+03  0.00000000000E+00 0. -1.
         11   -1    0    0    0    0 -0.00000000000E+00 -0.00000000000E+00 -0.50000000000E+03  0.50000000000E+03  0.00000000000E+00 0. -1.
        -11    1    1    2    0    0  0.53663327055E+01  0.48607658349E+01  0.48284375965E+03  0.48289804390E+03  0.00000000000E+00 0. -1.
         11    1    1    2    0    0 -0.21586759652E+02  0.33437827355E+01 -0.47642419051E+03  0.47692470934E+03  0.00000000000E+00 0. -1.
        -15    1    1    2    0    0  0.10695064433E+02 -0.67326529327E+01  0.13972894244E+02  0.18923861162E+02  0.17770000000E+01 0. -1.
         15    1    1    2    0    0  0.55253625136E+01 -0.14718956377E+01 -0.20392463381E+02  0.21253385599E+02  0.17770000000E+01 0.  1.
</event>
<event>
 6    1  0.1823098E-004  0.5013646E+03  0.7546771E-02  0.9396762E-01
        -11   -1    0    0    0    0  0.00000000000E+00  0.00000000000E+00  0.50000000000E+03  0.50000000000E+03  0.00000000000E+00 0.  1.
         11   -1    0    0    0    0 -0.00000000000E+00 -0.00000000000E+00 -0.50000000000E+03  0.50000000000E+03  0.00000000000E+00 0.  1.
        -11    1    1    2    0    0  0.20877005557E+01  0.58601699291E+01  0.45522500341E+03  0.45526750797E+03  0.00000000000E+00 0.  1.
         11    1    1    2    0    0 -0.28537697799E+01  0.85062437746E+01 -0.49855468363E+03  0.49863541065E+03  0.00000000000E+00 0.  1.
        -15    1    1    2    0    0  0.30570196816E+00 -0.77335504832E+00  0.42742144198E+01  0.47029958144E+01  0.17770000000E+01 0. -1.
         15    1    1    2    0    0  0.46036725598E+00 -0.13593058655E+02  0.39055465804E+02  0.41394085566E+02  0.17770000000E+01 0.  1.
</event>
<event>
 6    1  0.1823098E-004  0.4908343E+03  0.7546771E-02  0.9420555E-01
        -11   -1    0    0    0    0  0.00000000000E+00  0.00000000000E+00  0.50000000000E+03  0.50000000000E+03  0.00000000000E+00 0.  1.
         11   -1    0    0    0    0 -0.00000000000E+00 -0.00000000000E+00 -0.50000000000E+03  0.50000000000E+03  0.00000000000E+00 0. -1.
        -11    1    1    2    0    0 -0.71389559660E+01  0.12769577838E+01  0.48932389107E+03  0.48937763097E+03  0.00000000000E+00 0.  1.
         11    1    1    2    0    0 -0.63080531590E+01 -0.95395925654E+01 -0.49228957082E+03  0.49242239683E+03  0.00000000000E+00 0. -1.
        -15    1    1    2    0    0  0.11713828645E+01  0.42552640894E+01 -0.28336716057E+00  0.47662811744E+01  0.17770000000E+01 0. -1.
         15    1    1    2    0    0  0.12275626261E+02  0.40073706923E+01  0.32490469050E+01  0.13433691032E+02  0.17770000000E+01 0.  1.
</event>
<event>
 6    1  0.1823098E-004  0.5002251E+03  0.7546771E-02  0.9399306E-01
        -11   -1    0    0    0    0  0.00000000000E+00  0.00000000000E+00  0.50000000000E+03  0.50000000000E+03  0.00000000000E+00 0. -1.
         11   -1    0    0    0    0 -0.00000000000E+00 -0.00000000000E+00 -0.50000000000E+03  0.50000000000E+03  0.00000000000E+00 0. -1.
        -11    1    1    2    0    0  0.10626251721E+02 -0.42908017117E+01  0.49964345854E+03  0.49977486318E+03  0.00000000000E+00 0. -1.
         11    1    1    2    0    0  0.57644710717E+01  0.99061492366E+00 -0.85353008781E+02  0.85553179676E+02  0.00000000000E+00 0. -1.
        -15    1    1    2    0    0 -0.17208658811E+01 -0.44504026298E+00 -0.66872862110E+02  0.66920078123E+02  0.17770000000E+01 0. -1.
         15    1    1    2    0    0 -0.14669856912E+02  0.37452270510E+01 -0.34741758765E+03  0.34775187902E+03  0.17770000000E+01 0. -1.
</event>
<event>
 6    1  0.1823098E-004  0.5013606E+03  0.7546771E-02  0.9396770E-01
        -11   -1    0    0    0    0  0.00000000000E+00  0.00000000000E+00  0.50000000000E+03  0.50000000000E+03  0.00000000000E+00 0. -1.
         11   -1    0    0    0    0 -0.00000000000E+00 -0.00000000000E+00 -0.50000000000E+03  0.50000000000E+03  0.00000000000E+00 0.  1.
        -11    1    1    2    0    0 -0.60219183694E+01  0.49287437114E+01  0.49857869930E+03  0.49863942425E+03  0.00000000000E+00 0. -1.
         11    1    1    2    0    0  0.74852360085E+01 -0.53686343496E+01 -0.48785349340E+03  0.48794044925E+03  0.00000000000E+00 0.  1.
        -15    1    1    2    0    0  0.21659127287E+01 -0.40625533617E+00 -0.79669395613E+01  0.84549438981E+01  0.17770000000E+01 0. -1.
         15    1    1    2    0    0 -0.36292303677E+01  0.84614597446E+00 -0.27582663387E+01  0.49651826016E+01  0.17770000000E+01 0.  1.
</event>
<event>
 6    1  0.1823098E-004  0.5020409E+03  0.7546771E-02  0.9395255E-01
        -11   -1    0    0    0    0  0.00000000000E+00  0.00000000000E+00  0.50000000000E+03  0.50000000000E+03  0.00000000000E+00 0. -1.
         11   -1    0    0    0    0 -0.00000000000E+00 -0.00000000000E+00 -0.50000000000E+03  0.50000000000E+03  0.00000000000E+00 0. -1.
        -11    1    1    2    0    0 -0.15044049674E+01  0.77109652577E+01  0.44519345341E+03  0.44526276868E+03  0.00000000000E+00 0. -1.
         11    1    1    2    0    0 -0.45757608126E+00  0.83516430484E+01 -0.49788887093E+03  0.49795912193E+03  0.00000000000E+00 0. -1.
        -15    1    1    2    0    0 -0.28454883357E+01 -0.22641387665E+01  0.25824003728E+02  0.26139243022E+02  0.17770000000E+01 0.  1.
         15    1    1    2    0    0  0.48074693844E+01 -0.13798469540E+02  0.26871413797E+02  0.30638866362E+02  0.17770000000E+01 0. -1.
</event>
<event>
 6    1  0.1823098E-004  0.5024269E+03  0.7546771E-02  0.9394396E-01
        -11   -1    0    0    0    0  0.00000000000E+00  0.00000000000E+00  0.50000000000E+03  0.50000000000E+03  0.00000000000E+00 0. -1.
         11   -1    0    0    0    0 -0.00000000000E+00 -0.00000000000E+00 -0.50000000000E+03  0.50000000000E+03  0.00000000000E+00 0. -1.
        -11    1    1    2    0    0 -0.56182789325E+01 -0.87749659367E+01  0.46986328429E+03  0.46997879847E+03  0.00000000000E+00 0. -1.
         11    1    1    2    0    0  0.66279250471E+01 -0.30395615841E+01 -0.49751966613E+03  0.49757309665E+03  0.00000000000E+00 0. -1.
        -15    1    1    2    0    0  0.49491485320E+01  0.37790392537E+01  0.14014679419E+02  0.15438399435E+02  0.17770000000E+01 0.  1.
         15    1    1    2    0    0 -0.59587946465E+01  0.80354882671E+01  0.13641702423E+02  0.17009705445E+02  0.17770000000E+01 0. -1.
</event>
<event>
 6    1  0.1823098E-004  0.5016420E+03  0.7546771E-02  0.9396143E-01
        -11   -1    0    0    0    0  0.00000000000E+00  0.00000000000E+00  0.50000000000E+03  0.50000000000E+03  0.00000000000E+00 0. -1.
         11   -1    0    0    0    0 -0.00000000000E+00 -0.00000000000E+00 -0.50000000000E+03  0.50000000000E+03  0.00000000000E+00 0.  1.
        -11    1    1    2    0    0 -0.14025175210E+01  0.70850919956E+01  0.49830567108E+03  0.49835801129E+03  0.00000000000E+00 0. -1.
         11    1    1    2    0    0 -0.14929180210E+02 -0.21521547020E+01 -0.40849925687E+03  0.40877763522E+03  0.00000000000E+00 0.  1.
        -15    1    1    2    0    0  0.15285953804E+02  0.11192870897E+00 -0.81427236236E+02  0.82868724147E+02  0.17770000000E+01 0.  1.
         15    1    1    2    0    0  0.10457439268E+01 -0.50448660026E+01 -0.83791779816E+01  0.99956293445E+01  0.17770000000E+01 0. -1.
</event>
<event>
 6    1  0.1823098E-004  0.5014921E+03  0.7546771E-02  0.9396477E-01
        -11   -1    0    0    0    0  0.00000000000E+00  0.00000000000E+00  0.50000000000E+03  0.50000000000E+03  0.00000000000E+00 0. -1.
         11   -1    0    0    0    0 -0.00000000000E+00 -0.00000000000E+00 -0.50000000000E+03  0.50000000000E+03  0.00000000000E+00 0.  1.
        -11    1    1    2    0    0  0.65588725161E+01  0.30762128742E+01  0.49845527422E+03  0.49850791597E+03  0.00000000000E+00 0. -1.
         11    1    1    2    0    0 -0.10660224761E+02 -0.12490472492E+00 -0.46744453509E+03  0.46756609092E+03  0.00000000000E+00 0.  1.
        -15    1    1    2    0    0  0.64431076656E+00  0.10448430883E+01 -0.26931966122E+02  0.27018426336E+02  0.17770000000E+01 0.  1.
         15    1    1    2    0    0  0.34570414779E+01 -0.39961512375E+01 -0.40787730059E+01  0.69075667732E+01  0.17770000000E+01 0. -1.
</event>
<event>
 6    1  0.1823098E-004  0.5022285E+03  0.7546771E-02  0.9394837E-01
        -11   -1    0    0    0    0  0.00000000000E+00  0.00000000000E+00  0.50000000000E+03  0.50000000000E+03  0.00000000000E+00 0. -1.
         11   -1    0    0    0    0 -0.00000000000E+00 -0.00000000000E+00 -0.50000000000E+03  0.50000000000E+03  0.00000000000E+00 0. -1.
        -11    1    1    2    0    0  0.32101439297E+01 -0.81717352315E+01  0.46947464008E+03  0.46955672709E+03  0.00000000000E+00 0. -1.
         11    1    1    2    0    0 -0.17511062876E+02  0.13039956663E+02 -0.49729248992E+03  0.49777153225E+03  0.00000000000E+00 0. -1.
        -15    1    1    2    0    0  0.14224724017E+02 -0.36246208879E+01  0.25633916961E+02  0.29592838284E+02  0.17770000000E+01 0.  1.
         15    1    1    2    0    0  0.76194929910E-01 -0.12436005440E+01  0.21839328785E+01  0.30789023690E+01  0.17770000000E+01 0.  1.
</event>
<event>
 6    1  0.1823098E-004  0.4926142E+03  0.7546771E-02  0.9416489E-01
        -11   -1    0    0    0    0  0.00000000000E+00  0.00000000000E+00  0.50000000000E+03  0.50000000000E+03  0.00000000000E+00 0. -1.
         11   -1    0    0    0    0 -0.00000000000E+00 -0.00000000000E+00 -0.50000000000E+03  0.50000000000E+03  0.00000000000E+00 0. -1.
        -11    1    1    2    0    0  0.20977568081E+01 -0.65293899388E+01  0.49379879530E+03  0.49384641718E+03  0.00000000000E+00 0. -1.
         11    1    1    2    0    0 -0.68316311947E+01 -0.34722842830E+01 -0.49138737929E+03  0.49144713293E+03  0.00000000000E+00 0. -1.
        -15    1    1    2    0    0  0.60350776943E+01  0.44286900449E+01  0.10830531451E+01  0.77695682895E+01  0.17770000000E+01 0. -1.
         15    1    1    2    0    0 -0.13012033077E+01  0.55729841770E+01 -0.34944691611E+01  0.69368816051E+01  0.17770000000E+01 0.  1.
</event>
<event>
 6    1  0.1823098E-004  0.5017609E+03  0.7546771E-02  0.9395878E-01
        -11   -1    0    0    0    0  0.00000000000E+00  0.00000000000E+00  0.50000000000E+03  0.50000000000E+03  0.00000000000E+00 0. -1.
         11   -1    0    0    0    0 -0.00000000000E+00 -0.00000000000E+00 -0.50000000000E+03  0.50000000000E+03  0.00000000000E+00 0. -1.
        -11    1    1    2    0    0 -0.22845284613E+02  0.14753702548E+02  0.49749635797E+03  0.49823910421E+03  0.00000000000E+00 0. -1.
         11    1    1    2    0    0  0.17697904007E+02 -0.17992392822E+02 -0.46334647242E+03  0.46403329139E+03  0.00000000000E+00 0. -1.
        -15    1    1    2    0    0 -0.41814935713E+01  0.11936935162E+01 -0.44171140020E+01  0.64481328928E+01  0.17770000000E+01 0. -1.
         15    1    1    2    0    0  0.93288741780E+01  0.20449967577E+01 -0.29732771547E+02  0.31279471511E+02  0.17770000000E+01 0.  1.
</event>
<event>
 6    1  0.1823098E-004  0.5050931E+03  0.7546771E-02  0.9388485E-01
        -11   -1    0    0    0    0  0.00000000000E+00  0.00000000000E+00  0.50000000000E+03  0.50000000000E+03  0.00000000000E+00 0. -1.
         11   -1    0    0    0    0 -0.00000000000E+00 -0.00000000000E+00 -0.50000000000E+03  0.50000000000E+03  0.00000000000E+00 0.  1.
        -11    1    1    2    0    0  0.76809447884E+01  0.15611737712E+01  0.46444863853E+03  0.46451477050E+03  0.00000000000E+00 0. -1.
         11    1    1    2    0    0 -0.63933683377E+01  0.24476841241E+02 -0.49425994324E+03  0.49490694318E+03  0.00000000000E+00 0.  1.
        -15    1    1    2    0    0  0.85751554146E+00 -0.39574475401E+01  0.93644677738E+01  0.10356047008E+02  0.17770000000E+01 0.  1.
         15    1    1    2    0    0 -0.21450919922E+01 -0.22080567473E+02  0.20446836936E+02  0.30222239316E+02  0.17770000000E+01 0. -1.
</event>
<event>
 6    1  0.1823098E-004  0.5024572E+03  0.7546771E-02  0.9394328E-01
        -11   -1    0    0    0    0  0.00000000000E+00  0.00000000000E+00  0.50000000000E+03  0.50000000000E+03  0.00000000000E+00 0.  1.
         11   -1    0    0    0    0 -0.00000000000E+00 -0.00000000000E+00 -0.50000000000E+03  0.50000000000E+03  0.00000000000E+00 0. -1.
        -11    1    1    2    0    0 -0.28306424466E+01  0.12521173223E+02  0.46811638903E+03  0.46829237234E+03  0.00000000000E+00 0.  1.
         11    1    1    2    0    0 -0.12577094027E+02 -0.17318490299E+02 -0.49708221958E+03  0.49754280863E+03  0.00000000000E+00 0. -1.
        -15    1    1    2    0    0  0.13684482372E+02  0.60835048199E+01  0.22112849020E+02  0.26765834742E+02  0.17770000000E+01 0.  1.
         15    1    1    2    0    0  0.17232541023E+01 -0.12861877444E+01  0.68529815320E+01  0.73989842879E+01  0.17770000000E+01 0. -1.
</event>
<event>
 6    1  0.1823098E-004  0.5008770E+03  0.7546771E-02  0.9397850E-01
        -11   -1    0    0    0    0  0.00000000000E+00  0.00000000000E+00  0.50000000000E+03  0.50000000000E+03  0.00000000000E+00 0.  1.
         11   -1    0    0    0    0 -0.00000000000E+00 -0.00000000000E+00 -0.50000000000E+03  0.50000000000E+03  0.00000000000E+00 0.  1.
        -11    1    1    2    0    0  0.52809915039E+01  0.49711876485E+01  0.41396958172E+03  0.41403310999E+03  0.00000000000E+00 0.  1.
         11    1    1    2    0    0 -0.11649872073E+01 -0.18126745177E+02 -0.49879239983E+03  0.49912302513E+03  0.00000000000E+00 0.  1.
        -15    1    1    2    0    0 -0.12932445595E+01 -0.14866114276E+01  0.54341149532E+01  0.60472993437E+01  0.17770000000E+01 0. -1.
         15    1    1    2    0    0 -0.28227597371E+01  0.14642168956E+02  0.79388703162E+02  0.80796565540E+02  0.17770000000E+01 0.  1.
</event>
<event>
 6    1  0.1823098E-004  0.5002331E+03  0.7546771E-02  0.9399288E-01
        -11   -1    0    0    0    0  0.00000000000E+00  0.00000000000E+00  0.50000000000E+03  0.50000000000E+03  0.00000000000E+00 0. -1.
         11   -1    0    0    0    0 -0.00000000000E+00 -0.00000000000E+00 -0.50000000000E+03  0.50000000000E+03  0.00000000000E+00 0. -1.
        -11    1    1    2    0    0  0.15875451273E+01 -0.90005956539E+01  0.49968330048E+03  0.49976687746E+03  0.00000000000E+00 0. -1.
         11    1    1    2    0    0  0.39740216892E+01 -0.14108747976E+00 -0.24759312584E+02  0.25076608895E+02  0.00000000000E+00 0. -1.
        -15    1    1    2    0    0 -0.60717659240E+01  0.10042814685E+01 -0.17774470367E+03  0.17786009202E+03  0.17770000000E+01 0.  1.
         15    1    1    2    0    0  0.51019910748E+00  0.81374016651E+01 -0.29717928423E+03  0.29729642163E+03  0.17770000000E+01 0. -1.
</event>
<event>
 6    1  0.1823098E-004  0.5060096E+03  0.7546771E-02  0.9386462E-01
        -11   -1    0    0    0    0  0.00000000000E+00  0.00000000000E+00  0.50000000000E+03  0.50000000000E+03  0.00000000000E+00 0.  1.
         11   -1    0    0    0    0 -0.00000000000E+00 -0.00000000000E+00 -0.50000000000E+03  0.50000000000E+03  0.00000000000E+00 0.  1.
        -11    1    1    2    0    0  0.69490403284E+01 -0.87676990952E+00  0.48109905016E+03  0.48115003269E+03  0.00000000000E+00 0.  1.
         11    1    1    2    0    0 -0.10148109420E+02  0.11440615599E+02 -0.49375366670E+03  0.49399044039E+03  0.00000000000E+00 0.  1.
        -15    1    1    2    0    0 -0.54423176371E+01 -0.61005628138E+00  0.96289952329E+01  0.11219013688E+02  0.17770000000E+01 0. -1.
         15    1    1    2    0    0  0.86413867288E+01 -0.99537894081E+01  0.30256213077E+01  0.13640513241E+02  0.17770000000E+01 0.  1.
</event>
<event>
 6    1  0.1823098E-004  0.4910748E+03  0.7546771E-02  0.9420005E-01
        -11   -1    0    0    0    0  0.00000000000E+00  0.00000000000E+00  0.50000000000E+03  0.50000000000E+03  0.00000000000E+00 0.  1.
         11   -1    0    0    0    0 -0.00000000000E+00 -0.00000000000E+00 -0.50000000000E+03  0.50000000000E+03  0.00000000000E+00 0. -1.
        -11    1    1    2    0    0  0.11272545189E+02 -0.10879699641E+02  0.49172535524E+03  0.49197486025E+03  0.00000000000E+00 0.  1.
         11    1    1    2    0    0 -0.17917849541E+02  0.82630475154E-01 -0.48993065318E+03  0.49025819839E+03  0.00000000000E+00 0. -1.
        -15    1    1    2    0    0  0.20000981502E+01  0.12050674960E+02 -0.24846843400E+01  0.12591685546E+02  0.17770000000E+01 0.  1.
         15    1    1    2    0    0  0.46452062012E+01 -0.12536057948E+01  0.68998228944E+00  0.51752558102E+01  0.17770000000E+01 0. -1.
</event>
<event>
 6    1  0.2562088E-004  0.5001144E+03  0.7546771E-02  0.9399554E-01
        -11   -1    0    0    0    0  0.00000000000E+00  0.00000000000E+00  0.50000000000E+03  0.50000000000E+03  0.00000000000E+00 0.  1.
         11   -1    0    0    0    0 -0.00000000000E+00 -0.00000000000E+00 -0.50000000000E+03  0.50000000000E+03  0.00000000000E+00 0.  1.
        -11    1    1    2    0    0  0.16183794727E+01 -0.79238468460E+00  0.11932537814E+03  0.11933898313E+03  0.00000000000E+00 0.  1.
         11    1    1    2    0    0 -0.10866072502E+02 -0.58536686299E+01 -0.49973319528E+03  0.49988559034E+03  0.00000000000E+00 0.  1.
        -15    1    1    2    0    0  0.29712337813E+01  0.68184949785E+01  0.10010272487E+03  0.10039438909E+03  0.17770000000E+01 0. -1.
         15    1    1    2    0    0  0.62764592482E+01 -0.17244166401E+00  0.28030509227E+03  0.28038103744E+03  0.17770000000E+01 0.  1.
</event>
<event>
 6    1  0.1823098E-004  0.5006351E+03  0.7546771E-02  0.9398390E-01
        -11   -1    0    0    0    0  0.00000000000E+00  0.00000000000E+00  0.50000000000E+03  0.50000000000E+03  0.00000000000E+00 0.  1.
         11   -1    0    0    0    0 -0.00000000000E+00 -0.00000000000E+00 -0.50000000000E+03  0.50000000000E+03  0.00000000000E+00 0.  1.
        -11    1    1    2    0    0 -0.77956298381E+01 -0.69640034781E+01  0.25498080538E+03  0.25519498487E+03  0.00000000000E+00 0.  1.
         11    1    1    2    0    0 -0.10399438527E+02 -0.51013836389E+00 -0.49925635491E+03  0.49936491314E+03  0.00000000000E+00 0.  1.
        -15    1    1    2    0    0  0.13717365622E+00 -0.22118256113E+01  0.49525866523E+02  0.49607259277E+02  0.17770000000E+01 0. -1.
         15    1    1    2    0    0  0.18057894709E+02  0.96859674533E+01  0.19474968300E+03  0.19583284271E+03  0.17770000000E+01 0.  1.
</event>
<event>
 6    1  0.1823098E-004  0.5063587E+03  0.7546771E-02  0.9385693E-01
        -11   -1    0    0    0    0  0.00000000000E+00  0.00000000000E+00  0.50000000000E+03  0.50000000000E+03  0.00000000000E+00 0.  1.
         11   -1    0    0    0    0 -0.00000000000E+00 -0.00000000000E+00 -0.50000000000E+03  0.50000000000E+03  0.00000000000E+00 0.  1.
        -11    1    1    2    0    0 -0.11532288553E+02  0.71828779047E+00  0.49350601659E+03  0.49364126451E+03  0.00000000000E+00 0.  1.
         11    1    1    2    0    0 -0.71170250791E+01 -0.90046025215E+01 -0.47137746148E+03  0.47151717477E+03  0.00000000000E+00 0.  1.
        -15    1    1    2    0    0  0.11743000735E+02 -0.34092547833E+01 -0.61729197530E+01  0.13812449157E+02  0.17770000000E+01 0. -1.
         15    1    1    2    0    0  0.69063128973E+01  0.11695569514E+02 -0.15955635361E+02  0.21029111557E+02  0.17770000000E+01 0.  1.
</event>
<event>
 6    1  0.1823098E-004  0.5009384E+03  0.7546771E-02  0.9397712E-01
        -11   -1    0    0    0    0  0.00000000000E+00  0.00000000000E+00  0.50000000000E+03  0.50000000000E+03  0.00000000000E+00 0.  1.
         11   -1    0    0    0    0 -0.00000000000E+00 -0.00000000000E+00 -0.50000000000E+03  0.50000000000E+03  0.00000000000E+00 0. -1.
        -11    1    1    2    0    0 -0.82347593649E+01  0.25583326207E+01  0.34974142135E+03  0.34984770706E+03  0.00000000000E+00 0.  1.
         11    1    1    2    0    0  0.13325246867E+02  0.11283242739E+02 -0.49875603807E+03  0.49906157864E+03  0.00000000000E+00 0. -1.
        -15    1    1    2    0    0 -0.83538300437E+01 -0.34582896208E+01  0.26032438437E+02  0.27615065154E+02  0.17770000000E+01 0. -1.
         15    1    1    2    0    0  0.32633425414E+01 -0.10383285739E+02  0.12298217828E+03  0.12347564914E+03  0.17770000000E+01 0.  1.
</event>
<event>
 6    1  0.1823098E-004  0.5089125E+03  0.7546771E-02  0.9380085E-01
        -11   -1    0    0    0    0  0.00000000000E+00  0.00000000000E+00  0.50000000000E+03  0.50000000000E+03  0.00000000000E+00 0.  1.
         11   -1    0    0    0    0 -0.00000000000E+00 -0.00000000000E+00 -0.50000000000E+03  0.50000000000E+03  0.00000000000E+00 0.  1.
        -11    1    1    2    0    0  0.24843769015E+02 -0.16459766491E+01  0.49045596416E+03  0.49108754299E+03  0.00000000000E+00 0.  1.
         11    1    1    2    0    0  0.34691273845E+02 -0.44064428864E+02 -0.18331985228E+03  0.19170635517E+03  0.00000000000E+00 0.  1.
        -15    1    1    2    0    0 -0.19926300013E+02  0.39619938291E+01 -0.57284235985E+02  0.60806218833E+02  0.17770000000E+01 0. -1.
         15    1    1    2    0    0 -0.39608742846E+02  0.41748411684E+02 -0.24985187589E+03  0.25639988301E+03  0.17770000000E+01 0.  1.
</event>
<event>
 6    1  0.1823098E-004  0.5226115E+03  0.7546771E-02  0.9350589E-01
        -11   -1    0    0    0    0  0.00000000000E+00  0.00000000000E+00  0.50000000000E+03  0.50000000000E+03  0.00000000000E+00 0. -1.
         11   -1    0    0    0    0 -0.00000000000E+00 -0.00000000000E+00 -0.50000000000E+03  0.50000000000E+03  0.00000000000E+00 0. -1.
        -11    1    1    2    0    0 -0.26369269275E+02  0.21312131099E+02  0.35993357917E+03  0.36152693774E+03  0.00000000000E+00 0. -1.
         11    1    1    2    0    0 -0.80181308673E+02 -0.40123323142E+01 -0.47058965987E+03  0.47738848860E+03  0.00000000000E+00 0. -1.
        -15    1    1    2    0    0  0.11014345206E+03 -0.15959581723E+02  0.11051846265E+03  0.15685591030E+03  0.17770000000E+01 0.  1.
         15    1    1    2    0    0 -0.35928741094E+01 -0.13402170619E+01  0.13761804093E+00  0.42286633661E+01  0.17770000000E+01 0. -1.
</event>
<event>
 6    1  0.1823098E-004  0.5004385E+03  0.7546771E-02  0.9398829E-01
        -11   -1    0    0    0    0  0.00000000000E+00  0.00000000000E+00  0.50000000000E+03  0.50000000000E+03  0.00000000000E+00 0.  1.
         11   -1    0    0    0    0 -0.00000000000E+00 -0.00000000000E+00 -0.50000000000E+03  0.50000000000E+03  0.00000000000E+00 0.  1.
        -11    1    1    2    0    0 -0.19545466958E+00  0.55145785823E+01  0.22776119252E+03  0.22782802637E+03  0.00000000000E+00 0.  1.
         11    1    1    2    0    0 -0.56162831560E+01 -0.45590022989E+01 -0.49950908243E+03  0.49956145825E+03  0.00000000000E+00 0.  1.
        -15    1    1    2    0    0  0.11797837863E+02  0.45755997008E+01  0.19284749181E+03  0.19327037517E+03  0.17770000000E+01 0.  1.
         15    1    1    2    0    0 -0.59861000374E+01 -0.55311759843E+01  0.78900398094E+02  0.79340140218E+02  0.17770000000E+01 0. -1.
</event>
<event>
 6    1  0.1823098E-004  0.5007538E+03  0.7546771E-02  0.9398125E-01
        -11   -1    0    0    0    0  0.00000000000E+00  0.00000000000E+00  0.50000000000E+03  0.50000000000E+03  0.00000000000E+00 0. -1.
         11   -1    0    0    0    0 -0.00000000000E+00 -0.00000000000E+00 -0.50000000000E+03  0.50000000000E+03  0.00000000000E+00 0.  1.
        -11    1    1    2    0    0 -0.36247793723E+00  0.87116695275E+01  0.49917007555E+03  0.49924622072E+03  0.00000000000E+00 0. -1.
         11    1    1    2    0    0 -0.62647902802E+01  0.21776966268E+01 -0.19396316759E+03  0.19407653217E+03  0.00000000000E+00 0.  1.
        -15    1    1    2    0    0  0.13312092975E+02 -0.38023671728E+01 -0.26107599150E+03  0.26144884946E+03  0.17770000000E+01 0.  1.
         15    1    1    2    0    0 -0.66848247575E+01 -0.70869989815E+01 -0.44130916468E+02  0.45228397649E+02  0.17770000000E+01 0. -1.
</event>
<event>
 6    1  0.1823098E-004  0.4789203E+03  0.7546771E-02  0.9448253E-01
        -11   -1    0    0    0    0  0.00000000000E+00  0.00000000000E+00  0.50000000000E+03  0.50000000000E+03  0.00000000000E+00 0.  1.
         11   -1    0    0    0    0 -0.00000000000E+00 -0.00000000000E+00 -0.50000000000E+03  0.50000000000E+03  0.00000000000E+00 0.  1.
        -11    1    1    2    0    0 -0.27576325105E+02 -0.41219771043E+01  0.47674703256E+03  0.47756170016E+03  0.00000000000E+00 0.  1.
         11    1    1    2    0    0  0.17938580437E+02 -0.28214255460E+02 -0.47971385863E+03  0.48087755515E+03  0.00000000000E+00 0.  1.
        -15    1    1    2    0    0  0.39372745844E+01  0.63240087874E+01  0.11256028439E+02  0.13614371947E+02  0.17770000000E+01 0. -1.
         15    1    1    2    0    0  0.57004700839E+01  0.26012223777E+02 -0.82892023656E+01  0.27946372749E+02  0.17770000000E+01 0.  1.
</event>
<event>
 6    1  0.1823098E-004  0.4898058E+03  0.7546771E-02  0.9422913E-01
        -11   -1    0    0    0    0  0.00000000000E+00  0.00000000000E+00  0.50000000000E+03  0.50000000000E+03  0.00000000000E+00 0. -1.
         11   -1    0    0    0    0 -0.00000000000E+00 -0.00000000000E+00 -0.50000000000E+03  0.50000000000E+03  0.00000000000E+00 0.  1.
        -11    1    1    2    0    0 -0.27271664093E+01 -0.70007954455E+01  0.49036148968E+03  0.49041904442E+03  0.00000000000E+00 0. -1.
         11    1    1    2    0    0 -0.79300395269E+01 -0.73147037451E+01 -0.48923684078E+03  0.48935577732E+03  0.00000000000E+00 0.  1.
        -15    1    1    2    0    0  0.16851187268E+01 -0.66204837870E+00 -0.84371835146E+00  0.26734851479E+01  0.17770000000E+01 0. -1.
         15    1    1    2    0    0  0.89720872094E+01  0.14977547569E+02 -0.28093054671E+00  0.17551693111E+02  0.17770000000E+01 0.  1.
</event>
<event>
 6    1  0.1823098E-004  0.5004347E+03  0.7546771E-02  0.9398838E-01
        -11   -1    0    0    0    0  0.00000000000E+00  0.00000000000E+00  0.50000000000E+03  0.50000000000E+03  0.00000000000E+00 0. -1.
         11   -1    0    0    0    0 -0.00000000000E+00 -0.00000000000E+00 -0.50000000000E+03  0.50000000000E+03  0.00000000000E+00 0. -1.
        -11    1    1    2    0    0  0.26069793618E+01  0.48604437885E+01  0.36248682049E+03  0.36252877856E+03  0.00000000000E+00 0. -1.
         11    1    1    2    0    0 -0.14995547367E+01  0.91560961090E+01 -0.49947917800E+03  0.49956534309E+03  0.00000000000E+00 0. -1.
        -15    1    1    2    0    0  0.48313183215E+00 -0.43497587661E+01  0.72054057947E+02  0.72208717017E+02  0.17770000000E+01 0.  1.
         15    1    1    2    0    0 -0.15905564572E+01 -0.96667811314E+01  0.64938299567E+02  0.65697161331E+02  0.17770000000E+01 0. -1.
</event>
<event>
 6    1  0.1823098E-004  0.5081464E+03  0.7546771E-02  0.9381764E-01
        -11   -1    0    0    0    0  0.00000000000E+00  0.00000000000E+00  0.50000000000E+03  0.50000000000E+03  0.00000000000E+00 0. -1.
         11   -1    0    0    0    0 -0.00000000000E+00 -0.00000000000E+00 -0.50000000000E+03  0.50000000000E+03  0.00000000000E+00 0.  1.
        -11    1    1    2    0    0 -0.18580742417E+02  0.49086255333E+01  0.49147803270E+03  0.49185363191E+03  0.00000000000E+00 0. -1.
         11    1    1    2    0    0 -0.80953208107E+01  0.16389749552E+02 -0.43709750208E+03  0.43747958174E+03  0.00000000000E+00 0.  1.
        -15    1    1    2    0    0  0.28082705704E+02 -0.16708667491E+02 -0.56365168240E+02  0.65176743158E+02  0.17770000000E+01 0.  1.
         15    1    1    2    0    0 -0.14066424763E+01 -0.45897075944E+01  0.19846376227E+01  0.54900432012E+01  0.17770000000E+01 0. -1.
</event>
<event>
 6    1  0.1823098E-004  0.5026861E+03  0.7546771E-02  0.9393819E-01
        -11   -1    0    0    0    0  0.00000000000E+00  0.00000000000E+00  0.50000000000E+03  0.50000000000E+03  0.00000000000E+00 0. -1.
         11   -1    0    0    0    0 -0.00000000000E+00 -0.00000000000E+00 -0.50000000000E+03  0.50000000000E+03  0.00000000000E+00 0. -1.
        -11    1    1    2    0    0  0.86262420812E+00 -0.71891402180E+01  0.49726117109E+03  0.49731388492E+03  0.00000000000E+00 0. -1.
         11    1    1    2    0    0 -0.66846192295E+01  0.35571543780E+01 -0.49105429015E+03  0.49111266870E+03  0.00000000000E+00 0. -1.
        -15    1    1    2    0    0  0.54178358155E+01  0.10484011921E+00 -0.44424592489E+01  0.72289079087E+01  0.17770000000E+01 0.  1.
         15    1    1    2    0    0  0.40415920593E+00  0.35271457208E+01 -0.17644216919E+01  0.43445384687E+01  0.17770000000E+01 0. -1.
</event>
<event>
 6    1  0.1823098E-004  0.5083471E+03  0.7546771E-02  0.9381324E-01
        -11   -1    0    0    0    0  0.00000000000E+00  0.00000000000E+00  0.50000000000E+03  0.50000000000E+03  0.00000000000E+00 0. -1.
         11   -1    0    0    0    0 -0.00000000000E+00 -0.00000000000E+00 -0.50000000000E+03  0.50000000000E+03  0.00000000000E+00 0.  1.
        -11    1    1    2    0    0 -0.53244220654E+00 -0.10899775409E+02  0.42115792133E+03  0.42129927997E+03  0.00000000000E+00 0. -1.
         11    1    1    2    0    0 -0.45871912361E+02  0.35441786333E+01 -0.48949541069E+03  0.49165287615E+03  0.00000000000E+00 0.  1.
        -15    1    1    2    0    0  0.13862962874E+02  0.13371219402E+02  0.16010069893E+02  0.25108789594E+02  0.17770000000E+01 0. -1.
         15    1    1    2    0    0  0.32541391694E+02 -0.60156226264E+01  0.52327419461E+02  0.61939054283E+02  0.17770000000E+01 0.  1.
</event>
<event>
 6    1  0.1823098E-004  0.4860772E+03  0.7546771E-02  0.9431514E-01
        -11   -1    0    0    0    0  0.00000000000E+00  0.00000000000E+00  0.50000000000E+03  0.50000000000E+03  0.00000000000E+00 0. -1.
         11   -1    0    0    0    0 -0.00000000000E+00 -0.00000000000E+00 -0.50000000000E+03  0.50000000000E+03  0.00000000000E+00 0. -1.
        -11    1    1    2    0    0 -0.10222540740E+02 -0.80354713539E+01  0.48923675319E+03  0.48940951136E+03  0.00000000000E+00 0. -1.
         11    1    1    2    0    0  0.13902653315E+02 -0.13034258099E+02 -0.48262649124E+03  0.48300259388E+03  0.00000000000E+00 0. -1.
        -15    1    1    2    0    0 -0.33529383624E+01  0.12841626960E+02  0.40604446927E+01  0.13992659460E+02  0.17770000000E+01 0.  1.
         15    1    1    2    0    0 -0.32717421316E+00  0.82281024923E+01 -0.10670706644E+02  0.13595235300E+02  0.17770000000E+01 0. -1.
</event>
<event>
 6    1  0.1823098E-004  0.5025149E+03  0.7546771E-02  0.9394200E-01
        -11   -1    0    0    0    0  0.00000000000E+00  0.00000000000E+00  0.50000000000E+03  0.50000000000E+03  0.00000000000E+00 0. -1.
         11   -1    0    0    0    0 -0.00000000000E+00 -0.00000000000E+00 -0.50000000000E+03  0.50000000000E+03  0.00000000000E+00 0. -1.
        -11    1    1    2    0    0 -0.95602890308E+01  0.17800550623E+01  0.49739007520E+03  0.49748513005E+03  0.00000000000E+00 0. -1.
         11    1    1    2    0    0  0.35985388953E+01 -0.24097381893E+02 -0.35232920913E+03  0.35317064558E+03  0.00000000000E+00 0. -1.
        -15    1    1    2    0    0  0.56499113690E+01 -0.15112906933E+00 -0.58706173802E+01  0.83406364204E+01  0.17770000000E+01 0.  1.
         15    1    1    2    0    0  0.31183876654E+00  0.22468455900E+02 -0.13919024869E+03  0.14100358794E+03  0.17770000000E+01 0. -1.
</event>
<event>
 6    1  0.1823098E-004  0.5046597E+03  0.7546771E-02  0.9389443E-01
        -11   -1    0    0    0    0  0.00000000000E+00  0.00000000000E+00  0.50000000000E+03  0.50000000000E+03  0.00000000000E+00 0.  1.
         11   -1    0    0    0    0 -0.00000000000E+00 -0.00000000000E+00 -0.50000000000E+03  0.50000000000E+03  0.00000000000E+00 0.  1.
        -11    1    1    2    0    0 -0.55493958933E+02  0.18891655082E+02  0.49185924458E+03  0.49534027758E+03  0.00000000000E+00 0.  1.
         11    1    1    2    0    0  0.75141871505E+02 -0.35056130673E+02 -0.31654158177E+03  0.32722134121E+03  0.00000000000E+00 0.  1.
        -15    1    1    2    0    0 -0.95119497437E+01  0.24503044764E+01 -0.75817015786E+02  0.76471293906E+02  0.17770000000E+01 0. -1.
         15    1    1    2    0    0 -0.10135962828E+02  0.13714171114E+02 -0.99500647025E+02  0.10096708731E+03  0.17770000000E+01 0.  1.
</event>
<event>
 6    1  0.1823098E-004  0.5016082E+03  0.7546771E-02  0.9396219E-01
        -11   -1    0    0    0    0  0.00000000000E+00  0.00000000000E+00  0.50000000000E+03  0.50000000000E+03  0.00000000000E+00 0.  1.
         11   -1    0    0    0    0 -0.00000000000E+00 -0.00000000000E+00 -0.50000000000E+03  0.50000000000E+03  0.00000000000E+00 0.  1.
        -11    1    1    2    0    0 -0.63072302141E+01 -0.60412904947E+01  0.49831531018E+03  0.49839184053E+03  0.00000000000E+00 0.  1.
         11    1    1    2    0    0  0.10331659029E+02 -0.17576708748E+00 -0.18166878186E+02  0.20899988885E+02  0.00000000000E+00 0.  1.
        -15    1    1    2    0    0  0.13332083298E+01 -0.56944531041E+01 -0.52178938719E+02  0.52535736555E+02  0.17770000000E+01 0. -1.
         15    1    1    2    0    0 -0.53576371447E+01  0.11911510686E+02 -0.42796949328E+03  0.42817243403E+03  0.17770000000E+01 0.  1.
</event>
<event>
 6    1  0.1823098E-004  0.4795949E+03  0.7546771E-02  0.9446662E-01
        -11   -1    0    0    0    0  0.00000000000E+00  0.00000000000E+00  0.50000000000E+03  0.50000000000E+03  0.00000000000E+00 0. -1.
         11   -1    0    0    0    0 -0.00000000000E+00 -0.00000000000E+00 -0.50000000000E+03  0.50000000000E+03  0.00000000000E+00 0.  1.
        -11    1    1    2    0    0  0.35059107048E+01 -0.13026814692E+02  0.48239756000E+03  0.48258615314E+03  0.00000000000E+00 0. -1.
         11    1    1    2    0    0  0.32682776006E+02 -0.51539490289E+00 -0.47628073898E+03  0.47740105970E+03  0.00000000000E+00 0.  1.
        -15    1    1    2    0    0 -0.10725401866E+02  0.63933230931E+01 -0.47272222270E+01  0.13468971169E+02  0.17770000000E+01 0. -1.
         15    1    1    2    0    0 -0.25463284845E+02  0.71488865016E+01 -0.13895987895E+01  0.26543815986E+02  0.17770000000E+01 0.  1.
</event>
<event>
 6    1  0.1823098E-004  0.4902356E+03  0.7546771E-02  0.9421927E-01
        -11   -1    0    0    0    0  0.00000000000E+00  0.00000000000E+00  0.50000000000E+03  0.50000000000E+03  0.00000000000E+00 0.  1.
         11   -1    0    0    0    0 -0.00000000000E+00 -0.00000000000E+00 -0.50000000000E+03  0.50000000000E+03  0.00000000000E+00 0. -1.
        -11    1    1    2    0    0 -0.52392906192E+01  0.60888815729E+01  0.49420992327E+03  0.49427519956E+03  0.00000000000E+00 0.  1.
         11    1    1    2    0    0 -0.31075671438E+01  0.71000521815E+01 -0.48629036661E+03  0.48635212385E+03  0.00000000000E+00 0. -1.
        -15    1    1    2    0    0  0.55442443022E+00 -0.74038992386E+01 -0.48296152081E+01  0.90337158713E+01  0.17770000000E+01 0.  1.
         15    1    1    2    0    0  0.77924333327E+01 -0.57850345158E+01 -0.30899414526E+01  0.10338960720E+02  0.17770000000E+01 0. -1.
</event>
<event>
 6    1  0.1823098E-004  0.5005287E+03  0.7546771E-02  0.9398628E-01
        -11   -1    0    0    0    0  0.00000000000E+00  0.00000000000E+00  0.50000000000E+03  0.50000000000E+03  0.00000000000E+00 0.  1.
         11   -1    0    0    0    0 -0.00000000000E+00 -0.00000000000E+00 -0.50000000000E+03  0.50000000000E+03  0.00000000000E+00 0.  1.
        -11    1    1    2    0    0 -0.35465916491E+01 -0.70509186968E+01  0.49940895233E+03  0.49947131593E+03  0.00000000000E+00 0.  1.
         11    1    1    2    0    0 -0.42664649251E+01  0.11402550465E+02 -0.32480475151E+03  0.32503284063E+03  0.00000000000E+00 0.  1.
        -15    1    1    2    0    0  0.11470040954E+01 -0.50411024321E+01 -0.19925598872E+02  0.20661934845E+02  0.17770000000E+01 0.  1.
         15    1    1    2    0    0  0.66660524788E+01  0.68947066362E+00 -0.15467860194E+03  0.15483390860E+03  0.17770000000E+01 0. -1.
</event>
<event>
 6    1  0.1823098E-004  0.5031299E+03  0.7546771E-02  0.9392833E-01
        -11   -1    0    0    0    0  0.00000000000E+00  0.00000000000E+00  0.50000000000E+03  0.50000000000E+03  0.00000000000E+00 0. -1.
         11   -1    0    0    0    0 -0.00000000000E+00 -0.00000000000E+00 -0.50000000000E+03  0.50000000000E+03  0.00000000000E+00 0.  1.
        -11    1    1    2    0    0  0.71381668120E+01  0.13847086968E+02  0.42431771301E+03  0.42460359962E+03  0.00000000000E+00 0. -1.
         11    1    1    2    0    0 -0.17113859206E+02 -0.28609617250E+02 -0.49575039582E+03  0.49687005276E+03  0.00000000000E+00 0.  1.
        -15    1    1    2    0    0 -0.29632390720E+01 -0.43829115037E+01  0.31300410626E+01  0.63988737369E+01  0.17770000000E+01 0. -1.
         15    1    1    2    0    0  0.12938931466E+02  0.19145441786E+02  0.68302641752E+02  0.72127473878E+02  0.17770000000E+01 0.  1.
</event>
<event>
 6    1  0.1823098E-004  0.5090357E+03  0.7546771E-02  0.9379816E-01
        -11   -1    0    0    0    0  0.00000000000E+00  0.00000000000E+00  0.50000000000E+03  0.50000000000E+03  0.00000000000E+00 0.  1.
         11   -1    0    0    0    0 -0.00000000000E+00 -0.00000000000E+00 -0.50000000000E+03  0.50000000000E+03  0.00000000000E+00 0.  1.
        -11    1    1    2    0    0 -0.11515215564E+02 -0.16547279642E+02  0.49055022705E+03  0.49096429393E+03  0.00000000000E+00 0.  1.
         11    1    1    2    0    0 -0.26933057112E+02 -0.37517020230E+02 -0.22176075442E+03  0.22651875987E+03  0.00000000000E+00 0.  1.
        -15    1    1    2    0    0 -0.69417647086E+01  0.78857954034E+01 -0.68035443433E+01  0.12641986040E+02  0.17770000000E+01 0. -1.
         15    1    1    2    0    0  0.45390037385E+02  0.46178504469E+02 -0.26198592829E+03  0.26987496016E+03  0.17770000000E+01 0.  1.
</event>
<event>
 6    1  0.1823098E-004  0.5033577E+03  0.7546771E-02  0.9392328E-01
        -11   -1    0    0    0    0  0.00000000000E+00  0.00000000000E+00  0.50000000000E+03  0.50000000000E+03  0.00000000000E+00 0.  1.
         11   -1    0    0    0    0 -0.00000000000E+00 -0.00000000000E+00 -0.50000000000E+03  0.50000000000E+03  0.00000000000E+00 0.  1.
        -11    1    1    2    0    0  0.16117836130E+01 -0.12085951216E+02  0.49649260668E+03  0.49664230242E+03  0.00000000000E+00 0.  1.
         11    1    1    2    0    0 -0.32583821642E+02 -0.67653195437E+01 -0.27704332588E+03  0.27903490712E+03  0.00000000000E+00 0.  1.
        -15    1    1    2    0    0  0.19069566892E+02  0.12916678777E+02 -0.59740621328E+02  0.64051452269E+02  0.17770000000E+01 0.  1.
         15    1    1    2    0    0  0.11902471137E+02  0.59345919824E+01 -0.15970865948E+03  0.16027133818E+03  0.17770000000E+01 0. -1.
</event>
<event>
 6    1  0.1823098E-004  0.4852968E+03  0.7546771E-02  0.9433324E-01
        -11   -1    0    0    0    0  0.00000000000E+00  0.00000000000E+00  0.50000000000E+03  0.50000000000E+03  0.00000000000E+00 0.  1.
         11   -1    0    0    0    0 -0.00000000000E+00 -0.00000000000E+00 -0.50000000000E+03  0.50000000000E+03  0.00000000000E+00 0.  1.
        -11    1    1    2    0    0 -0.12691514838E+02  0.59872568971E+01  0.48891210728E+03  0.48911345354E+03  0.00000000000E+00 0.  1.
         11    1    1    2    0    0  0.35211474872E+01  0.17628853790E+02 -0.48150345373E+03  0.48183892632E+03  0.00000000000E+00 0.  1.
        -15    1    1    2    0    0  0.13657361226E+01  0.45002758833E+00  0.74916965648E+00  0.24055652477E+01  0.17770000000E+01 0.  1.
         15    1    1    2    0    0  0.78046312281E+01 -0.24066138276E+02 -0.81578232025E+01  0.26642054885E+02  0.17770000000E+01 0. -1.
</event>
<event>
 6    1  0.1823098E-004  0.5035829E+03  0.7546771E-02  0.9391828E-01
        -11   -1    0    0    0    0  0.00000000000E+00  0.00000000000E+00  0.50000000000E+03  0.50000000000E+03  0.00000000000E+00 0. -1.
         11   -1    0    0    0    0 -0.00000000000E+00 -0.00000000000E+00 -0.50000000000E+03  0.50000000000E+03  0.00000000000E+00 0.  1.
        -11    1    1    2    0    0  0.89877545411E+01 -0.61256393020E+01  0.49629788197E+03  0.49641705333E+03  0.00000000000E+00 0. -1.
         11    1    1    2    0    0  0.86184521541E+01  0.11429611118E+00 -0.47060889735E+03  0.47068782122E+03  0.00000000000E+00 0.  1.
        -15    1    1    2    0    0 -0.62475250884E+01  0.53155546950E+00 -0.37271118562E+01  0.75075437218E+01  0.17770000000E+01 0.  1.
         15    1    1    2    0    0 -0.11358681607E+02  0.54797877213E+01 -0.21961872770E+02  0.25387581725E+02  0.17770000000E+01 0. -1.
</event>
<event>
 6    1  0.1823098E-004  0.5022709E+03  0.7546771E-02  0.9394743E-01
        -11   -1    0    0    0    0  0.00000000000E+00  0.00000000000E+00  0.50000000000E+03  0.50000000000E+03  0.00000000000E+00 0. -1.
         11   -1    0    0    0    0 -0.00000000000E+00 -0.00000000000E+00 -0.50000000000E+03  0.50000000000E+03  0.00000000000E+00 0. -1.
        -11    1    1    2    0    0  0.45006080245E+01  0.88610864525E+01  0.49762987190E+03  0.49772910678E+03  0.00000000000E+00 0. -1.
         11    1    1    2    0    0  0.18074433250E+02  0.21999245726E+01 -0.41990756988E+03  0.42030214376E+03  0.00000000000E+00 0. -1.
        -15    1    1    2    0    0 -0.19045837189E+02 -0.93735153154E+01 -0.69504263512E+02  0.72695303005E+02  0.17770000000E+01 0. -1.
         15    1    1    2    0    0 -0.35292040864E+01 -0.16874957097E+01 -0.82180385069E+01  0.92734464551E+01  0.17770000000E+01 0.  1.
</event>
<event>
 6    1  0.1823098E-004  0.5002046E+03  0.7546771E-02  0.9399352E-01
        -11   -1    0    0    0    0  0.00000000000E+00  0.00000000000E+00  0.50000000000E+03  0.50000000000E+03  0.00000000000E+00 0.  1.
         11   -1    0    0    0    0 -0.00000000000E+00 -0.00000000000E+00 -0.50000000000E+03  0.50000000000E+03  0.00000000000E+00 0. -1.
        -11    1    1    2    0    0 -0.49842369431E+02  0.78726381105E+01  0.49724159601E+03  0.49979540316E+03  0.00000000000E+00 0.  1.
         11    1    1    2    0    0  0.43166563629E+02 -0.76156061938E+01 -0.40584911041E+03  0.40820932142E+03  0.00000000000E+00 0. -1.
        -15    1    1    2    0    0  0.46365074384E+01 -0.24488951433E+01 -0.76549860060E+02  0.76749808422E+02  0.17770000000E+01 0. -1.
         15    1    1    2    0    0  0.20392983631E+01  0.21918632266E+01 -0.14842625540E+02  0.15245467003E+02  0.17770000000E+01 0.  1.
</event>
<event>
 6    1  0.1823098E-004  0.5014436E+03  0.7546771E-02  0.9396585E-01
        -11   -1    0    0    0    0  0.00000000000E+00  0.00000000000E+00  0.50000000000E+03  0.50000000000E+03  0.00000000000E+00 0.  1.
         11   -1    0    0    0    0 -0.00000000000E+00 -0.00000000000E+00 -0.50000000000E+03  0.50000000000E+03  0.00000000000E+00 0. -1.
        -11    1    1    2    0    0  0.67717438182E+01  0.17663977388E+01  0.41683240784E+03  0.41689115234E+03  0.00000000000E+00 0.  1.
         11    1    1    2    0    0 -0.23345096183E+01  0.19008691076E+02 -0.49818842916E+03  0.49855640726E+03  0.00000000000E+00 0. -1.
        -15    1    1    2    0    0  0.65161901101E+00 -0.13813967166E+02  0.43221465660E+02  0.45414789650E+02  0.17770000000E+01 0. -1.
         15    1    1    2    0    0 -0.50888532109E+01 -0.69611216491E+01  0.38134555659E+02  0.39137650746E+02  0.17770000000E+01 0.  1.
</event>
<event>
 6    1  0.1823098E-004  0.5030256E+03  0.7546771E-02  0.9393065E-01
        -11   -1    0    0    0    0  0.00000000000E+00  0.00000000000E+00  0.50000000000E+03  0.50000000000E+03  0.00000000000E+00 0.  1.
         11   -1    0    0    0    0 -0.00000000000E+00 -0.00000000000E+00 -0.50000000000E+03  0.50000000000E+03  0.00000000000E+00 0.  1.
        -11    1    1    2    0    0 -0.57381103462E+01  0.41566025483E+01  0.49692387788E+03  0.49697438934E+03  0.00000000000E+00 0.  1.
         11    1    1    2    0    0 -0.87545778740E+01 -0.59499282685E+01 -0.47390168087E+03  0.47401988082E+03  0.00000000000E+00 0.  1.
        -15    1    1    2    0    0  0.77362046063E+01  0.30252303794E+00 -0.44453025636E+01  0.91026823399E+01  0.17770000000E+01 0.  1.
         15    1    1    2    0    0  0.67564836140E+01  0.14908026823E+01 -0.18576894446E+02  0.19903047499E+02  0.17770000000E+01 0. -1.
</event>
<event>
 6    1  0.1823098E-004  0.4904659E+03  0.7546771E-02  0.9421399E-01
        -11   -1    0    0    0    0  0.00000000000E+00  0.00000000000E+00  0.50000000000E+03  0.50000000000E+03  0.00000000000E+00 0. -1.
         11   -1    0    0    0    0 -0.00000000000E+00 -0.00000000000E+00 -0.50000000000E+03  0.50000000000E+03  0.00000000000E+00 0. -1.
        -11    1    1    2    0    0 -0.26043680246E+01 -0.93591505915E+01  0.49385661929E+03  0.49395216049E+03  0.00000000000E+00 0. -1.
         11    1    1    2    0    0 -0.12745691180E+02  0.87733646374E+01 -0.48687888837E+03  0.48712470324E+03  0.00000000000E+00 0. -1.
        -15    1    1    2    0    0  0.71606870813E+01 -0.35534913317E+01 -0.25199912422E+01  0.85680117286E+01  0.17770000000E+01 0. -1.
         15    1    1    2    0    0  0.81893721229E+01  0.41392772858E+01 -0.44577396789E+01  0.10355124541E+02  0.17770000000E+01 0.  1.
</event>
<event>
 6    1  0.1823098E-004  0.5001099E+03  0.7546771E-02  0.9399564E-01
        -11   -1    0    0    0    0  0.00000000000E+00  0.00000000000E+00  0.50000000000E+03  0.50000000000E+03  0.00000000000E+00 0.  1.
         11   -1    0    0    0    0 -0.00000000000E+00 -0.00000000000E+00 -0.50000000000E+03  0.50000000000E+03  0.00000000000E+00 0. -1.
        -11    1    1    2    0    0 -0.42433585515E+01  0.78960190382E+01  0.49980974181E+03  0.49989011914E+03  0.00000000000E+00 0.  1.
         11    1    1    2    0    0  0.29705452536E+01 -0.75321789419E+01 -0.14854814692E+03  0.14876864526E+03  0.00000000000E+00 0. -1.
        -15    1    1    2    0    0 -0.50595451185E+00  0.24719834409E+01 -0.91579709485E+02  0.91631695447E+02  0.17770000000E+01 0. -1.
         15    1    1    2    0    0  0.17787678098E+01 -0.28358235373E+01 -0.25968188540E+03  0.25970954015E+03  0.17770000000E+01 0. -1.
</event>
<event>
 6    1  0.1823098E-004  0.5073831E+03  0.7546771E-02  0.9383439E-01
        -11   -1    0    0    0    0  0.00000000000E+00  0.00000000000E+00  0.50000000000E+03  0.50000000000E+03  0.00000000000E+00 0. -1.
         11   -1    0    0    0    0 -0.00000000000E+00 -0.00000000000E+00 -0.50000000000E+03  0.50000000000E+03  0.00000000000E+00 0.  1.
        -11    1    1    2    0    0 -0.25664307793E+00  0.86926982931E+01  0.41793979807E+03  0.41803026646E+03  0.00000000000E+00 0. -1.
         11    1    1    2    0    0 -0.45648837680E+02 -0.50770978339E+01 -0.49047101279E+03  0.49261689749E+03  0.00000000000E+00 0.  1.
        -15    1    1    2    0    0  0.23567913343E+01 -0.49932197508E+00 -0.15300844907E+01  0.33619451776E+01  0.17770000000E+01 0. -1.
         15    1    1    2    0    0  0.43548689424E+02 -0.31162784841E+01  0.74061299212E+02  0.85990890867E+02  0.17770000000E+01 0.  1.
</event>
<event>
 6    1  0.1823098E-004  0.5059184E+03  0.7546771E-02  0.9386663E-01
        -11   -1    0    0    0    0  0.00000000000E+00  0.00000000000E+00  0.50000000000E+03  0.50000000000E+03  0.00000000000E+00 0. -1.
         11   -1    0    0    0    0 -0.00000000000E+00 -0.00000000000E+00 -0.50000000000E+03  0.50000000000E+03  0.00000000000E+00 0.  1.
        -11    1    1    2    0    0 -0.61341915901E+00 -0.85418713743E+01  0.48142986662E+03  0.48150602937E+03  0.00000000000E+00 0. -1.
         11    1    1    2    0    0 -0.37879865474E+00 -0.68396979242E+01 -0.49403406396E+03  0.49408155330E+03  0.00000000000E+00 0.  1.
        -15    1    1    2    0    0 -0.10909020001E+01  0.13470223024E+00 -0.21653235003E+01  0.30090807111E+01  0.17770000000E+01 0. -1.
         15    1    1    2    0    0  0.20831198138E+01  0.15246867068E+02  0.14769520840E+02  0.21403336619E+02  0.17770000000E+01 0.  1.
</event>
<event>
 6    1  0.1823098E-004  0.4887641E+03  0.7546771E-02  0.9425308E-01
        -11   -1    0    0    0    0  0.00000000000E+00  0.00000000000E+00  0.50000000000E+03  0.50000000000E+03  0.00000000000E+00 0. -1.
         11   -1    0    0    0    0 -0.00000000000E+00 -0.00000000000E+00 -0.50000000000E+03  0.50000000000E+03  0.00000000000E+00 0. -1.
        -11    1    1    2    0    0  0.57465339916E+01  0.63197543714E+01  0.48851806365E+03  0.48859273476E+03  0.00000000000E+00 0. -1.
         11    1    1    2    0    0  0.11830665125E+02 -0.16596122003E+02 -0.48872268739E+03  0.48914748397E+03  0.00000000000E+00 0. -1.
        -15    1    1    2    0    0 -0.41963046046E+01 -0.98221067326E+00 -0.33960620611E+00  0.46740530075E+01  0.17770000000E+01 0.  1.
         15    1    1    2    0    0 -0.13380894512E+02  0.11258578305E+02  0.54422995358E+00  0.17585728266E+02  0.17770000000E+01 0. -1.
</event>
<event>
 6    1  0.1823098E-004  0.5039537E+03  0.7546771E-02  0.9391006E-01
        -11   -1    0    0    0    0  0.00000000000E+00  0.00000000000E+00  0.50000000000E+03  0.50000000000E+03  0.00000000000E+00 0.  1.
         11   -1    0    0    0    0 -0.00000000000E+00 -0.00000000000E+00 -0.50000000000E+03  0.50000000000E+03  0.00000000000E+00 0.  1.
        -11    1    1    2    0    0  0.64831039949E+01  0.14343650496E+02  0.49579648119E+03  0.49604628988E+03  0.00000000000E+00 0.  1.
         11    1    1    2    0    0  0.14853273413E+02  0.13653405606E+02 -0.40775898915E+03  0.40825779655E+03  0.00000000000E+00 0.  1.
        -15    1    1    2    0    0 -0.21402356300E+02 -0.22968713527E+02 -0.67302862599E+02  0.74286308962E+02  0.17770000000E+01 0. -1.
         15    1    1    2    0    0  0.65978892846E-01 -0.50283425750E+01 -0.20734629441E+02  0.21409604605E+02  0.17770000000E+01 0.  1.
</event>
<event>
 6    1  0.1823098E-004  0.4880327E+03  0.7546771E-02  0.9426993E-01
        -11   -1    0    0    0    0  0.00000000000E+00  0.00000000000E+00  0.50000000000E+03  0.50000000000E+03  0.00000000000E+00 0. -1.
         11   -1    0    0    0    0 -0.00000000000E+00 -0.00000000000E+00 -0.50000000000E+03  0.50000000000E+03  0.00000000000E+00 0. -1.
        -11    1    1    2    0    0  0.64320611333E+01  0.56287895012E+01  0.48359769678E+03  0.48367322337E+03  0.00000000000E+00 0. -1.
         11    1    1    2    0    0  0.13071377261E+02 -0.11583630494E+02 -0.49233453811E+03  0.49264423149E+03  0.00000000000E+00 0. -1.
        -15    1    1    2    0    0 -0.16522676508E+02  0.74661443888E+01  0.69777882750E+01  0.19508700860E+02  0.17770000000E+01 0. -1.
         15    1    1    2    0    0 -0.29807618859E+01 -0.15113033961E+01  0.17590530646E+01  0.41738442783E+01  0.17770000000E+01 0.  1.
</event>
<event>
 6    1  0.1823098E-004  0.5039266E+03  0.7546771E-02  0.9391066E-01
        -11   -1    0    0    0    0  0.00000000000E+00  0.00000000000E+00  0.50000000000E+03  0.50000000000E+03  0.00000000000E+00 0.  1.
         11   -1    0    0    0    0 -0.00000000000E+00 -0.00000000000E+00 -0.50000000000E+03  0.50000000000E+03  0.00000000000E+00 0. -1.
        -11    1    1    2    0    0  0.99707087499E+01  0.39600420979E+01  0.49595733377E+03  0.49607335535E+03  0.00000000000E+00 0.  1.
         11    1    1    2    0    0 -0.16331790023E+02  0.50959026507E+00 -0.13549576859E+02  0.21226824554E+02  0.00000000000E+00 0. -1.
        -15    1    1    2    0    0  0.35457800258E+01  0.30335959932E+01 -0.35122301366E+03  0.35125850639E+03  0.17770000000E+01 0. -1.
         15    1    1    2    0    0  0.28153012472E+01 -0.75032283562E+01 -0.13118474326E+03  0.13144131371E+03  0.17770000000E+01 0.  1.
</event>
<event>
 6    1  0.1823098E-004  0.5009171E+03  0.7546771E-02  0.9397760E-01
        -11   -1    0    0    0    0  0.00000000000E+00  0.00000000000E+00  0.50000000000E+03  0.50000000000E+03  0.00000000000E+00 0. -1.
         11   -1    0    0    0    0 -0.00000000000E+00 -0.00000000000E+00 -0.50000000000E+03  0.50000000000E+03  0.00000000000E+00 0. -1.
        -11    1    1    2    0    0  0.32642620330E+01 -0.94604505208E+01  0.34299438213E+03  0.34314035278E+03  0.00000000000E+00 0. -1.
         11    1    1    2    0    0  0.19538496028E+02  0.38908055977E+01 -0.49868511907E+03  0.49908289810E+03  0.00000000000E+00 0. -1.
        -15    1    1    2    0    0 -0.13581164716E+02  0.12988255815E+01  0.11405697743E+03  0.11488379700E+03  0.17770000000E+01 0. -1.
         15    1    1    2    0    0 -0.92215933457E+01  0.42708193417E+01  0.41633759509E+02  0.42892952119E+02  0.17770000000E+01 0.  1.
</event>
<event>
 6    1  0.1823098E-004  0.5025239E+03  0.7546771E-02  0.9394180E-01
        -11   -1    0    0    0    0  0.00000000000E+00  0.00000000000E+00  0.50000000000E+03  0.50000000000E+03  0.00000000000E+00 0.  1.
         11   -1    0    0    0    0 -0.00000000000E+00 -0.00000000000E+00 -0.50000000000E+03  0.50000000000E+03  0.00000000000E+00 0.  1.
        -11    1    1    2    0    0  0.49563396332E+01  0.81332369644E+01  0.49738487507E+03  0.49747605851E+03  0.00000000000E+00 0.  1.
         11    1    1    2    0    0  0.15387520520E+02  0.14755798922E+02 -0.37500439195E+03  0.37560990851E+03  0.00000000000E+00 0.  1.
        -15    1    1    2    0    0 -0.20337609549E+01 -0.19960090755E+01 -0.36336585820E+01  0.49478722237E+01  0.17770000000E+01 0.  1.
         15    1    1    2    0    0 -0.18310099198E+02 -0.20893026811E+02 -0.11874682454E+03  0.12196616075E+03  0.17770000000E+01 0. -1.
</event>
<event>
 6    1  0.1823098E-004  0.5029404E+03  0.7546771E-02  0.9393254E-01
        -11   -1    0    0    0    0  0.00000000000E+00  0.00000000000E+00  0.50000000000E+03  0.50000000000E+03  0.00000000000E+00 0.  1.
         11   -1    0    0    0    0 -0.00000000000E+00 -0.00000000000E+00 -0.50000000000E+03  0.50000000000E+03  0.00000000000E+00 0. -1.
        -11    1    1    2    0    0  0.13492578859E+02 -0.15066772789E+01  0.44297471861E+03  0.44318271749E+03  0.00000000000E+00 0.  1.
         11    1    1    2    0    0 -0.83829632232E+01  0.20176766541E+02 -0.49657913680E+03  0.49705956895E+03  0.00000000000E+00 0. -1.
        -15    1    1    2    0    0 -0.68352249794E+01 -0.13437827388E+02  0.17391499606E+02  0.23085005804E+02  0.17770000000E+01 0.  1.
         15    1    1    2    0    0  0.17256093434E+01 -0.52322618746E+01  0.36212918590E+02  0.36672707750E+02  0.17770000000E+01 0. -1.
</event>
<event>
 6    1  0.1823098E-004  0.5005561E+03  0.7546771E-02  0.9398566E-01
        -11   -1    0    0    0    0  0.00000000000E+00  0.00000000000E+00  0.50000000000E+03  0.50000000000E+03  0.00000000000E+00 0.  1.
         11   -1    0    0    0    0 -0.00000000000E+00 -0.00000000000E+00 -0.50000000000E+03  0.50000000000E+03  0.00000000000E+00 0. -1.
        -11    1    1    2    0    0 -0.63874834886E+01  0.46828845418E+01  0.49938108576E+03  0.49944388890E+03  0.00000000000E+00 0.  1.
         11    1    1    2    0    0 -0.10587056069E+02  0.52324645563E+01 -0.11531321208E+03  0.11591635485E+03  0.00000000000E+00 0. -1.
        -15    1    1    2    0    0  0.10996896330E+02 -0.27665914222E+01 -0.20738569961E+03  0.20770308589E+03  0.17770000000E+01 0. -1.
         15    1    1    2    0    0  0.59776432278E+01 -0.71487576758E+01 -0.17668217406E+03  0.17693667035E+03  0.17770000000E+01 0.  1.
</event>
<event>
 6    1  0.1823098E-004  0.5004838E+03  0.7546771E-02  0.9398728E-01
        -11   -1    0    0    0    0  0.00000000000E+00  0.00000000000E+00  0.50000000000E+03  0.50000000000E+03  0.00000000000E+00 0.  1.
         11   -1    0    0    0    0 -0.00000000000E+00 -0.00000000000E+00 -0.50000000000E+03  0.50000000000E+03  0.00000000000E+00 0. -1.
        -11    1    1    2    0    0  0.21084534152E+01  0.74680222808E+01  0.49945593582E+03  0.49951621471E+03  0.00000000000E+00 0.  1.
         11    1    1    2    0    0 -0.34230861704E+01 -0.13228360867E+02 -0.32188683774E+03  0.32217672691E+03  0.00000000000E+00 0. -1.
        -15    1    1    2    0    0 -0.32006814735E+01 -0.20323674097E+01 -0.18270360159E+02  0.18744030210E+02  0.17770000000E+01 0.  1.
         15    1    1    2    0    0  0.45153142288E+01  0.77927059956E+01 -0.15929873792E+03  0.15956302818E+03  0.17770000000E+01 0. -1.
</event>
<event>
 6    1  0.1823098E-004  0.5080148E+03  0.7546771E-02  0.9382052E-01
        -11   -1    0    0    0    0  0.00000000000E+00  0.00000000000E+00  0.50000000000E+03  0.50000000000E+03  0.00000000000E+00 0.  1.
         11   -1    0    0    0    0 -0.00000000000E+00 -0.00000000000E+00 -0.50000000000E+03  0.50000000000E+03  0.00000000000E+00 0.  1.
        -11    1    1    2    0    0  0.14443647027E+02  0.70530725779E+01  0.46958563310E+03  0.46986065124E+03  0.00000000000E+00 0.  1.
         11    1    1    2    0    0  0.12941473678E+02 -0.90298025183E+01 -0.49173202767E+03  0.49198516859E+03  0.00000000000E+00 0.  1.
        -15    1    1    2    0    0 -0.20024811209E+02  0.30039678809E+01  0.22727208347E+02  0.30490992362E+02  0.17770000000E+01 0.  1.
         15    1    1    2    0    0 -0.73603094961E+01 -0.10272379406E+01 -0.58081377166E+00  0.76631878029E+01  0.17770000000E+01 0. -1.
</event>
<event>
 6    1  0.1823098E-004  0.5055863E+03  0.7546771E-02  0.9387396E-01
        -11   -1    0    0    0    0  0.00000000000E+00  0.00000000000E+00  0.50000000000E+03  0.50000000000E+03  0.00000000000E+00 0.  1.
         11   -1    0    0    0    0 -0.00000000000E+00 -0.00000000000E+00 -0.50000000000E+03  0.50000000000E+03  0.00000000000E+00 0. -1.
        -11    1    1    2    0    0  0.53509193116E+01 -0.29922245913E+01  0.42579857424E+03  0.42584270755E+03  0.00000000000E+00 0.  1.
         11    1    1    2    0    0  0.24853281092E+02 -0.23057400902E+02 -0.49325003312E+03  0.49441371794E+03  0.00000000000E+00 0. -1.
        -15    1    1    2    0    0 -0.18321993443E+01  0.68709191389E+00  0.13136337323E+02  0.13399631972E+02  0.17770000000E+01 0.  1.
         15    1    1    2    0    0 -0.28372001060E+02  0.25362533579E+02  0.54315121554E+02  0.66343942542E+02  0.17770000000E+01 0. -1.
</event>
<event>
 6    1  0.1823098E-004  0.5052833E+03  0.7546771E-02  0.9388065E-01
        -11   -1    0    0    0    0  0.00000000000E+00  0.00000000000E+00  0.50000000000E+03  0.50000000000E+03  0.00000000000E+00 0. -1.
         11   -1    0    0    0    0 -0.00000000000E+00 -0.00000000000E+00 -0.50000000000E+03  0.50000000000E+03  0.00000000000E+00 0. -1.
        -11    1    1    2    0    0  0.61181678302E+01  0.31539353790E+01  0.49466881979E+03  0.49471670738E+03  0.00000000000E+00 0. -1.
         11    1    1    2    0    0 -0.55298584691E+01 -0.55729070613E+01 -0.49034205056E+03  0.49040489717E+03  0.00000000000E+00 0. -1.
        -15    1    1    2    0    0 -0.56008840077E+01  0.35969230466E+00 -0.65051769024E+01  0.87735019093E+01  0.17770000000E+01 0. -1.
         15    1    1    2    0    0  0.50125746465E+01  0.20592793776E+01  0.21784076656E+01  0.61048935371E+01  0.17770000000E+01 0.  1.
</event>
<event>
 6    1  0.1823098E-004  0.5032861E+03  0.7546771E-02  0.9392487E-01
        -11   -1    0    0    0    0  0.00000000000E+00  0.00000000000E+00  0.50000000000E+03  0.50000000000E+03  0.00000000000E+00 0. -1.
         11   -1    0    0    0    0 -0.00000000000E+00 -0.00000000000E+00 -0.50000000000E+03  0.50000000000E+03  0.00000000000E+00 0.  1.
        -11    1    1    2    0    0 -0.10957018918E+02  0.14009436121E+01  0.49659103080E+03  0.49671387214E+03  0.00000000000E+00 0. -1.
         11    1    1    2    0    0 -0.67865117985E+00  0.15997430127E+02 -0.45587225491E+03  0.45615336361E+03  0.00000000000E+00 0.  1.
        -15    1    1    2    0    0  0.42138205080E+01 -0.10756134782E+02 -0.12303727660E+02  0.16970272892E+02  0.17770000000E+01 0.  1.
         15    1    1    2    0    0  0.74218495901E+01 -0.66422389572E+01 -0.28415048235E+02  0.30162491358E+02  0.17770000000E+01 0. -1.
</event>
<event>
 6    1  0.1823098E-004  0.4809507E+03  0.7546771E-02  0.9443473E-01
        -11   -1    0    0    0    0  0.00000000000E+00  0.00000000000E+00  0.50000000000E+03  0.50000000000E+03  0.00000000000E+00 0.  1.
         11   -1    0    0    0    0 -0.00000000000E+00 -0.00000000000E+00 -0.50000000000E+03  0.50000000000E+03  0.00000000000E+00 0.  1.
        -11    1    1    2    0    0  0.64465599360E+01  0.58516589791E+01  0.47669168211E+03  0.47677118185E+03  0.00000000000E+00 0.  1.
         11    1    1    2    0    0  0.17556108830E+02  0.18996644927E+02 -0.48509792317E+03  0.48578707737E+03  0.00000000000E+00 0.  1.
        -15    1    1    2    0    0 -0.50081702672E+01 -0.12418698373E+02  0.12087519353E+01  0.13561882205E+02  0.17770000000E+01 0. -1.
         15    1    1    2    0    0 -0.18994498498E+02 -0.12429605534E+02  0.71974891289E+01  0.23879858578E+02  0.17770000000E+01 0.  1.
</event>
<event>
 6    1  0.1823098E-004  0.5000516E+03  0.7546771E-02  0.9399694E-01
        -11   -1    0    0    0    0  0.00000000000E+00  0.00000000000E+00  0.50000000000E+03  0.50000000000E+03  0.00000000000E+00 0. -1.
         11   -1    0    0    0    0 -0.00000000000E+00 -0.00000000000E+00 -0.50000000000E+03  0.50000000000E+03  0.00000000000E+00 0.  1.
        -11    1    1    2    0    0  0.89562663013E+00  0.60800126587E+01  0.14943190620E+03  0.14955822710E+03  0.00000000000E+00 0. -1.
         11    1    1    2    0    0  0.54884166602E+01 -0.10209958465E+02 -0.49981402522E+03  0.49994842312E+03  0.00000000000E+00 0.  1.
        -15    1    1    2    0    0 -0.31798278179E+01  0.51880128899E+00  0.13999634063E+03  0.14004468422E+03  0.17770000000E+01 0. -1.
         15    1    1    2    0    0 -0.32042154725E+01  0.36111445178E+01  0.21038577839E+03  0.21044866557E+03  0.17770000000E+01 0. -1.
</event>
<event>
 6    1  0.1823098E-004  0.5005631E+03  0.7546771E-02  0.9398551E-01
        -11   -1    0    0    0    0  0.00000000000E+00  0.00000000000E+00  0.50000000000E+03  0.50000000000E+03  0.00000000000E+00 0. -1.
         11   -1    0    0    0    0 -0.00000000000E+00 -0.00000000000E+00 -0.50000000000E+03  0.50000000000E+03  0.00000000000E+00 0. -1.
        -11    1    1    2    0    0 -0.75398021134E+01  0.11899537121E+01  0.39595966416E+03  0.39603323125E+03  0.00000000000E+00 0. -1.
         11    1    1    2    0    0  0.10904378506E+02 -0.44111674146E-02 -0.49931781685E+03  0.49943687060E+03  0.00000000000E+00 0. -1.
        -15    1    1    2    0    0 -0.84210276808E+01 -0.14172201176E+01  0.39740135933E+02  0.40686095328E+02  0.17770000000E+01 0. -1.
         15    1    1    2    0    0  0.50564512880E+01  0.23167757293E+00  0.63618016755E+02  0.63843802823E+02  0.17770000000E+01 0.  1.
</event>
<event>
 6    1  0.1823098E-004  0.5003493E+03  0.7546771E-02  0.9399028E-01
        -11   -1    0    0    0    0  0.00000000000E+00  0.00000000000E+00  0.50000000000E+03  0.50000000000E+03  0.00000000000E+00 0. -1.
         11   -1    0    0    0    0 -0.00000000000E+00 -0.00000000000E+00 -0.50000000000E+03  0.50000000000E+03  0.00000000000E+00 0.  1.
        -11    1    1    2    0    0  0.93073114910E+00 -0.37183303439E+01  0.19237043130E+03  0.19240861488E+03  0.00000000000E+00 0. -1.
         11    1    1    2    0    0  0.15429501250E+02 -0.15699685538E+02 -0.49916552990E+03  0.49965065383E+03  0.00000000000E+00 0.  1.
        -15    1    1    2    0    0 -0.15650388628E+02  0.17224392989E+02  0.25580592376E+03  0.25686853201E+03  0.17770000000E+01 0. -1.
         15    1    1    2    0    0 -0.70984377074E+00  0.21936228930E+01  0.50989174844E+02  0.51072199286E+02  0.17770000000E+01 0.  1.
</event>
<event>
 6    1  0.1823098E-004  0.5030529E+03  0.7546771E-02  0.9393004E-01
        -11   -1    0    0    0    0  0.00000000000E+00  0.00000000000E+00  0.50000000000E+03  0.50000000000E+03  0.00000000000E+00 0. -1.
         11   -1    0    0    0    0 -0.00000000000E+00 -0.00000000000E+00 -0.50000000000E+03  0.50000000000E+03  0.00000000000E+00 0.  1.
        -11    1    1    2    0    0 -0.13462905752E+02  0.81028989649E+01  0.49669860772E+03  0.49694709348E+03  0.00000000000E+00 0. -1.
         11    1    1    2    0    0 -0.56452757670E+01 -0.73767255814E+01 -0.45420974015E+03  0.45430471411E+03  0.00000000000E+00 0.  1.
        -15    1    1    2    0    0  0.13345807939E+01 -0.47044236659E+01 -0.61042760131E+01  0.80207619693E+01  0.17770000000E+01 0.  1.
         15    1    1    2    0    0  0.17773600725E+02  0.39782502824E+01 -0.36384591560E+02  0.40727430437E+02  0.17770000000E+01 0. -1.
</event>
<event>
 6    1  0.1823098E-004  0.5011528E+03  0.7546771E-02  0.9397234E-01
        -11   -1    0    0    0    0  0.00000000000E+00  0.00000000000E+00  0.50000000000E+03  0.50000000000E+03  0.00000000000E+00 0.  1.
         11   -1    0    0    0    0 -0.00000000000E+00 -0.00000000000E+00 -0.50000000000E+03  0.50000000000E+03  0.00000000000E+00 0. -1.
        -11    1    1    2    0    0 -0.50345283262E+01 -0.42657881579E+01  0.43202868017E+03  0.43207907136E+03  0.00000000000E+00 0.  1.
         11    1    1    2    0    0 -0.86211786192E+01 -0.51076447575E+01 -0.49874654264E+03  0.49884719760E+03  0.00000000000E+00 0. -1.
        -15    1    1    2    0    0  0.86023238083E+01  0.87068352226E+01  0.42593946411E+02  0.44353251902E+02  0.17770000000E+01 0. -1.
         15    1    1    2    0    0  0.50533831372E+01  0.66659769273E+00  0.24123916063E+02  0.24720479138E+02  0.17770000000E+01 0.  1.
</event>
<event>
 6    1  0.1823098E-004  0.5001333E+03  0.7546771E-02  0.9399512E-01
        -11   -1    0    0    0    0  0.00000000000E+00  0.00000000000E+00  0.50000000000E+03  0.50000000000E+03  0.00000000000E+00 0.  1.
         11   -1    0    0    0    0 -0.00000000000E+00 -0.00000000000E+00 -0.50000000000E+03  0.50000000000E+03  0.00000000000E+00 0.  1.
        -11    1    1    2    0    0 -0.10562340754E+02  0.42295696302E+01  0.49973719979E+03  0.49986670339E+03  0.00000000000E+00 0.  1.
         11    1    1    2    0    0  0.10234138035E+02 -0.16083401304E+01 -0.16398872519E+03  0.16431563020E+03  0.00000000000E+00 0.  1.
        -15    1    1    2    0    0  0.22763685687E+01 -0.50288892319E-01 -0.19337537431E+03  0.19339694284E+03  0.17770000000E+01 0.  1.
         15    1    1    2    0    0 -0.19481658502E+01 -0.25709406074E+01 -0.14237310030E+03  0.14242072357E+03  0.17770000000E+01 0.  1.
</event>
<event>
 6    1  0.1823098E-004  0.5057646E+03  0.7546771E-02  0.9387003E-01
        -11   -1    0    0    0    0  0.00000000000E+00  0.00000000000E+00  0.50000000000E+03  0.50000000000E+03  0.00000000000E+00 0.  1.
         11   -1    0    0    0    0 -0.00000000000E+00 -0.00000000000E+00 -0.50000000000E+03  0.50000000000E+03  0.00000000000E+00 0.  1.
        -11    1    1    2    0    0 -0.78518092188E+01 -0.48908534903E+01  0.47211531992E+03  0.47220593671E+03  0.00000000000E+00 0.  1.
         11    1    1    2    0    0  0.90611931280E+01 -0.44632316174E+01 -0.49413220065E+03  0.49423542708E+03  0.00000000000E+00 0.  1.
        -15    1    1    2    0    0 -0.97076800074E+00  0.16052848874E+01  0.24948547465E+02  0.25082007090E+02  0.17770000000E+01 0. -1.
         15    1    1    2    0    0 -0.23861590851E+00  0.77488002202E+01 -0.29316667343E+01  0.84766291205E+01  0.17770000000E+01 0.  1.
</event>
<event>
 6    1  0.1823098E-004  0.5030911E+03  0.7546771E-02  0.9392920E-01
        -11   -1    0    0    0    0  0.00000000000E+00  0.00000000000E+00  0.50000000000E+03  0.50000000000E+03  0.00000000000E+00 0. -1.
         11   -1    0    0    0    0 -0.00000000000E+00 -0.00000000000E+00 -0.50000000000E+03  0.50000000000E+03  0.00000000000E+00 0. -1.
        -11    1    1    2    0    0  0.17080920970E+01  0.88043194926E+01  0.47618518142E+03  0.47626963018E+03  0.00000000000E+00 0. -1.
         11    1    1    2    0    0 -0.59704560317E+01  0.62583880129E+01 -0.49683363221E+03  0.49690891707E+03  0.00000000000E+00 0. -1.
        -15    1    1    2    0    0  0.24418169557E+01 -0.56168632458E+01  0.12721578800E+02  0.14230527711E+02  0.17770000000E+01 0. -1.
         15    1    1    2    0    0  0.18205469789E+01 -0.94458442597E+01  0.79268719858E+01  0.12590925048E+02  0.17770000000E+01 0.  1.
</event>
<event>
 6    1  0.1823098E-004  0.5002842E+03  0.7546771E-02  0.9399174E-01
        -11   -1    0    0    0    0  0.00000000000E+00  0.00000000000E+00  0.50000000000E+03  0.50000000000E+03  0.00000000000E+00 0. -1.
         11   -1    0    0    0    0 -0.00000000000E+00 -0.00000000000E+00 -0.50000000000E+03  0.50000000000E+03  0.00000000000E+00 0. -1.
        -11    1    1    2    0    0  0.60003722117E+01 -0.43579623612E+01  0.45202533325E+02  0.45806826147E+02  0.00000000000E+00 0. -1.
         11    1    1    2    0    0 -0.28559680656E+02  0.33376464605E+02 -0.49778133280E+03  0.49971581827E+03  0.00000000000E+00 0. -1.
        -15    1    1    2    0    0  0.18293874141E+02 -0.13035825283E+02  0.33090928479E+03  0.33167561119E+03  0.17770000000E+01 0. -1.
         15    1    1    2    0    0  0.42654343032E+01 -0.15982676960E+02  0.12166951468E+03  0.12280174439E+03  0.17770000000E+01 0.  1.
</event>
<event>
 6    1  0.1823098E-004  0.5005128E+03  0.7546771E-02  0.9398663E-01
        -11   -1    0    0    0    0  0.00000000000E+00  0.00000000000E+00  0.50000000000E+03  0.50000000000E+03  0.00000000000E+00 0. -1.
         11   -1    0    0    0    0 -0.00000000000E+00 -0.00000000000E+00 -0.50000000000E+03  0.50000000000E+03  0.00000000000E+00 0.  1.
        -11    1    1    2    0    0 -0.96398322280E+01  0.25426187286E+02  0.49874649900E+03  0.49948722469E+03  0.00000000000E+00 0. -1.
         11    1    1    2    0    0  0.12284105761E+02 -0.15944981987E+02 -0.14167230874E+03  0.14309502007E+03  0.00000000000E+00 0.  1.
        -15    1    1    2    0    0  0.40403239197E+01 -0.69688924599E+01 -0.20419622975E+03  0.20436278441E+03  0.17770000000E+01 0.  1.
         15    1    1    2    0    0 -0.66845974525E+01 -0.25123128386E+01 -0.15287796050E+03  0.15305497083E+03  0.17770000000E+01 0. -1.
</event>
<event>
 6    1  0.1823098E-004  0.5002201E+03  0.7546771E-02  0.9399317E-01
        -11   -1    0    0    0    0  0.00000000000E+00  0.00000000000E+00  0.50000000000E+03  0.50000000000E+03  0.00000000000E+00 0. -1.
         11   -1    0    0    0    0 -0.00000000000E+00 -0.00000000000E+00 -0.50000000000E+03  0.50000000000E+03  0.00000000000E+00 0. -1.
        -11    1    1    2    0    0  0.27113750812E+02  0.49142255094E+00  0.49904364601E+03  0.49977990916E+03  0.00000000000E+00 0. -1.
         11    1    1    2    0    0 -0.24471829041E+02  0.52872502462E+01 -0.35352697886E+03  0.35441240133E+03  0.00000000000E+00 0. -1.
        -15    1    1    2    0    0 -0.29571375762E+01 -0.44582326751E+01 -0.13086439706E+03  0.13098575742E+03  0.17770000000E+01 0.  1.
         15    1    1    2    0    0  0.31521580540E+00 -0.13204401220E+01 -0.14652270092E+02  0.14821932093E+02  0.17770000000E+01 0.  1.
</event>
<event>
 6    1  0.1823098E-004  0.5009949E+03  0.7546771E-02  0.9397586E-01
        -11   -1    0    0    0    0  0.00000000000E+00  0.00000000000E+00  0.50000000000E+03  0.50000000000E+03  0.00000000000E+00 0. -1.
         11   -1    0    0    0    0 -0.00000000000E+00 -0.00000000000E+00 -0.50000000000E+03  0.50000000000E+03  0.00000000000E+00 0.  1.
        -11    1    1    2    0    0 -0.99770780511E+01 -0.15480142458E+01  0.49890298036E+03  0.49900513249E+03  0.00000000000E+00 0. -1.
         11    1    1    2    0    0  0.12157730435E+02  0.32415971500E+00 -0.46431741821E+03  0.46447667362E+03  0.00000000000E+00 0.  1.
        -15    1    1    2    0    0 -0.51456233568E+01 -0.10798398191E+01 -0.29168262307E+02  0.29691560228E+02  0.17770000000E+01 0.  1.
         15    1    1    2    0    0  0.29649709733E+01  0.23036943499E+01 -0.54172998464E+01  0.68266336620E+01  0.17770000000E+01 0. -1.
</event>
<event>
 6    1  0.1823098E-004  0.4782107E+03  0.7546771E-02  0.9449930E-01
        -11   -1    0    0    0    0  0.00000000000E+00  0.00000000000E+00  0.50000000000E+03  0.50000000000E+03  0.00000000000E+00 0. -1.
         11   -1    0    0    0    0 -0.00000000000E+00 -0.00000000000E+00 -0.50000000000E+03  0.50000000000E+03  0.00000000000E+00 0. -1.
        -11    1    1    2    0    0  0.52334039612E+01  0.62321568292E+01  0.48328532492E+03  0.48335383890E+03  0.00000000000E+00 0. -1.
         11    1    1    2    0    0  0.79241770509E+01  0.23441373996E+02 -0.47302650371E+03  0.47367326694E+03  0.00000000000E+00 0. -1.
        -15    1    1    2    0    0 -0.20456959316E+02 -0.21262401324E+02 -0.11304394374E+02  0.31646863284E+02  0.17770000000E+01 0. -1.
         15    1    1    2    0    0  0.72993783038E+01 -0.84111295007E+01  0.10455731657E+01  0.11326030873E+02  0.17770000000E+01 0.  1.
</event>
<event>
 6    1  0.1823098E-004  0.5041378E+03  0.7546771E-02  0.9390598E-01
        -11   -1    0    0    0    0  0.00000000000E+00  0.00000000000E+00  0.50000000000E+03  0.50000000000E+03  0.00000000000E+00 0.  1.
         11   -1    0    0    0    0 -0.00000000000E+00 -0.00000000000E+00 -0.50000000000E+03  0.50000000000E+03  0.00000000000E+00 0.  1.
        -11    1    1    2    0    0  0.55901071716E+01 -0.13012542066E+02  0.47644217290E+03  0.47665261949E+03  0.00000000000E+00 0.  1.
         11    1    1    2    0    0 -0.15366814228E+02  0.21395939410E+00 -0.49562401822E+03  0.49586223106E+03  0.00000000000E+00 0.  1.
        -15    1    1    2    0    0  0.10198805103E+02  0.52374981580E+01  0.90638060779E+01  0.14722680534E+02  0.17770000000E+01 0. -1.
         15    1    1    2    0    0 -0.42209804698E+00  0.75610845141E+01  0.10118039236E+02  0.12762468913E+02  0.17770000000E+01 0.  1.
</event>
<event>
 6    1  0.1823098E-004  0.5081112E+03  0.7546771E-02  0.9381841E-01
        -11   -1    0    0    0    0  0.00000000000E+00  0.00000000000E+00  0.50000000000E+03  0.50000000000E+03  0.00000000000E+00 0.  1.
         11   -1    0    0    0    0 -0.00000000000E+00 -0.00000000000E+00 -0.50000000000E+03  0.50000000000E+03  0.00000000000E+00 0.  1.
        -11    1    1    2    0    0  0.13982435399E+02  0.36943553740E+01  0.49167615577E+03  0.49188880747E+03  0.00000000000E+00 0.  1.
         11    1    1    2    0    0 -0.12966479252E+02 -0.21408438536E+02 -0.47339423608E+03  0.47405543302E+03  0.00000000000E+00 0.  1.
        -15    1    1    2    0    0  0.10502637429E+02  0.63410825263E+01 -0.89191376144E+01  0.15271655619E+02  0.17770000000E+01 0.  1.
         15    1    1    2    0    0 -0.11518593576E+02  0.11373000636E+02 -0.93627820786E+01  0.18784103883E+02  0.17770000000E+01 0. -1.
</event>
<event>
 6    1  0.1823098E-004  0.5027555E+03  0.7546771E-02  0.9393665E-01
        -11   -1    0    0    0    0  0.00000000000E+00  0.00000000000E+00  0.50000000000E+03  0.50000000000E+03  0.00000000000E+00 0. -1.
         11   -1    0    0    0    0 -0.00000000000E+00 -0.00000000000E+00 -0.50000000000E+03  0.50000000000E+03  0.00000000000E+00 0. -1.
        -11    1    1    2    0    0  0.88989320838E+01 -0.36720525596E+01  0.49715131373E+03  0.49724451098E+03  0.00000000000E+00 0. -1.
         11    1    1    2    0    0  0.99945998723E+01 -0.71821005978E+01 -0.44351647615E+03  0.44368720875E+03  0.00000000000E+00 0. -1.
        -15    1    1    2    0    0 -0.13480239461E+02  0.98365516688E+01 -0.48534544207E+02  0.51354009727E+02  0.17770000000E+01 0.  1.
         15    1    1    2    0    0 -0.54132924956E+01  0.10176014887E+01 -0.51002933718E+01  0.77142705366E+01  0.17770000000E+01 0. -1.
</event>
<event>
 6    1  0.1823098E-004  0.5003908E+03  0.7546771E-02  0.9398936E-01
        -11   -1    0    0    0    0  0.00000000000E+00  0.00000000000E+00  0.50000000000E+03  0.50000000000E+03  0.00000000000E+00 0. -1.
         11   -1    0    0    0    0 -0.00000000000E+00 -0.00000000000E+00 -0.50000000000E+03  0.50000000000E+03  0.00000000000E+00 0. -1.
        -11    1    1    2    0    0 -0.12352103147E+01  0.61192399957E+01  0.41356058189E+03  0.41360769545E+03  0.00000000000E+00 0. -1.
         11    1    1    2    0    0 -0.54814572080E+01 -0.43054760380E+01 -0.49956054288E+03  0.49960916674E+03  0.00000000000E+00 0. -1.
        -15    1    1    2    0    0  0.44444429698E+01 -0.24362936952E-02  0.77180765145E+02  0.77329045750E+02  0.17770000000E+01 0. -1.
         15    1    1    2    0    0  0.22722245529E+01 -0.18113276640E+01  0.88191958426E+01  0.94540920577E+01  0.17770000000E+01 0.  1.
</event>
<event>
 6    1  0.1823098E-004  0.5000711E+03  0.7546771E-02  0.9399651E-01
        -11   -1    0    0    0    0  0.00000000000E+00  0.00000000000E+00  0.50000000000E+03  0.50000000000E+03  0.00000000000E+00 0.  1.
         11   -1    0    0    0    0 -0.00000000000E+00 -0.00000000000E+00 -0.50000000000E+03  0.50000000000E+03  0.00000000000E+00 0.  1.
        -11    1    1    2    0    0 -0.54311324005E+01  0.32318976851E+01  0.28030738614E+03  0.28037862452E+03  0.00000000000E+00 0.  1.
         11    1    1    2    0    0  0.12004759885E+02  0.14746841619E+01 -0.49978254825E+03  0.49992887943E+03  0.00000000000E+00 0.  1.
        -15    1    1    2    0    0 -0.15390394869E+01  0.19918435028E-01  0.80732082436E+02  0.80766304253E+02  0.17770000000E+01 0.  1.
         15    1    1    2    0    0 -0.50345879977E+01 -0.47265002821E+01  0.13874307967E+03  0.13892619180E+03  0.17770000000E+01 0. -1.
</event>
<event>
 6    1  0.1823098E-004  0.5012509E+03  0.7546771E-02  0.9397015E-01
        -11   -1    0    0    0    0  0.00000000000E+00  0.00000000000E+00  0.50000000000E+03  0.50000000000E+03  0.00000000000E+00 0. -1.
         11   -1    0    0    0    0 -0.00000000000E+00 -0.00000000000E+00 -0.50000000000E+03  0.50000000000E+03  0.00000000000E+00 0. -1.
        -11    1    1    2    0    0 -0.13988036928E+02  0.17729296794E+01  0.49854979861E+03  0.49874914551E+03  0.00000000000E+00 0. -1.
         11    1    1    2    0    0  0.22084428285E+02  0.20652080935E+01 -0.16086099083E+03  0.16238302075E+03  0.00000000000E+00 0. -1.
        -15    1    1    2    0    0  0.63025427803E+01 -0.52782969734E+01 -0.42785141890E+02  0.43603997065E+02  0.17770000000E+01 0.  1.
         15    1    1    2    0    0 -0.14398934137E+02  0.14401592006E+01 -0.29490366589E+03  0.29526383667E+03  0.17770000000E+01 0. -1.
</event>
<event>
 6    1  0.1823098E-004  0.5028138E+03  0.7546771E-02  0.9393536E-01
        -11   -1    0    0    0    0  0.00000000000E+00  0.00000000000E+00  0.50000000000E+03  0.50000000000E+03  0.00000000000E+00 0. -1.
         11   -1    0    0    0    0 -0.00000000000E+00 -0.00000000000E+00 -0.50000000000E+03  0.50000000000E+03  0.00000000000E+00 0.  1.
        -11    1    1    2    0    0  0.15483555218E+00 -0.42268005722E+02  0.49538620748E+03  0.49718618529E+03  0.00000000000E+00 0. -1.
         11    1    1    2    0    0 -0.23613737029E+02  0.33906093257E+02 -0.16802756232E+03  0.17303321483E+03  0.00000000000E+00 0.  1.
        -15    1    1    2    0    0 -0.37020687561E+01 -0.73309730334E+01 -0.77553748453E+02  0.78007628517E+02  0.17770000000E+01 0.  1.
         15    1    1    2    0    0  0.27160970233E+02  0.15692885498E+02 -0.24980489671E+03  0.25177297136E+03  0.17770000000E+01 0. -1.
</event>
<event>
 6    1  0.1823098E-004  0.5091089E+03  0.7546771E-02  0.9379655E-01
        -11   -1    0    0    0    0  0.00000000000E+00  0.00000000000E+00  0.50000000000E+03  0.50000000000E+03  0.00000000000E+00 0.  1.
         11   -1    0    0    0    0 -0.00000000000E+00 -0.00000000000E+00 -0.50000000000E+03  0.50000000000E+03  0.00000000000E+00 0.  1.
        -11    1    1    2    0    0  0.84895061045E+01  0.66581901457E+01  0.49077248638E+03  0.49089106388E+03  0.00000000000E+00 0.  1.
         11    1    1    2    0    0  0.21770831892E+02 -0.52732379002E+02 -0.36622604480E+03  0.37064293978E+03  0.00000000000E+00 0.  1.
        -15    1    1    2    0    0 -0.38242730845E+01  0.67777363567E+01 -0.39820420707E+01  0.89206032755E+01  0.17770000000E+01 0.  1.
         15    1    1    2    0    0 -0.26436064912E+02  0.39296452500E+02 -0.12056439951E+03  0.12954539307E+03  0.17770000000E+01 0. -1.
</event>
<event>
 6    1  0.1823098E-004  0.5038635E+03  0.7546771E-02  0.9391206E-01
        -11   -1    0    0    0    0  0.00000000000E+00  0.00000000000E+00  0.50000000000E+03  0.50000000000E+03  0.00000000000E+00 0.  1.
         11   -1    0    0    0    0 -0.00000000000E+00 -0.00000000000E+00 -0.50000000000E+03  0.50000000000E+03  0.00000000000E+00 0.  1.
        -11    1    1    2    0    0  0.10277843202E+02 -0.63822096492E+01  0.49598901651E+03  0.49613654487E+03  0.00000000000E+00 0.  1.
         11    1    1    2    0    0  0.17040875934E+00 -0.27093073642E+02 -0.40679983846E+03  0.40770108198E+03  0.00000000000E+00 0.  1.
        -15    1    1    2    0    0 -0.46551628470E+01  0.59941246436E+01 -0.18212883923E+02  0.19810778409E+02  0.17770000000E+01 0.  1.
         15    1    1    2    0    0 -0.57930891147E+01  0.27481158648E+02 -0.70976294126E+02  0.76351594738E+02  0.17770000000E+01 0. -1.
</event>
<event>
 6    1  0.1823098E-004  0.5005305E+03  0.7546771E-02  0.9398623E-01
        -11   -1    0    0    0    0  0.00000000000E+00  0.00000000000E+00  0.50000000000E+03  0.50000000000E+03  0.00000000000E+00 0. -1.
         11   -1    0    0    0    0 -0.00000000000E+00 -0.00000000000E+00 -0.50000000000E+03  0.50000000000E+03  0.00000000000E+00 0.  1.
        -11    1    1    2    0    0 -0.14512013461E+01 -0.16138892627E+02  0.49920653780E+03  0.49946945575E+03  0.00000000000E+00 0. -1.
         11    1    1    2    0    0  0.57394493245E+01  0.52417275019E+01 -0.25954279645E+02  0.27093202425E+02  0.00000000000E+00 0.  1.
        -15    1    1    2    0    0 -0.26065358180E+01  0.89425710724E+01 -0.40777431040E+03  0.40788455421E+03  0.17770000000E+01 0.  1.
         15    1    1    2    0    0 -0.16817121604E+01  0.19545940524E+01 -0.65477947753E+02  0.65552787619E+02  0.17770000000E+01 0.  1.
</event>
<event>
 6    1  0.1823098E-004  0.5000562E+03  0.7546771E-02  0.9399684E-01
        -11   -1    0    0    0    0  0.00000000000E+00  0.00000000000E+00  0.50000000000E+03  0.50000000000E+03  0.00000000000E+00 0. -1.
         11   -1    0    0    0    0 -0.00000000000E+00 -0.00000000000E+00 -0.50000000000E+03  0.50000000000E+03  0.00000000000E+00 0. -1.
        -11    1    1    2    0    0  0.12504444048E+02  0.95721515374E+01  0.49969574514E+03  0.49994382176E+03  0.00000000000E+00 0. -1.
         11    1    1    2    0    0 -0.46312127656E+01 -0.86713608204E+01 -0.24413311281E+03  0.24433095874E+03  0.00000000000E+00 0. -1.
        -15    1    1    2    0    0 -0.17015843687E+01 -0.87708160396E+00 -0.59216539666E+02  0.59274117121E+02  0.17770000000E+01 0. -1.
         15    1    1    2    0    0 -0.61716469134E+01 -0.23709113115E-01 -0.19634609267E+03  0.19645110237E+03  0.17770000000E+01 0.  1.
</event>
<event>
 6    1  0.1823098E-004  0.5102337E+03  0.7546771E-02  0.9377198E-01
        -11   -1    0    0    0    0  0.00000000000E+00  0.00000000000E+00  0.50000000000E+03  0.50000000000E+03  0.00000000000E+00 0.  1.
         11   -1    0    0    0    0 -0.00000000000E+00 -0.00000000000E+00 -0.50000000000E+03  0.50000000000E+03  0.00000000000E+00 0. -1.
        -11    1    1    2    0    0  0.71103122954E+01  0.83480001743E+01  0.48964350955E+03  0.48976628313E+03  0.00000000000E+00 0.  1.
         11    1    1    2    0    0  0.13983184880E+01  0.20761999430E+02 -0.46387708813E+03  0.46434358917E+03  0.00000000000E+00 0. -1.
        -15    1    1    2    0    0 -0.64125778811E+01  0.18382889896E+01 -0.47199531609E+01  0.83627835278E+01  0.17770000000E+01 0.  1.
         15    1    1    2    0    0 -0.20960529023E+01 -0.30948288594E+02 -0.21046468263E+02  0.37527344164E+02  0.17770000000E+01 0. -1.
</event>
<event>
 6    1  0.1823098E-004  0.5000946E+03  0.7546771E-02  0.9399598E-01
        -11   -1    0    0    0    0  0.00000000000E+00  0.00000000000E+00  0.50000000000E+03  0.50000000000E+03  0.00000000000E+00 0. -1.
         11   -1    0    0    0    0 -0.00000000000E+00 -0.00000000000E+00 -0.50000000000E+03  0.50000000000E+03  0.00000000000E+00 0. -1.
        -11    1    1    2    0    0 -0.22056636228E+01 -0.10807557901E+01  0.12915126116E+03  0.12917461532E+03  0.00000000000E+00 0. -1.
         11    1    1    2    0    0 -0.11088287567E+02  0.64274958268E+01 -0.49974106430E+03  0.49990538521E+03  0.00000000000E+00 0. -1.
        -15    1    1    2    0    0  0.66493482452E+01 -0.10241566010E+01  0.12272989474E+03  0.12292700078E+03  0.17770000000E+01 0.  1.
         15    1    1    2    0    0  0.66446029446E+01 -0.43225834357E+01  0.24785990840E+03  0.24799299868E+03  0.17770000000E+01 0. -1.
</event>
<event>
 6    1  0.1823098E-004  0.5046809E+03  0.7546771E-02  0.9389396E-01
        -11   -1    0    0    0    0  0.00000000000E+00  0.00000000000E+00  0.50000000000E+03  0.50000000000E+03  0.00000000000E+00 0.  1.
         11   -1    0    0    0    0 -0.00000000000E+00 -0.00000000000E+00 -0.50000000000E+03  0.50000000000E+03  0.00000000000E+00 0.  1.
        -11    1    1    2    0    0 -0.16032116490E+01  0.98004137245E+01  0.49521957183E+03  0.49531913219E+03  0.00000000000E+00 0.  1.
         11    1    1    2    0    0 -0.95631740446E+01 -0.10626740582E+02 -0.48437528586E+03  0.48458621468E+03  0.00000000000E+00 0.  1.
        -15    1    1    2    0    0  0.92344694175E+00 -0.46930513869E+01 -0.39608544078E+01  0.64593793986E+01  0.17770000000E+01 0. -1.
         15    1    1    2    0    0  0.10242938752E+02  0.55193782447E+01 -0.68834315616E+01  0.13635273725E+02  0.17770000000E+01 0.  1.
</event>
<event>
 6    1  0.1823098E-004  0.5000676E+03  0.7546771E-02  0.9399658E-01
        -11   -1    0    0    0    0  0.00000000000E+00  0.00000000000E+00  0.50000000000E+03  0.50000000000E+03  0.00000000000E+00 0.  1.
         11   -1    0    0    0    0 -0.00000000000E+00 -0.00000000000E+00 -0.50000000000E+03  0.50000000000E+03  0.00000000000E+00 0. -1.
        -11    1    1    2    0    0  0.51519516906E+01 -0.49442419849E+01  0.20016803211E+03  0.20029535495E+03  0.00000000000E+00 0.  1.
         11    1    1    2    0    0 -0.13723483664E+02  0.18992185619E+01 -0.49974039839E+03  0.49993240225E+03  0.00000000000E+00 0. -1.
        -15    1    1    2    0    0  0.76844168669E+01  0.22522897283E+01  0.26907464889E+03  0.26919964242E+03  0.17770000000E+01 0.  1.
         15    1    1    2    0    0  0.88711510692E+00  0.79273369470E+00  0.30497717387E+02  0.30572600393E+02  0.17770000000E+01 0.  1.
</event>
<event>
 6    1  0.1823098E-004  0.5093962E+03  0.7546771E-02  0.9379027E-01
        -11   -1    0    0    0    0  0.00000000000E+00  0.00000000000E+00  0.50000000000E+03  0.50000000000E+03  0.00000000000E+00 0.  1.
         11   -1    0    0    0    0 -0.00000000000E+00 -0.00000000000E+00 -0.50000000000E+03  0.50000000000E+03  0.00000000000E+00 0. -1.
        -11    1    1    2    0    0 -0.21838516784E+00  0.73223095015E+01  0.39242864444E+03  0.39249701258E+03  0.00000000000E+00 0.  1.
         11    1    1    2    0    0  0.50793099877E+02 -0.49407538197E+01 -0.48794239759E+03  0.49060384569E+03  0.00000000000E+00 0. -1.
        -15    1    1    2    0    0 -0.25292001832E+02  0.81095385374E+01  0.12381579011E+02  0.29358324199E+02  0.17770000000E+01 0. -1.
         15    1    1    2    0    0 -0.25282712877E+02 -0.10491094219E+02  0.83132174137E+02  0.87540817531E+02  0.17770000000E+01 0.  1.
</event>
<event>
 6    1  0.1823098E-004  0.5000393E+03  0.7546771E-02  0.9399722E-01
        -11   -1    0    0    0    0  0.00000000000E+00  0.00000000000E+00  0.50000000000E+03  0.50000000000E+03  0.00000000000E+00 0.  1.
         11   -1    0    0    0    0 -0.00000000000E+00 -0.00000000000E+00 -0.50000000000E+03  0.50000000000E+03  0.00000000000E+00 0. -1.
        -11    1    1    2    0    0  0.87275942366E-01 -0.16535409010E+01  0.51492645737E+02  0.51519262219E+02  0.00000000000E+00 0.  1.
         11    1    1    2    0    0  0.12186314312E+02  0.93876807759E-01 -0.49981219861E+03  0.49996074740E+03  0.00000000000E+00 0. -1.
        -15    1    1    2    0    0 -0.90094459198E+01  0.22078427497E+01  0.35174998237E+03  0.35187675756E+03  0.17770000000E+01 0.  1.
         15    1    1    2    0    0 -0.32641443345E+01 -0.64817865645E+00  0.96569570498E+02  0.96643232816E+02  0.17770000000E+01 0.  1.
</event>
<event>
 6    1  0.1823098E-004  0.5089616E+03  0.7546771E-02  0.9379978E-01
        -11   -1    0    0    0    0  0.00000000000E+00  0.00000000000E+00  0.50000000000E+03  0.50000000000E+03  0.00000000000E+00 0.  1.
         11   -1    0    0    0    0 -0.00000000000E+00 -0.00000000000E+00 -0.50000000000E+03  0.50000000000E+03  0.00000000000E+00 0. -1.
        -11    1    1    2    0    0 -0.10828029191E+02 -0.16461423360E+02  0.49064294241E+03  0.49103841154E+03  0.00000000000E+00 0.  1.
         11    1    1    2    0    0  0.15433618621E+02  0.19924202565E+02 -0.48234367428E+03  0.48300164653E+03  0.00000000000E+00 0. -1.
        -15    1    1    2    0    0  0.61594785296E+01  0.69584951951E+01 -0.24115014371E+01  0.97638567850E+01  0.17770000000E+01 0. -1.
         15    1    1    2    0    0 -0.10765067959E+02 -0.10421274400E+02 -0.58877666903E+01  0.16196085141E+02  0.17770000000E+01 0.  1.
</event>
<event>
 6    1  0.1823098E-004  0.5001965E+03  0.7546771E-02  0.9399370E-01
        -11   -1    0    0    0    0  0.00000000000E+00  0.00000000000E+00  0.50000000000E+03  0.50000000000E+03  0.00000000000E+00 0.  1.
         11   -1    0    0    0    0 -0.00000000000E+00 -0.00000000000E+00 -0.50000000000E+03  0.50000000000E+03  0.00000000000E+00 0.  1.
        -11    1    1    2    0    0  0.34872868132E+01 -0.17061532797E+02  0.36421990217E+03  0.36463597492E+03  0.00000000000E+00 0.  1.
         11    1    1    2    0    0  0.60165642696E+00  0.18723849608E+02 -0.49945227177E+03  0.49980347769E+03  0.00000000000E+00 0.  1.
        -15    1    1    2    0    0 -0.45249737333E+00  0.12490779826E+01  0.94236840787E+02  0.94262955822E+02  0.17770000000E+01 0.  1.
         15    1    1    2    0    0 -0.36364458669E+01 -0.29113947932E+01  0.40995528813E+02  0.41297591574E+02  0.17770000000E+01 0. -1.
</event>
<event>
 6    1  0.1823098E-004  0.4850494E+03  0.7546771E-02  0.9433898E-01
        -11   -1    0    0    0    0  0.00000000000E+00  0.00000000000E+00  0.50000000000E+03  0.50000000000E+03  0.00000000000E+00 0.  1.
         11   -1    0    0    0    0 -0.00000000000E+00 -0.00000000000E+00 -0.50000000000E+03  0.50000000000E+03  0.00000000000E+00 0.  1.
        -11    1    1    2    0    0 -0.66105969753E+01  0.12387890026E+01  0.47883692847E+03  0.47888415996E+03  0.00000000000E+00 0.  1.
         11    1    1    2    0    0 -0.47952517837E+01  0.20954148905E+02 -0.49114343999E+03  0.49161361804E+03  0.00000000000E+00 0.  1.
        -15    1    1    2    0    0  0.10777848596E+02 -0.14406070977E+02  0.52499263081E+01  0.18825949022E+02  0.17770000000E+01 0. -1.
         15    1    1    2    0    0  0.62800016341E+00 -0.77868669302E+01  0.70565852152E+01  0.10676272978E+02  0.17770000000E+01 0.  1.
</event>
<event>
 6    1  0.1974233E-004  0.5024010E+03  0.7546771E-02  0.9394453E-01
        -11   -1    0    0    0    0  0.00000000000E+00  0.00000000000E+00  0.50000000000E+03  0.50000000000E+03  0.00000000000E+00 0.  1.
         11   -1    0    0    0    0 -0.00000000000E+00 -0.00000000000E+00 -0.50000000000E+03  0.50000000000E+03  0.00000000000E+00 0. -1.
        -11    1    1    2    0    0  0.38785594946E+01 -0.48355280292E+01  0.45779033567E+03  0.45783230225E+03  0.00000000000E+00 0.  1.
         11    1    1    2    0    0  0.62917885308E+01 -0.10958699526E+02 -0.49743854112E+03  0.49759901718E+03  0.00000000000E+00 0. -1.
        -15    1    1    2    0    0 -0.98505850745E+00  0.29882209910E+01  0.13603699590E+02  0.14075445871E+02  0.17770000000E+01 0. -1.
         15    1    1    2    0    0 -0.91852895180E+01  0.12806006564E+02  0.26044505869E+02  0.30493234702E+02  0.17770000000E+01 0.  1.
</event>
<event>
 6    1  0.1823098E-004  0.5092572E+03  0.7546771E-02  0.9379331E-01
        -11   -1    0    0    0    0  0.00000000000E+00  0.00000000000E+00  0.50000000000E+03  0.50000000000E+03  0.00000000000E+00 0. -1.
         11   -1    0    0    0    0 -0.00000000000E+00 -0.00000000000E+00 -0.50000000000E+03  0.50000000000E+03  0.00000000000E+00 0. -1.
        -11    1    1    2    0    0  0.12814410077E+02  0.99239100431E+01  0.47868221515E+03  0.47895652850E+03  0.00000000000E+00 0. -1.
         11    1    1    2    0    0 -0.10002805357E+02  0.85303522040E+01 -0.49056671455E+03  0.49074282924E+03  0.00000000000E+00 0. -1.
        -15    1    1    2    0    0 -0.68874285414E+01 -0.10253080621E+02 -0.29070748611E+01  0.12812928915E+02  0.17770000000E+01 0. -1.
         15    1    1    2    0    0  0.40758238214E+01 -0.82011816261E+01  0.14791574262E+02  0.17487713345E+02  0.17770000000E+01 0.  1.
</event>
<event>
 6    1  0.1823098E-004  0.5021597E+03  0.7546771E-02  0.9394990E-01
        -11   -1    0    0    0    0  0.00000000000E+00  0.00000000000E+00  0.50000000000E+03  0.50000000000E+03  0.00000000000E+00 0. -1.
         11   -1    0    0    0    0 -0.00000000000E+00 -0.00000000000E+00 -0.50000000000E+03  0.50000000000E+03  0.00000000000E+00 0. -1.
        -11    1    1    2    0    0  0.97230044008E+00  0.55333823302E+01  0.35898140134E+03  0.35902536149E+03  0.00000000000E+00 0. -1.
         11    1    1    2    0    0  0.32237250870E+02  0.63413810415E+01 -0.49675495558E+03  0.49784027494E+03  0.00000000000E+00 0. -1.
        -15    1    1    2    0    0 -0.15205013369E+01 -0.34967610285E+01  0.34847273884E+02  0.35100277608E+02  0.17770000000E+01 0. -1.
         15    1    1    2    0    0 -0.31689049973E+02 -0.83780023432E+01  0.10292628036E+03  0.10803408596E+03  0.17770000000E+01 0.  1.
</event>
<event>
 6    1  0.1823098E-004  0.5114613E+03  0.7546771E-02  0.9374523E-01
        -11   -1    0    0    0    0  0.00000000000E+00  0.00000000000E+00  0.50000000000E+03  0.50000000000E+03  0.00000000000E+00 0. -1.
         11   -1    0    0    0    0 -0.00000000000E+00 -0.00000000000E+00 -0.50000000000E+03  0.50000000000E+03  0.00000000000E+00 0.  1.
        -11    1    1    2    0    0  0.18025118999E+02 -0.45442674145E+01  0.48818489624E+03  0.48853868649E+03  0.00000000000E+00 0. -1.
         11    1    1    2    0    0  0.24777464511E+02 -0.19784937335E+02 -0.42516643911E+03  0.42634712083E+03  0.00000000000E+00 0.  1.
        -15    1    1    2    0    0 -0.52000907024E+01  0.15451628344E+01 -0.28833651302E+02  0.29393292566E+02  0.17770000000E+01 0.  1.
         15    1    1    2    0    0 -0.37602492808E+02  0.22784041915E+02 -0.34184805823E+02  0.55720900114E+02  0.17770000000E+01 0. -1.
</event>
<event>
 6    1  0.1823098E-004  0.5003357E+03  0.7546771E-02  0.9399059E-01
        -11   -1    0    0    0    0  0.00000000000E+00  0.00000000000E+00  0.50000000000E+03  0.50000000000E+03  0.00000000000E+00 0.  1.
         11   -1    0    0    0    0 -0.00000000000E+00 -0.00000000000E+00 -0.50000000000E+03  0.50000000000E+03  0.00000000000E+00 0.  1.
        -11    1    1    2    0    0 -0.89799882795E+00 -0.73231553581E+01  0.21175302063E+03  0.21188151584E+03  0.00000000000E+00 0.  1.
         11    1    1    2    0    0  0.24813775841E+02  0.47909794649E+00 -0.49904758344E+03  0.49966433087E+03  0.00000000000E+00 0.  1.
        -15    1    1    2    0    0 -0.17739592279E+02  0.47266877084E+01  0.23517828088E+03  0.23590043712E+03  0.17770000000E+01 0. -1.
         15    1    1    2    0    0 -0.61761847342E+01  0.21173697032E+01  0.52116281930E+02  0.52553716172E+02  0.17770000000E+01 0.  1.
</event>
<event>
 6    1  0.1823098E-004  0.5001579E+03  0.7546771E-02  0.9399457E-01
        -11   -1    0    0    0    0  0.00000000000E+00  0.00000000000E+00  0.50000000000E+03  0.50000000000E+03  0.00000000000E+00 0. -1.
         11   -1    0    0    0    0 -0.00000000000E+00 -0.00000000000E+00 -0.50000000000E+03  0.50000000000E+03  0.00000000000E+00 0.  1.
        -11    1    1    2    0    0  0.46251347200E+01  0.30540094220E+00  0.79892774444E+02  0.80027123835E+02  0.00000000000E+00 0. -1.
         11    1    1    2    0    0 -0.75969878308E+01  0.47129041343E+01 -0.49976216849E+03  0.49984212582E+03  0.00000000000E+00 0.  1.
        -15    1    1    2    0    0  0.47385277020E+01 -0.73400246811E+01  0.16664991417E+03  0.16688822975E+03  0.17770000000E+01 0. -1.
         15    1    1    2    0    0 -0.17666745911E+01  0.23217196045E+01  0.25321947988E+03  0.25324252060E+03  0.17770000000E+01 0. -1.
</event>
<event>
 6    1  0.1823098E-004  0.5094764E+03  0.7546771E-02  0.9378852E-01
        -11   -1    0    0    0    0  0.00000000000E+00  0.00000000000E+00  0.50000000000E+03  0.50000000000E+03  0.00000000000E+00 0.  1.
         11   -1    0    0    0    0 -0.00000000000E+00 -0.00000000000E+00 -0.50000000000E+03  0.50000000000E+03  0.00000000000E+00 0. -1.
        -11    1    1    2    0    0 -0.26103782965E+02  0.28354818020E+01  0.48982032368E+03  0.49052359467E+03  0.00000000000E+00 0.  1.
         11    1    1    2    0    0 -0.77296563453E+01 -0.35633080787E+02 -0.41910587989E+03  0.42068896182E+03  0.00000000000E+00 0. -1.
        -15    1    1    2    0    0  0.21168574094E+02  0.14352393172E+02 -0.17520351866E+02  0.31051894909E+02  0.17770000000E+01 0.  1.
         15    1    1    2    0    0  0.12664865216E+02  0.18445205813E+02 -0.53194091917E+02  0.57735548601E+02  0.17770000000E+01 0. -1.
</event>
<event>
 6    1  0.1823098E-004  0.5007140E+03  0.7546771E-02  0.9398214E-01
        -11   -1    0    0    0    0  0.00000000000E+00  0.00000000000E+00  0.50000000000E+03  0.50000000000E+03  0.00000000000E+00 0.  1.
         11   -1    0    0    0    0 -0.00000000000E+00 -0.00000000000E+00 -0.50000000000E+03  0.50000000000E+03  0.00000000000E+00 0.  1.
        -11    1    1    2    0    0  0.20184783168E+02 -0.38212216175E+02  0.49741226045E+03  0.49928604605E+03  0.00000000000E+00 0.  1.
         11    1    1    2    0    0 -0.28613481544E+02  0.19190884134E+02 -0.29526163833E+03  0.29726495997E+03  0.00000000000E+00 0.  1.
        -15    1    1    2    0    0  0.35110152500E+01  0.10728122622E+01 -0.27528484773E+02  0.27829002086E+02  0.17770000000E+01 0. -1.
         15    1    1    2    0    0  0.49176831260E+01  0.17948519779E+02 -0.17462213735E+03  0.17561999189E+03  0.17770000000E+01 0. -1.
</event>
<event>
 6    1  0.1823098E-004  0.5082383E+03  0.7546771E-02  0.9381562E-01
        -11   -1    0    0    0    0  0.00000000000E+00  0.00000000000E+00  0.50000000000E+03  0.50000000000E+03  0.00000000000E+00 0.  1.
         11   -1    0    0    0    0 -0.00000000000E+00 -0.00000000000E+00 -0.50000000000E+03  0.50000000000E+03  0.00000000000E+00 0.  1.
        -11    1    1    2    0    0 -0.46879975989E+01  0.11505410185E+02  0.46821721280E+03  0.46838201305E+03  0.00000000000E+00 0.  1.
         11    1    1    2    0    0  0.28071988665E+01  0.18159086480E+02 -0.49141832023E+03  0.49176172914E+03  0.00000000000E+00 0.  1.
        -15    1    1    2    0    0  0.68751048010E+01 -0.20994954952E+02  0.14568567589E+02  0.26522746654E+02  0.17770000000E+01 0.  1.
         15    1    1    2    0    0 -0.49943060686E+01 -0.86695417135E+01  0.86325398434E+01  0.13333511157E+02  0.17770000000E+01 0. -1.
</event>
<event>
 6    1  0.1823098E-004  0.5046696E+03  0.7546771E-02  0.9389421E-01
        -11   -1    0    0    0    0  0.00000000000E+00  0.00000000000E+00  0.50000000000E+03  0.50000000000E+03  0.00000000000E+00 0. -1.
         11   -1    0    0    0    0 -0.00000000000E+00 -0.00000000000E+00 -0.50000000000E+03  0.50000000000E+03  0.00000000000E+00 0.  1.
        -11    1    1    2    0    0 -0.47793735058E+01  0.51244004724E+01  0.48644708593E+03  0.48649755323E+03  0.00000000000E+00 0. -1.
         11    1    1    2    0    0  0.94009623976E+01  0.39759995995E+01 -0.49522518001E+03  0.49533036005E+03  0.00000000000E+00 0.  1.
        -15    1    1    2    0    0 -0.31213538376E+01  0.22840792314E+01  0.18266465462E+01  0.46318715785E+01  0.17770000000E+01 0.  1.
         15    1    1    2    0    0 -0.15002350542E+01 -0.11384479303E+02  0.69514475331E+01  0.13540215140E+02  0.17770000000E+01 0. -1.
</event>
<event>
 6    1  0.1823098E-004  0.5000784E+03  0.7546771E-02  0.9399634E-01
        -11   -1    0    0    0    0  0.00000000000E+00  0.00000000000E+00  0.50000000000E+03  0.50000000000E+03  0.00000000000E+00 0. -1.
         11   -1    0    0    0    0 -0.00000000000E+00 -0.00000000000E+00 -0.50000000000E+03  0.50000000000E+03  0.00000000000E+00 0.  1.
        -11    1    1    2    0    0  0.11378592330E+01  0.10559416511E+01  0.37240440085E+02  0.37272779801E+02  0.00000000000E+00 0. -1.
         11    1    1    2    0    0 -0.21924125214E+02  0.16960824814E+02 -0.49915252615E+03  0.49992157506E+03  0.00000000000E+00 0.  1.
        -15    1    1    2    0    0  0.11475742567E+01 -0.27546029467E+01  0.37040025789E+02  0.37202499963E+02  0.17770000000E+01 0.  1.
         15    1    1    2    0    0  0.19638691724E+02 -0.15262163518E+02  0.42487206028E+03  0.42560314518E+03  0.17770000000E+01 0. -1.
</event>
<event>
 6    1  0.1823098E-004  0.5011340E+03  0.7546771E-02  0.9397276E-01
        -11   -1    0    0    0    0  0.00000000000E+00  0.00000000000E+00  0.50000000000E+03  0.50000000000E+03  0.00000000000E+00 0.  1.
         11   -1    0    0    0    0 -0.00000000000E+00 -0.00000000000E+00 -0.50000000000E+03  0.50000000000E+03  0.00000000000E+00 0. -1.
        -11    1    1    2    0    0 -0.24816553185E+01  0.19849378504E+02  0.30505148414E+03  0.30570666400E+03  0.00000000000E+00 0.  1.
         11    1    1    2    0    0 -0.29722525218E+02 -0.34528060589E+02 -0.49678131956E+03  0.49886600900E+03  0.00000000000E+00 0. -1.
        -15    1    1    2    0    0  0.26547002955E+02  0.71515411845E+01  0.12405630200E+03  0.12707876180E+03  0.17770000000E+01 0.  1.
         15    1    1    2    0    0  0.56571775814E+01  0.75271408998E+01  0.67673533424E+02  0.68348565189E+02  0.17770000000E+01 0. -1.
</event>
<event>
 6    1  0.1823098E-004  0.5034859E+03  0.7546771E-02  0.9392043E-01
        -11   -1    0    0    0    0  0.00000000000E+00  0.00000000000E+00  0.50000000000E+03  0.50000000000E+03  0.00000000000E+00 0. -1.
         11   -1    0    0    0    0 -0.00000000000E+00 -0.00000000000E+00 -0.50000000000E+03  0.50000000000E+03  0.00000000000E+00 0. -1.
        -11    1    1    2    0    0 -0.25734261739E+02 -0.75926506147E+01  0.49578863424E+03  0.49651411905E+03  0.00000000000E+00 0. -1.
         11    1    1    2    0    0  0.91046545856E+01  0.22547921289E+02 -0.20190129116E+03  0.20336035715E+03  0.00000000000E+00 0. -1.
        -15    1    1    2    0    0  0.28358281216E+02 -0.12377483530E+02 -0.78504888699E+02  0.84401241050E+02  0.17770000000E+01 0.  1.
         15    1    1    2    0    0 -0.11728674063E+02 -0.25777871441E+01 -0.21538245439E+03  0.21572428275E+03  0.17770000000E+01 0. -1.
</event>
<event>
 6    1  0.1823098E-004  0.5004404E+03  0.7546771E-02  0.9398825E-01
        -11   -1    0    0    0    0  0.00000000000E+00  0.00000000000E+00  0.50000000000E+03  0.50000000000E+03  0.00000000000E+00 0.  1.
         11   -1    0    0    0    0 -0.00000000000E+00 -0.00000000000E+00 -0.50000000000E+03  0.50000000000E+03  0.00000000000E+00 0.  1.
        -11    1    1    2    0    0 -0.17034102298E+01 -0.86370918814E+01  0.38552043120E+03  0.38562093283E+03  0.00000000000E+00 0.  1.
         11    1    1    2    0    0 -0.10267329963E+02  0.11464774961E+02 -0.49932251015E+03  0.49955963435E+03  0.00000000000E+00 0.  1.
        -15    1    1    2    0    0  0.71721701600E+01 -0.86093419851E+00  0.32841877588E+02  0.33673845711E+02  0.17770000000E+01 0. -1.
         15    1    1    2    0    0  0.47985700325E+01 -0.19667488815E+01  0.80960201359E+02  0.81145587117E+02  0.17770000000E+01 0.  1.
</event>
<event>
 6    1  0.1823098E-004  0.5022988E+03  0.7546771E-02  0.9394681E-01
        -11   -1    0    0    0    0  0.00000000000E+00  0.00000000000E+00  0.50000000000E+03  0.50000000000E+03  0.00000000000E+00 0.  1.
         11   -1    0    0    0    0 -0.00000000000E+00 -0.00000000000E+00 -0.50000000000E+03  0.50000000000E+03  0.00000000000E+00 0.  1.
        -11    1    1    2    0    0  0.57044383827E+01  0.55761463698E+01  0.30179339433E+03  0.30189880239E+03  0.00000000000E+00 0.  1.
         11    1    1    2    0    0 -0.15876393833E+02  0.38293562212E+02 -0.49597182785E+03  0.49770122645E+03  0.00000000000E+00 0.  1.
        -15    1    1    2    0    0  0.11556308195E+02 -0.16052481951E+02  0.10814082155E+03  0.10994919486E+03  0.17770000000E+01 0.  1.
         15    1    1    2    0    0 -0.13843527440E+01 -0.27817226631E+02  0.86037611975E+02  0.90450776300E+02  0.17770000000E+01 0. -1.
</event>
<event>
 6    1  0.1823098E-004  0.4914445E+03  0.7546771E-02  0.9419159E-01
        -11   -1    0    0    0    0  0.00000000000E+00  0.00000000000E+00  0.50000000000E+03  0.50000000000E+03  0.00000000000E+00 0.  1.
         11   -1    0    0    0    0 -0.00000000000E+00 -0.00000000000E+00 -0.50000000000E+03  0.50000000000E+03  0.00000000000E+00 0.  1.
        -11    1    1    2    0    0 -0.78408227735E+01  0.52491366677E+00  0.48922599005E+03  0.48928910000E+03  0.00000000000E+00 0.  1.
         11    1    1    2    0    0 -0.65178259224E+01 -0.42880258301E+01 -0.49366039056E+03  0.49372203762E+03  0.00000000000E+00 0.  1.
        -15    1    1    2    0    0  0.10991504767E+02  0.52533866900E+01  0.33144282445E+01  0.12749682833E+02  0.17770000000E+01 0.  1.
         15    1    1    2    0    0  0.33671439293E+01 -0.14902745266E+01  0.11199722623E+01  0.42391795519E+01  0.17770000000E+01 0. -1.
</event>
<event>
 6    1  0.1823098E-004  0.5010726E+03  0.7546771E-02  0.9397413E-01
        -11   -1    0    0    0    0  0.00000000000E+00  0.00000000000E+00  0.50000000000E+03  0.50000000000E+03  0.00000000000E+00 0.  1.
         11   -1    0    0    0    0 -0.00000000000E+00 -0.00000000000E+00 -0.50000000000E+03  0.50000000000E+03  0.00000000000E+00 0. -1.
        -11    1    1    2    0    0  0.73957688340E+01 -0.23856555832E+01  0.49886687465E+03  0.49892739689E+03  0.00000000000E+00 0.  1.
         11    1    1    2    0    0 -0.20995543912E+02  0.81906085674E+01 -0.15598326424E+03  0.15760291131E+03  0.00000000000E+00 0. -1.
        -15    1    1    2    0    0  0.13014140689E+02 -0.85221923267E+01 -0.22710948247E+03  0.22764856770E+03  0.17770000000E+01 0. -1.
         15    1    1    2    0    0  0.58563438874E+00  0.27172393424E+01 -0.11577412794E+03  0.11582112410E+03  0.17770000000E+01 0.  1.
</event>
<event>
 6    1  0.1823098E-004  0.4717746E+03  0.7546771E-02  0.9465280E-01
        -11   -1    0    0    0    0  0.00000000000E+00  0.00000000000E+00  0.50000000000E+03  0.50000000000E+03  0.00000000000E+00 0.  1.
         11   -1    0    0    0    0 -0.00000000000E+00 -0.00000000000E+00 -0.50000000000E+03  0.50000000000E+03  0.00000000000E+00 0.  1.
        -11    1    1    2    0    0 -0.76682019434E+01 -0.75880726808E+01  0.46691134171E+03  0.46703595278E+03  0.00000000000E+00 0.  1.
         11    1    1    2    0    0  0.32708363834E+02  0.35116928904E+02 -0.47486149636E+03  0.47728029132E+03  0.00000000000E+00 0.  1.
        -15    1    1    2    0    0 -0.58111362635E+01  0.99885565584E+01  0.66874997542E+01  0.13469259399E+02  0.17770000000E+01 0. -1.
         15    1    1    2    0    0 -0.19229025627E+02 -0.37517412782E+02  0.12626548933E+01  0.42214496501E+02  0.17770000000E+01 0.  1.
</event>
<event>
 6    1  0.1823098E-004  0.5023118E+03  0.7546771E-02  0.9394652E-01
        -11   -1    0    0    0    0  0.00000000000E+00  0.00000000000E+00  0.50000000000E+03  0.50000000000E+03  0.00000000000E+00 0. -1.
         11   -1    0    0    0    0 -0.00000000000E+00 -0.00000000000E+00 -0.50000000000E+03  0.50000000000E+03  0.00000000000E+00 0.  1.
        -11    1    1    2    0    0  0.54183549574E+01  0.58921628399E+01  0.49762380967E+03  0.49768818763E+03  0.00000000000E+00 0. -1.
         11    1    1    2    0    0  0.13117706353E+01  0.13604248300E+02 -0.40662771864E+03  0.40685734341E+03  0.00000000000E+00 0.  1.
        -15    1    1    2    0    0 -0.10902059155E+01 -0.33914331659E+01 -0.13837071030E+01  0.42145868366E+01  0.17770000000E+01 0.  1.
         15    1    1    2    0    0 -0.56399196771E+01 -0.16104977974E+02 -0.89612383924E+02  0.91239882130E+02  0.17770000000E+01 0. -1.
</event>
<event>
 6    1  0.1823098E-004  0.5013567E+03  0.7546771E-02  0.9396779E-01
        -11   -1    0    0    0    0  0.00000000000E+00  0.00000000000E+00  0.50000000000E+03  0.50000000000E+03  0.00000000000E+00 0. -1.
         11   -1    0    0    0    0 -0.00000000000E+00 -0.00000000000E+00 -0.50000000000E+03  0.50000000000E+03  0.00000000000E+00 0. -1.
        -11    1    1    2    0    0 -0.59201104530E+01 -0.74466909696E+01  0.49855256833E+03  0.49864332373E+03  0.00000000000E+00 0. -1.
         11    1    1    2    0    0 -0.53024427544E+01  0.48566452691E+01 -0.47118454614E+03  0.47123940776E+03  0.00000000000E+00 0. -1.
        -15    1    1    2    0    0  0.46878194421E+01  0.10337590122E+00 -0.79156500639E+01  0.93702498703E+01  0.17770000000E+01 0.  1.
         15    1    1    2    0    0  0.65347337653E+01  0.24866697993E+01 -0.19452372122E+02  0.20747018635E+02  0.17770000000E+01 0. -1.
</event>
<event>
 6    1  0.1823098E-004  0.5012780E+03  0.7546771E-02  0.9396955E-01
        -11   -1    0    0    0    0  0.00000000000E+00  0.00000000000E+00  0.50000000000E+03  0.50000000000E+03  0.00000000000E+00 0. -1.
         11   -1    0    0    0    0 -0.00000000000E+00 -0.00000000000E+00 -0.50000000000E+03  0.50000000000E+03  0.00000000000E+00 0.  1.
        -11    1    1    2    0    0 -0.20538198345E+01 -0.10362738510E+02  0.48460260630E+03  0.48471774318E+03  0.00000000000E+00 0. -1.
         11    1    1    2    0    0 -0.19631888263E+01  0.13255938903E+02 -0.49854189442E+03  0.49872196114E+03  0.00000000000E+00 0.  1.
        -15    1    1    2    0    0  0.29512606021E+01 -0.56972512954E+00  0.12763408612E+02  0.13232416796E+02  0.17770000000E+01 0.  1.
         15    1    1    2    0    0  0.10657480587E+01 -0.23234752641E+01  0.11758795149E+01  0.33278788832E+01  0.17770000000E+01 0. -1.
</event>
<event>
 6    1  0.1823098E-004  0.5001250E+03  0.7546771E-02  0.9399530E-01
        -11   -1    0    0    0    0  0.00000000000E+00  0.00000000000E+00  0.50000000000E+03  0.50000000000E+03  0.00000000000E+00 0.  1.
         11   -1    0    0    0    0 -0.00000000000E+00 -0.00000000000E+00 -0.50000000000E+03  0.50000000000E+03  0.00000000000E+00 0. -1.
        -11    1    1    2    0    0  0.41294648618E+01  0.12033127215E+02  0.49971311415E+03  0.49987502946E+03  0.00000000000E+00 0.  1.
         11    1    1    2    0    0  0.14511266374E+01 -0.11302179110E+02 -0.29815680397E+03  0.29837447072E+03  0.00000000000E+00 0. -1.
        -15    1    1    2    0    0 -0.50337099279E+01  0.41302200141E+00 -0.82178501080E+02  0.82352732752E+02  0.17770000000E+01 0. -1.
         15    1    1    2    0    0 -0.54688157132E+00 -0.11439701058E+01 -0.11937780909E+03  0.11939776706E+03  0.17770000000E+01 0.  1.
</event>
<event>
 6    1  0.1823098E-004  0.5066909E+03  0.7546771E-02  0.9384961E-01
        -11   -1    0    0    0    0  0.00000000000E+00  0.00000000000E+00  0.50000000000E+03  0.50000000000E+03  0.00000000000E+00 0.  1.
         11   -1    0    0    0    0 -0.00000000000E+00 -0.00000000000E+00 -0.50000000000E+03  0.50000000000E+03  0.00000000000E+00 0. -1.
        -11    1    1    2    0    0 -0.74348020239E+01 -0.17181911727E+01  0.49325006265E+03  0.49330908441E+03  0.00000000000E+00 0.  1.
         11    1    1    2    0    0 -0.23424359203E+02  0.49493620592E+02 -0.30000532996E+03  0.30496150100E+03  0.00000000000E+00 0. -1.
        -15    1    1    2    0    0  0.13755892829E+01 -0.46082971345E+01 -0.11166408998E+02  0.12287191187E+02  0.17770000000E+01 0.  1.
         15    1    1    2    0    0  0.29483571944E+02 -0.43167132284E+02 -0.18207832368E+03  0.18944222341E+03  0.17770000000E+01 0. -1.
</event>
<event>
 6    1  0.1823098E-004  0.4725053E+03  0.7546771E-02  0.9463524E-01
        -11   -1    0    0    0    0  0.00000000000E+00  0.00000000000E+00  0.50000000000E+03  0.50000000000E+03  0.00000000000E+00 0.  1.
         11   -1    0    0    0    0 -0.00000000000E+00 -0.00000000000E+00 -0.50000000000E+03  0.50000000000E+03  0.00000000000E+00 0. -1.
        -11    1    1    2    0    0 -0.82552615776E+00 -0.64819506826E+01  0.48367508441E+03  0.48371922068E+03  0.00000000000E+00 0.  1.
         11    1    1    2    0    0  0.43178766992E+02  0.25901072434E+02 -0.45998808156E+03  0.46273567687E+03  0.00000000000E+00 0. -1.
        -15    1    1    2    0    0 -0.66464581927E+01  0.52048106927E+00 -0.51411208831E+01  0.86043686570E+01  0.17770000000E+01 0.  1.
         15    1    1    2    0    0 -0.35706782642E+02 -0.19939602820E+02 -0.18545881962E+02  0.44940733795E+02  0.17770000000E+01 0. -1.
</event>
<event>
 6    1  0.1823098E-004  0.4882410E+03  0.7546771E-02  0.9426513E-01
        -11   -1    0    0    0    0  0.00000000000E+00  0.00000000000E+00  0.50000000000E+03  0.50000000000E+03  0.00000000000E+00 0.  1.
         11   -1    0    0    0    0 -0.00000000000E+00 -0.00000000000E+00 -0.50000000000E+03  0.50000000000E+03  0.00000000000E+00 0. -1.
        -11    1    1    2    0    0 -0.83086939399E+01 -0.32619503164E+00  0.48396676195E+03  0.48403818802E+03  0.00000000000E+00 0.  1.
         11    1    1    2    0    0 -0.52495214897E+01  0.13131934680E+02 -0.49245574308E+03  0.49265877043E+03  0.00000000000E+00 0. -1.
        -15    1    1    2    0    0  0.98674449901E+01 -0.78456353896E+01  0.99834886363E-01  0.12731384893E+02  0.17770000000E+01 0. -1.
         15    1    1    2    0    0  0.36907704395E+01 -0.49601042585E+01  0.83891462483E+01  0.10571656657E+02  0.17770000000E+01 0.  1.
</event>
<event>
 6    1  0.1823098E-004  0.5007859E+03  0.7546771E-02  0.9398053E-01
        -11   -1    0    0    0    0  0.00000000000E+00  0.00000000000E+00  0.50000000000E+03  0.50000000000E+03  0.00000000000E+00 0. -1.
         11   -1    0    0    0    0 -0.00000000000E+00 -0.00000000000E+00 -0.50000000000E+03  0.50000000000E+03  0.00000000000E+00 0.  1.
        -11    1    1    2    0    0 -0.92936797852E+01  0.19379242649E+01  0.49912383134E+03  0.49921410942E+03  0.00000000000E+00 0. -1.
         11    1    1    2    0    0  0.54497514212E+01  0.82251383533E+01 -0.32674572930E+02  0.34131809323E+02  0.00000000000E+00 0.  1.
        -15    1    1    2    0    0  0.11791633827E+01 -0.39287023480E+01 -0.69850717558E+02  0.69993611142E+02  0.17770000000E+01 0. -1.
         15    1    1    2    0    0  0.26647649814E+01 -0.62343602702E+01 -0.39659854085E+03  0.39666047012E+03  0.17770000000E+01 0.  1.
</event>
<event>
 6    1  0.1823098E-004  0.5124268E+03  0.7546771E-02  0.9372425E-01
        -11   -1    0    0    0    0  0.00000000000E+00  0.00000000000E+00  0.50000000000E+03  0.50000000000E+03  0.00000000000E+00 0. -1.
         11   -1    0    0    0    0 -0.00000000000E+00 -0.00000000000E+00 -0.50000000000E+03  0.50000000000E+03  0.00000000000E+00 0. -1.
        -11    1    1    2    0    0 -0.67821674179E+01  0.27612858538E+01  0.41155579565E+03  0.41162093658E+03  0.00000000000E+00 0. -1.
         11    1    1    2    0    0 -0.46037320852E+02  0.11628613458E+01 -0.48539349323E+03  0.48757320520E+03  0.00000000000E+00 0. -1.
        -15    1    1    2    0    0  0.51800995524E+02 -0.96565530976E+01  0.39359814373E+02  0.65794717657E+02  0.17770000000E+01 0. -1.
         15    1    1    2    0    0  0.10184927458E+01  0.57324058980E+01  0.34477883201E+02  0.35011140568E+02  0.17770000000E+01 0.  1.
</event>
<event>
 6    1  0.1823098E-004  0.5028055E+03  0.7546771E-02  0.9393554E-01
        -11   -1    0    0    0    0  0.00000000000E+00  0.00000000000E+00  0.50000000000E+03  0.50000000000E+03  0.00000000000E+00 0.  1.
         11   -1    0    0    0    0 -0.00000000000E+00 -0.00000000000E+00 -0.50000000000E+03  0.50000000000E+03  0.00000000000E+00 0.  1.
        -11    1    1    2    0    0  0.81099457316E+01 -0.12136242272E+02  0.49698019517E+03  0.49719450317E+03  0.00000000000E+00 0.  1.
         11    1    1    2    0    0  0.75665966734E+01  0.98627379128E+01 -0.45980132591E+03  0.45996933191E+03  0.00000000000E+00 0.  1.
        -15    1    1    2    0    0 -0.13734656383E+02  0.57421279753E+01 -0.34759421344E+02  0.37854826915E+02  0.17770000000E+01 0.  1.
         15    1    1    2    0    0 -0.19418860222E+01 -0.34686236164E+01 -0.24194479101E+01  0.49813380035E+01  0.17770000000E+01 0. -1.
</event>
<event>
 6    1  0.1823098E-004  0.5028643E+03  0.7546771E-02  0.9393423E-01
        -11   -1    0    0    0    0  0.00000000000E+00  0.00000000000E+00  0.50000000000E+03  0.50000000000E+03  0.00000000000E+00 0. -1.
         11   -1    0    0    0    0 -0.00000000000E+00 -0.00000000000E+00 -0.50000000000E+03  0.50000000000E+03  0.00000000000E+00 0. -1.
        -11    1    1    2    0    0 -0.58132561517E+00 -0.73264873545E+01  0.45636142515E+03  0.45642060178E+03  0.00000000000E+00 0. -1.
         11    1    1    2    0    0  0.10899106118E+02 -0.92776054627E+01 -0.49692965743E+03  0.49713574495E+03  0.00000000000E+00 0. -1.
        -15    1    1    2    0    0  0.16062935751E+01  0.19855137735E+01  0.27868858698E+01  0.41769493468E+01  0.17770000000E+01 0.  1.
         15    1    1    2    0    0 -0.11924074078E+02  0.14618579044E+02  0.37781346403E+02  0.42266703928E+02  0.17770000000E+01 0. -1.
</event>
<event>
 6    1  0.1823098E-004  0.5009793E+03  0.7546771E-02  0.9397621E-01
        -11   -1    0    0    0    0  0.00000000000E+00  0.00000000000E+00  0.50000000000E+03  0.50000000000E+03  0.00000000000E+00 0.  1.
         11   -1    0    0    0    0 -0.00000000000E+00 -0.00000000000E+00 -0.50000000000E+03  0.50000000000E+03  0.00000000000E+00 0.  1.
        -11    1    1    2    0    0  0.91541163594E+01 -0.59596808634E+01  0.49890114913E+03  0.49902071324E+03  0.00000000000E+00 0.  1.
         11    1    1    2    0    0  0.10393141606E+02 -0.38381793652E+01 -0.29116146134E+03  0.29137217709E+03  0.00000000000E+00 0.  1.
        -15    1    1    2    0    0  0.34263665172E+00  0.15848837633E+01 -0.36067076849E+01  0.43353576257E+01  0.17770000000E+01 0. -1.
         15    1    1    2    0    0 -0.19889894617E+02  0.82129764652E+01 -0.20413298011E+03  0.20527175204E+03  0.17770000000E+01 0.  1.
</event>
<event>
 6    1  0.1823098E-004  0.5001005E+03  0.7546771E-02  0.9399585E-01
        -11   -1    0    0    0    0  0.00000000000E+00  0.00000000000E+00  0.50000000000E+03  0.50000000000E+03  0.00000000000E+00 0.  1.
         11   -1    0    0    0    0 -0.00000000000E+00 -0.00000000000E+00 -0.50000000000E+03  0.50000000000E+03  0.00000000000E+00 0.  1.
        -11    1    1    2    0    0  0.71110117466E+01  0.34576580656E+01  0.49983694341E+03  0.49989948178E+03  0.00000000000E+00 0.  1.
         11    1    1    2    0    0 -0.59169959527E+01 -0.76643153962E+01 -0.26279977232E+03  0.26297808445E+03  0.00000000000E+00 0.  1.
        -15    1    1    2    0    0 -0.15266141503E+01  0.29656072693E+01 -0.10689175652E+03  0.10695854673E+03  0.17770000000E+01 0.  1.
         15    1    1    2    0    0  0.33259835639E+00  0.12410500613E+01 -0.13014541457E+03  0.13016388704E+03  0.17770000000E+01 0.  1.
</event>
<event>
 6    1  0.1823098E-004  0.5004348E+03  0.7546771E-02  0.9398837E-01
        -11   -1    0    0    0    0  0.00000000000E+00  0.00000000000E+00  0.50000000000E+03  0.50000000000E+03  0.00000000000E+00 0. -1.
         11   -1    0    0    0    0 -0.00000000000E+00 -0.00000000000E+00 -0.50000000000E+03  0.50000000000E+03  0.00000000000E+00 0.  1.
        -11    1    1    2    0    0 -0.13742023000E+01  0.67641575205E+01  0.44601885691E+03  0.44607226206E+03  0.00000000000E+00 0. -1.
         11    1    1    2    0    0  0.70590232659E+01 -0.38287744260E+01 -0.49950061513E+03  0.49956516475E+03  0.00000000000E+00 0.  1.
        -15    1    1    2    0    0 -0.37298286793E+01  0.11548033448E+01  0.34523080291E+02  0.34788590005E+02  0.17770000000E+01 0. -1.
         15    1    1    2    0    0 -0.19549922867E+01 -0.40901864394E+01  0.18958677929E+02  0.19573983186E+02  0.17770000000E+01 0.  1.
</event>
<event>
 6    1  0.1823098E-004  0.5016334E+03  0.7546771E-02  0.9396162E-01
        -11   -1    0    0    0    0  0.00000000000E+00  0.00000000000E+00  0.50000000000E+03  0.50000000000E+03  0.00000000000E+00 0. -1.
         11   -1    0    0    0    0 -0.00000000000E+00 -0.00000000000E+00 -0.50000000000E+03  0.50000000000E+03  0.00000000000E+00 0.  1.
        -11    1    1    2    0    0 -0.89625656271E+01 -0.43385091760E+01  0.49826713470E+03  0.49836661984E+03  0.00000000000E+00 0. -1.
         11    1    1    2    0    0  0.12424650849E+01 -0.86573303873E+01 -0.45758974076E+03  0.45767331574E+03  0.00000000000E+00 0.  1.
        -15    1    1    2    0    0  0.55987713125E+01  0.36569922597E+01 -0.17604810089E+02  0.18915784410E+02  0.17770000000E+01 0. -1.
         15    1    1    2    0    0  0.21213292297E+01  0.93388473036E+01 -0.23072583853E+02  0.25044280012E+02  0.17770000000E+01 0.  1.
</event>
<event>
 6    1  0.1823098E-004  0.5187963E+03  0.7546771E-02  0.9358707E-01
        -11   -1    0    0    0    0  0.00000000000E+00  0.00000000000E+00  0.50000000000E+03  0.50000000000E+03  0.00000000000E+00 0.  1.
         11   -1    0    0    0    0 -0.00000000000E+00 -0.00000000000E+00 -0.50000000000E+03  0.50000000000E+03  0.00000000000E+00 0. -1.
        -11    1    1    2    0    0  0.37860151631E+02 -0.74292168756E-01  0.47971196591E+03  0.48120366462E+03  0.00000000000E+00 0.  1.
         11    1    1    2    0    0  0.27496813044E+02 -0.26274504690E+02 -0.42503636289E+03  0.42673450072E+03  0.00000000000E+00 0. -1.
        -15    1    1    2    0    0 -0.16476706823E+02 -0.14811823923E+01 -0.19771090985E+02  0.25840463168E+02  0.17770000000E+01 0.  1.
         15    1    1    2    0    0 -0.48880257853E+02  0.27829979251E+02 -0.34904512034E+02  0.66221371491E+02  0.17770000000E+01 0. -1.
</event>
<event>
 6    1  0.1823098E-004  0.4916025E+03  0.7546771E-02  0.9418798E-01
        -11   -1    0    0    0    0  0.00000000000E+00  0.00000000000E+00  0.50000000000E+03  0.50000000000E+03  0.00000000000E+00 0.  1.
         11   -1    0    0    0    0 -0.00000000000E+00 -0.00000000000E+00 -0.50000000000E+03  0.50000000000E+03  0.00000000000E+00 0.  1.
        -11    1    1    2    0    0 -0.83088310856E+01 -0.90019149268E-01  0.49509874754E+03  0.49516847092E+03  0.00000000000E+00 0.  1.
         11    1    1    2    0    0 -0.12280346676E+01 -0.83036675710E+01 -0.48807161980E+03  0.48814379543E+03  0.00000000000E+00 0.  1.
        -15    1    1    2    0    0  0.80725745975E+01  0.47774869785E+01 -0.78039616227E+01  0.12330871359E+02  0.17770000000E+01 0.  1.
         15    1    1    2    0    0  0.14642911557E+01  0.36161997418E+01  0.77683387589E+00  0.43568622921E+01  0.17770000000E+01 0. -1.
</event>
<event>
 6    1  0.1823098E-004  0.4743843E+03  0.7546771E-02  0.9459024E-01
        -11   -1    0    0    0    0  0.00000000000E+00  0.00000000000E+00  0.50000000000E+03  0.50000000000E+03  0.00000000000E+00 0.  1.
         11   -1    0    0    0    0 -0.00000000000E+00 -0.00000000000E+00 -0.50000000000E+03  0.50000000000E+03  0.00000000000E+00 0.  1.
        -11    1    1    2    0    0  0.59778304677E+01  0.86291372375E+01  0.47222795014E+03  0.47234461292E+03  0.00000000000E+00 0.  1.
         11    1    1    2    0    0  0.34179709761E+02 -0.89671572543E+01 -0.47597104517E+03  0.47728094275E+03  0.00000000000E+00 0.  1.
        -15    1    1    2    0    0 -0.33388167284E+02 -0.71961800817E+01 -0.76298531495E+01  0.35041790914E+02  0.17770000000E+01 0.  1.
         15    1    1    2    0    0 -0.67693729442E+01  0.75342000985E+01  0.11372948188E+02  0.15332653412E+02  0.17770000000E+01 0. -1.
</event>
<event>
 6    1  0.1823098E-004  0.5007416E+03  0.7546771E-02  0.9398152E-01
        -11   -1    0    0    0    0  0.00000000000E+00  0.00000000000E+00  0.50000000000E+03  0.50000000000E+03  0.00000000000E+00 0. -1.
         11   -1    0    0    0    0 -0.00000000000E+00 -0.00000000000E+00 -0.50000000000E+03  0.50000000000E+03  0.00000000000E+00 0. -1.
        -11    1    1    2    0    0 -0.49622577840E+01  0.12722644545E+02  0.30400597984E+03  0.30431254569E+03  0.00000000000E+00 0. -1.
         11    1    1    2    0    0  0.26807700004E+02 -0.23835225519E+01 -0.49853248637E+03  0.49925842399E+03  0.00000000000E+00 0. -1.
        -15    1    1    2    0    0 -0.59027408273E+01 -0.72125746136E+01  0.10460340147E+03  0.10503281826E+03  0.17770000000E+01 0. -1.
         15    1    1    2    0    0 -0.15942701392E+02 -0.31265473791E+01  0.89923105061E+02  0.91396212061E+02  0.17770000000E+01 0.  1.
</event>
<event>
 6    1  0.1823098E-004  0.5034812E+03  0.7546771E-02  0.9392054E-01
        -11   -1    0    0    0    0  0.00000000000E+00  0.00000000000E+00  0.50000000000E+03  0.50000000000E+03  0.00000000000E+00 0.  1.
         11   -1    0    0    0    0 -0.00000000000E+00 -0.00000000000E+00 -0.50000000000E+03  0.50000000000E+03  0.00000000000E+00 0. -1.
        -11    1    1    2    0    0  0.89287857611E+01  0.35247154840E+01  0.44964812816E+03  0.44975058198E+03  0.00000000000E+00 0.  1.
         11    1    1    2    0    0  0.16559769829E+02 -0.53685977458E+00 -0.49624223846E+03  0.49651875435E+03  0.00000000000E+00 0. -1.
        -15    1    1    2    0    0 -0.88278404723E+01 -0.62343313936E+00  0.10363371515E+02  0.13743239591E+02  0.17770000000E+01 0. -1.
         15    1    1    2    0    0 -0.16660715118E+02 -0.23644225701E+01  0.36230738779E+02  0.39987424071E+02  0.17770000000E+01 0.  1.
</event>
<event>
 6    1  0.1823098E-004  0.5021612E+03  0.7546771E-02  0.9394987E-01
        -11   -1    0    0    0    0  0.00000000000E+00  0.00000000000E+00  0.50000000000E+03  0.50000000000E+03  0.00000000000E+00 0. -1.
         11   -1    0    0    0    0 -0.00000000000E+00 -0.00000000000E+00 -0.50000000000E+03  0.50000000000E+03  0.00000000000E+00 0.  1.
        -11    1    1    2    0    0 -0.60202714666E+01 -0.27362177017E+01  0.48978116896E+03  0.48982580988E+03  0.00000000000E+00 0. -1.
         11    1    1    2    0    0  0.86524578735E+01 -0.11460591566E+01 -0.49776225325E+03  0.49783876831E+03  0.00000000000E+00 0.  1.
        -15    1    1    2    0    0 -0.51453420811E+01  0.28759126866E+01  0.49470580665E+01  0.78978814517E+01  0.17770000000E+01 0.  1.
         15    1    1    2    0    0  0.25131556742E+01  0.10063641716E+01  0.30340262157E+01  0.44375403509E+01  0.17770000000E+01 0. -1.
</event>
<event>
 6    1  0.1823098E-004  0.5000913E+03  0.7546771E-02  0.9399606E-01
        -11   -1    0    0    0    0  0.00000000000E+00  0.00000000000E+00  0.50000000000E+03  0.50000000000E+03  0.00000000000E+00 0. -1.
         11   -1    0    0    0    0 -0.00000000000E+00 -0.00000000000E+00 -0.50000000000E+03  0.50000000000E+03  0.00000000000E+00 0. -1.
        -11    1    1    2    0    0  0.10068946946E+02  0.12326871811E+02  0.36895973641E+03  0.36930288728E+03  0.00000000000E+00 0. -1.
         11    1    1    2    0    0 -0.79034730540E+01 -0.17484264870E+02 -0.49954037052E+03  0.49990873786E+03  0.00000000000E+00 0. -1.
        -15    1    1    2    0    0 -0.68088735177E+00  0.37895180690E+01  0.56484943916E+02  0.56643893519E+02  0.17770000000E+01 0.  1.
         15    1    1    2    0    0 -0.14845865399E+01  0.13678749899E+01  0.74095690192E+02  0.74144481340E+02  0.17770000000E+01 0. -1.
</event>
<event>
 6    1  0.1823098E-004  0.5010218E+03  0.7546771E-02  0.9397526E-01
        -11   -1    0    0    0    0  0.00000000000E+00  0.00000000000E+00  0.50000000000E+03  0.50000000000E+03  0.00000000000E+00 0.  1.
         11   -1    0    0    0    0 -0.00000000000E+00 -0.00000000000E+00 -0.50000000000E+03  0.50000000000E+03  0.00000000000E+00 0.  1.
        -11    1    1    2    0    0  0.83727559964E+01  0.15922519568E+01  0.49890539803E+03  0.49897819040E+03  0.00000000000E+00 0.  1.
         11    1    1    2    0    0  0.16944953656E+01 -0.63455511371E+01 -0.45637018691E+03  0.45641744581E+03  0.00000000000E+00 0.  1.
        -15    1    1    2    0    0 -0.10310125445E+02  0.33103350709E+01 -0.32287013190E+02  0.34100820441E+02  0.17770000000E+01 0.  1.
         15    1    1    2    0    0  0.24287408260E+00  0.14429641094E+01 -0.10248197925E+02  0.10503543352E+02  0.17770000000E+01 0.  1.
</event>
<event>
 6    1  0.1823098E-004  0.5005874E+03  0.7546771E-02  0.9398496E-01
        -11   -1    0    0    0    0  0.00000000000E+00  0.00000000000E+00  0.50000000000E+03  0.50000000000E+03  0.00000000000E+00 0.  1.
         11   -1    0    0    0    0 -0.00000000000E+00 -0.00000000000E+00 -0.50000000000E+03  0.50000000000E+03  0.00000000000E+00 0.  1.
        -11    1    1    2    0    0  0.41649630889E+01 -0.87015544093E+00  0.29144653926E+03  0.29147759662E+03  0.00000000000E+00 0.  1.
         11    1    1    2    0    0  0.82291397309E+01  0.20604652741E+02 -0.49891946939E+03  0.49941256230E+03  0.00000000000E+00 0.  1.
        -15    1    1    2    0    0 -0.99214015999E+01 -0.55231056259E+01  0.83271221611E+02  0.84060650622E+02  0.17770000000E+01 0.  1.
         15    1    1    2    0    0 -0.24727012199E+01 -0.14211391674E+02  0.12420170852E+03  0.12504919045E+03  0.17770000000E+01 0. -1.
</event>
<event>
 6    1  0.1823098E-004  0.5004444E+03  0.7546771E-02  0.9398816E-01
        -11   -1    0    0    0    0  0.00000000000E+00  0.00000000000E+00  0.50000000000E+03  0.50000000000E+03  0.00000000000E+00 0.  1.
         11   -1    0    0    0    0 -0.00000000000E+00 -0.00000000000E+00 -0.50000000000E+03  0.50000000000E+03  0.00000000000E+00 0.  1.
        -11    1    1    2    0    0  0.66329444672E+01 -0.16086606540E+01  0.49950895334E+03  0.49955558070E+03  0.00000000000E+00 0.  1.
         11    1    1    2    0    0  0.25480916453E+01 -0.78784689318E+01 -0.92685733815E+02  0.93054867130E+02  0.00000000000E+00 0.  1.
        -15    1    1    2    0    0 -0.52563514302E+01  0.11265014432E+02 -0.37658111515E+03  0.37679042424E+03  0.17770000000E+01 0.  1.
         15    1    1    2    0    0 -0.39246846824E+01 -0.17778848458E+01 -0.30242104372E+02  0.30599127932E+02  0.17770000000E+01 0. -1.
</event>
<event>
 6    1  0.1823098E-004  0.5112466E+03  0.7546771E-02  0.9374990E-01
        -11   -1    0    0    0    0  0.00000000000E+00  0.00000000000E+00  0.50000000000E+03  0.50000000000E+03  0.00000000000E+00 0. -1.
         11   -1    0    0    0    0 -0.00000000000E+00 -0.00000000000E+00 -0.50000000000E+03  0.50000000000E+03  0.00000000000E+00 0. -1.
        -11    1    1    2    0    0  0.24197994996E+02 -0.65568182639E+01  0.48811001536E+03  0.48875343674E+03  0.00000000000E+00 0. -1.
         11    1    1    2    0    0 -0.31846890935E+02 -0.52056223742E+02 -0.26526756054E+03  0.27219653482E+03  0.00000000000E+00 0. -1.
        -15    1    1    2    0    0 -0.15527965731E+02  0.57650841972E+02 -0.12584157309E+03  0.13929822880E+03  0.17770000000E+01 0.  1.
         15    1    1    2    0    0  0.23176861671E+02  0.96220003402E+00 -0.97000881739E+02  0.99751799647E+02  0.17770000000E+01 0. -1.
</event>
<event>
 6    1  0.1823098E-004  0.5000331E+03  0.7546771E-02  0.9399736E-01
        -11   -1    0    0    0    0  0.00000000000E+00  0.00000000000E+00  0.50000000000E+03  0.50000000000E+03  0.00000000000E+00 0.  1.
         11   -1    0    0    0    0 -0.00000000000E+00 -0.00000000000E+00 -0.50000000000E+03  0.50000000000E+03  0.00000000000E+00 0.  1.
        -11    1    1    2    0    0 -0.59614512162E+01 -0.10431881793E+02  0.49982247539E+03  0.49996686887E+03  0.00000000000E+00 0.  1.
         11    1    1    2    0    0  0.32638163617E+01  0.78051342677E+01 -0.22929687353E+03  0.22945289021E+03  0.00000000000E+00 0.  1.
        -15    1    1    2    0    0  0.14111661818E+01  0.21107924088E+01 -0.13247819890E+03  0.13251444354E+03  0.17770000000E+01 0. -1.
         15    1    1    2    0    0  0.12864686726E+01  0.51595511667E+00 -0.13804740296E+03  0.13806579738E+03  0.17770000000E+01 0. -1.
</event>
<event>
 6    1  0.1823098E-004  0.5010878E+03  0.7546771E-02  0.9397379E-01
        -11   -1    0    0    0    0  0.00000000000E+00  0.00000000000E+00  0.50000000000E+03  0.50000000000E+03  0.00000000000E+00 0. -1.
         11   -1    0    0    0    0 -0.00000000000E+00 -0.00000000000E+00 -0.50000000000E+03  0.50000000000E+03  0.00000000000E+00 0. -1.
        -11    1    1    2    0    0  0.74568438042E+02  0.16734206571E+02  0.34762335472E+03  0.35592482685E+03  0.00000000000E+00 0. -1.
         11    1    1    2    0    0 -0.90390256037E+02  0.49361399800E+00 -0.49065537447E+03  0.49891215513E+03  0.00000000000E+00 0. -1.
        -15    1    1    2    0    0  0.60653504050E+01 -0.35984268835E+01  0.59862680865E+02  0.60302864284E+02  0.17770000000E+01 0. -1.
         15    1    1    2    0    0  0.97564675900E+01 -0.13629393685E+02  0.83169338882E+02  0.84860153731E+02  0.17770000000E+01 0.  1.
</event>
<event>
 6    1  0.1823098E-004  0.5024462E+03  0.7546771E-02  0.9394353E-01
        -11   -1    0    0    0    0  0.00000000000E+00  0.00000000000E+00  0.50000000000E+03  0.50000000000E+03  0.00000000000E+00 0. -1.
         11   -1    0    0    0    0 -0.00000000000E+00 -0.00000000000E+00 -0.50000000000E+03  0.50000000000E+03  0.00000000000E+00 0. -1.
        -11    1    1    2    0    0 -0.61010496851E+01  0.92920172587E+00  0.44572829653E+03  0.44577101807E+03  0.00000000000E+00 0. -1.
         11    1    1    2    0    0 -0.14634989880E+02 -0.60311879095E+01 -0.49730192557E+03  0.49755377934E+03  0.00000000000E+00 0. -1.
        -15    1    1    2    0    0  0.14016810126E+02  0.17311573146E+01  0.22765746784E+02  0.26849670899E+02  0.17770000000E+01 0.  1.
         15    1    1    2    0    0  0.67192294395E+01  0.33708288690E+01  0.28807882261E+02  0.29825531695E+02  0.17770000000E+01 0. -1.
</event>
<event>
 6    1  0.1823098E-004  0.5001784E+03  0.7546771E-02  0.9399411E-01
        -11   -1    0    0    0    0  0.00000000000E+00  0.00000000000E+00  0.50000000000E+03  0.50000000000E+03  0.00000000000E+00 0.  1.
         11   -1    0    0    0    0 -0.00000000000E+00 -0.00000000000E+00 -0.50000000000E+03  0.50000000000E+03  0.00000000000E+00 0.  1.
        -11    1    1    2    0    0  0.12588484145E+01  0.71440089991E+01  0.49976898871E+03  0.49982163182E+03  0.00000000000E+00 0.  1.
         11    1    1    2    0    0  0.51411819388E+01 -0.43427713093E+01 -0.38730568401E+03  0.38736414945E+03  0.00000000000E+00 0.  1.
        -15    1    1    2    0    0 -0.10982602478E+01 -0.19296655377E+01 -0.23567238304E+02  0.23738202015E+02  0.17770000000E+01 0. -1.
         15    1    1    2    0    0 -0.53017701055E+01 -0.87157215213E+00 -0.88896066392E+02  0.89076016711E+02  0.17770000000E+01 0.  1.
</event>
<event>
 6    1  0.1823098E-004  0.4961726E+03  0.7546771E-02  0.9408415E-01
        -11   -1    0    0    0    0  0.00000000000E+00  0.00000000000E+00  0.50000000000E+03  0.50000000000E+03  0.00000000000E+00 0. -1.
         11   -1    0    0    0    0 -0.00000000000E+00 -0.00000000000E+00 -0.50000000000E+03  0.50000000000E+03  0.00000000000E+00 0. -1.
        -11    1    1    2    0    0 -0.86822465939E+01 -0.19694790788E+02  0.49430504761E+03  0.49477342924E+03  0.00000000000E+00 0. -1.
         11    1    1    2    0    0  0.95816531816E+01  0.41222186827E+01 -0.43797924320E+01  0.11312972479E+02  0.00000000000E+00 0. -1.
        -15    1    1    2    0    0  0.24066243305E+02 -0.39892879716E+01 -0.32743793834E+03  0.32835020889E+03  0.17770000000E+01 0. -1.
         15    1    1    2    0    0 -0.24965649893E+02  0.19561860077E+02 -0.16248731683E+03  0.16556338939E+03  0.17770000000E+01 0.  1.
</event>
<event>
 6    1  0.1823098E-004  0.5015202E+03  0.7546771E-02  0.9396415E-01
        -11   -1    0    0    0    0  0.00000000000E+00  0.00000000000E+00  0.50000000000E+03  0.50000000000E+03  0.00000000000E+00 0. -1.
         11   -1    0    0    0    0 -0.00000000000E+00 -0.00000000000E+00 -0.50000000000E+03  0.50000000000E+03  0.00000000000E+00 0. -1.
        -11    1    1    2    0    0 -0.51021171152E+01 -0.59051580810E+01  0.49841874039E+03  0.49847983235E+03  0.00000000000E+00 0. -1.
         11    1    1    2    0    0  0.24806809412E+01  0.60331366483E+01 -0.47008119295E+03  0.47012645158E+03  0.00000000000E+00 0. -1.
        -15    1    1    2    0    0  0.32794589694E-02 -0.91209950058E+00 -0.28050082346E+02  0.28121109240E+02  0.17770000000E+01 0.  1.
         15    1    1    2    0    0  0.26181567150E+01  0.78412093327E+00 -0.28746509756E+00  0.32726068210E+01  0.17770000000E+01 0. -1.
</event>
<event>
 6    1  0.1823098E-004  0.5047386E+03  0.7546771E-02  0.9389269E-01
        -11   -1    0    0    0    0  0.00000000000E+00  0.00000000000E+00  0.50000000000E+03  0.50000000000E+03  0.00000000000E+00 0. -1.
         11   -1    0    0    0    0 -0.00000000000E+00 -0.00000000000E+00 -0.50000000000E+03  0.50000000000E+03  0.00000000000E+00 0. -1.
        -11    1    1    2    0    0  0.19401813566E+02  0.79808254254E+01  0.49481682931E+03  0.49526136384E+03  0.00000000000E+00 0. -1.
         11    1    1    2    0    0  0.15422026062E+02 -0.92587556344E+01 -0.39904410246E+03  0.39944931988E+03  0.00000000000E+00 0. -1.
        -15    1    1    2    0    0  0.10085220814E+01 -0.15614364839E+01  0.40095553486E+00  0.26026323257E+01  0.17770000000E+01 0. -1.
         15    1    1    2    0    0 -0.35832361708E+02  0.28393666930E+01 -0.96173682386E+02  0.10268668395E+03  0.17770000000E+01 0. -1.
</event>
<event>
 6    1  0.1823098E-004  0.5048750E+03  0.7546771E-02  0.9388967E-01
        -11   -1    0    0    0    0  0.00000000000E+00  0.00000000000E+00  0.50000000000E+03  0.50000000000E+03  0.00000000000E+00 0. -1.
         11   -1    0    0    0    0 -0.00000000000E+00 -0.00000000000E+00 -0.50000000000E+03  0.50000000000E+03  0.00000000000E+00 0.  1.
        -11    1    1    2    0    0  0.11759558856E+01 -0.75706454957E+01  0.48358522008E+03  0.48364590624E+03  0.00000000000E+00 0. -1.
         11    1    1    2    0    0  0.15620983275E+01 -0.89251424318E+01 -0.49504205615E+03  0.49512496976E+03  0.00000000000E+00 0.  1.
        -15    1    1    2    0    0 -0.72938836954E+00  0.20754526129E+01  0.38965649983E+00  0.28546579707E+01  0.17770000000E+01 0. -1.
         15    1    1    2    0    0 -0.20086658436E+01  0.14420335315E+02  0.11067179575E+02  0.18374466028E+02  0.17770000000E+01 0.  1.
</event>
<event>
 6    1  0.1823098E-004  0.5002081E+03  0.7546771E-02  0.9399344E-01
        -11   -1    0    0    0    0  0.00000000000E+00  0.00000000000E+00  0.50000000000E+03  0.50000000000E+03  0.00000000000E+00 0.  1.
         11   -1    0    0    0    0 -0.00000000000E+00 -0.00000000000E+00 -0.50000000000E+03  0.50000000000E+03  0.00000000000E+00 0.  1.
        -11    1    1    2    0    0 -0.11806442346E+02 -0.97259336216E+00  0.49965150826E+03  0.49979192443E+03  0.00000000000E+00 0.  1.
         11    1    1    2    0    0  0.75754088085E+01 -0.75475704547E+01 -0.26361649234E+03  0.26383329523E+03  0.00000000000E+00 0.  1.
        -15    1    1    2    0    0  0.34689131399E+01  0.95586255163E+01 -0.20681322194E+03  0.20707068160E+03  0.17770000000E+01 0.  1.
         15    1    1    2    0    0  0.76212039763E+00 -0.10384616994E+01 -0.29221793982E+02  0.29304098736E+02  0.17770000000E+01 0. -1.
</event>
<event>
 6    1  0.1823098E-004  0.4846527E+03  0.7546771E-02  0.9434821E-01
        -11   -1    0    0    0    0  0.00000000000E+00  0.00000000000E+00  0.50000000000E+03  0.50000000000E+03  0.00000000000E+00 0. -1.
         11   -1    0    0    0    0 -0.00000000000E+00 -0.00000000000E+00 -0.50000000000E+03  0.50000000000E+03  0.00000000000E+00 0.  1.
        -11    1    1    2    0    0 -0.34620431958E+00  0.10525749704E+02  0.48322515016E+03  0.48333989801E+03  0.00000000000E+00 0. -1.
         11    1    1    2    0    0  0.83612709032E+01  0.15223824707E+02 -0.48603447815E+03  0.48634472305E+03  0.00000000000E+00 0.  1.
        -15    1    1    2    0    0 -0.18739849711E+01 -0.22905825668E+02  0.33699695799E+01  0.23295988778E+02  0.17770000000E+01 0. -1.
         15    1    1    2    0    0 -0.61410816125E+01 -0.28437487426E+01 -0.56064158980E+00  0.70193901640E+01  0.17770000000E+01 0.  1.
</event>
<event>
 6    1  0.1823098E-004  0.4982237E+03  0.7546771E-02  0.9403793E-01
        -11   -1    0    0    0    0  0.00000000000E+00  0.00000000000E+00  0.50000000000E+03  0.50000000000E+03  0.00000000000E+00 0.  1.
         11   -1    0    0    0    0 -0.00000000000E+00 -0.00000000000E+00 -0.50000000000E+03  0.50000000000E+03  0.00000000000E+00 0. -1.
        -11    1    1    2    0    0 -0.39894722403E-01 -0.82116552188E+00  0.34931180023E+01  0.35885620771E+01  0.00000000000E+00 0.  1.
         11    1    1    2    0    0 -0.10094349489E+02 -0.16793273969E+02 -0.49953088873E+03  0.49991501152E+03  0.00000000000E+00 0. -1.
        -15    1    1    2    0    0  0.30999709998E+01  0.75752219905E+01  0.25882706636E+03  0.25896254906E+03  0.17770000000E+01 0.  1.
         15    1    1    2    0    0  0.70342732115E+01  0.10039217501E+02  0.23721070437E+03  0.23753387734E+03  0.17770000000E+01 0. -1.
</event>
<event>
 6    1  0.1823098E-004  0.5057318E+03  0.7546771E-02  0.9387075E-01
        -11   -1    0    0    0    0  0.00000000000E+00  0.00000000000E+00  0.50000000000E+03  0.50000000000E+03  0.00000000000E+00 0.  1.
         11   -1    0    0    0    0 -0.00000000000E+00 -0.00000000000E+00 -0.50000000000E+03  0.50000000000E+03  0.00000000000E+00 0.  1.
        -11    1    1    2    0    0  0.27209036892E+01 -0.20859818568E+02  0.49382031564E+03  0.49426818579E+03  0.00000000000E+00 0.  1.
         11    1    1    2    0    0  0.35039895465E+01  0.15342906444E+02 -0.47309534482E+03  0.47335704073E+03  0.00000000000E+00 0.  1.
        -15    1    1    2    0    0 -0.79078901390E+01  0.12869662083E+02 -0.72923850367E+01  0.16867114071E+02  0.17770000000E+01 0. -1.
         15    1    1    2    0    0  0.16829969032E+01 -0.73527499589E+01 -0.13432585782E+02  0.15507659409E+02  0.17770000000E+01 0.  1.
</event>
<event>
 6    1  0.1823098E-004  0.5084782E+03  0.7546771E-02  0.9381036E-01
        -11   -1    0    0    0    0  0.00000000000E+00  0.00000000000E+00  0.50000000000E+03  0.50000000000E+03  0.00000000000E+00 0.  1.
         11   -1    0    0    0    0 -0.00000000000E+00 -0.00000000000E+00 -0.50000000000E+03  0.50000000000E+03  0.00000000000E+00 0. -1.
        -11    1    1    2    0    0 -0.46891105798E+01  0.47199386715E+01  0.44678075867E+03  0.44683029429E+03  0.00000000000E+00 0.  1.
         11    1    1    2    0    0  0.70567050704E+01  0.34861024264E+02 -0.49023318834E+03  0.49152178695E+03  0.00000000000E+00 0. -1.
        -15    1    1    2    0    0  0.55460466920E+01 -0.15333712764E+02  0.25820949770E+02  0.30590203613E+02  0.17770000000E+01 0.  1.
         15    1    1    2    0    0 -0.79136411827E+01 -0.24247250171E+02  0.17631479895E+02  0.31057715143E+02  0.17770000000E+01 0. -1.
</event>
<event>
 6    1  0.1823098E-004  0.4986587E+03  0.7546771E-02  0.9402816E-01
        -11   -1    0    0    0    0  0.00000000000E+00  0.00000000000E+00  0.50000000000E+03  0.50000000000E+03  0.00000000000E+00 0.  1.
         11   -1    0    0    0    0 -0.00000000000E+00 -0.00000000000E+00 -0.50000000000E+03  0.50000000000E+03  0.00000000000E+00 0. -1.
        -11    1    1    2    0    0 -0.12602234564E+01 -0.11520859193E+02  0.49865304123E+03  0.49878770423E+03  0.00000000000E+00 0.  1.
         11    1    1    2    0    0 -0.28761298642E+01 -0.25513686217E+00 -0.10984062251E+01  0.30892902178E+01  0.00000000000E+00 0. -1.
        -15    1    1    2    0    0 -0.14646614337E+01  0.95603408341E+01 -0.92785352859E+02  0.93305009426E+02  0.17770000000E+01 0. -1.
         15    1    1    2    0    0  0.56010147544E+01  0.22156552216E+01 -0.40476928214E+03  0.40481799613E+03  0.17770000000E+01 0. -1.
</event>
<event>
 6    1  0.1823098E-004  0.5024344E+03  0.7546771E-02  0.9394379E-01
        -11   -1    0    0    0    0  0.00000000000E+00  0.00000000000E+00  0.50000000000E+03  0.50000000000E+03  0.00000000000E+00 0. -1.
         11   -1    0    0    0    0 -0.00000000000E+00 -0.00000000000E+00 -0.50000000000E+03  0.50000000000E+03  0.00000000000E+00 0.  1.
        -11    1    1    2    0    0 -0.10135840559E+02 -0.86293087303E+01  0.49738747179E+03  0.49756557088E+03  0.00000000000E+00 0. -1.
         11    1    1    2    0    0  0.13891183412E+02 -0.35754201305E+01 -0.47565975552E+03  0.47587598346E+03  0.00000000000E+00 0.  1.
        -15    1    1    2    0    0 -0.10990150922E+01  0.11294090165E+02 -0.19239017686E+02  0.22406736428E+02  0.17770000000E+01 0.  1.
         15    1    1    2    0    0 -0.26563277604E+01  0.91063869626E+00 -0.24886985752E+01  0.41517092389E+01  0.17770000000E+01 0. -1.
</event>
<event>
 6    1  0.1823098E-004  0.5001837E+03  0.7546771E-02  0.9399399E-01
        -11   -1    0    0    0    0  0.00000000000E+00  0.00000000000E+00  0.50000000000E+03  0.50000000000E+03  0.00000000000E+00 0. -1.
         11   -1    0    0    0    0 -0.00000000000E+00 -0.00000000000E+00 -0.50000000000E+03  0.50000000000E+03  0.00000000000E+00 0. -1.
        -11    1    1    2    0    0  0.13890484121E+02  0.47502361587E+01  0.49960071084E+03  0.49981634683E+03  0.00000000000E+00 0. -1.
         11    1    1    2    0    0 -0.97980938052E+01 -0.18905000185E+01 -0.94846026388E+02  0.95369520047E+02  0.00000000000E+00 0. -1.
        -15    1    1    2    0    0 -0.72163402080E-01 -0.49844441421E+00 -0.81375971387E+02  0.81396929319E+02  0.17770000000E+01 0. -1.
         15    1    1    2    0    0 -0.40202269133E+01 -0.23612917260E+01 -0.32337871306E+03  0.32341720380E+03  0.17770000000E+01 0. -1.
</event>
<event>
 6    1  0.1823098E-004  0.5058294E+03  0.7546771E-02  0.9386860E-01
        -11   -1    0    0    0    0  0.00000000000E+00  0.00000000000E+00  0.50000000000E+03  0.50000000000E+03  0.00000000000E+00 0.  1.
         11   -1    0    0    0    0 -0.00000000000E+00 -0.00000000000E+00 -0.50000000000E+03  0.50000000000E+03  0.00000000000E+00 0. -1.
        -11    1    1    2    0    0  0.78418584678E+01  0.16654388449E+01  0.49410558906E+03  0.49417061990E+03  0.00000000000E+00 0.  1.
         11    1    1    2    0    0 -0.24117479784E+01 -0.16464885543E+02 -0.47929659925E+03  0.47958538243E+03  0.00000000000E+00 0. -1.
        -15    1    1    2    0    0 -0.33455620282E+01  0.41316615135E+01  0.21656826247E+01  0.60092697042E+01  0.17770000000E+01 0. -1.
         15    1    1    2    0    0 -0.20845484612E+01  0.10667785184E+02 -0.16974672427E+02  0.20234727970E+02  0.17770000000E+01 0.  1.
</event>
<event>
 6    1  0.1823098E-004  0.5004481E+03  0.7546771E-02  0.9398808E-01
        -11   -1    0    0    0    0  0.00000000000E+00  0.00000000000E+00  0.50000000000E+03  0.50000000000E+03  0.00000000000E+00 0. -1.
         11   -1    0    0    0    0 -0.00000000000E+00 -0.00000000000E+00 -0.50000000000E+03  0.50000000000E+03  0.00000000000E+00 0. -1.
        -11    1    1    2    0    0 -0.53101575839E+01  0.72188991926E+01  0.49947153244E+03  0.49955192122E+03  0.00000000000E+00 0. -1.
         11    1    1    2    0    0 -0.91499467630E+01 -0.61988693165E+01 -0.29498508457E+03  0.29519205211E+03  0.00000000000E+00 0. -1.
        -15    1    1    2    0    0  0.37334427882E+01 -0.28609661732E+01 -0.29746472626E+02  0.30168428616E+02  0.17770000000E+01 0.  1.
         15    1    1    2    0    0  0.10726661559E+02  0.18409362972E+01 -0.17473997524E+03  0.17508759805E+03  0.17770000000E+01 0. -1.
</event>
<event>
 6    1  0.1823098E-004  0.5014185E+03  0.7546771E-02  0.9396641E-01
        -11   -1    0    0    0    0  0.00000000000E+00  0.00000000000E+00  0.50000000000E+03  0.50000000000E+03  0.00000000000E+00 0.  1.
         11   -1    0    0    0    0 -0.00000000000E+00 -0.00000000000E+00 -0.50000000000E+03  0.50000000000E+03  0.00000000000E+00 0. -1.
        -11    1    1    2    0    0 -0.91651980205E+00 -0.85316970650E+01  0.39494441545E+03  0.39503761993E+03  0.00000000000E+00 0.  1.
         11    1    1    2    0    0  0.12711386906E+02  0.12346889237E+02 -0.49826651790E+03  0.49858153585E+03  0.00000000000E+00 0. -1.
        -15    1    1    2    0    0 -0.32872972980E+01  0.14154399283E+01  0.87468790035E+02  0.87560018004E+02  0.17770000000E+01 0.  1.
         15    1    1    2    0    0 -0.85075698063E+01 -0.52306321005E+01  0.15853312410E+02  0.18820826219E+02  0.17770000000E+01 0. -1.
</event>
<event>
 6    1  0.1823098E-004  0.5000608E+03  0.7546771E-02  0.9399674E-01
        -11   -1    0    0    0    0  0.00000000000E+00  0.00000000000E+00  0.50000000000E+03  0.50000000000E+03  0.00000000000E+00 0.  1.
         11   -1    0    0    0    0 -0.00000000000E+00 -0.00000000000E+00 -0.50000000000E+03  0.50000000000E+03  0.00000000000E+00 0. -1.
        -11    1    1    2    0    0  0.59954210806E+01  0.22677115699E+00  0.29682973458E+03  0.29689036332E+03  0.00000000000E+00 0.  1.
         11    1    1    2    0    0 -0.88350846044E+01  0.14640736774E+01 -0.49985901958E+03  0.49993923799E+03  0.00000000000E+00 0. -1.
        -15    1    1    2    0    0  0.10152829980E+01 -0.29318584750E+01  0.56112903318E+02  0.56226703989E+02  0.17770000000E+01 0.  1.
         15    1    1    2    0    0  0.18243805258E+01  0.12410136406E+01  0.14691638168E+03  0.14694369470E+03  0.17770000000E+01 0.  1.
</event>
<event>
 6    1  0.1823098E-004  0.5126360E+03  0.7546771E-02  0.9371971E-01
        -11   -1    0    0    0    0  0.00000000000E+00  0.00000000000E+00  0.50000000000E+03  0.50000000000E+03  0.00000000000E+00 0. -1.
         11   -1    0    0    0    0 -0.00000000000E+00 -0.00000000000E+00 -0.50000000000E+03  0.50000000000E+03  0.00000000000E+00 0.  1.
        -11    1    1    2    0    0  0.18744078657E+02  0.96202341533E+01  0.48690839887E+03  0.48736401004E+03  0.00000000000E+00 0. -1.
         11    1    1    2    0    0  0.18629420768E+02  0.22507323018E+02 -0.44394138435E+03  0.44490177304E+03  0.00000000000E+00 0.  1.
        -15    1    1    2    0    0 -0.24876629679E+02 -0.19774110462E+02 -0.37626752899E+02  0.49282780070E+02  0.17770000000E+01 0.  1.
         15    1    1    2    0    0 -0.12496869745E+02 -0.12353446710E+02 -0.53402616151E+01  0.18451436859E+02  0.17770000000E+01 0. -1.
</event>
<event>
 6    1  0.1823098E-004  0.4959919E+03  0.7546771E-02  0.9408823E-01
        -11   -1    0    0    0    0  0.00000000000E+00  0.00000000000E+00  0.50000000000E+03  0.50000000000E+03  0.00000000000E+00 0.  1.
         11   -1    0    0    0    0 -0.00000000000E+00 -0.00000000000E+00 -0.50000000000E+03  0.50000000000E+03  0.00000000000E+00 0.  1.
        -11    1    1    2    0    0  0.20130914346E+02  0.26066279661E+01  0.49392934581E+03  0.49434628235E+03  0.00000000000E+00 0.  1.
         11    1    1    2    0    0 -0.88762280101E+01  0.14789998753E+01  0.13552487903E+01  0.91000859118E+01  0.00000000000E+00 0.  1.
        -15    1    1    2    0    0 -0.21314344080E+02  0.39543176129E+01 -0.35594202851E+03  0.35660597763E+03  0.17770000000E+01 0.  1.
         15    1    1    2    0    0  0.10059657744E+02 -0.80399454543E+01 -0.13934256609E+03  0.13994765411E+03  0.17770000000E+01 0.  1.
</event>
<event>
 6    1  0.1823098E-004  0.5014409E+03  0.7546771E-02  0.9396591E-01
        -11   -1    0    0    0    0  0.00000000000E+00  0.00000000000E+00  0.50000000000E+03  0.50000000000E+03  0.00000000000E+00 0.  1.
         11   -1    0    0    0    0 -0.00000000000E+00 -0.00000000000E+00 -0.50000000000E+03  0.50000000000E+03  0.00000000000E+00 0.  1.
        -11    1    1    2    0    0  0.24750305291E+02 -0.53287373096E+01  0.13351672687E+03  0.13589587708E+03  0.00000000000E+00 0.  1.
         11    1    1    2    0    0 -0.25889359162E+02 -0.33501620105E+02 -0.49675802131E+03  0.49855907293E+03  0.00000000000E+00 0.  1.
        -15    1    1    2    0    0 -0.39726532527E+01  0.27114104922E+02  0.27450456844E+03  0.27587474057E+03  0.17770000000E+01 0.  1.
         15    1    1    2    0    0  0.51117071243E+01  0.11716252493E+02  0.88736725997E+02  0.89670309422E+02  0.17770000000E+01 0.  1.
</event>
<event>
 6    1  0.1823098E-004  0.5014598E+03  0.7546771E-02  0.9396549E-01
        -11   -1    0    0    0    0  0.00000000000E+00  0.00000000000E+00  0.50000000000E+03  0.50000000000E+03  0.00000000000E+00 0. -1.
         11   -1    0    0    0    0 -0.00000000000E+00 -0.00000000000E+00 -0.50000000000E+03  0.50000000000E+03  0.00000000000E+00 0. -1.
        -11    1    1    2    0    0 -0.11063894729E+02  0.26112418267E+01  0.49841055027E+03  0.49854017388E+03  0.00000000000E+00 0. -1.
         11    1    1    2    0    0  0.11816474404E+02 -0.42214346689E+01 -0.46376085019E+03  0.46393057212E+03  0.00000000000E+00 0. -1.
        -15    1    1    2    0    0  0.54213047365E+01 -0.29619502027E+01 -0.13356275807E+02  0.14822669344E+02  0.17770000000E+01 0.  1.
         15    1    1    2    0    0 -0.61738844117E+01  0.45721430449E+01 -0.21293424271E+02  0.22706584661E+02  0.17770000000E+01 0. -1.
</event>
<event>
 6    1  0.1823098E-004  0.5005116E+03  0.7546771E-02  0.9398666E-01
        -11   -1    0    0    0    0  0.00000000000E+00  0.00000000000E+00  0.50000000000E+03  0.50000000000E+03  0.00000000000E+00 0. -1.
         11   -1    0    0    0    0 -0.00000000000E+00 -0.00000000000E+00 -0.50000000000E+03  0.50000000000E+03  0.00000000000E+00 0.  1.
        -11    1    1    2    0    0 -0.60824754690E+01  0.78238805798E+01  0.49939006514E+03  0.49948838503E+03  0.00000000000E+00 0. -1.
         11    1    1    2    0    0  0.17624974091E+02 -0.96708846599E+01 -0.34414925263E+03  0.34473594795E+03  0.00000000000E+00 0.  1.
        -15    1    1    2    0    0 -0.49943463464E+01  0.28146275627E+01 -0.66241815649E+02  0.66513167818E+02  0.17770000000E+01 0.  1.
         15    1    1    2    0    0 -0.65481522752E+01 -0.96762348257E+00 -0.88998996864E+02  0.89262499210E+02  0.17770000000E+01 0. -1.
</event>
<event>
 6    1  0.1823098E-004  0.5000725E+03  0.7546771E-02  0.9399647E-01
        -11   -1    0    0    0    0  0.00000000000E+00  0.00000000000E+00  0.50000000000E+03  0.50000000000E+03  0.00000000000E+00 0. -1.
         11   -1    0    0    0    0 -0.00000000000E+00 -0.00000000000E+00 -0.50000000000E+03  0.50000000000E+03  0.00000000000E+00 0. -1.
        -11    1    1    2    0    0  0.60430824753E+01  0.91415346612E+01  0.49980737268E+03  0.49992749103E+03  0.00000000000E+00 0. -1.
         11    1    1    2    0    0 -0.10795917317E+01  0.22366406098E+01 -0.10487027455E+03  0.10489967857E+03  0.00000000000E+00 0. -1.
        -15    1    1    2    0    0 -0.31478373750E+01 -0.10131140186E+02 -0.29649538176E+03  0.29669044139E+03  0.17770000000E+01 0. -1.
         15    1    1    2    0    0 -0.18156533685E+01 -0.12470350847E+01 -0.98441716369E+02  0.98482389006E+02  0.17770000000E+01 0.  1.
</event>
<event>
 6    1  0.1823098E-004  0.5029650E+03  0.7546771E-02  0.9393200E-01
        -11   -1    0    0    0    0  0.00000000000E+00  0.00000000000E+00  0.50000000000E+03  0.50000000000E+03  0.00000000000E+00 0. -1.
         11   -1    0    0    0    0 -0.00000000000E+00 -0.00000000000E+00 -0.50000000000E+03  0.50000000000E+03  0.00000000000E+00 0.  1.
        -11    1    1    2    0    0 -0.93756791990E+01  0.81604507104E+01  0.49687951153E+03  0.49703495380E+03  0.00000000000E+00 0. -1.
         11    1    1    2    0    0  0.13086473919E+02 -0.94495726259E+01 -0.21350946419E+02  0.26765895005E+02  0.00000000000E+00 0.  1.
        -15    1    1    2    0    0  0.26616516930E+01 -0.86213805987E+01 -0.86369451644E+02  0.86857656539E+02  0.17770000000E+01 0. -1.
         15    1    1    2    0    0 -0.63724464132E+01  0.99105025142E+01 -0.38915911347E+03  0.38934149466E+03  0.17770000000E+01 0.  1.
</event>
<event>
 6    1  0.1823098E-004  0.5087769E+03  0.7546771E-02  0.9380382E-01
        -11   -1    0    0    0    0  0.00000000000E+00  0.00000000000E+00  0.50000000000E+03  0.50000000000E+03  0.00000000000E+00 0.  1.
         11   -1    0    0    0    0 -0.00000000000E+00 -0.00000000000E+00 -0.50000000000E+03  0.50000000000E+03  0.00000000000E+00 0.  1.
        -11    1    1    2    0    0 -0.22355434584E+02 -0.17088547910E+00  0.42249176442E+03  0.42308283546E+03  0.00000000000E+00 0.  1.
         11    1    1    2    0    0  0.47134045332E+02 -0.39019289070E+02 -0.48739715333E+03  0.49122307379E+03  0.00000000000E+00 0.  1.
        -15    1    1    2    0    0 -0.17103297529E+02  0.39840476720E+01  0.33487492441E+02  0.37854528147E+02  0.17770000000E+01 0. -1.
         15    1    1    2    0    0 -0.76753132191E+01  0.35206126877E+02  0.31417896469E+02  0.47839562605E+02  0.17770000000E+01 0.  1.
</event>
<event>
 6    1  0.1823098E-004  0.5014480E+03  0.7546771E-02  0.9396575E-01
        -11   -1    0    0    0    0  0.00000000000E+00  0.00000000000E+00  0.50000000000E+03  0.50000000000E+03  0.00000000000E+00 0.  1.
         11   -1    0    0    0    0 -0.00000000000E+00 -0.00000000000E+00 -0.50000000000E+03  0.50000000000E+03  0.00000000000E+00 0. -1.
        -11    1    1    2    0    0  0.21562860406E+02  0.11268771918E+02  0.25398808346E+03  0.25515071764E+03  0.00000000000E+00 0.  1.
         11    1    1    2    0    0 -0.49567493136E+02  0.24835277052E+02 -0.49545971954E+03  0.49855196424E+03  0.00000000000E+00 0. -1.
        -15    1    1    2    0    0  0.67808404898E+01 -0.16228895356E+02  0.12469908345E+03  0.12594592484E+03  0.17770000000E+01 0. -1.
         15    1    1    2    0    0  0.21223792241E+02 -0.19875153614E+02  0.11677255263E+03  0.12035139328E+03  0.17770000000E+01 0.  1.
</event>
<event>
 6    1  0.1823098E-004  0.5060979E+03  0.7546771E-02  0.9386268E-01
        -11   -1    0    0    0    0  0.00000000000E+00  0.00000000000E+00  0.50000000000E+03  0.50000000000E+03  0.00000000000E+00 0. -1.
         11   -1    0    0    0    0 -0.00000000000E+00 -0.00000000000E+00 -0.50000000000E+03  0.50000000000E+03  0.00000000000E+00 0.  1.
        -11    1    1    2    0    0  0.93797854093E+01 -0.13844034868E+01  0.49381106608E+03  0.49390208132E+03  0.00000000000E+00 0. -1.
         11    1    1    2    0    0 -0.24552519108E+02 -0.10857794996E+02 -0.47015171060E+03  0.47091756060E+03  0.00000000000E+00 0.  1.
        -15    1    1    2    0    0  0.15957052740E+02  0.26951262885E+01 -0.15344374069E+02  0.22371830109E+02  0.17770000000E+01 0. -1.
         15    1    1    2    0    0 -0.78431904062E+00  0.95470721941E+01 -0.83149814160E+01  0.12808527971E+02  0.17770000000E+01 0.  1.
</event>
<event>
 6    1  0.1823098E-004  0.5048144E+03  0.7546771E-02  0.9389101E-01
        -11   -1    0    0    0    0  0.00000000000E+00  0.00000000000E+00  0.50000000000E+03  0.50000000000E+03  0.00000000000E+00 0.  1.
         11   -1    0    0    0    0 -0.00000000000E+00 -0.00000000000E+00 -0.50000000000E+03  0.50000000000E+03  0.00000000000E+00 0. -1.
        -11    1    1    2    0    0 -0.39667197765E+01  0.17608109412E+02  0.49485655160E+03  0.49518560868E+03  0.00000000000E+00 0.  1.
         11    1    1    2    0    0 -0.16418154866E+02 -0.23113813269E+02 -0.45490115242E+03  0.45578378936E+03  0.00000000000E+00 0. -1.
        -15    1    1    2    0    0  0.12768229902E+02  0.11313844265E+02 -0.17261577235E+02  0.24334143596E+02  0.17770000000E+01 0.  1.
         15    1    1    2    0    0  0.76166447399E+01 -0.58081404080E+01 -0.22693821947E+02  0.24696458363E+02  0.17770000000E+01 0. -1.
</event>
<event>
 6    1  0.1823098E-004  0.5046796E+03  0.7546771E-02  0.9389399E-01
        -11   -1    0    0    0    0  0.00000000000E+00  0.00000000000E+00  0.50000000000E+03  0.50000000000E+03  0.00000000000E+00 0. -1.
         11   -1    0    0    0    0 -0.00000000000E+00 -0.00000000000E+00 -0.50000000000E+03  0.50000000000E+03  0.00000000000E+00 0. -1.
        -11    1    1    2    0    0  0.28737866655E+01  0.11851252615E+02  0.48722259628E+03  0.48737518317E+03  0.00000000000E+00 0. -1.
         11    1    1    2    0    0  0.23983105918E+01 -0.16460839774E+02 -0.49504096368E+03  0.49532036790E+03  0.00000000000E+00 0. -1.
        -15    1    1    2    0    0 -0.31506543780E+01 -0.10896488597E+00  0.10576332158E+02  0.11178328465E+02  0.17770000000E+01 0.  1.
         15    1    1    2    0    0 -0.21214428793E+01  0.47185520451E+01 -0.27579647627E+01  0.61261204628E+01  0.17770000000E+01 0. -1.
</event>
<event>
 6    1  0.1823098E-004  0.4917090E+03  0.7546771E-02  0.9418555E-01
        -11   -1    0    0    0    0  0.00000000000E+00  0.00000000000E+00  0.50000000000E+03  0.50000000000E+03  0.00000000000E+00 0. -1.
         11   -1    0    0    0    0 -0.00000000000E+00 -0.00000000000E+00 -0.50000000000E+03  0.50000000000E+03  0.00000000000E+00 0.  1.
        -11    1    1    2    0    0  0.49409585229E+01  0.98267199931E+01  0.49077947211E+03  0.49090270700E+03  0.00000000000E+00 0. -1.
         11    1    1    2    0    0 -0.13477170546E+02 -0.46379869961E+01 -0.49236107629E+03  0.49256732991E+03  0.00000000000E+00 0.  1.
        -15    1    1    2    0    0  0.21549055064E+01 -0.72871053243E+01 -0.28276515131E+01  0.83005339484E+01  0.17770000000E+01 0.  1.
         15    1    1    2    0    0  0.63813065168E+01  0.20983723273E+01  0.44092556935E+01  0.82294291452E+01  0.17770000000E+01 0. -1.
</event>
<event>
 6    1  0.1823098E-004  0.5034348E+03  0.7546771E-02  0.9392157E-01
        -11   -1    0    0    0    0  0.00000000000E+00  0.00000000000E+00  0.50000000000E+03  0.50000000000E+03  0.00000000000E+00 0. -1.
         11   -1    0    0    0    0 -0.00000000000E+00 -0.00000000000E+00 -0.50000000000E+03  0.50000000000E+03  0.00000000000E+00 0.  1.
        -11    1    1    2    0    0 -0.16230517117E+02  0.92420124555E+01  0.49621386266E+03  0.49656524443E+03  0.00000000000E+00 0. -1.
         11    1    1    2    0    0  0.36084592326E+02  0.11445081415E+02 -0.41987527692E+03  0.42157838638E+03  0.00000000000E+00 0.  1.
        -15    1    1    2    0    0 -0.11055143150E+02 -0.15581512498E+02 -0.47838030124E+02  0.51542551130E+02  0.17770000000E+01 0.  1.
         15    1    1    2    0    0 -0.87989320590E+01 -0.51055813731E+01 -0.28500555610E+02  0.30313818064E+02  0.17770000000E+01 0.  1.
</event>
<event>
 6    1  0.1823098E-004  0.5023683E+03  0.7546771E-02  0.9394526E-01
        -11   -1    0    0    0    0  0.00000000000E+00  0.00000000000E+00  0.50000000000E+03  0.50000000000E+03  0.00000000000E+00 0.  1.
         11   -1    0    0    0    0 -0.00000000000E+00 -0.00000000000E+00 -0.50000000000E+03  0.50000000000E+03  0.00000000000E+00 0. -1.
        -11    1    1    2    0    0 -0.39675699174E+02  0.14680268575E+02  0.49583026277E+03  0.49763171208E+03  0.00000000000E+00 0.  1.
         11    1    1    2    0    0  0.28808005872E+02 -0.34769453393E+02 -0.37228061994E+03  0.37500890133E+03  0.00000000000E+00 0. -1.
        -15    1    1    2    0    0  0.46110427535E+01  0.60882057742E+01 -0.97243263694E+01  0.12491926079E+02  0.17770000000E+01 0.  1.
         15    1    1    2    0    0  0.62566505486E+01  0.14000979044E+02 -0.11382531646E+03  0.11486746052E+03  0.17770000000E+01 0. -1.
</event>
<event>
 6    1  0.1823098E-004  0.5006137E+03  0.7546771E-02  0.9398437E-01
        -11   -1    0    0    0    0  0.00000000000E+00  0.00000000000E+00  0.50000000000E+03  0.50000000000E+03  0.00000000000E+00 0.  1.
         11   -1    0    0    0    0 -0.00000000000E+00 -0.00000000000E+00 -0.50000000000E+03  0.50000000000E+03  0.00000000000E+00 0. -1.
        -11    1    1    2    0    0 -0.64760727184E+01 -0.63702371105E+01  0.49930363695E+03  0.49938626464E+03  0.00000000000E+00 0.  1.
         11    1    1    2    0    0  0.15720237629E+02  0.14130574404E+02 -0.36116830184E+03  0.36178631989E+03  0.00000000000E+00 0. -1.
        -15    1    1    2    0    0 -0.82739531511E+01 -0.66043982792E+01 -0.90390038102E+02  0.91025233284E+02  0.17770000000E+01 0.  1.
         15    1    1    2    0    0 -0.97021175953E+00 -0.11559390142E+01 -0.47745297010E+02  0.47802182183E+02  0.17770000000E+01 0. -1.
</event>
<event>
 6    1  0.1823098E-004  0.4901858E+03  0.7546771E-02  0.9422042E-01
        -11   -1    0    0    0    0  0.00000000000E+00  0.00000000000E+00  0.50000000000E+03  0.50000000000E+03  0.00000000000E+00 0. -1.
         11   -1    0    0    0    0 -0.00000000000E+00 -0.00000000000E+00 -0.50000000000E+03  0.50000000000E+03  0.00000000000E+00 0. -1.
        -11    1    1    2    0    0 -0.56120401313E+01  0.45454987392E+01  0.49275329705E+03  0.49280621781E+03  0.00000000000E+00 0. -1.
         11    1    1    2    0    0 -0.23891856625E+01  0.10193842747E+02 -0.48760990592E+03  0.48772230110E+03  0.00000000000E+00 0. -1.
        -15    1    1    2    0    0  0.74026953010E+01 -0.58406192406E+01 -0.35938692079E+01  0.10246284971E+02  0.17770000000E+01 0.  1.
         15    1    1    2    0    0  0.59853049281E+00 -0.88987222459E+01 -0.15495219248E+01  0.92251961256E+01  0.17770000000E+01 0. -1.
</event>
<event>
 6    1  0.1979093E-004  0.5013758E+03  0.7546771E-02  0.9396736E-01
        -11   -1    0    0    0    0  0.00000000000E+00  0.00000000000E+00  0.50000000000E+03  0.50000000000E+03  0.00000000000E+00 0. -1.
         11   -1    0    0    0    0 -0.00000000000E+00 -0.00000000000E+00 -0.50000000000E+03  0.50000000000E+03  0.00000000000E+00 0.  1.
        -11    1    1    2    0    0  0.11239303133E+03  0.77769515231E+02  0.40049072886E+03  0.42317031428E+03  0.00000000000E+00 0. -1.
         11    1    1    2    0    0 -0.12733697344E+03 -0.75475431342E+02 -0.47614578495E+03  0.49862416113E+03  0.00000000000E+00 0.  1.
        -15    1    1    2    0    0  0.18669633131E+01  0.38002103105E+01  0.28284095050E+02  0.28654404761E+02  0.17770000000E+01 0.  1.
         15    1    1    2    0    0  0.13076978801E+02 -0.60942941994E+01  0.47370961042E+02  0.49551119820E+02  0.17770000000E+01 0. -1.
</event>
<event>
 6    1  0.1823098E-004  0.5060662E+03  0.7546771E-02  0.9386337E-01
        -11   -1    0    0    0    0  0.00000000000E+00  0.00000000000E+00  0.50000000000E+03  0.50000000000E+03  0.00000000000E+00 0.  1.
         11   -1    0    0    0    0 -0.00000000000E+00 -0.00000000000E+00 -0.50000000000E+03  0.50000000000E+03  0.00000000000E+00 0.  1.
        -11    1    1    2    0    0 -0.20642005373E+01 -0.82862734878E+01  0.49385992670E+03  0.49393375107E+03  0.00000000000E+00 0.  1.
         11    1    1    2    0    0 -0.23825567414E+02  0.75335089591E+00 -0.45681981245E+03  0.45744132547E+03  0.00000000000E+00 0.  1.
        -15    1    1    2    0    0  0.98134179875E+01 -0.40821446609E+01 -0.80332201588E+01  0.13440886606E+02  0.17770000000E+01 0.  1.
         15    1    1    2    0    0  0.16076349964E+02  0.11615067253E+02 -0.29006894084E+02  0.35184036847E+02  0.17770000000E+01 0. -1.
</event>
<event>
 6    1  0.1823098E-004  0.5007085E+03  0.7546771E-02  0.9398226E-01
        -11   -1    0    0    0    0  0.00000000000E+00  0.00000000000E+00  0.50000000000E+03  0.50000000000E+03  0.00000000000E+00 0.  1.
         11   -1    0    0    0    0 -0.00000000000E+00 -0.00000000000E+00 -0.50000000000E+03  0.50000000000E+03  0.00000000000E+00 0.  1.
        -11    1    1    2    0    0  0.91509635882E+01 -0.37460981296E+01  0.28981720497E+03  0.28998583704E+03  0.00000000000E+00 0.  1.
         11    1    1    2    0    0 -0.10967044903E+02 -0.14781720048E+02 -0.49895211799E+03  0.49929148938E+03  0.00000000000E+00 0.  1.
        -15    1    1    2    0    0  0.16909438728E+01 -0.24556486753E+01  0.60964451755E+02  0.61063177188E+02  0.17770000000E+01 0. -1.
         15    1    1    2    0    0  0.12513744239E+00  0.20983466853E+02  0.14817046126E+03  0.14965949639E+03  0.17770000000E+01 0.  1.
</event>
<event>
 6    1  0.1823098E-004  0.5007776E+03  0.7546771E-02  0.9398071E-01
        -11   -1    0    0    0    0  0.00000000000E+00  0.00000000000E+00  0.50000000000E+03  0.50000000000E+03  0.00000000000E+00 0.  1.
         11   -1    0    0    0    0 -0.00000000000E+00 -0.00000000000E+00 -0.50000000000E+03  0.50000000000E+03  0.00000000000E+00 0.  1.
        -11    1    1    2    0    0  0.10110092957E+02  0.28665996578E+01  0.31369525321E+03  0.31387122083E+03  0.00000000000E+00 0.  1.
         11    1    1    2    0    0  0.87912016617E+01 -0.40120555914E+01 -0.49912881721E+03  0.49922235325E+03  0.00000000000E+00 0.  1.
        -15    1    1    2    0    0 -0.63515727713E+01 -0.53480059522E+01  0.92373696791E+02  0.92763145872E+02  0.17770000000E+01 0. -1.
         15    1    1    2    0    0 -0.12549721847E+02  0.64934618859E+01  0.93059867204E+02  0.94143280051E+02  0.17770000000E+01 0.  1.
</event>
<event>
 6    1  0.1823098E-004  0.5079595E+03  0.7546771E-02  0.9382174E-01
        -11   -1    0    0    0    0  0.00000000000E+00  0.00000000000E+00  0.50000000000E+03  0.50000000000E+03  0.00000000000E+00 0. -1.
         11   -1    0    0    0    0 -0.00000000000E+00 -0.00000000000E+00 -0.50000000000E+03  0.50000000000E+03  0.00000000000E+00 0. -1.
        -11    1    1    2    0    0 -0.63936811641E+01  0.89700971565E+01  0.46576007013E+03  0.46589031406E+03  0.00000000000E+00 0. -1.
         11    1    1    2    0    0  0.36862152272E+02  0.82959799584E+00 -0.49065704561E+03  0.49204048909E+03  0.00000000000E+00 0. -1.
        -15    1    1    2    0    0 -0.12724214761E+02 -0.64900736037E+01  0.17032554270E+02  0.22300052256E+02  0.17770000000E+01 0.  1.
         15    1    1    2    0    0 -0.17744256347E+02 -0.33096215487E+01  0.78644212070E+01  0.19769144595E+02  0.17770000000E+01 0. -1.
</event>
<event>
 6    1  0.1823098E-004  0.5018051E+03  0.7546771E-02  0.9395780E-01
        -11   -1    0    0    0    0  0.00000000000E+00  0.00000000000E+00  0.50000000000E+03  0.50000000000E+03  0.00000000000E+00 0.  1.
         11   -1    0    0    0    0 -0.00000000000E+00 -0.00000000000E+00 -0.50000000000E+03  0.50000000000E+03  0.00000000000E+00 0. -1.
        -11    1    1    2    0    0 -0.22702073298E+02 -0.75771760492E+01  0.49761968476E+03  0.49819488996E+03  0.00000000000E+00 0.  1.
         11    1    1    2    0    0 -0.71582616198E+01 -0.18728929429E+02 -0.12639283846E+03  0.12797329066E+03  0.00000000000E+00 0. -1.
        -15    1    1    2    0    0  0.24249875931E+02  0.22052499852E+02 -0.22048159019E+03  0.22291177307E+03  0.17770000000E+01 0. -1.
         15    1    1    2    0    0  0.56104589866E+01  0.42536056260E+01 -0.15074525610E+03  0.15092004631E+03  0.17770000000E+01 0.  1.
</event>
<event>
 6    1  0.1823098E-004  0.5027644E+03  0.7546771E-02  0.9393645E-01
        -11   -1    0    0    0    0  0.00000000000E+00  0.00000000000E+00  0.50000000000E+03  0.50000000000E+03  0.00000000000E+00 0.  1.
         11   -1    0    0    0    0 -0.00000000000E+00 -0.00000000000E+00 -0.50000000000E+03  0.50000000000E+03  0.00000000000E+00 0. -1.
        -11    1    1    2    0    0 -0.89169865989E-01  0.91552041267E+01  0.49715125332E+03  0.49723555222E+03  0.00000000000E+00 0.  1.
         11    1    1    2    0    0 -0.94867916734E+01  0.13623323842E+01 -0.47687645505E+03  0.47697275451E+03  0.00000000000E+00 0. -1.
        -15    1    1    2    0    0  0.48078342755E+01 -0.53816294012E+01 -0.51930237717E+01  0.90665555932E+01  0.17770000000E+01 0.  1.
         15    1    1    2    0    0  0.47681272639E+01 -0.51359071097E+01 -0.15081774493E+02  0.16725137676E+02  0.17770000000E+01 0. -1.
</event>
<event>
 6    1  0.1823098E-004  0.4787453E+03  0.7546771E-02  0.9448666E-01
        -11   -1    0    0    0    0  0.00000000000E+00  0.00000000000E+00  0.50000000000E+03  0.50000000000E+03  0.00000000000E+00 0. -1.
         11   -1    0    0    0    0 -0.00000000000E+00 -0.00000000000E+00 -0.50000000000E+03  0.50000000000E+03  0.00000000000E+00 0. -1.
        -11    1    1    2    0    0  0.92816326098E+01 -0.25649855311E+01  0.48811716054E+03  0.48821213654E+03  0.00000000000E+00 0. -1.
         11    1    1    2    0    0  0.13683503702E+02 -0.19505256487E+02 -0.46938685818E+03  0.46999118709E+03  0.00000000000E+00 0. -1.
        -15    1    1    2    0    0 -0.96934041220E+00  0.10603646146E+02 -0.11773010578E+02  0.15973053543E+02  0.17770000000E+01 0.  1.
         15    1    1    2    0    0 -0.21995795899E+02  0.11466595873E+02 -0.69572917772E+01  0.25823622829E+02  0.17770000000E+01 0. -1.
</event>
<event>
 6    1  0.1823098E-004  0.5011971E+03  0.7546771E-02  0.9397135E-01
        -11   -1    0    0    0    0  0.00000000000E+00  0.00000000000E+00  0.50000000000E+03  0.50000000000E+03  0.00000000000E+00 0.  1.
         11   -1    0    0    0    0 -0.00000000000E+00 -0.00000000000E+00 -0.50000000000E+03  0.50000000000E+03  0.00000000000E+00 0. -1.
        -11    1    1    2    0    0  0.19220853950E+02 -0.68572143783E+01  0.49838521457E+03  0.49880285155E+03  0.00000000000E+00 0.  1.
         11    1    1    2    0    0 -0.16864042623E+02  0.19283276990E+02 -0.13072592932E+03  0.13321227159E+03  0.00000000000E+00 0. -1.
        -15    1    1    2    0    0 -0.37228878966E+01 -0.16704490139E+01 -0.11824102026E+03  0.11832475183E+03  0.17770000000E+01 0. -1.
         15    1    1    2    0    0  0.13660765694E+01 -0.10755613598E+02 -0.24941826498E+03  0.24966012502E+03  0.17770000000E+01 0. -1.
</event>
<event>
 6    1  0.1823098E-004  0.5015897E+03  0.7546771E-02  0.9396260E-01
        -11   -1    0    0    0    0  0.00000000000E+00  0.00000000000E+00  0.50000000000E+03  0.50000000000E+03  0.00000000000E+00 0. -1.
         11   -1    0    0    0    0 -0.00000000000E+00 -0.00000000000E+00 -0.50000000000E+03  0.50000000000E+03  0.00000000000E+00 0. -1.
        -11    1    1    2    0    0 -0.23295772467E+01 -0.42051618202E+01  0.34641389684E+03  0.34644725174E+03  0.00000000000E+00 0. -1.
         11    1    1    2    0    0 -0.25638349607E+02  0.10663972748E+02 -0.49763621555E+03  0.49841032124E+03  0.00000000000E+00 0. -1.
        -15    1    1    2    0    0  0.64377940058E+01 -0.68073337351E+01  0.20047488280E+02  0.22200101342E+02  0.17770000000E+01 0. -1.
         15    1    1    2    0    0  0.21530132848E+02  0.34852280689E+00  0.13117483043E+03  0.13294232568E+03  0.17770000000E+01 0.  1.
</event>
<event>
 6    1  0.1823098E-004  0.4864278E+03  0.7546771E-02  0.9430701E-01
        -11   -1    0    0    0    0  0.00000000000E+00  0.00000000000E+00  0.50000000000E+03  0.50000000000E+03  0.00000000000E+00 0.  1.
         11   -1    0    0    0    0 -0.00000000000E+00 -0.00000000000E+00 -0.50000000000E+03  0.50000000000E+03  0.00000000000E+00 0.  1.
        -11    1    1    2    0    0  0.50525245738E+01  0.47876549424E+01  0.48787215038E+03  0.48792180189E+03  0.00000000000E+00 0.  1.
         11    1    1    2    0    0  0.14798802618E+02 -0.63654359139E+01 -0.48487468569E+03  0.48514223085E+03  0.00000000000E+00 0.  1.
        -15    1    1    2    0    0 -0.22313132936E+01 -0.53153336545E+01  0.33502151754E+01  0.69002319957E+01  0.17770000000E+01 0.  1.
         15    1    1    2    0    0 -0.17620013898E+02  0.68931146260E+01 -0.63476798658E+01  0.20035735267E+02  0.17770000000E+01 0. -1.
</event>
<event>
 6    1  0.1823098E-004  0.5034460E+03  0.7546771E-02  0.9392132E-01
        -11   -1    0    0    0    0  0.00000000000E+00  0.00000000000E+00  0.50000000000E+03  0.50000000000E+03  0.00000000000E+00 0.  1.
         11   -1    0    0    0    0 -0.00000000000E+00 -0.00000000000E+00 -0.50000000000E+03  0.50000000000E+03  0.00000000000E+00 0.  1.
        -11    1    1    2    0    0  0.85561685608E+01  0.11900463870E+01  0.49647889137E+03  0.49655403916E+03  0.00000000000E+00 0.  1.
         11    1    1    2    0    0 -0.20126385560E+02  0.13070437802E+02 -0.41887070862E+03  0.41955759829E+03  0.00000000000E+00 0.  1.
        -15    1    1    2    0    0  0.19319276771E+02 -0.64840765631E+01 -0.44868950560E+02  0.49311846013E+02  0.17770000000E+01 0. -1.
         15    1    1    2    0    0 -0.77490597717E+01 -0.77764076262E+01 -0.32739232189E+02  0.34576516543E+02  0.17770000000E+01 0.  1.
</event>
<event>
 6    1  0.1823098E-004  0.5019644E+03  0.7546771E-02  0.9395425E-01
        -11   -1    0    0    0    0  0.00000000000E+00  0.00000000000E+00  0.50000000000E+03  0.50000000000E+03  0.00000000000E+00 0.  1.
         11   -1    0    0    0    0 -0.00000000000E+00 -0.00000000000E+00 -0.50000000000E+03  0.50000000000E+03  0.00000000000E+00 0.  1.
        -11    1    1    2    0    0  0.52764688058E+00 -0.95839163957E+01  0.31959195689E+03  0.31973606110E+03  0.00000000000E+00 0.  1.
         11    1    1    2    0    0 -0.30782354764E+02 -0.37767818778E+01 -0.49706906407E+03  0.49803561308E+03  0.00000000000E+00 0.  1.
        -15    1    1    2    0    0  0.10594388411E+02  0.15972337091E+02  0.11657771611E+03  0.11815616040E+03  0.17770000000E+01 0.  1.
         15    1    1    2    0    0  0.19660319472E+02 -0.26116388173E+01  0.60899391066E+02  0.64072165410E+02  0.17770000000E+01 0. -1.
</event>
<event>
 6    1  0.1823098E-004  0.5002450E+03  0.7546771E-02  0.9399262E-01
        -11   -1    0    0    0    0  0.00000000000E+00  0.00000000000E+00  0.50000000000E+03  0.50000000000E+03  0.00000000000E+00 0.  1.
         11   -1    0    0    0    0 -0.00000000000E+00 -0.00000000000E+00 -0.50000000000E+03  0.50000000000E+03  0.00000000000E+00 0.  1.
        -11    1    1    2    0    0  0.40131559802E+01 -0.37023390205E+00  0.28422694029E+03  0.28425551197E+03  0.00000000000E+00 0.  1.
         11    1    1    2    0    0  0.72014682372E+01  0.54521751287E+01 -0.49967340226E+03  0.49975503628E+03  0.00000000000E+00 0.  1.
        -15    1    1    2    0    0 -0.77044548932E+01  0.46623975503E+00  0.85837318738E+02  0.86201966461E+02  0.17770000000E+01 0.  1.
         15    1    1    2    0    0 -0.35101693242E+01 -0.55481809817E+01  0.12960914323E+03  0.12978748529E+03  0.17770000000E+01 0. -1.
</event>
<event>
 6    1  0.1823098E-004  0.4978828E+03  0.7546771E-02  0.9404560E-01
        -11   -1    0    0    0    0  0.00000000000E+00  0.00000000000E+00  0.50000000000E+03  0.50000000000E+03  0.00000000000E+00 0.  1.
         11   -1    0    0    0    0 -0.00000000000E+00 -0.00000000000E+00 -0.50000000000E+03  0.50000000000E+03  0.00000000000E+00 0.  1.
        -11    1    1    2    0    0 -0.70696657673E+01  0.63165159202E+01  0.49815470780E+03  0.49824491111E+03  0.00000000000E+00 0.  1.
         11    1    1    2    0    0 -0.25465685999E+01 -0.33900219077E+01 -0.97970985621E+00  0.43516768689E+01  0.00000000000E+00 0.  1.
        -15    1    1    2    0    0  0.46031129503E+01  0.28572730937E+01 -0.10911517606E+03  0.10926404730E+03  0.17770000000E+01 0. -1.
         15    1    1    2    0    0  0.50131214169E+01 -0.57837671062E+01 -0.38805982189E+03  0.38813936471E+03  0.17770000000E+01 0.  1.
</event>
<event>
 6    1  0.1823098E-004  0.5072036E+03  0.7546771E-02  0.9383834E-01
        -11   -1    0    0    0    0  0.00000000000E+00  0.00000000000E+00  0.50000000000E+03  0.50000000000E+03  0.00000000000E+00 0.  1.
         11   -1    0    0    0    0 -0.00000000000E+00 -0.00000000000E+00 -0.50000000000E+03  0.50000000000E+03  0.00000000000E+00 0. -1.
        -11    1    1    2    0    0 -0.38064384805E+01 -0.46987375467E+01  0.44859014691E+03  0.44863090287E+03  0.00000000000E+00 0.  1.
         11    1    1    2    0    0 -0.24823646961E+02 -0.20996612383E+02 -0.49172275616E+03  0.49279644896E+03  0.00000000000E+00 0. -1.
        -15    1    1    2    0    0  0.28324503652E+01  0.52395230699E+00  0.23732257469E+01  0.41336703469E+01  0.17770000000E+01 0. -1.
         15    1    1    2    0    0  0.25797635077E+02  0.25171397623E+02  0.40759383506E+02  0.54438977825E+02  0.17770000000E+01 0.  1.
</event>
<event>
 6    1  0.1823098E-004  0.5009713E+03  0.7546771E-02  0.9397639E-01
        -11   -1    0    0    0    0  0.00000000000E+00  0.00000000000E+00  0.50000000000E+03  0.50000000000E+03  0.00000000000E+00 0.  1.
         11   -1    0    0    0    0 -0.00000000000E+00 -0.00000000000E+00 -0.50000000000E+03  0.50000000000E+03  0.00000000000E+00 0.  1.
        -11    1    1    2    0    0 -0.15344212970E+01 -0.78595714128E+01  0.34790454294E+03  0.34799669296E+03  0.00000000000E+00 0.  1.
         11    1    1    2    0    0  0.11282012143E+02 -0.11889369300E+02 -0.49875948783E+03  0.49902872422E+03  0.00000000000E+00 0.  1.
        -15    1    1    2    0    0 -0.45028853813E+01  0.17216759960E+02  0.13075945255E+03  0.13197683494E+03  0.17770000000E+01 0.  1.
         15    1    1    2    0    0 -0.52447054649E+01  0.25321807534E+01  0.20095492331E+02  0.20997747874E+02  0.17770000000E+01 0. -1.
</event>
<event>
 6    1  0.1823098E-004  0.5028811E+03  0.7546771E-02  0.9393386E-01
        -11   -1    0    0    0    0  0.00000000000E+00  0.00000000000E+00  0.50000000000E+03  0.50000000000E+03  0.00000000000E+00 0.  1.
         11   -1    0    0    0    0 -0.00000000000E+00 -0.00000000000E+00 -0.50000000000E+03  0.50000000000E+03  0.00000000000E+00 0. -1.
        -11    1    1    2    0    0  0.31508738312E+01 -0.12362427424E+02  0.46814546597E+03  0.46831926603E+03  0.00000000000E+00 0.  1.
         11    1    1    2    0    0  0.40737340320E+01  0.14347782230E+02 -0.49689510635E+03  0.49711890014E+03  0.00000000000E+00 0. -1.
        -15    1    1    2    0    0 -0.30833312369E+00  0.63393385348E+01  0.18147817092E+02  0.19307596344E+02  0.17770000000E+01 0. -1.
         15    1    1    2    0    0 -0.69162747395E+01 -0.83246933413E+01  0.10601823282E+02  0.15254237490E+02  0.17770000000E+01 0. -1.
</event>
<event>
 6    1  0.1823098E-004  0.5013196E+03  0.7546771E-02  0.9396862E-01
        -11   -1    0    0    0    0  0.00000000000E+00  0.00000000000E+00  0.50000000000E+03  0.50000000000E+03  0.00000000000E+00 0.  1.
         11   -1    0    0    0    0 -0.00000000000E+00 -0.00000000000E+00 -0.50000000000E+03  0.50000000000E+03  0.00000000000E+00 0. -1.
        -11    1    1    2    0    0  0.39075234225E+00  0.96573206084E+01  0.30901101884E+03  0.30916213593E+03  0.00000000000E+00 0.  1.
         11    1    1    2    0    0  0.69421555241E+01 -0.30140272572E+02 -0.49772027355E+03  0.49868035880E+03  0.00000000000E+00 0. -1.
        -15    1    1    2    0    0 -0.41629856315E+00 -0.28647087301E+01  0.10253531397E+03  0.10259156009E+03  0.17770000000E+01 0.  1.
         15    1    1    2    0    0 -0.69166093032E+01  0.23347660694E+02  0.86173940742E+02  0.89565945181E+02  0.17770000000E+01 0. -1.
</event>
<event>
 6    1  0.1823098E-004  0.5021973E+03  0.7546771E-02  0.9394906E-01
        -11   -1    0    0    0    0  0.00000000000E+00  0.00000000000E+00  0.50000000000E+03  0.50000000000E+03  0.00000000000E+00 0. -1.
         11   -1    0    0    0    0 -0.00000000000E+00 -0.00000000000E+00 -0.50000000000E+03  0.50000000000E+03  0.00000000000E+00 0.  1.
        -11    1    1    2    0    0 -0.32171746060E+01  0.18079449385E+02  0.18881782783E+03  0.18970869461E+03  0.00000000000E+00 0. -1.
         11    1    1    2    0    0 -0.22656410851E+02 -0.22228515328E+02 -0.49678979225E+03  0.49780268935E+03  0.00000000000E+00 0.  1.
        -15    1    1    2    0    0  0.64234243454E+01  0.14689551327E+02  0.24829305172E+03  0.24881647968E+03  0.17770000000E+01 0. -1.
         15    1    1    2    0    0  0.19450161112E+02 -0.10540485384E+02  0.59678912691E+02  0.63672136358E+02  0.17770000000E+01 0.  1.
</event>
<event>
 6    1  0.1823098E-004  0.5024618E+03  0.7546771E-02  0.9394318E-01
        -11   -1    0    0    0    0  0.00000000000E+00  0.00000000000E+00  0.50000000000E+03  0.50000000000E+03  0.00000000000E+00 0.  1.
         11   -1    0    0    0    0 -0.00000000000E+00 -0.00000000000E+00 -0.50000000000E+03  0.50000000000E+03  0.00000000000E+00 0.  1.
        -11    1    1    2    0    0 -0.13068588098E+02 -0.20622819766E+01  0.49736223628E+03  0.49753817450E+03  0.00000000000E+00 0.  1.
         11    1    1    2    0    0 -0.19568879178E+02  0.22880611251E+02 -0.21526275318E+03  0.21735803714E+03  0.00000000000E+00 0.  1.
        -15    1    1    2    0    0  0.20722980675E+02 -0.59335408028E+01 -0.12728192866E+03  0.12910652937E+03  0.17770000000E+01 0. -1.
         15    1    1    2    0    0  0.11914486600E+02 -0.14884788472E+02 -0.15481755444E+03  0.15599725899E+03  0.17770000000E+01 0.  1.
</event>
<event>
 6    1  0.1823098E-004  0.5050551E+03  0.7546771E-02  0.9388569E-01
        -11   -1    0    0    0    0  0.00000000000E+00  0.00000000000E+00  0.50000000000E+03  0.50000000000E+03  0.00000000000E+00 0. -1.
         11   -1    0    0    0    0 -0.00000000000E+00 -0.00000000000E+00 -0.50000000000E+03  0.50000000000E+03  0.00000000000E+00 0.  1.
        -11    1    1    2    0    0  0.41275603248E+01  0.28232894374E+02  0.49412173941E+03  0.49494487211E+03  0.00000000000E+00 0. -1.
         11    1    1    2    0    0  0.24557419712E+02 -0.91957082418E+01 -0.38087824343E+03  0.38177986357E+03  0.00000000000E+00 0.  1.
        -15    1    1    2    0    0 -0.17443950309E+02  0.80681346850E+01 -0.43582921943E+02  0.47665658643E+02  0.17770000000E+01 0. -1.
         15    1    1    2    0    0 -0.11241029728E+02 -0.27105320817E+02 -0.69660574035E+02  0.75609605672E+02  0.17770000000E+01 0.  1.
</event>
<event>
 6    1  0.1823098E-004  0.5007889E+03  0.7546771E-02  0.9398046E-01
        -11   -1    0    0    0    0  0.00000000000E+00  0.00000000000E+00  0.50000000000E+03  0.50000000000E+03  0.00000000000E+00 0. -1.
         11   -1    0    0    0    0 -0.00000000000E+00 -0.00000000000E+00 -0.50000000000E+03  0.50000000000E+03  0.00000000000E+00 0. -1.
        -11    1    1    2    0    0  0.32155216155E+01  0.11923304253E+01  0.13433077437E+03  0.13437454436E+03  0.00000000000E+00 0. -1.
         11    1    1    2    0    0  0.31572835325E+02  0.30549395463E+02 -0.49727417307E+03  0.49921109031E+03  0.00000000000E+00 0. -1.
        -15    1    1    2    0    0 -0.47296658254E+01 -0.14395114336E+02  0.13026262358E+03  0.13115295607E+03  0.17770000000E+01 0.  1.
         15    1    1    2    0    0 -0.30058691115E+02 -0.17346611552E+02  0.23268077512E+03  0.23526140925E+03  0.17770000000E+01 0. -1.
</event>
<event>
 6    1  0.3034734E-004  0.5000555E+03  0.7546771E-02  0.9399686E-01
        -11   -1    0    0    0    0  0.00000000000E+00  0.00000000000E+00  0.50000000000E+03  0.50000000000E+03  0.00000000000E+00 0. -1.
         11   -1    0    0    0    0 -0.00000000000E+00 -0.00000000000E+00 -0.50000000000E+03  0.50000000000E+03  0.00000000000E+00 0. -1.
        -11    1    1    2    0    0 -0.68761249706E+00 -0.27854215169E+00  0.20279105900E+02  0.20292671899E+02  0.00000000000E+00 0. -1.
         11    1    1    2    0    0  0.66551087144E+01 -0.10456178346E+02 -0.49979088356E+03  0.49994454636E+03  0.00000000000E+00 0. -1.
        -15    1    1    2    0    0 -0.78189459849E+01  0.91208777949E+01  0.33696118565E+03  0.33717995892E+03  0.17770000000E+01 0. -1.
         15    1    1    2    0    0  0.18514497676E+01  0.16138427029E+01  0.14255059201E+03  0.14258282283E+03  0.17770000000E+01 0.  1.
</event>
<event>
 6    1  0.1823098E-004  0.5032173E+03  0.7546771E-02  0.9392639E-01
        -11   -1    0    0    0    0  0.00000000000E+00  0.00000000000E+00  0.50000000000E+03  0.50000000000E+03  0.00000000000E+00 0.  1.
         11   -1    0    0    0    0 -0.00000000000E+00 -0.00000000000E+00 -0.50000000000E+03  0.50000000000E+03  0.00000000000E+00 0. -1.
        -11    1    1    2    0    0 -0.77454620958E+00  0.90897219258E+01  0.25852816645E+03  0.25868907169E+03  0.00000000000E+00 0.  1.
         11    1    1    2    0    0  0.40706397263E+02  0.44275208549E+02 -0.49312855227E+03  0.49678272306E+03  0.00000000000E+00 0. -1.
        -15    1    1    2    0    0 -0.97768501550E+01 -0.13884969592E+02  0.36661897733E+02  0.40442943191E+02  0.17770000000E+01 0.  1.
         15    1    1    2    0    0 -0.30155000899E+02 -0.39479960883E+02  0.19793848809E+03  0.20408526205E+03  0.17770000000E+01 0. -1.
</event>
<event>
 6    1  0.1823098E-004  0.5084367E+03  0.7546771E-02  0.9381127E-01
        -11   -1    0    0    0    0  0.00000000000E+00  0.00000000000E+00  0.50000000000E+03  0.50000000000E+03  0.00000000000E+00 0.  1.
         11   -1    0    0    0    0 -0.00000000000E+00 -0.00000000000E+00 -0.50000000000E+03  0.50000000000E+03  0.00000000000E+00 0. -1.
        -11    1    1    2    0    0 -0.27006215111E+01 -0.11873518827E+02  0.49141243742E+03  0.49156327920E+03  0.00000000000E+00 0.  1.
         11    1    1    2    0    0  0.22710876476E+02  0.79375911061E+01 -0.44237195159E+03  0.44302565707E+03  0.00000000000E+00 0. -1.
        -15    1    1    2    0    0 -0.22019343953E+02 -0.13337209040E+02 -0.29074895853E+02  0.38874669786E+02  0.17770000000E+01 0.  1.
         15    1    1    2    0    0  0.20090889887E+01  0.17273136761E+02 -0.19965589971E+02  0.26536393953E+02  0.17770000000E+01 0. -1.
</event>
<event>
 6    1  0.1823098E-004  0.5041519E+03  0.7546771E-02  0.9390567E-01
        -11   -1    0    0    0    0  0.00000000000E+00  0.00000000000E+00  0.50000000000E+03  0.50000000000E+03  0.00000000000E+00 0.  1.
         11   -1    0    0    0    0 -0.00000000000E+00 -0.00000000000E+00 -0.50000000000E+03  0.50000000000E+03  0.00000000000E+00 0.  1.
        -11    1    1    2    0    0 -0.73347380937E+01 -0.13794757656E+01  0.25153553053E+03  0.25164622877E+03  0.00000000000E+00 0.  1.
         11    1    1    2    0    0 -0.58094852688E+02  0.19368600135E+01 -0.49242930750E+03  0.49584814835E+03  0.00000000000E+00 0.  1.
        -15    1    1    2    0    0  0.18123156388E+01 -0.99667364240E+01  0.20828001468E+02  0.23228940938E+02  0.17770000000E+01 0. -1.
         15    1    1    2    0    0  0.63617275143E+02  0.94093521761E+01  0.22006577550E+03  0.22927668194E+03  0.17770000000E+01 0.  1.
</event>
<event>
 6    1  0.1823098E-004  0.5005326E+03  0.7546771E-02  0.9398619E-01
        -11   -1    0    0    0    0  0.00000000000E+00  0.00000000000E+00  0.50000000000E+03  0.50000000000E+03  0.00000000000E+00 0. -1.
         11   -1    0    0    0    0 -0.00000000000E+00 -0.00000000000E+00 -0.50000000000E+03  0.50000000000E+03  0.00000000000E+00 0.  1.
        -11    1    1    2    0    0 -0.98158799688E+01 -0.31896660466E+01  0.49936070017E+03  0.49946735063E+03  0.00000000000E+00 0. -1.
         11    1    1    2    0    0  0.67610336478E+01 -0.92126101365E+01 -0.39219329651E+03  0.39235974002E+03  0.00000000000E+00 0.  1.
        -15    1    1    2    0    0  0.33057996446E+01  0.26589594645E+01 -0.26076910783E+02  0.26479452066E+02  0.17770000000E+01 0.  1.
         15    1    1    2    0    0 -0.25095332352E+00  0.97433167186E+01 -0.81090492883E+02  0.81693457286E+02  0.17770000000E+01 0. -1.
</event>
<event>
 6    1  0.1823098E-004  0.5153764E+03  0.7546771E-02  0.9366046E-01
        -11   -1    0    0    0    0  0.00000000000E+00  0.00000000000E+00  0.50000000000E+03  0.50000000000E+03  0.00000000000E+00 0.  1.
         11   -1    0    0    0    0 -0.00000000000E+00 -0.00000000000E+00 -0.50000000000E+03  0.50000000000E+03  0.00000000000E+00 0. -1.
        -11    1    1    2    0    0 -0.60899583555E+01  0.70693725237E+01  0.45254128195E+03  0.45263746585E+03  0.00000000000E+00 0.  1.
         11    1    1    2    0    0 -0.41535416647E+02 -0.49729075997E+01 -0.48281477442E+03  0.48462359315E+03  0.00000000000E+00 0. -1.
        -15    1    1    2    0    0  0.20209938873E+02 -0.41156914690E+01  0.28378735677E+02  0.35126783415E+02  0.17770000000E+01 0. -1.
         15    1    1    2    0    0  0.27415436130E+02  0.20192265450E+01  0.18947567893E+01  0.27612157582E+02  0.17770000000E+01 0.  1.
</event>
<event>
 6    1  0.1823098E-004  0.5005112E+03  0.7546771E-02  0.9398667E-01
        -11   -1    0    0    0    0  0.00000000000E+00  0.00000000000E+00  0.50000000000E+03  0.50000000000E+03  0.00000000000E+00 0. -1.
         11   -1    0    0    0    0 -0.00000000000E+00 -0.00000000000E+00 -0.50000000000E+03  0.50000000000E+03  0.00000000000E+00 0. -1.
        -11    1    1    2    0    0 -0.49490112106E+01 -0.58674225014E+01  0.49942984283E+03  0.49948882596E+03  0.00000000000E+00 0. -1.
         11    1    1    2    0    0 -0.10024027757E+01  0.74977180941E+01 -0.75061600204E+02  0.75441794870E+02  0.00000000000E+00 0. -1.
        -15    1    1    2    0    0  0.81711072108E+01  0.53557467998E+01 -0.79381627228E+02  0.80000321795E+02  0.17770000000E+01 0.  1.
         15    1    1    2    0    0 -0.22196932246E+01 -0.69860423925E+01 -0.34498661539E+03  0.34506905737E+03  0.17770000000E+01 0. -1.
</event>
<event>
 6    1  0.1823098E-004  0.5108393E+03  0.7546771E-02  0.9375877E-01
        -11   -1    0    0    0    0  0.00000000000E+00  0.00000000000E+00  0.50000000000E+03  0.50000000000E+03  0.00000000000E+00 0. -1.
         11   -1    0    0    0    0 -0.00000000000E+00 -0.00000000000E+00 -0.50000000000E+03  0.50000000000E+03  0.00000000000E+00 0.  1.
        -11    1    1    2    0    0 -0.27405760550E+01 -0.88875106098E+01  0.48907230548E+03  0.48916072879E+03  0.00000000000E+00 0. -1.
         11    1    1    2    0    0 -0.27048719900E+02 -0.22005100363E+02 -0.43505939630E+03  0.43645450621E+03  0.00000000000E+00 0.  1.
        -15    1    1    2    0    0  0.34325642721E+02  0.22078242189E+02 -0.45948382958E+02  0.61482600399E+02  0.17770000000E+01 0.  1.
         15    1    1    2    0    0 -0.45363467660E+01  0.88143687835E+01 -0.80645262263E+01  0.12902164597E+02  0.17770000000E+01 0. -1.
</event>
<event>
 6    1  0.1823098E-004  0.5091216E+03  0.7546771E-02  0.9379628E-01
        -11   -1    0    0    0    0  0.00000000000E+00  0.00000000000E+00  0.50000000000E+03  0.50000000000E+03  0.00000000000E+00 0. -1.
         11   -1    0    0    0    0 -0.00000000000E+00 -0.00000000000E+00 -0.50000000000E+03  0.50000000000E+03  0.00000000000E+00 0.  1.
        -11    1    1    2    0    0  0.15444698664E+02  0.23864876040E+01  0.49062959612E+03  0.49087843162E+03  0.00000000000E+00 0. -1.
         11    1    1    2    0    0 -0.90536641753E+01  0.23356856792E+02 -0.47090797047E+03  0.47157377816E+03  0.00000000000E+00 0.  1.
        -15    1    1    2    0    0 -0.57039533465E+01 -0.19591217991E+02 -0.22594044343E+02  0.30495892755E+02  0.17770000000E+01 0. -1.
         15    1    1    2    0    0 -0.68708114228E+00 -0.61521264047E+01  0.28724186936E+01  0.70518974714E+01  0.17770000000E+01 0.  1.
</event>
<event>
 6    1  0.1823098E-004  0.5026149E+03  0.7546771E-02  0.9393978E-01
        -11   -1    0    0    0    0  0.00000000000E+00  0.00000000000E+00  0.50000000000E+03  0.50000000000E+03  0.00000000000E+00 0. -1.
         11   -1    0    0    0    0 -0.00000000000E+00 -0.00000000000E+00 -0.50000000000E+03  0.50000000000E+03  0.00000000000E+00 0.  1.
        -11    1    1    2    0    0  0.10144603616E+02 -0.28191308358E+01  0.42580885564E+03  0.42593901209E+03  0.00000000000E+00 0. -1.
         11    1    1    2    0    0 -0.10271715874E+02  0.10293782424E+02 -0.49717250784E+03  0.49738513514E+03  0.00000000000E+00 0.  1.
        -15    1    1    2    0    0  0.82068346141E+01  0.23048237236E+00  0.60215195639E+02  0.60798295793E+02  0.17770000000E+01 0.  1.
         15    1    1    2    0    0 -0.80797223564E+01 -0.77051339609E+01  0.11148456565E+02  0.15877556975E+02  0.17770000000E+01 0. -1.
</event>
<event>
 6    1  0.1823098E-004  0.5000374E+03  0.7546771E-02  0.9399726E-01
        -11   -1    0    0    0    0  0.00000000000E+00  0.00000000000E+00  0.50000000000E+03  0.50000000000E+03  0.00000000000E+00 0. -1.
         11   -1    0    0    0    0 -0.00000000000E+00 -0.00000000000E+00 -0.50000000000E+03  0.50000000000E+03  0.00000000000E+00 0. -1.
        -11    1    1    2    0    0 -0.58770382208E+00 -0.58960645016E+00  0.35314510794E+02  0.35324321709E+02  0.00000000000E+00 0. -1.
         11    1    1    2    0    0  0.16760838833E+02  0.20285550376E+02 -0.49926964352E+03  0.49996260481E+03  0.00000000000E+00 0. -1.
        -15    1    1    2    0    0 -0.11917760787E+02 -0.16074123819E+02  0.31293692186E+03  0.31358106651E+03  0.17770000000E+01 0. -1.
         15    1    1    2    0    0 -0.42553742235E+01 -0.36218201063E+01  0.15101821086E+03  0.15113200697E+03  0.17770000000E+01 0.  1.
</event>
<event>
 6    1  0.1823098E-004  0.5001608E+03  0.7546771E-02  0.9399450E-01
        -11   -1    0    0    0    0  0.00000000000E+00  0.00000000000E+00  0.50000000000E+03  0.50000000000E+03  0.00000000000E+00 0. -1.
         11   -1    0    0    0    0 -0.00000000000E+00 -0.00000000000E+00 -0.50000000000E+03  0.50000000000E+03  0.00000000000E+00 0.  1.
        -11    1    1    2    0    0 -0.55748338990E+01 -0.43026642214E+01  0.49978958044E+03  0.49983919055E+03  0.00000000000E+00 0. -1.
         11    1    1    2    0    0  0.12787286376E+01  0.90438344345E+01 -0.17833126945E+03  0.17856502388E+03  0.00000000000E+00 0.  1.
        -15    1    1    2    0    0  0.54002713690E+01 -0.29144476974E+01 -0.25398658980E+03  0.25406692517E+03  0.17770000000E+01 0.  1.
         15    1    1    2    0    0 -0.11041661077E+01 -0.18267225157E+01 -0.67471721189E+02  0.67528860402E+02  0.17770000000E+01 0. -1.
</event>
<event>
 6    1  0.1823098E-004  0.5001213E+03  0.7546771E-02  0.9399538E-01
        -11   -1    0    0    0    0  0.00000000000E+00  0.00000000000E+00  0.50000000000E+03  0.50000000000E+03  0.00000000000E+00 0.  1.
         11   -1    0    0    0    0 -0.00000000000E+00 -0.00000000000E+00 -0.50000000000E+03  0.50000000000E+03  0.00000000000E+00 0. -1.
        -11    1    1    2    0    0  0.63184537715E+01  0.32763416154E+01  0.49982805000E+03  0.49987872213E+03  0.00000000000E+00 0.  1.
         11    1    1    2    0    0  0.82434987865E+00  0.36619463781E+01 -0.58160107289E+02  0.58281107435E+02  0.00000000000E+00 0. -1.
        -15    1    1    2    0    0 -0.75109136438E+01 -0.51116122656E+01 -0.28309113062E+03  0.28324245509E+03  0.17770000000E+01 0. -1.
         15    1    1    2    0    0  0.36810999370E+00 -0.18266757279E+01 -0.15857681209E+03  0.15859771534E+03  0.17770000000E+01 0.  1.
</event>
<event>
 6    1  0.1823098E-004  0.5079304E+03  0.7546771E-02  0.9382238E-01
        -11   -1    0    0    0    0  0.00000000000E+00  0.00000000000E+00  0.50000000000E+03  0.50000000000E+03  0.00000000000E+00 0. -1.
         11   -1    0    0    0    0 -0.00000000000E+00 -0.00000000000E+00 -0.50000000000E+03  0.50000000000E+03  0.00000000000E+00 0. -1.
        -11    1    1    2    0    0 -0.22161362897E+02 -0.70290532032E+00  0.44191663521E+03  0.44247252181E+03  0.00000000000E+00 0. -1.
         11    1    1    2    0    0 -0.93806921408E+01 -0.27312639645E+02 -0.49122145556E+03  0.49206960490E+03  0.00000000000E+00 0. -1.
        -15    1    1    2    0    0  0.21463145678E+01  0.30051681222E+01  0.74041636439E+01  0.84626869216E+01  0.17770000000E+01 0.  1.
         15    1    1    2    0    0  0.29395740470E+02  0.25010376843E+02  0.41900656702E+02  0.56995186364E+02  0.17770000000E+01 0. -1.
</event>
<event>
 6    1  0.1823098E-004  0.5024042E+03  0.7546771E-02  0.9394446E-01
        -11   -1    0    0    0    0  0.00000000000E+00  0.00000000000E+00  0.50000000000E+03  0.50000000000E+03  0.00000000000E+00 0. -1.
         11   -1    0    0    0    0 -0.00000000000E+00 -0.00000000000E+00 -0.50000000000E+03  0.50000000000E+03  0.00000000000E+00 0.  1.
        -11    1    1    2    0    0  0.81178751033E-01 -0.56510498439E+01  0.41658416061E+03  0.41662249558E+03  0.00000000000E+00 0. -1.
         11    1    1    2    0    0 -0.36828519997E+01  0.26421318225E+02 -0.49688021511E+03  0.49759581753E+03  0.00000000000E+00 0.  1.
        -15    1    1    2    0    0  0.74695931803E+01 -0.27882941464E+01  0.46972586928E+02  0.47677573955E+02  0.17770000000E+01 0.  1.
         15    1    1    2    0    0 -0.38679199316E+01 -0.17981974234E+02  0.33323467578E+02  0.38104112933E+02  0.17770000000E+01 0. -1.
</event>
<event>
 6    1  0.1823098E-004  0.5035726E+03  0.7546771E-02  0.9391851E-01
        -11   -1    0    0    0    0  0.00000000000E+00  0.00000000000E+00  0.50000000000E+03  0.50000000000E+03  0.00000000000E+00 0.  1.
         11   -1    0    0    0    0 -0.00000000000E+00 -0.00000000000E+00 -0.50000000000E+03  0.50000000000E+03  0.00000000000E+00 0. -1.
        -11    1    1    2    0    0 -0.75262261657E+02  0.32787553968E+02  0.48959244621E+03  0.49642743186E+03  0.00000000000E+00 0.  1.
         11    1    1    2    0    0  0.70489887114E+02 -0.51563424173E+02 -0.28779314504E+03  0.30075322979E+03  0.00000000000E+00 0. -1.
        -15    1    1    2    0    0  0.39200720913E+01  0.59835963571E+01 -0.74487300029E+02  0.74851092077E+02  0.17770000000E+01 0. -1.
         15    1    1    2    0    0  0.85230245105E+00  0.12792273848E+02 -0.12731200114E+03  0.12796824627E+03  0.17770000000E+01 0.  1.
</event>
<event>
 6    1  0.1823098E-004  0.5003934E+03  0.7546771E-02  0.9398930E-01
        -11   -1    0    0    0    0  0.00000000000E+00  0.00000000000E+00  0.50000000000E+03  0.50000000000E+03  0.00000000000E+00 0.  1.
         11   -1    0    0    0    0 -0.00000000000E+00 -0.00000000000E+00 -0.50000000000E+03  0.50000000000E+03  0.00000000000E+00 0. -1.
        -11    1    1    2    0    0 -0.17365723304E+01  0.69318215201E+01  0.49955547460E+03  0.49960658326E+03  0.00000000000E+00 0.  1.
         11    1    1    2    0    0  0.99118537341E+01 -0.51972123966E+01 -0.43555094145E+03  0.43569470786E+03  0.00000000000E+00 0. -1.
        -15    1    1    2    0    0 -0.57319295168E+01 -0.95569107021E+00 -0.34647356609E+02  0.35176205173E+02  0.17770000000E+01 0.  1.
         15    1    1    2    0    0 -0.24433518869E+01 -0.77891805330E+00 -0.29357176539E+02  0.29522503707E+02  0.17770000000E+01 0. -1.
</event>
<event>
 6    1  0.1823098E-004  0.4823177E+03  0.7546771E-02  0.9440268E-01
        -11   -1    0    0    0    0  0.00000000000E+00  0.00000000000E+00  0.50000000000E+03  0.50000000000E+03  0.00000000000E+00 0. -1.
         11   -1    0    0    0    0 -0.00000000000E+00 -0.00000000000E+00 -0.50000000000E+03  0.50000000000E+03  0.00000000000E+00 0.  1.
        -11    1    1    2    0    0 -0.13243893124E+02 -0.19691301553E+01  0.47627157123E+03  0.47645974409E+03  0.00000000000E+00 0. -1.
         11    1    1    2    0    0 -0.62476231411E+01 -0.17561629953E+02 -0.48828935659E+03  0.48864500346E+03  0.00000000000E+00 0.  1.
        -15    1    1    2    0    0  0.93799757450E+01  0.10811517307E+02 -0.29894934107E+01  0.14729821836E+02  0.17770000000E+01 0. -1.
         15    1    1    2    0    0  0.10111540520E+02  0.87192428008E+01  0.15007278776E+02  0.20165430617E+02  0.17770000000E+01 0.  1.
</event>
<event>
 6    1  0.1823098E-004  0.5051169E+03  0.7546771E-02  0.9388433E-01
        -11   -1    0    0    0    0  0.00000000000E+00  0.00000000000E+00  0.50000000000E+03  0.50000000000E+03  0.00000000000E+00 0.  1.
         11   -1    0    0    0    0 -0.00000000000E+00 -0.00000000000E+00 -0.50000000000E+03  0.50000000000E+03  0.00000000000E+00 0.  1.
        -11    1    1    2    0    0  0.52433421855E+01  0.77496514790E+01  0.46480666308E+03  0.46490083220E+03  0.00000000000E+00 0.  1.
         11    1    1    2    0    0 -0.12057299456E+02 -0.70963760620E+01 -0.49468531290E+03  0.49488311329E+03  0.00000000000E+00 0.  1.
        -15    1    1    2    0    0  0.18726308996E+00 -0.73553208651E+01  0.29672577478E+02  0.30622792095E+02  0.17770000000E+01 0. -1.
         15    1    1    2    0    0  0.66266941804E+01  0.67020454481E+01  0.20607233837E+00  0.95932624147E+01  0.17770000000E+01 0.  1.
</event>
<event>
 6    1  0.1823098E-004  0.5006511E+03  0.7546771E-02  0.9398354E-01
        -11   -1    0    0    0    0  0.00000000000E+00  0.00000000000E+00  0.50000000000E+03  0.50000000000E+03  0.00000000000E+00 0. -1.
         11   -1    0    0    0    0 -0.00000000000E+00 -0.00000000000E+00 -0.50000000000E+03  0.50000000000E+03  0.00000000000E+00 0. -1.
        -11    1    1    2    0    0  0.86692098989E+01  0.46138482094E+01  0.49925230180E+03  0.49934887969E+03  0.00000000000E+00 0. -1.
         11    1    1    2    0    0  0.85733520883E+01 -0.95788016675E+01 -0.18775051709E+03  0.18819009665E+03  0.00000000000E+00 0. -1.
        -15    1    1    2    0    0 -0.12107449249E+02  0.74593061302E+01 -0.28175799093E+03  0.28212223371E+03  0.17770000000E+01 0. -1.
         15    1    1    2    0    0 -0.51351127385E+01 -0.24943526721E+01 -0.29743793778E+02  0.30338789946E+02  0.17770000000E+01 0.  1.
</event>
<event>
 6    1  0.1823098E-004  0.5060488E+03  0.7546771E-02  0.9386376E-01
        -11   -1    0    0    0    0  0.00000000000E+00  0.00000000000E+00  0.50000000000E+03  0.50000000000E+03  0.00000000000E+00 0. -1.
         11   -1    0    0    0    0 -0.00000000000E+00 -0.00000000000E+00 -0.50000000000E+03  0.50000000000E+03  0.00000000000E+00 0.  1.
        -11    1    1    2    0    0  0.19684231710E+02 -0.91699149421E+01  0.19808567008E+03  0.19927239901E+03  0.00000000000E+00 0. -1.
         11    1    1    2    0    0 -0.11174401875E+02 -0.89612427514E+02 -0.48562591405E+03  0.49395119478E+03  0.00000000000E+00 0.  1.
        -15    1    1    2    0    0 -0.16267764152E+02  0.27064842525E+02  0.56741512665E+02  0.64960779243E+02  0.17770000000E+01 0.  1.
         15    1    1    2    0    0  0.77579343163E+01  0.71717499931E+02  0.23079873131E+03  0.24181562697E+03  0.17770000000E+01 0. -1.
</event>
<event>
 6    1  0.1823098E-004  0.5302402E+03  0.7546771E-02  0.9334576E-01
        -11   -1    0    0    0    0  0.00000000000E+00  0.00000000000E+00  0.50000000000E+03  0.50000000000E+03  0.00000000000E+00 0.  1.
         11   -1    0    0    0    0 -0.00000000000E+00 -0.00000000000E+00 -0.50000000000E+03  0.50000000000E+03  0.00000000000E+00 0. -1.
        -11    1    1    2    0    0  0.32384426135E+01  0.69441816652E+01  0.42067364310E+03  0.42074341727E+03  0.00000000000E+00 0.  1.
         11    1    1    2    0    0 -0.95007510428E+01  0.51465698362E+02 -0.46683537778E+03  0.46975978151E+03  0.00000000000E+00 0. -1.
        -15    1    1    2    0    0  0.61290373317E+01 -0.33071532719E+02 -0.19621284300E+02  0.38980044915E+02  0.17770000000E+01 0.  1.
         15    1    1    2    0    0  0.13327109763E+00 -0.25338347308E+02  0.65783018976E+02  0.70516756307E+02  0.17770000000E+01 0. -1.
</event>
<event>
 6    1  0.1823098E-004  0.5073499E+03  0.7546771E-02  0.9383512E-01
        -11   -1    0    0    0    0  0.00000000000E+00  0.00000000000E+00  0.50000000000E+03  0.50000000000E+03  0.00000000000E+00 0.  1.
         11   -1    0    0    0    0 -0.00000000000E+00 -0.00000000000E+00 -0.50000000000E+03  0.50000000000E+03  0.00000000000E+00 0.  1.
        -11    1    1    2    0    0  0.43525710392E+01  0.13311502526E+02  0.47583370756E+03  0.47603976538E+03  0.00000000000E+00 0.  1.
         11    1    1    2    0    0 -0.41719319896E+01  0.96736439507E+01 -0.49253748211E+03  0.49265013517E+03  0.00000000000E+00 0.  1.
        -15    1    1    2    0    0  0.44385755508E+01 -0.55909627740E+01  0.11276714050E+01  0.74423913803E+01  0.17770000000E+01 0. -1.
         15    1    1    2    0    0 -0.46192146004E+01 -0.17394183702E+02  0.15576103148E+02  0.23867708069E+02  0.17770000000E+01 0.  1.
</event>
<event>
 6    1  0.1823098E-004  0.4932268E+03  0.7546771E-02  0.9415094E-01
        -11   -1    0    0    0    0  0.00000000000E+00  0.00000000000E+00  0.50000000000E+03  0.50000000000E+03  0.00000000000E+00 0. -1.
         11   -1    0    0    0    0 -0.00000000000E+00 -0.00000000000E+00 -0.50000000000E+03  0.50000000000E+03  0.00000000000E+00 0. -1.
        -11    1    1    2    0    0  0.62889894063E+00 -0.76269074929E+01  0.49405921180E+03  0.49411847769E+03  0.00000000000E+00 0. -1.
         11    1    1    2    0    0  0.74109273403E+01 -0.63291790814E-01 -0.49234353222E+03  0.49239930907E+03  0.00000000000E+00 0. -1.
        -15    1    1    2    0    0 -0.20983049265E+01  0.29185467379E+01 -0.36495239669E+01  0.54219510151E+01  0.17770000000E+01 0. -1.
         15    1    1    2    0    0 -0.59415213544E+01  0.47716525459E+01  0.19338443879E+01  0.80602622253E+01  0.17770000000E+01 0.  1.
</event>
<event>
 6    1  0.1823098E-004  0.5016348E+03  0.7546771E-02  0.9396159E-01
        -11   -1    0    0    0    0  0.00000000000E+00  0.00000000000E+00  0.50000000000E+03  0.50000000000E+03  0.00000000000E+00 0. -1.
         11   -1    0    0    0    0 -0.00000000000E+00 -0.00000000000E+00 -0.50000000000E+03  0.50000000000E+03  0.00000000000E+00 0.  1.
        -11    1    1    2    0    0  0.10626062654E+02 -0.20268357996E+01  0.49824779209E+03  0.49836521106E+03  0.00000000000E+00 0. -1.
         11    1    1    2    0    0 -0.16991469077E+02  0.90323651020E-01 -0.45776182441E+03  0.45807707437E+03  0.00000000000E+00 0.  1.
        -15    1    1    2    0    0  0.36104520545E+01 -0.40643328456E+01 -0.32695375768E+02  0.33191858808E+02  0.17770000000E+01 0.  1.
         15    1    1    2    0    0  0.27549543683E+01  0.60008449941E+01 -0.77905919161E+01  0.10365855759E+02  0.17770000000E+01 0. -1.
</event>
<event>
 6    1  0.1823098E-004  0.5028848E+03  0.7546771E-02  0.9393378E-01
        -11   -1    0    0    0    0  0.00000000000E+00  0.00000000000E+00  0.50000000000E+03  0.50000000000E+03  0.00000000000E+00 0. -1.
         11   -1    0    0    0    0 -0.00000000000E+00 -0.00000000000E+00 -0.50000000000E+03  0.50000000000E+03  0.00000000000E+00 0.  1.
        -11    1    1    2    0    0 -0.62157920920E+02  0.46106381885E+02  0.43468492370E+03  0.44152054140E+03  0.00000000000E+00 0. -1.
         11    1    1    2    0    0  0.77525595165E+02 -0.76052454380E+02 -0.48510749480E+03  0.49711515289E+03  0.00000000000E+00 0.  1.
        -15    1    1    2    0    0 -0.24700175062E+01  0.60754206525E+01  0.50408679425E+01  0.84604846906E+01  0.17770000000E+01 0.  1.
         15    1    1    2    0    0 -0.12897656739E+02  0.23870651843E+02  0.45381703153E+02  0.52903821023E+02  0.17770000000E+01 0.  1.
</event>
<event>
 6    1  0.1823098E-004  0.5002892E+03  0.7546771E-02  0.9399163E-01
        -11   -1    0    0    0    0  0.00000000000E+00  0.00000000000E+00  0.50000000000E+03  0.50000000000E+03  0.00000000000E+00 0. -1.
         11   -1    0    0    0    0 -0.00000000000E+00 -0.00000000000E+00 -0.50000000000E+03  0.50000000000E+03  0.00000000000E+00 0. -1.
        -11    1    1    2    0    0  0.49211150678E+01  0.62886917302E+01  0.49964702591E+03  0.49971083190E+03  0.00000000000E+00 0. -1.
         11    1    1    2    0    0  0.52166755387E+01 -0.75228261968E+01 -0.36375451022E+03  0.36386968866E+03  0.00000000000E+00 0. -1.
        -15    1    1    2    0    0 -0.26002438706E+01  0.24311461928E+01 -0.35707111357E+02  0.35928084703E+02  0.17770000000E+01 0. -1.
         15    1    1    2    0    0 -0.75375467359E+01 -0.11970117262E+01 -0.10018540433E+03  0.10049139474E+03  0.17770000000E+01 0. -1.
</event>
<event>
 6    1  0.1823098E-004  0.5008226E+03  0.7546771E-02  0.9397971E-01
        -11   -1    0    0    0    0  0.00000000000E+00  0.00000000000E+00  0.50000000000E+03  0.50000000000E+03  0.00000000000E+00 0.  1.
         11   -1    0    0    0    0 -0.00000000000E+00 -0.00000000000E+00 -0.50000000000E+03  0.50000000000E+03  0.00000000000E+00 0. -1.
        -11    1    1    2    0    0  0.11970575072E+01 -0.81578439976E+01  0.34211846459E+03  0.34221780663E+03  0.00000000000E+00 0.  1.
         11    1    1    2    0    0  0.20977729284E+02  0.15558852396E+01 -0.49873400041E+03  0.49917741242E+03  0.00000000000E+00 0. -1.
        -15    1    1    2    0    0 -0.76359809617E+00  0.20138597474E+01  0.26605388065E+02  0.26751506803E+02  0.17770000000E+01 0.  1.
         15    1    1    2    0    0 -0.21411188695E+02  0.45880990106E+01  0.13001014776E+03  0.13185327414E+03  0.17770000000E+01 0. -1.
</event>
<event>
 6    1  0.1823098E-004  0.5004251E+03  0.7546771E-02  0.9398859E-01
        -11   -1    0    0    0    0  0.00000000000E+00  0.00000000000E+00  0.50000000000E+03  0.50000000000E+03  0.00000000000E+00 0.  1.
         11   -1    0    0    0    0 -0.00000000000E+00 -0.00000000000E+00 -0.50000000000E+03  0.50000000000E+03  0.00000000000E+00 0.  1.
        -11    1    1    2    0    0 -0.76735898201E+01 -0.23738312270E+00  0.49951591825E+03  0.49957491222E+03  0.00000000000E+00 0.  1.
         11    1    1    2    0    0  0.87847084909E+01 -0.68726985876E+01 -0.33206126590E+03  0.33224853558E+03  0.00000000000E+00 0.  1.
        -15    1    1    2    0    0 -0.35586169261E+01  0.10368890021E+02 -0.11629493364E+03  0.11682399991E+03  0.17770000000E+01 0.  1.
         15    1    1    2    0    0  0.24474982554E+01 -0.32588083111E+01 -0.51159718712E+02  0.51352552294E+02  0.17770000000E+01 0. -1.
</event>
<event>
 6    1  0.2807351E-004  0.5000762E+03  0.7546771E-02  0.9399639E-01
        -11   -1    0    0    0    0  0.00000000000E+00  0.00000000000E+00  0.50000000000E+03  0.50000000000E+03  0.00000000000E+00 0. -1.
         11   -1    0    0    0    0 -0.00000000000E+00 -0.00000000000E+00 -0.50000000000E+03  0.50000000000E+03  0.00000000000E+00 0. -1.
        -11    1    1    2    0    0 -0.87877234519E+00  0.55671426325E+00  0.58273059117E+02  0.58282343728E+02  0.00000000000E+00 0. -1.
         11    1    1    2    0    0  0.16016596660E+01 -0.15265397630E+02 -0.49968806985E+03  0.49992375902E+03  0.00000000000E+00 0. -1.
        -15    1    1    2    0    0 -0.24446970475E+01 -0.67192944110E-01  0.10826605101E+03  0.10830824802E+03  0.17770000000E+01 0. -1.
         15    1    1    2    0    0  0.17218097267E+01  0.14775876310E+02  0.33314895972E+03  0.33348564923E+03  0.17770000000E+01 0. -1.
</event>
<event>
 6    1  0.1823098E-004  0.5002189E+03  0.7546771E-02  0.9399320E-01
        -11   -1    0    0    0    0  0.00000000000E+00  0.00000000000E+00  0.50000000000E+03  0.50000000000E+03  0.00000000000E+00 0. -1.
         11   -1    0    0    0    0 -0.00000000000E+00 -0.00000000000E+00 -0.50000000000E+03  0.50000000000E+03  0.00000000000E+00 0. -1.
        -11    1    1    2    0    0 -0.12721766723E+00  0.52295578198E+01  0.34077390300E+03  0.34081405110E+03  0.00000000000E+00 0. -1.
         11    1    1    2    0    0  0.29608064234E+01 -0.81186424190E+01 -0.49970634689E+03  0.49978106391E+03  0.00000000000E+00 0. -1.
        -15    1    1    2    0    0 -0.39789167240E+00  0.60659696745E+01  0.52230609049E+02  0.52613197550E+02  0.17770000000E+01 0. -1.
         15    1    1    2    0    0 -0.24356970838E+01 -0.31768850753E+01  0.10670183484E+03  0.10679168744E+03  0.17770000000E+01 0. -1.
</event>
<event>
 6    1  0.1823098E-004  0.5003436E+03  0.7546771E-02  0.9399041E-01
        -11   -1    0    0    0    0  0.00000000000E+00  0.00000000000E+00  0.50000000000E+03  0.50000000000E+03  0.00000000000E+00 0.  1.
         11   -1    0    0    0    0 -0.00000000000E+00 -0.00000000000E+00 -0.50000000000E+03  0.50000000000E+03  0.00000000000E+00 0. -1.
        -11    1    1    2    0    0 -0.50804964122E+02  0.89749315456E+01  0.34943232394E+03  0.35322038841E+03  0.00000000000E+00 0.  1.
         11    1    1    2    0    0  0.59198291121E+02 -0.16143986152E+02 -0.49587446711E+03  0.49965643505E+03  0.00000000000E+00 0. -1.
        -15    1    1    2    0    0 -0.44850965962E+01  0.83882178697E+01  0.10012595765E+03  0.10059246202E+03  0.17770000000E+01 0.  1.
         15    1    1    2    0    0 -0.39082304029E+01 -0.12191632631E+01  0.46316185521E+02  0.46530714525E+02  0.17770000000E+01 0. -1.
</event>
<event>
 6    1  0.1823098E-004  0.5000895E+03  0.7546771E-02  0.9399609E-01
        -11   -1    0    0    0    0  0.00000000000E+00  0.00000000000E+00  0.50000000000E+03  0.50000000000E+03  0.00000000000E+00 0. -1.
         11   -1    0    0    0    0 -0.00000000000E+00 -0.00000000000E+00 -0.50000000000E+03  0.50000000000E+03  0.00000000000E+00 0. -1.
        -11    1    1    2    0    0 -0.17885720115E+01  0.14986539606E+01  0.69482927758E+02  0.69522098669E+02  0.00000000000E+00 0. -1.
         11    1    1    2    0    0  0.48242881593E+00  0.14461509105E+02 -0.49970104127E+03  0.49991049062E+03  0.00000000000E+00 0. -1.
        -15    1    1    2    0    0  0.42725389045E+00 -0.12652049749E+02  0.37328411439E+03  0.37350293800E+03  0.17770000000E+01 0.  1.
         15    1    1    2    0    0  0.87888930513E+00 -0.33081133174E+01  0.56933999122E+02  0.57064472705E+02  0.17770000000E+01 0. -1.
</event>
<event>
 6    1  0.1823098E-004  0.5032033E+03  0.7546771E-02  0.9392670E-01
        -11   -1    0    0    0    0  0.00000000000E+00  0.00000000000E+00  0.50000000000E+03  0.50000000000E+03  0.00000000000E+00 0. -1.
         11   -1    0    0    0    0 -0.00000000000E+00 -0.00000000000E+00 -0.50000000000E+03  0.50000000000E+03  0.00000000000E+00 0.  1.
        -11    1    1    2    0    0 -0.22473783594E+01  0.58715916179E+01  0.44681762597E+03  0.44686185469E+03  0.00000000000E+00 0. -1.
         11    1    1    2    0    0  0.26404760460E+02 -0.64630182548E+01 -0.49605238568E+03  0.49679669012E+03  0.00000000000E+00 0.  1.
        -15    1    1    2    0    0 -0.11271876663E+02  0.28971033242E+01  0.34973716248E+02  0.36902126882E+02  0.17770000000E+01 0.  1.
         15    1    1    2    0    0 -0.12885505438E+02 -0.23056766873E+01  0.14261043460E+02  0.19439328304E+02  0.17770000000E+01 0. -1.
</event>
<event>
 6    1  0.1823098E-004  0.4884623E+03  0.7546771E-02  0.9426003E-01
        -11   -1    0    0    0    0  0.00000000000E+00  0.00000000000E+00  0.50000000000E+03  0.50000000000E+03  0.00000000000E+00 0. -1.
         11   -1    0    0    0    0 -0.00000000000E+00 -0.00000000000E+00 -0.50000000000E+03  0.50000000000E+03  0.00000000000E+00 0. -1.
        -11    1    1    2    0    0  0.14771145000E+02 -0.83930183026E+01  0.49143125544E+03  0.49172482987E+03  0.00000000000E+00 0. -1.
         11    1    1    2    0    0 -0.25773212169E+02 -0.55308251550E+01 -0.48466798376E+03  0.48538428381E+03  0.00000000000E+00 0. -1.
        -15    1    1    2    0    0  0.11497089367E+02  0.59572644776E+01 -0.67570779612E+01  0.14713527638E+02  0.17770000000E+01 0.  1.
         15    1    1    2    0    0 -0.49502219842E+00  0.79665789800E+01 -0.61937235537E-02  0.81773586801E+01  0.17770000000E+01 0. -1.
</event>
<event>
 6    1  0.1823098E-004  0.5007077E+03  0.7546771E-02  0.9398228E-01
        -11   -1    0    0    0    0  0.00000000000E+00  0.00000000000E+00  0.50000000000E+03  0.50000000000E+03  0.00000000000E+00 0.  1.
         11   -1    0    0    0    0 -0.00000000000E+00 -0.00000000000E+00 -0.50000000000E+03  0.50000000000E+03  0.00000000000E+00 0. -1.
        -11    1    1    2    0    0  0.14319028221E+01 -0.25570445867E+01  0.12329951383E+03  0.12333433801E+03  0.00000000000E+00 0.  1.
         11    1    1    2    0    0 -0.26526160442E+02 -0.12041155213E+01 -0.49858570378E+03  0.49929229024E+03  0.00000000000E+00 0. -1.
        -15    1    1    2    0    0  0.35969283455E+01  0.14859924097E+01  0.26168734437E+03  0.26172231467E+03  0.17770000000E+01 0. -1.
         15    1    1    2    0    0  0.21497329274E+02  0.22751676983E+01  0.11359884558E+03  0.11565105707E+03  0.17770000000E+01 0.  1.
</event>
<event>
 6    1  0.1823098E-004  0.5012877E+03  0.7546771E-02  0.9396933E-01
        -11   -1    0    0    0    0  0.00000000000E+00  0.00000000000E+00  0.50000000000E+03  0.50000000000E+03  0.00000000000E+00 0. -1.
         11   -1    0    0    0    0 -0.00000000000E+00 -0.00000000000E+00 -0.50000000000E+03  0.50000000000E+03  0.00000000000E+00 0.  1.
        -11    1    1    2    0    0  0.67876161829E+01  0.43377494007E+00  0.45060517273E+03  0.45065650066E+03  0.00000000000E+00 0. -1.
         11    1    1    2    0    0  0.69978286396E+01 -0.44921180799E+01 -0.49864296434E+03  0.49871229643E+03  0.00000000000E+00 0.  1.
        -15    1    1    2    0    0 -0.41908803992E+01 -0.10915805803E+01  0.10305210757E+02  0.11318574311E+02  0.17770000000E+01 0.  1.
         15    1    1    2    0    0 -0.95945644233E+01  0.51499237202E+01  0.37732580848E+02  0.39312628597E+02  0.17770000000E+01 0. -1.
</event>
<event>
 6    1  0.1823098E-004  0.5003485E+03  0.7546771E-02  0.9399030E-01
        -11   -1    0    0    0    0  0.00000000000E+00  0.00000000000E+00  0.50000000000E+03  0.50000000000E+03  0.00000000000E+00 0.  1.
         11   -1    0    0    0    0 -0.00000000000E+00 -0.00000000000E+00 -0.50000000000E+03  0.50000000000E+03  0.00000000000E+00 0. -1.
        -11    1    1    2    0    0  0.13995765541E+02  0.26268654601E+01  0.49944853935E+03  0.49965150388E+03  0.00000000000E+00 0.  1.
         11    1    1    2    0    0  0.70426822467E+01 -0.13182743816E+01 -0.17497398449E+03  0.17512062263E+03  0.00000000000E+00 0. -1.
        -15    1    1    2    0    0 -0.45784715604E+01 -0.85801658665E+00 -0.48145206643E+02  0.48402657427E+02  0.17770000000E+01 0.  1.
         15    1    1    2    0    0 -0.16459976228E+02 -0.45057449177E+00 -0.27632934821E+03  0.27682521606E+03  0.17770000000E+01 0. -1.
</event>
<event>
 6    1  0.1823098E-004  0.5006928E+03  0.7546771E-02  0.9398261E-01
        -11   -1    0    0    0    0  0.00000000000E+00  0.00000000000E+00  0.50000000000E+03  0.50000000000E+03  0.00000000000E+00 0. -1.
         11   -1    0    0    0    0 -0.00000000000E+00 -0.00000000000E+00 -0.50000000000E+03  0.50000000000E+03  0.00000000000E+00 0.  1.
        -11    1    1    2    0    0  0.13724571668E+00 -0.62581695082E+01  0.33124311775E+03  0.33130225863E+03  0.00000000000E+00 0. -1.
         11    1    1    2    0    0  0.15704233380E+02 -0.76972686066E+01 -0.49900084600E+03  0.49930723528E+03  0.00000000000E+00 0.  1.
        -15    1    1    2    0    0 -0.11612515849E+02  0.41499440467E+01  0.10006067470E+03  0.10083337201E+03  0.17770000000E+01 0. -1.
         15    1    1    2    0    0 -0.42289632479E+01  0.98054940681E+01  0.67697053555E+02  0.68557134079E+02  0.17770000000E+01 0.  1.
</event>
<event>
 6    1  0.1823098E-004  0.5009282E+03  0.7546771E-02  0.9397735E-01
        -11   -1    0    0    0    0  0.00000000000E+00  0.00000000000E+00  0.50000000000E+03  0.50000000000E+03  0.00000000000E+00 0. -1.
         11   -1    0    0    0    0 -0.00000000000E+00 -0.00000000000E+00 -0.50000000000E+03  0.50000000000E+03  0.00000000000E+00 0. -1.
        -11    1    1    2    0    0  0.11314239384E+02  0.84533103912E+02  0.49173039256E+03  0.49907177503E+03  0.00000000000E+00 0. -1.
         11    1    1    2    0    0 -0.82990932028E+01 -0.80852113753E+02 -0.36724390378E+03  0.37613032862E+03  0.00000000000E+00 0. -1.
        -15    1    1    2    0    0  0.15293720500E+01 -0.19483468904E+01 -0.69877680211E+02  0.69944141678E+02  0.17770000000E+01 0.  1.
         15    1    1    2    0    0 -0.45445182311E+01 -0.17326432689E+01 -0.54608808571E+02  0.54853754668E+02  0.17770000000E+01 0. -1.
</event>
<event>
 6    1  0.1823098E-004  0.5006044E+03  0.7546771E-02  0.9398458E-01
        -11   -1    0    0    0    0  0.00000000000E+00  0.00000000000E+00  0.50000000000E+03  0.50000000000E+03  0.00000000000E+00 0.  1.
         11   -1    0    0    0    0 -0.00000000000E+00 -0.00000000000E+00 -0.50000000000E+03  0.50000000000E+03  0.00000000000E+00 0.  1.
        -11    1    1    2    0    0 -0.17106590775E+01  0.11063859544E+02  0.49927008762E+03  0.49939559043E+03  0.00000000000E+00 0.  1.
         11    1    1    2    0    0 -0.51002171723E+01  0.29286920674E+01 -0.36902562834E+03  0.36907249129E+03  0.00000000000E+00 0.  1.
        -15    1    1    2    0    0  0.83319295560E+00 -0.70782761742E+01 -0.86289632179E+02  0.86601700645E+02  0.17770000000E+01 0. -1.
         15    1    1    2    0    0  0.59776832942E+01 -0.69142754376E+01 -0.43954827102E+02  0.44930217637E+02  0.17770000000E+01 0.  1.
</event>
<event>
 6    1  0.1823098E-004  0.5073707E+03  0.7546771E-02  0.9383467E-01
        -11   -1    0    0    0    0  0.00000000000E+00  0.00000000000E+00  0.50000000000E+03  0.50000000000E+03  0.00000000000E+00 0. -1.
         11   -1    0    0    0    0 -0.00000000000E+00 -0.00000000000E+00 -0.50000000000E+03  0.50000000000E+03  0.00000000000E+00 0.  1.
        -11    1    1    2    0    0  0.75833656796E+01  0.10629609979E+02  0.49245626318E+03  0.49262934057E+03  0.00000000000E+00 0. -1.
         11    1    1    2    0    0 -0.10182770136E+02  0.12957443318E+02 -0.46521988929E+03  0.46551168572E+03  0.00000000000E+00 0.  1.
        -15    1    1    2    0    0  0.55844957104E+01 -0.12042983780E+02 -0.26606222789E+02  0.29787058780E+02  0.17770000000E+01 0. -1.
         15    1    1    2    0    0 -0.29850912541E+01 -0.11544069517E+02 -0.63015109926E+00  0.12071914936E+02  0.17770000000E+01 0.  1.
</event>
<event>
 6    1  0.1823098E-004  0.5001167E+03  0.7546771E-02  0.9399549E-01
        -11   -1    0    0    0    0  0.00000000000E+00  0.00000000000E+00  0.50000000000E+03  0.50000000000E+03  0.00000000000E+00 0. -1.
         11   -1    0    0    0    0 -0.00000000000E+00 -0.00000000000E+00 -0.50000000000E+03  0.50000000000E+03  0.00000000000E+00 0. -1.
        -11    1    1    2    0    0 -0.84432862954E+01  0.25400371611E+01  0.49980552369E+03  0.49988328876E+03  0.00000000000E+00 0. -1.
         11    1    1    2    0    0 -0.29851445231E+01 -0.30085736641E+01 -0.18790735790E+03  0.18795514826E+03  0.00000000000E+00 0. -1.
        -15    1    1    2    0    0  0.82588774307E+01 -0.89897070216E+00 -0.24806543908E+03  0.24821087205E+03  0.17770000000E+01 0. -1.
         15    1    1    2    0    0  0.31695533878E+01  0.13675072051E+01 -0.63832726701E+02  0.63950690940E+02  0.17770000000E+01 0.  1.
</event>
<event>
 6    1  0.1823098E-004  0.5022438E+03  0.7546771E-02  0.9394803E-01
        -11   -1    0    0    0    0  0.00000000000E+00  0.00000000000E+00  0.50000000000E+03  0.50000000000E+03  0.00000000000E+00 0. -1.
         11   -1    0    0    0    0 -0.00000000000E+00 -0.00000000000E+00 -0.50000000000E+03  0.50000000000E+03  0.00000000000E+00 0. -1.
        -11    1    1    2    0    0 -0.67501982458E+01 -0.40888050825E+01  0.48937426169E+03  0.48943789341E+03  0.00000000000E+00 0. -1.
         11    1    1    2    0    0 -0.13869321651E-01  0.69474270148E+01 -0.49770773793E+03  0.49775622480E+03  0.00000000000E+00 0. -1.
        -15    1    1    2    0    0  0.25848745987E+01 -0.17299624050E+01  0.71220264061E+01  0.79721600424E+01  0.17770000000E+01 0. -1.
         15    1    1    2    0    0  0.41791929688E+01 -0.11286595272E+01  0.12114498336E+01  0.48337217440E+01  0.17770000000E+01 0.  1.
</event>
<event>
 6    1  0.1823098E-004  0.5008592E+03  0.7546771E-02  0.9397889E-01
        -11   -1    0    0    0    0  0.00000000000E+00  0.00000000000E+00  0.50000000000E+03  0.50000000000E+03  0.00000000000E+00 0. -1.
         11   -1    0    0    0    0 -0.00000000000E+00 -0.00000000000E+00 -0.50000000000E+03  0.50000000000E+03  0.00000000000E+00 0.  1.
        -11    1    1    2    0    0  0.19082545580E+01 -0.32721798499E+02  0.45550761828E+03  0.45668539264E+03  0.00000000000E+00 0. -1.
         11    1    1    2    0    0  0.84925848748E+01  0.38245709667E+02 -0.49760094989E+03  0.49914082546E+03  0.00000000000E+00 0.  1.
        -15    1    1    2    0    0 -0.36539997319E+01 -0.20876727427E+01  0.80732336079E+01  0.92760401793E+01  0.17770000000E+01 0. -1.
         15    1    1    2    0    0 -0.67468397009E+01 -0.34362384252E+01  0.34020098001E+02  0.34897741724E+02  0.17770000000E+01 0. -1.
</event>
<event>
 6    1  0.1823098E-004  0.5020973E+03  0.7546771E-02  0.9395129E-01
        -11   -1    0    0    0    0  0.00000000000E+00  0.00000000000E+00  0.50000000000E+03  0.50000000000E+03  0.00000000000E+00 0. -1.
         11   -1    0    0    0    0 -0.00000000000E+00 -0.00000000000E+00 -0.50000000000E+03  0.50000000000E+03  0.00000000000E+00 0. -1.
        -11    1    1    2    0    0  0.63122371116E+01 -0.96318213817E+01  0.49776946245E+03  0.49790265522E+03  0.00000000000E+00 0. -1.
         11    1    1    2    0    0 -0.78983477615E+01 -0.40017915859E+01 -0.47013829111E+03  0.47022166156E+03  0.00000000000E+00 0. -1.
        -15    1    1    2    0    0  0.40208485052E+01  0.55946507156E+01 -0.10093073085E+02  0.12348894389E+02  0.17770000000E+01 0. -1.
         15    1    1    2    0    0 -0.24347378553E+01  0.80389622519E+01 -0.17538098259E+02  0.19526788831E+02  0.17770000000E+01 0.  1.
</event>
<event>
 6    1  0.1823098E-004  0.5040617E+03  0.7546771E-02  0.9390767E-01
        -11   -1    0    0    0    0  0.00000000000E+00  0.00000000000E+00  0.50000000000E+03  0.50000000000E+03  0.00000000000E+00 0. -1.
         11   -1    0    0    0    0 -0.00000000000E+00 -0.00000000000E+00 -0.50000000000E+03  0.50000000000E+03  0.00000000000E+00 0. -1.
        -11    1    1    2    0    0  0.20506842610E+02 -0.10051906299E+02  0.49541214238E+03  0.49593826454E+03  0.00000000000E+00 0. -1.
         11    1    1    2    0    0 -0.71587130043E+01 -0.12074893688E+02 -0.43850353331E+03  0.43872816066E+03  0.00000000000E+00 0. -1.
        -15    1    1    2    0    0 -0.77011642670E+01 -0.12081728354E+01 -0.15261878460E+02  0.17229343452E+02  0.17770000000E+01 0. -1.
         15    1    1    2    0    0 -0.56469653382E+01  0.23334972822E+02 -0.41646730608E+02  0.48104231347E+02  0.17770000000E+01 0.  1.
</event>
<event>
 6    1  0.1823098E-004  0.5028880E+03  0.7546771E-02  0.9393371E-01
        -11   -1    0    0    0    0  0.00000000000E+00  0.00000000000E+00  0.50000000000E+03  0.50000000000E+03  0.00000000000E+00 0.  1.
         11   -1    0    0    0    0 -0.00000000000E+00 -0.00000000000E+00 -0.50000000000E+03  0.50000000000E+03  0.00000000000E+00 0. -1.
        -11    1    1    2    0    0 -0.33371506230E+01  0.70314385651E+01  0.49705106145E+03  0.49711199482E+03  0.00000000000E+00 0.  1.
         11    1    1    2    0    0 -0.86174855996E+01  0.31769949654E+01 -0.44072316423E+03  0.44081885378E+03  0.00000000000E+00 0. -1.
        -15    1    1    2    0    0  0.93405220448E+01 -0.87734623949E+01 -0.57071090760E+02  0.58519109050E+02  0.17770000000E+01 0. -1.
         15    1    1    2    0    0  0.26141141778E+01 -0.14349711356E+01  0.74319354347E+00  0.35500423572E+01  0.17770000000E+01 0.  1.
</event>
<event>
 6    1  0.1823098E-004  0.5003282E+03  0.7546771E-02  0.9399076E-01
        -11   -1    0    0    0    0  0.00000000000E+00  0.00000000000E+00  0.50000000000E+03  0.50000000000E+03  0.00000000000E+00 0. -1.
         11   -1    0    0    0    0 -0.00000000000E+00 -0.00000000000E+00 -0.50000000000E+03  0.50000000000E+03  0.00000000000E+00 0.  1.
        -11    1    1    2    0    0 -0.44998940863E+01 -0.33949012427E+01  0.25259157053E+03  0.25265445950E+03  0.00000000000E+00 0. -1.
         11    1    1    2    0    0 -0.14656563445E+01 -0.14019641405E+02 -0.49947291484E+03  0.49967178342E+03  0.00000000000E+00 0.  1.
        -15    1    1    2    0    0  0.43266966661E+01  0.16458375874E+02  0.22139507829E+03  0.22205525633E+03  0.17770000000E+01 0. -1.
         15    1    1    2    0    0  0.16388537648E+01  0.95616677421E+00  0.25486266010E+02  0.25618500750E+02  0.17770000000E+01 0.  1.
</event>
<event>
 6    1  0.1823098E-004  0.5015153E+03  0.7546771E-02  0.9396426E-01
        -11   -1    0    0    0    0  0.00000000000E+00  0.00000000000E+00  0.50000000000E+03  0.50000000000E+03  0.00000000000E+00 0.  1.
         11   -1    0    0    0    0 -0.00000000000E+00 -0.00000000000E+00 -0.50000000000E+03  0.50000000000E+03  0.00000000000E+00 0.  1.
        -11    1    1    2    0    0  0.37157201373E+01 -0.57097338725E+01  0.49843819342E+03  0.49848474430E+03  0.00000000000E+00 0.  1.
         11    1    1    2    0    0  0.63693879402E+01  0.13528230342E+02 -0.45246704021E+03  0.45271404285E+03  0.00000000000E+00 0.  1.
        -15    1    1    2    0    0 -0.99168916906E+01 -0.44815465267E+01 -0.41517702367E+02  0.42957028981E+02  0.17770000000E+01 0.  1.
         15    1    1    2    0    0 -0.16821638682E+00 -0.33369499429E+01 -0.44534508410E+01  0.58441838667E+01  0.17770000000E+01 0. -1.
</event>
<event>
 6    1  0.1823098E-004  0.5129481E+03  0.7546771E-02  0.9371295E-01
        -11   -1    0    0    0    0  0.00000000000E+00  0.00000000000E+00  0.50000000000E+03  0.50000000000E+03  0.00000000000E+00 0. -1.
         11   -1    0    0    0    0 -0.00000000000E+00 -0.00000000000E+00 -0.50000000000E+03  0.50000000000E+03  0.00000000000E+00 0. -1.
        -11    1    1    2    0    0  0.67576167282E+01 -0.84019002817E+00  0.48700433326E+03  0.48705193965E+03  0.00000000000E+00 0. -1.
         11    1    1    2    0    0  0.19639933273E+02 -0.29512168400E+02 -0.43474998847E+03  0.43619290175E+03  0.00000000000E+00 0. -1.
        -15    1    1    2    0    0 -0.18542517225E+02  0.69233648692E+01 -0.10829882056E+01  0.19901972732E+02  0.17770000000E+01 0. -1.
         15    1    1    2    0    0 -0.78550327758E+01  0.23428993559E+02 -0.51171356592E+02  0.56853185870E+02  0.17770000000E+01 0.  1.
</event>
<event>
 6    1  0.1823098E-004  0.5012983E+03  0.7546771E-02  0.9396909E-01
        -11   -1    0    0    0    0  0.00000000000E+00  0.00000000000E+00  0.50000000000E+03  0.50000000000E+03  0.00000000000E+00 0. -1.
         11   -1    0    0    0    0 -0.00000000000E+00 -0.00000000000E+00 -0.50000000000E+03  0.50000000000E+03  0.00000000000E+00 0.  1.
        -11    1    1    2    0    0  0.29840004427E+00  0.41016075974E+02  0.49701203369E+03  0.49870168354E+03  0.00000000000E+00 0. -1.
         11    1    1    2    0    0  0.67083427301E+01 -0.45842343981E+02 -0.47443748144E+03  0.47669429004E+03  0.00000000000E+00 0.  1.
        -15    1    1    2    0    0 -0.17618752596E+01  0.12393037694E+01 -0.38882243879E+01  0.47870759503E+01  0.17770000000E+01 0. -1.
         15    1    1    2    0    0 -0.52448675147E+01  0.35869642380E+01 -0.18686327866E+02  0.19816950467E+02  0.17770000000E+01 0. -1.
</event>
<event>
 6    1  0.1823098E-004  0.5004226E+03  0.7546771E-02  0.9398865E-01
        -11   -1    0    0    0    0  0.00000000000E+00  0.00000000000E+00  0.50000000000E+03  0.50000000000E+03  0.00000000000E+00 0. -1.
         11   -1    0    0    0    0 -0.00000000000E+00 -0.00000000000E+00 -0.50000000000E+03  0.50000000000E+03  0.00000000000E+00 0. -1.
        -11    1    1    2    0    0  0.11728001629E+02 -0.11986480550E+02  0.49929582256E+03  0.49957736154E+03  0.00000000000E+00 0. -1.
         11    1    1    2    0    0 -0.99158857559E+01 -0.11326685452E+01 -0.36280586651E+03  0.36294311469E+03  0.00000000000E+00 0. -1.
        -15    1    1    2    0    0 -0.37230411331E+01  0.13057657211E+02 -0.10663275857E+03  0.10750844793E+03  0.17770000000E+01 0. -1.
         15    1    1    2    0    0  0.19109252598E+01  0.61491884856E-01 -0.29857197474E+02  0.29971075833E+02  0.17770000000E+01 0. -1.
</event>
<event>
 6    1  0.1823098E-004  0.4836939E+03  0.7546771E-02  0.9437054E-01
        -11   -1    0    0    0    0  0.00000000000E+00  0.00000000000E+00  0.50000000000E+03  0.50000000000E+03  0.00000000000E+00 0. -1.
         11   -1    0    0    0    0 -0.00000000000E+00 -0.00000000000E+00 -0.50000000000E+03  0.50000000000E+03  0.00000000000E+00 0.  1.
        -11    1    1    2    0    0  0.16299783089E+01 -0.10711447412E+02  0.48349835692E+03  0.48361974017E+03  0.00000000000E+00 0. -1.
         11    1    1    2    0    0  0.13048958495E+02 -0.72078654638E+01 -0.48381578449E+03  0.48404539247E+03  0.00000000000E+00 0.  1.
        -15    1    1    2    0    0 -0.15014002703E+02  0.15517401948E+02 -0.83058699022E+01  0.23202483579E+02  0.17770000000E+01 0.  1.
         15    1    1    2    0    0  0.33506589945E+00  0.24019109276E+01  0.86232974718E+01  0.91323837824E+01  0.17770000000E+01 0. -1.
</event>
<event>
 6    1  0.1823098E-004  0.5015153E+03  0.7546771E-02  0.9396426E-01
        -11   -1    0    0    0    0  0.00000000000E+00  0.00000000000E+00  0.50000000000E+03  0.50000000000E+03  0.00000000000E+00 0. -1.
         11   -1    0    0    0    0 -0.00000000000E+00 -0.00000000000E+00 -0.50000000000E+03  0.50000000000E+03  0.00000000000E+00 0. -1.
        -11    1    1    2    0    0  0.69967015690E+00 -0.46997207493E+01  0.32980573353E+03  0.32983995935E+03  0.00000000000E+00 0. -1.
         11    1    1    2    0    0  0.18264746693E+02  0.32757074753E+02 -0.49707183561E+03  0.49848474066E+03  0.00000000000E+00 0. -1.
        -15    1    1    2    0    0 -0.19354678917E+01  0.23538092039E+01  0.21643852746E+02  0.21929444690E+02  0.17770000000E+01 0. -1.
         15    1    1    2    0    0 -0.17028948958E+02 -0.30411163207E+02  0.14562224933E+03  0.14974585530E+03  0.17770000000E+01 0. -1.
</event>
<event>
 6    1  0.1823098E-004  0.4865177E+03  0.7546771E-02  0.9430493E-01
        -11   -1    0    0    0    0  0.00000000000E+00  0.00000000000E+00  0.50000000000E+03  0.50000000000E+03  0.00000000000E+00 0.  1.
         11   -1    0    0    0    0 -0.00000000000E+00 -0.00000000000E+00 -0.50000000000E+03  0.50000000000E+03  0.00000000000E+00 0. -1.
        -11    1    1    2    0    0  0.11046903245E+02 -0.45281242666E+01  0.48348405270E+03  0.48363143735E+03  0.00000000000E+00 0.  1.
         11    1    1    2    0    0  0.60771518697E+00 -0.12962485841E+02 -0.48947733978E+03  0.48964932504E+03  0.00000000000E+00 0. -1.
        -15    1    1    2    0    0 -0.11201937618E+02  0.11026612673E+02 -0.23657771654E+01  0.15994506058E+02  0.17770000000E+01 0. -1.
         15    1    1    2    0    0 -0.45268081409E+00  0.64639974342E+01  0.83590642436E+01  0.10724731548E+02  0.17770000000E+01 0.  1.
</event>
<event>
 6    1  0.1823098E-004  0.4493212E+03  0.7546771E-02  0.9520944E-01
        -11   -1    0    0    0    0  0.00000000000E+00  0.00000000000E+00  0.50000000000E+03  0.50000000000E+03  0.00000000000E+00 0. -1.
         11   -1    0    0    0    0 -0.00000000000E+00 -0.00000000000E+00 -0.50000000000E+03  0.50000000000E+03  0.00000000000E+00 0. -1.
        -11    1    1    2    0    0  0.14966960903E+01 -0.94237068037E+01  0.45300245756E+03  0.45310293853E+03  0.00000000000E+00 0. -1.
         11    1    1    2    0    0 -0.83649883997E+02 -0.14423637603E+02 -0.44158962927E+03  0.44967404317E+03  0.00000000000E+00 0. -1.
        -15    1    1    2    0    0  0.83409544272E+02  0.13931460031E+02 -0.15998676768E+02  0.86083407470E+02  0.17770000000E+01 0.  1.
         15    1    1    2    0    0 -0.12563563648E+01  0.99158843761E+01  0.45858484857E+01  0.11139610837E+02  0.17770000000E+01 0. -1.
</event>
<event>
 6    1  0.1823098E-004  0.5000633E+03  0.7546771E-02  0.9399668E-01
        -11   -1    0    0    0    0  0.00000000000E+00  0.00000000000E+00  0.50000000000E+03  0.50000000000E+03  0.00000000000E+00 0. -1.
         11   -1    0    0    0    0 -0.00000000000E+00 -0.00000000000E+00 -0.50000000000E+03  0.50000000000E+03  0.00000000000E+00 0.  1.
        -11    1    1    2    0    0  0.75421852302E+01  0.20442188047E+00  0.49987973910E+03  0.49993667590E+03  0.00000000000E+00 0. -1.
         11    1    1    2    0    0 -0.40318092144E+01  0.36266076437E+01 -0.16100205513E+03  0.16109335655E+03  0.00000000000E+00 0.  1.
        -15    1    1    2    0    0 -0.41229100688E+01 -0.38775327923E+01 -0.23249376624E+03  0.23256943633E+03  0.17770000000E+01 0.  1.
         15    1    1    2    0    0  0.61253405301E+00  0.46503268095E-01 -0.10638391774E+03  0.10640053121E+03  0.17770000000E+01 0.  1.
</event>
<event>
 6    1  0.1823098E-004  0.5001198E+03  0.7546771E-02  0.9399542E-01
        -11   -1    0    0    0    0  0.00000000000E+00  0.00000000000E+00  0.50000000000E+03  0.50000000000E+03  0.00000000000E+00 0. -1.
         11   -1    0    0    0    0 -0.00000000000E+00 -0.00000000000E+00 -0.50000000000E+03  0.50000000000E+03  0.00000000000E+00 0.  1.
        -11    1    1    2    0    0 -0.33638098086E+01  0.11160089418E+02  0.13479779622E+03  0.13530080812E+03  0.00000000000E+00 0. -1.
         11    1    1    2    0    0  0.39447454366E+00 -0.21605264286E+02 -0.49941295171E+03  0.49988022504E+03  0.00000000000E+00 0.  1.
        -15    1    1    2    0    0  0.27263186338E+01  0.28149350354E+01  0.11358619169E+03  0.11366766182E+03  0.17770000000E+01 0. -1.
         15    1    1    2    0    0  0.24301663114E+00  0.76302398329E+01  0.25102896380E+03  0.25115130502E+03  0.17770000000E+01 0.  1.
</event>
<event>
 6    1  0.1823098E-004  0.5000376E+03  0.7546771E-02  0.9399726E-01
        -11   -1    0    0    0    0  0.00000000000E+00  0.00000000000E+00  0.50000000000E+03  0.50000000000E+03  0.00000000000E+00 0.  1.
         11   -1    0    0    0    0 -0.00000000000E+00 -0.00000000000E+00 -0.50000000000E+03  0.50000000000E+03  0.00000000000E+00 0.  1.
        -11    1    1    2    0    0 -0.66844035478E+01 -0.56376152091E+01  0.49988590054E+03  0.49996237609E+03  0.00000000000E+00 0.  1.
         11    1    1    2    0    0 -0.65674536017E+00  0.10764886309E+01 -0.36403858531E+02  0.36425692282E+02  0.00000000000E+00 0.  1.
        -15    1    1    2    0    0  0.37623075760E+01  0.31776535221E+01 -0.36692242111E+03  0.36695977066E+03  0.17770000000E+01 0.  1.
         15    1    1    2    0    0  0.35788413320E+01  0.13834730561E+01 -0.96559620896E+02  0.96652160967E+02  0.17770000000E+01 0. -1.
</event>
<event>
 6    1  0.1823098E-004  0.5006366E+03  0.7546771E-02  0.9398386E-01
        -11   -1    0    0    0    0  0.00000000000E+00  0.00000000000E+00  0.50000000000E+03  0.50000000000E+03  0.00000000000E+00 0. -1.
         11   -1    0    0    0    0 -0.00000000000E+00 -0.00000000000E+00 -0.50000000000E+03  0.50000000000E+03  0.00000000000E+00 0.  1.
        -11    1    1    2    0    0  0.11574270254E+02  0.22847560736E+01  0.22325938389E+03  0.22357087542E+03  0.00000000000E+00 0. -1.
         11    1    1    2    0    0 -0.67724481726E+01 -0.14540863194E+02 -0.49910568099E+03  0.49936337826E+03  0.00000000000E+00 0.  1.
        -15    1    1    2    0    0  0.84923414465E+01  0.63285309219E+01  0.89158128651E+02  0.89802560100E+02  0.17770000000E+01 0.  1.
         15    1    1    2    0    0 -0.13294163528E+02  0.59275761985E+01  0.18668816845E+03  0.18726318621E+03  0.17770000000E+01 0. -1.
</event>
<event>
 6    1  0.1823098E-004  0.5001554E+03  0.7546771E-02  0.9399462E-01
        -11   -1    0    0    0    0  0.00000000000E+00  0.00000000000E+00  0.50000000000E+03  0.50000000000E+03  0.00000000000E+00 0.  1.
         11   -1    0    0    0    0 -0.00000000000E+00 -0.00000000000E+00 -0.50000000000E+03  0.50000000000E+03  0.00000000000E+00 0.  1.
        -11    1    1    2    0    0  0.17036681314E-01  0.58049981129E+01  0.27821235842E+03  0.27827291401E+03  0.00000000000E+00 0.  1.
         11    1    1    2    0    0  0.10342105524E+02 -0.78938647909E+01 -0.49967525279E+03  0.49984460635E+03  0.00000000000E+00 0.  1.
        -15    1    1    2    0    0 -0.98679865473E+01  0.39590314836E+01  0.19216299436E+03  0.19246512728E+03  0.17770000000E+01 0.  1.
         15    1    1    2    0    0 -0.49115565777E+00 -0.18701648056E+01  0.29299900011E+02  0.29417352361E+02  0.17770000000E+01 0.  1.
</event>
<event>
 6    1  0.1823098E-004  0.5002316E+03  0.7546771E-02  0.9399292E-01
        -11   -1    0    0    0    0  0.00000000000E+00  0.00000000000E+00  0.50000000000E+03  0.50000000000E+03  0.00000000000E+00 0. -1.
         11   -1    0    0    0    0 -0.00000000000E+00 -0.00000000000E+00 -0.50000000000E+03  0.50000000000E+03  0.00000000000E+00 0. -1.
        -11    1    1    2    0    0  0.12645832907E+02  0.84199248296E+00  0.49960762933E+03  0.49976835567E+03  0.00000000000E+00 0. -1.
         11    1    1    2    0    0 -0.83033271806E+01  0.11056686646E+01 -0.85684620312E+02  0.86093100208E+02  0.00000000000E+00 0. -1.
        -15    1    1    2    0    0  0.24092409121E+01 -0.11181890024E+00 -0.30325533213E+02  0.30473146193E+02  0.17770000000E+01 0.  1.
         15    1    1    2    0    0 -0.67517466381E+01 -0.18358422473E+01 -0.38359747580E+03  0.38366539793E+03  0.17770000000E+01 0. -1.
</event>
<event>
 6    1  0.1823098E-004  0.5004241E+03  0.7546771E-02  0.9398861E-01
        -11   -1    0    0    0    0  0.00000000000E+00  0.00000000000E+00  0.50000000000E+03  0.50000000000E+03  0.00000000000E+00 0. -1.
         11   -1    0    0    0    0 -0.00000000000E+00 -0.00000000000E+00 -0.50000000000E+03  0.50000000000E+03  0.00000000000E+00 0.  1.
        -11    1    1    2    0    0  0.54751274014E+01  0.41456249645E+01  0.49952870798E+03  0.49957591347E+03  0.00000000000E+00 0. -1.
         11    1    1    2    0    0 -0.96315210296E+01  0.46977573731E+01 -0.28699015285E+03  0.28719015121E+03  0.00000000000E+00 0.  1.
        -15    1    1    2    0    0 -0.28100218934E+01 -0.81708550523E+01 -0.15387400786E+03  0.15412665934E+03  0.17770000000E+01 0.  1.
         15    1    1    2    0    0  0.69664155217E+01 -0.67252728531E+00 -0.58664547273E+02  0.59107275981E+02  0.17770000000E+01 0. -1.
</event>
<event>
 6    1  0.1823098E-004  0.5016205E+03  0.7546771E-02  0.9396191E-01
        -11   -1    0    0    0    0  0.00000000000E+00  0.00000000000E+00  0.50000000000E+03  0.50000000000E+03  0.00000000000E+00 0. -1.
         11   -1    0    0    0    0 -0.00000000000E+00 -0.00000000000E+00 -0.50000000000E+03  0.50000000000E+03  0.00000000000E+00 0.  1.
        -11    1    1    2    0    0  0.12565773754E+02 -0.48510468704E+00  0.49822083794E+03  0.49837951137E+03  0.00000000000E+00 0. -1.
         11    1    1    2    0    0  0.51537046449E+01  0.72333492092E+01 -0.41158774578E+03  0.41168356111E+03  0.00000000000E+00 0.  1.
        -15    1    1    2    0    0  0.38166106800E+00 -0.53091485571E+01 -0.26920938163E+02  0.27499588436E+02  0.17770000000E+01 0.  1.
         15    1    1    2    0    0 -0.18101139467E+02 -0.14390959651E+01 -0.59712153997E+02  0.62437339078E+02  0.17770000000E+01 0. -1.
</event>
<event>
 6    1  0.1823098E-004  0.5001855E+03  0.7546771E-02  0.9399395E-01
        -11   -1    0    0    0    0  0.00000000000E+00  0.00000000000E+00  0.50000000000E+03  0.50000000000E+03  0.00000000000E+00 0.  1.
         11   -1    0    0    0    0 -0.00000000000E+00 -0.00000000000E+00 -0.50000000000E+03  0.50000000000E+03  0.00000000000E+00 0.  1.
        -11    1    1    2    0    0 -0.40298926320E+01 -0.18999298009E+01  0.27736432369E+03  0.27740010423E+03  0.00000000000E+00 0.  1.
         11    1    1    2    0    0 -0.61240784846E+01 -0.34128198321E+01 -0.49976532250E+03  0.49981449484E+03  0.00000000000E+00 0.  1.
        -15    1    1    2    0    0  0.67842505418E+01  0.49543231157E+01  0.11684635029E+03  0.11716142146E+03  0.17770000000E+01 0.  1.
         15    1    1    2    0    0  0.33697205748E+01  0.35842651724E+00  0.10555464852E+03  0.10562397947E+03  0.17770000000E+01 0. -1.
</event>
<event>
 6    1  0.1823098E-004  0.5081466E+03  0.7546771E-02  0.9381763E-01
        -11   -1    0    0    0    0  0.00000000000E+00  0.00000000000E+00  0.50000000000E+03  0.50000000000E+03  0.00000000000E+00 0.  1.
         11   -1    0    0    0    0 -0.00000000000E+00 -0.00000000000E+00 -0.50000000000E+03  0.50000000000E+03  0.00000000000E+00 0.  1.
        -11    1    1    2    0    0 -0.54014070709E+01  0.35024000982E+01  0.38605433048E+03  0.38610800054E+03  0.00000000000E+00 0.  1.
         11    1    1    2    0    0 -0.44789727199E+01 -0.36436742580E+02 -0.49048149080E+03  0.49185342352E+03  0.00000000000E+00 0.  1.
        -15    1    1    2    0    0 -0.13987450111E+02  0.35413754769E+02  0.53246282750E+02  0.65483640271E+02  0.17770000000E+01 0. -1.
         15    1    1    2    0    0  0.23867829901E+02 -0.24794122870E+01  0.51180877578E+02  0.56554935666E+02  0.17770000000E+01 0.  1.
</event>
<event>
 6    1  0.1823098E-004  0.5001537E+03  0.7546771E-02  0.9399466E-01
        -11   -1    0    0    0    0  0.00000000000E+00  0.00000000000E+00  0.50000000000E+03  0.50000000000E+03  0.00000000000E+00 0. -1.
         11   -1    0    0    0    0 -0.00000000000E+00 -0.00000000000E+00 -0.50000000000E+03  0.50000000000E+03  0.00000000000E+00 0.  1.
        -11    1    1    2    0    0 -0.18474390144E+01 -0.20194947250E+02  0.31949344238E+03  0.32013639070E+03  0.00000000000E+00 0. -1.
         11    1    1    2    0    0  0.52563769886E+01  0.30266996237E+02 -0.49890135590E+03  0.49984625984E+03  0.00000000000E+00 0.  1.
        -15    1    1    2    0    0 -0.41939609430E-01 -0.64891224620E+01  0.44270655909E+02  0.44779003705E+02  0.17770000000E+01 0.  1.
         15    1    1    2    0    0 -0.33669983647E+01 -0.35829265245E+01  0.13513725761E+03  0.13523834576E+03  0.17770000000E+01 0. -1.
</event>
<event>
 6    1  0.1823098E-004  0.5060629E+03  0.7546771E-02  0.9386345E-01
        -11   -1    0    0    0    0  0.00000000000E+00  0.00000000000E+00  0.50000000000E+03  0.50000000000E+03  0.00000000000E+00 0. -1.
         11   -1    0    0    0    0 -0.00000000000E+00 -0.00000000000E+00 -0.50000000000E+03  0.50000000000E+03  0.00000000000E+00 0.  1.
        -11    1    1    2    0    0  0.62749061614E+01 -0.48904487231E+01  0.49387306671E+03  0.49393713867E+03  0.00000000000E+00 0. -1.
         11    1    1    2    0    0  0.18573458608E+02 -0.71403919820E+01 -0.45894428880E+03  0.45937546602E+03  0.00000000000E+00 0.  1.
        -15    1    1    2    0    0 -0.18971941414E+02  0.13888164075E+02 -0.31696518079E+02  0.39504969937E+02  0.17770000000E+01 0. -1.
         15    1    1    2    0    0 -0.58764233556E+01 -0.18573233696E+01 -0.32322598348E+01  0.71824253699E+01  0.17770000000E+01 0.  1.
</event>
<event>
 6    1  0.1823098E-004  0.5005767E+03  0.7546771E-02  0.9398520E-01
        -11   -1    0    0    0    0  0.00000000000E+00  0.00000000000E+00  0.50000000000E+03  0.50000000000E+03  0.00000000000E+00 0. -1.
         11   -1    0    0    0    0 -0.00000000000E+00 -0.00000000000E+00 -0.50000000000E+03  0.50000000000E+03  0.00000000000E+00 0.  1.
        -11    1    1    2    0    0  0.11746066604E+01  0.53798897654E+01  0.11930399551E+03  0.11943101046E+03  0.00000000000E+00 0. -1.
         11    1    1    2    0    0  0.21194053835E+02  0.16389788410E+02 -0.49870412366E+03  0.49942328344E+03  0.00000000000E+00 0.  1.
        -15    1    1    2    0    0 -0.20771030177E+02 -0.13621884957E+02  0.19994773049E+03  0.20149254105E+03  0.17770000000E+01 0. -1.
         15    1    1    2    0    0 -0.15976303186E+01 -0.81477932183E+01  0.17945239767E+03  0.17965316505E+03  0.17770000000E+01 0.  1.
</event>
<event>
 6    1  0.1823098E-004  0.5041759E+03  0.7546771E-02  0.9390514E-01
        -11   -1    0    0    0    0  0.00000000000E+00  0.00000000000E+00  0.50000000000E+03  0.50000000000E+03  0.00000000000E+00 0. -1.
         11   -1    0    0    0    0 -0.00000000000E+00 -0.00000000000E+00 -0.50000000000E+03  0.50000000000E+03  0.00000000000E+00 0.  1.
        -11    1    1    2    0    0  0.70004095297E+01  0.71371346000E+00  0.49577421167E+03  0.49582414633E+03  0.00000000000E+00 0. -1.
         11    1    1    2    0    0 -0.19816080579E+02  0.17967905596E+02 -0.36666809830E+03  0.36764251249E+03  0.00000000000E+00 0.  1.
        -15    1    1    2    0    0  0.17708555670E+02 -0.16025326428E+02 -0.12843728797E+03  0.13065105703E+03  0.17770000000E+01 0.  1.
         15    1    1    2    0    0 -0.48928846213E+01 -0.26562926286E+01 -0.66882539756E+00  0.58822841531E+01  0.17770000000E+01 0. -1.
</event>
<event>
 6    1  0.1823098E-004  0.5028913E+03  0.7546771E-02  0.9393363E-01
        -11   -1    0    0    0    0  0.00000000000E+00  0.00000000000E+00  0.50000000000E+03  0.50000000000E+03  0.00000000000E+00 0. -1.
         11   -1    0    0    0    0 -0.00000000000E+00 -0.00000000000E+00 -0.50000000000E+03  0.50000000000E+03  0.00000000000E+00 0. -1.
        -11    1    1    2    0    0  0.27476809072E+01  0.14676513376E+02  0.39389196838E+03  0.39417487559E+03  0.00000000000E+00 0. -1.
         11    1    1    2    0    0  0.60912225703E+01  0.14805732722E+02 -0.49685080472E+03  0.49710867511E+03  0.00000000000E+00 0. -1.
        -15    1    1    2    0    0 -0.15335553691E+01  0.16248022507E+01  0.10211625871E+02  0.10603150775E+02  0.17770000000E+01 0.  1.
         15    1    1    2    0    0 -0.73053481084E+01 -0.31107048349E+02  0.92747210476E+02  0.98113298528E+02  0.17770000000E+01 0. -1.
</event>
<event>
 6    1  0.1823098E-004  0.5126436E+03  0.7546771E-02  0.9371955E-01
        -11   -1    0    0    0    0  0.00000000000E+00  0.00000000000E+00  0.50000000000E+03  0.50000000000E+03  0.00000000000E+00 0. -1.
         11   -1    0    0    0    0 -0.00000000000E+00 -0.00000000000E+00 -0.50000000000E+03  0.50000000000E+03  0.00000000000E+00 0.  1.
        -11    1    1    2    0    0 -0.97047057776E+01 -0.57445329916E+01  0.48722587534E+03  0.48735637328E+03  0.00000000000E+00 0. -1.
         11    1    1    2    0    0 -0.21668596682E+00 -0.35125944261E+02 -0.44171704632E+03  0.44311152990E+03  0.00000000000E+00 0.  1.
        -15    1    1    2    0    0  0.15162354619E+02  0.43411884362E+02 -0.36889958439E+02  0.58978940853E+02  0.17770000000E+01 0. -1.
         15    1    1    2    0    0 -0.52409628746E+01 -0.25414071102E+01 -0.86188705786E+01  0.10553155974E+02  0.17770000000E+01 0.  1.
</event>
<event>
 6    1  0.1823098E-004  0.5013874E+03  0.7546771E-02  0.9396711E-01
        -11   -1    0    0    0    0  0.00000000000E+00  0.00000000000E+00  0.50000000000E+03  0.50000000000E+03  0.00000000000E+00 0. -1.
         11   -1    0    0    0    0 -0.00000000000E+00 -0.00000000000E+00 -0.50000000000E+03  0.50000000000E+03  0.00000000000E+00 0. -1.
        -11    1    1    2    0    0  0.69202237399E+01  0.29868255843E+01  0.45223570278E+03  0.45229850928E+03  0.00000000000E+00 0. -1.
         11    1    1    2    0    0 -0.18275203159E+00  0.88807542477E+01 -0.49853343502E+03  0.49861256205E+03  0.00000000000E+00 0. -1.
        -15    1    1    2    0    0 -0.44634897672E+01 -0.80378301219E+00  0.12984388503E+02  0.13867980452E+02  0.17770000000E+01 0.  1.
         15    1    1    2    0    0 -0.22739819411E+01 -0.11063796820E+02  0.33313343739E+02  0.35220948227E+02  0.17770000000E+01 0. -1.
</event>
<event>
 6    1  0.1823098E-004  0.5034537E+03  0.7546771E-02  0.9392115E-01
        -11   -1    0    0    0    0  0.00000000000E+00  0.00000000000E+00  0.50000000000E+03  0.50000000000E+03  0.00000000000E+00 0.  1.
         11   -1    0    0    0    0 -0.00000000000E+00 -0.00000000000E+00 -0.50000000000E+03  0.50000000000E+03  0.00000000000E+00 0.  1.
        -11    1    1    2    0    0  0.29687145607E+01  0.94548218934E+01  0.49644744136E+03  0.49654634120E+03  0.00000000000E+00 0.  1.
         11    1    1    2    0    0  0.71863647552E+01  0.15216193129E+02 -0.43183301615E+03  0.43216076894E+03  0.00000000000E+00 0.  1.
        -15    1    1    2    0    0  0.24055819010E+01 -0.14405168712E+01 -0.43492234535E+01  0.54713240433E+01  0.17770000000E+01 0. -1.
         15    1    1    2    0    0 -0.12560661217E+02 -0.23230498151E+02 -0.60265201755E+02  0.65821565814E+02  0.17770000000E+01 0.  1.
</event>
<event>
 6    1  0.1823098E-004  0.5031315E+03  0.7546771E-02  0.9392830E-01
        -11   -1    0    0    0    0  0.00000000000E+00  0.00000000000E+00  0.50000000000E+03  0.50000000000E+03  0.00000000000E+00 0. -1.
         11   -1    0    0    0    0 -0.00000000000E+00 -0.00000000000E+00 -0.50000000000E+03  0.50000000000E+03  0.00000000000E+00 0. -1.
        -11    1    1    2    0    0 -0.60108437086E+01  0.57368656063E+01  0.25605756648E+03  0.25619234809E+03  0.00000000000E+00 0. -1.
         11    1    1    2    0    0  0.28412877562E+02 -0.59676695132E+01 -0.49601955832E+03  0.49686850064E+03  0.00000000000E+00 0. -1.
        -15    1    1    2    0    0 -0.26803073732E+02  0.21480962639E+02  0.17720936048E+03  0.18051634743E+03  0.17770000000E+01 0. -1.
         15    1    1    2    0    0  0.44010398787E+01 -0.21250158732E+02  0.62752631359E+02  0.66422803838E+02  0.17770000000E+01 0.  1.
</event>
<event>
 6    1  0.1823098E-004  0.5036484E+03  0.7546771E-02  0.9391683E-01
        -11   -1    0    0    0    0  0.00000000000E+00  0.00000000000E+00  0.50000000000E+03  0.50000000000E+03  0.00000000000E+00 0. -1.
         11   -1    0    0    0    0 -0.00000000000E+00 -0.00000000000E+00 -0.50000000000E+03  0.50000000000E+03  0.00000000000E+00 0. -1.
        -11    1    1    2    0    0  0.80980152876E+00  0.14214521605E+02  0.49614738711E+03  0.49635162752E+03  0.00000000000E+00 0. -1.
         11    1    1    2    0    0  0.14329872924E+02 -0.15759226680E+02 -0.42930090441E+03  0.42982899508E+03  0.00000000000E+00 0. -1.
        -15    1    1    2    0    0  0.25046132651E+01 -0.93039502188E+01 -0.14538508241E+02  0.17531757703E+02  0.17770000000E+01 0.  1.
         15    1    1    2    0    0 -0.17644287718E+02  0.10848655294E+02 -0.52307974460E+02  0.56287619704E+02  0.17770000000E+01 0. -1.
</event>
<event>
 6    1  0.1823098E-004  0.5009879E+03  0.7546771E-02  0.9397602E-01
        -11   -1    0    0    0    0  0.00000000000E+00  0.00000000000E+00  0.50000000000E+03  0.50000000000E+03  0.00000000000E+00 0. -1.
         11   -1    0    0    0    0 -0.00000000000E+00 -0.00000000000E+00 -0.50000000000E+03  0.50000000000E+03  0.00000000000E+00 0. -1.
        -11    1    1    2    0    0  0.90936431870E+01  0.99692236524E+01  0.49882961154E+03  0.49901208514E+03  0.00000000000E+00 0. -1.
         11    1    1    2    0    0  0.74463363553E+01 -0.13104053599E+02 -0.37607086279E+03  0.37637276467E+03  0.00000000000E+00 0. -1.
        -15    1    1    2    0    0 -0.68598382295E+01 -0.36560790014E+01 -0.28277369728E+02  0.29380123586E+02  0.17770000000E+01 0. -1.
         15    1    1    2    0    0 -0.96801413127E+01  0.67909089478E+01 -0.94481379027E+02  0.95235026603E+02  0.17770000000E+01 0.  1.
</event>
<event>
 6    1  0.1823098E-004  0.4976576E+03  0.7546771E-02  0.9405066E-01
        -11   -1    0    0    0    0  0.00000000000E+00  0.00000000000E+00  0.50000000000E+03  0.50000000000E+03  0.00000000000E+00 0.  1.
         11   -1    0    0    0    0 -0.00000000000E+00 -0.00000000000E+00 -0.50000000000E+03  0.50000000000E+03  0.00000000000E+00 0.  1.
        -11    1    1    2    0    0 -0.42832199186E+01  0.96480511322E+01  0.49852738843E+03  0.49863913592E+03  0.00000000000E+00 0.  1.
         11    1    1    2    0    0 -0.40554744103E+01 -0.12749171224E+01 -0.25442290680E+01  0.49543302183E+01  0.00000000000E+00 0.  1.
        -15    1    1    2    0    0  0.77383131979E+01  0.11072405180E+01 -0.10562988745E+03  0.10593365058E+03  0.17770000000E+01 0. -1.
         15    1    1    2    0    0  0.60038113099E+00 -0.94803745278E+01 -0.39035327191E+03  0.39047288328E+03  0.17770000000E+01 0.  1.
</event>
<event>
 6    1  0.1823098E-004  0.5019349E+03  0.7546771E-02  0.9395491E-01
        -11   -1    0    0    0    0  0.00000000000E+00  0.00000000000E+00  0.50000000000E+03  0.50000000000E+03  0.00000000000E+00 0. -1.
         11   -1    0    0    0    0 -0.00000000000E+00 -0.00000000000E+00 -0.50000000000E+03  0.50000000000E+03  0.00000000000E+00 0. -1.
        -11    1    1    2    0    0 -0.44638316524E+01 -0.22533327923E+01  0.35450416335E+03  0.35453942677E+03  0.00000000000E+00 0. -1.
         11    1    1    2    0    0 -0.17203262788E+02  0.15203464158E+02 -0.49753565828E+03  0.49806508494E+03  0.00000000000E+00 0. -1.
        -15    1    1    2    0    0  0.16549672509E+02 -0.20408017897E+02  0.10921269012E+03  0.11234299385E+03  0.17770000000E+01 0. -1.
         15    1    1    2    0    0  0.51174219312E+01  0.74578865313E+01  0.33818804809E+02  0.35052494440E+02  0.17770000000E+01 0.  1.
</event>
<event>
 6    1  0.1823098E-004  0.5002234E+03  0.7546771E-02  0.9399310E-01
        -11   -1    0    0    0    0  0.00000000000E+00  0.00000000000E+00  0.50000000000E+03  0.50000000000E+03  0.00000000000E+00 0. -1.
         11   -1    0    0    0    0 -0.00000000000E+00 -0.00000000000E+00 -0.50000000000E+03  0.50000000000E+03  0.00000000000E+00 0.  1.
        -11    1    1    2    0    0  0.99045085276E+01 -0.67608514486E+01  0.49963274507E+03  0.49977663846E+03  0.00000000000E+00 0. -1.
         11    1    1    2    0    0 -0.12334169342E+02  0.18038695232E+01 -0.41451273980E+03  0.41470012917E+03  0.00000000000E+00 0.  1.
        -15    1    1    2    0    0  0.21261544235E+01  0.15352417395E+01 -0.62087772240E+02  0.62168534570E+02  0.17770000000E+01 0.  1.
         15    1    1    2    0    0  0.30350639058E+00  0.34217401858E+01 -0.23032233033E+02  0.23354697804E+02  0.17770000000E+01 0.  1.
</event>
<event>
 6    1  0.1823098E-004  0.5007846E+03  0.7546771E-02  0.9398056E-01
        -11   -1    0    0    0    0  0.00000000000E+00  0.00000000000E+00  0.50000000000E+03  0.50000000000E+03  0.00000000000E+00 0. -1.
         11   -1    0    0    0    0 -0.00000000000E+00 -0.00000000000E+00 -0.50000000000E+03  0.50000000000E+03  0.00000000000E+00 0.  1.
        -11    1    1    2    0    0  0.32278704018E+01 -0.59419509266E+01  0.37302007832E+03  0.37308136479E+03  0.00000000000E+00 0. -1.
         11    1    1    2    0    0 -0.22946586795E+01 -0.81132194472E+01 -0.49914417133E+03  0.49921537792E+03  0.00000000000E+00 0.  1.
        -15    1    1    2    0    0 -0.16373103871E+00  0.75168390515E+01  0.10896964657E+03  0.10924317498E+03  0.17770000000E+01 0.  1.
         15    1    1    2    0    0 -0.76948068357E+00  0.65383313222E+01  0.17154446433E+02  0.18460082298E+02  0.17770000000E+01 0. -1.
</event>
<event>
 6    1  0.1823098E-004  0.5028778E+03  0.7546771E-02  0.9393393E-01
        -11   -1    0    0    0    0  0.00000000000E+00  0.00000000000E+00  0.50000000000E+03  0.50000000000E+03  0.00000000000E+00 0.  1.
         11   -1    0    0    0    0 -0.00000000000E+00 -0.00000000000E+00 -0.50000000000E+03  0.50000000000E+03  0.00000000000E+00 0.  1.
        -11    1    1    2    0    0  0.10117577923E+01 -0.17428643687E+02  0.49681553675E+03  0.49712217696E+03  0.00000000000E+00 0.  1.
         11    1    1    2    0    0 -0.18952271664E+02  0.34090667250E+01 -0.42925460206E+03  0.42968630852E+03  0.00000000000E+00 0.  1.
        -15    1    1    2    0    0  0.15560440750E+02  0.13828078271E+02 -0.66974883750E+02  0.70157935028E+02  0.17770000000E+01 0.  1.
         15    1    1    2    0    0  0.23800731217E+01  0.19149869082E+00 -0.58605093209E+00  0.30335794877E+01  0.17770000000E+01 0. -1.
</event>
<event>
 6    1  0.1823098E-004  0.5009159E+03  0.7546771E-02  0.9397763E-01
        -11   -1    0    0    0    0  0.00000000000E+00  0.00000000000E+00  0.50000000000E+03  0.50000000000E+03  0.00000000000E+00 0. -1.
         11   -1    0    0    0    0 -0.00000000000E+00 -0.00000000000E+00 -0.50000000000E+03  0.50000000000E+03  0.00000000000E+00 0.  1.
        -11    1    1    2    0    0 -0.78047843364E+01  0.30277088119E+01  0.49901385745E+03  0.49908407269E+03  0.00000000000E+00 0. -1.
         11    1    1    2    0    0 -0.21538428904E+01 -0.60883387274E+01 -0.46287158878E+03  0.46291663894E+03  0.00000000000E+00 0.  1.
        -15    1    1    2    0    0  0.41202681014E+01  0.33736465709E+01 -0.18053603683E+02  0.18906306762E+02  0.17770000000E+01 0. -1.
         15    1    1    2    0    0  0.58383591254E+01 -0.31301665537E+00 -0.18088664985E+02  0.19092981607E+02  0.17770000000E+01 0.  1.
</event>
<event>
 6    1  0.1823098E-004  0.4832037E+03  0.7546771E-02  0.9438197E-01
        -11   -1    0    0    0    0  0.00000000000E+00  0.00000000000E+00  0.50000000000E+03  0.50000000000E+03  0.00000000000E+00 0. -1.
         11   -1    0    0    0    0 -0.00000000000E+00 -0.00000000000E+00 -0.50000000000E+03  0.50000000000E+03  0.00000000000E+00 0.  1.
        -11    1    1    2    0    0  0.66146686800E+00 -0.82630094176E+01  0.48769502828E+03  0.48776547179E+03  0.00000000000E+00 0. -1.
         11    1    1    2    0    0 -0.18772936371E+02  0.15770963830E+02 -0.47825879794E+03  0.47888685955E+03  0.00000000000E+00 0.  1.
        -15    1    1    2    0    0  0.10286636159E+02 -0.10597581454E+02 -0.16503109026E+02  0.22217874621E+02  0.17770000000E+01 0. -1.
         15    1    1    2    0    0  0.78248333433E+01  0.30896270410E+01  0.70668786853E+01  0.11129794044E+02  0.17770000000E+01 0.  1.
</event>
<event>
 6    1  0.1823098E-004  0.5060467E+03  0.7546771E-02  0.9386381E-01
        -11   -1    0    0    0    0  0.00000000000E+00  0.00000000000E+00  0.50000000000E+03  0.50000000000E+03  0.00000000000E+00 0. -1.
         11   -1    0    0    0    0 -0.00000000000E+00 -0.00000000000E+00 -0.50000000000E+03  0.50000000000E+03  0.00000000000E+00 0. -1.
        -11    1    1    2    0    0 -0.93559881285E+01 -0.62376358277E+01  0.49382530022E+03  0.49395330726E+03  0.00000000000E+00 0. -1.
         11    1    1    2    0    0 -0.24027301433E+02  0.74317460928E+01 -0.42849233982E+03  0.42922980715E+03  0.00000000000E+00 0. -1.
        -15    1    1    2    0    0  0.88295791052E+01 -0.10710055555E+01 -0.26137549162E+01  0.94391717770E+01  0.17770000000E+01 0.  1.
         15    1    1    2    0    0  0.24553710457E+02 -0.12310470955E+00 -0.62719205490E+02  0.67377713810E+02  0.17770000000E+01 0. -1.
</event>
<event>
 6    1  0.1823098E-004  0.5012413E+03  0.7546771E-02  0.9397036E-01
        -11   -1    0    0    0    0  0.00000000000E+00  0.00000000000E+00  0.50000000000E+03  0.50000000000E+03  0.00000000000E+00 0. -1.
         11   -1    0    0    0    0 -0.00000000000E+00 -0.00000000000E+00 -0.50000000000E+03  0.50000000000E+03  0.00000000000E+00 0. -1.
        -11    1    1    2    0    0  0.92146351652E+01 -0.71309911332E+01  0.49160276235E+03  0.49174082247E+03  0.00000000000E+00 0. -1.
         11    1    1    2    0    0 -0.71624134396E+01 -0.38089851136E+01  0.49447682200E+01  0.95004877046E+01  0.00000000000E+00 0. -1.
        -15    1    1    2    0    0  0.15409934775E+02  0.20545784131E+02 -0.22318466278E+03  0.22466452048E+03  0.17770000000E+01 0.  1.
         15    1    1    2    0    0 -0.17462156500E+02 -0.96058078839E+01 -0.27336286779E+03  0.27409416934E+03  0.17770000000E+01 0. -1.
</event>
<event>
 6    1  0.1823098E-004  0.5027960E+03  0.7546771E-02  0.9393575E-01
        -11   -1    0    0    0    0  0.00000000000E+00  0.00000000000E+00  0.50000000000E+03  0.50000000000E+03  0.00000000000E+00 0. -1.
         11   -1    0    0    0    0 -0.00000000000E+00 -0.00000000000E+00 -0.50000000000E+03  0.50000000000E+03  0.00000000000E+00 0. -1.
        -11    1    1    2    0    0  0.18095460407E+02  0.22628604507E+01  0.49686941034E+03  0.49720395931E+03  0.00000000000E+00 0. -1.
         11    1    1    2    0    0 -0.79415549662E+01  0.22582164404E+02 -0.38941780710E+03  0.39015285586E+03  0.00000000000E+00 0. -1.
        -15    1    1    2    0    0 -0.12502318841E+02 -0.98600815897E+01 -0.33536926586E+02  0.37167356096E+02  0.17770000000E+01 0. -1.
         15    1    1    2    0    0  0.23484134001E+01 -0.14984943265E+02 -0.73914676651E+02  0.75475828737E+02  0.17770000000E+01 0.  1.
</event>
<event>
 6    1  0.1823098E-004  0.4816243E+03  0.7546771E-02  0.9441892E-01
        -11   -1    0    0    0    0  0.00000000000E+00  0.00000000000E+00  0.50000000000E+03  0.50000000000E+03  0.00000000000E+00 0. -1.
         11   -1    0    0    0    0 -0.00000000000E+00 -0.00000000000E+00 -0.50000000000E+03  0.50000000000E+03  0.00000000000E+00 0.  1.
        -11    1    1    2    0    0 -0.35784034127E+01 -0.59580767979E+01  0.48191163858E+03  0.48196175269E+03  0.00000000000E+00 0. -1.
         11    1    1    2    0    0  0.17088148736E+02 -0.11758031460E+02 -0.48109782793E+03  0.48154478106E+03  0.00000000000E+00 0.  1.
        -15    1    1    2    0    0 -0.19345363327E+02  0.11249337764E+02 -0.92106531260E+01  0.24264882905E+02  0.17770000000E+01 0.  1.
         15    1    1    2    0    0  0.58356180043E+01  0.64667704947E+01  0.83968424722E+01  0.12228583345E+02  0.17770000000E+01 0. -1.
</event>
<event>
 6    1  0.1823098E-004  0.5019650E+03  0.7546771E-02  0.9395424E-01
        -11   -1    0    0    0    0  0.00000000000E+00  0.00000000000E+00  0.50000000000E+03  0.50000000000E+03  0.00000000000E+00 0. -1.
         11   -1    0    0    0    0 -0.00000000000E+00 -0.00000000000E+00 -0.50000000000E+03  0.50000000000E+03  0.00000000000E+00 0. -1.
        -11    1    1    2    0    0 -0.13026644582E+02 -0.70243550573E+01  0.49781501559E+03  0.49803496341E+03  0.00000000000E+00 0. -1.
         11    1    1    2    0    0 -0.79190483338E+01  0.14310282254E+02 -0.42011179542E+03  0.42043003718E+03  0.00000000000E+00 0. -1.
        -15    1    1    2    0    0  0.89269317653E+01  0.14727090855E+01 -0.22016253138E+02  0.23869061859E+02  0.17770000000E+01 0. -1.
         15    1    1    2    0    0  0.12018761151E+02 -0.87586362816E+01 -0.55686967024E+02  0.57665937558E+02  0.17770000000E+01 0.  1.
</event>
<event>
 6    1  0.1823098E-004  0.5003588E+03  0.7546771E-02  0.9399007E-01
        -11   -1    0    0    0    0  0.00000000000E+00  0.00000000000E+00  0.50000000000E+03  0.50000000000E+03  0.00000000000E+00 0.  1.
         11   -1    0    0    0    0 -0.00000000000E+00 -0.00000000000E+00 -0.50000000000E+03  0.50000000000E+03  0.00000000000E+00 0.  1.
        -11    1    1    2    0    0 -0.75042525911E+01  0.32568457924E+01  0.32986053522E+03  0.32996195773E+03  0.00000000000E+00 0.  1.
         11    1    1    2    0    0  0.12115814553E+02  0.58801943663E+01 -0.49945966461E+03  0.49964119748E+03  0.00000000000E+00 0.  1.
        -15    1    1    2    0    0  0.27365974878E+01 -0.66121720552E+01  0.11286232199E+03  0.11310292321E+03  0.17770000000E+01 0.  1.
         15    1    1    2    0    0 -0.73481594494E+01 -0.25248681034E+01  0.56736807409E+02  0.57293921582E+02  0.17770000000E+01 0. -1.
</event>
<event>
 6    1  0.1823098E-004  0.5046478E+03  0.7546771E-02  0.9389470E-01
        -11   -1    0    0    0    0  0.00000000000E+00  0.00000000000E+00  0.50000000000E+03  0.50000000000E+03  0.00000000000E+00 0.  1.
         11   -1    0    0    0    0 -0.00000000000E+00 -0.00000000000E+00 -0.50000000000E+03  0.50000000000E+03  0.00000000000E+00 0. -1.
        -11    1    1    2    0    0 -0.72310969121E+01 -0.26420266843E+01  0.39774783812E+03  0.39782233698E+03  0.00000000000E+00 0.  1.
         11    1    1    2    0    0 -0.10803008179E+02 -0.31014349645E+02 -0.49426228967E+03  0.49535220385E+03  0.00000000000E+00 0. -1.
        -15    1    1    2    0    0  0.53539379809E+01 -0.33931533896E+01  0.14515660185E+02  0.15938640514E+02  0.17770000000E+01 0.  1.
         15    1    1    2    0    0  0.12680167110E+02  0.37049529719E+02  0.81998791368E+02  0.90886818655E+02  0.17770000000E+01 0. -1.
</event>
<event>
 6    1  0.1823098E-004  0.5021275E+03  0.7546771E-02  0.9395062E-01
        -11   -1    0    0    0    0  0.00000000000E+00  0.00000000000E+00  0.50000000000E+03  0.50000000000E+03  0.00000000000E+00 0.  1.
         11   -1    0    0    0    0 -0.00000000000E+00 -0.00000000000E+00 -0.50000000000E+03  0.50000000000E+03  0.00000000000E+00 0. -1.
        -11    1    1    2    0    0  0.59097638212E+01  0.59892759376E+01  0.48118990710E+03  0.48126346571E+03  0.00000000000E+00 0.  1.
         11    1    1    2    0    0  0.41779696087E+01 -0.68031083421E+01 -0.49780844124E+03  0.49787245544E+03  0.00000000000E+00 0. -1.
        -15    1    1    2    0    0 -0.60795407870E+01 -0.25126259532E+01  0.11391229068E+02  0.13273730977E+02  0.17770000000E+01 0.  1.
         15    1    1    2    0    0 -0.40081926429E+01  0.33264583577E+01  0.52273050763E+01  0.75903478728E+01  0.17770000000E+01 0. -1.
</event>
<event>
 6    1  0.1823098E-004  0.5001172E+03  0.7546771E-02  0.9399547E-01
        -11   -1    0    0    0    0  0.00000000000E+00  0.00000000000E+00  0.50000000000E+03  0.50000000000E+03  0.00000000000E+00 0. -1.
         11   -1    0    0    0    0 -0.00000000000E+00 -0.00000000000E+00 -0.50000000000E+03  0.50000000000E+03  0.00000000000E+00 0. -1.
        -11    1    1    2    0    0 -0.11755986079E+02 -0.17423110632E+02  0.49944071918E+03  0.49988278623E+03  0.00000000000E+00 0. -1.
         11    1    1    2    0    0 -0.29045319015E+01  0.35298037848E+01 -0.92120890689E+02  0.92234236169E+02  0.00000000000E+00 0. -1.
        -15    1    1    2    0    0  0.52231719832E+01  0.58365183217E+01 -0.10666310402E+03  0.10696505018E+03  0.17770000000E+01 0.  1.
         15    1    1    2    0    0  0.94373459970E+01  0.80567885257E+01 -0.30065672447E+03  0.30091792742E+03  0.17770000000E+01 0. -1.
</event>
<event>
 6    1  0.1823098E-004  0.5007524E+03  0.7546771E-02  0.9398128E-01
        -11   -1    0    0    0    0  0.00000000000E+00  0.00000000000E+00  0.50000000000E+03  0.50000000000E+03  0.00000000000E+00 0. -1.
         11   -1    0    0    0    0 -0.00000000000E+00 -0.00000000000E+00 -0.50000000000E+03  0.50000000000E+03  0.00000000000E+00 0. -1.
        -11    1    1    2    0    0  0.55072914573E+01  0.10484102633E+02  0.49910712407E+03  0.49924760186E+03  0.00000000000E+00 0. -1.
         11    1    1    2    0    0  0.80398989221E+01  0.16095607297E+00 -0.38076947522E+03  0.38085438050E+03  0.00000000000E+00 0. -1.
        -15    1    1    2    0    0 -0.19894050131E+00 -0.18804970129E+01 -0.83761072975E+01  0.87688510535E+01  0.17770000000E+01 0. -1.
         15    1    1    2    0    0 -0.13348249878E+02 -0.87645616930E+01 -0.10996154155E+03  0.11112916659E+03  0.17770000000E+01 0. -1.
</event>
<event>
 6    1  0.1823098E-004  0.5001102E+03  0.7546771E-02  0.9399563E-01
        -11   -1    0    0    0    0  0.00000000000E+00  0.00000000000E+00  0.50000000000E+03  0.50000000000E+03  0.00000000000E+00 0.  1.
         11   -1    0    0    0    0 -0.00000000000E+00 -0.00000000000E+00 -0.50000000000E+03  0.50000000000E+03  0.00000000000E+00 0.  1.
        -11    1    1    2    0    0 -0.62951077019E+01  0.39207130871E+01  0.44249636431E+03  0.44255850777E+03  0.00000000000E+00 0.  1.
         11    1    1    2    0    0  0.52844254304E+01 -0.68205909054E+01 -0.49981535524E+03  0.49988982281E+03  0.00000000000E+00 0.  1.
        -15    1    1    2    0    0  0.50429034807E+00  0.23663796810E+01  0.25800495444E+02  0.25974552079E+02  0.17770000000E+01 0.  1.
         15    1    1    2    0    0  0.50639192341E+00  0.53349813730E+00  0.31518495487E+02  0.31577117345E+02  0.17770000000E+01 0.  1.
</event>
<event>
 6    1  0.1823098E-004  0.5003729E+03  0.7546771E-02  0.9398976E-01
        -11   -1    0    0    0    0  0.00000000000E+00  0.00000000000E+00  0.50000000000E+03  0.50000000000E+03  0.00000000000E+00 0. -1.
         11   -1    0    0    0    0 -0.00000000000E+00 -0.00000000000E+00 -0.50000000000E+03  0.50000000000E+03  0.00000000000E+00 0.  1.
        -11    1    1    2    0    0 -0.44925376890E+01 -0.61304382243E+01  0.49956925292E+03  0.49962706455E+03  0.00000000000E+00 0. -1.
         11    1    1    2    0    0 -0.38675466930E+01  0.86007661677E+01 -0.42364862920E+03  0.42375357476E+03  0.00000000000E+00 0.  1.
        -15    1    1    2    0    0  0.61906903721E+01 -0.69961016401E-01 -0.40801319406E+02  0.41306596763E+02  0.17770000000E+01 0. -1.
         15    1    1    2    0    0  0.21693940099E+01 -0.24003669270E+01 -0.35119304312E+02  0.35312763926E+02  0.17770000000E+01 0.  1.
</event>
<event>
 6    1  0.1823098E-004  0.5026358E+03  0.7546771E-02  0.9393931E-01
        -11   -1    0    0    0    0  0.00000000000E+00  0.00000000000E+00  0.50000000000E+03  0.50000000000E+03  0.00000000000E+00 0. -1.
         11   -1    0    0    0    0 -0.00000000000E+00 -0.00000000000E+00 -0.50000000000E+03  0.50000000000E+03  0.00000000000E+00 0.  1.
        -11    1    1    2    0    0 -0.71308276372E+01  0.36743677558E+02  0.49595380764E+03  0.49736417830E+03  0.00000000000E+00 0. -1.
         11    1    1    2    0    0  0.33043298945E+01 -0.34038054751E+02 -0.85153758496E+02  0.91764210634E+02  0.00000000000E+00 0.  1.
        -15    1    1    2    0    0 -0.20695777519E+00 -0.26890616419E+01 -0.15581393920E+03  0.15584741019E+03  0.17770000000E+01 0. -1.
         15    1    1    2    0    0  0.40334555179E+01 -0.16561165506E-01 -0.25498610994E+03  0.25502420087E+03  0.17770000000E+01 0.  1.
</event>
<event>
 6    1  0.1823098E-004  0.5000974E+03  0.7546771E-02  0.9399592E-01
        -11   -1    0    0    0    0  0.00000000000E+00  0.00000000000E+00  0.50000000000E+03  0.50000000000E+03  0.00000000000E+00 0. -1.
         11   -1    0    0    0    0 -0.00000000000E+00 -0.00000000000E+00 -0.50000000000E+03  0.50000000000E+03  0.00000000000E+00 0. -1.
        -11    1    1    2    0    0 -0.67582027269E+01 -0.53599576172E+01  0.49982818515E+03  0.49990260763E+03  0.00000000000E+00 0. -1.
         11    1    1    2    0    0 -0.31251399979E+01  0.11779366027E+01 -0.84578109715E+02  0.84644023283E+02  0.00000000000E+00 0. -1.
        -15    1    1    2    0    0  0.94587015117E+01  0.46639262525E+01 -0.30573679290E+03  0.30592378709E+03  0.17770000000E+01 0. -1.
         15    1    1    2    0    0  0.42464121315E+00 -0.48190523806E+00 -0.10951328253E+03  0.10952958200E+03  0.17770000000E+01 0.  1.
</event>
<event>
 6    1  0.1823098E-004  0.4930405E+03  0.7546771E-02  0.9415518E-01
        -11   -1    0    0    0    0  0.00000000000E+00  0.00000000000E+00  0.50000000000E+03  0.50000000000E+03  0.00000000000E+00 0.  1.
         11   -1    0    0    0    0 -0.00000000000E+00 -0.00000000000E+00 -0.50000000000E+03  0.50000000000E+03  0.00000000000E+00 0.  1.
        -11    1    1    2    0    0 -0.44187403733E+01  0.51307625673E+01  0.49432845580E+03  0.49437482966E+03  0.00000000000E+00 0.  1.
         11    1    1    2    0    0 -0.54332261248E+01 -0.43522601752E+01 -0.49170998678E+03  0.49175926347E+03  0.00000000000E+00 0.  1.
        -15    1    1    2    0    0  0.26859217726E+01  0.33915817490E+01  0.75979341738E+00  0.47383559982E+01  0.17770000000E+01 0.  1.
         15    1    1    2    0    0  0.71660447255E+01 -0.41700841412E+01 -0.33782624366E+01  0.91275508677E+01  0.17770000000E+01 0. -1.
</event>
<event>
 6    1  0.1823098E-004  0.5034668E+03  0.7546771E-02  0.9392086E-01
        -11   -1    0    0    0    0  0.00000000000E+00  0.00000000000E+00  0.50000000000E+03  0.50000000000E+03  0.00000000000E+00 0. -1.
         11   -1    0    0    0    0 -0.00000000000E+00 -0.00000000000E+00 -0.50000000000E+03  0.50000000000E+03  0.00000000000E+00 0. -1.
        -11    1    1    2    0    0  0.72785636277E+01  0.29439730898E+01  0.49106294183E+03  0.49112570418E+03  0.00000000000E+00 0. -1.
         11    1    1    2    0    0 -0.64941739373E+01  0.53761750708E+01 -0.49646165561E+03  0.49653323458E+03  0.00000000000E+00 0. -1.
        -15    1    1    2    0    0  0.14197523980E+01 -0.77738235206E+01  0.47348826698E+01  0.93821571026E+01  0.17770000000E+01 0. -1.
         15    1    1    2    0    0 -0.22041420883E+01 -0.54632464000E+00  0.66383110180E+00  0.29589041366E+01  0.17770000000E+01 0.  1.
</event>
<event>
 6    1  0.1823098E-004  0.5003140E+03  0.7546771E-02  0.9399107E-01
        -11   -1    0    0    0    0  0.00000000000E+00  0.00000000000E+00  0.50000000000E+03  0.50000000000E+03  0.00000000000E+00 0.  1.
         11   -1    0    0    0    0 -0.00000000000E+00 -0.00000000000E+00 -0.50000000000E+03  0.50000000000E+03  0.00000000000E+00 0.  1.
        -11    1    1    2    0    0 -0.19220240552E+01  0.17151959242E+02  0.49938788578E+03  0.49968604578E+03  0.00000000000E+00 0.  1.
         11    1    1    2    0    0  0.39593376560E+01 -0.19573001461E+02 -0.27414122298E+03  0.27486758427E+03  0.00000000000E+00 0.  1.
        -15    1    1    2    0    0 -0.35211829022E+01  0.41814682823E+01 -0.99371231508E+02  0.99537343678E+02  0.17770000000E+01 0.  1.
         15    1    1    2    0    0  0.14838693015E+01 -0.17604260628E+01 -0.12587543129E+03  0.12590902628E+03  0.17770000000E+01 0. -1.
</event>
<event>
 6    1  0.1823098E-004  0.5074969E+03  0.7546771E-02  0.9383189E-01
        -11   -1    0    0    0    0  0.00000000000E+00  0.00000000000E+00  0.50000000000E+03  0.50000000000E+03  0.00000000000E+00 0. -1.
         11   -1    0    0    0    0 -0.00000000000E+00 -0.00000000000E+00 -0.50000000000E+03  0.50000000000E+03  0.00000000000E+00 0. -1.
        -11    1    1    2    0    0 -0.63742797273E+01  0.72113515880E+01  0.49240909012E+03  0.49250314422E+03  0.00000000000E+00 0. -1.
         11    1    1    2    0    0  0.42290200964E+02  0.22231004724E+01 -0.43232047101E+03  0.43438967866E+03  0.00000000000E+00 0. -1.
        -15    1    1    2    0    0 -0.36773918534E+02 -0.72792858153E+01 -0.59125135070E+02  0.70030339228E+02  0.17770000000E+01 0. -1.
         15    1    1    2    0    0  0.85799729749E+00 -0.21551662451E+01 -0.96348404777E+00  0.30768378925E+01  0.17770000000E+01 0.  1.
</event>
<event>
 6    1  0.1823098E-004  0.5002614E+03  0.7546771E-02  0.9399225E-01
        -11   -1    0    0    0    0  0.00000000000E+00  0.00000000000E+00  0.50000000000E+03  0.50000000000E+03  0.00000000000E+00 0. -1.
         11   -1    0    0    0    0 -0.00000000000E+00 -0.00000000000E+00 -0.50000000000E+03  0.50000000000E+03  0.00000000000E+00 0.  1.
        -11    1    1    2    0    0 -0.12199934047E+02  0.40852288442E+01  0.31215291458E+03  0.31241794053E+03  0.00000000000E+00 0. -1.
         11    1    1    2    0    0  0.30075612318E+02 -0.13502207111E+02 -0.49864997244E+03  0.49973857872E+03  0.00000000000E+00 0.  1.
        -15    1    1    2    0    0 -0.10940685352E+02  0.78135810302E+01  0.15029197785E+03  0.15090257446E+03  0.17770000000E+01 0. -1.
         15    1    1    2    0    0 -0.69349929195E+01  0.16033972368E+01  0.36205080009E+02  0.36940906282E+02  0.17770000000E+01 0.  1.
</event>
<event>
 6    1  0.1823098E-004  0.5007269E+03  0.7546771E-02  0.9398185E-01
        -11   -1    0    0    0    0  0.00000000000E+00  0.00000000000E+00  0.50000000000E+03  0.50000000000E+03  0.00000000000E+00 0.  1.
         11   -1    0    0    0    0 -0.00000000000E+00 -0.00000000000E+00 -0.50000000000E+03  0.50000000000E+03  0.00000000000E+00 0.  1.
        -11    1    1    2    0    0  0.65458598643E+01  0.40067884960E+00  0.33869193549E+03  0.33875542208E+03  0.00000000000E+00 0.  1.
         11    1    1    2    0    0 -0.59016827263E+00  0.13016476219E+02 -0.49910304494E+03  0.49927309803E+03  0.00000000000E+00 0.  1.
        -15    1    1    2    0    0 -0.20581724913E+01  0.12579606302E+01  0.83608797906E+02  0.83662460848E+02  0.17770000000E+01 0.  1.
         15    1    1    2    0    0 -0.38975191004E+01 -0.14675115699E+02  0.76802311542E+02  0.78309019040E+02  0.17770000000E+01 0. -1.
</event>
<event>
 6    1  0.1823098E-004  0.5218717E+03  0.7546771E-02  0.9352158E-01
        -11   -1    0    0    0    0  0.00000000000E+00  0.00000000000E+00  0.50000000000E+03  0.50000000000E+03  0.00000000000E+00 0.  1.
         11   -1    0    0    0    0 -0.00000000000E+00 -0.00000000000E+00 -0.50000000000E+03  0.50000000000E+03  0.00000000000E+00 0.  1.
        -11    1    1    2    0    0 -0.10335982965E+01 -0.12243405360E+02  0.42027884109E+03  0.42045840885E+03  0.00000000000E+00 0.  1.
         11    1    1    2    0    0 -0.32528277918E+02 -0.42711070996E+02 -0.47510454641E+03  0.47812828244E+03  0.00000000000E+00 0.  1.
        -15    1    1    2    0    0  0.13060200325E+02  0.32545470170E+02  0.60985547578E+02  0.70371664777E+02  0.17770000000E+01 0. -1.
         15    1    1    2    0    0  0.20501675890E+02  0.22409006186E+02 -0.61598422654E+01  0.31041643936E+02  0.17770000000E+01 0.  1.
</event>
<event>
 6    1  0.1823098E-004  0.5009816E+03  0.7546771E-02  0.9397616E-01
        -11   -1    0    0    0    0  0.00000000000E+00  0.00000000000E+00  0.50000000000E+03  0.50000000000E+03  0.00000000000E+00 0.  1.
         11   -1    0    0    0    0 -0.00000000000E+00 -0.00000000000E+00 -0.50000000000E+03  0.50000000000E+03  0.00000000000E+00 0. -1.
        -11    1    1    2    0    0 -0.94515613300E+01  0.57286827353E+01  0.44895038320E+03  0.44908640193E+03  0.00000000000E+00 0.  1.
         11    1    1    2    0    0  0.12621884735E+02  0.11646005100E+01 -0.49885735621E+03  0.49901836651E+03  0.00000000000E+00 0. -1.
        -15    1    1    2    0    0 -0.70419936400E+01 -0.66840845104E+01  0.32020383012E+02  0.33507153228E+02  0.17770000000E+01 0.  1.
         15    1    1    2    0    0  0.38716702346E+01 -0.20919873495E+00  0.17886589989E+02  0.18388078338E+02  0.17770000000E+01 0. -1.
</event>
<event>
 6    1  0.1823098E-004  0.4812131E+03  0.7546771E-02  0.9442857E-01
        -11   -1    0    0    0    0  0.00000000000E+00  0.00000000000E+00  0.50000000000E+03  0.50000000000E+03  0.00000000000E+00 0.  1.
         11   -1    0    0    0    0 -0.00000000000E+00 -0.00000000000E+00 -0.50000000000E+03  0.50000000000E+03  0.00000000000E+00 0. -1.
        -11    1    1    2    0    0  0.73429124178E+01  0.12547812474E+02  0.47863104605E+03  0.47885179775E+03  0.00000000000E+00 0.  1.
         11    1    1    2    0    0  0.55614300069E+01 -0.11652496890E+02 -0.48350131007E+03  0.48367367824E+03  0.00000000000E+00 0. -1.
        -15    1    1    2    0    0 -0.11963227880E+02 -0.10053745862E+02 -0.10894300187E+02  0.19132175327E+02  0.17770000000E+01 0. -1.
         15    1    1    2    0    0 -0.94111454453E+00  0.91584302774E+01  0.15764564200E+02  0.18342348682E+02  0.17770000000E+01 0.  1.
</event>
<event>
 6    1  0.1823098E-004  0.5104053E+03  0.7546771E-02  0.9376823E-01
        -11   -1    0    0    0    0  0.00000000000E+00  0.00000000000E+00  0.50000000000E+03  0.50000000000E+03  0.00000000000E+00 0. -1.
         11   -1    0    0    0    0 -0.00000000000E+00 -0.00000000000E+00 -0.50000000000E+03  0.50000000000E+03  0.00000000000E+00 0.  1.
        -11    1    1    2    0    0  0.95849994784E+01  0.30149714891E+01  0.48949155070E+03  0.48959466957E+03  0.00000000000E+00 0. -1.
         11    1    1    2    0    0 -0.13386536963E+02 -0.28670094914E+02 -0.46889121181E+03  0.46995759620E+03  0.00000000000E+00 0.  1.
        -15    1    1    2    0    0 -0.31203089838E+00  0.27080385860E+02 -0.10128735871E+02  0.28968839828E+02  0.17770000000E+01 0. -1.
         15    1    1    2    0    0  0.41135683832E+01 -0.14252624353E+01 -0.10471603018E+02  0.11478894399E+02  0.17770000000E+01 0.  1.
</event>
<event>
 6    1  0.1823098E-004  0.5042714E+03  0.7546771E-02  0.9390303E-01
        -11   -1    0    0    0    0  0.00000000000E+00  0.00000000000E+00  0.50000000000E+03  0.50000000000E+03  0.00000000000E+00 0.  1.
         11   -1    0    0    0    0 -0.00000000000E+00 -0.00000000000E+00 -0.50000000000E+03  0.50000000000E+03  0.00000000000E+00 0. -1.
        -11    1    1    2    0    0  0.91864802962E+01  0.12295016056E+01  0.49564193949E+03  0.49572859033E+03  0.00000000000E+00 0.  1.
         11    1    1    2    0    0 -0.24486288619E+02 -0.23823970403E+02 -0.42333501181E+03  0.42471130445E+03  0.00000000000E+00 0. -1.
        -15    1    1    2    0    0 -0.17549760857E+01 -0.76239009507E+00 -0.14033192628E+01  0.29644921440E+01  0.17770000000E+01 0. -1.
         15    1    1    2    0    0  0.17054784408E+02  0.23356858893E+02 -0.70903608409E+02  0.76595613079E+02  0.17770000000E+01 0.  1.
</event>
<event>
 6    1  0.1823098E-004  0.5076564E+03  0.7546771E-02  0.9382839E-01
        -11   -1    0    0    0    0  0.00000000000E+00  0.00000000000E+00  0.50000000000E+03  0.50000000000E+03  0.00000000000E+00 0. -1.
         11   -1    0    0    0    0 -0.00000000000E+00 -0.00000000000E+00 -0.50000000000E+03  0.50000000000E+03  0.00000000000E+00 0.  1.
        -11    1    1    2    0    0 -0.18254163326E+01 -0.48205746911E+01  0.35936529525E+03  0.35940226143E+03  0.00000000000E+00 0. -1.
         11    1    1    2    0    0  0.23031914981E+02  0.26071017954E+02 -0.49111307844E+03  0.49234360248E+03  0.00000000000E+00 0.  1.
        -15    1    1    2    0    0 -0.60021229564E+01  0.37638525487E+01  0.11345551619E+03  0.11369038635E+03  0.17770000000E+01 0.  1.
         15    1    1    2    0    0 -0.15204375692E+02 -0.25014295812E+02  0.18292266998E+02  0.34563749740E+02  0.17770000000E+01 0.  1.
</event>
<event>
 6    1  0.1823098E-004  0.5000419E+03  0.7546771E-02  0.9399716E-01
        -11   -1    0    0    0    0  0.00000000000E+00  0.00000000000E+00  0.50000000000E+03  0.50000000000E+03  0.00000000000E+00 0.  1.
         11   -1    0    0    0    0 -0.00000000000E+00 -0.00000000000E+00 -0.50000000000E+03  0.50000000000E+03  0.00000000000E+00 0.  1.
        -11    1    1    2    0    0 -0.11002934891E+02  0.33301185279E+01  0.49982592549E+03  0.49995810831E+03  0.00000000000E+00 0.  1.
         11    1    1    2    0    0  0.92983098203E+01 -0.20489761846E+01 -0.38685292175E+03  0.38697007627E+03  0.00000000000E+00 0.  1.
        -15    1    1    2    0    0  0.17395423326E+01 -0.47430463582E+00 -0.45311516660E+02  0.45382179801E+02  0.17770000000E+01 0.  1.
         15    1    1    2    0    0 -0.34917261512E-01 -0.80683770745E+00 -0.67661487088E+02  0.67689635619E+02  0.17770000000E+01 0.  1.
</event>
<event>
 6    1  0.1823098E-004  0.4830592E+03  0.7546771E-02  0.9438535E-01
        -11   -1    0    0    0    0  0.00000000000E+00  0.00000000000E+00  0.50000000000E+03  0.50000000000E+03  0.00000000000E+00 0.  1.
         11   -1    0    0    0    0 -0.00000000000E+00 -0.00000000000E+00 -0.50000000000E+03  0.50000000000E+03  0.00000000000E+00 0. -1.
        -11    1    1    2    0    0 -0.88724722847E+01  0.12256479492E+02  0.48354295645E+03  0.48377963247E+03  0.00000000000E+00 0.  1.
         11    1    1    2    0    0  0.12040841728E+01  0.12622104903E+02 -0.48252343543E+03  0.48268999688E+03  0.00000000000E+00 0. -1.
        -15    1    1    2    0    0  0.37699932067E+01 -0.98260105153E+01  0.98113318911E+01  0.14497699607E+02  0.17770000000E+01 0.  1.
         15    1    1    2    0    0  0.38983949052E+01 -0.15052573880E+02 -0.10830852920E+02  0.19032671048E+02  0.17770000000E+01 0. -1.
</event>
<event>
 6    1  0.1823098E-004  0.4854000E+03  0.7546771E-02  0.9433084E-01
        -11   -1    0    0    0    0  0.00000000000E+00  0.00000000000E+00  0.50000000000E+03  0.50000000000E+03  0.00000000000E+00 0.  1.
         11   -1    0    0    0    0 -0.00000000000E+00 -0.00000000000E+00 -0.50000000000E+03  0.50000000000E+03  0.00000000000E+00 0.  1.
        -11    1    1    2    0    0 -0.11590412838E+02  0.43768419614E+01  0.48022471387E+03  0.48038450248E+03  0.00000000000E+00 0.  1.
         11    1    1    2    0    0 -0.12988194159E+02 -0.57895624190E+01 -0.49057671089E+03  0.49078276405E+03  0.00000000000E+00 0.  1.
        -15    1    1    2    0    0  0.22583907796E+02 -0.11624575693E+01  0.67624373134E+01  0.23670075758E+02  0.17770000000E+01 0. -1.
         15    1    1    2    0    0  0.19946992000E+01  0.25751780269E+01  0.35895597102E+01  0.51626577150E+01  0.17770000000E+01 0.  1.
</event>
<event>
 6    1  0.1823098E-004  0.4849227E+03  0.7546771E-02  0.9434193E-01
        -11   -1    0    0    0    0  0.00000000000E+00  0.00000000000E+00  0.50000000000E+03  0.50000000000E+03  0.00000000000E+00 0. -1.
         11   -1    0    0    0    0 -0.00000000000E+00 -0.00000000000E+00 -0.50000000000E+03  0.50000000000E+03  0.00000000000E+00 0. -1.
        -11    1    1    2    0    0 -0.30004139544E+02 -0.34030129082E+02  0.46396740309E+03  0.46618027543E+03  0.00000000000E+00 0. -1.
         11    1    1    2    0    0  0.46538600738E+02 -0.16494593941E+01  0.38412175278E+01  0.46725978075E+02  0.00000000000E+00 0. -1.
        -15    1    1    2    0    0 -0.36114366412E+02  0.72953172304E+02 -0.19917590557E+03  0.21517576977E+03  0.17770000000E+01 0.  1.
         15    1    1    2    0    0  0.19579905218E+02 -0.37273583827E+02 -0.26863271505E+03  0.27191797672E+03  0.17770000000E+01 0. -1.
</event>
<event>
 6    1  0.1823098E-004  0.5026296E+03  0.7546771E-02  0.9393945E-01
        -11   -1    0    0    0    0  0.00000000000E+00  0.00000000000E+00  0.50000000000E+03  0.50000000000E+03  0.00000000000E+00 0.  1.
         11   -1    0    0    0    0 -0.00000000000E+00 -0.00000000000E+00 -0.50000000000E+03  0.50000000000E+03  0.00000000000E+00 0.  1.
        -11    1    1    2    0    0 -0.10166335799E+03  0.45800657798E+02  0.48471042380E+03  0.49737041886E+03  0.00000000000E+00 0.  1.
         11    1    1    2    0    0  0.95621490401E+02 -0.39864451978E+02 -0.29633879317E+03  0.31392566683E+03  0.00000000000E+00 0.  1.
        -15    1    1    2    0    0  0.17641566962E+00  0.85701445108E+00 -0.26498605904E+02  0.26572531684E+02  0.17770000000E+01 0. -1.
         15    1    1    2    0    0  0.58654519218E+01 -0.67932202708E+01 -0.16187302473E+03  0.16213138263E+03  0.17770000000E+01 0.  1.
</event>
<event>
 6    1  0.1823098E-004  0.5021498E+03  0.7546771E-02  0.9395012E-01
        -11   -1    0    0    0    0  0.00000000000E+00  0.00000000000E+00  0.50000000000E+03  0.50000000000E+03  0.00000000000E+00 0.  1.
         11   -1    0    0    0    0 -0.00000000000E+00 -0.00000000000E+00 -0.50000000000E+03  0.50000000000E+03  0.00000000000E+00 0.  1.
        -11    1    1    2    0    0  0.39455383996E+01  0.58435663587E+01  0.40473063458E+03  0.40479204675E+03  0.00000000000E+00 0.  1.
         11    1    1    2    0    0  0.13332260346E+02  0.11971078283E+02 -0.49752767089E+03  0.49785021762E+03  0.00000000000E+00 0.  1.
        -15    1    1    2    0    0 -0.91742451059E+01 -0.60933908240E+01  0.17864973064E+02  0.21062079113E+02  0.17770000000E+01 0. -1.
         15    1    1    2    0    0 -0.81035536393E+01 -0.11721253818E+02  0.74932063247E+02  0.76295656522E+02  0.17770000000E+01 0.  1.
</event>
<event>
 6    1  0.1823098E-004  0.5041893E+03  0.7546771E-02  0.9390484E-01
        -11   -1    0    0    0    0  0.00000000000E+00  0.00000000000E+00  0.50000000000E+03  0.50000000000E+03  0.00000000000E+00 0.  1.
         11   -1    0    0    0    0 -0.00000000000E+00 -0.00000000000E+00 -0.50000000000E+03  0.50000000000E+03  0.00000000000E+00 0. -1.
        -11    1    1    2    0    0 -0.22337808765E+01 -0.19448655776E+02  0.46369452969E+03  0.46410759189E+03  0.00000000000E+00 0.  1.
         11    1    1    2    0    0  0.19988763717E+02  0.19972013540E+02 -0.49500491448E+03  0.49581074752E+03  0.00000000000E+00 0. -1.
        -15    1    1    2    0    0 -0.18023090390E+02 -0.57082086984E+01  0.27427939775E+02  0.33359631938E+02  0.17770000000E+01 0.  1.
         15    1    1    2    0    0  0.26810754873E+00  0.51848509339E+01  0.38824450118E+01  0.67220286472E+01  0.17770000000E+01 0. -1.
</event>
<event>
 6    1  0.1823098E-004  0.4843937E+03  0.7546771E-02  0.9435423E-01
        -11   -1    0    0    0    0  0.00000000000E+00  0.00000000000E+00  0.50000000000E+03  0.50000000000E+03  0.00000000000E+00 0.  1.
         11   -1    0    0    0    0 -0.00000000000E+00 -0.00000000000E+00 -0.50000000000E+03  0.50000000000E+03  0.00000000000E+00 0.  1.
        -11    1    1    2    0    0  0.36288435249E+01  0.12420913241E+02  0.48255720338E+03  0.48273067245E+03  0.00000000000E+00 0.  1.
         11    1    1    2    0    0  0.36152922842E+01  0.15614348577E+02 -0.48623229121E+03  0.48649637124E+03  0.00000000000E+00 0.  1.
        -15    1    1    2    0    0  0.10126258295E+01 -0.13145888693E+02  0.30196755320E+01  0.13642432698E+02  0.17770000000E+01 0. -1.
         15    1    1    2    0    0 -0.82567616386E+01 -0.14889373125E+02  0.65541229829E+00  0.17130523609E+02  0.17770000000E+01 0.  1.
</event>
<event>
 6    1  0.1823098E-004  0.5006178E+03  0.7546771E-02  0.9398428E-01
        -11   -1    0    0    0    0  0.00000000000E+00  0.00000000000E+00  0.50000000000E+03  0.50000000000E+03  0.00000000000E+00 0. -1.
         11   -1    0    0    0    0 -0.00000000000E+00 -0.00000000000E+00 -0.50000000000E+03  0.50000000000E+03  0.00000000000E+00 0. -1.
        -11    1    1    2    0    0 -0.27209595274E+01  0.45395249275E+01  0.33785183063E+03  0.33789328252E+03  0.00000000000E+00 0. -1.
         11    1    1    2    0    0  0.88266769698E+01 -0.75938216738E+01 -0.49924641800E+03  0.49938218054E+03  0.00000000000E+00 0. -1.
        -15    1    1    2    0    0 -0.11441447690E+02  0.96699403259E+00  0.14067606628E+03  0.14115507485E+03  0.17770000000E+01 0.  1.
         15    1    1    2    0    0  0.53357302479E+01  0.20873027137E+01  0.20718521090E+02  0.21569462094E+02  0.17770000000E+01 0. -1.
</event>
<event>
 6    1  0.1823098E-004  0.5111552E+03  0.7546771E-02  0.9375189E-01
        -11   -1    0    0    0    0  0.00000000000E+00  0.00000000000E+00  0.50000000000E+03  0.50000000000E+03  0.00000000000E+00 0.  1.
         11   -1    0    0    0    0 -0.00000000000E+00 -0.00000000000E+00 -0.50000000000E+03  0.50000000000E+03  0.00000000000E+00 0.  1.
        -11    1    1    2    0    0  0.43633461020E+01 -0.81448501824E+01  0.42810973623E+03  0.42820943898E+03  0.00000000000E+00 0.  1.
         11    1    1    2    0    0 -0.24224161133E+02 -0.27108370656E+02 -0.48749107318E+03  0.48884478127E+03  0.00000000000E+00 0.  1.
        -15    1    1    2    0    0  0.21841259191E+02  0.13253328089E+01  0.13328222079E+02  0.25682607790E+02  0.17770000000E+01 0.  1.
         15    1    1    2    0    0 -0.19804441607E+01  0.33927888030E+02  0.46053114866E+02  0.57263171962E+02  0.17770000000E+01 0. -1.
</event>
<event>
 6    1  0.1823098E-004  0.4929197E+03  0.7546771E-02  0.9415793E-01
        -11   -1    0    0    0    0  0.00000000000E+00  0.00000000000E+00  0.50000000000E+03  0.50000000000E+03  0.00000000000E+00 0.  1.
         11   -1    0    0    0    0 -0.00000000000E+00 -0.00000000000E+00 -0.50000000000E+03  0.50000000000E+03  0.00000000000E+00 0.  1.
        -11    1    1    2    0    0  0.73874273399E+01  0.34232275556E+00  0.49582919409E+03  0.49588434234E+03  0.00000000000E+00 0.  1.
         11    1    1    2    0    0 -0.18990051794E+00 -0.95928388847E+01 -0.48994827460E+03  0.49004221288E+03  0.00000000000E+00 0.  1.
        -15    1    1    2    0    0 -0.15341897205E+01  0.85785784216E+00 -0.96961856425E+00  0.26809601519E+01  0.17770000000E+01 0.  1.
         15    1    1    2    0    0 -0.56633371015E+01  0.83926582870E+01 -0.49113009290E+01  0.11392484631E+02  0.17770000000E+01 0. -1.
</event>
<event>
 6    1  0.1823098E-004  0.5000378E+03  0.7546771E-02  0.9399725E-01
        -11   -1    0    0    0    0  0.00000000000E+00  0.00000000000E+00  0.50000000000E+03  0.50000000000E+03  0.00000000000E+00 0.  1.
         11   -1    0    0    0    0 -0.00000000000E+00 -0.00000000000E+00 -0.50000000000E+03  0.50000000000E+03  0.00000000000E+00 0. -1.
        -11    1    1    2    0    0  0.71433159422E+01 -0.87161245750E+01  0.49853540509E+03  0.49866275970E+03  0.00000000000E+00 0.  1.
         11    1    1    2    0    0  0.46109288205E+00  0.41383049289E+00  0.12275776416E+01  0.13750669762E+01  0.00000000000E+00 0. -1.
        -15    1    1    2    0    0 -0.52303303675E+00 -0.90249180386E+00 -0.11942493877E+03  0.11944271340E+03  0.17770000000E+01 0. -1.
         15    1    1    2    0    0 -0.70813757875E+01  0.92047858860E+01 -0.38033804396E+03  0.38051945992E+03  0.17770000000E+01 0. -1.
</event>
<event>
 6    1  0.1823098E-004  0.5073539E+03  0.7546771E-02  0.9383503E-01
        -11   -1    0    0    0    0  0.00000000000E+00  0.00000000000E+00  0.50000000000E+03  0.50000000000E+03  0.00000000000E+00 0. -1.
         11   -1    0    0    0    0 -0.00000000000E+00 -0.00000000000E+00 -0.50000000000E+03  0.50000000000E+03  0.00000000000E+00 0.  1.
        -11    1    1    2    0    0  0.68805784683E+01  0.13184696060E+01  0.49259626239E+03  0.49264607828E+03  0.00000000000E+00 0. -1.
         11    1    1    2    0    0 -0.24866561978E+02  0.19722498063E+01 -0.43955833163E+03  0.44026555915E+03  0.00000000000E+00 0.  1.
        -15    1    1    2    0    0  0.23629313300E+02 -0.94418154776E+01 -0.52698111645E+02  0.58546913040E+02  0.17770000000E+01 0. -1.
         15    1    1    2    0    0 -0.56433297901E+01  0.61510960653E+01 -0.33981911980E+00  0.85414495233E+01  0.17770000000E+01 0.  1.
</event>
<event>
 6    1  0.2323119E-004  0.5000527E+03  0.7546771E-02  0.9399692E-01
        -11   -1    0    0    0    0  0.00000000000E+00  0.00000000000E+00  0.50000000000E+03  0.50000000000E+03  0.00000000000E+00 0.  1.
         11   -1    0    0    0    0 -0.00000000000E+00 -0.00000000000E+00 -0.50000000000E+03  0.50000000000E+03  0.00000000000E+00 0.  1.
        -11    1    1    2    0    0 -0.21592339187E+01  0.47017144421E+01  0.70115400905E+02  0.70306029997E+02  0.00000000000E+00 0.  1.
         11    1    1    2    0    0  0.92588248228E+01 -0.11889877893E+02 -0.49972010237E+03  0.49994727297E+03  0.00000000000E+00 0.  1.
        -15    1    1    2    0    0 -0.30484372161E+01  0.19255995414E+01  0.19433750420E+03  0.19437907338E+03  0.17770000000E+01 0.  1.
         15    1    1    2    0    0 -0.40511536880E+01  0.52625639091E+01  0.23526719727E+03  0.23536762365E+03  0.17770000000E+01 0.  1.
</event>
<event>
 6    1  0.1823098E-004  0.5040125E+03  0.7546771E-02  0.9390876E-01
        -11   -1    0    0    0    0  0.00000000000E+00  0.00000000000E+00  0.50000000000E+03  0.50000000000E+03  0.00000000000E+00 0.  1.
         11   -1    0    0    0    0 -0.00000000000E+00 -0.00000000000E+00 -0.50000000000E+03  0.50000000000E+03  0.00000000000E+00 0. -1.
        -11    1    1    2    0    0 -0.15395006476E+02 -0.20532635752E+02  0.49532317493E+03  0.49598754317E+03  0.00000000000E+00 0.  1.
         11    1    1    2    0    0 -0.48638676098E+01  0.20577052505E+02 -0.32577067655E+02  0.38837322705E+02  0.00000000000E+00 0. -1.
        -15    1    1    2    0    0  0.20843830703E+02 -0.15991051632E+02 -0.37836002483E+03  0.37927515754E+03  0.17770000000E+01 0.  1.
         15    1    1    2    0    0 -0.58495661708E+00  0.15946634880E+02 -0.84386082444E+02  0.85899976586E+02  0.17770000000E+01 0. -1.
</event>
<event>
 6    1  0.1823098E-004  0.5007267E+03  0.7546771E-02  0.9398185E-01
        -11   -1    0    0    0    0  0.00000000000E+00  0.00000000000E+00  0.50000000000E+03  0.50000000000E+03  0.00000000000E+00 0.  1.
         11   -1    0    0    0    0 -0.00000000000E+00 -0.00000000000E+00 -0.50000000000E+03  0.50000000000E+03  0.00000000000E+00 0.  1.
        -11    1    1    2    0    0 -0.43786705824E+01  0.36995094392E+01  0.35362546272E+03  0.35367192002E+03  0.00000000000E+00 0.  1.
         11    1    1    2    0    0  0.19636619544E+01  0.86110274571E+01 -0.49919521876E+03  0.49927334417E+03  0.00000000000E+00 0.  1.
        -15    1    1    2    0    0 -0.45856857999E+01 -0.53782666155E+01  0.10556826906E+03  0.10581952291E+03  0.17770000000E+01 0. -1.
         15    1    1    2    0    0  0.70006944279E+01 -0.69322702808E+01  0.40001486980E+02  0.41235212905E+02  0.17770000000E+01 0.  1.
</event>
<event>
 6    1  0.2289502E-004  0.4363644E+03  0.7546771E-02  0.9554666E-01
        -11   -1    0    0    0    0  0.00000000000E+00  0.00000000000E+00  0.50000000000E+03  0.50000000000E+03  0.00000000000E+00 0. -1.
         11   -1    0    0    0    0 -0.00000000000E+00 -0.00000000000E+00 -0.50000000000E+03  0.50000000000E+03  0.00000000000E+00 0.  1.
        -11    1    1    2    0    0  0.14563678048E+02 -0.71817784972E+01  0.43387606376E+03  0.43417982146E+03  0.00000000000E+00 0. -1.
         11    1    1    2    0    0  0.73007757472E+02 -0.18580284675E+02 -0.43686699008E+03  0.44331492942E+03  0.00000000000E+00 0.  1.
        -15    1    1    2    0    0 -0.14867437985E+02 -0.81319101181E+01  0.32758798638E+02  0.36925130895E+02  0.17770000000E+01 0.  1.
         15    1    1    2    0    0 -0.72703997535E+02  0.33893973291E+02 -0.29767872319E+02  0.85580118219E+02  0.17770000000E+01 0. -1.
</event>
<event>
 6    1  0.1823098E-004  0.5000775E+03  0.7546771E-02  0.9399636E-01
        -11   -1    0    0    0    0  0.00000000000E+00  0.00000000000E+00  0.50000000000E+03  0.50000000000E+03  0.00000000000E+00 0. -1.
         11   -1    0    0    0    0 -0.00000000000E+00 -0.00000000000E+00 -0.50000000000E+03  0.50000000000E+03  0.00000000000E+00 0.  1.
        -11    1    1    2    0    0 -0.11094969806E+02  0.51989474786E+01  0.49977230996E+03  0.49992248321E+03  0.00000000000E+00 0. -1.
         11    1    1    2    0    0  0.29481800710E+01 -0.60674239718E+01 -0.29525512384E+03  0.29533217494E+03  0.00000000000E+00 0.  1.
        -15    1    1    2    0    0  0.55353356355E+01 -0.11124288493E+01 -0.11974056770E+03  0.11988677458E+03  0.17770000000E+01 0. -1.
         15    1    1    2    0    0  0.26114540992E+01  0.19809053425E+01 -0.84776618426E+02  0.84858567271E+02  0.17770000000E+01 0.  1.
</event>
<event>
 6    1  0.1823098E-004  0.4959933E+03  0.7546771E-02  0.9408820E-01
        -11   -1    0    0    0    0  0.00000000000E+00  0.00000000000E+00  0.50000000000E+03  0.50000000000E+03  0.00000000000E+00 0.  1.
         11   -1    0    0    0    0 -0.00000000000E+00 -0.00000000000E+00 -0.50000000000E+03  0.50000000000E+03  0.00000000000E+00 0.  1.
        -11    1    1    2    0    0  0.16838292844E+02 -0.56634271534E+01  0.48391910084E+03  0.48424508121E+03  0.00000000000E+00 0.  1.
         11    1    1    2    0    0 -0.11698654676E+02 -0.90231206527E+01  0.69080002491E+01  0.16309374451E+02  0.00000000000E+00 0.  1.
        -15    1    1    2    0    0 -0.38738508102E+01  0.34956837354E+02 -0.46596249248E+03  0.46729133239E+03  0.17770000000E+01 0.  1.
         15    1    1    2    0    0 -0.12657873584E+01 -0.20270289548E+02 -0.24864608613E+02  0.32154211955E+02  0.17770000000E+01 0. -1.
</event>
<event>
 6    1  0.1823098E-004  0.5000738E+03  0.7546771E-02  0.9399645E-01
        -11   -1    0    0    0    0  0.00000000000E+00  0.00000000000E+00  0.50000000000E+03  0.50000000000E+03  0.00000000000E+00 0.  1.
         11   -1    0    0    0    0 -0.00000000000E+00 -0.00000000000E+00 -0.50000000000E+03  0.50000000000E+03  0.00000000000E+00 0. -1.
        -11    1    1    2    0    0  0.17511604546E+02 -0.93782892135E+01  0.49953134485E+03  0.49992616764E+03  0.00000000000E+00 0.  1.
         11    1    1    2    0    0 -0.15514117910E+02  0.52537463033E+01 -0.32317820068E+03  0.32359301460E+03  0.00000000000E+00 0. -1.
        -15    1    1    2    0    0 -0.34279013551E+00  0.17827902732E+01 -0.11994267868E+03  0.11996957841E+03  0.17770000000E+01 0.  1.
         15    1    1    2    0    0 -0.16546965004E+01  0.23417526370E+01 -0.56410465492E+02  0.56511239342E+02  0.17770000000E+01 0.  1.
</event>
<event>
 6    1  0.1823098E-004  0.5012136E+03  0.7546771E-02  0.9397098E-01
        -11   -1    0    0    0    0  0.00000000000E+00  0.00000000000E+00  0.50000000000E+03  0.50000000000E+03  0.00000000000E+00 0. -1.
         11   -1    0    0    0    0 -0.00000000000E+00 -0.00000000000E+00 -0.50000000000E+03  0.50000000000E+03  0.00000000000E+00 0.  1.
        -11    1    1    2    0    0 -0.71671391228E+01 -0.68790837742E+01  0.49868750000E+03  0.49878643960E+03  0.00000000000E+00 0. -1.
         11    1    1    2    0    0  0.54305775603E+01 -0.54259495639E+01 -0.44220472323E+03  0.44227135262E+03  0.00000000000E+00 0.  1.
        -15    1    1    2    0    0 -0.25361088752E+01  0.39239914319E+01 -0.73717520931E+01  0.89067398585E+01  0.17770000000E+01 0.  1.
         15    1    1    2    0    0  0.42726704377E+01  0.83810419063E+01 -0.49111024676E+02  0.50035467918E+02  0.17770000000E+01 0. -1.
</event>
<event>
 6    1  0.1823098E-004  0.5011923E+03  0.7546771E-02  0.9397146E-01
        -11   -1    0    0    0    0  0.00000000000E+00  0.00000000000E+00  0.50000000000E+03  0.50000000000E+03  0.00000000000E+00 0. -1.
         11   -1    0    0    0    0 -0.00000000000E+00 -0.00000000000E+00 -0.50000000000E+03  0.50000000000E+03  0.00000000000E+00 0. -1.
        -11    1    1    2    0    0  0.29230499553E+01  0.56259053434E+01  0.40332702166E+03  0.40337684792E+03  0.00000000000E+00 0. -1.
         11    1    1    2    0    0  0.10305122035E+02 -0.16458845582E+02 -0.49842954699E+03  0.49880768083E+03  0.00000000000E+00 0. -1.
        -15    1    1    2    0    0 -0.13614635162E+02  0.12208028924E+02  0.62793593796E+02  0.65426198206E+02  0.17770000000E+01 0.  1.
         15    1    1    2    0    0  0.38646317203E+00 -0.13750886849E+01  0.32308931535E+02  0.32389273049E+02  0.17770000000E+01 0. -1.
</event>
<event>
 6    1  0.1823098E-004  0.5001261E+03  0.7546771E-02  0.9399528E-01
        -11   -1    0    0    0    0  0.00000000000E+00  0.00000000000E+00  0.50000000000E+03  0.50000000000E+03  0.00000000000E+00 0. -1.
         11   -1    0    0    0    0 -0.00000000000E+00 -0.00000000000E+00 -0.50000000000E+03  0.50000000000E+03  0.00000000000E+00 0.  1.
        -11    1    1    2    0    0 -0.56358132493E+01  0.50586422621E+01  0.49981649198E+03  0.49987386200E+03  0.00000000000E+00 0. -1.
         11    1    1    2    0    0 -0.28594952428E+01 -0.49915973737E+01 -0.87426138487E+02  0.87615195304E+02  0.00000000000E+00 0.  1.
        -15    1    1    2    0    0  0.68606568688E+01 -0.36032269789E+00 -0.24444994619E+03  0.24455292345E+03  0.17770000000E+01 0.  1.
         15    1    1    2    0    0  0.16346516233E+01  0.29327780946E+00 -0.16794040730E+03  0.16795801925E+03  0.17770000000E+01 0. -1.
</event>
<event>
 6    1  0.1823098E-004  0.5015264E+03  0.7546771E-02  0.9396401E-01
        -11   -1    0    0    0    0  0.00000000000E+00  0.00000000000E+00  0.50000000000E+03  0.50000000000E+03  0.00000000000E+00 0. -1.
         11   -1    0    0    0    0 -0.00000000000E+00 -0.00000000000E+00 -0.50000000000E+03  0.50000000000E+03  0.00000000000E+00 0. -1.
        -11    1    1    2    0    0  0.92995654667E+01 -0.33545452029E+01  0.49837554800E+03  0.49847359181E+03  0.00000000000E+00 0. -1.
         11    1    1    2    0    0 -0.79839334373E+01 -0.73649681749E+01 -0.47165772036E+03  0.47178277959E+03  0.00000000000E+00 0. -1.
        -15    1    1    2    0    0 -0.90251237760E+00  0.32847973663E+01 -0.31648218386E+01  0.49777754670E+01  0.17770000000E+01 0. -1.
         15    1    1    2    0    0 -0.41311965173E+00  0.74347160115E+01 -0.23553005800E+02  0.24765853129E+02  0.17770000000E+01 0.  1.
</event>
<event>
 6    1  0.1823098E-004  0.5013198E+03  0.7546771E-02  0.9396861E-01
        -11   -1    0    0    0    0  0.00000000000E+00  0.00000000000E+00  0.50000000000E+03  0.50000000000E+03  0.00000000000E+00 0. -1.
         11   -1    0    0    0    0 -0.00000000000E+00 -0.00000000000E+00 -0.50000000000E+03  0.50000000000E+03  0.00000000000E+00 0.  1.
        -11    1    1    2    0    0  0.47221582274E+01 -0.81303076557E+01  0.46958994160E+03  0.46968405756E+03  0.00000000000E+00 0. -1.
         11    1    1    2    0    0 -0.11171256529E+02  0.25557622538E+01 -0.49854850222E+03  0.49868019607E+03  0.00000000000E+00 0.  1.
        -15    1    1    2    0    0  0.51639706125E+01  0.21031725502E+01  0.25799967241E+02  0.26455357981E+02  0.17770000000E+01 0.  1.
         15    1    1    2    0    0  0.12851276887E+01  0.34713728516E+01  0.31585933795E+01  0.51803883820E+01  0.17770000000E+01 0. -1.
</event>
<event>
 6    1  0.1823098E-004  0.5000571E+03  0.7546771E-02  0.9399682E-01
        -11   -1    0    0    0    0  0.00000000000E+00  0.00000000000E+00  0.50000000000E+03  0.50000000000E+03  0.00000000000E+00 0.  1.
         11   -1    0    0    0    0 -0.00000000000E+00 -0.00000000000E+00 -0.50000000000E+03  0.50000000000E+03  0.00000000000E+00 0.  1.
        -11    1    1    2    0    0  0.51567116283E+01  0.10841070188E+02  0.32189763149E+03  0.32212141443E+03  0.00000000000E+00 0.  1.
         11    1    1    2    0    0 -0.45633836260E+01 -0.17471764145E+02 -0.49961668960E+03  0.49994292028E+03  0.00000000000E+00 0.  1.
        -15    1    1    2    0    0 -0.20629456665E+01  0.16447827654E+01  0.78817086848E+02  0.78881252294E+02  0.17770000000E+01 0.  1.
         15    1    1    2    0    0  0.14696176642E+01  0.49859111911E+01  0.98901971261E+02  0.99054413000E+02  0.17770000000E+01 0. -1.
</event>
<event>
 6    1  0.1823098E-004  0.5012950E+03  0.7546771E-02  0.9396917E-01
        -11   -1    0    0    0    0  0.00000000000E+00  0.00000000000E+00  0.50000000000E+03  0.50000000000E+03  0.00000000000E+00 0.  1.
         11   -1    0    0    0    0 -0.00000000000E+00 -0.00000000000E+00 -0.50000000000E+03  0.50000000000E+03  0.00000000000E+00 0. -1.
        -11    1    1    2    0    0  0.93723057012E+01  0.82361938075E+01  0.43737409056E+03  0.43755201988E+03  0.00000000000E+00 0.  1.
         11    1    1    2    0    0  0.67741533041E+01 -0.84535687319E+01 -0.49858728470E+03  0.49870495531E+03  0.00000000000E+00 0. -1.
        -15    1    1    2    0    0 -0.11529996783E+02  0.14276629371E+01  0.50921731040E+02  0.52260496251E+02  0.17770000000E+01 0.  1.
         15    1    1    2    0    0 -0.46164622218E+01 -0.12102880127E+01  0.10291463100E+02  0.11482528566E+02  0.17770000000E+01 0. -1.
</event>
<event>
 6    1  0.1823098E-004  0.4841876E+03  0.7546771E-02  0.9435903E-01
        -11   -1    0    0    0    0  0.00000000000E+00  0.00000000000E+00  0.50000000000E+03  0.50000000000E+03  0.00000000000E+00 0. -1.
         11   -1    0    0    0    0 -0.00000000000E+00 -0.00000000000E+00 -0.50000000000E+03  0.50000000000E+03  0.00000000000E+00 0.  1.
        -11    1    1    2    0    0 -0.15483381077E+01  0.87498063906E+01  0.47939046281E+03  0.47947280662E+03  0.00000000000E+00 0. -1.
         11    1    1    2    0    0 -0.15853943050E+02  0.81094398143E+01 -0.48892832089E+03  0.48925250484E+03  0.00000000000E+00 0.  1.
        -15    1    1    2    0    0  0.66387492701E+01 -0.11235848152E+01  0.99239073396E+01  0.12123411261E+02  0.17770000000E+01 0. -1.
         15    1    1    2    0    0  0.10763531887E+02 -0.15735661390E+02 -0.38604925196E+00  0.19151277270E+02  0.17770000000E+01 0.  1.
</event>
<event>
 6    1  0.1823098E-004  0.5000969E+03  0.7546771E-02  0.9399593E-01
        -11   -1    0    0    0    0  0.00000000000E+00  0.00000000000E+00  0.50000000000E+03  0.50000000000E+03  0.00000000000E+00 0. -1.
         11   -1    0    0    0    0 -0.00000000000E+00 -0.00000000000E+00 -0.50000000000E+03  0.50000000000E+03  0.00000000000E+00 0.  1.
        -11    1    1    2    0    0 -0.20332939048E+02  0.15638848793E+01  0.42567603145E+03  0.42616423818E+03  0.00000000000E+00 0. -1.
         11    1    1    2    0    0  0.27778663641E+02 -0.16261819998E+01 -0.49912809942E+03  0.49990314887E+03  0.00000000000E+00 0.  1.
        -15    1    1    2    0    0 -0.35676042180E+01  0.83206622733E+00  0.37325767504E+02  0.37547180757E+02  0.17770000000E+01 0. -1.
         15    1    1    2    0    0 -0.38781203752E+01 -0.76976910679E+00  0.36126300461E+02  0.36385432197E+02  0.17770000000E+01 0.  1.
</event>
<event>
 6    1  0.1823098E-004  0.5021734E+03  0.7546771E-02  0.9394960E-01
        -11   -1    0    0    0    0  0.00000000000E+00  0.00000000000E+00  0.50000000000E+03  0.50000000000E+03  0.00000000000E+00 0.  1.
         11   -1    0    0    0    0 -0.00000000000E+00 -0.00000000000E+00 -0.50000000000E+03  0.50000000000E+03  0.00000000000E+00 0. -1.
        -11    1    1    2    0    0 -0.53400493900E+01 -0.45631783905E+01  0.28265318659E+03  0.28274045096E+03  0.00000000000E+00 0.  1.
         11    1    1    2    0    0  0.41075314147E+02 -0.26265099409E+02 -0.49543339227E+03  0.49782655922E+03  0.00000000000E+00 0. -1.
        -15    1    1    2    0    0 -0.76190849774E+00  0.33423846097E+01  0.64474076521E+02  0.64589599098E+02  0.17770000000E+01 0.  1.
         15    1    1    2    0    0 -0.34973356259E+02  0.27485893190E+02  0.14830612917E+03  0.15484339072E+03  0.17770000000E+01 0. -1.
</event>
<event>
 6    1  0.1823098E-004  0.4909803E+03  0.7546771E-02  0.9420221E-01
        -11   -1    0    0    0    0  0.00000000000E+00  0.00000000000E+00  0.50000000000E+03  0.50000000000E+03  0.00000000000E+00 0.  1.
         11   -1    0    0    0    0 -0.00000000000E+00 -0.00000000000E+00 -0.50000000000E+03  0.50000000000E+03  0.00000000000E+00 0. -1.
        -11    1    1    2    0    0 -0.49728787514E+01 -0.11142421033E+02  0.49136126486E+03  0.49151274213E+03  0.00000000000E+00 0.  1.
         11    1    1    2    0    0  0.13314152643E+02 -0.16328126722E+01 -0.49038338573E+03  0.49056681271E+03  0.00000000000E+00 0. -1.
        -15    1    1    2    0    0 -0.15604611408E+01  0.60390896955E+01 -0.41435358873E+01  0.76962498641E+01  0.17770000000E+01 0. -1.
         15    1    1    2    0    0 -0.67808127507E+01  0.67361440094E+01  0.31656567534E+01  0.10224195291E+02  0.17770000000E+01 0.  1.
</event>
<event>
 6    1  0.1823098E-004  0.5003252E+03  0.7546771E-02  0.9399082E-01
        -11   -1    0    0    0    0  0.00000000000E+00  0.00000000000E+00  0.50000000000E+03  0.50000000000E+03  0.00000000000E+00 0. -1.
         11   -1    0    0    0    0 -0.00000000000E+00 -0.00000000000E+00 -0.50000000000E+03  0.50000000000E+03  0.00000000000E+00 0.  1.
        -11    1    1    2    0    0 -0.47716136558E+01 -0.49240305334E+01  0.49962777747E+03  0.49967482465E+03  0.00000000000E+00 0. -1.
         11    1    1    2    0    0  0.54288308310E+01 -0.61937385791E+01 -0.24284352179E+03  0.24298314896E+03  0.00000000000E+00 0.  1.
        -15    1    1    2    0    0 -0.38497829864E+01  0.37083255931E+01 -0.18470556801E+03  0.18479144214E+03  0.17770000000E+01 0.  1.
         15    1    1    2    0    0  0.31925658111E+01  0.74094435194E+01 -0.72078687670E+02  0.72550584250E+02  0.17770000000E+01 0. -1.
</event>
<event>
 6    1  0.1823098E-004  0.5018462E+03  0.7546771E-02  0.9395688E-01
        -11   -1    0    0    0    0  0.00000000000E+00  0.00000000000E+00  0.50000000000E+03  0.50000000000E+03  0.00000000000E+00 0.  1.
         11   -1    0    0    0    0 -0.00000000000E+00 -0.00000000000E+00 -0.50000000000E+03  0.50000000000E+03  0.00000000000E+00 0.  1.
        -11    1    1    2    0    0  0.33365808144E+02  0.15783405063E+02  0.49678447207E+03  0.49815379625E+03  0.00000000000E+00 0.  1.
         11    1    1    2    0    0 -0.19563447987E+02  0.18839099840E+02 -0.18743702186E+03  0.18939450189E+03  0.00000000000E+00 0.  1.
        -15    1    1    2    0    0  0.38348004801E+01 -0.24503921909E+01 -0.82949069178E+02  0.83092815112E+02  0.17770000000E+01 0.  1.
         15    1    1    2    0    0 -0.17637160637E+02 -0.32172112712E+02 -0.22639838103E+03  0.22935888675E+03  0.17770000000E+01 0. -1.
</event>
<event>
 6    1  0.1823098E-004  0.4976889E+03  0.7546771E-02  0.9404996E-01
        -11   -1    0    0    0    0  0.00000000000E+00  0.00000000000E+00  0.50000000000E+03  0.50000000000E+03  0.00000000000E+00 0. -1.
         11   -1    0    0    0    0 -0.00000000000E+00 -0.00000000000E+00 -0.50000000000E+03  0.50000000000E+03  0.00000000000E+00 0.  1.
        -11    1    1    2    0    0  0.90014076453E+01 -0.10114032759E+02  0.49963930249E+03  0.49982272016E+03  0.00000000000E+00 0. -1.
         11    1    1    2    0    0 -0.27953731186E+00  0.16390968363E+01 -0.43908539052E+01  0.46951440409E+01  0.00000000000E+00 0.  1.
        -15    1    1    2    0    0 -0.96172267634E+01  0.55101172725E+01 -0.31881957133E+03  0.31901713000E+03  0.17770000000E+01 0. -1.
         15    1    1    2    0    0  0.89535642998E+00  0.29648186498E+01 -0.17642887725E+03  0.17646500579E+03  0.17770000000E+01 0.  1.
</event>
<event>
 6    1  0.1823098E-004  0.5018784E+03  0.7546771E-02  0.9395617E-01
        -11   -1    0    0    0    0  0.00000000000E+00  0.00000000000E+00  0.50000000000E+03  0.50000000000E+03  0.00000000000E+00 0.  1.
         11   -1    0    0    0    0 -0.00000000000E+00 -0.00000000000E+00 -0.50000000000E+03  0.50000000000E+03  0.00000000000E+00 0.  1.
        -11    1    1    2    0    0  0.74418221412E+00 -0.58298404927E+02  0.49469779409E+03  0.49812163706E+03  0.00000000000E+00 0.  1.
         11    1    1    2    0    0  0.20052083518E+02  0.20097775759E+02 -0.82330343876E+02  0.87087841669E+02  0.00000000000E+00 0.  1.
        -15    1    1    2    0    0 -0.39030799029E+01  0.50632001977E+01 -0.98204677910E+02  0.98428585896E+02  0.17770000000E+01 0. -1.
         15    1    1    2    0    0 -0.16893185829E+02  0.33137428971E+02 -0.31416277230E+03  0.31636193538E+03  0.17770000000E+01 0.  1.
</event>
<event>
 6    1  0.1823098E-004  0.5001378E+03  0.7546771E-02  0.9399501E-01
        -11   -1    0    0    0    0  0.00000000000E+00  0.00000000000E+00  0.50000000000E+03  0.50000000000E+03  0.00000000000E+00 0. -1.
         11   -1    0    0    0    0 -0.00000000000E+00 -0.00000000000E+00 -0.50000000000E+03  0.50000000000E+03  0.00000000000E+00 0.  1.
        -11    1    1    2    0    0 -0.12175021030E+01  0.77624935600E+01  0.49980043273E+03  0.49986219218E+03  0.00000000000E+00 0. -1.
         11    1    1    2    0    0  0.44742826620E+01  0.92401852830E+00 -0.58540036803E+02  0.58718045986E+02  0.00000000000E+00 0.  1.
        -15    1    1    2    0    0 -0.18808750274E+01  0.17057583415E+00 -0.73092491974E+02  0.73138477554E+02  0.17770000000E+01 0.  1.
         15    1    1    2    0    0 -0.13759055315E+01 -0.88570879225E+01 -0.36816790395E+03  0.36828128428E+03  0.17770000000E+01 0.  1.
</event>
<event>
 6    1  0.1823098E-004  0.5093699E+03  0.7546771E-02  0.9379084E-01
        -11   -1    0    0    0    0  0.00000000000E+00  0.00000000000E+00  0.50000000000E+03  0.50000000000E+03  0.00000000000E+00 0. -1.
         11   -1    0    0    0    0 -0.00000000000E+00 -0.00000000000E+00 -0.50000000000E+03  0.50000000000E+03  0.00000000000E+00 0.  1.
        -11    1    1    2    0    0  0.46035948549E+01  0.76660049888E+01  0.44446434134E+03  0.44455428402E+03  0.00000000000E+00 0. -1.
         11    1    1    2    0    0  0.28035558668E+02 -0.48233133171E+01 -0.48980465329E+03  0.49063005950E+03  0.00000000000E+00 0.  1.
        -15    1    1    2    0    0 -0.15162961913E+02 -0.17014239761E+02  0.16493480040E+02  0.28188515063E+02  0.17770000000E+01 0. -1.
         15    1    1    2    0    0 -0.17476191610E+02  0.14171548089E+02  0.28846831912E+02  0.36627141422E+02  0.17770000000E+01 0.  1.
</event>
<event>
 6    1  0.1823098E-004  0.5004462E+03  0.7546771E-02  0.9398812E-01
        -11   -1    0    0    0    0  0.00000000000E+00  0.00000000000E+00  0.50000000000E+03  0.50000000000E+03  0.00000000000E+00 0. -1.
         11   -1    0    0    0    0 -0.00000000000E+00 -0.00000000000E+00 -0.50000000000E+03  0.50000000000E+03  0.00000000000E+00 0.  1.
        -11    1    1    2    0    0 -0.83803142665E+01 -0.72356120332E+00  0.49948299170E+03  0.49955381313E+03  0.00000000000E+00 0. -1.
         11    1    1    2    0    0  0.72067845903E+01 -0.27798309958E+01 -0.61205195048E+02  0.61690688968E+02  0.00000000000E+00 0.  1.
        -15    1    1    2    0    0  0.11333656712E+01  0.10805413536E+02 -0.16104149628E+03  0.16141735574E+03  0.17770000000E+01 0. -1.
         15    1    1    2    0    0  0.40164004872E-01 -0.73020213372E+01 -0.27723630037E+03  0.27733814217E+03  0.17770000000E+01 0.  1.
</event>
<event>
 6    1  0.1823098E-004  0.5000546E+03  0.7546771E-02  0.9399688E-01
        -11   -1    0    0    0    0  0.00000000000E+00  0.00000000000E+00  0.50000000000E+03  0.50000000000E+03  0.00000000000E+00 0. -1.
         11   -1    0    0    0    0 -0.00000000000E+00 -0.00000000000E+00 -0.50000000000E+03  0.50000000000E+03  0.00000000000E+00 0.  1.
        -11    1    1    2    0    0  0.15127047898E+01 -0.80513027118E+01  0.49987825397E+03  0.49994537756E+03  0.00000000000E+00 0. -1.
         11    1    1    2    0    0  0.25211560901E+01  0.70701775860E+01 -0.24986744305E+03  0.24998016468E+03  0.00000000000E+00 0.  1.
        -15    1    1    2    0    0 -0.21764179642E+01  0.30585817052E+00 -0.99300370999E+02  0.99340584626E+02  0.17770000000E+01 0.  1.
         15    1    1    2    0    0 -0.18574429157E+01  0.67526695519E+00 -0.15071043992E+03  0.15073387313E+03  0.17770000000E+01 0.  1.
</event>
<event>
 6    1  0.1823098E-004  0.5009333E+03  0.7546771E-02  0.9397724E-01
        -11   -1    0    0    0    0  0.00000000000E+00  0.00000000000E+00  0.50000000000E+03  0.50000000000E+03  0.00000000000E+00 0. -1.
         11   -1    0    0    0    0 -0.00000000000E+00 -0.00000000000E+00 -0.50000000000E+03  0.50000000000E+03  0.00000000000E+00 0.  1.
        -11    1    1    2    0    0 -0.20372551224E+02  0.15017663541E+02  0.49842447151E+03  0.49906665373E+03  0.00000000000E+00 0. -1.
         11    1    1    2    0    0  0.19772407244E+02 -0.25026210128E+02 -0.22199564255E+03  0.22427510917E+03  0.00000000000E+00 0.  1.
        -15    1    1    2    0    0  0.16662895536E+01  0.61771640977E+01 -0.13619465976E+03  0.13635643349E+03  0.17770000000E+01 0.  1.
         15    1    1    2    0    0 -0.10661455737E+01  0.38313824892E+01 -0.14023416920E+03  0.14030180362E+03  0.17770000000E+01 0.  1.
</event>
<event>
 6    1  0.1823098E-004  0.5005431E+03  0.7546771E-02  0.9398595E-01
        -11   -1    0    0    0    0  0.00000000000E+00  0.00000000000E+00  0.50000000000E+03  0.50000000000E+03  0.00000000000E+00 0. -1.
         11   -1    0    0    0    0 -0.00000000000E+00 -0.00000000000E+00 -0.50000000000E+03  0.50000000000E+03  0.00000000000E+00 0. -1.
        -11    1    1    2    0    0 -0.67572261356E+01  0.26554369016E+01  0.49940408252E+03  0.49945685408E+03  0.00000000000E+00 0. -1.
         11    1    1    2    0    0  0.10047922705E+02 -0.31657373063E+01 -0.65648910814E+02  0.66488812099E+02  0.00000000000E+00 0. -1.
        -15    1    1    2    0    0 -0.56393896851E+01 -0.49611857796E+01 -0.34293151403E+03  0.34301836266E+03  0.17770000000E+01 0. -1.
         15    1    1    2    0    0  0.23486931156E+01  0.54714861843E+01 -0.90823657682E+02  0.91035971155E+02  0.17770000000E+01 0.  1.
</event>
<event>
 6    1  0.1823098E-004  0.5001584E+03  0.7546771E-02  0.9399455E-01
        -11   -1    0    0    0    0  0.00000000000E+00  0.00000000000E+00  0.50000000000E+03  0.50000000000E+03  0.00000000000E+00 0.  1.
         11   -1    0    0    0    0 -0.00000000000E+00 -0.00000000000E+00 -0.50000000000E+03  0.50000000000E+03  0.00000000000E+00 0.  1.
        -11    1    1    2    0    0  0.35062819019E+02  0.14427584672E+02  0.49840147492E+03  0.49984156157E+03  0.00000000000E+00 0.  1.
         11    1    1    2    0    0 -0.23910135467E+02 -0.14856268319E+02 -0.28457265368E+03  0.28596153326E+03  0.00000000000E+00 0.  1.
        -15    1    1    2    0    0 -0.23947578295E+01  0.87003965790E+00 -0.32694690918E+02  0.32841930170E+02  0.17770000000E+01 0.  1.
         15    1    1    2    0    0 -0.87579257222E+01 -0.44135601014E+00 -0.18113413032E+03  0.18135497499E+03  0.17770000000E+01 0.  1.
</event>
<event>
 6    1  0.1823098E-004  0.5002367E+03  0.7546771E-02  0.9399280E-01
        -11   -1    0    0    0    0  0.00000000000E+00  0.00000000000E+00  0.50000000000E+03  0.50000000000E+03  0.00000000000E+00 0. -1.
         11   -1    0    0    0    0 -0.00000000000E+00 -0.00000000000E+00 -0.50000000000E+03  0.50000000000E+03  0.00000000000E+00 0.  1.
        -11    1    1    2    0    0 -0.21042516069E+01  0.86879869628E+00  0.11307619252E+03  0.11309910699E+03  0.00000000000E+00 0. -1.
         11    1    1    2    0    0  0.47009487446E+01  0.13245279139E+02 -0.49956564671E+03  0.49976331569E+03  0.00000000000E+00 0.  1.
        -15    1    1    2    0    0 -0.43035068934E+01 -0.15220196396E+02  0.20124362526E+03  0.20187206094E+03  0.17770000000E+01 0. -1.
         15    1    1    2    0    0  0.17068097557E+01  0.11061185603E+01  0.18524582893E+03  0.18526551639E+03  0.17770000000E+01 0. -1.
</event>
<event>
 6    1  0.1823098E-004  0.5003348E+03  0.7546771E-02  0.9399061E-01
        -11   -1    0    0    0    0  0.00000000000E+00  0.00000000000E+00  0.50000000000E+03  0.50000000000E+03  0.00000000000E+00 0.  1.
         11   -1    0    0    0    0 -0.00000000000E+00 -0.00000000000E+00 -0.50000000000E+03  0.50000000000E+03  0.00000000000E+00 0.  1.
        -11    1    1    2    0    0 -0.32153639782E+01 -0.63359294698E+01  0.49961466411E+03  0.49966518306E+03  0.00000000000E+00 0.  1.
         11    1    1    2    0    0  0.96178214055E+01  0.51146211083E+00 -0.39265622211E+03  0.39277432814E+03  0.00000000000E+00 0.  1.
        -15    1    1    2    0    0 -0.14257743201E+00  0.33164365376E+01 -0.22331850568E+02  0.22647038624E+02  0.17770000000E+01 0.  1.
         15    1    1    2    0    0 -0.62598799953E+01  0.25080308213E+01 -0.84626591425E+02  0.84913450179E+02  0.17770000000E+01 0. -1.
</event>
<event>
 6    1  0.1823098E-004  0.5001238E+03  0.7546771E-02  0.9399533E-01
        -11   -1    0    0    0    0  0.00000000000E+00  0.00000000000E+00  0.50000000000E+03  0.50000000000E+03  0.00000000000E+00 0. -1.
         11   -1    0    0    0    0 -0.00000000000E+00 -0.00000000000E+00 -0.50000000000E+03  0.50000000000E+03  0.00000000000E+00 0. -1.
        -11    1    1    2    0    0  0.52767296651E+01  0.63655020233E+01  0.26806017143E+03  0.26818765631E+03  0.00000000000E+00 0. -1.
         11    1    1    2    0    0 -0.14908605724E+02 -0.59712716973E+01 -0.49961810799E+03  0.49987616111E+03  0.00000000000E+00 0. -1.
        -15    1    1    2    0    0  0.93689897877E+00 -0.70961481671E+00  0.12210700422E+03  0.12212558921E+03  0.17770000000E+01 0.  1.
         15    1    1    2    0    0  0.86949770800E+01  0.31538449064E+00  0.10945093235E+03  0.10981059337E+03  0.17770000000E+01 0. -1.
</event>
<event>
 6    1  0.1823098E-004  0.5179387E+03  0.7546771E-02  0.9360541E-01
        -11   -1    0    0    0    0  0.00000000000E+00  0.00000000000E+00  0.50000000000E+03  0.50000000000E+03  0.00000000000E+00 0. -1.
         11   -1    0    0    0    0 -0.00000000000E+00 -0.00000000000E+00 -0.50000000000E+03  0.50000000000E+03  0.00000000000E+00 0.  1.
        -11    1    1    2    0    0 -0.14260801299E+02 -0.12060266679E+01  0.48184875699E+03  0.48206125084E+03  0.00000000000E+00 0. -1.
         11    1    1    2    0    0 -0.65314330503E+02  0.57721300215E+02 -0.26992694691E+03  0.28365166479E+03  0.00000000000E+00 0.  1.
        -15    1    1    2    0    0  0.73639726877E+02 -0.43969980100E+02 -0.17803840993E+03  0.19762844346E+03  0.17770000000E+01 0.  1.
         15    1    1    2    0    0  0.59354049252E+01 -0.12545293448E+02 -0.33883400143E+02  0.36658640912E+02  0.17770000000E+01 0. -1.
</event>
<event>
 6    1  0.1823098E-004  0.5040253E+03  0.7546771E-02  0.9390847E-01
        -11   -1    0    0    0    0  0.00000000000E+00  0.00000000000E+00  0.50000000000E+03  0.50000000000E+03  0.00000000000E+00 0.  1.
         11   -1    0    0    0    0 -0.00000000000E+00 -0.00000000000E+00 -0.50000000000E+03  0.50000000000E+03  0.00000000000E+00 0.  1.
        -11    1    1    2    0    0  0.61038119032E+01 -0.33699706558E+01  0.49592564550E+03  0.49597465569E+03  0.00000000000E+00 0.  1.
         11    1    1    2    0    0 -0.87679977519E+01  0.24775202572E+01 -0.48341432780E+03  0.48350018429E+03  0.00000000000E+00 0.  1.
        -15    1    1    2    0    0  0.71660625463E+01 -0.47914094635E+01 -0.70022650451E+01  0.11247199733E+02  0.17770000000E+01 0. -1.
         15    1    1    2    0    0 -0.45018766977E+01  0.56838598621E+01 -0.55090526638E+01  0.92779602815E+01  0.17770000000E+01 0.  1.
</event>
<event>
 6    1  0.1823098E-004  0.5002861E+03  0.7546771E-02  0.9399170E-01
        -11   -1    0    0    0    0  0.00000000000E+00  0.00000000000E+00  0.50000000000E+03  0.50000000000E+03  0.00000000000E+00 0.  1.
         11   -1    0    0    0    0 -0.00000000000E+00 -0.00000000000E+00 -0.50000000000E+03  0.50000000000E+03  0.00000000000E+00 0. -1.
        -11    1    1    2    0    0 -0.35142533197E+01  0.20698510810E+01  0.22226433213E+03  0.22230174898E+03  0.00000000000E+00 0.  1.
         11    1    1    2    0    0 -0.12199683136E+02  0.28531090201E+01 -0.49955683051E+03  0.49971391756E+03  0.00000000000E+00 0. -1.
        -15    1    1    2    0    0  0.13598317518E+02 -0.46346252348E+01  0.26439892892E+03  0.26479491184E+03  0.17770000000E+01 0.  1.
         15    1    1    2    0    0  0.21156189377E+01 -0.28833486624E+00  0.12893569452E+02  0.13189421621E+02  0.17770000000E+01 0. -1.
</event>
<event>
 6    1  0.1823098E-004  0.5000756E+03  0.7546771E-02  0.9399641E-01
        -11   -1    0    0    0    0  0.00000000000E+00  0.00000000000E+00  0.50000000000E+03  0.50000000000E+03  0.00000000000E+00 0. -1.
         11   -1    0    0    0    0 -0.00000000000E+00 -0.00000000000E+00 -0.50000000000E+03  0.50000000000E+03  0.00000000000E+00 0.  1.
        -11    1    1    2    0    0 -0.83345346753E+01 -0.10695299904E+02  0.49974047162E+03  0.49992438717E+03  0.00000000000E+00 0. -1.
         11    1    1    2    0    0  0.43962567488E+01 -0.22238280775E+00 -0.81470390781E+02  0.81589221724E+02  0.00000000000E+00 0.  1.
        -15    1    1    2    0    0  0.29171145601E+01  0.86243939537E+01 -0.37122527022E+03  0.37134114869E+03  0.17770000000E+01 0.  1.
         15    1    1    2    0    0  0.10211633665E+01  0.22932887580E+01 -0.47044810619E+02  0.47145242423E+02  0.17770000000E+01 0.  1.
</event>
<event>
 6    1  0.3471705E-004  0.5000282E+03  0.7546771E-02  0.9399747E-01
        -11   -1    0    0    0    0  0.00000000000E+00  0.00000000000E+00  0.50000000000E+03  0.50000000000E+03  0.00000000000E+00 0. -1.
         11   -1    0    0    0    0 -0.00000000000E+00 -0.00000000000E+00 -0.50000000000E+03  0.50000000000E+03  0.00000000000E+00 0. -1.
        -11    1    1    2    0    0 -0.14656892089E+01 -0.47328132948E+01  0.36223474240E+03  0.36226862460E+03  0.00000000000E+00 0. -1.
         11    1    1    2    0    0  0.91512145924E+00  0.75131139040E+01 -0.49991450327E+03  0.49997179411E+03  0.00000000000E+00 0. -1.
        -15    1    1    2    0    0 -0.90591163656E-02 -0.16333442137E+01  0.58866923256E+02  0.58916383783E+02  0.17770000000E+01 0. -1.
         15    1    1    2    0    0  0.55962686599E+00 -0.11469563955E+01  0.78812837616E+02  0.78843197508E+02  0.17770000000E+01 0.  1.
</event>
<event>
 6    1  0.1823098E-004  0.5005288E+03  0.7546771E-02  0.9398627E-01
        -11   -1    0    0    0    0  0.00000000000E+00  0.00000000000E+00  0.50000000000E+03  0.50000000000E+03  0.00000000000E+00 0. -1.
         11   -1    0    0    0    0 -0.00000000000E+00 -0.00000000000E+00 -0.50000000000E+03  0.50000000000E+03  0.00000000000E+00 0.  1.
        -11    1    1    2    0    0  0.25813662853E+01  0.28422614781E+01  0.24482991876E+03  0.24486002332E+03  0.00000000000E+00 0. -1.
         11    1    1    2    0    0  0.16191457565E+02 -0.24889357605E+02 -0.49858788576E+03  0.49947124366E+03  0.00000000000E+00 0.  1.
        -15    1    1    2    0    0 -0.13529149853E+02  0.18400323477E+02  0.22466861240E+03  0.22583346282E+03  0.17770000000E+01 0. -1.
         15    1    1    2    0    0 -0.52436739973E+01  0.36467726503E+01  0.29089354601E+02  0.29835270199E+02  0.17770000000E+01 0. -1.
</event>
<event>
 6    1  0.1823098E-004  0.5031959E+03  0.7546771E-02  0.9392687E-01
        -11   -1    0    0    0    0  0.00000000000E+00  0.00000000000E+00  0.50000000000E+03  0.50000000000E+03  0.00000000000E+00 0.  1.
         11   -1    0    0    0    0 -0.00000000000E+00 -0.00000000000E+00 -0.50000000000E+03  0.50000000000E+03  0.00000000000E+00 0. -1.
        -11    1    1    2    0    0 -0.86919921498E+00  0.94820851789E+01  0.49671280688E+03  0.49680406396E+03  0.00000000000E+00 0.  1.
         11    1    1    2    0    0  0.69506636303E+01 -0.13685441983E+02 -0.48136470352E+03  0.48160936540E+03  0.00000000000E+00 0. -1.
        -15    1    1    2    0    0 -0.66709967703E+01  0.65981852245E+01 -0.49561710312E+01  0.10759163836E+02  0.17770000000E+01 0. -1.
         15    1    1    2    0    0  0.58953235493E+00 -0.23948284206E+01 -0.10391932329E+02  0.10827406804E+02  0.17770000000E+01 0.  1.
</event>
<event>
 6    1  0.1823098E-004  0.5008284E+03  0.7546771E-02  0.9397958E-01
        -11   -1    0    0    0    0  0.00000000000E+00  0.00000000000E+00  0.50000000000E+03  0.50000000000E+03  0.00000000000E+00 0. -1.
         11   -1    0    0    0    0 -0.00000000000E+00 -0.00000000000E+00 -0.50000000000E+03  0.50000000000E+03  0.00000000000E+00 0.  1.
        -11    1    1    2    0    0  0.58154913827E+01  0.16406424018E+02  0.49886804427E+03  0.49917163009E+03  0.00000000000E+00 0. -1.
         11    1    1    2    0    0 -0.30201456949E+01  0.47132637562E+01 -0.23326314651E+03  0.23333030591E+03  0.00000000000E+00 0.  1.
        -15    1    1    2    0    0 -0.24585538056E+01  0.47155856043E+01 -0.35461764113E+02  0.35902307410E+02  0.17770000000E+01 0. -1.
         15    1    1    2    0    0 -0.33679188214E+00 -0.25835273379E+02 -0.23014313365E+03  0.23159575660E+03  0.17770000000E+01 0.  1.
</event>
<event>
 6    1  0.1823098E-004  0.5000956E+03  0.7546771E-02  0.9399596E-01
        -11   -1    0    0    0    0  0.00000000000E+00  0.00000000000E+00  0.50000000000E+03  0.50000000000E+03  0.00000000000E+00 0.  1.
         11   -1    0    0    0    0 -0.00000000000E+00 -0.00000000000E+00 -0.50000000000E+03  0.50000000000E+03  0.00000000000E+00 0. -1.
        -11    1    1    2    0    0 -0.62558907148E+00  0.26954356633E+01  0.18929214627E+03  0.18931236984E+03  0.00000000000E+00 0.  1.
         11    1    1    2    0    0  0.33630548300E+01 -0.14149478007E+02 -0.49969276489E+03  0.49990436800E+03  0.00000000000E+00 0. -1.
        -15    1    1    2    0    0  0.23200158530E+01  0.77017755033E+01  0.12763579362E+03  0.12790134230E+03  0.17770000000E+01 0. -1.
         15    1    1    2    0    0 -0.50574816115E+01  0.37522668400E+01  0.18276482500E+03  0.18288191986E+03  0.17770000000E+01 0.  1.
</event>
<event>
 6    1  0.1823098E-004  0.5001200E+03  0.7546771E-02  0.9399541E-01
        -11   -1    0    0    0    0  0.00000000000E+00  0.00000000000E+00  0.50000000000E+03  0.50000000000E+03  0.00000000000E+00 0.  1.
         11   -1    0    0    0    0 -0.00000000000E+00 -0.00000000000E+00 -0.50000000000E+03  0.50000000000E+03  0.00000000000E+00 0.  1.
        -11    1    1    2    0    0  0.12478086075E+01 -0.39117934427E+00  0.33286227506E+02  0.33311904617E+02  0.00000000000E+00 0.  1.
         11    1    1    2    0    0  0.10893535771E+02  0.95155046004E+01 -0.49967069048E+03  0.49987999848E+03  0.00000000000E+00 0.  1.
        -15    1    1    2    0    0 -0.34359119653E+01  0.28927881876E+01  0.94321038251E+02  0.94444638282E+02  0.17770000000E+01 0. -1.
         15    1    1    2    0    0 -0.87054324131E+01 -0.12017113444E+02  0.37206342473E+03  0.37236345862E+03  0.17770000000E+01 0.  1.
</event>
<event>
 6    1  0.1823098E-004  0.5048981E+03  0.7546771E-02  0.9388916E-01
        -11   -1    0    0    0    0  0.00000000000E+00  0.00000000000E+00  0.50000000000E+03  0.50000000000E+03  0.00000000000E+00 0. -1.
         11   -1    0    0    0    0 -0.00000000000E+00 -0.00000000000E+00 -0.50000000000E+03  0.50000000000E+03  0.00000000000E+00 0. -1.
        -11    1    1    2    0    0 -0.17812295632E+01  0.74474498990E+01  0.49504272665E+03  0.49510194758E+03  0.00000000000E+00 0. -1.
         11    1    1    2    0    0  0.12554857178E+02 -0.26153475733E+01 -0.48608533678E+03  0.48625447979E+03  0.00000000000E+00 0. -1.
        -15    1    1    2    0    0  0.29462518281E+00  0.18504681531E+01  0.36110195806E+00  0.26075198960E+01  0.17770000000E+01 0. -1.
         15    1    1    2    0    0 -0.11068252797E+02 -0.66825704788E+01 -0.93184918323E+01  0.16036052732E+02  0.17770000000E+01 0.  1.
</event>
<event>
 6    1  0.1823098E-004  0.5075250E+03  0.7546771E-02  0.9383128E-01
        -11   -1    0    0    0    0  0.00000000000E+00  0.00000000000E+00  0.50000000000E+03  0.50000000000E+03  0.00000000000E+00 0. -1.
         11   -1    0    0    0    0 -0.00000000000E+00 -0.00000000000E+00 -0.50000000000E+03  0.50000000000E+03  0.00000000000E+00 0.  1.
        -11    1    1    2    0    0 -0.13364974220E+03  0.13986118235E+03  0.45288879497E+03  0.49247503950E+03  0.00000000000E+00 0. -1.
         11    1    1    2    0    0  0.11231301685E+03 -0.15598205291E+03 -0.35920070358E+03  0.40739386352E+03  0.00000000000E+00 0.  1.
        -15    1    1    2    0    0  0.18301880442E+02  0.10061410384E+02 -0.89600981803E+02  0.92020022146E+02  0.17770000000E+01 0.  1.
         15    1    1    2    0    0  0.30348449145E+01  0.60594601707E+01 -0.40871095892E+01  0.81110748369E+01  0.17770000000E+01 0. -1.
</event>
<event>
 6    1  0.1823098E-004  0.5123256E+03  0.7546771E-02  0.9372645E-01
        -11   -1    0    0    0    0  0.00000000000E+00  0.00000000000E+00  0.50000000000E+03  0.50000000000E+03  0.00000000000E+00 0. -1.
         11   -1    0    0    0    0 -0.00000000000E+00 -0.00000000000E+00 -0.50000000000E+03  0.50000000000E+03  0.00000000000E+00 0. -1.
        -11    1    1    2    0    0  0.60644072740E+00  0.10724083631E+02  0.48755613456E+03  0.48767443863E+03  0.00000000000E+00 0. -1.
         11    1    1    2    0    0  0.32190253608E+02  0.19729299415E+02 -0.43250528751E+03  0.43415006784E+03  0.00000000000E+00 0. -1.
        -15    1    1    2    0    0 -0.25530398221E+02 -0.30293620619E+02 -0.57891856214E+02  0.70172141398E+02  0.17770000000E+01 0. -1.
         15    1    1    2    0    0 -0.72662961144E+01 -0.15976242689E+00  0.28410091620E+01  0.80033521298E+01  0.17770000000E+01 0.  1.
</event>
<event>
 6    1  0.1823098E-004  0.5020023E+03  0.7546771E-02  0.9395341E-01
        -11   -1    0    0    0    0  0.00000000000E+00  0.00000000000E+00  0.50000000000E+03  0.50000000000E+03  0.00000000000E+00 0.  1.
         11   -1    0    0    0    0 -0.00000000000E+00 -0.00000000000E+00 -0.50000000000E+03  0.50000000000E+03  0.00000000000E+00 0.  1.
        -11    1    1    2    0    0 -0.66146857399E+00 -0.68201914298E+01  0.49795060508E+03  0.49799774864E+03  0.00000000000E+00 0.  1.
         11    1    1    2    0    0  0.10096941086E+02  0.10726351304E+02 -0.40593461721E+03  0.40620181719E+03  0.00000000000E+00 0.  1.
        -15    1    1    2    0    0 -0.10734623181E+02 -0.80600109923E+01 -0.89401740569E+02  0.90421373899E+02  0.17770000000E+01 0.  1.
         15    1    1    2    0    0  0.12991506694E+01  0.41538511180E+01 -0.26142472925E+01  0.53790602784E+01  0.17770000000E+01 0. -1.
</event>
<event>
 6    1  0.1823098E-004  0.5015234E+03  0.7546771E-02  0.9396407E-01
        -11   -1    0    0    0    0  0.00000000000E+00  0.00000000000E+00  0.50000000000E+03  0.50000000000E+03  0.00000000000E+00 0. -1.
         11   -1    0    0    0    0 -0.00000000000E+00 -0.00000000000E+00 -0.50000000000E+03  0.50000000000E+03  0.00000000000E+00 0. -1.
        -11    1    1    2    0    0 -0.17192879709E+01 -0.16765463634E+02  0.49819160154E+03  0.49847658778E+03  0.00000000000E+00 0. -1.
         11    1    1    2    0    0  0.16880702551E+02 -0.62637521480E+01 -0.72069900634E+02  0.74285013879E+02  0.00000000000E+00 0. -1.
        -15    1    1    2    0    0 -0.14407025971E+02  0.17898841397E+02 -0.25795288113E+03  0.25898026476E+03  0.17770000000E+01 0. -1.
         15    1    1    2    0    0 -0.75438860953E+00  0.51303743857E+01 -0.16816881978E+03  0.16825813358E+03  0.17770000000E+01 0.  1.
</event>
<event>
 6    1  0.1823098E-004  0.5001517E+03  0.7546771E-02  0.9399470E-01
        -11   -1    0    0    0    0  0.00000000000E+00  0.00000000000E+00  0.50000000000E+03  0.50000000000E+03  0.00000000000E+00 0.  1.
         11   -1    0    0    0    0 -0.00000000000E+00 -0.00000000000E+00 -0.50000000000E+03  0.50000000000E+03  0.00000000000E+00 0. -1.
        -11    1    1    2    0    0  0.13890198335E+02  0.65278523286E+01  0.49961262897E+03  0.49984830648E+03  0.00000000000E+00 0.  1.
         11    1    1    2    0    0 -0.12602637251E+02 -0.50649649248E+01 -0.46536930320E+03  0.46556746954E+03  0.00000000000E+00 0. -1.
        -15    1    1    2    0    0 -0.58082529138E+00 -0.18552335413E+01 -0.13891393768E+02  0.14138875462E+02  0.17770000000E+01 0.  1.
         15    1    1    2    0    0 -0.70673579244E+00  0.39234613758E+00 -0.20351931996E+02  0.20445348516E+02  0.17770000000E+01 0. -1.
</event>
<event>
 6    1  0.1823098E-004  0.5216603E+03  0.7546771E-02  0.9352606E-01
        -11   -1    0    0    0    0  0.00000000000E+00  0.00000000000E+00  0.50000000000E+03  0.50000000000E+03  0.00000000000E+00 0. -1.
         11   -1    0    0    0    0 -0.00000000000E+00 -0.00000000000E+00 -0.50000000000E+03  0.50000000000E+03  0.00000000000E+00 0.  1.
        -11    1    1    2    0    0  0.45613028994E+02 -0.16169682278E+02  0.37049836470E+03  0.37364561457E+03  0.00000000000E+00 0. -1.
         11    1    1    2    0    0  0.37359357378E+02 -0.31980073878E+02 -0.47580506329E+03  0.47833973801E+03  0.00000000000E+00 0.  1.
        -15    1    1    2    0    0 -0.21180474409E+02  0.88802227568E+01  0.53671910086E+02  0.58406356791E+02  0.17770000000E+01 0. -1.
         15    1    1    2    0    0 -0.61791911963E+02  0.39269533398E+02  0.51634788500E+02  0.89608290631E+02  0.17770000000E+01 0.  1.
</event>
<event>
 6    1  0.1823098E-004  0.5007416E+03  0.7546771E-02  0.9398152E-01
        -11   -1    0    0    0    0  0.00000000000E+00  0.00000000000E+00  0.50000000000E+03  0.50000000000E+03  0.00000000000E+00 0. -1.
         11   -1    0    0    0    0 -0.00000000000E+00 -0.00000000000E+00 -0.50000000000E+03  0.50000000000E+03  0.00000000000E+00 0.  1.
        -11    1    1    2    0    0 -0.39879540598E+01 -0.24915343088E+01  0.34295935777E+03  0.34299159261E+03  0.00000000000E+00 0. -1.
         11    1    1    2    0    0 -0.13710258600E+02 -0.24855846307E+01 -0.49906390462E+03  0.49925838021E+03  0.00000000000E+00 0.  1.
        -15    1    1    2    0    0  0.74188102874E+01  0.66228561866E+01  0.10944350549E+03  0.10990877851E+03  0.17770000000E+01 0. -1.
         15    1    1    2    0    0  0.10279402373E+02 -0.16457372470E+01  0.46661041358E+02  0.47841248665E+02  0.17770000000E+01 0.  1.
</event>
<event>
 6    1  0.1823098E-004  0.5081485E+03  0.7546771E-02  0.9381759E-01
        -11   -1    0    0    0    0  0.00000000000E+00  0.00000000000E+00  0.50000000000E+03  0.50000000000E+03  0.00000000000E+00 0.  1.
         11   -1    0    0    0    0 -0.00000000000E+00 -0.00000000000E+00 -0.50000000000E+03  0.50000000000E+03  0.00000000000E+00 0. -1.
        -11    1    1    2    0    0  0.92018265319E+01  0.78501757763E+01  0.44111558863E+03  0.44128138575E+03  0.00000000000E+00 0.  1.
         11    1    1    2    0    0  0.19211917935E+02  0.22768308237E+02 -0.49094851498E+03  0.49185154062E+03  0.00000000000E+00 0. -1.
        -15    1    1    2    0    0 -0.23183744451E+02 -0.31207447121E+02  0.45095206613E+02  0.59566149373E+02  0.17770000000E+01 0. -1.
         15    1    1    2    0    0 -0.52300000158E+01  0.58896310757E+00  0.47377197350E+01  0.73009242562E+01  0.17770000000E+01 0.  1.
</event>
<event>
 6    1  0.1823098E-004  0.5017164E+03  0.7546771E-02  0.9395977E-01
        -11   -1    0    0    0    0  0.00000000000E+00  0.00000000000E+00  0.50000000000E+03  0.50000000000E+03  0.00000000000E+00 0. -1.
         11   -1    0    0    0    0 -0.00000000000E+00 -0.00000000000E+00 -0.50000000000E+03  0.50000000000E+03  0.00000000000E+00 0.  1.
        -11    1    1    2    0    0  0.11613490867E+02  0.11325918782E+00  0.45841212455E+03  0.45855922402E+03  0.00000000000E+00 0. -1.
         11    1    1    2    0    0 -0.57299849723E+01  0.13623053541E+02 -0.49806434398E+03  0.49828356491E+03  0.00000000000E+00 0.  1.
        -15    1    1    2    0    0 -0.23173953484E+01 -0.15443480220E+01  0.35744690852E+01  0.48672261356E+01  0.17770000000E+01 0.  1.
         15    1    1    2    0    0 -0.35661105463E+01 -0.12191964707E+02  0.36077750338E+02  0.38289984935E+02  0.17770000000E+01 0. -1.
</event>
<event>
 6    1  0.1823098E-004  0.5000983E+03  0.7546771E-02  0.9399590E-01
        -11   -1    0    0    0    0  0.00000000000E+00  0.00000000000E+00  0.50000000000E+03  0.50000000000E+03  0.00000000000E+00 0.  1.
         11   -1    0    0    0    0 -0.00000000000E+00 -0.00000000000E+00 -0.50000000000E+03  0.50000000000E+03  0.00000000000E+00 0. -1.
        -11    1    1    2    0    0 -0.67066592558E+01 -0.75667464542E+01  0.12766602626E+03  0.12806580024E+03  0.00000000000E+00 0.  1.
         11    1    1    2    0    0  0.11164798914E+02  0.14655858221E+02 -0.49956205889E+03  0.49990168794E+03  0.00000000000E+00 0. -1.
        -15    1    1    2    0    0 -0.41822000820E+01 -0.56284398072E+01  0.32371142838E+03  0.32379224315E+03  0.17770000000E+01 0.  1.
         15    1    1    2    0    0 -0.27593957651E+00 -0.14606719592E+01  0.48184604251E+02  0.48240268667E+02  0.17770000000E+01 0.  1.
</event>
<event>
 6    1  0.1823098E-004  0.5002608E+03  0.7546771E-02  0.9399226E-01
        -11   -1    0    0    0    0  0.00000000000E+00  0.00000000000E+00  0.50000000000E+03  0.50000000000E+03  0.00000000000E+00 0.  1.
         11   -1    0    0    0    0 -0.00000000000E+00 -0.00000000000E+00 -0.50000000000E+03  0.50000000000E+03  0.00000000000E+00 0.  1.
        -11    1    1    2    0    0  0.95140153327E+01 -0.50008519856E+01  0.49962356804E+03  0.49973916672E+03  0.00000000000E+00 0.  1.
         11    1    1    2    0    0 -0.11982186032E+02 -0.13586138017E+01 -0.13219518505E+03  0.13274406037E+03  0.00000000000E+00 0.  1.
        -15    1    1    2    0    0  0.13671319163E+01  0.17504380178E+01 -0.99733141821E+02  0.99773695880E+02  0.17770000000E+01 0.  1.
         15    1    1    2    0    0  0.11010387827E+01  0.46090277695E+01 -0.26769524118E+03  0.26774307704E+03  0.17770000000E+01 0.  1.
</event>
<event>
 6    1  0.1823098E-004  0.5009192E+03  0.7546771E-02  0.9397755E-01
        -11   -1    0    0    0    0  0.00000000000E+00  0.00000000000E+00  0.50000000000E+03  0.50000000000E+03  0.00000000000E+00 0.  1.
         11   -1    0    0    0    0 -0.00000000000E+00 -0.00000000000E+00 -0.50000000000E+03  0.50000000000E+03  0.00000000000E+00 0. -1.
        -11    1    1    2    0    0  0.33174426921E+01 -0.59368965996E+01  0.46515320453E+03  0.46520291901E+03  0.00000000000E+00 0.  1.
         11    1    1    2    0    0 -0.31672047283E+01  0.11063799135E+02 -0.49894812751E+03  0.49908082790E+03  0.00000000000E+00 0. -1.
        -15    1    1    2    0    0 -0.18809889861E+01  0.24014743114E+01  0.12690214128E+02  0.13172109249E+02  0.17770000000E+01 0.  1.
         15    1    1    2    0    0  0.17307510223E+01 -0.75283768472E+01  0.21104708844E+02  0.22544143840E+02  0.17770000000E+01 0.  1.
</event>
<event>
 6    1  0.1823098E-004  0.5007432E+03  0.7546771E-02  0.9398148E-01
        -11   -1    0    0    0    0  0.00000000000E+00  0.00000000000E+00  0.50000000000E+03  0.50000000000E+03  0.00000000000E+00 0. -1.
         11   -1    0    0    0    0 -0.00000000000E+00 -0.00000000000E+00 -0.50000000000E+03  0.50000000000E+03  0.00000000000E+00 0.  1.
        -11    1    1    2    0    0 -0.62837169079E+01  0.92451127480E+01  0.23838002611E+03  0.23864197882E+03  0.00000000000E+00 0. -1.
         11    1    1    2    0    0  0.97887061209E+01  0.16598078968E+02 -0.49888477839E+03  0.49925678473E+03  0.00000000000E+00 0.  1.
        -15    1    1    2    0    0  0.10799363509E+01 -0.20379892363E+02  0.21850001310E+03  0.21945824143E+03  0.17770000000E+01 0. -1.
         15    1    1    2    0    0 -0.45849255638E+01 -0.54632993527E+01  0.42004739177E+02  0.42642995023E+02  0.17770000000E+01 0.  1.
</event>
<event>
 6    1  0.1823098E-004  0.5232963E+03  0.7546771E-02  0.9349140E-01
        -11   -1    0    0    0    0  0.00000000000E+00  0.00000000000E+00  0.50000000000E+03  0.50000000000E+03  0.00000000000E+00 0. -1.
         11   -1    0    0    0    0 -0.00000000000E+00 -0.00000000000E+00 -0.50000000000E+03  0.50000000000E+03  0.00000000000E+00 0.  1.
        -11    1    1    2    0    0 -0.22271534502E+02  0.12863354632E+03  0.45847987423E+03  0.47670368738E+03  0.00000000000E+00 0. -1.
         11    1    1    2    0    0  0.60241519241E+02 -0.63774545477E+02 -0.40429093047E+03  0.41369963712E+03  0.00000000000E+00 0.  1.
        -15    1    1    2    0    0  0.67738089893E+00  0.31742425910E+00  0.10055256645E+02  0.10238433388E+02  0.17770000000E+01 0. -1.
         15    1    1    2    0    0 -0.38647365637E+02 -0.65176425105E+02 -0.64244200409E+02  0.99358242111E+02  0.17770000000E+01 0.  1.
</event>
<event>
 6    1  0.1823098E-004  0.5001014E+03  0.7546771E-02  0.9399583E-01
        -11   -1    0    0    0    0  0.00000000000E+00  0.00000000000E+00  0.50000000000E+03  0.50000000000E+03  0.00000000000E+00 0.  1.
         11   -1    0    0    0    0 -0.00000000000E+00 -0.00000000000E+00 -0.50000000000E+03  0.50000000000E+03  0.00000000000E+00 0. -1.
        -11    1    1    2    0    0 -0.20151385114E+01  0.23093998312E+01  0.15206598245E+03  0.15209686759E+03  0.00000000000E+00 0.  1.
         11    1    1    2    0    0 -0.41921432161E+01 -0.11239078435E+02 -0.49975466650E+03  0.49989860736E+03  0.00000000000E+00 0. -1.
        -15    1    1    2    0    0  0.48655677278E+01  0.18970249218E+01  0.24004528996E+03  0.24010866585E+03  0.17770000000E+01 0.  1.
         15    1    1    2    0    0  0.13417139997E+01  0.70326536822E+01  0.10764339409E+03  0.10789585921E+03  0.17770000000E+01 0. -1.
</event>
<event>
 6    1  0.1823098E-004  0.5089496E+03  0.7546771E-02  0.9380004E-01
        -11   -1    0    0    0    0  0.00000000000E+00  0.00000000000E+00  0.50000000000E+03  0.50000000000E+03  0.00000000000E+00 0.  1.
         11   -1    0    0    0    0 -0.00000000000E+00 -0.00000000000E+00 -0.50000000000E+03  0.50000000000E+03  0.00000000000E+00 0.  1.
        -11    1    1    2    0    0  0.14260351944E+02  0.43200353717E+01  0.49082428917E+03  0.49105040798E+03  0.00000000000E+00 0.  1.
         11    1    1    2    0    0  0.10886837311E+02 -0.21806832227E+02 -0.43626400436E+03  0.43694432444E+03  0.00000000000E+00 0.  1.
        -15    1    1    2    0    0 -0.10013102550E+02  0.19850080344E+02 -0.51722095127E+02  0.56326022100E+02  0.17770000000E+01 0.  1.
         15    1    1    2    0    0 -0.15134086705E+02 -0.23632834887E+01 -0.28381896813E+01  0.15679245483E+02  0.17770000000E+01 0. -1.
</event>
<event>
 6    1  0.1823098E-004  0.5028794E+03  0.7546771E-02  0.9393390E-01
        -11   -1    0    0    0    0  0.00000000000E+00  0.00000000000E+00  0.50000000000E+03  0.50000000000E+03  0.00000000000E+00 0.  1.
         11   -1    0    0    0    0 -0.00000000000E+00 -0.00000000000E+00 -0.50000000000E+03  0.50000000000E+03  0.00000000000E+00 0. -1.
        -11    1    1    2    0    0 -0.18306905486E+01  0.13889388221E+02  0.48645458857E+03  0.48665627836E+03  0.00000000000E+00 0.  1.
         11    1    1    2    0    0 -0.31350076239E+01 -0.62174766068E+01 -0.49707179269E+03  0.49712056121E+03  0.00000000000E+00 0. -1.
        -15    1    1    2    0    0  0.41338160815E+01 -0.86851658740E+01  0.71646078635E+01  0.12124762946E+02  0.17770000000E+01 0.  1.
         15    1    1    2    0    0  0.83188209095E+00  0.10132542594E+01  0.34525962576E+01  0.40983974826E+01  0.17770000000E+01 0. -1.
</event>
<event>
 6    1  0.1823098E-004  0.5010131E+03  0.7546771E-02  0.9397546E-01
        -11   -1    0    0    0    0  0.00000000000E+00  0.00000000000E+00  0.50000000000E+03  0.50000000000E+03  0.00000000000E+00 0. -1.
         11   -1    0    0    0    0 -0.00000000000E+00 -0.00000000000E+00 -0.50000000000E+03  0.50000000000E+03  0.00000000000E+00 0.  1.
        -11    1    1    2    0    0 -0.63602127793E+01  0.10457691713E+02  0.49883677313E+03  0.49898691551E+03  0.00000000000E+00 0. -1.
         11    1    1    2    0    0  0.14779434792E+02 -0.17277957122E+01 -0.34138002370E+03  0.34170416671E+03  0.00000000000E+00 0.  1.
        -15    1    1    2    0    0  0.65904924821E+01 -0.54291447386E+01 -0.53043450629E+02  0.53755702835E+02  0.17770000000E+01 0. -1.
         15    1    1    2    0    0 -0.15009714495E+02 -0.33007512620E+01 -0.10441329881E+03  0.10555321494E+03  0.17770000000E+01 0.  1.
</event>
<event>
 6    1  0.1823098E-004  0.5006749E+03  0.7546771E-02  0.9398301E-01
        -11   -1    0    0    0    0  0.00000000000E+00  0.00000000000E+00  0.50000000000E+03  0.50000000000E+03  0.00000000000E+00 0.  1.
         11   -1    0    0    0    0 -0.00000000000E+00 -0.00000000000E+00 -0.50000000000E+03  0.50000000000E+03  0.00000000000E+00 0.  1.
        -11    1    1    2    0    0  0.24757593390E+01 -0.25148734184E+01  0.15699019213E+03  0.15702985193E+03  0.00000000000E+00 0.  1.
         11    1    1    2    0    0 -0.22097381566E+02 -0.34808448370E+02 -0.49761999975E+03  0.49932513105E+03  0.00000000000E+00 0.  1.
        -15    1    1    2    0    0 -0.96792268241E+00  0.12989864733E+02  0.11986931219E+03  0.12058807236E+03  0.17770000000E+01 0. -1.
         15    1    1    2    0    0  0.20589544909E+02  0.24333457056E+02  0.22076049543E+03  0.22305694466E+03  0.17770000000E+01 0.  1.
</event>
<event>
 6    1  0.1823098E-004  0.5004575E+03  0.7546771E-02  0.9398787E-01
        -11   -1    0    0    0    0  0.00000000000E+00  0.00000000000E+00  0.50000000000E+03  0.50000000000E+03  0.00000000000E+00 0. -1.
         11   -1    0    0    0    0 -0.00000000000E+00 -0.00000000000E+00 -0.50000000000E+03  0.50000000000E+03  0.00000000000E+00 0.  1.
        -11    1    1    2    0    0 -0.48472307027E+01  0.23495351918E+01  0.39553789888E+03  0.39557457630E+03  0.00000000000E+00 0. -1.
         11    1    1    2    0    0 -0.61059310960E+01  0.50152888535E+01 -0.49948000544E+03  0.49954250205E+03  0.00000000000E+00 0.  1.
        -15    1    1    2    0    0  0.41893568934E+01 -0.14194129641E+01  0.40687407296E+02  0.40965696452E+02  0.17770000000E+01 0.  1.
         15    1    1    2    0    0  0.67638049053E+01 -0.59454110811E+01  0.63254699264E+02  0.63917225203E+02  0.17770000000E+01 0. -1.
</event>
<event>
 6    1  0.1823098E-004  0.5052623E+03  0.7546771E-02  0.9388111E-01
        -11   -1    0    0    0    0  0.00000000000E+00  0.00000000000E+00  0.50000000000E+03  0.50000000000E+03  0.00000000000E+00 0. -1.
         11   -1    0    0    0    0 -0.00000000000E+00 -0.00000000000E+00 -0.50000000000E+03  0.50000000000E+03  0.00000000000E+00 0.  1.
        -11    1    1    2    0    0  0.28765796249E+02 -0.28462887066E+01  0.49389248278E+03  0.49473766477E+03  0.00000000000E+00 0. -1.
         11    1    1    2    0    0 -0.35526434478E+02  0.90705446497E+01 -0.47542775778E+03  0.47683954869E+03  0.00000000000E+00 0.  1.
        -15    1    1    2    0    0  0.33573555070E+01  0.45293021943E+01  0.86315728268E+00  0.59740425059E+01  0.17770000000E+01 0. -1.
         15    1    1    2    0    0  0.34032827223E+01 -0.10753558137E+02 -0.19327882287E+02  0.22448744032E+02  0.17770000000E+01 0.  1.
</event>
<event>
 6    1  0.1823098E-004  0.5046658E+03  0.7546771E-02  0.9389430E-01
        -11   -1    0    0    0    0  0.00000000000E+00  0.00000000000E+00  0.50000000000E+03  0.50000000000E+03  0.00000000000E+00 0. -1.
         11   -1    0    0    0    0 -0.00000000000E+00 -0.00000000000E+00 -0.50000000000E+03  0.50000000000E+03  0.00000000000E+00 0.  1.
        -11    1    1    2    0    0  0.94557434899E+01 -0.54162194719E+01  0.35604487082E+03  0.35621158959E+03  0.00000000000E+00 0. -1.
         11    1    1    2    0    0  0.18291985116E+02 -0.42069920849E+02 -0.49320532138E+03  0.49533419425E+03  0.00000000000E+00 0.  1.
        -15    1    1    2    0    0 -0.51071495100E+01  0.27016266306E+01  0.93510740829E+01  0.11134723978E+02  0.17770000000E+01 0.  1.
         15    1    1    2    0    0 -0.22640579096E+02  0.44784513691E+02  0.12780937648E+03  0.13731949218E+03  0.17770000000E+01 0. -1.
</event>
<event>
 6    1  0.1823098E-004  0.5096641E+03  0.7546771E-02  0.9378441E-01
        -11   -1    0    0    0    0  0.00000000000E+00  0.00000000000E+00  0.50000000000E+03  0.50000000000E+03  0.00000000000E+00 0. -1.
         11   -1    0    0    0    0 -0.00000000000E+00 -0.00000000000E+00 -0.50000000000E+03  0.50000000000E+03  0.00000000000E+00 0.  1.
        -11    1    1    2    0    0  0.51792892247E+01 -0.11805862110E+02  0.49016640144E+03  0.49033590988E+03  0.00000000000E+00 0. -1.
         11    1    1    2    0    0 -0.12562394914E+02 -0.20146815699E+02 -0.45562374440E+03  0.45624193627E+03  0.00000000000E+00 0.  1.
        -15    1    1    2    0    0  0.21421618906E+01  0.59296812366E+01  0.31639203981E+01  0.72744826908E+01  0.17770000000E+01 0. -1.
         15    1    1    2    0    0  0.52409437985E+01  0.26022996573E+02 -0.37706577439E+02  0.46147671162E+02  0.17770000000E+01 0.  1.
</event>
<event>
 6    1  0.1823098E-004  0.4946623E+03  0.7546771E-02  0.9411833E-01
        -11   -1    0    0    0    0  0.00000000000E+00  0.00000000000E+00  0.50000000000E+03  0.50000000000E+03  0.00000000000E+00 0.  1.
         11   -1    0    0    0    0 -0.00000000000E+00 -0.00000000000E+00 -0.50000000000E+03  0.50000000000E+03  0.00000000000E+00 0.  1.
        -11    1    1    2    0    0  0.45555408482E+01  0.65247338950E+01  0.49516686846E+03  0.49523080753E+03  0.00000000000E+00 0.  1.
         11    1    1    2    0    0 -0.75382778055E+01  0.22872000818E+01 -0.49407530910E+03  0.49413810618E+03  0.00000000000E+00 0.  1.
        -15    1    1    2    0    0  0.20568932633E+01 -0.58047201013E+01  0.95155380263E+00  0.64798741493E+01  0.17770000000E+01 0. -1.
         15    1    1    2    0    0  0.92584369406E+00 -0.30072138755E+01 -0.20431131679E+01  0.41512121429E+01  0.17770000000E+01 0.  1.
</event>
<event>
 6    1  0.1823098E-004  0.5039685E+03  0.7546771E-02  0.9390974E-01
        -11   -1    0    0    0    0  0.00000000000E+00  0.00000000000E+00  0.50000000000E+03  0.50000000000E+03  0.00000000000E+00 0.  1.
         11   -1    0    0    0    0 -0.00000000000E+00 -0.00000000000E+00 -0.50000000000E+03  0.50000000000E+03  0.00000000000E+00 0. -1.
        -11    1    1    2    0    0  0.90453367114E+01  0.69532624555E+01  0.46078729281E+03  0.46092851419E+03  0.00000000000E+00 0.  1.
         11    1    1    2    0    0 -0.98493491137E+01  0.16383575829E+02 -0.49566305454E+03  0.49603154624E+03  0.00000000000E+00 0. -1.
        -15    1    1    2    0    0  0.57259692233E+00 -0.21270238230E+02  0.34035128069E+02  0.40178334626E+02  0.17770000000E+01 0. -1.
         15    1    1    2    0    0  0.23141547991E+00 -0.20666000539E+01  0.84063365873E+00  0.28616049440E+01  0.17770000000E+01 0.  1.
</event>
<event>
 6    1  0.1823098E-004  0.5010779E+03  0.7546771E-02  0.9397401E-01
        -11   -1    0    0    0    0  0.00000000000E+00  0.00000000000E+00  0.50000000000E+03  0.50000000000E+03  0.00000000000E+00 0. -1.
         11   -1    0    0    0    0 -0.00000000000E+00 -0.00000000000E+00 -0.50000000000E+03  0.50000000000E+03  0.00000000000E+00 0. -1.
        -11    1    1    2    0    0 -0.13594996220E+02 -0.12675839716E+02  0.49857576777E+03  0.49892213525E+03  0.00000000000E+00 0. -1.
         11    1    1    2    0    0 -0.20775026202E+01  0.68301567423E+01 -0.29441948226E+03  0.29450602471E+03  0.00000000000E+00 0. -1.
        -15    1    1    2    0    0  0.14178306758E+02 -0.29712554211E+01 -0.18239137386E+03  0.18297437998E+03  0.17770000000E+01 0. -1.
         15    1    1    2    0    0  0.14941920827E+01  0.88169383952E+01 -0.21764911652E+02  0.23597460051E+02  0.17770000000E+01 0.  1.
</event>
<event>
 6    1  0.1823098E-004  0.5063621E+03  0.7546771E-02  0.9385685E-01
        -11   -1    0    0    0    0  0.00000000000E+00  0.00000000000E+00  0.50000000000E+03  0.50000000000E+03  0.00000000000E+00 0.  1.
         11   -1    0    0    0    0 -0.00000000000E+00 -0.00000000000E+00 -0.50000000000E+03  0.50000000000E+03  0.00000000000E+00 0. -1.
        -11    1    1    2    0    0 -0.96663855760E-01  0.81122717308E+01  0.49357120969E+03  0.49363788077E+03  0.00000000000E+00 0.  1.
         11    1    1    2    0    0  0.24741263531E+01 -0.27682733172E+02 -0.41877167746E+03  0.41969295069E+03  0.00000000000E+00 0. -1.
        -15    1    1    2    0    0 -0.96750526466E+01  0.29078892214E+02 -0.44734641625E+02  0.54254350115E+02  0.17770000000E+01 0.  1.
         15    1    1    2    0    0  0.72975901493E+01 -0.95084307724E+01 -0.30064890601E+02  0.32414818426E+02  0.17770000000E+01 0. -1.
</event>
<event>
 6    1  0.1823098E-004  0.4941624E+03  0.7546771E-02  0.9412967E-01
        -11   -1    0    0    0    0  0.00000000000E+00  0.00000000000E+00  0.50000000000E+03  0.50000000000E+03  0.00000000000E+00 0.  1.
         11   -1    0    0    0    0 -0.00000000000E+00 -0.00000000000E+00 -0.50000000000E+03  0.50000000000E+03  0.00000000000E+00 0.  1.
        -11    1    1    2    0    0 -0.70389251742E+01 -0.49390659161E+00  0.49371165984E+03  0.49376208185E+03  0.00000000000E+00 0.  1.
         11    1    1    2    0    0  0.36868389209E+01 -0.71944334720E+01 -0.49453250864E+03  0.49459857941E+03  0.00000000000E+00 0.  1.
        -15    1    1    2    0    0  0.24778381082E+01 -0.58234902544E+00  0.13426983440E+00  0.31071803080E+01  0.17770000000E+01 0.  1.
         15    1    1    2    0    0  0.87424814513E+00  0.82706890891E+01  0.68657895968E+00  0.85321584312E+01  0.17770000000E+01 0. -1.
</event>
<event>
 6    1  0.1823098E-004  0.5003924E+03  0.7546771E-02  0.9398932E-01
        -11   -1    0    0    0    0  0.00000000000E+00  0.00000000000E+00  0.50000000000E+03  0.50000000000E+03  0.00000000000E+00 0.  1.
         11   -1    0    0    0    0 -0.00000000000E+00 -0.00000000000E+00 -0.50000000000E+03  0.50000000000E+03  0.00000000000E+00 0.  1.
        -11    1    1    2    0    0 -0.15234377648E+01  0.74269529810E+01  0.49955009383E+03  0.49960762278E+03  0.00000000000E+00 0.  1.
         11    1    1    2    0    0  0.11558987099E+02  0.14244655127E+01 -0.30837797955E+03  0.30859782493E+03  0.00000000000E+00 0.  1.
        -15    1    1    2    0    0 -0.92744960397E+01 -0.48829928421E+01 -0.11338449285E+03  0.11388178451E+03  0.17770000000E+01 0. -1.
         15    1    1    2    0    0 -0.76105329466E+00 -0.39684256516E+01 -0.77787621435E+02  0.77912767772E+02  0.17770000000E+01 0.  1.
</event>
<event>
 6    1  0.1823098E-004  0.5012457E+03  0.7546771E-02  0.9397027E-01
        -11   -1    0    0    0    0  0.00000000000E+00  0.00000000000E+00  0.50000000000E+03  0.50000000000E+03  0.00000000000E+00 0. -1.
         11   -1    0    0    0    0 -0.00000000000E+00 -0.00000000000E+00 -0.50000000000E+03  0.50000000000E+03  0.00000000000E+00 0. -1.
        -11    1    1    2    0    0  0.70246766824E-01 -0.82786202636E+01  0.49868559991E+03  0.49875431631E+03  0.00000000000E+00 0. -1.
         11    1    1    2    0    0  0.19163053287E+02  0.35965290984E+01 -0.30606366300E+03  0.30668407759E+03  0.00000000000E+00 0. -1.
        -15    1    1    2    0    0  0.26927622540E+00  0.28494356673E+01 -0.58022320853E+01  0.67093531342E+01  0.17770000000E+01 0.  1.
         15    1    1    2    0    0 -0.19502576279E+02  0.18326554978E+01 -0.18681970482E+03  0.18785225297E+03  0.17770000000E+01 0. -1.
</event>
<event>
 6    1  0.1823098E-004  0.5001593E+03  0.7546771E-02  0.9399453E-01
        -11   -1    0    0    0    0  0.00000000000E+00  0.00000000000E+00  0.50000000000E+03  0.50000000000E+03  0.00000000000E+00 0.  1.
         11   -1    0    0    0    0 -0.00000000000E+00 -0.00000000000E+00 -0.50000000000E+03  0.50000000000E+03  0.00000000000E+00 0. -1.
        -11    1    1    2    0    0  0.32527689509E+01  0.30226431728E+01  0.24441662086E+03  0.24445695210E+03  0.00000000000E+00 0.  1.
         11    1    1    2    0    0  0.43882032293E+01 -0.77447337244E+01 -0.49976141019E+03  0.49984067896E+03  0.00000000000E+00 0. -1.
        -15    1    1    2    0    0 -0.64014005384E+01 -0.84341532621E+00  0.89554001889E+02  0.89804043681E+02  0.17770000000E+01 0. -1.
         15    1    1    2    0    0 -0.12395716419E+01  0.55655058779E+01  0.16579078745E+03  0.16589832526E+03  0.17770000000E+01 0.  1.
</event>
<event>
 6    1  0.1823098E-004  0.5025128E+03  0.7546771E-02  0.9394205E-01
        -11   -1    0    0    0    0  0.00000000000E+00  0.00000000000E+00  0.50000000000E+03  0.50000000000E+03  0.00000000000E+00 0. -1.
         11   -1    0    0    0    0 -0.00000000000E+00 -0.00000000000E+00 -0.50000000000E+03  0.50000000000E+03  0.00000000000E+00 0. -1.
        -11    1    1    2    0    0 -0.16321595470E+02 -0.32556982204E+01  0.49720877360E+03  0.49748724466E+03  0.00000000000E+00 0. -1.
         11    1    1    2    0    0 -0.20790435329E+02 -0.98704744601E+01 -0.10265162392E+03  0.10519992567E+03  0.00000000000E+00 0. -1.
        -15    1    1    2    0    0 -0.89789652070E+00 -0.28854440715E+01 -0.11115128951E+02  0.11654862772E+02  0.17770000000E+01 0.  1.
         15    1    1    2    0    0  0.38009927319E+02  0.16011616752E+02 -0.38344202073E+03  0.38565796690E+03  0.17770000000E+01 0. -1.
</event>
<event>
 6    1  0.1823098E-004  0.5032760E+03  0.7546771E-02  0.9392509E-01
        -11   -1    0    0    0    0  0.00000000000E+00  0.00000000000E+00  0.50000000000E+03  0.50000000000E+03  0.00000000000E+00 0.  1.
         11   -1    0    0    0    0 -0.00000000000E+00 -0.00000000000E+00 -0.50000000000E+03  0.50000000000E+03  0.00000000000E+00 0. -1.
        -11    1    1    2    0    0 -0.19152142849E+02 -0.75240746245E+01  0.31417508082E+03  0.31484821372E+03  0.00000000000E+00 0.  1.
         11    1    1    2    0    0 -0.36877370141E+01 -0.28141541247E+02 -0.49591247806E+03  0.49672399947E+03  0.00000000000E+00 0. -1.
        -15    1    1    2    0    0  0.64922110619E+01  0.56118947392E+01  0.91292732026E+02  0.91712391839E+02  0.17770000000E+01 0. -1.
         15    1    1    2    0    0  0.16347668801E+02  0.30053721132E+02  0.90444665222E+02  0.96715394975E+02  0.17770000000E+01 0.  1.
</event>
<event>
 6    1  0.4787399E-004  0.5000567E+03  0.7546771E-02  0.9399683E-01
        -11   -1    0    0    0    0  0.00000000000E+00  0.00000000000E+00  0.50000000000E+03  0.50000000000E+03  0.00000000000E+00 0.  1.
         11   -1    0    0    0    0 -0.00000000000E+00 -0.00000000000E+00 -0.50000000000E+03  0.50000000000E+03  0.00000000000E+00 0.  1.
        -11    1    1    2    0    0  0.71251415496E-01  0.28606507945E+01  0.18288980953E+03  0.18291219432E+03  0.00000000000E+00 0.  1.
         11    1    1    2    0    0 -0.69504269829E+01  0.86406614332E+00 -0.49989427675E+03  0.49994333977E+03  0.00000000000E+00 0.  1.
        -15    1    1    2    0    0  0.36545337579E+01 -0.30887694162E+01  0.23436291784E+03  0.23441849565E+03  0.17770000000E+01 0. -1.
         15    1    1    2    0    0  0.32246418095E+01 -0.63594752161E+00  0.82641549375E+02  0.82725970264E+02  0.17770000000E+01 0.  1.
</event>
<event>
 6    1  0.1823098E-004  0.5012022E+03  0.7546771E-02  0.9397124E-01
        -11   -1    0    0    0    0  0.00000000000E+00  0.00000000000E+00  0.50000000000E+03  0.50000000000E+03  0.00000000000E+00 0.  1.
         11   -1    0    0    0    0 -0.00000000000E+00 -0.00000000000E+00 -0.50000000000E+03  0.50000000000E+03  0.00000000000E+00 0.  1.
        -11    1    1    2    0    0  0.67901775175E+01 -0.11533918908E+01  0.47922877915E+03  0.47927826947E+03  0.00000000000E+00 0.  1.
         11    1    1    2    0    0 -0.66858106441E+01  0.37158028875E+01 -0.49873917575E+03  0.49879782747E+03  0.00000000000E+00 0.  1.
        -15    1    1    2    0    0  0.37702888589E+01 -0.20621366043E+01  0.14971563089E+02  0.15677146289E+02  0.17770000000E+01 0.  1.
         15    1    1    2    0    0 -0.38746557323E+01 -0.50027439240E+00  0.45388335121E+01  0.62467567714E+01  0.17770000000E+01 0. -1.
</event>
<event>
 6    1  0.1823098E-004  0.5001697E+03  0.7546771E-02  0.9399430E-01
        -11   -1    0    0    0    0  0.00000000000E+00  0.00000000000E+00  0.50000000000E+03  0.50000000000E+03  0.00000000000E+00 0.  1.
         11   -1    0    0    0    0 -0.00000000000E+00 -0.00000000000E+00 -0.50000000000E+03  0.50000000000E+03  0.00000000000E+00 0.  1.
        -11    1    1    2    0    0 -0.62166055305E+00 -0.13158273759E+02  0.49965671265E+03  0.49983032834E+03  0.00000000000E+00 0.  1.
         11    1    1    2    0    0 -0.79735257185E+01  0.49716521546E+01 -0.24363118798E+03  0.24381232576E+03  0.00000000000E+00 0.  1.
        -15    1    1    2    0    0  0.53843342162E+01  0.28863601944E+01 -0.10322780509E+03  0.10342368976E+03  0.17770000000E+01 0.  1.
         15    1    1    2    0    0  0.32108520554E+01  0.53002614105E+01 -0.15279771958E+03  0.15293365614E+03  0.17770000000E+01 0. -1.
</event>
<event>
 6    1  0.1823098E-004  0.5034831E+03  0.7546771E-02  0.9392050E-01
        -11   -1    0    0    0    0  0.00000000000E+00  0.00000000000E+00  0.50000000000E+03  0.50000000000E+03  0.00000000000E+00 0.  1.
         11   -1    0    0    0    0 -0.00000000000E+00 -0.00000000000E+00 -0.50000000000E+03  0.50000000000E+03  0.00000000000E+00 0.  1.
        -11    1    1    2    0    0 -0.79570669545E+01 -0.28945864291E+01  0.49644468004E+03  0.49651688177E+03  0.00000000000E+00 0.  1.
         11    1    1    2    0    0 -0.16600430114E+02  0.21046371192E+02 -0.41237454577E+03  0.41324483060E+03  0.00000000000E+00 0.  1.
        -15    1    1    2    0    0  0.21454917583E+01 -0.16466063999E+01 -0.26789099459E+01  0.42010397545E+01  0.17770000000E+01 0. -1.
         15    1    1    2    0    0  0.22412005310E+02 -0.16505178363E+02 -0.81391224328E+02  0.86037247872E+02  0.17770000000E+01 0.  1.
</event>
<event>
 6    1  0.1823098E-004  0.4792150E+03  0.7546771E-02  0.9447558E-01
        -11   -1    0    0    0    0  0.00000000000E+00  0.00000000000E+00  0.50000000000E+03  0.50000000000E+03  0.00000000000E+00 0.  1.
         11   -1    0    0    0    0 -0.00000000000E+00 -0.00000000000E+00 -0.50000000000E+03  0.50000000000E+03  0.00000000000E+00 0. -1.
        -11    1    1    2    0    0  0.13604369271E+02 -0.21424318702E+01  0.48453433815E+03  0.48473002148E+03  0.00000000000E+00 0.  1.
         11    1    1    2    0    0  0.19653752152E+02  0.55858339459E+01 -0.47390164344E+03  0.47434190113E+03  0.00000000000E+00 0. -1.
        -15    1    1    2    0    0 -0.30209496024E+02 -0.87397278871E+01 -0.13084367191E+02  0.34107988615E+02  0.17770000000E+01 0. -1.
         15    1    1    2    0    0 -0.30486253986E+01  0.52963258113E+01  0.24516724739E+01  0.68200887707E+01  0.17770000000E+01 0.  1.
</event>
<event>
 6    1  0.1823098E-004  0.5020656E+03  0.7546771E-02  0.9395200E-01
        -11   -1    0    0    0    0  0.00000000000E+00  0.00000000000E+00  0.50000000000E+03  0.50000000000E+03  0.00000000000E+00 0. -1.
         11   -1    0    0    0    0 -0.00000000000E+00 -0.00000000000E+00 -0.50000000000E+03  0.50000000000E+03  0.00000000000E+00 0.  1.
        -11    1    1    2    0    0  0.11110475053E+02 -0.13021901395E+02  0.34339761895E+03  0.34382399170E+03  0.00000000000E+00 0. -1.
         11    1    1    2    0    0  0.15084390728E+02  0.51655650735E+01 -0.49767907474E+03  0.49793441671E+03  0.00000000000E+00 0.  1.
        -15    1    1    2    0    0 -0.21804529237E+02  0.88110820358E+01  0.70889437755E+02  0.74709723438E+02  0.17770000000E+01 0.  1.
         15    1    1    2    0    0 -0.43903365447E+01 -0.95474571415E+00  0.83392018043E+02  0.83531868150E+02  0.17770000000E+01 0. -1.
</event>
<event>
 6    1  0.1823098E-004  0.5002179E+03  0.7546771E-02  0.9399322E-01
        -11   -1    0    0    0    0  0.00000000000E+00  0.00000000000E+00  0.50000000000E+03  0.50000000000E+03  0.00000000000E+00 0.  1.
         11   -1    0    0    0    0 -0.00000000000E+00 -0.00000000000E+00 -0.50000000000E+03  0.50000000000E+03  0.00000000000E+00 0. -1.
        -11    1    1    2    0    0  0.45796827762E+02 -0.23586227768E+02  0.49712022954E+03  0.49978213473E+03  0.00000000000E+00 0.  1.
         11    1    1    2    0    0 -0.17156610722E+02  0.24403233258E+01 -0.20560935948E+03  0.20633834635E+03  0.00000000000E+00 0. -1.
        -15    1    1    2    0    0 -0.69906168928E+01  0.42052213292E+01 -0.39837616819E+02  0.40703145502E+02  0.17770000000E+01 0.  1.
         15    1    1    2    0    0 -0.21649600147E+02  0.16940683113E+02 -0.25167325325E+03  0.25317637342E+03  0.17770000000E+01 0. -1.
</event>
<event>
 6    1  0.1823098E-004  0.5028365E+03  0.7546771E-02  0.9393485E-01
        -11   -1    0    0    0    0  0.00000000000E+00  0.00000000000E+00  0.50000000000E+03  0.50000000000E+03  0.00000000000E+00 0. -1.
         11   -1    0    0    0    0 -0.00000000000E+00 -0.00000000000E+00 -0.50000000000E+03  0.50000000000E+03  0.00000000000E+00 0.  1.
        -11    1    1    2    0    0  0.54909125663E+01  0.51862980236E+01  0.49710615360E+03  0.49716353020E+03  0.00000000000E+00 0. -1.
         11    1    1    2    0    0  0.67963188781E+01 -0.15802326997E+02 -0.46500845225E+03  0.46532651349E+03  0.00000000000E+00 0.  1.
        -15    1    1    2    0    0 -0.80691582841E+01  0.95161489397E+00 -0.10369430437E+02  0.13292844049E+02  0.17770000000E+01 0. -1.
         15    1    1    2    0    0 -0.42180731603E+01  0.96644140792E+01 -0.21728270914E+02  0.24217112267E+02  0.17770000000E+01 0.  1.
</event>
<event>
 6    1  0.1823098E-004  0.5053269E+03  0.7546771E-02  0.9387969E-01
        -11   -1    0    0    0    0  0.00000000000E+00  0.00000000000E+00  0.50000000000E+03  0.50000000000E+03  0.00000000000E+00 0.  1.
         11   -1    0    0    0    0 -0.00000000000E+00 -0.00000000000E+00 -0.50000000000E+03  0.50000000000E+03  0.00000000000E+00 0. -1.
        -11    1    1    2    0    0 -0.78364092090E+00 -0.91400669446E+01  0.47149402131E+03  0.47158325569E+03  0.00000000000E+00 0.  1.
         11    1    1    2    0    0  0.13252239466E+02 -0.72668633857E+01 -0.49444215406E+03  0.49467309697E+03  0.00000000000E+00 0. -1.
        -15    1    1    2    0    0 -0.79865348715E+01  0.12359245179E+02  0.23100203350E+02  0.27446544490E+02  0.17770000000E+01 0.  1.
         15    1    1    2    0    0 -0.44820636731E+01  0.40476851511E+01 -0.15207060148E+00  0.62971028513E+01  0.17770000000E+01 0. -1.
</event>
<event>
 6    1  0.1823098E-004  0.5011193E+03  0.7546771E-02  0.9397309E-01
        -11   -1    0    0    0    0  0.00000000000E+00  0.00000000000E+00  0.50000000000E+03  0.50000000000E+03  0.00000000000E+00 0.  1.
         11   -1    0    0    0    0 -0.00000000000E+00 -0.00000000000E+00 -0.50000000000E+03  0.50000000000E+03  0.00000000000E+00 0. -1.
        -11    1    1    2    0    0 -0.53734978935E+01 -0.60447003530E+01  0.49881511006E+03  0.49888067401E+03  0.00000000000E+00 0.  1.
         11    1    1    2    0    0  0.12291334099E+02  0.84529033782E+01 -0.62483552838E+02  0.64239573821E+02  0.00000000000E+00 0. -1.
        -15    1    1    2    0    0 -0.98707727821E+01  0.16418112942E+01 -0.40287714201E+03  0.40300530639E+03  0.17770000000E+01 0. -1.
         15    1    1    2    0    0  0.29529365764E+01 -0.40500143193E+01 -0.33454415209E+02  0.33874445772E+02  0.17770000000E+01 0.  1.
</event>
<event>
 6    1  0.1823098E-004  0.5215749E+03  0.7546771E-02  0.9352788E-01
        -11   -1    0    0    0    0  0.00000000000E+00  0.00000000000E+00  0.50000000000E+03  0.50000000000E+03  0.00000000000E+00 0.  1.
         11   -1    0    0    0    0 -0.00000000000E+00 -0.00000000000E+00 -0.50000000000E+03  0.50000000000E+03  0.00000000000E+00 0. -1.
        -11    1    1    2    0    0  0.20327852248E+01  0.24814652804E+02  0.47777681547E+03  0.47842510867E+03  0.00000000000E+00 0.  1.
         11    1    1    2    0    0 -0.41374683880E+01  0.42481687390E+02 -0.40148051975E+03  0.40374301251E+03  0.00000000000E+00 0. -1.
        -15    1    1    2    0    0 -0.44875465022E+01 -0.62465005759E+02 -0.85108876146E+02  0.10568203985E+03  0.17770000000E+01 0.  1.
         15    1    1    2    0    0  0.65922296654E+01 -0.48313344351E+01  0.88125804305E+01  0.12149838980E+02  0.17770000000E+01 0. -1.
</event>
<event>
 6    1  0.1823098E-004  0.5001202E+03  0.7546771E-02  0.9399541E-01
        -11   -1    0    0    0    0  0.00000000000E+00  0.00000000000E+00  0.50000000000E+03  0.50000000000E+03  0.00000000000E+00 0. -1.
         11   -1    0    0    0    0 -0.00000000000E+00 -0.00000000000E+00 -0.50000000000E+03  0.50000000000E+03  0.00000000000E+00 0. -1.
        -11    1    1    2    0    0 -0.74474371176E+01 -0.50453249990E+01  0.49979883826E+03  0.49987978389E+03  0.00000000000E+00 0. -1.
         11    1    1    2    0    0  0.10653491816E+02  0.20542824406E+01 -0.39268864602E+03  0.39283850330E+03  0.00000000000E+00 0. -1.
        -15    1    1    2    0    0 -0.29626204045E+01  0.20161876422E+01 -0.66403562293E+02  0.66523927624E+02  0.17770000000E+01 0. -1.
         15    1    1    2    0    0 -0.24343429413E+00  0.97485491617E+00 -0.40706629943E+02  0.40757785179E+02  0.17770000000E+01 0. -1.
</event>
<event>
 6    1  0.1823098E-004  0.5013237E+03  0.7546771E-02  0.9396853E-01
        -11   -1    0    0    0    0  0.00000000000E+00  0.00000000000E+00  0.50000000000E+03  0.50000000000E+03  0.00000000000E+00 0.  1.
         11   -1    0    0    0    0 -0.00000000000E+00 -0.00000000000E+00 -0.50000000000E+03  0.50000000000E+03  0.00000000000E+00 0. -1.
        -11    1    1    2    0    0 -0.44771323834E+01 -0.19282639308E+01  0.30508261268E+03  0.30512155525E+03  0.00000000000E+00 0.  1.
         11    1    1    2    0    0  0.45539986308E+01 -0.30302766132E+02 -0.49773396960E+03  0.49867634898E+03  0.00000000000E+00 0. -1.
        -15    1    1    2    0    0  0.13810896777E+01  0.31365167432E+02  0.13976948682E+03  0.14326321339E+03  0.17770000000E+01 0. -1.
         15    1    1    2    0    0 -0.14579559251E+01  0.86586263006E+00  0.52881870101E+02  0.52938882383E+02  0.17770000000E+01 0.  1.
</event>
<event>
 6    1  0.1823098E-004  0.5005426E+03  0.7546771E-02  0.9398596E-01
        -11   -1    0    0    0    0  0.00000000000E+00  0.00000000000E+00  0.50000000000E+03  0.50000000000E+03  0.00000000000E+00 0. -1.
         11   -1    0    0    0    0 -0.00000000000E+00 -0.00000000000E+00 -0.50000000000E+03  0.50000000000E+03  0.00000000000E+00 0.  1.
        -11    1    1    2    0    0  0.69281144293E+01 -0.38509921841E+01  0.34102734416E+03  0.34111944883E+03  0.00000000000E+00 0. -1.
         11    1    1    2    0    0  0.37604848982E+01  0.88133325560E+01 -0.49936550035E+03  0.49945742463E+03  0.00000000000E+00 0.  1.
        -15    1    1    2    0    0 -0.63850315592E+01  0.44580805013E+01  0.61515520067E+02  0.62031927649E+02  0.17770000000E+01 0. -1.
         15    1    1    2    0    0 -0.43035677683E+01 -0.94204208732E+01  0.96822636129E+02  0.97391198888E+02  0.17770000000E+01 0.  1.
</event>
<event>
 6    1  0.1823098E-004  0.5037384E+03  0.7546771E-02  0.9391483E-01
        -11   -1    0    0    0    0  0.00000000000E+00  0.00000000000E+00  0.50000000000E+03  0.50000000000E+03  0.00000000000E+00 0.  1.
         11   -1    0    0    0    0 -0.00000000000E+00 -0.00000000000E+00 -0.50000000000E+03  0.50000000000E+03  0.00000000000E+00 0.  1.
        -11    1    1    2    0    0  0.56760891681E+01  0.10477667954E+01  0.34511611293E+03  0.34516437708E+03  0.00000000000E+00 0.  1.
         11    1    1    2    0    0  0.29242437860E+02 -0.38597336869E+02 -0.49389344983E+03  0.49626163902E+03  0.00000000000E+00 0.  1.
        -15    1    1    2    0    0 -0.35896212697E+02  0.34370130338E+02  0.14476131007E+03  0.15306481819E+03  0.17770000000E+01 0.  1.
         15    1    1    2    0    0  0.97768566893E+00  0.31794397354E+01  0.40160268316E+01  0.55091657091E+01  0.17770000000E+01 0. -1.
</event>
<event>
 6    1  0.1823098E-004  0.4965562E+03  0.7546771E-02  0.9407549E-01
        -11   -1    0    0    0    0  0.00000000000E+00  0.00000000000E+00  0.50000000000E+03  0.50000000000E+03  0.00000000000E+00 0. -1.
         11   -1    0    0    0    0 -0.00000000000E+00 -0.00000000000E+00 -0.50000000000E+03  0.50000000000E+03  0.00000000000E+00 0. -1.
        -11    1    1    2    0    0 -0.61334325688E+00  0.74673084161E+01  0.49872537119E+03  0.49878164837E+03  0.00000000000E+00 0. -1.
         11    1    1    2    0    0  0.46332179020E+01  0.21562633925E+01 -0.48592576885E+01  0.70518483555E+01  0.00000000000E+00 0. -1.
        -15    1    1    2    0    0 -0.67076311102E+01 -0.13441565033E+01 -0.31560745272E+03  0.31568658668E+03  0.17770000000E+01 0.  1.
         15    1    1    2    0    0  0.26877564651E+01 -0.82794153053E+01 -0.17825866078E+03  0.17847991659E+03  0.17770000000E+01 0. -1.
</event>
<event>
 6    1  0.1823098E-004  0.5003710E+03  0.7546771E-02  0.9398980E-01
        -11   -1    0    0    0    0  0.00000000000E+00  0.00000000000E+00  0.50000000000E+03  0.50000000000E+03  0.00000000000E+00 0. -1.
         11   -1    0    0    0    0 -0.00000000000E+00 -0.00000000000E+00 -0.50000000000E+03  0.50000000000E+03  0.00000000000E+00 0.  1.
        -11    1    1    2    0    0 -0.22111515219E+01  0.11452895327E+01  0.13763265009E+03  0.13765517516E+03  0.00000000000E+00 0. -1.
         11    1    1    2    0    0 -0.12418003823E+02  0.73711429831E+01 -0.49942024815E+03  0.49962898718E+03  0.00000000000E+00 0.  1.
        -15    1    1    2    0    0  0.68553423788E+01 -0.87118305250E+01  0.31860082701E+03  0.31879858282E+03  0.17770000000E+01 0. -1.
         15    1    1    2    0    0  0.77738129657E+01  0.19539800918E+00  0.43186771060E+02  0.43917254833E+02  0.17770000000E+01 0.  1.
</event>
<event>
 6    1  0.1823098E-004  0.5033885E+03  0.7546771E-02  0.9392259E-01
        -11   -1    0    0    0    0  0.00000000000E+00  0.00000000000E+00  0.50000000000E+03  0.50000000000E+03  0.00000000000E+00 0. -1.
         11   -1    0    0    0    0 -0.00000000000E+00 -0.00000000000E+00 -0.50000000000E+03  0.50000000000E+03  0.00000000000E+00 0.  1.
        -11    1    1    2    0    0  0.66625076734E+01  0.10866813992E+02  0.42993684017E+03  0.43012575276E+03  0.00000000000E+00 0. -1.
         11    1    1    2    0    0  0.53375755547E+01 -0.21132831289E+02 -0.49613294238E+03  0.49661150086E+03  0.00000000000E+00 0.  1.
        -15    1    1    2    0    0 -0.15255307038E+02 -0.31481467541E+01  0.47046288027E+02  0.49589778855E+02  0.17770000000E+01 0. -1.
         15    1    1    2    0    0  0.32552238098E+01  0.13414164051E+02  0.19149814184E+02  0.23672967527E+02  0.17770000000E+01 0.  1.
</event>
<event>
 6    1  0.1823098E-004  0.5003363E+03  0.7546771E-02  0.9399057E-01
        -11   -1    0    0    0    0  0.00000000000E+00  0.00000000000E+00  0.50000000000E+03  0.50000000000E+03  0.00000000000E+00 0. -1.
         11   -1    0    0    0    0 -0.00000000000E+00 -0.00000000000E+00 -0.50000000000E+03  0.50000000000E+03  0.00000000000E+00 0. -1.
        -11    1    1    2    0    0 -0.28750746948E+02 -0.60841154420E+01  0.49879873018E+03  0.49966368203E+03  0.00000000000E+00 0. -1.
         11    1    1    2    0    0 -0.67957846061E+00 -0.21322321773E+01 -0.71915466933E+01  0.75317053039E+01  0.00000000000E+00 0. -1.
        -15    1    1    2    0    0  0.19445082629E+00 -0.24533327012E+01 -0.33058324217E+02  0.33197397210E+02  0.17770000000E+01 0.  1.
         15    1    1    2    0    0  0.29235874582E+02  0.10669680320E+02 -0.45854885927E+03  0.45960721546E+03  0.17770000000E+01 0. -1.
</event>
<event>
 6    1  0.1823098E-004  0.5003375E+03  0.7546771E-02  0.9399055E-01
        -11   -1    0    0    0    0  0.00000000000E+00  0.00000000000E+00  0.50000000000E+03  0.50000000000E+03  0.00000000000E+00 0. -1.
         11   -1    0    0    0    0 -0.00000000000E+00 -0.00000000000E+00 -0.50000000000E+03  0.50000000000E+03  0.00000000000E+00 0.  1.
        -11    1    1    2    0    0  0.14546188616E+01 -0.42304622498E+01  0.15906070477E+03  0.15912360142E+03  0.00000000000E+00 0. -1.
         11    1    1    2    0    0  0.11238675999E+02 -0.90078177329E+01 -0.49945484188E+03  0.49966247377E+03  0.00000000000E+00 0.  1.
        -15    1    1    2    0    0  0.13882789058E+01 -0.86123686445E+00  0.86173965769E+02  0.86207767357E+02  0.17770000000E+01 0. -1.
         15    1    1    2    0    0 -0.14081573767E+02  0.14099516847E+02  0.25422017133E+03  0.25500615745E+03  0.17770000000E+01 0.  1.
</event>
<event>
 6    1  0.1823098E-004  0.5033172E+03  0.7546771E-02  0.9392418E-01
        -11   -1    0    0    0    0  0.00000000000E+00  0.00000000000E+00  0.50000000000E+03  0.50000000000E+03  0.00000000000E+00 0.  1.
         11   -1    0    0    0    0 -0.00000000000E+00 -0.00000000000E+00 -0.50000000000E+03  0.50000000000E+03  0.00000000000E+00 0. -1.
        -11    1    1    2    0    0 -0.11370948644E+02  0.95272013308E+01  0.43320280576E+03  0.43345673020E+03  0.00000000000E+00 0.  1.
         11    1    1    2    0    0  0.29852544910E+02 -0.31490735516E+02 -0.49478370372E+03  0.49668275019E+03  0.00000000000E+00 0. -1.
        -15    1    1    2    0    0 -0.14949286561E+01 -0.23297057391E+01  0.64534036075E+01  0.72433754313E+01  0.17770000000E+01 0. -1.
         15    1    1    2    0    0 -0.16986667609E+02  0.24293239924E+02  0.55127494353E+02  0.62617144179E+02  0.17770000000E+01 0.  1.
</event>
<event>
 6    1  0.1823098E-004  0.5023943E+03  0.7546771E-02  0.9394468E-01
        -11   -1    0    0    0    0  0.00000000000E+00  0.00000000000E+00  0.50000000000E+03  0.50000000000E+03  0.00000000000E+00 0.  1.
         11   -1    0    0    0    0 -0.00000000000E+00 -0.00000000000E+00 -0.50000000000E+03  0.50000000000E+03  0.00000000000E+00 0.  1.
        -11    1    1    2    0    0  0.70995812772E+01 -0.68447390028E+01  0.47422961002E+03  0.47433213841E+03  0.00000000000E+00 0.  1.
         11    1    1    2    0    0  0.56216006071E+01  0.13561874322E+02 -0.49738909913E+03  0.49760571013E+03  0.00000000000E+00 0.  1.
        -15    1    1    2    0    0 -0.11537195852E+02 -0.49020688843E+01  0.21011496598E+02  0.24531161525E+02  0.17770000000E+01 0. -1.
         15    1    1    2    0    0 -0.11839860319E+01 -0.18150664346E+01  0.21479925035E+01  0.35309899293E+01  0.17770000000E+01 0.  1.
</event>
<event>
 6    1  0.1823098E-004  0.5015589E+03  0.7546771E-02  0.9396328E-01
        -11   -1    0    0    0    0  0.00000000000E+00  0.00000000000E+00  0.50000000000E+03  0.50000000000E+03  0.00000000000E+00 0. -1.
         11   -1    0    0    0    0 -0.00000000000E+00 -0.00000000000E+00 -0.50000000000E+03  0.50000000000E+03  0.00000000000E+00 0.  1.
        -11    1    1    2    0    0 -0.15487289488E+02  0.22258501148E+02  0.49770296968E+03  0.49844111291E+03  0.00000000000E+00 0. -1.
         11    1    1    2    0    0 -0.12289298216E+02 -0.11271809566E+02 -0.25320980021E+03  0.25375831703E+03  0.00000000000E+00 0.  1.
        -15    1    1    2    0    0  0.90703277535E+01 -0.17260175526E+02 -0.14845544469E+03  0.14974098067E+03  0.17770000000E+01 0.  1.
         15    1    1    2    0    0  0.18706259950E+02  0.62734839436E+01 -0.96037724779E+02  0.98059589393E+02  0.17770000000E+01 0. -1.
</event>
<event>
 6    1  0.1823098E-004  0.5000915E+03  0.7546771E-02  0.9399605E-01
        -11   -1    0    0    0    0  0.00000000000E+00  0.00000000000E+00  0.50000000000E+03  0.50000000000E+03  0.00000000000E+00 0.  1.
         11   -1    0    0    0    0 -0.00000000000E+00 -0.00000000000E+00 -0.50000000000E+03  0.50000000000E+03  0.00000000000E+00 0. -1.
        -11    1    1    2    0    0 -0.71026573353E+01 -0.21435713176E+01  0.49985346771E+03  0.49990852345E+03  0.00000000000E+00 0.  1.
         11    1    1    2    0    0  0.32396080262E+00  0.41002189982E+01 -0.24342628023E+03  0.24346102491E+03  0.00000000000E+00 0. -1.
        -15    1    1    2    0    0  0.22659297190E+01 -0.26153843067E+01 -0.52250602089E+02  0.52395207989E+02  0.17770000000E+01 0.  1.
         15    1    1    2    0    0  0.45127668137E+01  0.65873662604E+00 -0.20417658539E+03  0.20423524365E+03  0.17770000000E+01 0. -1.
</event>
<event>
 6    1  0.1823098E-004  0.5030569E+03  0.7546771E-02  0.9392996E-01
        -11   -1    0    0    0    0  0.00000000000E+00  0.00000000000E+00  0.50000000000E+03  0.50000000000E+03  0.00000000000E+00 0.  1.
         11   -1    0    0    0    0 -0.00000000000E+00 -0.00000000000E+00 -0.50000000000E+03  0.50000000000E+03  0.00000000000E+00 0.  1.
        -11    1    1    2    0    0  0.14079426605E+02 -0.30012034693E+01  0.49673457810E+03  0.49694313413E+03  0.00000000000E+00 0.  1.
         11    1    1    2    0    0 -0.20340656240E+02 -0.73407143950E+01 -0.48531434193E+03  0.48579588190E+03  0.00000000000E+00 0.  1.
        -15    1    1    2    0    0  0.33180889958E+01  0.76226792638E+01 -0.82938982786E+01  0.11876928534E+02  0.17770000000E+01 0.  1.
         15    1    1    2    0    0  0.29431406394E+01  0.27192386005E+01 -0.31263378870E+01  0.53840554393E+01  0.17770000000E+01 0. -1.
</event>
<event>
 6    1  0.1823098E-004  0.4926178E+03  0.7546771E-02  0.9416481E-01
        -11   -1    0    0    0    0  0.00000000000E+00  0.00000000000E+00  0.50000000000E+03  0.50000000000E+03  0.00000000000E+00 0. -1.
         11   -1    0    0    0    0 -0.00000000000E+00 -0.00000000000E+00 -0.50000000000E+03  0.50000000000E+03  0.00000000000E+00 0. -1.
        -11    1    1    2    0    0  0.90330731348E+01  0.49099850347E+00  0.49267026391E+03  0.49275331194E+03  0.00000000000E+00 0. -1.
         11    1    1    2    0    0 -0.15044826355E+02 -0.62468816080E+01 -0.49224801356E+03  0.49251748921E+03  0.00000000000E+00 0. -1.
        -15    1    1    2    0    0  0.85054607909E+00  0.73541558625E+00 -0.54015441124E+01  0.57964361910E+01  0.17770000000E+01 0.  1.
         15    1    1    2    0    0  0.51612071412E+01  0.50204675183E+01  0.49792937579E+01  0.89327626512E+01  0.17770000000E+01 0. -1.
</event>
<event>
 6    1  0.1823098E-004  0.5200960E+03  0.7546771E-02  0.9355933E-01
        -11   -1    0    0    0    0  0.00000000000E+00  0.00000000000E+00  0.50000000000E+03  0.50000000000E+03  0.00000000000E+00 0. -1.
         11   -1    0    0    0    0 -0.00000000000E+00 -0.00000000000E+00 -0.50000000000E+03  0.50000000000E+03  0.00000000000E+00 0.  1.
        -11    1    1    2    0    0 -0.68006857300E+01 -0.29824924776E+01  0.42419706836E+03  0.42426206216E+03  0.00000000000E+00 0. -1.
         11    1    1    2    0    0  0.42700831638E+02  0.38207713272E+02 -0.47647105177E+03  0.47990400451E+03  0.00000000000E+00 0.  1.
        -15    1    1    2    0    0  0.10751317348E+01 -0.46221152367E+01  0.47273545986E+02  0.47544355465E+02  0.17770000000E+01 0. -1.
         15    1    1    2    0    0 -0.36975277643E+02 -0.30603105558E+02  0.50004374261E+01  0.48289577861E+02  0.17770000000E+01 0.  1.
</event>
<event>
 6    1  0.1823098E-004  0.5039560E+03  0.7546771E-02  0.9391001E-01
        -11   -1    0    0    0    0  0.00000000000E+00  0.00000000000E+00  0.50000000000E+03  0.50000000000E+03  0.00000000000E+00 0.  1.
         11   -1    0    0    0    0 -0.00000000000E+00 -0.00000000000E+00 -0.50000000000E+03  0.50000000000E+03  0.00000000000E+00 0.  1.
        -11    1    1    2    0    0 -0.16713516307E+01 -0.77021009448E+01  0.46281377503E+03  0.46288087683E+03  0.00000000000E+00 0.  1.
         11    1    1    2    0    0 -0.13471507465E+02 -0.10463453529E+02 -0.49575059385E+03  0.49604396648E+03  0.00000000000E+00 0.  1.
        -15    1    1    2    0    0  0.13376268104E+02  0.15392240862E+02  0.25067276549E+02  0.32363122682E+02  0.17770000000E+01 0.  1.
         15    1    1    2    0    0  0.17665909913E+01  0.27733136119E+01  0.78695422724E+01  0.87120340161E+01  0.17770000000E+01 0. -1.
</event>
<event>
 6    1  0.1823098E-004  0.5000678E+03  0.7546771E-02  0.9399658E-01
        -11   -1    0    0    0    0  0.00000000000E+00  0.00000000000E+00  0.50000000000E+03  0.50000000000E+03  0.00000000000E+00 0. -1.
         11   -1    0    0    0    0 -0.00000000000E+00 -0.00000000000E+00 -0.50000000000E+03  0.50000000000E+03  0.00000000000E+00 0.  1.
        -11    1    1    2    0    0  0.18995370047E+01 -0.39599446739E+01  0.91418867954E+02  0.91524307266E+02  0.00000000000E+00 0. -1.
         11    1    1    2    0    0  0.21662016791E+01  0.97371650606E+01 -0.49983263287E+03  0.49993216110E+03  0.00000000000E+00 0.  1.
        -15    1    1    2    0    0 -0.50801880790E+01 -0.60684618365E+01  0.34770139300E+03  0.34779599043E+03  0.17770000000E+01 0. -1.
         15    1    1    2    0    0  0.10144493952E+01  0.29124144977E+00  0.60712371920E+02  0.60747541204E+02  0.17770000000E+01 0. -1.
</event>
<event>
 6    1  0.1823098E-004  0.5003948E+03  0.7546771E-02  0.9398927E-01
        -11   -1    0    0    0    0  0.00000000000E+00  0.00000000000E+00  0.50000000000E+03  0.50000000000E+03  0.00000000000E+00 0.  1.
         11   -1    0    0    0    0 -0.00000000000E+00 -0.00000000000E+00 -0.50000000000E+03  0.50000000000E+03  0.00000000000E+00 0. -1.
        -11    1    1    2    0    0 -0.65403807386E+01 -0.33470232300E+01  0.49955117794E+03  0.49960520266E+03  0.00000000000E+00 0.  1.
         11    1    1    2    0    0  0.21119338776E+01  0.93945925045E+01 -0.33631790863E+03  0.33645572412E+03  0.00000000000E+00 0. -1.
        -15    1    1    2    0    0  0.15016633051E+01 -0.95094755249E+01 -0.12754553862E+03  0.12792070695E+03  0.17770000000E+01 0. -1.
         15    1    1    2    0    0  0.29267835559E+01  0.34619062505E+01 -0.35687730698E+02  0.36018366263E+02  0.17770000000E+01 0.  1.
</event>
<event>
 6    1  0.1823098E-004  0.5062877E+03  0.7546771E-02  0.9385849E-01
        -11   -1    0    0    0    0  0.00000000000E+00  0.00000000000E+00  0.50000000000E+03  0.50000000000E+03  0.00000000000E+00 0. -1.
         11   -1    0    0    0    0 -0.00000000000E+00 -0.00000000000E+00 -0.50000000000E+03  0.50000000000E+03  0.00000000000E+00 0. -1.
        -11    1    1    2    0    0  0.47266227435E+01 -0.71125267846E+01  0.49363841917E+03  0.49371228249E+03  0.00000000000E+00 0. -1.
         11    1    1    2    0    0 -0.42117746709E+02 -0.16290906418E+01 -0.38863590289E+03  0.39091485459E+03  0.00000000000E+00 0. -1.
        -15    1    1    2    0    0  0.16291966525E+02  0.79893838966E+01 -0.17251937864E+02  0.25100707507E+02  0.17770000000E+01 0.  1.
         15    1    1    2    0    0  0.21099157440E+02  0.75223352985E+00 -0.87750578426E+02  0.90272155414E+02  0.17770000000E+01 0. -1.
</event>
<event>
 6    1  0.1823098E-004  0.5000995E+03  0.7546771E-02  0.9399587E-01
        -11   -1    0    0    0    0  0.00000000000E+00  0.00000000000E+00  0.50000000000E+03  0.50000000000E+03  0.00000000000E+00 0.  1.
         11   -1    0    0    0    0 -0.00000000000E+00 -0.00000000000E+00 -0.50000000000E+03  0.50000000000E+03  0.00000000000E+00 0. -1.
        -11    1    1    2    0    0  0.58394186164E+01  0.81317903540E+01  0.49980020444E+03  0.49990045928E+03  0.00000000000E+00 0.  1.
         11    1    1    2    0    0 -0.53106175672E+01  0.23489292741E+01 -0.19847122272E+03  0.19855615421E+03  0.00000000000E+00 0. -1.
        -15    1    1    2    0    0 -0.13335697036E+01 -0.73656280156E+01 -0.20287767331E+03  0.20302349357E+03  0.17770000000E+01 0. -1.
         15    1    1    2    0    0  0.80476865440E+00 -0.31150916125E+01 -0.98451308411E+02  0.98519892942E+02  0.17770000000E+01 0. -1.
</event>
<event>
 6    1  0.1823098E-004  0.5053581E+03  0.7546771E-02  0.9387900E-01
        -11   -1    0    0    0    0  0.00000000000E+00  0.00000000000E+00  0.50000000000E+03  0.50000000000E+03  0.00000000000E+00 0. -1.
         11   -1    0    0    0    0 -0.00000000000E+00 -0.00000000000E+00 -0.50000000000E+03  0.50000000000E+03  0.00000000000E+00 0.  1.
        -11    1    1    2    0    0  0.19675638404E+02 -0.21133359148E+02  0.49379841766E+03  0.49464191786E+03  0.00000000000E+00 0. -1.
         11    1    1    2    0    0  0.12112037251E+02  0.13054728661E+02 -0.42407325268E+03  0.42444699437E+03  0.00000000000E+00 0.  1.
        -15    1    1    2    0    0 -0.66268077047E+00 -0.51495718893E+01 -0.34430666887E+01  0.64784005487E+01  0.17770000000E+01 0. -1.
         15    1    1    2    0    0 -0.31124994885E+02  0.13228202377E+02 -0.66282098293E+02  0.74432687227E+02  0.17770000000E+01 0.  1.
</event>
<event>
 6    1  0.1823098E-004  0.5007222E+03  0.7546771E-02  0.9398195E-01
        -11   -1    0    0    0    0  0.00000000000E+00  0.00000000000E+00  0.50000000000E+03  0.50000000000E+03  0.00000000000E+00 0.  1.
         11   -1    0    0    0    0 -0.00000000000E+00 -0.00000000000E+00 -0.50000000000E+03  0.50000000000E+03  0.00000000000E+00 0. -1.
        -11    1    1    2    0    0  0.85679998821E+01 -0.80769448693E+01  0.49913889574E+03  0.49927776328E+03  0.00000000000E+00 0.  1.
         11    1    1    2    0    0  0.80114796458E+00 -0.13102816886E+02 -0.10524124526E+03  0.10605680248E+03  0.00000000000E+00 0. -1.
        -15    1    1    2    0    0 -0.38504975165E+01  0.15481277437E+02 -0.22469652841E+03  0.22526913657E+03  0.17770000000E+01 0. -1.
         15    1    1    2    0    0 -0.55186503302E+01  0.56984843187E+01 -0.16920112207E+03  0.16939629767E+03  0.17770000000E+01 0.  1.
</event>
<event>
 6    1  0.1823098E-004  0.5026019E+03  0.7546771E-02  0.9394006E-01
        -11   -1    0    0    0    0  0.00000000000E+00  0.00000000000E+00  0.50000000000E+03  0.50000000000E+03  0.00000000000E+00 0.  1.
         11   -1    0    0    0    0 -0.00000000000E+00 -0.00000000000E+00 -0.50000000000E+03  0.50000000000E+03  0.00000000000E+00 0.  1.
        -11    1    1    2    0    0  0.35144449211E+00  0.76325038822E+01  0.48485750054E+03  0.48491769864E+03  0.00000000000E+00 0.  1.
         11    1    1    2    0    0 -0.48858433904E+01 -0.81682584053E+01 -0.49730699975E+03  0.49739807389E+03  0.00000000000E+00 0.  1.
        -15    1    1    2    0    0 -0.53076315427E+00  0.75037223787E-01  0.12147201301E+02  0.12288188172E+02  0.17770000000E+01 0. -1.
         15    1    1    2    0    0  0.50651620526E+01  0.46071729937E+00  0.30229790924E+00  0.53960392952E+01  0.17770000000E+01 0.  1.
</event>
<event>
 6    1  0.1823098E-004  0.5038231E+03  0.7546771E-02  0.9391296E-01
        -11   -1    0    0    0    0  0.00000000000E+00  0.00000000000E+00  0.50000000000E+03  0.50000000000E+03  0.00000000000E+00 0. -1.
         11   -1    0    0    0    0 -0.00000000000E+00 -0.00000000000E+00 -0.50000000000E+03  0.50000000000E+03  0.00000000000E+00 0. -1.
        -11    1    1    2    0    0 -0.86870150468E+01  0.12107253825E+02  0.47151837592E+03  0.47175377970E+03  0.00000000000E+00 0. -1.
         11    1    1    2    0    0 -0.90413338415E+01 -0.89298359629E+01 -0.49601411889E+03  0.49617687756E+03  0.00000000000E+00 0. -1.
        -15    1    1    2    0    0  0.46544026155E+01 -0.47470976320E+01  0.11979704563E+02  0.13815551023E+02  0.17770000000E+01 0. -1.
         15    1    1    2    0    0  0.13073946273E+02  0.15696797699E+01  0.12516038406E+02  0.18253791719E+02  0.17770000000E+01 0.  1.
</event>
<event>
 6    1  0.1823098E-004  0.5033998E+03  0.7546771E-02  0.9392234E-01
        -11   -1    0    0    0    0  0.00000000000E+00  0.00000000000E+00  0.50000000000E+03  0.50000000000E+03  0.00000000000E+00 0. -1.
         11   -1    0    0    0    0 -0.00000000000E+00 -0.00000000000E+00 -0.50000000000E+03  0.50000000000E+03  0.00000000000E+00 0. -1.
        -11    1    1    2    0    0 -0.11961949904E+00  0.10374897701E+02  0.45965725347E+03  0.45977433973E+03  0.00000000000E+00 0. -1.
         11    1    1    2    0    0 -0.25894287525E+01 -0.25609054452E+02 -0.49593268601E+03  0.49660019922E+03  0.00000000000E+00 0. -1.
        -15    1    1    2    0    0 -0.93745835000E+00  0.17694750940E+02  0.20514307525E+02  0.27165742788E+02  0.17770000000E+01 0. -1.
         15    1    1    2    0    0  0.36465066015E+01 -0.24605941888E+01  0.15761125022E+02  0.16459718257E+02  0.17770000000E+01 0.  1.
</event>
<event>
 6    1  0.1823098E-004  0.4852196E+03  0.7546771E-02  0.9433503E-01
        -11   -1    0    0    0    0  0.00000000000E+00  0.00000000000E+00  0.50000000000E+03  0.50000000000E+03  0.00000000000E+00 0.  1.
         11   -1    0    0    0    0 -0.00000000000E+00 -0.00000000000E+00 -0.50000000000E+03  0.50000000000E+03  0.00000000000E+00 0. -1.
        -11    1    1    2    0    0  0.10615559828E+02  0.64106203639E+00  0.47961240023E+03  0.47973029456E+03  0.00000000000E+00 0.  1.
         11    1    1    2    0    0  0.45853208700E+01 -0.21267790054E+02 -0.49062749234E+03  0.49110964184E+03  0.00000000000E+00 0. -1.
        -15    1    1    2    0    0 -0.53620830429E+01  0.53225839979E+01  0.69825124841E+01  0.10440069184E+02  0.17770000000E+01 0.  1.
         15    1    1    2    0    0 -0.98387976547E+01  0.15304144019E+02  0.40325796338E+01  0.18719994417E+02  0.17770000000E+01 0. -1.
</event>
<event>
 6    1  0.1823098E-004  0.5004360E+03  0.7546771E-02  0.9398835E-01
        -11   -1    0    0    0    0  0.00000000000E+00  0.00000000000E+00  0.50000000000E+03  0.50000000000E+03  0.00000000000E+00 0. -1.
         11   -1    0    0    0    0 -0.00000000000E+00 -0.00000000000E+00 -0.50000000000E+03  0.50000000000E+03  0.00000000000E+00 0.  1.
        -11    1    1    2    0    0 -0.51780621123E+01  0.14197904787E+01  0.32600742387E+03  0.32605163479E+03  0.00000000000E+00 0. -1.
         11    1    1    2    0    0  0.21956206703E+02  0.41690368558E+01 -0.49906385943E+03  0.49956400158E+03  0.00000000000E+00 0.  1.
        -15    1    1    2    0    0  0.40221632698E+00 -0.36694037891E+01  0.34439369939E+02  0.34682188987E+02  0.17770000000E+01 0.  1.
         15    1    1    2    0    0 -0.17180360918E+02 -0.19194235454E+01  0.13861706563E+03  0.13970217464E+03  0.17770000000E+01 0. -1.
</event>
<event>
 6    1  0.1823098E-004  0.4974293E+03  0.7546771E-02  0.9405580E-01
        -11   -1    0    0    0    0  0.00000000000E+00  0.00000000000E+00  0.50000000000E+03  0.50000000000E+03  0.00000000000E+00 0. -1.
         11   -1    0    0    0    0 -0.00000000000E+00 -0.00000000000E+00 -0.50000000000E+03  0.50000000000E+03  0.00000000000E+00 0. -1.
        -11    1    1    2    0    0 -0.16705748308E+02 -0.10280489441E+02  0.49722867311E+03  0.49761543771E+03  0.00000000000E+00 0. -1.
         11    1    1    2    0    0  0.13880643572E+01 -0.51880167106E+01 -0.12029865816E+01  0.55035821757E+01  0.00000000000E+00 0. -1.
        -15    1    1    2    0    0  0.11775281060E+02  0.23801105517E+01 -0.12142871975E+03  0.12203447824E+03  0.17770000000E+01 0.  1.
         15    1    1    2    0    0  0.35424028910E+01  0.13088395600E+02 -0.37459696678E+03  0.37484650187E+03  0.17770000000E+01 0. -1.
</event>
<event>
 6    1  0.1823098E-004  0.5001011E+03  0.7546771E-02  0.9399583E-01
        -11   -1    0    0    0    0  0.00000000000E+00  0.00000000000E+00  0.50000000000E+03  0.50000000000E+03  0.00000000000E+00 0. -1.
         11   -1    0    0    0    0 -0.00000000000E+00 -0.00000000000E+00 -0.50000000000E+03  0.50000000000E+03  0.00000000000E+00 0.  1.
        -11    1    1    2    0    0  0.14760147086E+02 -0.26032818139E+01  0.39829203970E+03  0.39857394283E+03  0.00000000000E+00 0. -1.
         11    1    1    2    0    0 -0.17785640507E+02  0.21501249924E+01 -0.49957775162E+03  0.49989887173E+03  0.00000000000E+00 0.  1.
        -15    1    1    2    0    0  0.19714969346E+01  0.21661254446E+01  0.30716408083E+02  0.30906865809E+02  0.17770000000E+01 0.  1.
         15    1    1    2    0    0  0.10539964872E+01 -0.17129686231E+01  0.70569303841E+02  0.70620319623E+02  0.17770000000E+01 0.  1.
</event>
<event>
 6    1  0.1823098E-004  0.5002872E+03  0.7546771E-02  0.9399167E-01
        -11   -1    0    0    0    0  0.00000000000E+00  0.00000000000E+00  0.50000000000E+03  0.50000000000E+03  0.00000000000E+00 0. -1.
         11   -1    0    0    0    0 -0.00000000000E+00 -0.00000000000E+00 -0.50000000000E+03  0.50000000000E+03  0.00000000000E+00 0.  1.
        -11    1    1    2    0    0 -0.14298825538E+01  0.69357395238E+00  0.11351446923E+03  0.11352559330E+03  0.00000000000E+00 0. -1.
         11    1    1    2    0    0  0.18817794484E+02 -0.35503904427E+02 -0.49809464080E+03  0.49971282534E+03  0.00000000000E+00 0.  1.
        -15    1    1    2    0    0 -0.17935815339E+02  0.33707932922E+02  0.34259034656E+03  0.34471614627E+03  0.17770000000E+01 0. -1.
         15    1    1    2    0    0  0.54790340893E+00  0.11023975529E+01  0.41989825008E+02  0.42045435088E+02  0.17770000000E+01 0.  1.
</event>
<event>
 6    1  0.1823098E-004  0.5013845E+03  0.7546771E-02  0.9396717E-01
        -11   -1    0    0    0    0  0.00000000000E+00  0.00000000000E+00  0.50000000000E+03  0.50000000000E+03  0.00000000000E+00 0.  1.
         11   -1    0    0    0    0 -0.00000000000E+00 -0.00000000000E+00 -0.50000000000E+03  0.50000000000E+03  0.00000000000E+00 0.  1.
        -11    1    1    2    0    0 -0.18589387197E+02 -0.13273335805E+02  0.49809200165E+03  0.49861547195E+03  0.00000000000E+00 0.  1.
         11    1    1    2    0    0  0.14775432434E+02 -0.75453599974E+00 -0.43336584952E+03  0.43361831403E+03  0.00000000000E+00 0.  1.
        -15    1    1    2    0    0  0.16057315424E+00 -0.13845859194E+01 -0.19049912028E+01  0.29545866697E+01  0.17770000000E+01 0.  1.
         15    1    1    2    0    0  0.36533816090E+01  0.15412457725E+02 -0.62821160930E+02  0.64811627351E+02  0.17770000000E+01 0.  1.
</event>
<event>
 6    1  0.1823098E-004  0.5023959E+03  0.7546771E-02  0.9394465E-01
        -11   -1    0    0    0    0  0.00000000000E+00  0.00000000000E+00  0.50000000000E+03  0.50000000000E+03  0.00000000000E+00 0. -1.
         11   -1    0    0    0    0 -0.00000000000E+00 -0.00000000000E+00 -0.50000000000E+03  0.50000000000E+03  0.00000000000E+00 0. -1.
        -11    1    1    2    0    0 -0.16450131532E+02 -0.24042835934E+02  0.49675057066E+03  0.49760405368E+03  0.00000000000E+00 0. -1.
         11    1    1    2    0    0  0.32588535879E+02  0.19096440592E+02 -0.13475848976E+03  0.13995191058E+03  0.00000000000E+00 0. -1.
        -15    1    1    2    0    0 -0.54053952849E+01  0.41697132378E+01 -0.12127663421E+03  0.12148162223E+03  0.17770000000E+01 0. -1.
         15    1    1    2    0    0 -0.10733009062E+02  0.77668210389E+00 -0.24071544669E+03  0.24096241351E+03  0.17770000000E+01 0. -1.
</event>
<event>
 6    1  0.1823098E-004  0.5012445E+03  0.7546771E-02  0.9397029E-01
        -11   -1    0    0    0    0  0.00000000000E+00  0.00000000000E+00  0.50000000000E+03  0.50000000000E+03  0.00000000000E+00 0. -1.
         11   -1    0    0    0    0 -0.00000000000E+00 -0.00000000000E+00 -0.50000000000E+03  0.50000000000E+03  0.00000000000E+00 0. -1.
        -11    1    1    2    0    0 -0.51047250900E+01  0.10138862155E+02  0.49862628212E+03  0.49875547513E+03  0.00000000000E+00 0. -1.
         11    1    1    2    0    0 -0.46011110620E+01 -0.60173892520E+01 -0.44397422151E+03  0.44403883677E+03  0.00000000000E+00 0. -1.
        -15    1    1    2    0    0  0.13057581887E+01  0.31783103659E+01 -0.51730710857E+01  0.64594933770E+01  0.17770000000E+01 0. -1.
         15    1    1    2    0    0  0.84000779633E+01 -0.72997832692E+01 -0.49478989524E+02  0.50746194723E+02  0.17770000000E+01 0.  1.
</event>
<event>
 6    1  0.1823098E-004  0.5005350E+03  0.7546771E-02  0.9398614E-01
        -11   -1    0    0    0    0  0.00000000000E+00  0.00000000000E+00  0.50000000000E+03  0.50000000000E+03  0.00000000000E+00 0.  1.
         11   -1    0    0    0    0 -0.00000000000E+00 -0.00000000000E+00 -0.50000000000E+03  0.50000000000E+03  0.00000000000E+00 0.  1.
        -11    1    1    2    0    0  0.94087304734E+01 -0.10550993431E+01  0.49937530271E+03  0.49946504422E+03  0.00000000000E+00 0.  1.
         11    1    1    2    0    0 -0.38056064513E+01  0.55624535746E+01 -0.19378270447E+03  0.19389987128E+03  0.00000000000E+00 0.  1.
        -15    1    1    2    0    0 -0.55913426465E+01 -0.25056586268E+01 -0.30240677776E+03  0.30247406236E+03  0.17770000000E+01 0.  1.
         15    1    1    2    0    0 -0.11781375628E-01 -0.20016956047E+01 -0.31858204812E+01  0.41610221380E+01  0.17770000000E+01 0.  1.
</event>
<event>
 6    1  0.1823098E-004  0.5010327E+03  0.7546771E-02  0.9397502E-01
        -11   -1    0    0    0    0  0.00000000000E+00  0.00000000000E+00  0.50000000000E+03  0.50000000000E+03  0.00000000000E+00 0.  1.
         11   -1    0    0    0    0 -0.00000000000E+00 -0.00000000000E+00 -0.50000000000E+03  0.50000000000E+03  0.00000000000E+00 0. -1.
        -11    1    1    2    0    0  0.46398017865E+01 -0.74237857825E+01  0.49889046199E+03  0.49896726688E+03  0.00000000000E+00 0.  1.
         11    1    1    2    0    0 -0.56784001704E+01 -0.62365252568E+01 -0.44565582722E+03  0.44573563332E+03  0.00000000000E+00 0. -1.
        -15    1    1    2    0    0  0.52708111725E-01  0.91422461105E+01 -0.41974419696E+02  0.42995268111E+02  0.17770000000E+01 0.  1.
         15    1    1    2    0    0  0.98589027220E+00  0.45180649288E+01 -0.11260215077E+02  0.12301831689E+02  0.17770000000E+01 0. -1.
</event>
<event>
 6    1  0.1823098E-004  0.5000614E+03  0.7546771E-02  0.9399672E-01
        -11   -1    0    0    0    0  0.00000000000E+00  0.00000000000E+00  0.50000000000E+03  0.50000000000E+03  0.00000000000E+00 0. -1.
         11   -1    0    0    0    0 -0.00000000000E+00 -0.00000000000E+00 -0.50000000000E+03  0.50000000000E+03  0.00000000000E+00 0.  1.
        -11    1    1    2    0    0  0.68286597197E+00  0.19321153472E+01  0.12517918930E+03  0.12519596163E+03  0.00000000000E+00 0. -1.
         11    1    1    2    0    0 -0.89761368978E+01 -0.10679963868E+02 -0.49974386532E+03  0.49993855982E+03  0.00000000000E+00 0.  1.
        -15    1    1    2    0    0  0.50238005835E+01  0.11607296912E+01  0.22197139137E+03  0.22203837997E+03  0.17770000000E+01 0. -1.
         15    1    1    2    0    0  0.32694703423E+01  0.75871188298E+01  0.15259328466E+03  0.15282709858E+03  0.17770000000E+01 0.  1.
</event>
<event>
 6    1  0.1823098E-004  0.5000610E+03  0.7546771E-02  0.9399673E-01
        -11   -1    0    0    0    0  0.00000000000E+00  0.00000000000E+00  0.50000000000E+03  0.50000000000E+03  0.00000000000E+00 0. -1.
         11   -1    0    0    0    0 -0.00000000000E+00 -0.00000000000E+00 -0.50000000000E+03  0.50000000000E+03  0.00000000000E+00 0.  1.
        -11    1    1    2    0    0  0.40092515055E+01  0.88884230049E+01  0.49984389799E+03  0.49993899680E+03  0.00000000000E+00 0. -1.
         11    1    1    2    0    0 -0.15499682176E+01 -0.13714868470E+01 -0.35263788161E+02  0.35324469325E+02  0.00000000000E+00 0.  1.
        -15    1    1    2    0    0 -0.14870811949E+01 -0.91276097029E+01 -0.34556289957E+03  0.34569119161E+03  0.17770000000E+01 0.  1.
         15    1    1    2    0    0 -0.97220209304E+00  0.16106735450E+01 -0.11901721026E+03  0.11904534226E+03  0.17770000000E+01 0. -1.
</event>
<event>
 6    1  0.1823098E-004  0.5011762E+03  0.7546771E-02  0.9397182E-01
        -11   -1    0    0    0    0  0.00000000000E+00  0.00000000000E+00  0.50000000000E+03  0.50000000000E+03  0.00000000000E+00 0.  1.
         11   -1    0    0    0    0 -0.00000000000E+00 -0.00000000000E+00 -0.50000000000E+03  0.50000000000E+03  0.00000000000E+00 0.  1.
        -11    1    1    2    0    0  0.90235053488E+01 -0.89625720844E+00  0.49874132303E+03  0.49882375066E+03  0.00000000000E+00 0.  1.
         11    1    1    2    0    0 -0.14829855720E+02 -0.65626185342E+01 -0.39752933306E+03  0.39785997942E+03  0.00000000000E+00 0.  1.
        -15    1    1    2    0    0 -0.28279148157E+01  0.10806271220E+02 -0.53987794698E+02  0.55159879489E+02  0.17770000000E+01 0.  1.
         15    1    1    2    0    0  0.86342651874E+01 -0.33473954771E+01 -0.47224195269E+02  0.48156390434E+02  0.17770000000E+01 0.  1.
</event>
<event>
 6    1  0.1823098E-004  0.5003343E+03  0.7546771E-02  0.9399062E-01
        -11   -1    0    0    0    0  0.00000000000E+00  0.00000000000E+00  0.50000000000E+03  0.50000000000E+03  0.00000000000E+00 0.  1.
         11   -1    0    0    0    0 -0.00000000000E+00 -0.00000000000E+00 -0.50000000000E+03  0.50000000000E+03  0.00000000000E+00 0. -1.
        -11    1    1    2    0    0  0.10193909449E+00 -0.10474107127E+01  0.30553311904E+02  0.30571429949E+02  0.00000000000E+00 0.  1.
         11    1    1    2    0    0  0.33385954542E+02 -0.22639669249E+01 -0.49854391712E+03  0.49966567303E+03  0.00000000000E+00 0. -1.
        -15    1    1    2    0    0 -0.85637266789E+01 -0.54413897936E+01  0.24327168618E+03  0.24348966542E+03  0.17770000000E+01 0.  1.
         15    1    1    2    0    0 -0.24924166958E+02  0.87527674312E+01  0.22471891904E+03  0.22627323160E+03  0.17770000000E+01 0. -1.
</event>
<event>
 6    1  0.1823098E-004  0.5033664E+03  0.7546771E-02  0.9392308E-01
        -11   -1    0    0    0    0  0.00000000000E+00  0.00000000000E+00  0.50000000000E+03  0.50000000000E+03  0.00000000000E+00 0. -1.
         11   -1    0    0    0    0 -0.00000000000E+00 -0.00000000000E+00 -0.50000000000E+03  0.50000000000E+03  0.00000000000E+00 0.  1.
        -11    1    1    2    0    0  0.56042506203E+01 -0.56959702227E+01  0.46347892245E+03  0.46354780040E+03  0.00000000000E+00 0. -1.
         11    1    1    2    0    0  0.14102400781E+02 -0.73972496647E+00 -0.49643276506E+03  0.49663358236E+03  0.00000000000E+00 0.  1.
        -15    1    1    2    0    0 -0.71225296888E+01 -0.13193907121E+01  0.11368273681E+02  0.13596565615E+02  0.17770000000E+01 0. -1.
         15    1    1    2    0    0 -0.12584121713E+02  0.77550859013E+01  0.21585568928E+02  0.26222051628E+02  0.17770000000E+01 0.  1.
</event>
<event>
 6    1  0.1823098E-004  0.5002117E+03  0.7546771E-02  0.9399336E-01
        -11   -1    0    0    0    0  0.00000000000E+00  0.00000000000E+00  0.50000000000E+03  0.50000000000E+03  0.00000000000E+00 0. -1.
         11   -1    0    0    0    0 -0.00000000000E+00 -0.00000000000E+00 -0.50000000000E+03  0.50000000000E+03  0.00000000000E+00 0. -1.
        -11    1    1    2    0    0  0.44172279562E+01 -0.97989841801E+01  0.49967269279E+03  0.49978828709E+03  0.00000000000E+00 0. -1.
         11    1    1    2    0    0 -0.10858348251E+02  0.38510526991E+01 -0.28442017889E+03  0.28465342523E+03  0.00000000000E+00 0. -1.
        -15    1    1    2    0    0  0.35944167457E+01  0.45137315687E+01 -0.69984878185E+02  0.70244818371E+02  0.17770000000E+01 0.  1.
         15    1    1    2    0    0  0.28467035487E+01  0.14341999122E+01 -0.14526763571E+03  0.14531346931E+03  0.17770000000E+01 0. -1.
</event>
<event>
 6    1  0.1823098E-004  0.5005747E+03  0.7546771E-02  0.9398525E-01
        -11   -1    0    0    0    0  0.00000000000E+00  0.00000000000E+00  0.50000000000E+03  0.50000000000E+03  0.00000000000E+00 0. -1.
         11   -1    0    0    0    0 -0.00000000000E+00 -0.00000000000E+00 -0.50000000000E+03  0.50000000000E+03  0.00000000000E+00 0.  1.
        -11    1    1    2    0    0 -0.93674224757E+01  0.32780941711E+01  0.49932672517E+03  0.49942534274E+03  0.00000000000E+00 0. -1.
         11    1    1    2    0    0  0.17442141676E+02 -0.68560252364E+01 -0.42089069004E+03  0.42130773355E+03  0.00000000000E+00 0.  1.
        -15    1    1    2    0    0 -0.75000117185E+01  0.49207872601E+01 -0.63285394138E+02  0.63942655273E+02  0.17770000000E+01 0. -1.
         15    1    1    2    0    0 -0.57470748210E+00 -0.13428561948E+01 -0.15150640995E+02  0.15324268433E+02  0.17770000000E+01 0.  1.
</event>
<event>
 6    1  0.1823098E-004  0.5011372E+03  0.7546771E-02  0.9397269E-01
        -11   -1    0    0    0    0  0.00000000000E+00  0.00000000000E+00  0.50000000000E+03  0.50000000000E+03  0.00000000000E+00 0.  1.
         11   -1    0    0    0    0 -0.00000000000E+00 -0.00000000000E+00 -0.50000000000E+03  0.50000000000E+03  0.00000000000E+00 0.  1.
        -11    1    1    2    0    0  0.62606581627E+01  0.13453335106E+01  0.45613894574E+03  0.45618389229E+03  0.00000000000E+00 0.  1.
         11    1    1    2    0    0  0.52608360163E+01 -0.48587085594E+01 -0.49881139690E+03  0.49886279990E+03  0.00000000000E+00 0.  1.
        -15    1    1    2    0    0 -0.58763046970E+01  0.50557969564E+01  0.26283576194E+02  0.27460446942E+02  0.17770000000E+01 0. -1.
         15    1    1    2    0    0 -0.56451894820E+01 -0.15424219076E+01  0.16388874966E+02  0.17492860866E+02  0.17770000000E+01 0.  1.
</event>
<event>
 6    1  0.1823098E-004  0.5093679E+03  0.7546771E-02  0.9379089E-01
        -11   -1    0    0    0    0  0.00000000000E+00  0.00000000000E+00  0.50000000000E+03  0.50000000000E+03  0.00000000000E+00 0.  1.
         11   -1    0    0    0    0 -0.00000000000E+00 -0.00000000000E+00 -0.50000000000E+03  0.50000000000E+03  0.00000000000E+00 0.  1.
        -11    1    1    2    0    0 -0.24908411269E+02 -0.34336843381E+01  0.48998735036E+03  0.49063206443E+03  0.00000000000E+00 0.  1.
         11    1    1    2    0    0 -0.12768518206E+02 -0.10144120307E+02 -0.45579693737E+03  0.45608857292E+03  0.00000000000E+00 0.  1.
        -15    1    1    2    0    0  0.31403467797E+02  0.11711023373E+02 -0.31347171994E+02  0.45925252085E+02  0.17770000000E+01 0.  1.
         15    1    1    2    0    0  0.62734616788E+01  0.18667812723E+01 -0.28432409939E+01  0.73541105582E+01  0.17770000000E+01 0. -1.
</event>
<event>
 6    1  0.1823098E-004  0.4894387E+03  0.7546771E-02  0.9423756E-01
        -11   -1    0    0    0    0  0.00000000000E+00  0.00000000000E+00  0.50000000000E+03  0.50000000000E+03  0.00000000000E+00 0.  1.
         11   -1    0    0    0    0 -0.00000000000E+00 -0.00000000000E+00 -0.50000000000E+03  0.50000000000E+03  0.00000000000E+00 0.  1.
        -11    1    1    2    0    0 -0.53580822425E+01 -0.61352843602E+01  0.49106984129E+03  0.49113739400E+03  0.00000000000E+00 0.  1.
         11    1    1    2    0    0  0.98581947834E+01 -0.96847075701E+01 -0.48768832051E+03  0.48788408001E+03  0.00000000000E+00 0.  1.
        -15    1    1    2    0    0 -0.55903661057E+01  0.13932393914E+02 -0.67796143688E+01  0.16567579587E+02  0.17770000000E+01 0. -1.
         15    1    1    2    0    0  0.10902535647E+01  0.18875980160E+01  0.33980935928E+01  0.44109464031E+01  0.17770000000E+01 0.  1.
</event>
<event>
 6    1  0.1823098E-004  0.5055837E+03  0.7546771E-02  0.9387402E-01
        -11   -1    0    0    0    0  0.00000000000E+00  0.00000000000E+00  0.50000000000E+03  0.50000000000E+03  0.00000000000E+00 0. -1.
         11   -1    0    0    0    0 -0.00000000000E+00 -0.00000000000E+00 -0.50000000000E+03  0.50000000000E+03  0.00000000000E+00 0. -1.
        -11    1    1    2    0    0  0.44488085615E+01  0.87382273252E+01  0.46698241144E+03  0.46708534670E+03  0.00000000000E+00 0. -1.
         11    1    1    2    0    0  0.29572373556E+01  0.16738868051E+02 -0.49412403817E+03  0.49441632260E+03  0.00000000000E+00 0. -1.
        -15    1    1    2    0    0 -0.38934261376E+01 -0.56873515176E+01  0.74846931121E+01  0.10328750861E+02  0.17770000000E+01 0. -1.
         15    1    1    2    0    0 -0.35126197796E+01 -0.19789743859E+02  0.19656933621E+02  0.28169579835E+02  0.17770000000E+01 0.  1.
</event>
<event>
 6    1  0.1823098E-004  0.5000985E+03  0.7546771E-02  0.9399589E-01
        -11   -1    0    0    0    0  0.00000000000E+00  0.00000000000E+00  0.50000000000E+03  0.50000000000E+03  0.00000000000E+00 0. -1.
         11   -1    0    0    0    0 -0.00000000000E+00 -0.00000000000E+00 -0.50000000000E+03  0.50000000000E+03  0.00000000000E+00 0.  1.
        -11    1    1    2    0    0 -0.15794943296E+01  0.26716644776E+01  0.10518550486E+03  0.10523128350E+03  0.00000000000E+00 0. -1.
         11    1    1    2    0    0  0.10375748698E+02  0.76947126650E+01 -0.49973461564E+03  0.49990154114E+03  0.00000000000E+00 0.  1.
        -15    1    1    2    0    0  0.31412015249E+00 -0.36212205635E+01  0.14187368820E+03  0.14193136737E+03  0.17770000000E+01 0.  1.
         15    1    1    2    0    0 -0.91103745214E+01 -0.67451565790E+01  0.25267542258E+03  0.25293580799E+03  0.17770000000E+01 0. -1.
</event>
<event>
 6    1  0.1823098E-004  0.5140531E+03  0.7546771E-02  0.9368903E-01
        -11   -1    0    0    0    0  0.00000000000E+00  0.00000000000E+00  0.50000000000E+03  0.50000000000E+03  0.00000000000E+00 0. -1.
         11   -1    0    0    0    0 -0.00000000000E+00 -0.00000000000E+00 -0.50000000000E+03  0.50000000000E+03  0.00000000000E+00 0.  1.
        -11    1    1    2    0    0  0.16389708460E+01  0.79684816564E+01  0.46368060134E+03  0.46375196279E+03  0.00000000000E+00 0. -1.
         11    1    1    2    0    0  0.18940995049E+02 -0.92357739459E+01 -0.48548982397E+03  0.48594694154E+03  0.00000000000E+00 0.  1.
        -15    1    1    2    0    0 -0.56004402890E+01 -0.10821571792E+02  0.27515807510E+02  0.30145459681E+02  0.17770000000E+01 0.  1.
         15    1    1    2    0    0 -0.14979525606E+02  0.12088864082E+02 -0.57065848842E+01  0.20155635991E+02  0.17770000000E+01 0. -1.
</event>
<event>
 6    1  0.1823098E-004  0.5067683E+03  0.7546771E-02  0.9384791E-01
        -11   -1    0    0    0    0  0.00000000000E+00  0.00000000000E+00  0.50000000000E+03  0.50000000000E+03  0.00000000000E+00 0.  1.
         11   -1    0    0    0    0 -0.00000000000E+00 -0.00000000000E+00 -0.50000000000E+03  0.50000000000E+03  0.00000000000E+00 0.  1.
        -11    1    1    2    0    0  0.59129171381E+02 -0.11360072437E+02  0.48954279994E+03  0.49323165260E+03  0.00000000000E+00 0.  1.
         11    1    1    2    0    0 -0.92432337034E+02  0.94976727045E+01 -0.30311698754E+03  0.31703919450E+03  0.00000000000E+00 0.  1.
        -15    1    1    2    0    0  0.14431686976E+02  0.56523489975E+01 -0.96108022628E+02  0.97365971369E+02  0.17770000000E+01 0.  1.
         15    1    1    2    0    0  0.18871478677E+02 -0.37899492645E+01 -0.90317789773E+02  0.92363181525E+02  0.17770000000E+01 0. -1.
</event>
<event>
 6    1  0.1823098E-004  0.4917231E+03  0.7546771E-02  0.9418523E-01
        -11   -1    0    0    0    0  0.00000000000E+00  0.00000000000E+00  0.50000000000E+03  0.50000000000E+03  0.00000000000E+00 0. -1.
         11   -1    0    0    0    0 -0.00000000000E+00 -0.00000000000E+00 -0.50000000000E+03  0.50000000000E+03  0.00000000000E+00 0. -1.
        -11    1    1    2    0    0  0.57406499767E+01 -0.11226647608E+02  0.49248886555E+03  0.49265025665E+03  0.00000000000E+00 0. -1.
         11    1    1    2    0    0 -0.11011470763E+02  0.87251639287E+01 -0.49061401705E+03  0.49081513292E+03  0.00000000000E+00 0. -1.
        -15    1    1    2    0    0 -0.43155916537E+01  0.23665848690E+01  0.25568292772E+01  0.58241016661E+01  0.17770000000E+01 0. -1.
         15    1    1    2    0    0  0.95864124402E+01  0.13489880989E+00 -0.44316777780E+01  0.10710508769E+02  0.17770000000E+01 0.  1.
</event>
<event>
 6    1  0.1823098E-004  0.5102520E+03  0.7546771E-02  0.9377158E-01
        -11   -1    0    0    0    0  0.00000000000E+00  0.00000000000E+00  0.50000000000E+03  0.50000000000E+03  0.00000000000E+00 0.  1.
         11   -1    0    0    0    0 -0.00000000000E+00 -0.00000000000E+00 -0.50000000000E+03  0.50000000000E+03  0.00000000000E+00 0. -1.
        -11    1    1    2    0    0 -0.37578900906E+01 -0.94950398833E+01  0.46022140774E+03  0.46033468440E+03  0.00000000000E+00 0.  1.
         11    1    1    2    0    0 -0.29729646842E+02  0.21872777755E+02 -0.48835524560E+03  0.48974801298E+03  0.00000000000E+00 0. -1.
        -15    1    1    2    0    0  0.10969102609E+01  0.12608758930E+01  0.10071380897E+02  0.10362599207E+02  0.17770000000E+01 0. -1.
         15    1    1    2    0    0  0.32390626671E+02 -0.13638613765E+02  0.18062456967E+02  0.39554703415E+02  0.17770000000E+01 0.  1.
</event>
<event>
 6    1  0.1823098E-004  0.5009649E+03  0.7546771E-02  0.9397653E-01
        -11   -1    0    0    0    0  0.00000000000E+00  0.00000000000E+00  0.50000000000E+03  0.50000000000E+03  0.00000000000E+00 0. -1.
         11   -1    0    0    0    0 -0.00000000000E+00 -0.00000000000E+00 -0.50000000000E+03  0.50000000000E+03  0.00000000000E+00 0. -1.
        -11    1    1    2    0    0  0.95380275381E+01  0.16546080929E+01  0.49894123782E+03  0.49903513954E+03  0.00000000000E+00 0. -1.
         11    1    1    2    0    0 -0.77050126230E+01  0.56900748996E+01 -0.42199860326E+02  0.43273229408E+02  0.00000000000E+00 0. -1.
        -15    1    1    2    0    0 -0.73279658268E+01 -0.16628182682E+02 -0.31540294440E+03  0.31593095861E+03  0.17770000000E+01 0. -1.
         15    1    1    2    0    0  0.54949509117E+01  0.92834996891E+01 -0.14133843310E+03  0.14176067244E+03  0.17770000000E+01 0.  1.
</event>
<event>
 6    1  0.1823098E-004  0.4899330E+03  0.7546771E-02  0.9422621E-01
        -11   -1    0    0    0    0  0.00000000000E+00  0.00000000000E+00  0.50000000000E+03  0.50000000000E+03  0.00000000000E+00 0.  1.
         11   -1    0    0    0    0 -0.00000000000E+00 -0.00000000000E+00 -0.50000000000E+03  0.50000000000E+03  0.00000000000E+00 0. -1.
        -11    1    1    2    0    0  0.89491414917E+01  0.13528258683E+01  0.49059733202E+03  0.49068081220E+03  0.00000000000E+00 0.  1.
         11    1    1    2    0    0 -0.17483488040E+02  0.81121730823E+01 -0.48888987018E+03  0.48926964434E+03  0.00000000000E+00 0. -1.
        -15    1    1    2    0    0  0.10044900902E+02 -0.38493108414E+01  0.40929978669E+01  0.11645925838E+02  0.17770000000E+01 0.  1.
         15    1    1    2    0    0 -0.15105543536E+01 -0.56156881092E+01 -0.58004597080E+01  0.84036176269E+01  0.17770000000E+01 0. -1.
</event>
<event>
 6    1  0.1823098E-004  0.5002587E+03  0.7546771E-02  0.9399231E-01
        -11   -1    0    0    0    0  0.00000000000E+00  0.00000000000E+00  0.50000000000E+03  0.50000000000E+03  0.00000000000E+00 0.  1.
         11   -1    0    0    0    0 -0.00000000000E+00 -0.00000000000E+00 -0.50000000000E+03  0.50000000000E+03  0.00000000000E+00 0. -1.
        -11    1    1    2    0    0  0.16972125775E+01 -0.11536356416E+02  0.49960526286E+03  0.49974131981E+03  0.00000000000E+00 0.  1.
         11    1    1    2    0    0 -0.30469804959E+01  0.62853929082E+01 -0.70732881358E+02  0.71076935495E+02  0.00000000000E+00 0. -1.
        -15    1    1    2    0    0 -0.50015323253E+01  0.34527059882E+01 -0.82766021700E+02  0.83007882645E+02  0.17770000000E+01 0. -1.
         15    1    1    2    0    0  0.63513002437E+01  0.17982575199E+01 -0.34610635980E+03  0.34617386205E+03  0.17770000000E+01 0. -1.
</event>
<event>
 6    1  0.1823098E-004  0.5029714E+03  0.7546771E-02  0.9393185E-01
        -11   -1    0    0    0    0  0.00000000000E+00  0.00000000000E+00  0.50000000000E+03  0.50000000000E+03  0.00000000000E+00 0. -1.
         11   -1    0    0    0    0 -0.00000000000E+00 -0.00000000000E+00 -0.50000000000E+03  0.50000000000E+03  0.00000000000E+00 0. -1.
        -11    1    1    2    0    0 -0.34271924970E+02 -0.86715006765E+00  0.49584481456E+03  0.49702856750E+03  0.00000000000E+00 0. -1.
         11    1    1    2    0    0  0.40031480818E+02  0.19599749768E+01 -0.11091166602E+03  0.11793116050E+03  0.00000000000E+00 0. -1.
        -15    1    1    2    0    0 -0.40777532998E+01  0.21118948428E+01 -0.17930205656E+03  0.17936965571E+03  0.17770000000E+01 0. -1.
         15    1    1    2    0    0 -0.16818025492E+01 -0.32047197520E+01 -0.20563109197E+03  0.20567061629E+03  0.17770000000E+01 0. -1.
</event>
<event>
 6    1  0.1823098E-004  0.5002387E+03  0.7546771E-02  0.9399276E-01
        -11   -1    0    0    0    0  0.00000000000E+00  0.00000000000E+00  0.50000000000E+03  0.50000000000E+03  0.00000000000E+00 0.  1.
         11   -1    0    0    0    0 -0.00000000000E+00 -0.00000000000E+00 -0.50000000000E+03  0.50000000000E+03  0.00000000000E+00 0. -1.
        -11    1    1    2    0    0 -0.34015620059E+01 -0.54264810033E+01  0.34245981950E+03  0.34251970059E+03  0.00000000000E+00 0.  1.
         11    1    1    2    0    0 -0.65015279300E+01  0.17753093070E+01 -0.49971587683E+03  0.49976132218E+03  0.00000000000E+00 0. -1.
        -15    1    1    2    0    0  0.11271602535E+01  0.92761407085E+00  0.50900034807E+02  0.50951960025E+02  0.17770000000E+01 0.  1.
         15    1    1    2    0    0  0.87759296824E+01  0.27235576255E+01  0.10635602252E+03  0.10676701721E+03  0.17770000000E+01 0. -1.
</event>
<event>
 6    1  0.1823098E-004  0.4900045E+03  0.7546771E-02  0.9422457E-01
        -11   -1    0    0    0    0  0.00000000000E+00  0.00000000000E+00  0.50000000000E+03  0.50000000000E+03  0.00000000000E+00 0.  1.
         11   -1    0    0    0    0 -0.00000000000E+00 -0.00000000000E+00 -0.50000000000E+03  0.50000000000E+03  0.00000000000E+00 0.  1.
        -11    1    1    2    0    0  0.36848089765E+01  0.14862591447E+02  0.48525137816E+03  0.48549291905E+03  0.00000000000E+00 0.  1.
         11    1    1    2    0    0 -0.11716911306E+02 -0.13916605803E+01 -0.49454494294E+03  0.49468568134E+03  0.00000000000E+00 0.  1.
        -15    1    1    2    0    0  0.69882772804E+01 -0.74507611337E+01  0.28224389424E+01  0.10745871365E+02  0.17770000000E+01 0.  1.
         15    1    1    2    0    0  0.10438250487E+01 -0.60201697328E+01  0.64711258438E+01  0.90755282508E+01  0.17770000000E+01 0. -1.
</event>
<event>
 6    1  0.1823098E-004  0.5030524E+03  0.7546771E-02  0.9393005E-01
        -11   -1    0    0    0    0  0.00000000000E+00  0.00000000000E+00  0.50000000000E+03  0.50000000000E+03  0.00000000000E+00 0.  1.
         11   -1    0    0    0    0 -0.00000000000E+00 -0.00000000000E+00 -0.50000000000E+03  0.50000000000E+03  0.00000000000E+00 0.  1.
        -11    1    1    2    0    0 -0.13100798986E+02 -0.71647344902E+01  0.49672318550E+03  0.49694757004E+03  0.00000000000E+00 0.  1.
         11    1    1    2    0    0 -0.46285716945E+01 -0.12817513642E+02 -0.43245410447E+03  0.43266877031E+03  0.00000000000E+00 0.  1.
        -15    1    1    2    0    0  0.54307064710E+01  0.11357061430E+02 -0.21020762722E+02  0.24566351204E+02  0.17770000000E+01 0. -1.
         15    1    1    2    0    0  0.12298664209E+02  0.86251867022E+01 -0.43248318311E+02  0.45817308440E+02  0.17770000000E+01 0.  1.
</event>
<event>
 6    1  0.1823098E-004  0.5010317E+03  0.7546771E-02  0.9397504E-01
        -11   -1    0    0    0    0  0.00000000000E+00  0.00000000000E+00  0.50000000000E+03  0.50000000000E+03  0.00000000000E+00 0. -1.
         11   -1    0    0    0    0 -0.00000000000E+00 -0.00000000000E+00 -0.50000000000E+03  0.50000000000E+03  0.00000000000E+00 0.  1.
        -11    1    1    2    0    0 -0.47426023706E+01  0.84044661860E+01  0.39989795952E+03  0.40001438144E+03  0.00000000000E+00 0. -1.
         11    1    1    2    0    0  0.14297855060E+02  0.63084032492E+01 -0.49872346569E+03  0.49896825534E+03  0.00000000000E+00 0.  1.
        -15    1    1    2    0    0 -0.10210616338E+00 -0.53454043060E+01  0.52019884364E+02  0.52324085000E+02  0.17770000000E+01 0.  1.
         15    1    1    2    0    0 -0.94531465262E+01 -0.93674651292E+01  0.46805621801E+02  0.48693278215E+02  0.17770000000E+01 0. -1.
</event>
<event>
 6    1  0.1823098E-004  0.5005453E+03  0.7546771E-02  0.9398590E-01
        -11   -1    0    0    0    0  0.00000000000E+00  0.00000000000E+00  0.50000000000E+03  0.50000000000E+03  0.00000000000E+00 0.  1.
         11   -1    0    0    0    0 -0.00000000000E+00 -0.00000000000E+00 -0.50000000000E+03  0.50000000000E+03  0.00000000000E+00 0. -1.
        -11    1    1    2    0    0  0.87232634602E+01 -0.43691738260E+01  0.49935941425E+03  0.49945471226E+03  0.00000000000E+00 0.  1.
         11    1    1    2    0    0 -0.79541509694E+01 -0.55970286231E+01 -0.37447907333E+03  0.37460535449E+03  0.00000000000E+00 0. -1.
        -15    1    1    2    0    0  0.10336608614E+01  0.10420061111E+01 -0.34095303506E+01  0.41154413765E+01  0.17770000000E+01 0. -1.
         15    1    1    2    0    0 -0.18027733522E+01  0.89241963379E+01 -0.12147081056E+03  0.12182449187E+03  0.17770000000E+01 0. -1.
</event>
<event>
 6    1  0.1823098E-004  0.5001739E+03  0.7546771E-02  0.9399421E-01
        -11   -1    0    0    0    0  0.00000000000E+00  0.00000000000E+00  0.50000000000E+03  0.50000000000E+03  0.00000000000E+00 0. -1.
         11   -1    0    0    0    0 -0.00000000000E+00 -0.00000000000E+00 -0.50000000000E+03  0.50000000000E+03  0.00000000000E+00 0. -1.
        -11    1    1    2    0    0 -0.33888962216E+01  0.30412194306E+01  0.27426262470E+03  0.27430042096E+03  0.00000000000E+00 0. -1.
         11    1    1    2    0    0  0.78343614901E+01  0.49072886502E+01 -0.49974056543E+03  0.49982606118E+03  0.00000000000E+00 0. -1.
        -15    1    1    2    0    0 -0.44248287881E+01  0.32041105818E+00  0.67161274565E+02  0.67331094624E+02  0.17770000000E+01 0. -1.
         15    1    1    2    0    0 -0.20636480375E-01 -0.82689191390E+01  0.15831666617E+03  0.15854242323E+03  0.17770000000E+01 0.  1.
</event>
<event>
 6    1  0.1823098E-004  0.5002433E+03  0.7546771E-02  0.9399266E-01
        -11   -1    0    0    0    0  0.00000000000E+00  0.00000000000E+00  0.50000000000E+03  0.50000000000E+03  0.00000000000E+00 0. -1.
         11   -1    0    0    0    0 -0.00000000000E+00 -0.00000000000E+00 -0.50000000000E+03  0.50000000000E+03  0.00000000000E+00 0.  1.
        -11    1    1    2    0    0 -0.41543109178E+01  0.20098048337E+01  0.31677750475E+03  0.31681111901E+03  0.00000000000E+00 0. -1.
         11    1    1    2    0    0 -0.35879157509E+01  0.68809448664E+01 -0.49969647448E+03  0.49975672797E+03  0.00000000000E+00 0.  1.
        -15    1    1    2    0    0  0.27113040488E+01 -0.20442953965E+01  0.26867101301E+02  0.27139070998E+02  0.17770000000E+01 0. -1.
         15    1    1    2    0    0  0.50309226199E+01 -0.68464543036E+01  0.15605186843E+03  0.15629308203E+03  0.17770000000E+01 0.  1.
</event>
<event>
 6    1  0.1823098E-004  0.4174553E+03  0.7546771E-02  0.9606187E-01
        -11   -1    0    0    0    0  0.00000000000E+00  0.00000000000E+00  0.50000000000E+03  0.50000000000E+03  0.00000000000E+00 0.  1.
         11   -1    0    0    0    0 -0.00000000000E+00 -0.00000000000E+00 -0.50000000000E+03  0.50000000000E+03  0.00000000000E+00 0. -1.
        -11    1    1    2    0    0  0.69215985826E+01  0.39184756145E+01  0.30237292867E+03  0.30247752144E+03  0.00000000000E+00 0.  1.
         11    1    1    2    0    0  0.19949995563E+03  0.12180689229E+03 -0.11103610360E+03  0.25877822089E+03  0.00000000000E+00 0. -1.
        -15    1    1    2    0    0 -0.23976990798E+02  0.11170989174E+02  0.79993911672E+02  0.84272597684E+02  0.17770000000E+01 0.  1.
         15    1    1    2    0    0 -0.18244456341E+03 -0.13689635708E+03 -0.27133073675E+03  0.35447165999E+03  0.17770000000E+01 0. -1.
</event>
<event>
 6    1  0.1823098E-004  0.5051251E+03  0.7546771E-02  0.9388414E-01
        -11   -1    0    0    0    0  0.00000000000E+00  0.00000000000E+00  0.50000000000E+03  0.50000000000E+03  0.00000000000E+00 0. -1.
         11   -1    0    0    0    0 -0.00000000000E+00 -0.00000000000E+00 -0.50000000000E+03  0.50000000000E+03  0.00000000000E+00 0. -1.
        -11    1    1    2    0    0  0.10106504707E+02  0.21332402505E+01  0.48413884357E+03  0.48424901859E+03  0.00000000000E+00 0. -1.
         11    1    1    2    0    0  0.28030234782E+01  0.69265827564E+01 -0.49481847877E+03  0.49487489472E+03  0.00000000000E+00 0. -1.
        -15    1    1    2    0    0 -0.18382359540E+01 -0.30840394814E+01 -0.38931821324E+00  0.40248861620E+01  0.17770000000E+01 0.  1.
         15    1    1    2    0    0 -0.11071292231E+02 -0.59757835255E+01  0.11068953414E+02  0.16851200523E+02  0.17770000000E+01 0. -1.
</event>
<event>
 6    1  0.1823098E-004  0.5006273E+03  0.7546771E-02  0.9398407E-01
        -11   -1    0    0    0    0  0.00000000000E+00  0.00000000000E+00  0.50000000000E+03  0.50000000000E+03  0.00000000000E+00 0.  1.
         11   -1    0    0    0    0 -0.00000000000E+00 -0.00000000000E+00 -0.50000000000E+03  0.50000000000E+03  0.00000000000E+00 0. -1.
        -11    1    1    2    0    0 -0.68193135537E+01  0.14749820075E+01  0.49932399936E+03  0.49937274149E+03  0.00000000000E+00 0.  1.
         11    1    1    2    0    0  0.82677527524E+01 -0.61465522568E+01 -0.48056288356E+03  0.48067329954E+03  0.00000000000E+00 0. -1.
        -15    1    1    2    0    0  0.80584716197E+00  0.13078804348E+01 -0.73388683146E+01  0.77056250894E+01  0.17770000000E+01 0. -1.
         15    1    1    2    0    0 -0.22542863607E+01  0.33636898146E+01 -0.11422247486E+02  0.12248333878E+02  0.17770000000E+01 0.  1.
</event>
<event>
 6    1  0.1823098E-004  0.5022156E+03  0.7546771E-02  0.9394866E-01
        -11   -1    0    0    0    0  0.00000000000E+00  0.00000000000E+00  0.50000000000E+03  0.50000000000E+03  0.00000000000E+00 0.  1.
         11   -1    0    0    0    0 -0.00000000000E+00 -0.00000000000E+00 -0.50000000000E+03  0.50000000000E+03  0.00000000000E+00 0. -1.
        -11    1    1    2    0    0 -0.51520193738E+01 -0.17965181141E+02  0.49743343810E+03  0.49778440753E+03  0.00000000000E+00 0.  1.
         11    1    1    2    0    0 -0.68555224643E+00  0.10870355269E+02 -0.10381406648E+02  0.15046867101E+02  0.00000000000E+00 0. -1.
        -15    1    1    2    0    0  0.50366240179E+01  0.66908789509E+01 -0.36447742788E+03  0.36457795957E+03  0.17770000000E+01 0. -1.
         15    1    1    2    0    0  0.80094760234E+00  0.40394692104E+00 -0.12257460357E+03  0.12259076580E+03  0.17770000000E+01 0. -1.
</event>
<event>
 6    1  0.1823098E-004  0.5032803E+03  0.7546771E-02  0.9392500E-01
        -11   -1    0    0    0    0  0.00000000000E+00  0.00000000000E+00  0.50000000000E+03  0.50000000000E+03  0.00000000000E+00 0.  1.
         11   -1    0    0    0    0 -0.00000000000E+00 -0.00000000000E+00 -0.50000000000E+03  0.50000000000E+03  0.00000000000E+00 0.  1.
        -11    1    1    2    0    0 -0.75881012020E+01  0.26419395550E+01  0.38358390149E+03  0.38366804480E+03  0.00000000000E+00 0.  1.
         11    1    1    2    0    0 -0.24513653842E+02 -0.56649864781E+01 -0.49608207421E+03  0.49671967512E+03  0.00000000000E+00 0.  1.
        -15    1    1    2    0    0  0.61083302370E+01  0.43493978225E+01  0.64708128652E+02  0.65165394208E+02  0.17770000000E+01 0. -1.
         15    1    1    2    0    0  0.25993424807E+02 -0.13263508994E+01  0.47790044070E+02  0.54446885872E+02  0.17770000000E+01 0.  1.
</event>
<event>
 6    1  0.1823098E-004  0.5082140E+03  0.7546771E-02  0.9381616E-01
        -11   -1    0    0    0    0  0.00000000000E+00  0.00000000000E+00  0.50000000000E+03  0.50000000000E+03  0.00000000000E+00 0.  1.
         11   -1    0    0    0    0 -0.00000000000E+00 -0.00000000000E+00 -0.50000000000E+03  0.50000000000E+03  0.00000000000E+00 0. -1.
        -11    1    1    2    0    0 -0.10929064321E+02 -0.22706001976E+02  0.40490356568E+03  0.40568695378E+03  0.00000000000E+00 0.  1.
         11    1    1    2    0    0 -0.22141107241E+02 -0.19895002346E+02 -0.49088438247E+03  0.49178604769E+03  0.00000000000E+00 0. -1.
        -15    1    1    2    0    0  0.32151146665E+02  0.39315052895E+02  0.72703559963E+02  0.88703635643E+02  0.17770000000E+01 0.  1.
         15    1    1    2    0    0  0.91902489713E+00  0.32859514268E+01  0.13277256829E+02  0.13823362885E+02  0.17770000000E+01 0. -1.
</event>
<event>
 6    1  0.1823098E-004  0.4916970E+03  0.7546771E-02  0.9418582E-01
        -11   -1    0    0    0    0  0.00000000000E+00  0.00000000000E+00  0.50000000000E+03  0.50000000000E+03  0.00000000000E+00 0. -1.
         11   -1    0    0    0    0 -0.00000000000E+00 -0.00000000000E+00 -0.50000000000E+03  0.50000000000E+03  0.00000000000E+00 0.  1.
        -11    1    1    2    0    0 -0.56085942894E+01 -0.45561807384E+01  0.49411975126E+03  0.49417258493E+03  0.00000000000E+00 0. -1.
         11    1    1    2    0    0  0.72629352463E+01 -0.37121111723E+01 -0.48920181830E+03  0.48926981210E+03  0.00000000000E+00 0.  1.
        -15    1    1    2    0    0 -0.65118518330E+01  0.56741968432E+01 -0.60068708039E+01  0.10669627452E+02  0.17770000000E+01 0.  1.
         15    1    1    2    0    0  0.48575108761E+01  0.25940950675E+01  0.10889378490E+01  0.58879755239E+01  0.17770000000E+01 0. -1.
</event>
<event>
 6    1  0.1823098E-004  0.5020756E+03  0.7546771E-02  0.9395177E-01
        -11   -1    0    0    0    0  0.00000000000E+00  0.00000000000E+00  0.50000000000E+03  0.50000000000E+03  0.00000000000E+00 0.  1.
         11   -1    0    0    0    0 -0.00000000000E+00 -0.00000000000E+00 -0.50000000000E+03  0.50000000000E+03  0.00000000000E+00 0.  1.
        -11    1    1    2    0    0 -0.57029351280E+01 -0.10878966033E+01  0.36122409338E+03  0.36127074698E+03  0.00000000000E+00 0.  1.
         11    1    1    2    0    0  0.95680814238E+01 -0.31857348608E+02 -0.49681207483E+03  0.49792436830E+03  0.00000000000E+00 0.  1.
        -15    1    1    2    0    0  0.27658695863E+01  0.39124924002E+01  0.48088862627E+02  0.48359632640E+02  0.17770000000E+01 0. -1.
         15    1    1    2    0    0 -0.66310158820E+01  0.29032752811E+02  0.87499118830E+02  0.92445252082E+02  0.17770000000E+01 0.  1.
</event>
<event>
 6    1  0.1823098E-004  0.5003935E+03  0.7546771E-02  0.9398930E-01
        -11   -1    0    0    0    0  0.00000000000E+00  0.00000000000E+00  0.50000000000E+03  0.50000000000E+03  0.00000000000E+00 0.  1.
         11   -1    0    0    0    0 -0.00000000000E+00 -0.00000000000E+00 -0.50000000000E+03  0.50000000000E+03  0.00000000000E+00 0.  1.
        -11    1    1    2    0    0 -0.15836594157E+02 -0.10259316063E+02  0.41049582397E+03  0.41092927954E+03  0.00000000000E+00 0.  1.
         11    1    1    2    0    0  0.28682702776E+02  0.64141137535E+01 -0.49874128181E+03  0.49960654967E+03  0.00000000000E+00 0.  1.
        -15    1    1    2    0    0 -0.14631546649E+01  0.41021941256E-01  0.21695445087E+02  0.21817253972E+02  0.17770000000E+01 0.  1.
         15    1    1    2    0    0 -0.11382953954E+02  0.38041803685E+01  0.66550012752E+02  0.67646916820E+02  0.17770000000E+01 0. -1.
</event>
<event>
 6    1  0.1823098E-004  0.5009357E+03  0.7546771E-02  0.9397718E-01
        -11   -1    0    0    0    0  0.00000000000E+00  0.00000000000E+00  0.50000000000E+03  0.50000000000E+03  0.00000000000E+00 0. -1.
         11   -1    0    0    0    0 -0.00000000000E+00 -0.00000000000E+00 -0.50000000000E+03  0.50000000000E+03  0.00000000000E+00 0. -1.
        -11    1    1    2    0    0  0.22722517600E+00  0.24718893361E+01  0.12009311552E+03  0.12011876732E+03  0.00000000000E+00 0. -1.
         11    1    1    2    0    0  0.42944949306E+02 -0.83082570016E+01 -0.49714373920E+03  0.49906431773E+03  0.00000000000E+00 0. -1.
        -15    1    1    2    0    0 -0.45721813659E+02  0.33036556872E+01  0.28411636582E+03  0.28779622207E+03  0.17770000000E+01 0. -1.
         15    1    1    2    0    0  0.25496391776E+01  0.25327119783E+01  0.92934257865E+02  0.93020692880E+02  0.17770000000E+01 0.  1.
</event>
<event>
 6    1  0.1823098E-004  0.5031017E+03  0.7546771E-02  0.9392896E-01
        -11   -1    0    0    0    0  0.00000000000E+00  0.00000000000E+00  0.50000000000E+03  0.50000000000E+03  0.00000000000E+00 0.  1.
         11   -1    0    0    0    0 -0.00000000000E+00 -0.00000000000E+00 -0.50000000000E+03  0.50000000000E+03  0.00000000000E+00 0. -1.
        -11    1    1    2    0    0 -0.14941736435E+02  0.57576243550E+01  0.49664021777E+03  0.49689829103E+03  0.00000000000E+00 0.  1.
         11    1    1    2    0    0  0.21995218735E+02 -0.12369202069E+02 -0.67784539550E+02  0.72329320535E+02  0.00000000000E+00 0. -1.
        -15    1    1    2    0    0  0.14202300836E+01  0.20930560205E+02 -0.15745270333E+03  0.15885407429E+03  0.17770000000E+01 0. -1.
         15    1    1    2    0    0 -0.84737123834E+01 -0.14318982491E+02 -0.27140297488E+03  0.27191831414E+03  0.17770000000E+01 0.  1.
</event>
<event>
 6    1  0.1823098E-004  0.5002627E+03  0.7546771E-02  0.9399222E-01
        -11   -1    0    0    0    0  0.00000000000E+00  0.00000000000E+00  0.50000000000E+03  0.50000000000E+03  0.00000000000E+00 0.  1.
         11   -1    0    0    0    0 -0.00000000000E+00 -0.00000000000E+00 -0.50000000000E+03  0.50000000000E+03  0.00000000000E+00 0. -1.
        -11    1    1    2    0    0  0.85604993260E+01  0.65493059980E+01  0.16693697254E+03  0.16728457298E+03  0.00000000000E+00 0.  1.
         11    1    1    2    0    0 -0.23766463549E+02  0.10741984970E+02 -0.49905624450E+03  0.49973730119E+03  0.00000000000E+00 0. -1.
        -15    1    1    2    0    0  0.59690032752E+01 -0.87256913571E+01  0.18474082757E+03  0.18505160845E+03  0.17770000000E+01 0.  1.
         15    1    1    2    0    0  0.92369609480E+01 -0.85655996108E+01  0.14737844439E+03  0.14792651738E+03  0.17770000000E+01 0. -1.
</event>
<event>
 6    1  0.3293155E-004  0.5001037E+03  0.7546771E-02  0.9399578E-01
        -11   -1    0    0    0    0  0.00000000000E+00  0.00000000000E+00  0.50000000000E+03  0.50000000000E+03  0.00000000000E+00 0. -1.
         11   -1    0    0    0    0 -0.00000000000E+00 -0.00000000000E+00 -0.50000000000E+03  0.50000000000E+03  0.00000000000E+00 0. -1.
        -11    1    1    2    0    0  0.83107237619E+01 -0.99437595792E+01  0.25982479005E+03  0.26014778110E+03  0.00000000000E+00 0. -1.
         11    1    1    2    0    0 -0.62413059596E+01  0.11254224605E+02 -0.49973067319E+03  0.49989634646E+03  0.00000000000E+00 0. -1.
        -15    1    1    2    0    0 -0.16682445211E+01 -0.17064317861E+01  0.16479408323E+03  0.16482094086E+03  0.17770000000E+01 0. -1.
         15    1    1    2    0    0 -0.40117328121E+00  0.39596676006E+00  0.75111799913E+02  0.75134931589E+02  0.17770000000E+01 0.  1.
</event>
<event>
 6    1  0.1823098E-004  0.5001394E+03  0.7546771E-02  0.9399498E-01
        -11   -1    0    0    0    0  0.00000000000E+00  0.00000000000E+00  0.50000000000E+03  0.50000000000E+03  0.00000000000E+00 0. -1.
         11   -1    0    0    0    0 -0.00000000000E+00 -0.00000000000E+00 -0.50000000000E+03  0.50000000000E+03  0.00000000000E+00 0. -1.
        -11    1    1    2    0    0 -0.27507118742E+01 -0.64350887808E+01  0.49981160370E+03  0.49986059654E+03  0.00000000000E+00 0. -1.
         11    1    1    2    0    0 -0.34460694334E+01  0.11526784630E+01 -0.38307961337E+02  0.38479916372E+02  0.00000000000E+00 0. -1.
        -15    1    1    2    0    0  0.80297678575E+00  0.18229328249E+01 -0.34169417055E+02  0.34273526908E+02  0.17770000000E+01 0.  1.
         15    1    1    2    0    0  0.53938045219E+01  0.34594774928E+01 -0.42733422531E+03  0.42738596018E+03  0.17770000000E+01 0. -1.
</event>
<event>
 6    1  0.1823098E-004  0.4831149E+03  0.7546771E-02  0.9438405E-01
        -11   -1    0    0    0    0  0.00000000000E+00  0.00000000000E+00  0.50000000000E+03  0.50000000000E+03  0.00000000000E+00 0. -1.
         11   -1    0    0    0    0 -0.00000000000E+00 -0.00000000000E+00 -0.50000000000E+03  0.50000000000E+03  0.00000000000E+00 0.  1.
        -11    1    1    2    0    0  0.34417474578E+01 -0.67969331595E+01  0.48279536099E+03  0.48285546959E+03  0.00000000000E+00 0. -1.
         11    1    1    2    0    0  0.74394584349E+01 -0.21251769325E+02 -0.48331859688E+03  0.48384279402E+03  0.00000000000E+00 0.  1.
        -15    1    1    2    0    0  0.16272346594E+01  0.30024835521E+01 -0.31965952876E+01  0.50038735546E+01  0.17770000000E+01 0.  1.
         15    1    1    2    0    0 -0.12508440552E+02  0.25046218932E+02  0.37198311771E+01  0.28297862832E+02  0.17770000000E+01 0. -1.
</event>
<event>
 6    1  0.1823098E-004  0.5009140E+03  0.7546771E-02  0.9397767E-01
        -11   -1    0    0    0    0  0.00000000000E+00  0.00000000000E+00  0.50000000000E+03  0.50000000000E+03  0.00000000000E+00 0.  1.
         11   -1    0    0    0    0 -0.00000000000E+00 -0.00000000000E+00 -0.50000000000E+03  0.50000000000E+03  0.00000000000E+00 0.  1.
        -11    1    1    2    0    0 -0.43577019408E+01 -0.17500288610E+02  0.49876004081E+03  0.49908599257E+03  0.00000000000E+00 0.  1.
         11    1    1    2    0    0 -0.81987091007E+01  0.34180617278E+01 -0.21697852841E+02  0.23445656203E+02  0.00000000000E+00 0.  1.
        -15    1    1    2    0    0  0.64168349596E+01  0.41876235233E+01 -0.17545184396E+03  0.17562807076E+03  0.17770000000E+01 0. -1.
         15    1    1    2    0    0  0.61395760819E+01  0.98946033590E+01 -0.30161034401E+03  0.30184028047E+03  0.17770000000E+01 0.  1.
</event>
<event>
 6    1  0.1823098E-004  0.5004017E+03  0.7546771E-02  0.9398911E-01
        -11   -1    0    0    0    0  0.00000000000E+00  0.00000000000E+00  0.50000000000E+03  0.50000000000E+03  0.00000000000E+00 0. -1.
         11   -1    0    0    0    0 -0.00000000000E+00 -0.00000000000E+00 -0.50000000000E+03  0.50000000000E+03  0.00000000000E+00 0.  1.
        -11    1    1    2    0    0  0.31410778465E+01  0.57148344094E+01  0.39034958737E+03  0.39040405488E+03  0.00000000000E+00 0. -1.
         11    1    1    2    0    0 -0.10357522267E+02 -0.19204315017E+01 -0.49948720031E+03  0.49959826821E+03  0.00000000000E+00 0.  1.
        -15    1    1    2    0    0  0.66350103696E+01  0.18946597101E+01  0.42668869478E+02  0.43259718557E+02  0.17770000000E+01 0. -1.
         15    1    1    2    0    0  0.58143405101E+00 -0.56890626178E+01  0.66468743460E+02  0.66737958354E+02  0.17770000000E+01 0.  1.
</event>
<event>
 6    1  0.1823098E-004  0.5015535E+03  0.7546771E-02  0.9396340E-01
        -11   -1    0    0    0    0  0.00000000000E+00  0.00000000000E+00  0.50000000000E+03  0.50000000000E+03  0.00000000000E+00 0. -1.
         11   -1    0    0    0    0 -0.00000000000E+00 -0.00000000000E+00 -0.50000000000E+03  0.50000000000E+03  0.00000000000E+00 0.  1.
        -11    1    1    2    0    0 -0.28715212485E+01 -0.60131270721E+01  0.45481769213E+03  0.45486650394E+03  0.00000000000E+00 0. -1.
         11    1    1    2    0    0 -0.10345167629E+02  0.20798997099E+01 -0.49833478636E+03  0.49844649439E+03  0.00000000000E+00 0.  1.
        -15    1    1    2    0    0  0.91394119806E+01 -0.40805550479E+00  0.16364394394E+02  0.18832060257E+02  0.17770000000E+01 0.  1.
         15    1    1    2    0    0  0.40772768972E+01  0.43412828670E+01  0.27152699837E+02  0.27854941415E+02  0.17770000000E+01 0. -1.
</event>
<event>
 6    1  0.1823098E-004  0.5011214E+03  0.7546771E-02  0.9397304E-01
        -11   -1    0    0    0    0  0.00000000000E+00  0.00000000000E+00  0.50000000000E+03  0.50000000000E+03  0.00000000000E+00 0. -1.
         11   -1    0    0    0    0 -0.00000000000E+00 -0.00000000000E+00 -0.50000000000E+03  0.50000000000E+03  0.00000000000E+00 0.  1.
        -11    1    1    2    0    0 -0.95751718120E+01  0.45040572034E+01  0.49876637783E+03  0.49887861259E+03  0.00000000000E+00 0. -1.
         11    1    1    2    0    0  0.10968246802E+02 -0.11560237551E+02 -0.16927324979E+03  0.17002168869E+03  0.00000000000E+00 0.  1.
        -15    1    1    2    0    0 -0.88888739011E+01  0.11505315568E+02 -0.29839218371E+03  0.29875146425E+03  0.17770000000E+01 0. -1.
         15    1    1    2    0    0  0.74957989113E+01 -0.44491352200E+01 -0.31100944336E+02  0.32348234466E+02  0.17770000000E+01 0.  1.
</event>
<event>
 6    1  0.1823098E-004  0.4843162E+03  0.7546771E-02  0.9435604E-01
        -11   -1    0    0    0    0  0.00000000000E+00  0.00000000000E+00  0.50000000000E+03  0.50000000000E+03  0.00000000000E+00 0. -1.
         11   -1    0    0    0    0 -0.00000000000E+00 -0.00000000000E+00 -0.50000000000E+03  0.50000000000E+03  0.00000000000E+00 0.  1.
        -11    1    1    2    0    0 -0.80774545143E+01  0.95047450781E+01  0.47827828960E+03  0.47844091355E+03  0.00000000000E+00 0. -1.
         11    1    1    2    0    0 -0.12992727638E+02 -0.51846510212E+01 -0.49030541981E+03  0.49050494011E+03  0.00000000000E+00 0.  1.
        -15    1    1    2    0    0  0.18980941072E+02 -0.94056829704E+01  0.47856601014E+01  0.21789980902E+02  0.17770000000E+01 0. -1.
         15    1    1    2    0    0  0.20892410798E+01  0.50855889135E+01  0.72414701084E+01  0.92641654356E+01  0.17770000000E+01 0.  1.
</event>
<event>
 6    1  0.1823098E-004  0.5122173E+03  0.7546771E-02  0.9372880E-01
        -11   -1    0    0    0    0  0.00000000000E+00  0.00000000000E+00  0.50000000000E+03  0.50000000000E+03  0.00000000000E+00 0. -1.
         11   -1    0    0    0    0 -0.00000000000E+00 -0.00000000000E+00 -0.50000000000E+03  0.50000000000E+03  0.00000000000E+00 0.  1.
        -11    1    1    2    0    0 -0.62212948183E+01 -0.22147877357E+01  0.48773800055E+03  0.48778270467E+03  0.00000000000E+00 0. -1.
         11    1    1    2    0    0  0.98933734053E+01 -0.37334394710E+02 -0.44706523879E+03  0.44873050220E+03  0.00000000000E+00 0.  1.
        -15    1    1    2    0    0  0.81736350247E+01  0.31708747332E+01 -0.22247232935E+01  0.92179107624E+01  0.17770000000E+01 0. -1.
         15    1    1    2    0    0 -0.11845713612E+02  0.36378307713E+02 -0.38448038462E+02  0.54268882369E+02  0.17770000000E+01 0.  1.
</event>
<event>
 6    1  0.1823098E-004  0.5021296E+03  0.7546771E-02  0.9395057E-01
        -11   -1    0    0    0    0  0.00000000000E+00  0.00000000000E+00  0.50000000000E+03  0.50000000000E+03  0.00000000000E+00 0. -1.
         11   -1    0    0    0    0 -0.00000000000E+00 -0.00000000000E+00 -0.50000000000E+03  0.50000000000E+03  0.00000000000E+00 0. -1.
        -11    1    1    2    0    0 -0.10066028255E+02  0.29244084240E+01  0.49776007889E+03  0.49787043819E+03  0.00000000000E+00 0. -1.
         11    1    1    2    0    0 -0.20934190984E+02  0.43266467390E+01 -0.33998956392E+03  0.34066092203E+03  0.00000000000E+00 0. -1.
        -15    1    1    2    0    0  0.22911809148E+02 -0.33519732555E+01 -0.13398267665E+03  0.13598052101E+03  0.17770000000E+01 0. -1.
         15    1    1    2    0    0  0.80884100914E+01 -0.38990819075E+01 -0.23787838317E+02  0.25488118768E+02  0.17770000000E+01 0.  1.
</event>
<event>
 6    1  0.1823098E-004  0.5026139E+03  0.7546771E-02  0.9393980E-01
        -11   -1    0    0    0    0  0.00000000000E+00  0.00000000000E+00  0.50000000000E+03  0.50000000000E+03  0.00000000000E+00 0.  1.
         11   -1    0    0    0    0 -0.00000000000E+00 -0.00000000000E+00 -0.50000000000E+03  0.50000000000E+03  0.00000000000E+00 0. -1.
        -11    1    1    2    0    0 -0.32525966383E+02 -0.78851472546E+02  0.38611950401E+03  0.39542858343E+03  0.00000000000E+00 0.  1.
         11    1    1    2    0    0  0.42880639121E+02  0.65391440384E+02 -0.49120068877E+03  0.49738607373E+03  0.00000000000E+00 0. -1.
        -15    1    1    2    0    0  0.25754905683E+01  0.30523060956E+01  0.18482508203E+02  0.18992381700E+02  0.17770000000E+01 0. -1.
         15    1    1    2    0    0 -0.12930163306E+02  0.10407726066E+02  0.86598676559E+02  0.88192961146E+02  0.17770000000E+01 0.  1.
</event>
<event>
 6    1  0.1823098E-004  0.5017257E+03  0.7546771E-02  0.9395957E-01
        -11   -1    0    0    0    0  0.00000000000E+00  0.00000000000E+00  0.50000000000E+03  0.50000000000E+03  0.00000000000E+00 0.  1.
         11   -1    0    0    0    0 -0.00000000000E+00 -0.00000000000E+00 -0.50000000000E+03  0.50000000000E+03  0.00000000000E+00 0.  1.
        -11    1    1    2    0    0 -0.44814161616E+01  0.71517604535E+01  0.49820285406E+03  0.49827433664E+03  0.00000000000E+00 0.  1.
         11    1    1    2    0    0  0.77164834017E+01 -0.57609029456E+01 -0.48343095767E+03  0.48352685857E+03  0.00000000000E+00 0.  1.
        -15    1    1    2    0    0  0.11374526236E+01 -0.41725822687E+01 -0.41700735034E+01  0.62651004208E+01  0.17770000000E+01 0.  1.
         15    1    1    2    0    0 -0.43725198636E+01  0.27817247607E+01 -0.10601822879E+02  0.11933704369E+02  0.17770000000E+01 0. -1.
</event>
<event>
 6    1  0.1823098E-004  0.5024107E+03  0.7546771E-02  0.9394432E-01
        -11   -1    0    0    0    0  0.00000000000E+00  0.00000000000E+00  0.50000000000E+03  0.50000000000E+03  0.00000000000E+00 0. -1.
         11   -1    0    0    0    0 -0.00000000000E+00 -0.00000000000E+00 -0.50000000000E+03  0.50000000000E+03  0.00000000000E+00 0. -1.
        -11    1    1    2    0    0  0.38346299747E+01  0.11648000146E+01  0.26618106720E+03  0.26621123508E+03  0.00000000000E+00 0. -1.
         11    1    1    2    0    0  0.72654634076E+01 -0.89602281314E+01 -0.49745551654E+03  0.49758925188E+03  0.00000000000E+00 0. -1.
        -15    1    1    2    0    0  0.19553681626E+01 -0.52016737009E+01  0.19830358284E+03  0.19838938875E+03  0.17770000000E+01 0. -1.
         15    1    1    2    0    0 -0.13055461545E+02  0.12997101818E+02  0.32970866507E+02  0.37810124293E+02  0.17770000000E+01 0.  1.
</event>
<event>
 6    1  0.1823098E-004  0.4921363E+03  0.7546771E-02  0.9417579E-01
        -11   -1    0    0    0    0  0.00000000000E+00  0.00000000000E+00  0.50000000000E+03  0.50000000000E+03  0.00000000000E+00 0. -1.
         11   -1    0    0    0    0 -0.00000000000E+00 -0.00000000000E+00 -0.50000000000E+03  0.50000000000E+03  0.00000000000E+00 0.  1.
        -11    1    1    2    0    0 -0.84857061913E+01  0.52191096613E+00  0.49429216177E+03  0.49436527062E+03  0.00000000000E+00 0. -1.
         11    1    1    2    0    0  0.97590651917E+01  0.71088500163E+01 -0.48979914263E+03  0.48994793113E+03  0.00000000000E+00 0.  1.
        -15    1    1    2    0    0  0.45858294390E+01 -0.63220828120E+01 -0.50727133879E-01  0.80099229065E+01  0.17770000000E+01 0. -1.
         15    1    1    2    0    0 -0.58591884394E+01 -0.13086781705E+01 -0.44422920154E+01  0.76768753456E+01  0.17770000000E+01 0.  1.
</event>
<event>
 6    1  0.1823098E-004  0.5008172E+03  0.7546771E-02  0.9397983E-01
        -11   -1    0    0    0    0  0.00000000000E+00  0.00000000000E+00  0.50000000000E+03  0.50000000000E+03  0.00000000000E+00 0.  1.
         11   -1    0    0    0    0 -0.00000000000E+00 -0.00000000000E+00 -0.50000000000E+03  0.50000000000E+03  0.00000000000E+00 0.  1.
        -11    1    1    2    0    0 -0.18349373519E+02 -0.48712569184E+02  0.38971669107E+03  0.39317771199E+03  0.00000000000E+00 0.  1.
         11    1    1    2    0    0  0.12231134983E+02  0.55103824050E+02 -0.49598131477E+03  0.49918282892E+03  0.00000000000E+00 0.  1.
        -15    1    1    2    0    0 -0.32453286071E+01 -0.24796436749E+01  0.63317747040E+02  0.63474212164E+02  0.17770000000E+01 0.  1.
         15    1    1    2    0    0  0.93635671434E+01 -0.39116111911E+01  0.42946876665E+02  0.44165246926E+02  0.17770000000E+01 0. -1.
</event>
<event>
 6    1  0.1823098E-004  0.4921181E+03  0.7546771E-02  0.9417621E-01
        -11   -1    0    0    0    0  0.00000000000E+00  0.00000000000E+00  0.50000000000E+03  0.50000000000E+03  0.00000000000E+00 0.  1.
         11   -1    0    0    0    0 -0.00000000000E+00 -0.00000000000E+00 -0.50000000000E+03  0.50000000000E+03  0.00000000000E+00 0. -1.
        -11    1    1    2    0    0 -0.52856811289E+01  0.47901621544E+01  0.49068736173E+03  0.49073920878E+03  0.00000000000E+00 0.  1.
         11    1    1    2    0    0 -0.47690481473E+01 -0.12311727117E+02 -0.49340424942E+03  0.49358087057E+03  0.00000000000E+00 0. -1.
        -15    1    1    2    0    0  0.20569377032E+01  0.24353990895E+01 -0.27729143155E+01  0.45835514878E+01  0.17770000000E+01 0.  1.
         15    1    1    2    0    0  0.79977915730E+01  0.50861658732E+01  0.54898020120E+01  0.11096369157E+02  0.17770000000E+01 0. -1.
</event>
<event>
 6    1  0.1823098E-004  0.5018931E+03  0.7546771E-02  0.9395584E-01
        -11   -1    0    0    0    0  0.00000000000E+00  0.00000000000E+00  0.50000000000E+03  0.50000000000E+03  0.00000000000E+00 0.  1.
         11   -1    0    0    0    0 -0.00000000000E+00 -0.00000000000E+00 -0.50000000000E+03  0.50000000000E+03  0.00000000000E+00 0.  1.
        -11    1    1    2    0    0 -0.35430669623E+01  0.14313522407E+01  0.57399717382E+02  0.57526773317E+02  0.00000000000E+00 0.  1.
         11    1    1    2    0    0 -0.26159306258E+02  0.41185695435E+02 -0.49571155607E+03  0.49810693394E+03  0.00000000000E+00 0.  1.
        -15    1    1    2    0    0  0.11025107935E+02  0.10598024547E+02  0.13260210936E+03  0.13349287721E+03  0.17770000000E+01 0.  1.
         15    1    1    2    0    0  0.18677265285E+02 -0.53215072222E+02  0.30570972933E+03  0.31087341554E+03  0.17770000000E+01 0. -1.
</event>
<event>
 6    1  0.1823098E-004  0.5000846E+03  0.7546771E-02  0.9399621E-01
        -11   -1    0    0    0    0  0.00000000000E+00  0.00000000000E+00  0.50000000000E+03  0.50000000000E+03  0.00000000000E+00 0.  1.
         11   -1    0    0    0    0 -0.00000000000E+00 -0.00000000000E+00 -0.50000000000E+03  0.50000000000E+03  0.00000000000E+00 0. -1.
        -11    1    1    2    0    0  0.52309751124E+01 -0.67583754742E+01  0.49984238891E+03  0.49991544535E+03  0.00000000000E+00 0.  1.
         11    1    1    2    0    0 -0.20259675880E+01  0.84789481373E+01 -0.38816965447E+03  0.38826753374E+03  0.00000000000E+00 0. -1.
        -15    1    1    2    0    0 -0.15242263265E+01 -0.20073846958E+00 -0.72735315251E+02  0.72773260031E+02  0.17770000000E+01 0. -1.
         15    1    1    2    0    0 -0.16807811979E+01 -0.15198341936E+01 -0.38937419191E+02  0.39043760881E+02  0.17770000000E+01 0. -1.
</event>
<event>
 6    1  0.1823098E-004  0.5017473E+03  0.7546771E-02  0.9395909E-01
        -11   -1    0    0    0    0  0.00000000000E+00  0.00000000000E+00  0.50000000000E+03  0.50000000000E+03  0.00000000000E+00 0.  1.
         11   -1    0    0    0    0 -0.00000000000E+00 -0.00000000000E+00 -0.50000000000E+03  0.50000000000E+03  0.00000000000E+00 0.  1.
        -11    1    1    2    0    0  0.30387767935E+00 -0.95883442028E+01  0.46190075318E+03  0.46200036198E+03  0.00000000000E+00 0.  1.
         11    1    1    2    0    0  0.11667373684E+01  0.14016603005E+02 -0.49805417369E+03  0.49825273342E+03  0.00000000000E+00 0.  1.
        -15    1    1    2    0    0 -0.12609836994E+01 -0.96837397905E+01  0.29248810207E+02  0.30887141722E+02  0.17770000000E+01 0.  1.
         15    1    1    2    0    0 -0.20963134835E+00  0.52554809882E+01  0.69046103028E+01  0.88597628723E+01  0.17770000000E+01 0. -1.
</event>
<event>
 6    1  0.1823098E-004  0.5002861E+03  0.7546771E-02  0.9399170E-01
        -11   -1    0    0    0    0  0.00000000000E+00  0.00000000000E+00  0.50000000000E+03  0.50000000000E+03  0.00000000000E+00 0.  1.
         11   -1    0    0    0    0 -0.00000000000E+00 -0.00000000000E+00 -0.50000000000E+03  0.50000000000E+03  0.00000000000E+00 0. -1.
        -11    1    1    2    0    0 -0.23148927736E+00  0.88639897790E+01  0.49963524889E+03  0.49971392399E+03  0.00000000000E+00 0.  1.
         11    1    1    2    0    0  0.40198014625E+01 -0.76149747435E+01 -0.62308319567E+02  0.62900503428E+02  0.00000000000E+00 0. -1.
        -15    1    1    2    0    0  0.47559869396E+00  0.89947206306E+00 -0.14063254665E+03  0.14064745341E+03  0.17770000000E+01 0.  1.
         15    1    1    2    0    0 -0.42639108791E+01 -0.21484870985E+01 -0.29669438267E+03  0.29673811917E+03  0.17770000000E+01 0. -1.
</event>
<event>
 6    1  0.1823098E-004  0.5016488E+03  0.7546771E-02  0.9396128E-01
        -11   -1    0    0    0    0  0.00000000000E+00  0.00000000000E+00  0.50000000000E+03  0.50000000000E+03  0.00000000000E+00 0.  1.
         11   -1    0    0    0    0 -0.00000000000E+00 -0.00000000000E+00 -0.50000000000E+03  0.50000000000E+03  0.00000000000E+00 0.  1.
        -11    1    1    2    0    0 -0.96144299449E+01  0.15769519732E+02  0.49800887433E+03  0.49835123550E+03  0.00000000000E+00 0.  1.
         11    1    1    2    0    0  0.32756069643E+02 -0.55988672064E+01 -0.32251750708E+03  0.32422499870E+03  0.00000000000E+00 0.  1.
        -15    1    1    2    0    0 -0.12383915623E+02 -0.80229670915E+01 -0.91219300335E+02  0.92422117751E+02  0.17770000000E+01 0. -1.
         15    1    1    2    0    0 -0.10757724075E+02 -0.21476854341E+01 -0.84272066911E+02  0.85001648046E+02  0.17770000000E+01 0.  1.
</event>
<event>
 6    1  0.1823098E-004  0.5002102E+03  0.7546771E-02  0.9399340E-01
        -11   -1    0    0    0    0  0.00000000000E+00  0.00000000000E+00  0.50000000000E+03  0.50000000000E+03  0.00000000000E+00 0.  1.
         11   -1    0    0    0    0 -0.00000000000E+00 -0.00000000000E+00 -0.50000000000E+03  0.50000000000E+03  0.00000000000E+00 0. -1.
        -11    1    1    2    0    0 -0.88474725602E-02 -0.10897487592E+01  0.49868556050E+02  0.49880462239E+02  0.00000000000E+00 0.  1.
         11    1    1    2    0    0  0.14586627720E+02  0.12255855501E+02 -0.49942654567E+03  0.49978980604E+03  0.00000000000E+00 0. -1.
        -15    1    1    2    0    0 -0.95702015228E+01 -0.66784222371E+01  0.40966205005E+03  0.40983209130E+03  0.17770000000E+01 0.  1.
         15    1    1    2    0    0 -0.50075787246E+01 -0.44876845045E+01  0.39895939566E+02  0.40497640422E+02  0.17770000000E+01 0. -1.
</event>
<event>
 6    1  0.1823098E-004  0.5013310E+03  0.7546771E-02  0.9396837E-01
        -11   -1    0    0    0    0  0.00000000000E+00  0.00000000000E+00  0.50000000000E+03  0.50000000000E+03  0.00000000000E+00 0.  1.
         11   -1    0    0    0    0 -0.00000000000E+00 -0.00000000000E+00 -0.50000000000E+03  0.50000000000E+03  0.00000000000E+00 0.  1.
        -11    1    1    2    0    0  0.11055907524E+02  0.52963467650E+01  0.40004919421E+03  0.40023698251E+03  0.00000000000E+00 0.  1.
         11    1    1    2    0    0  0.90376603010E+01 -0.16985421866E+01 -0.49858424903E+03  0.49866904629E+03  0.00000000000E+00 0.  1.
        -15    1    1    2    0    0 -0.96814701859E+01  0.24779541084E+01  0.52582970954E+02  0.53553689741E+02  0.17770000000E+01 0. -1.
         15    1    1    2    0    0 -0.10412097639E+02 -0.60757586868E+01  0.45952083864E+02  0.47540281460E+02  0.17770000000E+01 0.  1.
</event>
<event>
 6    1  0.1823098E-004  0.5001026E+03  0.7546771E-02  0.9399580E-01
        -11   -1    0    0    0    0  0.00000000000E+00  0.00000000000E+00  0.50000000000E+03  0.50000000000E+03  0.00000000000E+00 0.  1.
         11   -1    0    0    0    0 -0.00000000000E+00 -0.00000000000E+00 -0.50000000000E+03  0.50000000000E+03  0.00000000000E+00 0. -1.
        -11    1    1    2    0    0 -0.20832129281E+01  0.22710340805E+01  0.17372326728E+03  0.17375059991E+03  0.00000000000E+00 0.  1.
         11    1    1    2    0    0 -0.37619177000E+01  0.82974412303E+01 -0.49981434124E+03  0.49989736473E+03  0.00000000000E+00 0. -1.
        -15    1    1    2    0    0  0.48377979499E+01 -0.80526355957E+01  0.21287022445E+03  0.21308481742E+03  0.17770000000E+01 0.  1.
         15    1    1    2    0    0  0.10073326782E+01 -0.25158397151E+01  0.11322084950E+03  0.11326721794E+03  0.17770000000E+01 0.  1.
</event>
<event>
 6    1  0.1823098E-004  0.4919265E+03  0.7546771E-02  0.9418058E-01
        -11   -1    0    0    0    0  0.00000000000E+00  0.00000000000E+00  0.50000000000E+03  0.50000000000E+03  0.00000000000E+00 0. -1.
         11   -1    0    0    0    0 -0.00000000000E+00 -0.00000000000E+00 -0.50000000000E+03  0.50000000000E+03  0.00000000000E+00 0. -1.
        -11    1    1    2    0    0 -0.88706283185E+01  0.36594605404E+01  0.49460687993E+03  0.49469995489E+03  0.00000000000E+00 0. -1.
         11    1    1    2    0    0 -0.22362720914E+01 -0.96249416674E+01 -0.48914906416E+03  0.48924886038E+03  0.00000000000E+00 0. -1.
        -15    1    1    2    0    0  0.53308449938E+00  0.20070449063E+01  0.10156942556E+01  0.29157798545E+01  0.17770000000E+01 0.  1.
         15    1    1    2    0    0  0.10573815911E+02  0.39584362207E+01 -0.64735100261E+01  0.13135404877E+02  0.17770000000E+01 0. -1.
</event>
<event>
 6    1  0.1823098E-004  0.5004893E+03  0.7546771E-02  0.9398715E-01
        -11   -1    0    0    0    0  0.00000000000E+00  0.00000000000E+00  0.50000000000E+03  0.50000000000E+03  0.00000000000E+00 0.  1.
         11   -1    0    0    0    0 -0.00000000000E+00 -0.00000000000E+00 -0.50000000000E+03  0.50000000000E+03  0.00000000000E+00 0. -1.
        -11    1    1    2    0    0 -0.74610111130E+01  0.69045428074E+01  0.49940721296E+03  0.49951066430E+03  0.00000000000E+00 0.  1.
         11    1    1    2    0    0  0.10742536348E+02 -0.15542911131E+02 -0.31951050965E+03  0.32006866443E+03  0.00000000000E+00 0. -1.
        -15    1    1    2    0    0 -0.17922204125E+01  0.84804910229E+01 -0.17089250467E+03  0.17112140913E+03  0.17770000000E+01 0. -1.
         15    1    1    2    0    0 -0.14893048222E+01  0.15787730062E+00 -0.90041986456E+01  0.92992621398E+01  0.17770000000E+01 0. -1.
</event>
<event>
 6    1  0.1823098E-004  0.5019282E+03  0.7546771E-02  0.9395506E-01
        -11   -1    0    0    0    0  0.00000000000E+00  0.00000000000E+00  0.50000000000E+03  0.50000000000E+03  0.00000000000E+00 0.  1.
         11   -1    0    0    0    0 -0.00000000000E+00 -0.00000000000E+00 -0.50000000000E+03  0.50000000000E+03  0.00000000000E+00 0. -1.
        -11    1    1    2    0    0 -0.22587851067E+01 -0.49036666716E+01  0.38967577604E+03  0.38971317465E+03  0.00000000000E+00 0.  1.
         11    1    1    2    0    0  0.26946204105E+02  0.99400364761E+01 -0.49724305082E+03  0.49807183601E+03  0.00000000000E+00 0. -1.
        -15    1    1    2    0    0 -0.23133264894E+02 -0.42232850598E+01  0.58363644812E+02  0.62948048787E+02  0.17770000000E+01 0.  1.
         15    1    1    2    0    0 -0.15541541048E+01 -0.81308474473E+00  0.49203629959E+02  0.49266940558E+02  0.17770000000E+01 0. -1.
</event>
<event>
 6    1  0.1823098E-004  0.5002451E+03  0.7546771E-02  0.9399262E-01
        -11   -1    0    0    0    0  0.00000000000E+00  0.00000000000E+00  0.50000000000E+03  0.50000000000E+03  0.00000000000E+00 0. -1.
         11   -1    0    0    0    0 -0.00000000000E+00 -0.00000000000E+00 -0.50000000000E+03  0.50000000000E+03  0.00000000000E+00 0. -1.
        -11    1    1    2    0    0 -0.21487593556E+02  0.12507460778E+02  0.49913610282E+03  0.49975494234E+03  0.00000000000E+00 0. -1.
         11    1    1    2    0    0  0.15204889746E+02 -0.14635573221E+02 -0.22494019110E+03  0.22592803777E+03  0.00000000000E+00 0. -1.
        -15    1    1    2    0    0  0.44189627295E+01  0.82197755884E-01 -0.18245187400E+03  0.18251404889E+03  0.17770000000E+01 0.  1.
         15    1    1    2    0    0  0.18637410800E+01  0.20459146877E+01 -0.91744037722E+02  0.91802970999E+02  0.17770000000E+01 0. -1.
</event>
<event>
 6    1  0.1823098E-004  0.5052030E+03  0.7546771E-02  0.9388242E-01
        -11   -1    0    0    0    0  0.00000000000E+00  0.00000000000E+00  0.50000000000E+03  0.50000000000E+03  0.00000000000E+00 0. -1.
         11   -1    0    0    0    0 -0.00000000000E+00 -0.00000000000E+00 -0.50000000000E+03  0.50000000000E+03  0.00000000000E+00 0.  1.
        -11    1    1    2    0    0 -0.13253357517E+01  0.12381087787E+02  0.49464028946E+03  0.49479699252E+03  0.00000000000E+00 0. -1.
         11    1    1    2    0    0  0.18561132518E+02 -0.82165906378E+01 -0.43042960054E+03  0.43090795887E+03  0.00000000000E+00 0.  1.
        -15    1    1    2    0    0 -0.40176253596E+01 -0.59872965468E+01  0.11922767794E+01  0.75211891604E+01  0.17770000000E+01 0.  1.
         15    1    1    2    0    0 -0.13218171407E+02  0.18227993974E+01 -0.65402965706E+02  0.66773859444E+02  0.17770000000E+01 0. -1.
</event>
<event>
 6    1  0.1823098E-004  0.5021612E+03  0.7546771E-02  0.9394987E-01
        -11   -1    0    0    0    0  0.00000000000E+00  0.00000000000E+00  0.50000000000E+03  0.50000000000E+03  0.00000000000E+00 0.  1.
         11   -1    0    0    0    0 -0.00000000000E+00 -0.00000000000E+00 -0.50000000000E+03  0.50000000000E+03  0.00000000000E+00 0.  1.
        -11    1    1    2    0    0 -0.39851944286E+01 -0.71386345689E+01  0.42768282812E+03  0.42776096520E+03  0.00000000000E+00 0.  1.
         11    1    1    2    0    0 -0.15629384756E+02  0.53010489165E+01 -0.49756513055E+03  0.49783876700E+03  0.00000000000E+00 0.  1.
        -15    1    1    2    0    0  0.72002459855E+01 -0.37509677361E+00  0.68774172260E+01  0.10121306069E+02  0.17770000000E+01 0. -1.
         15    1    1    2    0    0  0.12414333200E+02  0.22126824260E+01  0.63004885209E+02  0.64278961733E+02  0.17770000000E+01 0.  1.
</event>
<event>
 6    1  0.1823098E-004  0.5076259E+03  0.7546771E-02  0.9382906E-01
        -11   -1    0    0    0    0  0.00000000000E+00  0.00000000000E+00  0.50000000000E+03  0.50000000000E+03  0.00000000000E+00 0. -1.
         11   -1    0    0    0    0 -0.00000000000E+00 -0.00000000000E+00 -0.50000000000E+03  0.50000000000E+03  0.00000000000E+00 0. -1.
        -11    1    1    2    0    0 -0.78848820099E+01  0.41322715256E+01  0.42751801725E+03  0.42761068989E+03  0.00000000000E+00 0. -1.
         11    1    1    2    0    0 -0.30062580779E+02 -0.23477732772E+02 -0.49089440821E+03  0.49237412880E+03  0.00000000000E+00 0. -1.
        -15    1    1    2    0    0  0.34991069192E+02  0.18101618496E+02  0.39348493412E+02  0.55709112164E+02  0.17770000000E+01 0. -1.
         15    1    1    2    0    0  0.29563935971E+01  0.12438427504E+01  0.24027897545E+02  0.24306069146E+02  0.17770000000E+01 0.  1.
</event>
<event>
 6    1  0.1823098E-004  0.5026297E+03  0.7546771E-02  0.9393945E-01
        -11   -1    0    0    0    0  0.00000000000E+00  0.00000000000E+00  0.50000000000E+03  0.50000000000E+03  0.00000000000E+00 0.  1.
         11   -1    0    0    0    0 -0.00000000000E+00 -0.00000000000E+00 -0.50000000000E+03  0.50000000000E+03  0.00000000000E+00 0. -1.
        -11    1    1    2    0    0 -0.15540466460E+02 -0.55501756039E+01  0.44265526947E+03  0.44296275028E+03  0.00000000000E+00 0.  1.
         11    1    1    2    0    0 -0.38556049576E+01  0.17901612538E+02 -0.49703306842E+03  0.49737028914E+03  0.00000000000E+00 0. -1.
        -15    1    1    2    0    0  0.11455906447E+02 -0.98777139932E+01  0.27008290201E+02  0.31006652429E+02  0.17770000000E+01 0. -1.
         15    1    1    2    0    0  0.79401649701E+01 -0.24737229413E+01  0.27369508753E+02  0.28660308151E+02  0.17770000000E+01 0.  1.
</event>
<event>
 6    1  0.1823098E-004  0.5006645E+03  0.7546771E-02  0.9398324E-01
        -11   -1    0    0    0    0  0.00000000000E+00  0.00000000000E+00  0.50000000000E+03  0.50000000000E+03  0.00000000000E+00 0.  1.
         11   -1    0    0    0    0 -0.00000000000E+00 -0.00000000000E+00 -0.50000000000E+03  0.50000000000E+03  0.00000000000E+00 0. -1.
        -11    1    1    2    0    0  0.65084748103E+01 -0.75919514708E+01  0.49923537214E+03  0.49933551323E+03  0.00000000000E+00 0.  1.
         11    1    1    2    0    0 -0.99919784789E+01  0.25182257361E+01 -0.11260778968E+03  0.11307827108E+03  0.00000000000E+00 0. -1.
        -15    1    1    2    0    0 -0.69798570568E+01  0.43470511260E+01 -0.44202760323E+02  0.44996188807E+02  0.17770000000E+01 0.  1.
         15    1    1    2    0    0  0.10463360725E+02  0.72667460868E+00 -0.34242482214E+03  0.34259002689E+03  0.17770000000E+01 0. -1.
</event>
<event>
 6    1  0.1823098E-004  0.5025376E+03  0.7546771E-02  0.9394149E-01
        -11   -1    0    0    0    0  0.00000000000E+00  0.00000000000E+00  0.50000000000E+03  0.50000000000E+03  0.00000000000E+00 0. -1.
         11   -1    0    0    0    0 -0.00000000000E+00 -0.00000000000E+00 -0.50000000000E+03  0.50000000000E+03  0.00000000000E+00 0.  1.
        -11    1    1    2    0    0  0.34325032596E+01 -0.58458864574E+01  0.49741620372E+03  0.49746239676E+03  0.00000000000E+00 0. -1.
         11    1    1    2    0    0  0.83504420378E+01  0.89715893909E+01 -0.48020813106E+03  0.48036451621E+03  0.00000000000E+00 0.  1.
        -15    1    1    2    0    0 -0.52094740394E+01 -0.43290598150E+01 -0.75855620013E+01  0.10323655289E+02  0.17770000000E+01 0. -1.
         15    1    1    2    0    0 -0.65734712580E+01  0.12033568815E+01 -0.96225106628E+01  0.11849431742E+02  0.17770000000E+01 0.  1.
</event>
<event>
 6    1  0.1823098E-004  0.5000782E+03  0.7546771E-02  0.9399635E-01
        -11   -1    0    0    0    0  0.00000000000E+00  0.00000000000E+00  0.50000000000E+03  0.50000000000E+03  0.00000000000E+00 0.  1.
         11   -1    0    0    0    0 -0.00000000000E+00 -0.00000000000E+00 -0.50000000000E+03  0.50000000000E+03  0.00000000000E+00 0. -1.
        -11    1    1    2    0    0  0.33121487626E+01 -0.72939107713E+01  0.49985758368E+03  0.49992176931E+03  0.00000000000E+00 0.  1.
         11    1    1    2    0    0 -0.19843503163E+01  0.39435454171E+00 -0.13835407526E+02  0.13982548519E+02  0.00000000000E+00 0. -1.
        -15    1    1    2    0    0 -0.20642735422E+01  0.50274956233E+01 -0.35460566124E+03  0.35465175828E+03  0.17770000000E+01 0. -1.
         15    1    1    2    0    0  0.73647509597E+00  0.18720606063E+01 -0.13141651492E+03  0.13144392389E+03  0.17770000000E+01 0. -1.
</event>
<event>
 6    1  0.1823098E-004  0.5021579E+03  0.7546771E-02  0.9394994E-01
        -11   -1    0    0    0    0  0.00000000000E+00  0.00000000000E+00  0.50000000000E+03  0.50000000000E+03  0.00000000000E+00 0.  1.
         11   -1    0    0    0    0 -0.00000000000E+00 -0.00000000000E+00 -0.50000000000E+03  0.50000000000E+03  0.00000000000E+00 0. -1.
        -11    1    1    2    0    0 -0.14750922346E+01 -0.64588578052E+01  0.47129198335E+03  0.47133854745E+03  0.00000000000E+00 0.  1.
         11    1    1    2    0    0  0.11914671035E+02 -0.13014684816E+01 -0.49769781524E+03  0.49784211202E+03  0.00000000000E+00 0. -1.
        -15    1    1    2    0    0 -0.60796650766E+01  0.52036239684E+01  0.73004569145E+01  0.10976995491E+02  0.17770000000E+01 0.  1.
         15    1    1    2    0    0 -0.43599137238E+01  0.25567023184E+01  0.19105374976E+02  0.19842345033E+02  0.17770000000E+01 0. -1.
</event>
<event>
 6    1  0.1823098E-004  0.5000750E+03  0.7546771E-02  0.9399642E-01
        -11   -1    0    0    0    0  0.00000000000E+00  0.00000000000E+00  0.50000000000E+03  0.50000000000E+03  0.00000000000E+00 0. -1.
         11   -1    0    0    0    0 -0.00000000000E+00 -0.00000000000E+00 -0.50000000000E+03  0.50000000000E+03  0.00000000000E+00 0.  1.
        -11    1    1    2    0    0  0.18023645034E+01 -0.22624383435E+01  0.20583795523E+03  0.20585827881E+03  0.00000000000E+00 0. -1.
         11    1    1    2    0    0 -0.70781949340E+01  0.86712453888E+01 -0.49979965257E+03  0.49992497842E+03  0.00000000000E+00 0.  1.
        -15    1    1    2    0    0  0.44018897753E+01 -0.77839801395E+01  0.26430645663E+03  0.26446366050E+03  0.17770000000E+01 0.  1.
         15    1    1    2    0    0  0.87394065527E+00  0.13751730942E+01  0.29655240716E+02  0.29753082264E+02  0.17770000000E+01 0. -1.
</event>
<event>
 6    1  0.1823098E-004  0.5049805E+03  0.7546771E-02  0.9388734E-01
        -11   -1    0    0    0    0  0.00000000000E+00  0.00000000000E+00  0.50000000000E+03  0.50000000000E+03  0.00000000000E+00 0.  1.
         11   -1    0    0    0    0 -0.00000000000E+00 -0.00000000000E+00 -0.50000000000E+03  0.50000000000E+03  0.00000000000E+00 0. -1.
        -11    1    1    2    0    0 -0.55383641969E+01 -0.41020412582E+01  0.49497150748E+03  0.49501948794E+03  0.00000000000E+00 0.  1.
         11    1    1    2    0    0  0.26890261695E+02 -0.82058640437E+01 -0.45222620200E+02  0.53249485974E+02  0.00000000000E+00 0. -1.
        -15    1    1    2    0    0 -0.86475947691E+01  0.23378934404E+02 -0.29524594825E+03  0.29630167593E+03  0.17770000000E+01 0. -1.
         15    1    1    2    0    0 -0.12704302729E+02 -0.11071029102E+02 -0.15450293903E+03  0.15542935016E+03  0.17770000000E+01 0.  1.
</event>
<event>
 6    1  0.1823098E-004  0.5019555E+03  0.7546771E-02  0.9395445E-01
        -11   -1    0    0    0    0  0.00000000000E+00  0.00000000000E+00  0.50000000000E+03  0.50000000000E+03  0.00000000000E+00 0.  1.
         11   -1    0    0    0    0 -0.00000000000E+00 -0.00000000000E+00 -0.50000000000E+03  0.50000000000E+03  0.00000000000E+00 0. -1.
        -11    1    1    2    0    0  0.74565141877E+01 -0.14940900680E+01  0.49798646382E+03  0.49804452618E+03  0.00000000000E+00 0.  1.
         11    1    1    2    0    0 -0.70078586930E+01 -0.75235673829E+01 -0.46493403430E+03  0.46504770766E+03  0.00000000000E+00 0. -1.
        -15    1    1    2    0    0 -0.59309942308E+01  0.50341131903E+01 -0.24957402650E+02  0.26202073662E+02  0.17770000000E+01 0.  1.
         15    1    1    2    0    0  0.54823387360E+01  0.39835442607E+01 -0.80950268665E+01  0.10705692498E+02  0.17770000000E+01 0. -1.
</event>
<event>
 6    1  0.1823098E-004  0.5008883E+03  0.7546771E-02  0.9397824E-01
        -11   -1    0    0    0    0  0.00000000000E+00  0.00000000000E+00  0.50000000000E+03  0.50000000000E+03  0.00000000000E+00 0.  1.
         11   -1    0    0    0    0 -0.00000000000E+00 -0.00000000000E+00 -0.50000000000E+03  0.50000000000E+03  0.00000000000E+00 0. -1.
        -11    1    1    2    0    0  0.24579930429E+01 -0.13977446580E+01  0.19725171915E+03  0.19727198516E+03  0.00000000000E+00 0.  1.
         11    1    1    2    0    0  0.31559885268E+02 -0.15321037327E+02 -0.49787725354E+03  0.49911173112E+03  0.00000000000E+00 0. -1.
        -15    1    1    2    0    0 -0.35689597424E+02  0.12962188529E+02  0.26604344297E+03  0.26874530130E+03  0.17770000000E+01 0.  1.
         15    1    1    2    0    0  0.16717191126E+01  0.37565934551E+01  0.34582091421E+02  0.34870982424E+02  0.17770000000E+01 0. -1.
</event>
<event>
 6    1  0.1823098E-004  0.4939987E+03  0.7546771E-02  0.9413339E-01
        -11   -1    0    0    0    0  0.00000000000E+00  0.00000000000E+00  0.50000000000E+03  0.50000000000E+03  0.00000000000E+00 0. -1.
         11   -1    0    0    0    0 -0.00000000000E+00 -0.00000000000E+00 -0.50000000000E+03  0.50000000000E+03  0.00000000000E+00 0.  1.
        -11    1    1    2    0    0 -0.71724902649E+01  0.33271362549E+01  0.49360300506E+03  0.49366632563E+03  0.00000000000E+00 0. -1.
         11    1    1    2    0    0  0.56096891308E+01  0.12161711775E+02 -0.31168970135E+01  0.13751032413E+02  0.00000000000E+00 0.  1.
        -15    1    1    2    0    0  0.74212115391E+01 -0.28425229157E+02 -0.38607683945E+03  0.38719704509E+03  0.17770000000E+01 0.  1.
         15    1    1    2    0    0 -0.58584104050E+01  0.12936381127E+02 -0.10440926860E+03  0.10538559687E+03  0.17770000000E+01 0. -1.
</event>
<event>
 6    1  0.1823098E-004  0.5006472E+03  0.7546771E-02  0.9398363E-01
        -11   -1    0    0    0    0  0.00000000000E+00  0.00000000000E+00  0.50000000000E+03  0.50000000000E+03  0.00000000000E+00 0. -1.
         11   -1    0    0    0    0 -0.00000000000E+00 -0.00000000000E+00 -0.50000000000E+03  0.50000000000E+03  0.00000000000E+00 0. -1.
        -11    1    1    2    0    0 -0.73188318013E-01  0.44491008387E+02  0.49736683284E+03  0.49935280273E+03  0.00000000000E+00 0. -1.
         11    1    1    2    0    0  0.13795423903E+02 -0.37006721656E+02 -0.30963691122E+03  0.31214552369E+03  0.00000000000E+00 0. -1.
        -15    1    1    2    0    0 -0.44111813077E+00 -0.61550795057E+00 -0.26415670027E+02  0.26486199939E+02  0.17770000000E+01 0. -1.
         15    1    1    2    0    0 -0.13281117454E+02 -0.68687787808E+01 -0.16131425159E+03  0.16201547364E+03  0.17770000000E+01 0. -1.
</event>
<event>
 6    1  0.1823098E-004  0.5027023E+03  0.7546771E-02  0.9393783E-01
        -11   -1    0    0    0    0  0.00000000000E+00  0.00000000000E+00  0.50000000000E+03  0.50000000000E+03  0.00000000000E+00 0. -1.
         11   -1    0    0    0    0 -0.00000000000E+00 -0.00000000000E+00 -0.50000000000E+03  0.50000000000E+03  0.00000000000E+00 0. -1.
        -11    1    1    2    0    0  0.66653101951E+01  0.35434611155E+01  0.49724044647E+03  0.49729774189E+03  0.00000000000E+00 0. -1.
         11    1    1    2    0    0  0.28491516336E+02  0.31391601163E+01 -0.11721181941E+03  0.12066578404E+03  0.00000000000E+00 0. -1.
        -15    1    1    2    0    0 -0.24846806406E+01 -0.49398771055E+01 -0.37917049967E+02  0.38359306966E+02  0.17770000000E+01 0.  1.
         15    1    1    2    0    0 -0.32672145890E+02 -0.17427441263E+01 -0.34211157710E+03  0.34367716710E+03  0.17770000000E+01 0. -1.
</event>
<event>
 6    1  0.1823098E-004  0.4916378E+03  0.7546771E-02  0.9418718E-01
        -11   -1    0    0    0    0  0.00000000000E+00  0.00000000000E+00  0.50000000000E+03  0.50000000000E+03  0.00000000000E+00 0.  1.
         11   -1    0    0    0    0 -0.00000000000E+00 -0.00000000000E+00 -0.50000000000E+03  0.50000000000E+03  0.00000000000E+00 0.  1.
        -11    1    1    2    0    0 -0.13321053562E+01  0.88611967294E+01  0.48923790204E+03  0.48931995678E+03  0.00000000000E+00 0.  1.
         11    1    1    2    0    0  0.63787274828E+01  0.45384500922E+01 -0.49400947198E+03  0.49407149696E+03  0.00000000000E+00 0.  1.
        -15    1    1    2    0    0 -0.43256351300E+01 -0.12381909402E+02  0.54795334955E+01  0.14325006668E+02  0.17770000000E+01 0. -1.
         15    1    1    2    0    0 -0.72098699650E+00 -0.10177374197E+01 -0.70796354827E+00  0.22835395968E+01  0.17770000000E+01 0.  1.
</event>
<event>
 6    1  0.1823098E-004  0.5009540E+03  0.7546771E-02  0.9397678E-01
        -11   -1    0    0    0    0  0.00000000000E+00  0.00000000000E+00  0.50000000000E+03  0.50000000000E+03  0.00000000000E+00 0.  1.
         11   -1    0    0    0    0 -0.00000000000E+00 -0.00000000000E+00 -0.50000000000E+03  0.50000000000E+03  0.00000000000E+00 0. -1.
        -11    1    1    2    0    0 -0.53076295301E+01 -0.42541334557E+01  0.49899966789E+03  0.49904602708E+03  0.00000000000E+00 0.  1.
         11    1    1    2    0    0  0.15859884566E+02  0.15254686525E+02 -0.18243920967E+03  0.18376154828E+03  0.00000000000E+00 0. -1.
        -15    1    1    2    0    0 -0.62143947415E+01  0.14604046689E+01 -0.11832467071E+03  0.11851007093E+03  0.17770000000E+01 0.  1.
         15    1    1    2    0    0 -0.43378602940E+01 -0.12460957738E+02 -0.19823578751E+03  0.19868235371E+03  0.17770000000E+01 0. -1.
</event>
<event>
 6    1  0.1823098E-004  0.3747621E+03  0.7546771E-02  0.9734058E-01
        -11   -1    0    0    0    0  0.00000000000E+00  0.00000000000E+00  0.50000000000E+03  0.50000000000E+03  0.00000000000E+00 0. -1.
         11   -1    0    0    0    0 -0.00000000000E+00 -0.00000000000E+00 -0.50000000000E+03  0.50000000000E+03  0.00000000000E+00 0. -1.
        -11    1    1    2    0    0 -0.10809195314E+02  0.61060416759E+01  0.37142998313E+03  0.37163739696E+03  0.00000000000E+00 0. -1.
         11    1    1    2    0    0  0.19535103956E+03  0.10018212321E+03 -0.34394361801E+03  0.40803884476E+03  0.00000000000E+00 0. -1.
        -15    1    1    2    0    0 -0.28266773503E+02 -0.70504242644E+01  0.11079794986E+02  0.31219201664E+02  0.17770000000E+01 0. -1.
         15    1    1    2    0    0 -0.15627507074E+03 -0.99237740622E+02 -0.38566160110E+02  0.18910455662E+03  0.17770000000E+01 0.  1.
</event>
<event>
 6    1  0.1823098E-004  0.4925334E+03  0.7546771E-02  0.9416673E-01
        -11   -1    0    0    0    0  0.00000000000E+00  0.00000000000E+00  0.50000000000E+03  0.50000000000E+03  0.00000000000E+00 0. -1.
         11   -1    0    0    0    0 -0.00000000000E+00 -0.00000000000E+00 -0.50000000000E+03  0.50000000000E+03  0.00000000000E+00 0.  1.
        -11    1    1    2    0    0  0.64378869394E+01 -0.27416386640E+01  0.49305800089E+03  0.49310765074E+03  0.00000000000E+00 0. -1.
         11    1    1    2    0    0  0.59111526398E+01  0.53782096381E+01 -0.49197584272E+03  0.49204074697E+03  0.00000000000E+00 0.  1.
        -15    1    1    2    0    0 -0.11222253844E+02 -0.97331033268E+00 -0.27004742082E+01  0.11719070112E+02  0.17770000000E+01 0. -1.
         15    1    1    2    0    0 -0.11267857356E+01 -0.16632606414E+01  0.16183160343E+01  0.31325321773E+01  0.17770000000E+01 0.  1.
</event>
<event>
 6    1  0.1823098E-004  0.5072670E+03  0.7546771E-02  0.9383694E-01
        -11   -1    0    0    0    0  0.00000000000E+00  0.00000000000E+00  0.50000000000E+03  0.50000000000E+03  0.00000000000E+00 0.  1.
         11   -1    0    0    0    0 -0.00000000000E+00 -0.00000000000E+00 -0.50000000000E+03  0.50000000000E+03  0.00000000000E+00 0.  1.
        -11    1    1    2    0    0 -0.86297318286E+01 -0.58236833594E+01  0.43566860530E+03  0.43579297976E+03  0.00000000000E+00 0.  1.
         11    1    1    2    0    0  0.23582519706E+02 -0.34548726057E+02 -0.49095419132E+03  0.49273295778E+03  0.00000000000E+00 0.  1.
        -15    1    1    2    0    0 -0.33135472933E+01  0.23444293791E+01  0.17601872972E+01  0.47678017052E+01  0.17770000000E+01 0. -1.
         15    1    1    2    0    0 -0.11639240584E+02  0.38027980038E+02  0.53525398719E+02  0.66706260756E+02  0.17770000000E+01 0.  1.
</event>
<event>
 6    1  0.1823098E-004  0.5058031E+03  0.7546771E-02  0.9386918E-01
        -11   -1    0    0    0    0  0.00000000000E+00  0.00000000000E+00  0.50000000000E+03  0.50000000000E+03  0.00000000000E+00 0. -1.
         11   -1    0    0    0    0 -0.00000000000E+00 -0.00000000000E+00 -0.50000000000E+03  0.50000000000E+03  0.00000000000E+00 0.  1.
        -11    1    1    2    0    0  0.39950058343E+01 -0.23642284119E+02  0.49361490932E+03  0.49419692065E+03  0.00000000000E+00 0. -1.
         11    1    1    2    0    0 -0.92109035668E+01 -0.19584060638E+02 -0.19606578852E+02  0.29202638748E+02  0.00000000000E+00 0.  1.
        -15    1    1    2    0    0  0.16327479705E+01  0.62243865286E+01 -0.20328352598E+02  0.21396460033E+02  0.17770000000E+01 0. -1.
         15    1    1    2    0    0  0.35831497621E+01  0.37001958228E+02 -0.45367997788E+03  0.45520398057E+03  0.17770000000E+01 0.  1.
</event>
<event>
 6    1  0.1823098E-004  0.5073902E+03  0.7546771E-02  0.9383424E-01
        -11   -1    0    0    0    0  0.00000000000E+00  0.00000000000E+00  0.50000000000E+03  0.50000000000E+03  0.00000000000E+00 0. -1.
         11   -1    0    0    0    0 -0.00000000000E+00 -0.00000000000E+00 -0.50000000000E+03  0.50000000000E+03  0.00000000000E+00 0.  1.
        -11    1    1    2    0    0 -0.34578475037E+01 -0.10398615471E+02  0.40508396887E+03  0.40523216771E+03  0.00000000000E+00 0. -1.
         11    1    1    2    0    0 -0.35345395773E+02 -0.28557829891E+02 -0.49050946428E+03  0.49260976563E+03  0.00000000000E+00 0.  1.
        -15    1    1    2    0    0  0.43681010198E+00  0.17849298029E+01  0.33732346145E+01  0.42324010008E+01  0.17770000000E+01 0.  1.
         15    1    1    2    0    0  0.38366433174E+02  0.37171515559E+02  0.82052260792E+02  0.97925665653E+02  0.17770000000E+01 0. -1.
</event>
<event>
 6    1  0.1823098E-004  0.4966421E+03  0.7546771E-02  0.9407355E-01
        -11   -1    0    0    0    0  0.00000000000E+00  0.00000000000E+00  0.50000000000E+03  0.50000000000E+03  0.00000000000E+00 0. -1.
         11   -1    0    0    0    0 -0.00000000000E+00 -0.00000000000E+00 -0.50000000000E+03  0.50000000000E+03  0.00000000000E+00 0. -1.
        -11    1    1    2    0    0  0.14154599048E+02  0.64411680159E+01  0.49682303642E+03  0.49706636463E+03  0.00000000000E+00 0. -1.
         11    1    1    2    0    0  0.30106377882E+01 -0.59797371423E+01 -0.10462871517E+01  0.67761281708E+01  0.00000000000E+00 0. -1.
        -15    1    1    2    0    0 -0.16374423510E+02 -0.18961604956E+00 -0.47566156496E+03  0.47594667748E+03  0.17770000000E+01 0. -1.
         15    1    1    2    0    0 -0.79081332683E+00 -0.27181482407E+00 -0.20115184314E+02  0.20210829721E+02  0.17770000000E+01 0. -1.
</event>
<event>
 6    1  0.1823098E-004  0.5016538E+03  0.7546771E-02  0.9396117E-01
        -11   -1    0    0    0    0  0.00000000000E+00  0.00000000000E+00  0.50000000000E+03  0.50000000000E+03  0.00000000000E+00 0.  1.
         11   -1    0    0    0    0 -0.00000000000E+00 -0.00000000000E+00 -0.50000000000E+03  0.50000000000E+03  0.00000000000E+00 0. -1.
        -11    1    1    2    0    0  0.85418777470E+01 -0.61611348749E+01  0.49823488341E+03  0.49834618721E+03  0.00000000000E+00 0.  1.
         11    1    1    2    0    0  0.11603584970E+02  0.10537329139E+02 -0.37914886742E+03  0.37947271596E+03  0.00000000000E+00 0. -1.
        -15    1    1    2    0    0 -0.10839421373E+02 -0.10131016434E+02 -0.49126614428E+02  0.51348929140E+02  0.17770000000E+01 0.  1.
         15    1    1    2    0    0 -0.93060413442E+01  0.57548221697E+01 -0.69959401562E+02  0.70832167690E+02  0.17770000000E+01 0. -1.
</event>
<event>
 6    1  0.1823098E-004  0.5079546E+03  0.7546771E-02  0.9382185E-01
        -11   -1    0    0    0    0  0.00000000000E+00  0.00000000000E+00  0.50000000000E+03  0.50000000000E+03  0.00000000000E+00 0. -1.
         11   -1    0    0    0    0 -0.00000000000E+00 -0.00000000000E+00 -0.50000000000E+03  0.50000000000E+03  0.00000000000E+00 0.  1.
        -11    1    1    2    0    0 -0.71037733525E+00 -0.72232249154E+01  0.49199187336E+03  0.49204540752E+03  0.00000000000E+00 0. -1.
         11    1    1    2    0    0 -0.77009479783E+01  0.19831850679E+02 -0.46806382827E+03  0.46854706726E+03  0.00000000000E+00 0.  1.
        -15    1    1    2    0    0  0.23687848247E+01  0.82159981406E+01 -0.30403638524E+01  0.92474487480E+01  0.17770000000E+01 0. -1.
         15    1    1    2    0    0  0.60425404888E+01 -0.20824623904E+02 -0.20887681231E+02  0.30160076467E+02  0.17770000000E+01 0.  1.
</event>
<event>
 6    1  0.1823098E-004  0.5001055E+03  0.7546771E-02  0.9399574E-01
        -11   -1    0    0    0    0  0.00000000000E+00  0.00000000000E+00  0.50000000000E+03  0.50000000000E+03  0.00000000000E+00 0.  1.
         11   -1    0    0    0    0 -0.00000000000E+00 -0.00000000000E+00 -0.50000000000E+03  0.50000000000E+03  0.00000000000E+00 0.  1.
        -11    1    1    2    0    0  0.44059570482E+01  0.91707005315E+01  0.49979093464E+03  0.49989448142E+03  0.00000000000E+00 0.  1.
         11    1    1    2    0    0 -0.61810301117E+01 -0.10349283351E+01 -0.18010038951E+03  0.18020939629E+03  0.00000000000E+00 0.  1.
        -15    1    1    2    0    0 -0.53470251121E+00 -0.34346757497E+01 -0.51202911539E+02  0.51351521724E+02  0.17770000000E+01 0. -1.
         15    1    1    2    0    0  0.23097755747E+01 -0.47010964467E+01 -0.26848763359E+03  0.26854460056E+03  0.17770000000E+01 0.  1.
</event>
<event>
 6    1  0.1823098E-004  0.5078921E+03  0.7546771E-02  0.9382322E-01
        -11   -1    0    0    0    0  0.00000000000E+00  0.00000000000E+00  0.50000000000E+03  0.50000000000E+03  0.00000000000E+00 0.  1.
         11   -1    0    0    0    0 -0.00000000000E+00 -0.00000000000E+00 -0.50000000000E+03  0.50000000000E+03  0.00000000000E+00 0.  1.
        -11    1    1    2    0    0  0.62502641470E+01  0.84302305545E+01  0.49199595276E+03  0.49210786634E+03  0.00000000000E+00 0.  1.
         11    1    1    2    0    0 -0.11615032740E+02  0.15346988390E+02 -0.46409032359E+03  0.46448925443E+03  0.00000000000E+00 0.  1.
        -15    1    1    2    0    0 -0.83237285639E+01 -0.11581738611E+02 -0.87418421279E+01  0.16822563991E+02  0.17770000000E+01 0.  1.
         15    1    1    2    0    0  0.13688497157E+02 -0.12195480334E+02 -0.19163787041E+02  0.26580315231E+02  0.17770000000E+01 0. -1.
</event>
<event>
 6    1  0.1823098E-004  0.5003632E+03  0.7546771E-02  0.9398997E-01
        -11   -1    0    0    0    0  0.00000000000E+00  0.00000000000E+00  0.50000000000E+03  0.50000000000E+03  0.00000000000E+00 0.  1.
         11   -1    0    0    0    0 -0.00000000000E+00 -0.00000000000E+00 -0.50000000000E+03  0.50000000000E+03  0.00000000000E+00 0. -1.
        -11    1    1    2    0    0 -0.12183771499E+02  0.72411107001E+01  0.49943571340E+03  0.49963677786E+03  0.00000000000E+00 0.  1.
         11    1    1    2    0    0  0.44528916289E+01  0.25001948357E+01 -0.23741214626E+03  0.23746706384E+03  0.00000000000E+00 0. -1.
        -15    1    1    2    0    0 -0.20176962606E+00  0.15149220093E+01 -0.52731179420E+01  0.57705460319E+01  0.17770000000E+01 0. -1.
         15    1    1    2    0    0  0.79326494966E+01 -0.11256227545E+02 -0.25675044921E+03  0.25712561227E+03  0.17770000000E+01 0. -1.
</event>
<event>
 6    1  0.1823098E-004  0.5064043E+03  0.7546771E-02  0.9385592E-01
        -11   -1    0    0    0    0  0.00000000000E+00  0.00000000000E+00  0.50000000000E+03  0.50000000000E+03  0.00000000000E+00 0.  1.
         11   -1    0    0    0    0 -0.00000000000E+00 -0.00000000000E+00 -0.50000000000E+03  0.50000000000E+03  0.00000000000E+00 0. -1.
        -11    1    1    2    0    0 -0.55583220348E+01  0.28583065520E+02  0.49273604248E+03  0.49359567881E+03  0.00000000000E+00 0.  1.
         11    1    1    2    0    0 -0.99739422464E+01 -0.44117343815E+02 -0.74932803436E+02  0.87525679546E+02  0.00000000000E+00 0. -1.
        -15    1    1    2    0    0  0.16547524308E+01  0.15804983005E+02 -0.21681752096E+03  0.21740637253E+03  0.17770000000E+01 0. -1.
         15    1    1    2    0    0  0.13877511850E+02 -0.27070471007E+00 -0.20098571809E+03  0.20147226911E+03  0.17770000000E+01 0.  1.
</event>
<event>
 6    1  0.1823098E-004  0.5062414E+03  0.7546771E-02  0.9385951E-01
        -11   -1    0    0    0    0  0.00000000000E+00  0.00000000000E+00  0.50000000000E+03  0.50000000000E+03  0.00000000000E+00 0. -1.
         11   -1    0    0    0    0 -0.00000000000E+00 -0.00000000000E+00 -0.50000000000E+03  0.50000000000E+03  0.00000000000E+00 0.  1.
        -11    1    1    2    0    0 -0.72751905565E+00  0.86446350954E+01  0.49368234455E+03  0.49375856076E+03  0.00000000000E+00 0. -1.
         11    1    1    2    0    0 -0.34966250422E+02 -0.34393080178E+02 -0.34849858218E+03  0.35193292602E+03  0.00000000000E+00 0.  1.
        -15    1    1    2    0    0  0.27205347839E+02  0.22378797362E+02 -0.13832077532E+03  0.14274710553E+03  0.17770000000E+01 0. -1.
         15    1    1    2    0    0  0.84884216386E+01  0.33696477208E+01 -0.68629870485E+01  0.11561407696E+02  0.17770000000E+01 0.  1.
</event>
<event>
 6    1  0.1823098E-004  0.5003835E+03  0.7546771E-02  0.9398952E-01
        -11   -1    0    0    0    0  0.00000000000E+00  0.00000000000E+00  0.50000000000E+03  0.50000000000E+03  0.00000000000E+00 0.  1.
         11   -1    0    0    0    0 -0.00000000000E+00 -0.00000000000E+00 -0.50000000000E+03  0.50000000000E+03  0.00000000000E+00 0.  1.
        -11    1    1    2    0    0  0.22175432167E+01  0.10048829159E+02  0.49951046942E+03  0.49961645843E+03  0.00000000000E+00 0.  1.
         11    1    1    2    0    0  0.10764065801E+02  0.26346828432E+00 -0.16369008878E+03  0.16404383467E+03  0.00000000000E+00 0.  1.
        -15    1    1    2    0    0 -0.20066552969E+01 -0.53111563935E+01 -0.75498742675E+02  0.75732773106E+02  0.17770000000E+01 0. -1.
         15    1    1    2    0    0 -0.10974953721E+02 -0.50011410499E+01 -0.26032163797E+03  0.26060693380E+03  0.17770000000E+01 0.  1.
</event>
<event>
 6    1  0.1823098E-004  0.4807353E+03  0.7546771E-02  0.9443979E-01
        -11   -1    0    0    0    0  0.00000000000E+00  0.00000000000E+00  0.50000000000E+03  0.50000000000E+03  0.00000000000E+00 0. -1.
         11   -1    0    0    0    0 -0.00000000000E+00 -0.00000000000E+00 -0.50000000000E+03  0.50000000000E+03  0.00000000000E+00 0. -1.
        -11    1    1    2    0    0  0.10890079832E+02  0.90116795516E+00  0.48480433035E+03  0.48492746331E+03  0.00000000000E+00 0. -1.
         11    1    1    2    0    0  0.10146564937E+02  0.74874282228E+01 -0.47667746265E+03  0.47684422798E+03  0.00000000000E+00 0. -1.
        -15    1    1    2    0    0 -0.11101315217E+02 -0.10562319932E+01 -0.18720134407E+02  0.21862204527E+02  0.17770000000E+01 0.  1.
         15    1    1    2    0    0 -0.99353295519E+01 -0.73323641848E+01  0.10593266701E+02  0.16366104186E+02  0.17770000000E+01 0. -1.
</event>
<event>
 6    1  0.1823098E-004  0.5001145E+03  0.7546771E-02  0.9399554E-01
        -11   -1    0    0    0    0  0.00000000000E+00  0.00000000000E+00  0.50000000000E+03  0.50000000000E+03  0.00000000000E+00 0.  1.
         11   -1    0    0    0    0 -0.00000000000E+00 -0.00000000000E+00 -0.50000000000E+03  0.50000000000E+03  0.00000000000E+00 0. -1.
        -11    1    1    2    0    0  0.16061055538E+01  0.93425851730E+01  0.49979558853E+03  0.49988548067E+03  0.00000000000E+00 0.  1.
         11    1    1    2    0    0 -0.30880627925E+01  0.91628437812E+00 -0.33958407741E+02  0.34110836477E+02  0.00000000000E+00 0. -1.
        -15    1    1    2    0    0  0.31950792298E+01 -0.32362490915E+01 -0.21834657398E+03  0.21840115827E+03  0.17770000000E+01 0. -1.
         15    1    1    2    0    0 -0.17131219911E+01 -0.70226204596E+01 -0.24749060682E+03  0.24760252458E+03  0.17770000000E+01 0. -1.
</event>
<event>
 6    1  0.1823098E-004  0.5005535E+03  0.7546771E-02  0.9398572E-01
        -11   -1    0    0    0    0  0.00000000000E+00  0.00000000000E+00  0.50000000000E+03  0.50000000000E+03  0.00000000000E+00 0. -1.
         11   -1    0    0    0    0 -0.00000000000E+00 -0.00000000000E+00 -0.50000000000E+03  0.50000000000E+03  0.00000000000E+00 0.  1.
        -11    1    1    2    0    0  0.39950594965E+01  0.61215168923E+01  0.49336343167E+03  0.49341758094E+03  0.00000000000E+00 0. -1.
         11    1    1    2    0    0 -0.15765105650E+01 -0.48889542161E+01  0.31560256409E+01  0.60289100785E+01  0.00000000000E+00 0.  1.
        -15    1    1    2    0    0 -0.15596930854E+02 -0.28781512939E+02 -0.24724709567E+03  0.24941115410E+03  0.17770000000E+01 0. -1.
         15    1    1    2    0    0  0.13178381922E+02  0.27548950263E+02 -0.24927236164E+03  0.25114235489E+03  0.17770000000E+01 0.  1.
</event>
<event>
 6    1  0.1823098E-004  0.5035921E+03  0.7546771E-02  0.9391808E-01
        -11   -1    0    0    0    0  0.00000000000E+00  0.00000000000E+00  0.50000000000E+03  0.50000000000E+03  0.00000000000E+00 0.  1.
         11   -1    0    0    0    0 -0.00000000000E+00 -0.00000000000E+00 -0.50000000000E+03  0.50000000000E+03  0.00000000000E+00 0. -1.
        -11    1    1    2    0    0 -0.25403986366E+01 -0.14277812749E+02  0.49619598016E+03  0.49640785680E+03  0.00000000000E+00 0.  1.
         11    1    1    2    0    0 -0.14648183579E+02 -0.21967998550E+02 -0.30908264419E+03  0.31020838670E+03  0.00000000000E+00 0. -1.
        -15    1    1    2    0    0  0.17034561442E+02  0.70273202100E+01 -0.92935737264E+02  0.94761640460E+02  0.17770000000E+01 0. -1.
         15    1    1    2    0    0  0.15402077347E+00  0.29218491089E+02 -0.94177598712E+02  0.98622116040E+02  0.17770000000E+01 0. -1.
</event>
<event>
 6    1  0.1823098E-004  0.5075274E+03  0.7546771E-02  0.9383122E-01
        -11   -1    0    0    0    0  0.00000000000E+00  0.00000000000E+00  0.50000000000E+03  0.50000000000E+03  0.00000000000E+00 0.  1.
         11   -1    0    0    0    0 -0.00000000000E+00 -0.00000000000E+00 -0.50000000000E+03  0.50000000000E+03  0.00000000000E+00 0. -1.
        -11    1    1    2    0    0  0.32085243162E+01 -0.15554272488E+02  0.47788126327E+03  0.47814509493E+03  0.00000000000E+00 0.  1.
         11    1    1    2    0    0  0.13830391294E+02  0.92825837517E+01 -0.49219083339E+03  0.49247260082E+03  0.00000000000E+00 0. -1.
        -15    1    1    2    0    0 -0.13246082776E+02  0.31200017170E+00  0.48380436391E-01  0.13368474957E+02  0.17770000000E+01 0.  1.
         15    1    1    2    0    0 -0.37928328343E+01  0.59596885645E+01  0.14261189678E+02  0.16013829296E+02  0.17770000000E+01 0. -1.
</event>
<event>
 6    1  0.1823098E-004  0.5060643E+03  0.7546771E-02  0.9386342E-01
        -11   -1    0    0    0    0  0.00000000000E+00  0.00000000000E+00  0.50000000000E+03  0.50000000000E+03  0.00000000000E+00 0. -1.
         11   -1    0    0    0    0 -0.00000000000E+00 -0.00000000000E+00 -0.50000000000E+03  0.50000000000E+03  0.00000000000E+00 0.  1.
        -11    1    1    2    0    0  0.12542973081E+02  0.66062623988E+01  0.49373224726E+03  0.49393572544E+03  0.00000000000E+00 0. -1.
         11    1    1    2    0    0 -0.21499723828E+02  0.31573248649E+02 -0.24502650187E+03  0.24798607779E+03  0.00000000000E+00 0.  1.
        -15    1    1    2    0    0  0.15428056117E+02 -0.16916337944E+02 -0.27835971103E+02  0.36085820224E+02  0.17770000000E+01 0. -1.
         15    1    1    2    0    0 -0.64713053705E+01 -0.21263173104E+02 -0.22086977429E+03  0.22199237655E+03  0.17770000000E+01 0.  1.
</event>
<event>
 6    1  0.1823098E-004  0.5033709E+03  0.7546771E-02  0.9392298E-01
        -11   -1    0    0    0    0  0.00000000000E+00  0.00000000000E+00  0.50000000000E+03  0.50000000000E+03  0.00000000000E+00 0.  1.
         11   -1    0    0    0    0 -0.00000000000E+00 -0.00000000000E+00 -0.50000000000E+03  0.50000000000E+03  0.00000000000E+00 0.  1.
        -11    1    1    2    0    0 -0.17428812257E+02  0.22745065211E+02  0.49580170722E+03  0.49662907121E+03  0.00000000000E+00 0.  1.
         11    1    1    2    0    0  0.22292439920E+02 -0.33577936526E+02 -0.10788211526E+03  0.11516501852E+03  0.00000000000E+00 0.  1.
        -15    1    1    2    0    0 -0.14105549468E+01  0.10261489919E+02 -0.32040480888E+03  0.32057711572E+03  0.17770000000E+01 0.  1.
         15    1    1    2    0    0 -0.34530727158E+01  0.57138139615E+00 -0.67514783083E+02  0.67628794545E+02  0.17770000000E+01 0. -1.
</event>
<event>
 6    1  0.1823098E-004  0.5002280E+03  0.7546771E-02  0.9399300E-01
        -11   -1    0    0    0    0  0.00000000000E+00  0.00000000000E+00  0.50000000000E+03  0.50000000000E+03  0.00000000000E+00 0. -1.
         11   -1    0    0    0    0 -0.00000000000E+00 -0.00000000000E+00 -0.50000000000E+03  0.50000000000E+03  0.00000000000E+00 0.  1.
        -11    1    1    2    0    0 -0.73620631510E+01  0.20979225192E+00  0.49971772291E+03  0.49977199459E+03  0.00000000000E+00 0. -1.
         11    1    1    2    0    0  0.17542075021E+01 -0.18358356836E+01 -0.92440043075E+01  0.95864045530E+01  0.00000000000E+00 0.  1.
        -15    1    1    2    0    0  0.33738638128E+01  0.56036120358E+01 -0.17712661067E+03  0.17725624773E+03  0.17770000000E+01 0.  1.
         15    1    1    2    0    0  0.22339918361E+01 -0.39775686042E+01 -0.31334710794E+03  0.31338535312E+03  0.17770000000E+01 0. -1.
</event>
<event>
 6    1  0.1823098E-004  0.5064578E+03  0.7546771E-02  0.9385475E-01
        -11   -1    0    0    0    0  0.00000000000E+00  0.00000000000E+00  0.50000000000E+03  0.50000000000E+03  0.00000000000E+00 0.  1.
         11   -1    0    0    0    0 -0.00000000000E+00 -0.00000000000E+00 -0.50000000000E+03  0.50000000000E+03  0.00000000000E+00 0.  1.
        -11    1    1    2    0    0 -0.78204662850E+01  0.59935170076E+01  0.48488612347E+03  0.48498622111E+03  0.00000000000E+00 0.  1.
         11    1    1    2    0    0 -0.59519655777E+01 -0.78595923711E+01 -0.49344373204E+03  0.49354221276E+03  0.00000000000E+00 0.  1.
        -15    1    1    2    0    0  0.25682194107E+01  0.43271433635E+01 -0.20790371852E+01  0.57271323756E+01  0.17770000000E+01 0.  1.
         15    1    1    2    0    0  0.11204212452E+02 -0.24610680000E+01  0.10636645754E+02  0.15744433755E+02  0.17770000000E+01 0. -1.
</event>
<event>
 6    1  0.1823098E-004  0.5052454E+03  0.7546771E-02  0.9388149E-01
        -11   -1    0    0    0    0  0.00000000000E+00  0.00000000000E+00  0.50000000000E+03  0.50000000000E+03  0.00000000000E+00 0. -1.
         11   -1    0    0    0    0 -0.00000000000E+00 -0.00000000000E+00 -0.50000000000E+03  0.50000000000E+03  0.00000000000E+00 0. -1.
        -11    1    1    2    0    0 -0.21944473973E+01  0.69302203994E+01  0.49470115851E+03  0.49475456520E+03  0.00000000000E+00 0. -1.
         11    1    1    2    0    0 -0.62472635751E+01  0.21134932332E+02 -0.43542225928E+03  0.43597965267E+03  0.00000000000E+00 0. -1.
        -15    1    1    2    0    0 -0.54576726841E+01 -0.46350710852E+01 -0.64490444135E+01  0.97988763611E+01  0.17770000000E+01 0.  1.
         15    1    1    2    0    0  0.13899383656E+02 -0.23430081647E+02 -0.52829854818E+02  0.59466905763E+02  0.17770000000E+01 0. -1.
</event>
<event>
 6    1  0.1823098E-004  0.4915922E+03  0.7546771E-02  0.9418822E-01
        -11   -1    0    0    0    0  0.00000000000E+00  0.00000000000E+00  0.50000000000E+03  0.50000000000E+03  0.00000000000E+00 0.  1.
         11   -1    0    0    0    0 -0.00000000000E+00 -0.00000000000E+00 -0.50000000000E+03  0.50000000000E+03  0.00000000000E+00 0. -1.
        -11    1    1    2    0    0 -0.20872117991E+01 -0.73627657783E+01  0.48967854946E+03  0.48973834705E+03  0.00000000000E+00 0.  1.
         11    1    1    2    0    0 -0.20869426633E+01 -0.68437966245E+01 -0.49351316812E+03  0.49356503116E+03  0.00000000000E+00 0. -1.
        -15    1    1    2    0    0  0.33829373482E+01  0.29636280960E+01  0.96140323028E+00  0.49304545191E+01  0.17770000000E+01 0. -1.
         15    1    1    2    0    0  0.79121711414E+00  0.11242934307E+02  0.28732154289E+01  0.11766167271E+02  0.17770000000E+01 0.  1.
</event>
<event>
 6    1  0.1823098E-004  0.4858101E+03  0.7546771E-02  0.9432133E-01
        -11   -1    0    0    0    0  0.00000000000E+00  0.00000000000E+00  0.50000000000E+03  0.50000000000E+03  0.00000000000E+00 0.  1.
         11   -1    0    0    0    0 -0.00000000000E+00 -0.00000000000E+00 -0.50000000000E+03  0.50000000000E+03  0.00000000000E+00 0.  1.
        -11    1    1    2    0    0 -0.66610604167E+01 -0.13762056572E+01  0.48756859747E+03  0.48761603840E+03  0.00000000000E+00 0.  1.
         11    1    1    2    0    0  0.14250980522E+02 -0.23183606505E+02 -0.48358717030E+03  0.48435226987E+03  0.00000000000E+00 0.  1.
        -15    1    1    2    0    0  0.17283855289E+01  0.51737772961E+01  0.11415352742E+01  0.58494546608E+01  0.17770000000E+01 0.  1.
         15    1    1    2    0    0 -0.93183056346E+01  0.19386034866E+02 -0.51229624503E+01  0.22182237061E+02  0.17770000000E+01 0. -1.
</event>
<event>
 6    1  0.1823098E-004  0.5018895E+03  0.7546771E-02  0.9395592E-01
        -11   -1    0    0    0    0  0.00000000000E+00  0.00000000000E+00  0.50000000000E+03  0.50000000000E+03  0.00000000000E+00 0.  1.
         11   -1    0    0    0    0 -0.00000000000E+00 -0.00000000000E+00 -0.50000000000E+03  0.50000000000E+03  0.00000000000E+00 0.  1.
        -11    1    1    2    0    0 -0.10119717541E+01  0.60259028248E+01  0.43974978190E+03  0.43979223080E+03  0.00000000000E+00 0.  1.
         11    1    1    2    0    0  0.62079689889E+01  0.12675273462E+02 -0.49791051735E+03  0.49811051457E+03  0.00000000000E+00 0.  1.
        -15    1    1    2    0    0 -0.69748575011E+01 -0.12060718908E+02  0.31171559217E+02  0.34189668187E+02  0.17770000000E+01 0.  1.
         15    1    1    2    0    0  0.17788602663E+01 -0.66404573786E+01  0.26989176241E+02  0.27907586445E+02  0.17770000000E+01 0.  1.
</event>
<event>
 6    1  0.1823098E-004  0.5017842E+03  0.7546771E-02  0.9395826E-01
        -11   -1    0    0    0    0  0.00000000000E+00  0.00000000000E+00  0.50000000000E+03  0.50000000000E+03  0.00000000000E+00 0. -1.
         11   -1    0    0    0    0 -0.00000000000E+00 -0.00000000000E+00 -0.50000000000E+03  0.50000000000E+03  0.00000000000E+00 0.  1.
        -11    1    1    2    0    0  0.40994738242E+01 -0.92770896381E+01  0.47274715513E+03  0.47285594293E+03  0.00000000000E+00 0. -1.
         11    1    1    2    0    0  0.57955914227E+01  0.45093257957E+01 -0.49816170207E+03  0.49821582102E+03  0.00000000000E+00 0.  1.
        -15    1    1    2    0    0 -0.45173095706E+01 -0.17530481578E+01  0.87613263272E+01  0.10168472433E+02  0.17770000000E+01 0. -1.
         15    1    1    2    0    0 -0.53777556763E+01  0.65208120002E+01  0.16653220618E+02  0.18759763624E+02  0.17770000000E+01 0.  1.
</event>
<event>
 6    1  0.2551953E-004  0.5000465E+03  0.7546771E-02  0.9399706E-01
        -11   -1    0    0    0    0  0.00000000000E+00  0.00000000000E+00  0.50000000000E+03  0.50000000000E+03  0.00000000000E+00 0.  1.
         11   -1    0    0    0    0 -0.00000000000E+00 -0.00000000000E+00 -0.50000000000E+03  0.50000000000E+03  0.00000000000E+00 0. -1.
        -11    1    1    2    0    0 -0.20045544171E+01 -0.74668281250E+00  0.82185216325E+02  0.82213049791E+02  0.00000000000E+00 0.  1.
         11    1    1    2    0    0  0.33244489656E+01 -0.84768617535E+01 -0.49987053119E+03  0.49995345493E+03  0.00000000000E+00 0. -1.
        -15    1    1    2    0    0 -0.10612730096E+01  0.63687840062E+01  0.35014191964E+03  0.35020595273E+03  0.17770000000E+01 0.  1.
         15    1    1    2    0    0 -0.25862153883E+00  0.28547605598E+01  0.67543395227E+02  0.67627542545E+02  0.17770000000E+01 0.  1.
</event>
<event>
 6    1  0.1823098E-004  0.5003568E+03  0.7546771E-02  0.9399012E-01
        -11   -1    0    0    0    0  0.00000000000E+00  0.00000000000E+00  0.50000000000E+03  0.50000000000E+03  0.00000000000E+00 0. -1.
         11   -1    0    0    0    0 -0.00000000000E+00 -0.00000000000E+00 -0.50000000000E+03  0.50000000000E+03  0.00000000000E+00 0. -1.
        -11    1    1    2    0    0 -0.27428883129E+02 -0.16638300939E+02  0.49861223239E+03  0.49964320768E+03  0.00000000000E+00 0. -1.
         11    1    1    2    0    0  0.27331454766E+02  0.14750906061E+02 -0.28543324770E+03  0.28711798366E+03  0.00000000000E+00 0. -1.
        -15    1    1    2    0    0 -0.10641444866E+01  0.20275166011E+01 -0.11236581067E+03  0.11240318662E+03  0.17770000000E+01 0.  1.
         15    1    1    2    0    0  0.11615728500E+01 -0.14012172290E+00 -0.10081317403E+03  0.10083562204E+03  0.17770000000E+01 0.  1.
</event>
<event>
 6    1  0.1823098E-004  0.5007806E+03  0.7546771E-02  0.9398065E-01
        -11   -1    0    0    0    0  0.00000000000E+00  0.00000000000E+00  0.50000000000E+03  0.50000000000E+03  0.00000000000E+00 0.  1.
         11   -1    0    0    0    0 -0.00000000000E+00 -0.00000000000E+00 -0.50000000000E+03  0.50000000000E+03  0.00000000000E+00 0.  1.
        -11    1    1    2    0    0  0.70607602613E+01  0.12033778638E+01  0.15701499504E+03  0.15717827815E+03  0.00000000000E+00 0.  1.
         11    1    1    2    0    0  0.93698133771E+01 -0.12201429682E+02 -0.49898226837E+03  0.49921936304E+03  0.00000000000E+00 0.  1.
        -15    1    1    2    0    0 -0.14903117818E+02  0.17819873148E+02  0.18380647802E+03  0.18527717045E+03  0.17770000000E+01 0.  1.
         15    1    1    2    0    0 -0.15274558207E+01 -0.68218213301E+01  0.15816079531E+03  0.15832518836E+03  0.17770000000E+01 0. -1.
</event>
<event>
 6    1  0.1823098E-004  0.5078183E+03  0.7546771E-02  0.9382484E-01
        -11   -1    0    0    0    0  0.00000000000E+00  0.00000000000E+00  0.50000000000E+03  0.50000000000E+03  0.00000000000E+00 0.  1.
         11   -1    0    0    0    0 -0.00000000000E+00 -0.00000000000E+00 -0.50000000000E+03  0.50000000000E+03  0.00000000000E+00 0.  1.
        -11    1    1    2    0    0 -0.15458395604E+02 -0.94170186907E+00  0.43837300195E+03  0.43864648367E+03  0.00000000000E+00 0.  1.
         11    1    1    2    0    0  0.42382352695E+01 -0.11570068733E+02 -0.49202741375E+03  0.49218167887E+03  0.00000000000E+00 0.  1.
        -15    1    1    2    0    0  0.43247691258E+01 -0.98474771945E+01  0.41176016337E+02  0.42594582818E+02  0.17770000000E+01 0. -1.
         15    1    1    2    0    0  0.68953912084E+01  0.22359247797E+02  0.12478395467E+02  0.26577254643E+02  0.17770000000E+01 0.  1.
</event>
<event>
 6    1  0.1823098E-004  0.5004895E+03  0.7546771E-02  0.9398715E-01
        -11   -1    0    0    0    0  0.00000000000E+00  0.00000000000E+00  0.50000000000E+03  0.50000000000E+03  0.00000000000E+00 0.  1.
         11   -1    0    0    0    0 -0.00000000000E+00 -0.00000000000E+00 -0.50000000000E+03  0.50000000000E+03  0.00000000000E+00 0. -1.
        -11    1    1    2    0    0  0.55978048953E+01  0.47597964168E+01  0.49945649647E+03  0.49951054338E+03  0.00000000000E+00 0.  1.
         11    1    1    2    0    0  0.10714621111E+02 -0.93924296407E+01 -0.24825150427E+03  0.24866006960E+03  0.00000000000E+00 0. -1.
        -15    1    1    2    0    0 -0.57536467761E+01  0.20449529337E+01 -0.69309458343E+02  0.69600610835E+02  0.17770000000E+01 0.  1.
         15    1    1    2    0    0 -0.10558779230E+02  0.25876802902E+01 -0.18189553385E+03  0.18222877619E+03  0.17770000000E+01 0.  1.
</event>
<event>
 6    1  0.1823098E-004  0.5110160E+03  0.7546771E-02  0.9375492E-01
        -11   -1    0    0    0    0  0.00000000000E+00  0.00000000000E+00  0.50000000000E+03  0.50000000000E+03  0.00000000000E+00 0.  1.
         11   -1    0    0    0    0 -0.00000000000E+00 -0.00000000000E+00 -0.50000000000E+03  0.50000000000E+03  0.00000000000E+00 0. -1.
        -11    1    1    2    0    0 -0.13026899829E+02 -0.20538568121E+01  0.44338174424E+03  0.44357782809E+03  0.00000000000E+00 0.  1.
         11    1    1    2    0    0 -0.75468162195E+01 -0.47487789274E+01 -0.48890264737E+03  0.48898395060E+03  0.00000000000E+00 0. -1.
        -15    1    1    2    0    0  0.65514774463E+01  0.17356380244E+02  0.18890556068E-01  0.18636627317E+02  0.17770000000E+01 0.  1.
         15    1    1    2    0    0  0.14022238602E+02 -0.10553744504E+02  0.45502012578E+02  0.48801593992E+02  0.17770000000E+01 0. -1.
</event>
<event>
 6    1  0.1823098E-004  0.5005469E+03  0.7546771E-02  0.9398587E-01
        -11   -1    0    0    0    0  0.00000000000E+00  0.00000000000E+00  0.50000000000E+03  0.50000000000E+03  0.00000000000E+00 0. -1.
         11   -1    0    0    0    0 -0.00000000000E+00 -0.00000000000E+00 -0.50000000000E+03  0.50000000000E+03  0.00000000000E+00 0.  1.
        -11    1    1    2    0    0 -0.12356287621E+02  0.39329198726E+01  0.49928469906E+03  0.49945305727E+03  0.00000000000E+00 0. -1.
         11    1    1    2    0    0  0.17769418620E+01  0.54455224578E+01 -0.27365529931E+02  0.27958602712E+02  0.00000000000E+00 0.  1.
        -15    1    1    2    0    0  0.24582592414E+01 -0.14205540042E+02 -0.34498952752E+03  0.34529519578E+03  0.17770000000E+01 0.  1.
         15    1    1    2    0    0  0.81210865179E+01  0.48270977119E+01 -0.12692964162E+03  0.12729314423E+03  0.17770000000E+01 0. -1.
</event>
<event>
 6    1  0.1823098E-004  0.5044484E+03  0.7546771E-02  0.9389911E-01
        -11   -1    0    0    0    0  0.00000000000E+00  0.00000000000E+00  0.50000000000E+03  0.50000000000E+03  0.00000000000E+00 0.  1.
         11   -1    0    0    0    0 -0.00000000000E+00 -0.00000000000E+00 -0.50000000000E+03  0.50000000000E+03  0.00000000000E+00 0.  1.
        -11    1    1    2    0    0  0.13876173568E+02 -0.24393209683E+02  0.49475636279E+03  0.49555164756E+03  0.00000000000E+00 0.  1.
         11    1    1    2    0    0 -0.32103047399E+02  0.10209472117E+02 -0.58384505688E+02  0.67406153114E+02  0.00000000000E+00 0.  1.
        -15    1    1    2    0    0  0.48185189869E+01  0.53227349828E+01 -0.94944789202E+02  0.95232454334E+02  0.17770000000E+01 0. -1.
         15    1    1    2    0    0  0.13408354844E+02  0.88610025831E+01 -0.34142706790E+03  0.34180974499E+03  0.17770000000E+01 0.  1.
</event>
<event>
 6    1  0.1823098E-004  0.5064511E+03  0.7546771E-02  0.9385489E-01
        -11   -1    0    0    0    0  0.00000000000E+00  0.00000000000E+00  0.50000000000E+03  0.50000000000E+03  0.00000000000E+00 0. -1.
         11   -1    0    0    0    0 -0.00000000000E+00 -0.00000000000E+00 -0.50000000000E+03  0.50000000000E+03  0.00000000000E+00 0.  1.
        -11    1    1    2    0    0  0.84804028775E+01  0.30819123939E+01  0.45736514083E+03  0.45745413700E+03  0.00000000000E+00 0. -1.
         11    1    1    2    0    0  0.12591634016E+02  0.16076018068E+02 -0.49312624504E+03  0.49354886400E+03  0.00000000000E+00 0.  1.
        -15    1    1    2    0    0 -0.11975281963E+02 -0.15345799343E+02  0.33402400285E+02  0.38701149974E+02  0.17770000000E+01 0.  1.
         15    1    1    2    0    0 -0.90967549311E+01 -0.38121311188E+01  0.23587039270E+01  0.10295849026E+02  0.17770000000E+01 0. -1.
</event>
<event>
 6    1  0.1823098E-004  0.5030527E+03  0.7546771E-02  0.9393005E-01
        -11   -1    0    0    0    0  0.00000000000E+00  0.00000000000E+00  0.50000000000E+03  0.50000000000E+03  0.00000000000E+00 0.  1.
         11   -1    0    0    0    0 -0.00000000000E+00 -0.00000000000E+00 -0.50000000000E+03  0.50000000000E+03  0.00000000000E+00 0.  1.
        -11    1    1    2    0    0  0.29119666491E+01  0.11566148222E+02  0.48702307875E+03  0.48716910264E+03  0.00000000000E+00 0.  1.
         11    1    1    2    0    0 -0.54664152373E+00 -0.20664623824E+02 -0.49651712743E+03  0.49694726413E+03  0.00000000000E+00 0.  1.
        -15    1    1    2    0    0 -0.32984999240E+01  0.20807017710E+01  0.52178706777E+00  0.43173385728E+01  0.17770000000E+01 0. -1.
         15    1    1    2    0    0  0.93317479860E+00  0.70177738312E+01  0.89722616063E+01  0.11566294657E+02  0.17770000000E+01 0.  1.
</event>
<event>
 6    1  0.1823098E-004  0.5017621E+03  0.7546771E-02  0.9395875E-01
        -11   -1    0    0    0    0  0.00000000000E+00  0.00000000000E+00  0.50000000000E+03  0.50000000000E+03  0.00000000000E+00 0.  1.
         11   -1    0    0    0    0 -0.00000000000E+00 -0.00000000000E+00 -0.50000000000E+03  0.50000000000E+03  0.00000000000E+00 0. -1.
        -11    1    1    2    0    0  0.58375925688E+01 -0.61001359432E+01  0.49816632159E+03  0.49823786801E+03  0.00000000000E+00 0.  1.
         11    1    1    2    0    0 -0.14998405523E+02  0.17500637664E+02 -0.34689656672E+03  0.34766140495E+03  0.00000000000E+00 0. -1.
        -15    1    1    2    0    0 -0.51632883511E+01  0.20527346739E+01 -0.11010818441E+02  0.12460702948E+02  0.17770000000E+01 0.  1.
         15    1    1    2    0    0  0.14324101305E+02 -0.13453236395E+02 -0.14025893643E+03  0.14164002410E+03  0.17770000000E+01 0. -1.
</event>
<event>
 6    1  0.1823098E-004  0.5003419E+03  0.7546771E-02  0.9399045E-01
        -11   -1    0    0    0    0  0.00000000000E+00  0.00000000000E+00  0.50000000000E+03  0.50000000000E+03  0.00000000000E+00 0.  1.
         11   -1    0    0    0    0 -0.00000000000E+00 -0.00000000000E+00 -0.50000000000E+03  0.50000000000E+03  0.00000000000E+00 0.  1.
        -11    1    1    2    0    0 -0.61426033989E+01 -0.59418431795E+01  0.35750553020E+03  0.35760766379E+03  0.00000000000E+00 0.  1.
         11    1    1    2    0    0 -0.17152664112E+01  0.87268362257E+01 -0.49957898794E+03  0.49965814814E+03  0.00000000000E+00 0.  1.
        -15    1    1    2    0    0  0.90705798077E+01  0.97402667136E+00  0.88846336307E+02  0.89331144346E+02  0.17770000000E+01 0.  1.
         15    1    1    2    0    0 -0.12127099977E+01 -0.37590197175E+01  0.53227121433E+02  0.53403043732E+02  0.17770000000E+01 0. -1.
</event>
<event>
 6    1  0.1823098E-004  0.5003710E+03  0.7546771E-02  0.9398980E-01
        -11   -1    0    0    0    0  0.00000000000E+00  0.00000000000E+00  0.50000000000E+03  0.50000000000E+03  0.00000000000E+00 0. -1.
         11   -1    0    0    0    0 -0.00000000000E+00 -0.00000000000E+00 -0.50000000000E+03  0.50000000000E+03  0.00000000000E+00 0.  1.
        -11    1    1    2    0    0 -0.51674006305E+00 -0.77117939368E+01  0.49956924559E+03  0.49962903231E+03  0.00000000000E+00 0. -1.
         11    1    1    2    0    0 -0.70447756273E+01 -0.24956751031E+01 -0.33125079360E+03  0.33133509551E+03  0.00000000000E+00 0.  1.
        -15    1    1    2    0    0  0.80173290985E+01  0.40985268614E+01 -0.10015968273E+03  0.10057929837E+03  0.17770000000E+01 0.  1.
         15    1    1    2    0    0 -0.45581340809E+00  0.61089421784E+01 -0.68158769264E+02  0.68456573804E+02  0.17770000000E+01 0. -1.
</event>
<event>
 6    1  0.1823098E-004  0.5049361E+03  0.7546771E-02  0.9388832E-01
        -11   -1    0    0    0    0  0.00000000000E+00  0.00000000000E+00  0.50000000000E+03  0.50000000000E+03  0.00000000000E+00 0. -1.
         11   -1    0    0    0    0 -0.00000000000E+00 -0.00000000000E+00 -0.50000000000E+03  0.50000000000E+03  0.00000000000E+00 0.  1.
        -11    1    1    2    0    0 -0.54062346939E+01  0.93455119983E+01  0.48455130995E+03  0.48467157740E+03  0.00000000000E+00 0. -1.
         11    1    1    2    0    0 -0.74750064291E+01 -0.31588758680E+01 -0.49499742727E+03  0.49506394256E+03  0.00000000000E+00 0.  1.
        -15    1    1    2    0    0  0.10565279112E+02 -0.54793653197E+00  0.82945490054E+01  0.13560332937E+02  0.17770000000E+01 0.  1.
         15    1    1    2    0    0  0.23159620114E+01 -0.56386995983E+01  0.21515683096E+01  0.67041471038E+01  0.17770000000E+01 0. -1.
</event>
<event>
 6    1  0.1823098E-004  0.5032148E+03  0.7546771E-02  0.9392645E-01
        -11   -1    0    0    0    0  0.00000000000E+00  0.00000000000E+00  0.50000000000E+03  0.50000000000E+03  0.00000000000E+00 0.  1.
         11   -1    0    0    0    0 -0.00000000000E+00 -0.00000000000E+00 -0.50000000000E+03  0.50000000000E+03  0.00000000000E+00 0.  1.
        -11    1    1    2    0    0  0.12330586003E+02 -0.50552165596E+01  0.49660644276E+03  0.49678522277E+03  0.00000000000E+00 0.  1.
         11    1    1    2    0    0 -0.13863329292E+02 -0.29913214247E+01 -0.12783961242E+02  0.19093704930E+02  0.00000000000E+00 0.  1.
        -15    1    1    2    0    0 -0.40089809992E+01  0.19851847494E+01 -0.35102689897E+03  0.35105990147E+03  0.17770000000E+01 0.  1.
         15    1    1    2    0    0  0.55417242890E+01  0.60613532350E+01 -0.13279558255E+03  0.13306117083E+03  0.17770000000E+01 0. -1.
</event>
<event>
 6    1  0.1823098E-004  0.5001726E+03  0.7546771E-02  0.9399424E-01
        -11   -1    0    0    0    0  0.00000000000E+00  0.00000000000E+00  0.50000000000E+03  0.50000000000E+03  0.00000000000E+00 0.  1.
         11   -1    0    0    0    0 -0.00000000000E+00 -0.00000000000E+00 -0.50000000000E+03  0.50000000000E+03  0.00000000000E+00 0. -1.
        -11    1    1    2    0    0 -0.12234795192E+02 -0.27005737174E+01  0.34335641768E+03  0.34358494274E+03  0.00000000000E+00 0.  1.
         11    1    1    2    0    0  0.12809613916E+02 -0.45985848354E+01 -0.49964210058E+03  0.49982743208E+03  0.00000000000E+00 0. -1.
        -15    1    1    2    0    0 -0.64985835969E+00  0.16580713647E+01  0.90940686506E+02  0.90975478606E+02  0.17770000000E+01 0.  1.
         15    1    1    2    0    0  0.75039635537E-01  0.56410871882E+01  0.65344996392E+02  0.65612146574E+02  0.17770000000E+01 0. -1.
</event>
<event>
 6    1  0.1823098E-004  0.5025182E+03  0.7546771E-02  0.9394193E-01
        -11   -1    0    0    0    0  0.00000000000E+00  0.00000000000E+00  0.50000000000E+03  0.50000000000E+03  0.00000000000E+00 0.  1.
         11   -1    0    0    0    0 -0.00000000000E+00 -0.00000000000E+00 -0.50000000000E+03  0.50000000000E+03  0.00000000000E+00 0.  1.
        -11    1    1    2    0    0  0.35164278108E+01 -0.78336979226E+01  0.33531813440E+03  0.33542805987E+03  0.00000000000E+00 0.  1.
         11    1    1    2    0    0 -0.32077666506E+02 -0.77855742895E+01 -0.49638544598E+03  0.49748176131E+03  0.00000000000E+00 0.  1.
        -15    1    1    2    0    0  0.69057621010E+00  0.40802057308E+01  0.86719141676E+02  0.86836007717E+02  0.17770000000E+01 0. -1.
         15    1    1    2    0    0  0.27870662485E+02  0.11539066481E+02  0.74348169902E+02  0.80254171103E+02  0.17770000000E+01 0.  1.
</event>
<event>
 6    1  0.1823098E-004  0.5002717E+03  0.7546771E-02  0.9399202E-01
        -11   -1    0    0    0    0  0.00000000000E+00  0.00000000000E+00  0.50000000000E+03  0.50000000000E+03  0.00000000000E+00 0. -1.
         11   -1    0    0    0    0 -0.00000000000E+00 -0.00000000000E+00 -0.50000000000E+03  0.50000000000E+03  0.00000000000E+00 0.  1.
        -11    1    1    2    0    0 -0.23090828077E+01  0.15394426105E+01  0.17938125164E+03  0.17940271789E+03  0.00000000000E+00 0. -1.
         11    1    1    2    0    0  0.27373786133E+02  0.27122151043E+01 -0.49897062100E+03  0.49972828707E+03  0.00000000000E+00 0.  1.
        -15    1    1    2    0    0 -0.52362832822E+01  0.63998130909E+00  0.14048496784E+03  0.14059520673E+03  0.17770000000E+01 0. -1.
         15    1    1    2    0    0 -0.19828420044E+02 -0.48916390238E+01  0.17910440153E+03  0.18027378831E+03  0.17770000000E+01 0.  1.
</event>
<event>
 6    1  0.1823098E-004  0.5024928E+03  0.7546771E-02  0.9394249E-01
        -11   -1    0    0    0    0  0.00000000000E+00  0.00000000000E+00  0.50000000000E+03  0.50000000000E+03  0.00000000000E+00 0. -1.
         11   -1    0    0    0    0 -0.00000000000E+00 -0.00000000000E+00 -0.50000000000E+03  0.50000000000E+03  0.00000000000E+00 0.  1.
        -11    1    1    2    0    0 -0.29915001961E+02 -0.40964685288E+02  0.49491448986E+03  0.49750715076E+03  0.00000000000E+00 0. -1.
         11    1    1    2    0    0  0.30879637981E+02  0.48720418235E+02 -0.25003382874E+03  0.25660114323E+03  0.00000000000E+00 0.  1.
        -15    1    1    2    0    0  0.34848268491E+01 -0.48032051886E+01 -0.22826074635E+03  0.22834478503E+03  0.17770000000E+01 0.  1.
         15    1    1    2    0    0 -0.44494628693E+01 -0.29525277577E+01 -0.16619914769E+02  0.17546920981E+02  0.17770000000E+01 0. -1.
</event>
<event>
 6    1  0.1823098E-004  0.5040319E+03  0.7546771E-02  0.9390833E-01
        -11   -1    0    0    0    0  0.00000000000E+00  0.00000000000E+00  0.50000000000E+03  0.50000000000E+03  0.00000000000E+00 0.  1.
         11   -1    0    0    0    0 -0.00000000000E+00 -0.00000000000E+00 -0.50000000000E+03  0.50000000000E+03  0.00000000000E+00 0. -1.
        -11    1    1    2    0    0 -0.70413375508E+01 -0.17334200388E+01  0.36135110500E+03  0.36142385956E+03  0.00000000000E+00 0.  1.
         11    1    1    2    0    0  0.40236764950E+02 -0.25427383834E+00 -0.49433314313E+03  0.49596806178E+03  0.00000000000E+00 0. -1.
        -15    1    1    2    0    0  0.85435950133E+01 -0.20946237532E+01  0.16328086373E+02  0.18631816821E+02  0.17770000000E+01 0. -1.
         15    1    1    2    0    0 -0.41739022412E+02  0.40823176304E+01  0.11665395176E+03  0.12397626184E+03  0.17770000000E+01 0.  1.
</event>
<event>
 6    1  0.1823098E-004  0.5003542E+03  0.7546771E-02  0.9399017E-01
        -11   -1    0    0    0    0  0.00000000000E+00  0.00000000000E+00  0.50000000000E+03  0.50000000000E+03  0.00000000000E+00 0.  1.
         11   -1    0    0    0    0 -0.00000000000E+00 -0.00000000000E+00 -0.50000000000E+03  0.50000000000E+03  0.00000000000E+00 0. -1.
        -11    1    1    2    0    0  0.34420947830E+01  0.54896270482E+01  0.29896749029E+03  0.29903769707E+03  0.00000000000E+00 0.  1.
         11    1    1    2    0    0 -0.20083545084E+01  0.79068605849E+01 -0.49957918627E+03  0.49964578982E+03  0.00000000000E+00 0. -1.
        -15    1    1    2    0    0  0.17422136408E+01 -0.74757714689E+01  0.15272834930E+03  0.15293145156E+03  0.17770000000E+01 0. -1.
         15    1    1    2    0    0 -0.31759539154E+01 -0.59207161642E+01  0.47883346683E+02  0.48385061556E+02  0.17770000000E+01 0.  1.
</event>
<event>
 6    1  0.1823098E-004  0.5003919E+03  0.7546771E-02  0.9398933E-01
        -11   -1    0    0    0    0  0.00000000000E+00  0.00000000000E+00  0.50000000000E+03  0.50000000000E+03  0.00000000000E+00 0. -1.
         11   -1    0    0    0    0 -0.00000000000E+00 -0.00000000000E+00 -0.50000000000E+03  0.50000000000E+03  0.00000000000E+00 0. -1.
        -11    1    1    2    0    0  0.59470372053E+01  0.12515179768E+02  0.49941595358E+03  0.49960813811E+03  0.00000000000E+00 0. -1.
         11    1    1    2    0    0 -0.51441333322E+01 -0.12024246304E+02 -0.19117931222E+03  0.19162613086E+03  0.00000000000E+00 0. -1.
        -15    1    1    2    0    0  0.48970773139E+01 -0.24650723739E+01 -0.36158352361E+02  0.36614780110E+02  0.17770000000E+01 0.  1.
         15    1    1    2    0    0 -0.56999811871E+01  0.19741389094E+01 -0.27207828900E+03  0.27215095092E+03  0.17770000000E+01 0. -1.
</event>
<event>
 6    1  0.1823098E-004  0.5012408E+03  0.7546771E-02  0.9397038E-01
        -11   -1    0    0    0    0  0.00000000000E+00  0.00000000000E+00  0.50000000000E+03  0.50000000000E+03  0.00000000000E+00 0. -1.
         11   -1    0    0    0    0 -0.00000000000E+00 -0.00000000000E+00 -0.50000000000E+03  0.50000000000E+03  0.00000000000E+00 0. -1.
        -11    1    1    2    0    0  0.98201377413E+01  0.24386794834E+01  0.49865657026E+03  0.49875921779E+03  0.00000000000E+00 0. -1.
         11    1    1    2    0    0 -0.19087380269E+02 -0.28597077066E+01 -0.32351413682E+03  0.32408934376E+03  0.00000000000E+00 0. -1.
        -15    1    1    2    0    0 -0.69789474050E+01 -0.38870142317E+01 -0.32642892249E+02  0.33653093912E+02  0.17770000000E+01 0.  1.
         15    1    1    2    0    0  0.16246189932E+02  0.43080424548E+01 -0.14249954119E+03  0.14349834454E+03  0.17770000000E+01 0. -1.
</event>
<event>
 6    1  0.1823098E-004  0.5002302E+03  0.7546771E-02  0.9399295E-01
        -11   -1    0    0    0    0  0.00000000000E+00  0.00000000000E+00  0.50000000000E+03  0.50000000000E+03  0.00000000000E+00 0.  1.
         11   -1    0    0    0    0 -0.00000000000E+00 -0.00000000000E+00 -0.50000000000E+03  0.50000000000E+03  0.00000000000E+00 0.  1.
        -11    1    1    2    0    0  0.13913109167E+01 -0.79660812948E+01  0.49970440841E+03  0.49976983701E+03  0.00000000000E+00 0.  1.
         11    1    1    2    0    0  0.58167769316E+01  0.21594036596E+01 -0.82042408682E+02  0.82276696217E+02  0.00000000000E+00 0.  1.
        -15    1    1    2    0    0 -0.72388822923E+01  0.75113738800E+01 -0.39761256459E+03  0.39775335499E+03  0.17770000000E+01 0.  1.
         15    1    1    2    0    0  0.30794444007E-01 -0.17046962447E+01 -0.20049435141E+02  0.20200111783E+02  0.17770000000E+01 0.  1.
</event>
<event>
 6    1  0.1823098E-004  0.5019564E+03  0.7546771E-02  0.9395443E-01
        -11   -1    0    0    0    0  0.00000000000E+00  0.00000000000E+00  0.50000000000E+03  0.50000000000E+03  0.00000000000E+00 0.  1.
         11   -1    0    0    0    0 -0.00000000000E+00 -0.00000000000E+00 -0.50000000000E+03  0.50000000000E+03  0.00000000000E+00 0. -1.
        -11    1    1    2    0    0 -0.60571348451E+01 -0.48536356319E+01  0.39327337831E+03  0.39334996727E+03  0.00000000000E+00 0.  1.
         11    1    1    2    0    0 -0.10839076553E+02  0.29225853892E+02 -0.49706720146E+03  0.49804361143E+03  0.00000000000E+00 0. -1.
        -15    1    1    2    0    0  0.94914872985E+01 -0.19310175666E+02  0.57533779946E+02  0.61451320403E+02  0.17770000000E+01 0.  1.
         15    1    1    2    0    0  0.74047240999E+01 -0.50620425944E+01  0.46260043206E+02  0.47155100898E+02  0.17770000000E+01 0. -1.
</event>
<event>
 6    1  0.1823098E-004  0.5011163E+03  0.7546771E-02  0.9397315E-01
        -11   -1    0    0    0    0  0.00000000000E+00  0.00000000000E+00  0.50000000000E+03  0.50000000000E+03  0.00000000000E+00 0. -1.
         11   -1    0    0    0    0 -0.00000000000E+00 -0.00000000000E+00 -0.50000000000E+03  0.50000000000E+03  0.00000000000E+00 0. -1.
        -11    1    1    2    0    0 -0.84150405140E+01 -0.51420229192E+01  0.49878626816E+03  0.49888374860E+03  0.00000000000E+00 0. -1.
         11    1    1    2    0    0  0.14021900337E+01 -0.51062124371E+01 -0.55848904998E+01  0.76961382679E+01  0.00000000000E+00 0. -1.
        -15    1    1    2    0    0  0.73651498430E+01  0.97833110068E+01 -0.37538278213E+03  0.37558667369E+03  0.17770000000E+01 0. -1.
         15    1    1    2    0    0 -0.35229936266E+00  0.46492434952E+00 -0.11781859553E+03  0.11783343945E+03  0.17770000000E+01 0.  1.
</event>
<event>
 6    1  0.1823098E-004  0.5005858E+03  0.7546771E-02  0.9398500E-01
        -11   -1    0    0    0    0  0.00000000000E+00  0.00000000000E+00  0.50000000000E+03  0.50000000000E+03  0.00000000000E+00 0.  1.
         11   -1    0    0    0    0 -0.00000000000E+00 -0.00000000000E+00 -0.50000000000E+03  0.50000000000E+03  0.00000000000E+00 0.  1.
        -11    1    1    2    0    0  0.49451971845E+01 -0.24129684816E+01  0.38407490190E+03  0.38411431587E+03  0.00000000000E+00 0.  1.
         11    1    1    2    0    0 -0.17236332387E+02  0.85160952514E+00 -0.49911599142E+03  0.49941424618E+03  0.00000000000E+00 0.  1.
        -15    1    1    2    0    0 -0.24290715864E+01  0.14829330687E+01  0.19459342169E+02  0.19746473252E+02  0.17770000000E+01 0. -1.
         15    1    1    2    0    0  0.14720206789E+02  0.78425887771E-01  0.95581747357E+02  0.96724964696E+02  0.17770000000E+01 0.  1.
</event>
<event>
 6    1  0.1823098E-004  0.4800109E+03  0.7546771E-02  0.9445682E-01
        -11   -1    0    0    0    0  0.00000000000E+00  0.00000000000E+00  0.50000000000E+03  0.50000000000E+03  0.00000000000E+00 0. -1.
         11   -1    0    0    0    0 -0.00000000000E+00 -0.00000000000E+00 -0.50000000000E+03  0.50000000000E+03  0.00000000000E+00 0. -1.
        -11    1    1    2    0    0  0.11929239004E+01  0.33506283243E+02  0.48156713548E+03  0.48273284543E+03  0.00000000000E+00 0. -1.
         11    1    1    2    0    0 -0.21378924476E+02 -0.23703126209E+02 -0.47649672014E+03  0.47756467719E+03  0.00000000000E+00 0. -1.
        -15    1    1    2    0    0  0.98833766179E+01  0.61246447588E+01  0.99776086860E+01  0.15424098382E+02  0.17770000000E+01 0.  1.
         15    1    1    2    0    0  0.10302623957E+02 -0.15927801793E+02 -0.15048024029E+02  0.24278378993E+02  0.17770000000E+01 0. -1.
</event>
<event>
 6    1  0.1887885E-004  0.5028327E+03  0.7546771E-02  0.9393493E-01
        -11   -1    0    0    0    0  0.00000000000E+00  0.00000000000E+00  0.50000000000E+03  0.50000000000E+03  0.00000000000E+00 0.  1.
         11   -1    0    0    0    0 -0.00000000000E+00 -0.00000000000E+00 -0.50000000000E+03  0.50000000000E+03  0.00000000000E+00 0.  1.
        -11    1    1    2    0    0 -0.39711877789E+01 -0.62137223793E+01  0.46981973073E+03  0.46987760115E+03  0.00000000000E+00 0.  1.
         11    1    1    2    0    0 -0.82753714095E+01 -0.24053049262E+01 -0.49709257572E+03  0.49716727175E+03  0.00000000000E+00 0.  1.
        -15    1    1    2    0    0  0.78403380006E+01  0.71358032301E+01  0.90093259934E+01  0.14025557798E+02  0.17770000000E+01 0. -1.
         15    1    1    2    0    0  0.44062211878E+01  0.14832240754E+01  0.18263518994E+02  0.18929569299E+02  0.17770000000E+01 0.  1.
</event>
<event>
 6    1  0.1823098E-004  0.4797595E+03  0.7546771E-02  0.9446274E-01
        -11   -1    0    0    0    0  0.00000000000E+00  0.00000000000E+00  0.50000000000E+03  0.50000000000E+03  0.00000000000E+00 0.  1.
         11   -1    0    0    0    0 -0.00000000000E+00 -0.00000000000E+00 -0.50000000000E+03  0.50000000000E+03  0.00000000000E+00 0.  1.
        -11    1    1    2    0    0 -0.40264297834E+01 -0.99296460900E+01  0.48114708468E+03  0.48126637853E+03  0.00000000000E+00 0.  1.
         11    1    1    2    0    0 -0.24359351614E+02 -0.11724502887E+02 -0.47815768719E+03  0.47892130439E+03  0.00000000000E+00 0.  1.
        -15    1    1    2    0    0  0.14418542651E+02  0.83635498504E+01 -0.96434053678E+01  0.19338984833E+02  0.17770000000E+01 0. -1.
         15    1    1    2    0    0  0.13967238746E+02  0.13290599127E+02  0.66540078847E+01  0.20473332246E+02  0.17770000000E+01 0.  1.
</event>
<event>
 6    1  0.1823098E-004  0.5025757E+03  0.7546771E-02  0.9394065E-01
        -11   -1    0    0    0    0  0.00000000000E+00  0.00000000000E+00  0.50000000000E+03  0.50000000000E+03  0.00000000000E+00 0. -1.
         11   -1    0    0    0    0 -0.00000000000E+00 -0.00000000000E+00 -0.50000000000E+03  0.50000000000E+03  0.00000000000E+00 0.  1.
        -11    1    1    2    0    0  0.72114111993E+01  0.74594429876E+00  0.36235541717E+03  0.36242793661E+03  0.00000000000E+00 0. -1.
         11    1    1    2    0    0  0.30939333485E+02  0.94413373158E+01 -0.49637139649E+03  0.49742431028E+03  0.00000000000E+00 0.  1.
        -15    1    1    2    0    0 -0.75753669006E+01 -0.64659066497E+01  0.30751690121E+02  0.32373110860E+02  0.17770000000E+01 0.  1.
         15    1    1    2    0    0 -0.30575377784E+02 -0.37213749648E+01  0.10326428920E+03  0.10777464225E+03  0.17770000000E+01 0. -1.
</event>
<event>
 6    1  0.1823098E-004  0.5003321E+03  0.7546771E-02  0.9399067E-01
        -11   -1    0    0    0    0  0.00000000000E+00  0.00000000000E+00  0.50000000000E+03  0.50000000000E+03  0.00000000000E+00 0.  1.
         11   -1    0    0    0    0 -0.00000000000E+00 -0.00000000000E+00 -0.50000000000E+03  0.50000000000E+03  0.00000000000E+00 0. -1.
        -11    1    1    2    0    0  0.23809518170E+02 -0.99176506998E+01  0.49900178598E+03  0.49966792509E+03  0.00000000000E+00 0.  1.
         11    1    1    2    0    0 -0.20504862652E+02 -0.27450206573E+01 -0.21686916738E+03  0.21785366715E+03  0.00000000000E+00 0. -1.
        -15    1    1    2    0    0 -0.32605991387E+01  0.72790806039E+01 -0.14705583081E+03  0.14728269290E+03  0.17770000000E+01 0. -1.
         15    1    1    2    0    0 -0.44056379161E-01  0.53835907532E+01 -0.13507678779E+03  0.13519571487E+03  0.17770000000E+01 0. -1.
</event>
<event>
 6    1  0.1823098E-004  0.5003965E+03  0.7546771E-02  0.9398923E-01
        -11   -1    0    0    0    0  0.00000000000E+00  0.00000000000E+00  0.50000000000E+03  0.50000000000E+03  0.00000000000E+00 0. -1.
         11   -1    0    0    0    0 -0.00000000000E+00 -0.00000000000E+00 -0.50000000000E+03  0.50000000000E+03  0.00000000000E+00 0. -1.
        -11    1    1    2    0    0 -0.32641560040E+01  0.66516557944E+01  0.49954850690E+03  0.49960345273E+03  0.00000000000E+00 0. -1.
         11    1    1    2    0    0  0.78167753875E+01 -0.13870606362E+02 -0.31282211194E+03  0.31322702537E+03  0.00000000000E+00 0. -1.
        -15    1    1    2    0    0 -0.37005127970E+01  0.92011865917E+01 -0.14509534210E+03  0.14544473747E+03  0.17770000000E+01 0. -1.
         15    1    1    2    0    0 -0.85210658648E+00 -0.19822360239E+01 -0.41631052851E+02  0.41724784430E+02  0.17770000000E+01 0.  1.
</event>
<event>
 6    1  0.1823098E-004  0.5014023E+03  0.7546771E-02  0.9396677E-01
        -11   -1    0    0    0    0  0.00000000000E+00  0.00000000000E+00  0.50000000000E+03  0.50000000000E+03  0.00000000000E+00 0.  1.
         11   -1    0    0    0    0 -0.00000000000E+00 -0.00000000000E+00 -0.50000000000E+03  0.50000000000E+03  0.00000000000E+00 0. -1.
        -11    1    1    2    0    0 -0.51690788538E+01 -0.53949432999E+01  0.49854169197E+03  0.49859767691E+03  0.00000000000E+00 0.  1.
         11    1    1    2    0    0  0.13007243872E+02  0.41856135568E+01 -0.46683205473E+03  0.46703198507E+03  0.00000000000E+00 0. -1.
        -15    1    1    2    0    0 -0.18524856661E+01  0.32685228714E+01 -0.35886570771E+01  0.54910047824E+01  0.17770000000E+01 0.  1.
         15    1    1    2    0    0 -0.59856793525E+01 -0.20591931283E+01 -0.28120980161E+02  0.28879333231E+02  0.17770000000E+01 0. -1.
</event>
<event>
 6    1  0.1823098E-004  0.5002652E+03  0.7546771E-02  0.9399217E-01
        -11   -1    0    0    0    0  0.00000000000E+00  0.00000000000E+00  0.50000000000E+03  0.50000000000E+03  0.00000000000E+00 0.  1.
         11   -1    0    0    0    0 -0.00000000000E+00 -0.00000000000E+00 -0.50000000000E+03  0.50000000000E+03  0.00000000000E+00 0.  1.
        -11    1    1    2    0    0 -0.39321139569E+01 -0.34275235360E+01  0.38213983229E+03  0.38217543204E+03  0.00000000000E+00 0.  1.
         11    1    1    2    0    0  0.86872959823E+01  0.13510084621E+00 -0.49965931322E+03  0.49973484635E+03  0.00000000000E+00 0.  1.
        -15    1    1    2    0    0  0.25408251979E+01  0.24325182231E+01  0.33518728501E+02  0.33749604841E+02  0.17770000000E+01 0. -1.
         15    1    1    2    0    0 -0.72960072233E+01  0.85990446672E+00  0.84000752436E+02  0.84340116765E+02  0.17770000000E+01 0.  1.
</event>
<event>
 6    1  0.1823098E-004  0.5001738E+03  0.7546771E-02  0.9399421E-01
        -11   -1    0    0    0    0  0.00000000000E+00  0.00000000000E+00  0.50000000000E+03  0.50000000000E+03  0.00000000000E+00 0.  1.
         11   -1    0    0    0    0 -0.00000000000E+00 -0.00000000000E+00 -0.50000000000E+03  0.50000000000E+03  0.00000000000E+00 0. -1.
        -11    1    1    2    0    0  0.46600126663E+00 -0.50998761127E+01  0.19085076086E+03  0.19091945635E+03  0.00000000000E+00 0.  1.
         11    1    1    2    0    0 -0.12410343607E+02  0.21595453031E+00 -0.49967205201E+03  0.49982619262E+03  0.00000000000E+00 0. -1.
        -15    1    1    2    0    0  0.27203864219E+01  0.56493219529E+01  0.93470176368E+02  0.93697102090E+02  0.17770000000E+01 0. -1.
         15    1    1    2    0    0  0.92239559182E+01 -0.76540037048E+00  0.21535111479E+03  0.21555724894E+03  0.17770000000E+01 0.  1.
</event>
<event>
 6    1  0.1823098E-004  0.5010103E+03  0.7546771E-02  0.9397552E-01
        -11   -1    0    0    0    0  0.00000000000E+00  0.00000000000E+00  0.50000000000E+03  0.50000000000E+03  0.00000000000E+00 0. -1.
         11   -1    0    0    0    0 -0.00000000000E+00 -0.00000000000E+00 -0.50000000000E+03  0.50000000000E+03  0.00000000000E+00 0.  1.
        -11    1    1    2    0    0 -0.12309230440E+02  0.18148793702E+01  0.49883455816E+03  0.49898970666E+03  0.00000000000E+00 0. -1.
         11    1    1    2    0    0 -0.11853668943E+02  0.70624333008E+01 -0.77764005535E+02  0.78978655271E+02  0.00000000000E+00 0.  1.
        -15    1    1    2    0    0  0.15780179133E+02 -0.27721371552E+01 -0.17641794766E+03  0.17715289663E+03  0.17770000000E+01 0.  1.
         15    1    1    2    0    0  0.83827202506E+01 -0.61051755158E+01 -0.24465260496E+03  0.24487874144E+03  0.17770000000E+01 0. -1.
</event>
<event>
 6    1  0.1823098E-004  0.5005809E+03  0.7546771E-02  0.9398511E-01
        -11   -1    0    0    0    0  0.00000000000E+00  0.00000000000E+00  0.50000000000E+03  0.50000000000E+03  0.00000000000E+00 0.  1.
         11   -1    0    0    0    0 -0.00000000000E+00 -0.00000000000E+00 -0.50000000000E+03  0.50000000000E+03  0.00000000000E+00 0.  1.
        -11    1    1    2    0    0  0.48409996987E+01  0.21498830226E+02  0.28424727892E+03  0.28510024650E+03  0.00000000000E+00 0.  1.
         11    1    1    2    0    0 -0.22759526365E+02 -0.13979209121E+02 -0.49870430330E+03  0.49941905896E+03  0.00000000000E+00 0.  1.
        -15    1    1    2    0    0  0.11668860434E+02 -0.30040300533E+01  0.15846346800E+03  0.15893084949E+03  0.17770000000E+01 0.  1.
         15    1    1    2    0    0  0.62496662322E+01 -0.45155910517E+01  0.55993556376E+02  0.56549845050E+02  0.17770000000E+01 0. -1.
</event>
<event>
 6    1  0.1823098E-004  0.4450126E+03  0.7546771E-02  0.9532022E-01
        -11   -1    0    0    0    0  0.00000000000E+00  0.00000000000E+00  0.50000000000E+03  0.50000000000E+03  0.00000000000E+00 0. -1.
         11   -1    0    0    0    0 -0.00000000000E+00 -0.00000000000E+00 -0.50000000000E+03  0.50000000000E+03  0.00000000000E+00 0. -1.
        -11    1    1    2    0    0  0.30939247351E+01  0.17514123338E+02  0.43459145900E+03  0.43495523117E+03  0.00000000000E+00 0. -1.
         11    1    1    2    0    0 -0.61778250317E+02  0.58949962981E+02 -0.45246530112E+03  0.46045249382E+03  0.00000000000E+00 0. -1.
        -15    1    1    2    0    0  0.61125150357E+01 -0.24983479246E+02 -0.73156332883E+01  0.26799501762E+02  0.17770000000E+01 0.  1.
         15    1    1    2    0    0  0.52571810546E+02 -0.51480607073E+02  0.25189475405E+02  0.77792773244E+02  0.17770000000E+01 0. -1.
</event>
<event>
 6    1  0.1823098E-004  0.5047715E+03  0.7546771E-02  0.9389196E-01
        -11   -1    0    0    0    0  0.00000000000E+00  0.00000000000E+00  0.50000000000E+03  0.50000000000E+03  0.00000000000E+00 0.  1.
         11   -1    0    0    0    0 -0.00000000000E+00 -0.00000000000E+00 -0.50000000000E+03  0.50000000000E+03  0.00000000000E+00 0. -1.
        -11    1    1    2    0    0  0.88615707902E+01  0.48464409063E+01  0.46894487254E+03  0.46905363116E+03  0.00000000000E+00 0.  1.
         11    1    1    2    0    0  0.13701495819E+02 -0.57601279818E+01 -0.49500537673E+03  0.49522846551E+03  0.00000000000E+00 0. -1.
        -15    1    1    2    0    0 -0.11096140583E+02 -0.32905769345E+01  0.15811932575E+02  0.19675547595E+02  0.17770000000E+01 0.  1.
         15    1    1    2    0    0 -0.11466926026E+02  0.42042640100E+01  0.10248571614E+02  0.16042355734E+02  0.17770000000E+01 0. -1.
</event>
<event>
 6    1  0.1823098E-004  0.5043687E+03  0.7546771E-02  0.9390087E-01
        -11   -1    0    0    0    0  0.00000000000E+00  0.00000000000E+00  0.50000000000E+03  0.50000000000E+03  0.00000000000E+00 0.  1.
         11   -1    0    0    0    0 -0.00000000000E+00 -0.00000000000E+00 -0.50000000000E+03  0.50000000000E+03  0.00000000000E+00 0. -1.
        -11    1    1    2    0    0 -0.40006810683E+02 -0.67238981967E+01  0.49396824112E+03  0.49563129335E+03  0.00000000000E+00 0.  1.
         11    1    1    2    0    0  0.35617850852E+02  0.37068443966E+02 -0.36740208681E+03  0.37098112381E+03  0.00000000000E+00 0. -1.
        -15    1    1    2    0    0 -0.57534724624E+01 -0.29954709776E+02 -0.78657819390E+02  0.84383632081E+02  0.17770000000E+01 0. -1.
         15    1    1    2    0    0  0.10142432294E+02 -0.38983599416E+00 -0.47908334929E+02  0.49003950755E+02  0.17770000000E+01 0.  1.
</event>
<event>
 6    1  0.1823098E-004  0.4854489E+03  0.7546771E-02  0.9432971E-01
        -11   -1    0    0    0    0  0.00000000000E+00  0.00000000000E+00  0.50000000000E+03  0.50000000000E+03  0.00000000000E+00 0. -1.
         11   -1    0    0    0    0 -0.00000000000E+00 -0.00000000000E+00 -0.50000000000E+03  0.50000000000E+03  0.00000000000E+00 0. -1.
        -11    1    1    2    0    0  0.36339879918E+01  0.76191285746E+01  0.48136555096E+03  0.48143956074E+03  0.00000000000E+00 0. -1.
         11    1    1    2    0    0 -0.12060520672E+02  0.16240069184E+02 -0.48940332039E+03  0.48982119801E+03  0.00000000000E+00 0. -1.
        -15    1    1    2    0    0  0.58390174984E+01 -0.23081983809E+02  0.51957318687E+01  0.24434104456E+02  0.17770000000E+01 0.  1.
         15    1    1    2    0    0  0.25875151822E+01 -0.77721395019E+00  0.28420375646E+01  0.43051367994E+01  0.17770000000E+01 0.  1.
</event>
<event>
 6    1  0.1823098E-004  0.5076668E+03  0.7546771E-02  0.9382816E-01
        -11   -1    0    0    0    0  0.00000000000E+00  0.00000000000E+00  0.50000000000E+03  0.50000000000E+03  0.00000000000E+00 0.  1.
         11   -1    0    0    0    0 -0.00000000000E+00 -0.00000000000E+00 -0.50000000000E+03  0.50000000000E+03  0.00000000000E+00 0. -1.
        -11    1    1    2    0    0  0.92493080294E+00  0.92976336702E+01  0.44767630808E+03  0.44777380261E+03  0.00000000000E+00 0.  1.
         11    1    1    2    0    0 -0.15083215133E+02  0.14086066943E+02 -0.49190046832E+03  0.49233321175E+03  0.00000000000E+00 0. -1.
        -15    1    1    2    0    0  0.81159986640E+01 -0.24017020488E+02  0.14002951856E+02  0.29015980030E+02  0.17770000000E+01 0.  1.
         15    1    1    2    0    0  0.60422856657E+01  0.63331987450E+00  0.30221208388E+02  0.30877005612E+02  0.17770000000E+01 0. -1.
</event>
<event>
 6    1  0.1823098E-004  0.5001314E+03  0.7546771E-02  0.9399516E-01
        -11   -1    0    0    0    0  0.00000000000E+00  0.00000000000E+00  0.50000000000E+03  0.50000000000E+03  0.00000000000E+00 0.  1.
         11   -1    0    0    0    0 -0.00000000000E+00 -0.00000000000E+00 -0.50000000000E+03  0.50000000000E+03  0.00000000000E+00 0.  1.
        -11    1    1    2    0    0 -0.46391707772E+00 -0.67873038672E+01  0.35798007622E+03  0.35804471464E+03  0.00000000000E+00 0.  1.
         11    1    1    2    0    0  0.59747761333E+01  0.57200512490E+01 -0.49980020717E+03  0.49986864677E+03  0.00000000000E+00 0.  1.
        -15    1    1    2    0    0 -0.12082420474E+01 -0.21428631424E+01  0.52674055999E+02  0.52761402708E+02  0.17770000000E+01 0. -1.
         15    1    1    2    0    0 -0.43026170082E+01  0.32101157606E+01  0.89146074951E+02  0.89325235877E+02  0.17770000000E+01 0.  1.
</event>
<event>
 6    1  0.1823098E-004  0.5002579E+03  0.7546771E-02  0.9399233E-01
        -11   -1    0    0    0    0  0.00000000000E+00  0.00000000000E+00  0.50000000000E+03  0.50000000000E+03  0.00000000000E+00 0. -1.
         11   -1    0    0    0    0 -0.00000000000E+00 -0.00000000000E+00 -0.50000000000E+03  0.50000000000E+03  0.00000000000E+00 0.  1.
        -11    1    1    2    0    0  0.89080661606E+00  0.38947177741E+01  0.29433576777E+03  0.29436288243E+03  0.00000000000E+00 0. -1.
         11    1    1    2    0    0  0.77030252073E+01  0.81409411662E+01 -0.49961640036E+03  0.49974209252E+03  0.00000000000E+00 0.  1.
        -15    1    1    2    0    0 -0.16611679537E+01 -0.42698352136E+01  0.45179515091E+02  0.45445982051E+02  0.17770000000E+01 0.  1.
         15    1    1    2    0    0 -0.69326638697E+01 -0.77658237267E+01  0.16010111750E+03  0.16044904300E+03  0.17770000000E+01 0. -1.
</event>
<event>
 6    1  0.1823098E-004  0.5008268E+03  0.7546771E-02  0.9397962E-01
        -11   -1    0    0    0    0  0.00000000000E+00  0.00000000000E+00  0.50000000000E+03  0.50000000000E+03  0.00000000000E+00 0.  1.
         11   -1    0    0    0    0 -0.00000000000E+00 -0.00000000000E+00 -0.50000000000E+03  0.50000000000E+03  0.00000000000E+00 0. -1.
        -11    1    1    2    0    0 -0.62613858069E+01 -0.82127715587E+01  0.29835364219E+03  0.29853232719E+03  0.00000000000E+00 0.  1.
         11    1    1    2    0    0  0.88387312769E-01 -0.12126903775E+02 -0.49902590009E+03  0.49917323503E+03  0.00000000000E+00 0. -1.
        -15    1    1    2    0    0  0.92493460198E+01  0.15007362984E+02  0.17225162331E+03  0.17316047704E+03  0.17770000000E+01 0.  1.
         15    1    1    2    0    0 -0.30763475257E+01  0.53323123500E+01  0.28420634591E+02  0.29133960745E+02  0.17770000000E+01 0. -1.
</event>
<event>
 6    1  0.1823098E-004  0.5113968E+03  0.7546771E-02  0.9374664E-01
        -11   -1    0    0    0    0  0.00000000000E+00  0.00000000000E+00  0.50000000000E+03  0.50000000000E+03  0.00000000000E+00 0.  1.
         11   -1    0    0    0    0 -0.00000000000E+00 -0.00000000000E+00 -0.50000000000E+03  0.50000000000E+03  0.00000000000E+00 0. -1.
        -11    1    1    2    0    0 -0.31546555009E+02 -0.12534555119E+02  0.48742263828E+03  0.48860324243E+03  0.00000000000E+00 0.  1.
         11    1    1    2    0    0 -0.55484661161E+01 -0.38020825775E+02 -0.39729347701E+03  0.39914718531E+03  0.00000000000E+00 0. -1.
        -15    1    1    2    0    0  0.11491869608E+02  0.12482749371E+02 -0.96667617285E+01  0.19608317375E+02  0.17770000000E+01 0.  1.
         15    1    1    2    0    0  0.25603151517E+02  0.38072631523E+02 -0.80462399539E+02  0.92641254888E+02  0.17770000000E+01 0. -1.
</event>
<event>
 6    1  0.1823098E-004  0.5011599E+03  0.7546771E-02  0.9397218E-01
        -11   -1    0    0    0    0  0.00000000000E+00  0.00000000000E+00  0.50000000000E+03  0.50000000000E+03  0.00000000000E+00 0. -1.
         11   -1    0    0    0    0 -0.00000000000E+00 -0.00000000000E+00 -0.50000000000E+03  0.50000000000E+03  0.00000000000E+00 0. -1.
        -11    1    1    2    0    0 -0.20284500635E+01 -0.24274136104E+01  0.11514179849E+03  0.11518524517E+03  0.00000000000E+00 0. -1.
         11    1    1    2    0    0  0.11387838227E+02  0.25456711825E+02 -0.49805995388E+03  0.49884009933E+03  0.00000000000E+00 0. -1.
        -15    1    1    2    0    0 -0.81650529907E+01 -0.27345470280E+02  0.13431743491E+03  0.13732725107E+03  0.17770000000E+01 0. -1.
         15    1    1    2    0    0 -0.11943351732E+01  0.43161720651E+01  0.24860072048E+03  0.24864740443E+03  0.17770000000E+01 0.  1.
</event>
<event>
 6    1  0.1823098E-004  0.5004777E+03  0.7546771E-02  0.9398742E-01
        -11   -1    0    0    0    0  0.00000000000E+00  0.00000000000E+00  0.50000000000E+03  0.50000000000E+03  0.00000000000E+00 0. -1.
         11   -1    0    0    0    0 -0.00000000000E+00 -0.00000000000E+00 -0.50000000000E+03  0.50000000000E+03  0.00000000000E+00 0. -1.
        -11    1    1    2    0    0  0.10642459043E+00 -0.90153700696E+01  0.49944095399E+03  0.49952232657E+03  0.00000000000E+00 0. -1.
         11    1    1    2    0    0 -0.12602271602E+02  0.81696798202E+00 -0.29316163264E+03  0.29343351468E+03  0.00000000000E+00 0. -1.
        -15    1    1    2    0    0  0.10627013434E+02  0.99163164344E+01 -0.16481801805E+03  0.16546722802E+03  0.17770000000E+01 0.  1.
         15    1    1    2    0    0  0.18688335782E+01 -0.17179143468E+01 -0.41461303301E+02  0.41576930731E+02  0.17770000000E+01 0. -1.
</event>
<event>
 6    1  0.1823098E-004  0.5016335E+03  0.7546771E-02  0.9396162E-01
        -11   -1    0    0    0    0  0.00000000000E+00  0.00000000000E+00  0.50000000000E+03  0.50000000000E+03  0.00000000000E+00 0. -1.
         11   -1    0    0    0    0 -0.00000000000E+00 -0.00000000000E+00 -0.50000000000E+03  0.50000000000E+03  0.00000000000E+00 0.  1.
        -11    1    1    2    0    0 -0.14785062173E+02  0.17612967385E+01  0.45417124376E+03  0.45441524940E+03  0.00000000000E+00 0. -1.
         11    1    1    2    0    0  0.10074664249E+02 -0.61848668662E+01 -0.49822628317E+03  0.49836651240E+03  0.00000000000E+00 0.  1.
        -15    1    1    2    0    0 -0.40393892324E+01  0.86538320229E+00  0.29069783604E+02  0.29415567329E+02  0.17770000000E+01 0.  1.
         15    1    1    2    0    0  0.87497871567E+01  0.35581869254E+01  0.14985255813E+02  0.17802670874E+02  0.17770000000E+01 0. -1.
</event>
<event>
 6    1  0.1823098E-004  0.5004736E+03  0.7546771E-02  0.9398751E-01
        -11   -1    0    0    0    0  0.00000000000E+00  0.00000000000E+00  0.50000000000E+03  0.50000000000E+03  0.00000000000E+00 0. -1.
         11   -1    0    0    0    0 -0.00000000000E+00 -0.00000000000E+00 -0.50000000000E+03  0.50000000000E+03  0.00000000000E+00 0. -1.
        -11    1    1    2    0    0 -0.56806336081E+01 -0.86751869168E+01  0.49941877075E+03  0.49952641276E+03  0.00000000000E+00 0. -1.
         11    1    1    2    0    0  0.14066540740E+02  0.10675946448E+02 -0.27353075262E+03  0.27410019342E+03  0.00000000000E+00 0. -1.
        -15    1    1    2    0    0 -0.57539640093E+01 -0.63549089697E+01 -0.17025528952E+03  0.17048024610E+03  0.17770000000E+01 0. -1.
         15    1    1    2    0    0 -0.26319431228E+01  0.43541494384E+01 -0.55632728606E+02  0.55893147730E+02  0.17770000000E+01 0.  1.
</event>
<event>
 6    1  0.1823098E-004  0.5000495E+03  0.7546771E-02  0.9399699E-01
        -11   -1    0    0    0    0  0.00000000000E+00  0.00000000000E+00  0.50000000000E+03  0.50000000000E+03  0.00000000000E+00 0. -1.
         11   -1    0    0    0    0 -0.00000000000E+00 -0.00000000000E+00 -0.50000000000E+03  0.50000000000E+03  0.00000000000E+00 0. -1.
        -11    1    1    2    0    0 -0.11306488571E+02  0.96347651293E+01  0.49972976412E+03  0.49995050008E+03  0.00000000000E+00 0. -1.
         11    1    1    2    0    0  0.41617231599E+01 -0.40948366616E+01 -0.21282863759E+03  0.21290870486E+03  0.00000000000E+00 0. -1.
        -15    1    1    2    0    0  0.49078021566E+01 -0.44697880476E+01 -0.11060311826E+03  0.11081639330E+03  0.17770000000E+01 0.  1.
         15    1    1    2    0    0  0.22369632541E+01 -0.10701404201E+01 -0.17629800827E+03  0.17632440175E+03  0.17770000000E+01 0. -1.
</event>
<event>
 6    1  0.1823098E-004  0.5078038E+03  0.7546771E-02  0.9382515E-01
        -11   -1    0    0    0    0  0.00000000000E+00  0.00000000000E+00  0.50000000000E+03  0.50000000000E+03  0.00000000000E+00 0.  1.
         11   -1    0    0    0    0 -0.00000000000E+00 -0.00000000000E+00 -0.50000000000E+03  0.50000000000E+03  0.00000000000E+00 0.  1.
        -11    1    1    2    0    0 -0.23973192928E+02 -0.68007777683E+01  0.49156495026E+03  0.49219616505E+03  0.00000000000E+00 0.  1.
         11    1    1    2    0    0  0.28571681765E+02  0.49678786685E+02 -0.11380973322E+03  0.12742440198E+03  0.00000000000E+00 0.  1.
        -15    1    1    2    0    0  0.28480901172E+00 -0.64211564516E+01 -0.95422650989E+02  0.95655383629E+02  0.17770000000E+01 0. -1.
         15    1    1    2    0    0 -0.48832978491E+01 -0.36456852466E+02 -0.28233256606E+03  0.28472404934E+03  0.17770000000E+01 0.  1.
</event>
<event>
 6    1  0.1823098E-004  0.5001135E+03  0.7546771E-02  0.9399556E-01
        -11   -1    0    0    0    0  0.00000000000E+00  0.00000000000E+00  0.50000000000E+03  0.50000000000E+03  0.00000000000E+00 0.  1.
         11   -1    0    0    0    0 -0.00000000000E+00 -0.00000000000E+00 -0.50000000000E+03  0.50000000000E+03  0.00000000000E+00 0. -1.
        -11    1    1    2    0    0  0.22746637432E+01  0.37092547179E+01  0.12742227920E+03  0.12749654859E+03  0.00000000000E+00 0.  1.
         11    1    1    2    0    0  0.14354055264E+02 -0.11710925238E+02 -0.49954307891E+03  0.49988645947E+03  0.00000000000E+00 0. -1.
        -15    1    1    2    0    0 -0.95864636712E+01  0.23729719807E+01  0.19481858546E+03  0.19507683167E+03  0.17770000000E+01 0. -1.
         15    1    1    2    0    0 -0.70422553364E+01  0.56286985394E+01  0.17730221425E+03  0.17754016028E+03  0.17770000000E+01 0.  1.
</event>
<event>
 6    1  0.1823098E-004  0.5002249E+03  0.7546771E-02  0.9399307E-01
        -11   -1    0    0    0    0  0.00000000000E+00  0.00000000000E+00  0.50000000000E+03  0.50000000000E+03  0.00000000000E+00 0.  1.
         11   -1    0    0    0    0 -0.00000000000E+00 -0.00000000000E+00 -0.50000000000E+03  0.50000000000E+03  0.00000000000E+00 0. -1.
        -11    1    1    2    0    0 -0.13205744533E+02 -0.10830875369E+02  0.49948319570E+03  0.49977511176E+03  0.00000000000E+00 0.  1.
         11    1    1    2    0    0  0.14366857428E+02  0.59455986042E+01 -0.44943275230E+03  0.44970162950E+03  0.00000000000E+00 0. -1.
        -15    1    1    2    0    0  0.63978198992E+00  0.28703302020E+01 -0.19327731869E+02  0.19630768316E+02  0.17770000000E+01 0.  1.
         15    1    1    2    0    0 -0.18008948844E+01  0.20149465625E+01 -0.30722711525E+02  0.30892490422E+02  0.17770000000E+01 0. -1.
</event>
<event>
 6    1  0.1823098E-004  0.5065990E+03  0.7546771E-02  0.9385164E-01
        -11   -1    0    0    0    0  0.00000000000E+00  0.00000000000E+00  0.50000000000E+03  0.50000000000E+03  0.00000000000E+00 0. -1.
         11   -1    0    0    0    0 -0.00000000000E+00 -0.00000000000E+00 -0.50000000000E+03  0.50000000000E+03  0.00000000000E+00 0. -1.
        -11    1    1    2    0    0  0.42383220589E+01 -0.64399790941E+01  0.49334080836E+03  0.49340104367E+03  0.00000000000E+00 0. -1.
         11    1    1    2    0    0  0.11641848825E+02  0.69889544406E+01 -0.45832976472E+03  0.45853086195E+03  0.00000000000E+00 0. -1.
        -15    1    1    2    0    0 -0.44733406204E+01 -0.51079643959E+01  0.33297158418E+01  0.77683211290E+01  0.17770000000E+01 0. -1.
         15    1    1    2    0    0 -0.11406830263E+02  0.45589890495E+01 -0.38340759475E+02  0.40299773250E+02  0.17770000000E+01 0.  1.
</event>
<event>
 6    1  0.1823098E-004  0.5059467E+03  0.7546771E-02  0.9386601E-01
        -11   -1    0    0    0    0  0.00000000000E+00  0.00000000000E+00  0.50000000000E+03  0.50000000000E+03  0.00000000000E+00 0. -1.
         11   -1    0    0    0    0 -0.00000000000E+00 -0.00000000000E+00 -0.50000000000E+03  0.50000000000E+03  0.00000000000E+00 0. -1.
        -11    1    1    2    0    0 -0.10117657622E+02 -0.81209360132E+01  0.45342642993E+03  0.45361199715E+03  0.00000000000E+00 0. -1.
         11    1    1    2    0    0 -0.16161272542E+02  0.23175198659E+02 -0.49324478081E+03  0.49405332744E+03  0.00000000000E+00 0. -1.
        -15    1    1    2    0    0  0.18371961030E+02 -0.14616920762E+02  0.19905191422E+02  0.30831115763E+02  0.17770000000E+01 0.  1.
         15    1    1    2    0    0  0.79069691343E+01 -0.43734188379E+00  0.19913159454E+02  0.21503559641E+02  0.17770000000E+01 0. -1.
</event>
<event>
 6    1  0.1823098E-004  0.4910857E+03  0.7546771E-02  0.9419980E-01
        -11   -1    0    0    0    0  0.00000000000E+00  0.00000000000E+00  0.50000000000E+03  0.50000000000E+03  0.00000000000E+00 0. -1.
         11   -1    0    0    0    0 -0.00000000000E+00 -0.00000000000E+00 -0.50000000000E+03  0.50000000000E+03  0.00000000000E+00 0.  1.
        -11    1    1    2    0    0  0.59911725382E+01  0.30607319581E+01  0.48998919120E+03  0.49003537599E+03  0.00000000000E+00 0. -1.
         11    1    1    2    0    0  0.40527761237E+01 -0.84916803205E+01 -0.49211477709E+03  0.49220472109E+03  0.00000000000E+00 0.  1.
        -15    1    1    2    0    0 -0.52318031577E+01  0.70098357994E+00  0.72213251599E+01  0.91196715031E+01  0.17770000000E+01 0. -1.
         15    1    1    2    0    0 -0.48121455042E+01  0.47299647825E+01 -0.50957392711E+01  0.86402314157E+01  0.17770000000E+01 0. -1.
</event>
<event>
 6    1  0.1823098E-004  0.5053783E+03  0.7546771E-02  0.9387855E-01
        -11   -1    0    0    0    0  0.00000000000E+00  0.00000000000E+00  0.50000000000E+03  0.50000000000E+03  0.00000000000E+00 0.  1.
         11   -1    0    0    0    0 -0.00000000000E+00 -0.00000000000E+00 -0.50000000000E+03  0.50000000000E+03  0.00000000000E+00 0. -1.
        -11    1    1    2    0    0 -0.77889540973E+01  0.75739413462E+01  0.49450241338E+03  0.49462174359E+03  0.00000000000E+00 0.  1.
         11    1    1    2    0    0 -0.25972790542E+01 -0.25421079711E+02 -0.46971521952E+03  0.47040978370E+03  0.00000000000E+00 0. -1.
        -15    1    1    2    0    0  0.71686441187E+01  0.18020427569E+02 -0.24471511811E+02  0.31275196044E+02  0.17770000000E+01 0. -1.
         15    1    1    2    0    0  0.32175890328E+01 -0.17328920432E+00 -0.31568205150E+00  0.36932766603E+01  0.17770000000E+01 0.  1.
</event>
<event>
 6    1  0.1823098E-004  0.4893017E+03  0.7546771E-02  0.9424071E-01
        -11   -1    0    0    0    0  0.00000000000E+00  0.00000000000E+00  0.50000000000E+03  0.50000000000E+03  0.00000000000E+00 0.  1.
         11   -1    0    0    0    0 -0.00000000000E+00 -0.00000000000E+00 -0.50000000000E+03  0.50000000000E+03  0.00000000000E+00 0.  1.
        -11    1    1    2    0    0  0.10320733479E+02  0.25619515432E+01  0.48796987532E+03  0.48808573053E+03  0.00000000000E+00 0.  1.
         11    1    1    2    0    0 -0.16620303039E+01  0.10696909988E+02 -0.49052967907E+03  0.49064911319E+03  0.00000000000E+00 0.  1.
        -15    1    1    2    0    0  0.31709731059E+01 -0.58669194459E+01 -0.32881358466E+00  0.69095341085E+01  0.17770000000E+01 0. -1.
         15    1    1    2    0    0 -0.11829676281E+02 -0.73919420858E+01  0.28886173348E+01  0.14355622167E+02  0.17770000000E+01 0.  1.
</event>
<event>
 6    1  0.1823098E-004  0.5000773E+03  0.7546771E-02  0.9399637E-01
        -11   -1    0    0    0    0  0.00000000000E+00  0.00000000000E+00  0.50000000000E+03  0.50000000000E+03  0.00000000000E+00 0.  1.
         11   -1    0    0    0    0 -0.00000000000E+00 -0.00000000000E+00 -0.50000000000E+03  0.50000000000E+03  0.00000000000E+00 0.  1.
        -11    1    1    2    0    0 -0.15379193791E+01  0.87388835171E+01  0.49984399487E+03  0.49992274652E+03  0.00000000000E+00 0.  1.
         11    1    1    2    0    0  0.14390885550E+01 -0.85841831103E+01 -0.21037564197E+03  0.21055562189E+03  0.00000000000E+00 0.  1.
        -15    1    1    2    0    0  0.21298786977E+01 -0.16220596121E+00 -0.12279519863E+03  0.12282663078E+03  0.17770000000E+01 0.  1.
         15    1    1    2    0    0 -0.20310478735E+01  0.75055544130E-02 -0.16667315427E+03  0.16669500081E+03  0.17770000000E+01 0. -1.
</event>
<event>
 6    1  0.1823098E-004  0.5008572E+03  0.7546771E-02  0.9397894E-01
        -11   -1    0    0    0    0  0.00000000000E+00  0.00000000000E+00  0.50000000000E+03  0.50000000000E+03  0.00000000000E+00 0.  1.
         11   -1    0    0    0    0 -0.00000000000E+00 -0.00000000000E+00 -0.50000000000E+03  0.50000000000E+03  0.00000000000E+00 0. -1.
        -11    1    1    2    0    0 -0.10881595720E+02 -0.17898292725E+02  0.49870313641E+03  0.49914284155E+03  0.00000000000E+00 0.  1.
         11    1    1    2    0    0  0.92534305694E+01 -0.33199489140E+01 -0.23092536912E+03  0.23113453688E+03  0.00000000000E+00 0. -1.
        -15    1    1    2    0    0  0.10315862938E+02  0.68738154031E+01 -0.61823466704E+02  0.63079038758E+02  0.17770000000E+01 0.  1.
         15    1    1    2    0    0 -0.86876977874E+01  0.14344426236E+02 -0.20595430059E+03  0.20664358281E+03  0.17770000000E+01 0. -1.
</event>
<event>
 6    1  0.1823098E-004  0.5006732E+03  0.7546771E-02  0.9398305E-01
        -11   -1    0    0    0    0  0.00000000000E+00  0.00000000000E+00  0.50000000000E+03  0.50000000000E+03  0.00000000000E+00 0.  1.
         11   -1    0    0    0    0 -0.00000000000E+00 -0.00000000000E+00 -0.50000000000E+03  0.50000000000E+03  0.00000000000E+00 0.  1.
        -11    1    1    2    0    0 -0.62968776756E+01  0.39830422679E+01  0.49927118797E+03  0.49932678120E+03  0.00000000000E+00 0.  1.
         11    1    1    2    0    0 -0.94798018322E+01 -0.71048259631E+01 -0.10990480703E+03  0.11054144835E+03  0.00000000000E+00 0.  1.
        -15    1    1    2    0    0  0.80349409119E+01 -0.47289211666E+00 -0.51708399979E+02  0.52361247691E+02  0.17770000000E+01 0.  1.
         15    1    1    2    0    0  0.77417385959E+01  0.35946758118E+01 -0.33765798096E+03  0.33777052276E+03  0.17770000000E+01 0. -1.
</event>
<event>
 6    1  0.1823098E-004  0.5019331E+03  0.7546771E-02  0.9395495E-01
        -11   -1    0    0    0    0  0.00000000000E+00  0.00000000000E+00  0.50000000000E+03  0.50000000000E+03  0.00000000000E+00 0.  1.
         11   -1    0    0    0    0 -0.00000000000E+00 -0.00000000000E+00 -0.50000000000E+03  0.50000000000E+03  0.00000000000E+00 0. -1.
        -11    1    1    2    0    0 -0.31382467785E+01  0.61993563696E+01  0.49801843139E+03  0.49806690175E+03  0.00000000000E+00 0.  1.
         11    1    1    2    0    0 -0.20309797240E+01  0.72140971378E+01 -0.46284418213E+03  0.46290485524E+03  0.00000000000E+00 0. -1.
        -15    1    1    2    0    0  0.34919368331E+01 -0.30113917918E+01 -0.50522046643E+01  0.70671496616E+01  0.17770000000E+01 0.  1.
         15    1    1    2    0    0  0.16772896695E+01 -0.10402061716E+02 -0.30122044592E+02  0.31961093348E+02  0.17770000000E+01 0. -1.
</event>
<event>
 6    1  0.1823098E-004  0.5068158E+03  0.7546771E-02  0.9384687E-01
        -11   -1    0    0    0    0  0.00000000000E+00  0.00000000000E+00  0.50000000000E+03  0.50000000000E+03  0.00000000000E+00 0. -1.
         11   -1    0    0    0    0 -0.00000000000E+00 -0.00000000000E+00 -0.50000000000E+03  0.50000000000E+03  0.00000000000E+00 0.  1.
        -11    1    1    2    0    0 -0.25485186008E+02 -0.53859268826E+02  0.48957159635E+03  0.49318420848E+03  0.00000000000E+00 0. -1.
         11    1    1    2    0    0 -0.17327894989E+02 -0.22715100301E+02 -0.17138470705E+03  0.17374967492E+03  0.00000000000E+00 0.  1.
        -15    1    1    2    0    0  0.25460696487E+02  0.21862148459E+02 -0.62000412421E+02  0.70522404030E+02  0.17770000000E+01 0. -1.
         15    1    1    2    0    0  0.17352384510E+02  0.54712220668E+02 -0.25618647688E+03  0.26254371256E+03  0.17770000000E+01 0.  1.
</event>
<event>
 6    1  0.1823098E-004  0.5001514E+03  0.7546771E-02  0.9399471E-01
        -11   -1    0    0    0    0  0.00000000000E+00  0.00000000000E+00  0.50000000000E+03  0.50000000000E+03  0.00000000000E+00 0.  1.
         11   -1    0    0    0    0 -0.00000000000E+00 -0.00000000000E+00 -0.50000000000E+03  0.50000000000E+03  0.00000000000E+00 0. -1.
        -11    1    1    2    0    0 -0.26653703267E+01  0.10048339443E+02  0.49974050299E+03  0.49984862073E+03  0.00000000000E+00 0.  1.
         11    1    1    2    0    0 -0.10928851826E+01 -0.12660474240E+02 -0.26743922361E+03  0.26774095751E+03  0.00000000000E+00 0. -1.
        -15    1    1    2    0    0  0.34391247229E+01  0.16744415745E+01 -0.20037765991E+03  0.20042204383E+03  0.17770000000E+01 0. -1.
         15    1    1    2    0    0  0.31913078643E+00  0.93769322257E+00 -0.31923619472E+02  0.31988377924E+02  0.17770000000E+01 0. -1.
</event>
<event>
 6    1  0.1823098E-004  0.5070503E+03  0.7546771E-02  0.9384171E-01
        -11   -1    0    0    0    0  0.00000000000E+00  0.00000000000E+00  0.50000000000E+03  0.50000000000E+03  0.00000000000E+00 0.  1.
         11   -1    0    0    0    0 -0.00000000000E+00 -0.00000000000E+00 -0.50000000000E+03  0.50000000000E+03  0.00000000000E+00 0. -1.
        -11    1    1    2    0    0 -0.81319286801E+01 -0.44290583042E+01  0.44975067961E+03  0.44984599435E+03  0.00000000000E+00 0.  1.
         11    1    1    2    0    0 -0.16503244942E+02  0.25827973124E+01 -0.49266659257E+03  0.49294969253E+03  0.00000000000E+00 0. -1.
        -15    1    1    2    0    0  0.49865435851E+01 -0.69397462284E+01  0.31678369202E+02  0.32858826804E+02  0.17770000000E+01 0. -1.
         15    1    1    2    0    0  0.19648630037E+02  0.87860072203E+01  0.11237543754E+02  0.24345486313E+02  0.17770000000E+01 0.  1.
</event>
<event>
 6    1  0.1823098E-004  0.5006628E+03  0.7546771E-02  0.9398328E-01
        -11   -1    0    0    0    0  0.00000000000E+00  0.00000000000E+00  0.50000000000E+03  0.50000000000E+03  0.00000000000E+00 0. -1.
         11   -1    0    0    0    0 -0.00000000000E+00 -0.00000000000E+00 -0.50000000000E+03  0.50000000000E+03  0.00000000000E+00 0.  1.
        -11    1    1    2    0    0  0.20331420444E+01 -0.86555209372E+01  0.49925807546E+03  0.49933723837E+03  0.00000000000E+00 0. -1.
         11    1    1    2    0    0 -0.82678114741E+01  0.54455315243E+01 -0.33803642717E+03  0.33818136645E+03  0.00000000000E+00 0.  1.
        -15    1    1    2    0    0  0.73537070244E+01  0.30889462405E+01 -0.15964153541E+03  0.15985054318E+03  0.17770000000E+01 0. -1.
         15    1    1    2    0    0 -0.11190375948E+01  0.12104317234E+00 -0.15801128704E+01  0.26308520048E+01  0.17770000000E+01 0. -1.
</event>
<event>
 6    1  0.1823098E-004  0.5005167E+03  0.7546771E-02  0.9398654E-01
        -11   -1    0    0    0    0  0.00000000000E+00  0.00000000000E+00  0.50000000000E+03  0.50000000000E+03  0.00000000000E+00 0.  1.
         11   -1    0    0    0    0 -0.00000000000E+00 -0.00000000000E+00 -0.50000000000E+03  0.50000000000E+03  0.00000000000E+00 0. -1.
        -11    1    1    2    0    0  0.11835764325E+02 -0.29041620148E+00  0.28785144058E+03  0.28809481339E+03  0.00000000000E+00 0.  1.
         11    1    1    2    0    0  0.42711491196E+01 -0.70922807533E+01 -0.49941468441E+03  0.49948330319E+03  0.00000000000E+00 0. -1.
        -15    1    1    2    0    0 -0.15129659985E+02  0.74452940734E+01  0.19473092024E+03  0.19546771611E+03  0.17770000000E+01 0. -1.
         15    1    1    2    0    0 -0.97725345949E+00 -0.62597118643E-01  0.16832323590E+02  0.16954167309E+02  0.17770000000E+01 0. -1.
</event>
<event>
 6    1  0.1823098E-004  0.4808990E+03  0.7546771E-02  0.9443594E-01
        -11   -1    0    0    0    0  0.00000000000E+00  0.00000000000E+00  0.50000000000E+03  0.50000000000E+03  0.00000000000E+00 0.  1.
         11   -1    0    0    0    0 -0.00000000000E+00 -0.00000000000E+00 -0.50000000000E+03  0.50000000000E+03  0.00000000000E+00 0.  1.
        -11    1    1    2    0    0 -0.67508109746E+01 -0.18895098865E+02  0.48026602491E+03  0.48068498301E+03  0.00000000000E+00 0.  1.
         11    1    1    2    0    0  0.20838778744E+00 -0.13716202581E+02 -0.48149330328E+03  0.48168867408E+03  0.00000000000E+00 0.  1.
        -15    1    1    2    0    0 -0.73691538176E-01  0.24754653635E+02  0.68987589568E+01  0.25759443145E+02  0.17770000000E+01 0. -1.
         15    1    1    2    0    0  0.66161147254E+01  0.78566478113E+01 -0.56714805896E+01  0.11866899762E+02  0.17770000000E+01 0.  1.
</event>
<event>
 6    1  0.1823098E-004  0.5043414E+03  0.7546771E-02  0.9390148E-01
        -11   -1    0    0    0    0  0.00000000000E+00  0.00000000000E+00  0.50000000000E+03  0.50000000000E+03  0.00000000000E+00 0.  1.
         11   -1    0    0    0    0 -0.00000000000E+00 -0.00000000000E+00 -0.50000000000E+03  0.50000000000E+03  0.00000000000E+00 0.  1.
        -11    1    1    2    0    0 -0.34260579374E+01  0.11131343826E+02  0.45454395279E+03  0.45469313796E+03  0.00000000000E+00 0.  1.
         11    1    1    2    0    0  0.18215593717E+02  0.11695095589E+02 -0.49518569541E+03  0.49565860837E+03  0.00000000000E+00 0.  1.
        -15    1    1    2    0    0 -0.93287585686E+01 -0.12786913152E+02  0.29829779161E+02  0.33815740982E+02  0.17770000000E+01 0.  1.
         15    1    1    2    0    0 -0.54607772106E+01 -0.10039526264E+02  0.10811963457E+02  0.15832512692E+02  0.17770000000E+01 0. -1.
</event>
<event>
 6    1  0.1823098E-004  0.5006340E+03  0.7546771E-02  0.9398392E-01
        -11   -1    0    0    0    0  0.00000000000E+00  0.00000000000E+00  0.50000000000E+03  0.50000000000E+03  0.00000000000E+00 0. -1.
         11   -1    0    0    0    0 -0.00000000000E+00 -0.00000000000E+00 -0.50000000000E+03  0.50000000000E+03  0.00000000000E+00 0.  1.
        -11    1    1    2    0    0 -0.29125609069E+01 -0.16562670618E+01  0.17340300949E+03  0.17343537682E+03  0.00000000000E+00 0. -1.
         11    1    1    2    0    0 -0.28556910987E+02 -0.93801376372E+01 -0.49846050043E+03  0.49936595262E+03  0.00000000000E+00 0.  1.
        -15    1    1    2    0    0  0.10475736870E+02 -0.25471223185E+01  0.14401460312E+03  0.14442850320E+03  0.17770000000E+01 0.  1.
         15    1    1    2    0    0  0.20993735024E+02  0.13583527018E+02  0.18104288782E+03  0.18277016736E+03  0.17770000000E+01 0. -1.
</event>
<event>
 6    1  0.1823098E-004  0.5001393E+03  0.7546771E-02  0.9399498E-01
        -11   -1    0    0    0    0  0.00000000000E+00  0.00000000000E+00  0.50000000000E+03  0.50000000000E+03  0.00000000000E+00 0. -1.
         11   -1    0    0    0    0 -0.00000000000E+00 -0.00000000000E+00 -0.50000000000E+03  0.50000000000E+03  0.00000000000E+00 0.  1.
        -11    1    1    2    0    0  0.21701910631E+02 -0.20830088441E+02  0.49895471891E+03  0.49986065761E+03  0.00000000000E+00 0. -1.
         11    1    1    2    0    0 -0.51210968551E+01  0.11547219915E+02 -0.12939337129E+03  0.13000849378E+03  0.00000000000E+00 0.  1.
        -15    1    1    2    0    0 -0.10360688454E+02  0.18567729302E+01 -0.19019629053E+03  0.19049561184E+03  0.17770000000E+01 0.  1.
         15    1    1    2    0    0 -0.62201253224E+01  0.74260955959E+01 -0.17936505708E+03  0.17963523676E+03  0.17770000000E+01 0.  1.
</event>
<event>
 6    1  0.1103074E-003  0.5000761E+03  0.7546771E-02  0.9399639E-01
        -11   -1    0    0    0    0  0.00000000000E+00  0.00000000000E+00  0.50000000000E+03  0.50000000000E+03  0.00000000000E+00 0.  1.
         11   -1    0    0    0    0 -0.00000000000E+00 -0.00000000000E+00 -0.50000000000E+03  0.50000000000E+03  0.00000000000E+00 0. -1.
        -11    1    1    2    0    0  0.97394473827E+00 -0.14091356916E+01  0.11975930761E+03  0.11977155753E+03  0.00000000000E+00 0.  1.
         11    1    1    2    0    0 -0.66231528122E+01 -0.49086163522E+01 -0.49985588492E+03  0.49992386055E+03  0.00000000000E+00 0. -1.
        -15    1    1    2    0    0  0.77310903539E+01  0.52040206928E+01  0.26404564076E+03  0.26421602852E+03  0.17770000000E+01 0.  1.
         15    1    1    2    0    0 -0.20818822800E+01  0.11137313510E+01  0.11605093654E+03  0.11608855340E+03  0.17770000000E+01 0. -1.
</event>
<event>
 6    1  0.1823098E-004  0.5091653E+03  0.7546771E-02  0.9379532E-01
        -11   -1    0    0    0    0  0.00000000000E+00  0.00000000000E+00  0.50000000000E+03  0.50000000000E+03  0.00000000000E+00 0. -1.
         11   -1    0    0    0    0 -0.00000000000E+00 -0.00000000000E+00 -0.50000000000E+03  0.50000000000E+03  0.00000000000E+00 0.  1.
        -11    1    1    2    0    0  0.10371933102E+01 -0.83194178327E+01  0.44564583463E+03  0.44572468902E+03  0.00000000000E+00 0. -1.
         11    1    1    2    0    0 -0.23803056953E+02 -0.25754152195E+02 -0.48958026616E+03  0.49083469610E+03  0.00000000000E+00 0.  1.
        -15    1    1    2    0    0 -0.35231777538E+01  0.45511642318E+01  0.40608131644E+01  0.72645584797E+01  0.17770000000E+01 0. -1.
         15    1    1    2    0    0  0.26289041397E+02  0.29522405796E+02  0.39873618374E+02  0.56176056401E+02  0.17770000000E+01 0.  1.
</event>
<event>
 6    1  0.2679453E-004  0.5001567E+03  0.7546771E-02  0.9399459E-01
        -11   -1    0    0    0    0  0.00000000000E+00  0.00000000000E+00  0.50000000000E+03  0.50000000000E+03  0.00000000000E+00 0.  1.
         11   -1    0    0    0    0 -0.00000000000E+00 -0.00000000000E+00 -0.50000000000E+03  0.50000000000E+03  0.00000000000E+00 0.  1.
        -11    1    1    2    0    0 -0.25060158642E+01 -0.12898394498E+02  0.15598263308E+03  0.15653507760E+03  0.00000000000E+00 0.  1.
         11    1    1    2    0    0  0.18721780296E+00  0.19002435665E+02 -0.49948192101E+03  0.49984329247E+03  0.00000000000E+00 0.  1.
        -15    1    1    2    0    0  0.34419523420E+01 -0.17647230722E+01  0.18527375624E+03  0.18532264773E+03  0.17770000000E+01 0.  1.
         15    1    1    2    0    0 -0.11231542808E+01 -0.43393180945E+01  0.15822553169E+03  0.15829898220E+03  0.17770000000E+01 0.  1.
</event>
<event>
 6    1  0.1823098E-004  0.5066495E+03  0.7546771E-02  0.9385053E-01
        -11   -1    0    0    0    0  0.00000000000E+00  0.00000000000E+00  0.50000000000E+03  0.50000000000E+03  0.00000000000E+00 0. -1.
         11   -1    0    0    0    0 -0.00000000000E+00 -0.00000000000E+00 -0.50000000000E+03  0.50000000000E+03  0.00000000000E+00 0.  1.
        -11    1    1    2    0    0  0.49027691864E+02  0.17620157334E+03  0.31188980873E+03  0.36156045387E+03  0.00000000000E+00 0. -1.
         11    1    1    2    0    0 -0.38888931087E+02 -0.18420050388E+03 -0.45601815891E+03  0.49335052027E+03  0.00000000000E+00 0.  1.
        -15    1    1    2    0    0 -0.85934029749E+01  0.10177151327E+02  0.11922742022E+03  0.11998231721E+03  0.17770000000E+01 0. -1.
         15    1    1    2    0    0 -0.15453578022E+01 -0.21782207863E+01  0.24900929969E+02  0.25106708642E+02  0.17770000000E+01 0.  1.
</event>
<event>
 6    1  0.1823098E-004  0.4901688E+03  0.7546771E-02  0.9422081E-01
        -11   -1    0    0    0    0  0.00000000000E+00  0.00000000000E+00  0.50000000000E+03  0.50000000000E+03  0.00000000000E+00 0. -1.
         11   -1    0    0    0    0 -0.00000000000E+00 -0.00000000000E+00 -0.50000000000E+03  0.50000000000E+03  0.00000000000E+00 0. -1.
        -11    1    1    2    0    0 -0.87169204362E+01 -0.32675068070E+01  0.49208035054E+03  0.49216839871E+03  0.00000000000E+00 0. -1.
         11    1    1    2    0    0  0.52814884109E+01 -0.14056857003E+02 -0.48810535667E+03  0.48833628634E+03  0.00000000000E+00 0. -1.
        -15    1    1    2    0    0  0.11288621595E+01  0.13546936902E+01 -0.18736083615E+01  0.31269253368E+01  0.17770000000E+01 0.  1.
         15    1    1    2    0    0  0.23065698657E+01  0.15969670119E+02 -0.21013855120E+01  0.16368389607E+02  0.17770000000E+01 0. -1.
</event>
<event>
 6    1  0.1823098E-004  0.5002207E+03  0.7546771E-02  0.9399316E-01
        -11   -1    0    0    0    0  0.00000000000E+00  0.00000000000E+00  0.50000000000E+03  0.50000000000E+03  0.00000000000E+00 0. -1.
         11   -1    0    0    0    0 -0.00000000000E+00 -0.00000000000E+00 -0.50000000000E+03  0.50000000000E+03  0.00000000000E+00 0.  1.
        -11    1    1    2    0    0 -0.11700024941E+01  0.36552952736E+01  0.27778538956E+03  0.27781190173E+03  0.00000000000E+00 0. -1.
         11    1    1    2    0    0 -0.23005237403E+01 -0.18357385473E+02 -0.49943670967E+03  0.49977926425E+03  0.00000000000E+00 0.  1.
        -15    1    1    2    0    0  0.12618204236E+01  0.77572586255E+01  0.17253273451E+03  0.17272078467E+03  0.17770000000E+01 0. -1.
         15    1    1    2    0    0  0.22087058108E+01  0.69448315738E+01  0.49118585603E+02  0.49688049344E+02  0.17770000000E+01 0.  1.
</event>
<event>
 6    1  0.1823098E-004  0.5003257E+03  0.7546771E-02  0.9399081E-01
        -11   -1    0    0    0    0  0.00000000000E+00  0.00000000000E+00  0.50000000000E+03  0.50000000000E+03  0.00000000000E+00 0.  1.
         11   -1    0    0    0    0 -0.00000000000E+00 -0.00000000000E+00 -0.50000000000E+03  0.50000000000E+03  0.00000000000E+00 0. -1.
        -11    1    1    2    0    0  0.32008447169E+01 -0.13978561920E+02  0.49946843823E+03  0.49967426028E+03  0.00000000000E+00 0.  1.
         11    1    1    2    0    0  0.30453840918E+01  0.32960384456E+01 -0.15263796250E+02  0.15909799171E+02  0.00000000000E+00 0. -1.
        -15    1    1    2    0    0 -0.19180489290E+01  0.88822728451E+01 -0.32970875631E+03  0.32983874151E+03  0.17770000000E+01 0. -1.
         15    1    1    2    0    0 -0.43281798797E+01  0.18002506294E+01 -0.15449588567E+03  0.15457719903E+03  0.17770000000E+01 0. -1.
</event>
<event>
 6    1  0.1823098E-004  0.5023129E+03  0.7546771E-02  0.9394649E-01
        -11   -1    0    0    0    0  0.00000000000E+00  0.00000000000E+00  0.50000000000E+03  0.50000000000E+03  0.00000000000E+00 0. -1.
         11   -1    0    0    0    0 -0.00000000000E+00 -0.00000000000E+00 -0.50000000000E+03  0.50000000000E+03  0.00000000000E+00 0.  1.
        -11    1    1    2    0    0  0.12292236164E+02 -0.52703034725E+01  0.34673573848E+03  0.34699358425E+03  0.00000000000E+00 0. -1.
         11    1    1    2    0    0  0.95233097366E+01 -0.16777378103E+02 -0.49731302209E+03  0.49768706613E+03  0.00000000000E+00 0.  1.
        -15    1    1    2    0    0 -0.25172893871E+02  0.18418815883E+02  0.10828182852E+03  0.11269888855E+03  0.17770000000E+01 0.  1.
         15    1    1    2    0    0  0.33573479711E+01  0.36288656928E+01  0.42295455092E+02  0.42620461073E+02  0.17770000000E+01 0. -1.
</event>
<event>
 6    1  0.1823098E-004  0.4723240E+03  0.7546771E-02  0.9463959E-01
        -11   -1    0    0    0    0  0.00000000000E+00  0.00000000000E+00  0.50000000000E+03  0.50000000000E+03  0.00000000000E+00 0.  1.
         11   -1    0    0    0    0 -0.00000000000E+00 -0.00000000000E+00 -0.50000000000E+03  0.50000000000E+03  0.00000000000E+00 0. -1.
        -11    1    1    2    0    0  0.39627277769E+02  0.22002880255E+02  0.46517178012E+03  0.46737483126E+03  0.00000000000E+00 0.  1.
         11    1    1    2    0    0 -0.35971974653E+02  0.27172012047E+02 -0.47649930590E+03  0.47862708837E+03  0.00000000000E+00 0. -1.
        -15    1    1    2    0    0 -0.73399185068E+01 -0.81677851095E+01 -0.46380585164E+00  0.11133730828E+02  0.17770000000E+01 0. -1.
         15    1    1    2    0    0  0.36846153915E+01 -0.41007107192E+02  0.11791331631E+02  0.42864349540E+02  0.17770000000E+01 0.  1.
</event>
<event>
 6    1  0.1823098E-004  0.5022445E+03  0.7546771E-02  0.9394801E-01
        -11   -1    0    0    0    0  0.00000000000E+00  0.00000000000E+00  0.50000000000E+03  0.50000000000E+03  0.00000000000E+00 0.  1.
         11   -1    0    0    0    0 -0.00000000000E+00 -0.00000000000E+00 -0.50000000000E+03  0.50000000000E+03  0.00000000000E+00 0. -1.
        -11    1    1    2    0    0  0.11320982556E+02 -0.33691775255E+01  0.49761535315E+03  0.49775551799E+03  0.00000000000E+00 0.  1.
         11    1    1    2    0    0  0.10879320472E+02  0.35102031637E+01 -0.43260322935E+03  0.43275424340E+03  0.00000000000E+00 0. -1.
        -15    1    1    2    0    0 -0.70586273234E+01  0.41438276656E+00 -0.98326982603E+01  0.12240735960E+02  0.17770000000E+01 0. -1.
         15    1    1    2    0    0 -0.15141675705E+02 -0.55540840480E+00 -0.55179425541E+02  0.57249502650E+02  0.17770000000E+01 0.  1.
</event>
<event>
 6    1  0.1823098E-004  0.5002197E+03  0.7546771E-02  0.9399318E-01
        -11   -1    0    0    0    0  0.00000000000E+00  0.00000000000E+00  0.50000000000E+03  0.50000000000E+03  0.00000000000E+00 0.  1.
         11   -1    0    0    0    0 -0.00000000000E+00 -0.00000000000E+00 -0.50000000000E+03  0.50000000000E+03  0.00000000000E+00 0. -1.
        -11    1    1    2    0    0 -0.88443461930E+01 -0.78081315061E+01  0.49964102198E+03  0.49978029195E+03  0.00000000000E+00 0.  1.
         11    1    1    2    0    0  0.10531752375E+01 -0.42442278863E+01 -0.67347178384E+02  0.67488999731E+02  0.00000000000E+00 0. -1.
        -15    1    1    2    0    0  0.51132816365E+01  0.35812147671E+01 -0.64599645252E+02  0.64924900030E+02  0.17770000000E+01 0.  1.
         15    1    1    2    0    0  0.26778893190E+01  0.84711446253E+01 -0.36769419835E+03  0.36780580829E+03  0.17770000000E+01 0. -1.
</event>
<event>
 6    1  0.1823098E-004  0.5065151E+03  0.7546771E-02  0.9385349E-01
        -11   -1    0    0    0    0  0.00000000000E+00  0.00000000000E+00  0.50000000000E+03  0.50000000000E+03  0.00000000000E+00 0. -1.
         11   -1    0    0    0    0 -0.00000000000E+00 -0.00000000000E+00 -0.50000000000E+03  0.50000000000E+03  0.00000000000E+00 0. -1.
        -11    1    1    2    0    0  0.10282730683E+02  0.11368323519E+02  0.49324679954E+03  0.49348493248E+03  0.00000000000E+00 0. -1.
         11    1    1    2    0    0  0.12288692311E+02 -0.21680880253E+02 -0.46709577489E+03  0.46776012597E+03  0.00000000000E+00 0. -1.
        -15    1    1    2    0    0 -0.17167624675E+01  0.34960930905E+01 -0.11608315793E+02  0.12372577130E+02  0.17770000000E+01 0. -1.
         15    1    1    2    0    0 -0.20854660527E+02  0.68164636436E+01 -0.14542708864E+02  0.26382364421E+02  0.17770000000E+01 0.  1.
</event>
<event>
 6    1  0.1823098E-004  0.5051895E+03  0.7546771E-02  0.9388272E-01
        -11   -1    0    0    0    0  0.00000000000E+00  0.00000000000E+00  0.50000000000E+03  0.50000000000E+03  0.00000000000E+00 0. -1.
         11   -1    0    0    0    0 -0.00000000000E+00 -0.00000000000E+00 -0.50000000000E+03  0.50000000000E+03  0.00000000000E+00 0.  1.
        -11    1    1    2    0    0 -0.16498302713E+01 -0.74502543114E+01  0.49475163163E+03  0.49481047405E+03  0.00000000000E+00 0. -1.
         11    1    1    2    0    0 -0.33236129517E+02  0.33984389704E+02 -0.35254452202E+03  0.35573475941E+03  0.00000000000E+00 0.  1.
        -15    1    1    2    0    0  0.73248181776E+01 -0.73470132855E+01 -0.18782106265E+02  0.21530369488E+02  0.17770000000E+01 0.  1.
         15    1    1    2    0    0  0.27561141610E+02 -0.19187122107E+02 -0.12342500334E+03  0.12792439705E+03  0.17770000000E+01 0. -1.
</event>
<event>
 6    1  0.1823098E-004  0.5001924E+03  0.7546771E-02  0.9399379E-01
        -11   -1    0    0    0    0  0.00000000000E+00  0.00000000000E+00  0.50000000000E+03  0.50000000000E+03  0.00000000000E+00 0. -1.
         11   -1    0    0    0    0 -0.00000000000E+00 -0.00000000000E+00 -0.50000000000E+03  0.50000000000E+03  0.00000000000E+00 0. -1.
        -11    1    1    2    0    0  0.43122541355E+01  0.98954826976E+01  0.49969106517E+03  0.49980763972E+03  0.00000000000E+00 0. -1.
         11    1    1    2    0    0 -0.52236844502E+01 -0.55857753202E+01 -0.71608347283E+02  0.72015575855E+02  0.00000000000E+00 0. -1.
        -15    1    1    2    0    0  0.67370150518E+00 -0.59589759920E+01 -0.35058324482E+03  0.35063903454E+03  0.17770000000E+01 0. -1.
         15    1    1    2    0    0  0.23772880956E+00  0.16492686146E+01 -0.77499473068E+02  0.77537749882E+02  0.17770000000E+01 0.  1.
</event>
<event>
 6    1  0.1823098E-004  0.5028409E+03  0.7546771E-02  0.9393475E-01
        -11   -1    0    0    0    0  0.00000000000E+00  0.00000000000E+00  0.50000000000E+03  0.50000000000E+03  0.00000000000E+00 0.  1.
         11   -1    0    0    0    0 -0.00000000000E+00 -0.00000000000E+00 -0.50000000000E+03  0.50000000000E+03  0.00000000000E+00 0.  1.
        -11    1    1    2    0    0  0.55048606086E+01  0.80463060554E+01  0.46377705340E+03  0.46387951215E+03  0.00000000000E+00 0.  1.
         11    1    1    2    0    0  0.58601228683E+01  0.65325123963E+01 -0.49708167977E+03  0.49715914064E+03  0.00000000000E+00 0.  1.
        -15    1    1    2    0    0 -0.59915993914E+01 -0.10701168258E+02  0.26712076900E+02  0.29446681420E+02  0.17770000000E+01 0.  1.
         15    1    1    2    0    0 -0.53733840855E+01 -0.38776501938E+01  0.65925494677E+01  0.95146657870E+01  0.17770000000E+01 0. -1.
</event>
<event>
 6    1  0.1823098E-004  0.5020229E+03  0.7546771E-02  0.9395295E-01
        -11   -1    0    0    0    0  0.00000000000E+00  0.00000000000E+00  0.50000000000E+03  0.50000000000E+03  0.00000000000E+00 0. -1.
         11   -1    0    0    0    0 -0.00000000000E+00 -0.00000000000E+00 -0.50000000000E+03  0.50000000000E+03  0.00000000000E+00 0. -1.
        -11    1    1    2    0    0 -0.17030118600E+01  0.10237112752E+02  0.49786895887E+03  0.49797710683E+03  0.00000000000E+00 0. -1.
         11    1    1    2    0    0 -0.19758796927E+02 -0.21533043510E+02 -0.33381856956E+03  0.33509538851E+03  0.00000000000E+00 0. -1.
        -15    1    1    2    0    0  0.94007072639E+01  0.54688116567E+01 -0.26292400953E+02  0.28508407091E+02  0.17770000000E+01 0.  1.
         15    1    1    2    0    0  0.12061101523E+02  0.58271191015E+01 -0.13775798835E+03  0.13841909757E+03  0.17770000000E+01 0. -1.
</event>
<event>
 6    1  0.1823098E-004  0.5045467E+03  0.7546771E-02  0.9389693E-01
        -11   -1    0    0    0    0  0.00000000000E+00  0.00000000000E+00  0.50000000000E+03  0.50000000000E+03  0.00000000000E+00 0. -1.
         11   -1    0    0    0    0 -0.00000000000E+00 -0.00000000000E+00 -0.50000000000E+03  0.50000000000E+03  0.00000000000E+00 0.  1.
        -11    1    1    2    0    0  0.47502541387E+01  0.46301025337E+01  0.41135244597E+03  0.41140592797E+03  0.00000000000E+00 0. -1.
         11    1    1    2    0    0 -0.23799793571E+02 -0.18041744588E+02 -0.49455234684E+03  0.49545328588E+03  0.00000000000E+00 0.  1.
        -15    1    1    2    0    0  0.49169889623E+01  0.11765981356E+02  0.76024462405E+02  0.77107014666E+02  0.17770000000E+01 0. -1.
         15    1    1    2    0    0  0.14132550470E+02  0.16456606981E+01  0.71754384669E+01  0.16033771488E+02  0.17770000000E+01 0.  1.
</event>
<event>
 6    1  0.1823098E-004  0.5002590E+03  0.7546771E-02  0.9399230E-01
        -11   -1    0    0    0    0  0.00000000000E+00  0.00000000000E+00  0.50000000000E+03  0.50000000000E+03  0.00000000000E+00 0. -1.
         11   -1    0    0    0    0 -0.00000000000E+00 -0.00000000000E+00 -0.50000000000E+03  0.50000000000E+03  0.00000000000E+00 0.  1.
        -11    1    1    2    0    0  0.40235762293E+01 -0.34846184184E+01  0.35004264721E+03  0.35008311384E+03  0.00000000000E+00 0. -1.
         11    1    1    2    0    0  0.35071015995E+01  0.67839280112E+01 -0.49968267106E+03  0.49974102613E+03  0.00000000000E+00 0.  1.
        -15    1    1    2    0    0 -0.33582474395E+01 -0.60004563536E+01  0.10125012937E+03  0.10149891491E+03  0.17770000000E+01 0. -1.
         15    1    1    2    0    0 -0.41724303893E+01  0.27011467608E+01  0.48389894482E+02  0.48676945119E+02  0.17770000000E+01 0.  1.
</event>
<event>
 6    1  0.1823098E-004  0.5046129E+03  0.7546771E-02  0.9389547E-01
        -11   -1    0    0    0    0  0.00000000000E+00  0.00000000000E+00  0.50000000000E+03  0.50000000000E+03  0.00000000000E+00 0. -1.
         11   -1    0    0    0    0 -0.00000000000E+00 -0.00000000000E+00 -0.50000000000E+03  0.50000000000E+03  0.00000000000E+00 0.  1.
        -11    1    1    2    0    0  0.77999309806E+01  0.43668031941E+01  0.49530646797E+03  0.49538712650E+03  0.00000000000E+00 0. -1.
         11    1    1    2    0    0  0.14421749198E+02  0.13772092837E+02 -0.37547773776E+03  0.37600690013E+03  0.00000000000E+00 0.  1.
        -15    1    1    2    0    0 -0.22365241881E+02  0.25355054462E+01 -0.86045997542E+02  0.88959003222E+02  0.17770000000E+01 0.  1.
         15    1    1    2    0    0  0.14356170213E+00 -0.20674401477E+02 -0.33782732665E+02  0.39646970145E+02  0.17770000000E+01 0. -1.
</event>
<event>
 6    1  0.1823098E-004  0.5012572E+03  0.7546771E-02  0.9397001E-01
        -11   -1    0    0    0    0  0.00000000000E+00  0.00000000000E+00  0.50000000000E+03  0.50000000000E+03  0.00000000000E+00 0. -1.
         11   -1    0    0    0    0 -0.00000000000E+00 -0.00000000000E+00 -0.50000000000E+03  0.50000000000E+03  0.00000000000E+00 0.  1.
        -11    1    1    2    0    0 -0.46127587952E+00 -0.69406158204E+01  0.49869427489E+03  0.49874278414E+03  0.00000000000E+00 0. -1.
         11    1    1    2    0    0 -0.69200926395E+01 -0.36973341714E+01 -0.45861511107E+03  0.45868221904E+03  0.00000000000E+00 0.  1.
        -15    1    1    2    0    0  0.26879697408E+01  0.96870422375E+00 -0.11788955194E+02  0.12259721154E+02  0.17770000000E+01 0.  1.
         15    1    1    2    0    0  0.46933987782E+01  0.96692457680E+01 -0.28290208623E+02  0.30315275667E+02  0.17770000000E+01 0. -1.
</event>
<event>
 6    1  0.1823098E-004  0.5099248E+03  0.7546771E-02  0.9377872E-01
        -11   -1    0    0    0    0  0.00000000000E+00  0.00000000000E+00  0.50000000000E+03  0.50000000000E+03  0.00000000000E+00 0. -1.
         11   -1    0    0    0    0 -0.00000000000E+00 -0.00000000000E+00 -0.50000000000E+03  0.50000000000E+03  0.00000000000E+00 0.  1.
        -11    1    1    2    0    0  0.58271211389E+01  0.63155544484E+01  0.48999986450E+03  0.49007520727E+03  0.00000000000E+00 0. -1.
         11    1    1    2    0    0 -0.19505535097E+02  0.10696099596E+02 -0.47535661925E+03  0.47587686214E+03  0.00000000000E+00 0.  1.
        -15    1    1    2    0    0  0.18289677319E+02 -0.17823857407E+02 -0.11044084192E+02  0.27880669180E+02  0.17770000000E+01 0. -1.
         15    1    1    2    0    0 -0.46112633610E+01  0.81220336224E+00 -0.35991610537E+01  0.61672614163E+01  0.17770000000E+01 0.  1.
</event>
<event>
 6    1  0.1823098E-004  0.5032862E+03  0.7546771E-02  0.9392486E-01
        -11   -1    0    0    0    0  0.00000000000E+00  0.00000000000E+00  0.50000000000E+03  0.50000000000E+03  0.00000000000E+00 0.  1.
         11   -1    0    0    0    0 -0.00000000000E+00 -0.00000000000E+00 -0.50000000000E+03  0.50000000000E+03  0.00000000000E+00 0.  1.
        -11    1    1    2    0    0  0.13928133416E+02  0.10368140657E+01  0.49651737449E+03  0.49671377176E+03  0.00000000000E+00 0.  1.
         11    1    1    2    0    0 -0.93382388306E+01  0.21665866737E+02 -0.40832531592E+03  0.40900632771E+03  0.00000000000E+00 0.  1.
        -15    1    1    2    0    0 -0.26650158522E+01  0.96503024478E+00 -0.46376982289E+00  0.33773368672E+01  0.17770000000E+01 0. -1.
         15    1    1    2    0    0 -0.19248787329E+01 -0.23667711048E+02 -0.87728288747E+02  0.90902563659E+02  0.17770000000E+01 0.  1.
</event>
<event>
 6    1  0.1823098E-004  0.5074174E+03  0.7546771E-02  0.9383364E-01
        -11   -1    0    0    0    0  0.00000000000E+00  0.00000000000E+00  0.50000000000E+03  0.50000000000E+03  0.00000000000E+00 0.  1.
         11   -1    0    0    0    0 -0.00000000000E+00 -0.00000000000E+00 -0.50000000000E+03  0.50000000000E+03  0.00000000000E+00 0. -1.
        -11    1    1    2    0    0 -0.32937729085E+01 -0.30760655591E+02  0.23902709832E+03  0.24102078874E+03  0.00000000000E+00 0.  1.
         11    1    1    2    0    0 -0.78255543201E+02  0.67161860701E+02 -0.48166684665E+03  0.49258257859E+03  0.00000000000E+00 0. -1.
        -15    1    1    2    0    0  0.33470817685E+02  0.38036814057E+01  0.15506131571E+03  0.15868816272E+03  0.17770000000E+01 0.  1.
         15    1    1    2    0    0  0.48078498424E+02 -0.40204886516E+02  0.87578432623E+02  0.10770846996E+03  0.17770000000E+01 0. -1.
</event>
<event>
 6    1  0.1823098E-004  0.5000874E+03  0.7546771E-02  0.9399614E-01
        -11   -1    0    0    0    0  0.00000000000E+00  0.00000000000E+00  0.50000000000E+03  0.50000000000E+03  0.00000000000E+00 0.  1.
         11   -1    0    0    0    0 -0.00000000000E+00 -0.00000000000E+00 -0.50000000000E+03  0.50000000000E+03  0.00000000000E+00 0.  1.
        -11    1    1    2    0    0  0.55573941039E+01 -0.77586908219E+01  0.49982151198E+03  0.49991261812E+03  0.00000000000E+00 0.  1.
         11    1    1    2    0    0 -0.84356599041E+00  0.25425887737E+01 -0.23082685409E+02  0.23237614484E+02  0.00000000000E+00 0.  1.
        -15    1    1    2    0    0 -0.45743871890E+01  0.32039046065E+00 -0.27325523923E+03  0.27329948987E+03  0.17770000000E+01 0.  1.
         15    1    1    2    0    0 -0.13944092449E+00  0.48957115875E+01 -0.20348358734E+03  0.20355027753E+03  0.17770000000E+01 0. -1.
</event>
<event>
 6    1  0.1823098E-004  0.5042149E+03  0.7546771E-02  0.9390428E-01
        -11   -1    0    0    0    0  0.00000000000E+00  0.00000000000E+00  0.50000000000E+03  0.50000000000E+03  0.00000000000E+00 0. -1.
         11   -1    0    0    0    0 -0.00000000000E+00 -0.00000000000E+00 -0.50000000000E+03  0.50000000000E+03  0.00000000000E+00 0.  1.
        -11    1    1    2    0    0 -0.60028268348E+00  0.37228742358E+01  0.25758989468E+03  0.25761749547E+03  0.00000000000E+00 0. -1.
         11    1    1    2    0    0  0.30682981830E+02 -0.47344345686E+02 -0.49256467437E+03  0.49578512571E+03  0.00000000000E+00 0.  1.
        -15    1    1    2    0    0 -0.20345428688E+02  0.52584363201E+02  0.14412506628E+03  0.15477158712E+03  0.17770000000E+01 0.  1.
         15    1    1    2    0    0 -0.97372704586E+01 -0.89628917500E+01  0.90849713416E+02  0.91825791699E+02  0.17770000000E+01 0. -1.
</event>
<event>
 6    1  0.1823098E-004  0.5004718E+03  0.7546771E-02  0.9398755E-01
        -11   -1    0    0    0    0  0.00000000000E+00  0.00000000000E+00  0.50000000000E+03  0.50000000000E+03  0.00000000000E+00 0. -1.
         11   -1    0    0    0    0 -0.00000000000E+00 -0.00000000000E+00 -0.50000000000E+03  0.50000000000E+03  0.00000000000E+00 0. -1.
        -11    1    1    2    0    0 -0.49892366137E+01 -0.11361073017E+02  0.49937407608E+03  0.49952821174E+03  0.00000000000E+00 0. -1.
         11    1    1    2    0    0  0.49416160198E+01  0.28832135472E+01 -0.37197603071E+03  0.37202002622E+03  0.00000000000E+00 0. -1.
        -15    1    1    2    0    0  0.12592198654E+00 -0.35043504820E+01 -0.44506255911E+02  0.44679535281E+02  0.17770000000E+01 0.  1.
         15    1    1    2    0    0 -0.78301392655E-01  0.11982209952E+02 -0.82891789463E+02  0.83772226757E+02  0.17770000000E+01 0. -1.
</event>
<event>
 6    1  0.1823098E-004  0.5077647E+03  0.7546771E-02  0.9382601E-01
        -11   -1    0    0    0    0  0.00000000000E+00  0.00000000000E+00  0.50000000000E+03  0.50000000000E+03  0.00000000000E+00 0.  1.
         11   -1    0    0    0    0 -0.00000000000E+00 -0.00000000000E+00 -0.50000000000E+03  0.50000000000E+03  0.00000000000E+00 0.  1.
        -11    1    1    2    0    0  0.89635513612E+01 -0.51786490870E+01  0.49212647322E+03  0.49223533935E+03  0.00000000000E+00 0.  1.
         11    1    1    2    0    0 -0.37154219756E+01 -0.23778958483E+02 -0.45552195569E+03  0.45615731424E+03  0.00000000000E+00 0.  1.
        -15    1    1    2    0    0 -0.36910793524E+00  0.89651463193E+01 -0.27596295818E+02  0.29072725381E+02  0.17770000000E+01 0. -1.
         15    1    1    2    0    0 -0.48790214503E+01  0.19992461251E+02 -0.90082217178E+01  0.22534621024E+02  0.17770000000E+01 0.  1.
</event>
<event>
 6    1  0.1823098E-004  0.5092653E+03  0.7546771E-02  0.9379313E-01
        -11   -1    0    0    0    0  0.00000000000E+00  0.00000000000E+00  0.50000000000E+03  0.50000000000E+03  0.00000000000E+00 0. -1.
         11   -1    0    0    0    0 -0.00000000000E+00 -0.00000000000E+00 -0.50000000000E+03  0.50000000000E+03  0.00000000000E+00 0. -1.
        -11    1    1    2    0    0  0.59519391931E+01  0.21142708067E+02  0.49024286978E+03  0.49073466462E+03  0.00000000000E+00 0. -1.
         11    1    1    2    0    0  0.26737501721E+02  0.11581310868E+02 -0.43004286215E+03  0.43102886683E+03  0.00000000000E+00 0. -1.
        -15    1    1    2    0    0 -0.28507901663E+01  0.21600245780E+01 -0.56600895933E+01  0.69272688669E+01  0.17770000000E+01 0.  1.
         15    1    1    2    0    0 -0.29838650748E+02 -0.34884043514E+02 -0.54539918044E+02  0.71309199684E+02  0.17770000000E+01 0. -1.
</event>
<event>
 6    1  0.1823098E-004  0.5017989E+03  0.7546771E-02  0.9395794E-01
        -11   -1    0    0    0    0  0.00000000000E+00  0.00000000000E+00  0.50000000000E+03  0.50000000000E+03  0.00000000000E+00 0. -1.
         11   -1    0    0    0    0 -0.00000000000E+00 -0.00000000000E+00 -0.50000000000E+03  0.50000000000E+03  0.00000000000E+00 0.  1.
        -11    1    1    2    0    0  0.64314014572E+01  0.17296844016E+01  0.41973946781E+03  0.41979230052E+03  0.00000000000E+00 0. -1.
         11    1    1    2    0    0  0.10774890357E+02 -0.13907692360E+02 -0.49789040327E+03  0.49820113994E+03  0.00000000000E+00 0.  1.
        -15    1    1    2    0    0 -0.11077553275E+02  0.14095784627E+02  0.61075704908E+02  0.63677333406E+02  0.17770000000E+01 0. -1.
         15    1    1    2    0    0 -0.61287385393E+01 -0.19177766686E+01  0.17075230548E+02  0.18329226135E+02  0.17770000000E+01 0.  1.
</event>
<event>
 6    1  0.1823098E-004  0.5050381E+03  0.7546771E-02  0.9388607E-01
        -11   -1    0    0    0    0  0.00000000000E+00  0.00000000000E+00  0.50000000000E+03  0.50000000000E+03  0.00000000000E+00 0.  1.
         11   -1    0    0    0    0 -0.00000000000E+00 -0.00000000000E+00 -0.50000000000E+03  0.50000000000E+03  0.00000000000E+00 0. -1.
        -11    1    1    2    0    0 -0.74649989104E+01  0.10029147472E+02  0.49480396142E+03  0.49496188766E+03  0.00000000000E+00 0.  1.
         11    1    1    2    0    0 -0.45009918381E+01  0.10514025502E+02 -0.46230228684E+03  0.46244373503E+03  0.00000000000E+00 0. -1.
        -15    1    1    2    0    0  0.12426898451E+02 -0.12938033693E+02 -0.28709831368E+02  0.33900334322E+02  0.17770000000E+01 0. -1.
         15    1    1    2    0    0 -0.46090770224E+00 -0.76051392801E+01 -0.37918432113E+01  0.86940429789E+01  0.17770000000E+01 0.  1.
</event>
<event>
 6    1  0.1823098E-004  0.5009311E+03  0.7546771E-02  0.9397729E-01
        -11   -1    0    0    0    0  0.00000000000E+00  0.00000000000E+00  0.50000000000E+03  0.50000000000E+03  0.00000000000E+00 0.  1.
         11   -1    0    0    0    0 -0.00000000000E+00 -0.00000000000E+00 -0.50000000000E+03  0.50000000000E+03  0.00000000000E+00 0. -1.
        -11    1    1    2    0    0 -0.56021814344E+01 -0.11675368929E+02  0.49890090056E+03  0.49906894038E+03  0.00000000000E+00 0.  1.
         11    1    1    2    0    0  0.91199458787E+01  0.13302282095E+02 -0.48477433619E+03  0.48504255602E+03  0.00000000000E+00 0. -1.
        -15    1    1    2    0    0  0.77483041396E+00 -0.16608086726E+01 -0.39719157465E+01  0.47214924881E+01  0.17770000000E+01 0.  1.
         15    1    1    2    0    0 -0.42925948582E+01  0.33895505879E-01 -0.10154648617E+02  0.11167011106E+02  0.17770000000E+01 0. -1.
</event>
<event>
 6    1  0.1823098E-004  0.5006980E+03  0.7546771E-02  0.9398249E-01
        -11   -1    0    0    0    0  0.00000000000E+00  0.00000000000E+00  0.50000000000E+03  0.50000000000E+03  0.00000000000E+00 0.  1.
         11   -1    0    0    0    0 -0.00000000000E+00 -0.00000000000E+00 -0.50000000000E+03  0.50000000000E+03  0.00000000000E+00 0. -1.
        -11    1    1    2    0    0 -0.82867482313E-01 -0.30970518188E+01  0.15427884596E+03  0.15430995077E+03  0.00000000000E+00 0.  1.
         11    1    1    2    0    0 -0.15612988077E+02  0.26247131821E+02 -0.49836718685E+03  0.49930204311E+03  0.00000000000E+00 0. -1.
        -15    1    1    2    0    0  0.23891235507E+02 -0.18363449087E+02  0.25793667881E+03  0.25969692990E+03  0.17770000000E+01 0.  1.
         15    1    1    2    0    0 -0.81953799472E+01 -0.47866309158E+01  0.86151662079E+02  0.86691076219E+02  0.17770000000E+01 0. -1.
</event>
<event>
 6    1  0.1823098E-004  0.5056985E+03  0.7546771E-02  0.9387148E-01
        -11   -1    0    0    0    0  0.00000000000E+00  0.00000000000E+00  0.50000000000E+03  0.50000000000E+03  0.00000000000E+00 0.  1.
         11   -1    0    0    0    0 -0.00000000000E+00 -0.00000000000E+00 -0.50000000000E+03  0.50000000000E+03  0.00000000000E+00 0. -1.
        -11    1    1    2    0    0  0.27227235486E+01  0.95228319776E+01  0.40127885926E+03  0.40140107180E+03  0.00000000000E+00 0.  1.
         11    1    1    2    0    0  0.28025582848E+02 -0.21408742558E+02 -0.49304181148E+03  0.49430152277E+03  0.00000000000E+00 0. -1.
        -15    1    1    2    0    0 -0.30862806093E+02  0.22626849598E+02  0.65729505042E+02  0.76078989772E+02  0.17770000000E+01 0. -1.
         15    1    1    2    0    0  0.11449969583E+00 -0.10740939018E+02  0.26033447176E+02  0.28218415654E+02  0.17770000000E+01 0.  1.
</event>
<event>
 6    1  0.1823098E-004  0.5027043E+03  0.7546771E-02  0.9393779E-01
        -11   -1    0    0    0    0  0.00000000000E+00  0.00000000000E+00  0.50000000000E+03  0.50000000000E+03  0.00000000000E+00 0.  1.
         11   -1    0    0    0    0 -0.00000000000E+00 -0.00000000000E+00 -0.50000000000E+03  0.50000000000E+03  0.00000000000E+00 0. -1.
        -11    1    1    2    0    0 -0.76420070125E+01 -0.72851531623E+01  0.48112502762E+03  0.48124086062E+03  0.00000000000E+00 0.  1.
         11    1    1    2    0    0  0.11461759468E+02 -0.34258635447E+01 -0.49715179822E+03  0.49729570573E+03  0.00000000000E+00 0. -1.
        -15    1    1    2    0    0  0.13647315434E+01  0.61878949800E+01  0.46808298352E+01  0.80759168777E+01  0.17770000000E+01 0.  1.
         15    1    1    2    0    0 -0.51844839990E+01  0.45231217271E+01  0.11345940763E+02  0.13387516771E+02  0.17770000000E+01 0. -1.
</event>
<event>
 6    1  0.1823098E-004  0.5010877E+03  0.7546771E-02  0.9397379E-01
        -11   -1    0    0    0    0  0.00000000000E+00  0.00000000000E+00  0.50000000000E+03  0.50000000000E+03  0.00000000000E+00 0.  1.
         11   -1    0    0    0    0 -0.00000000000E+00 -0.00000000000E+00 -0.50000000000E+03  0.50000000000E+03  0.00000000000E+00 0.  1.
        -11    1    1    2    0    0  0.41398157960E+01 -0.40862249415E+01  0.31165852094E+03  0.31171279888E+03  0.00000000000E+00 0.  1.
         11    1    1    2    0    0 -0.12554439621E+01 -0.20175044304E+02 -0.49850265082E+03  0.49891231838E+03  0.00000000000E+00 0.  1.
        -15    1    1    2    0    0 -0.29635152303E+01  0.97075215329E+00  0.76566622848E+02  0.76650702839E+02  0.17770000000E+01 0.  1.
         15    1    1    2    0    0  0.79143396424E-01  0.23290517092E+02  0.11027750703E+03  0.11272417991E+03  0.17770000000E+01 0.  1.
</event>
<event>
 6    1  0.1823098E-004  0.5004512E+03  0.7546771E-02  0.9398801E-01
        -11   -1    0    0    0    0  0.00000000000E+00  0.00000000000E+00  0.50000000000E+03  0.50000000000E+03  0.00000000000E+00 0. -1.
         11   -1    0    0    0    0 -0.00000000000E+00 -0.00000000000E+00 -0.50000000000E+03  0.50000000000E+03  0.00000000000E+00 0. -1.
        -11    1    1    2    0    0 -0.34593675299E+01  0.32217026201E+01  0.33953613853E+03  0.33956904447E+03  0.00000000000E+00 0. -1.
         11    1    1    2    0    0 -0.50806726649E+01  0.11736235720E+02 -0.49938507528E+03  0.49954880229E+03  0.00000000000E+00 0. -1.
        -15    1    1    2    0    0  0.70574971359E+01 -0.11290140591E+02  0.10377149825E+03  0.10463726448E+03  0.17770000000E+01 0.  1.
         15    1    1    2    0    0  0.14825430589E+01 -0.36677977486E+01  0.56077438499E+02  0.56244888762E+02  0.17770000000E+01 0. -1.
</event>
<event>
 6    1  0.1823098E-004  0.5009291E+03  0.7546771E-02  0.9397733E-01
        -11   -1    0    0    0    0  0.00000000000E+00  0.00000000000E+00  0.50000000000E+03  0.50000000000E+03  0.00000000000E+00 0. -1.
         11   -1    0    0    0    0 -0.00000000000E+00 -0.00000000000E+00 -0.50000000000E+03  0.50000000000E+03  0.00000000000E+00 0.  1.
        -11    1    1    2    0    0  0.80670277409E+01 -0.35150000290E+02  0.49776620522E+03  0.49907093135E+03  0.00000000000E+00 0. -1.
         11    1    1    2    0    0 -0.11789762825E+02  0.17908624009E+01 -0.72718823510E+02  0.73690114590E+02  0.00000000000E+00 0.  1.
        -15    1    1    2    0    0  0.77700764055E+01  0.32224598390E+02 -0.25768770799E+03  0.25981707297E+03  0.17770000000E+01 0.  1.
         15    1    1    2    0    0 -0.40473413218E+01  0.11345394999E+01 -0.16735967372E+03  0.16742188109E+03  0.17770000000E+01 0. -1.
</event>
<event>
 6    1  0.1823098E-004  0.5038007E+03  0.7546771E-02  0.9391345E-01
        -11   -1    0    0    0    0  0.00000000000E+00  0.00000000000E+00  0.50000000000E+03  0.50000000000E+03  0.00000000000E+00 0. -1.
         11   -1    0    0    0    0 -0.00000000000E+00 -0.00000000000E+00 -0.50000000000E+03  0.50000000000E+03  0.00000000000E+00 0.  1.
        -11    1    1    2    0    0 -0.21150341913E+01  0.74520460323E+01  0.49613885842E+03  0.49619932809E+03  0.00000000000E+00 0. -1.
         11    1    1    2    0    0 -0.25734433339E+02 -0.31811821001E+01 -0.39436323583E+03  0.39521480584E+03  0.00000000000E+00 0.  1.
        -15    1    1    2    0    0 -0.11544040754E+00 -0.65631873794E+01 -0.71317540994E+01  0.98543594718E+01  0.17770000000E+01 0.  1.
         15    1    1    2    0    0  0.27964907937E+02  0.22923234472E+01 -0.94643868496E+02  0.98731506600E+02  0.17770000000E+01 0. -1.
</event>
<event>
 6    1  0.1823098E-004  0.5009607E+03  0.7546771E-02  0.9397663E-01
        -11   -1    0    0    0    0  0.00000000000E+00  0.00000000000E+00  0.50000000000E+03  0.50000000000E+03  0.00000000000E+00 0.  1.
         11   -1    0    0    0    0 -0.00000000000E+00 -0.00000000000E+00 -0.50000000000E+03  0.50000000000E+03  0.00000000000E+00 0. -1.
        -11    1    1    2    0    0  0.11193339327E+02 -0.23661894898E+01  0.28649326214E+03  0.28672160531E+03  0.00000000000E+00 0.  1.
         11    1    1    2    0    0  0.14543827799E+02 -0.47016037092E+01 -0.49880513631E+03  0.49903926901E+03  0.00000000000E+00 0. -1.
        -15    1    1    2    0    0 -0.50244626724E+01  0.30950974110E-01  0.74516941010E+02  0.74707284849E+02  0.17770000000E+01 0. -1.
         15    1    1    2    0    0 -0.20712704454E+02  0.70368422249E+01  0.13779493316E+03  0.13953184084E+03  0.17770000000E+01 0.  1.
</event>
<event>
 6    1  0.1823098E-004  0.5027808E+03  0.7546771E-02  0.9393609E-01
        -11   -1    0    0    0    0  0.00000000000E+00  0.00000000000E+00  0.50000000000E+03  0.50000000000E+03  0.00000000000E+00 0. -1.
         11   -1    0    0    0    0 -0.00000000000E+00 -0.00000000000E+00 -0.50000000000E+03  0.50000000000E+03  0.00000000000E+00 0. -1.
        -11    1    1    2    0    0 -0.46979730381E+01 -0.29750266170E+02  0.49630611274E+03  0.49721917384E+03  0.00000000000E+00 0. -1.
         11    1    1    2    0    0 -0.25114230087E+02 -0.97289541083E+01 -0.23527803310E+03  0.23681454761E+03  0.00000000000E+00 0. -1.
        -15    1    1    2    0    0  0.52429766274E+01  0.11092670978E+02 -0.44236616854E+02  0.45940963780E+02  0.17770000000E+01 0.  1.
         15    1    1    2    0    0  0.24569226498E+02  0.28386549300E+02 -0.21679146279E+03  0.22002531477E+03  0.17770000000E+01 0.  1.
</event>
<event>
 6    1  0.1823098E-004  0.5033520E+03  0.7546771E-02  0.9392341E-01
        -11   -1    0    0    0    0  0.00000000000E+00  0.00000000000E+00  0.50000000000E+03  0.50000000000E+03  0.00000000000E+00 0. -1.
         11   -1    0    0    0    0 -0.00000000000E+00 -0.00000000000E+00 -0.50000000000E+03  0.50000000000E+03  0.00000000000E+00 0.  1.
        -11    1    1    2    0    0  0.50879001141E+01  0.62002311968E+01  0.47418238238E+03  0.47425020965E+03  0.00000000000E+00 0. -1.
         11    1    1    2    0    0  0.36892790932E+01  0.62244233433E+01 -0.49659533480E+03  0.49664804517E+03  0.00000000000E+00 0.  1.
        -15    1    1    2    0    0  0.12703074568E+01 -0.59388342763E+01  0.94772545838E+01  0.11395592001E+02  0.17770000000E+01 0. -1.
         15    1    1    2    0    0 -0.10047486664E+02 -0.64858202638E+01  0.12935697838E+02  0.17706153177E+02  0.17770000000E+01 0.  1.
</event>
<event>
 6    1  0.1823098E-004  0.4763784E+03  0.7546771E-02  0.9454274E-01
        -11   -1    0    0    0    0  0.00000000000E+00  0.00000000000E+00  0.50000000000E+03  0.50000000000E+03  0.00000000000E+00 0. -1.
         11   -1    0    0    0    0 -0.00000000000E+00 -0.00000000000E+00 -0.50000000000E+03  0.50000000000E+03  0.00000000000E+00 0. -1.
        -11    1    1    2    0    0  0.89413656168E+01  0.14579739865E+02  0.47990554084E+03  0.48021020914E+03  0.00000000000E+00 0. -1.
         11    1    1    2    0    0  0.48138294403E+01 -0.22547638696E+02 -0.47214813177E+03  0.47271072264E+03  0.00000000000E+00 0. -1.
        -15    1    1    2    0    0  0.12008954351E+01  0.17208322240E+02 -0.19320718639E+02  0.25961825858E+02  0.17770000000E+01 0.  1.
         15    1    1    2    0    0 -0.14956090492E+02 -0.92404234096E+01  0.11563309572E+02  0.21117242359E+02  0.17770000000E+01 0. -1.
</event>
<event>
 6    1  0.1823098E-004  0.5027008E+03  0.7546771E-02  0.9393787E-01
        -11   -1    0    0    0    0  0.00000000000E+00  0.00000000000E+00  0.50000000000E+03  0.50000000000E+03  0.00000000000E+00 0.  1.
         11   -1    0    0    0    0 -0.00000000000E+00 -0.00000000000E+00 -0.50000000000E+03  0.50000000000E+03  0.00000000000E+00 0.  1.
        -11    1    1    2    0    0  0.20907439618E+01 -0.87040538760E+01  0.46560825005E+03  0.46569429273E+03  0.00000000000E+00 0.  1.
         11    1    1    2    0    0 -0.20927029345E+01 -0.82748389428E+01 -0.49722598805E+03  0.49729924146E+03  0.00000000000E+00 0.  1.
        -15    1    1    2    0    0  0.73705790510E+00  0.12598069930E+02  0.14846014250E+02  0.19565696727E+02  0.17770000000E+01 0. -1.
         15    1    1    2    0    0 -0.73509893238E+00  0.43808228891E+01  0.16771723753E+02  0.17440769085E+02  0.17770000000E+01 0.  1.
</event>
<event>
 6    1  0.1823098E-004  0.5022461E+03  0.7546771E-02  0.9394798E-01
        -11   -1    0    0    0    0  0.00000000000E+00  0.00000000000E+00  0.50000000000E+03  0.50000000000E+03  0.00000000000E+00 0. -1.
         11   -1    0    0    0    0 -0.00000000000E+00 -0.00000000000E+00 -0.50000000000E+03  0.50000000000E+03  0.00000000000E+00 0. -1.
        -11    1    1    2    0    0  0.61358062319E+01 -0.32685153132E+01  0.49770537115E+03  0.49775392292E+03  0.00000000000E+00 0. -1.
         11    1    1    2    0    0  0.99493443576E+01  0.75897205124E+01 -0.46401033422E+03  0.46417904258E+03  0.00000000000E+00 0. -1.
        -15    1    1    2    0    0 -0.16256898825E+01  0.22656907293E+00 -0.54439555069E+01  0.59572293644E+01  0.17770000000E+01 0. -1.
         15    1    1    2    0    0 -0.14459460707E+02 -0.45477742721E+01 -0.28251081430E+02  0.32109805134E+02  0.17770000000E+01 0.  1.
</event>
<event>
 6    1  0.1823098E-004  0.5051871E+03  0.7546771E-02  0.9388277E-01
        -11   -1    0    0    0    0  0.00000000000E+00  0.00000000000E+00  0.50000000000E+03  0.50000000000E+03  0.00000000000E+00 0.  1.
         11   -1    0    0    0    0 -0.00000000000E+00 -0.00000000000E+00 -0.50000000000E+03  0.50000000000E+03  0.00000000000E+00 0. -1.
        -11    1    1    2    0    0  0.32025056921E+01  0.97120308280E+01  0.49470723654E+03  0.49481292371E+03  0.00000000000E+00 0.  1.
         11    1    1    2    0    0 -0.16167622523E+01  0.21999075981E+02 -0.42721252585E+03  0.42778162129E+03  0.00000000000E+00 0. -1.
        -15    1    1    2    0    0 -0.36570755679E+01 -0.25128796025E+02 -0.65080791201E+02  0.69882027043E+02  0.17770000000E+01 0. -1.
         15    1    1    2    0    0  0.20713321281E+01 -0.65823107842E+01 -0.24139194816E+01  0.75234279626E+01  0.17770000000E+01 0.  1.
</event>
<event>
 6    1  0.1823098E-004  0.5008232E+03  0.7546771E-02  0.9397970E-01
        -11   -1    0    0    0    0  0.00000000000E+00  0.00000000000E+00  0.50000000000E+03  0.50000000000E+03  0.00000000000E+00 0. -1.
         11   -1    0    0    0    0 -0.00000000000E+00 -0.00000000000E+00 -0.50000000000E+03  0.50000000000E+03  0.00000000000E+00 0.  1.
        -11    1    1    2    0    0  0.57346076011E+01  0.62485285467E+01  0.49910477268E+03  0.49917682633E+03  0.00000000000E+00 0. -1.
         11    1    1    2    0    0  0.29344661085E+01 -0.74466488515E+01 -0.19120760476E+02  0.20728414113E+02  0.00000000000E+00 0.  1.
        -15    1    1    2    0    0 -0.97644976787E+00 -0.62199875549E+00 -0.76435170865E+02  0.76464589260E+02  0.17770000000E+01 0.  1.
         15    1    1    2    0    0 -0.76926239418E+01  0.18201190603E+01 -0.40354884134E+03  0.40363017030E+03  0.17770000000E+01 0.  1.
</event>
<event>
 6    1  0.1823098E-004  0.5002515E+03  0.7546771E-02  0.9399247E-01
        -11   -1    0    0    0    0  0.00000000000E+00  0.00000000000E+00  0.50000000000E+03  0.50000000000E+03  0.00000000000E+00 0. -1.
         11   -1    0    0    0    0 -0.00000000000E+00 -0.00000000000E+00 -0.50000000000E+03  0.50000000000E+03  0.00000000000E+00 0. -1.
        -11    1    1    2    0    0  0.28456207882E+01 -0.15915664211E+02  0.49948688482E+03  0.49974849077E+03  0.00000000000E+00 0. -1.
         11    1    1    2    0    0 -0.78262457892E+01  0.10637043778E+02 -0.13780646106E+03  0.13843777495E+03  0.00000000000E+00 0. -1.
        -15    1    1    2    0    0  0.26219219948E+01  0.20247499614E+01 -0.70498706851E+02  0.70598863192E+02  0.17770000000E+01 0.  1.
         15    1    1    2    0    0  0.23587030062E+01  0.32538704709E+01 -0.29118171691E+03  0.29121487109E+03  0.17770000000E+01 0. -1.
</event>
<event>
 6    1  0.1823098E-004  0.5000858E+03  0.7546771E-02  0.9399618E-01
        -11   -1    0    0    0    0  0.00000000000E+00  0.00000000000E+00  0.50000000000E+03  0.50000000000E+03  0.00000000000E+00 0. -1.
         11   -1    0    0    0    0 -0.00000000000E+00 -0.00000000000E+00 -0.50000000000E+03  0.50000000000E+03  0.00000000000E+00 0.  1.
        -11    1    1    2    0    0 -0.98426877212E+00 -0.54148421928E+01  0.25400367186E+03  0.25406328861E+03  0.00000000000E+00 0. -1.
         11    1    1    2    0    0  0.88113310544E+01  0.16088151712E+01 -0.49983392926E+03  0.49991417732E+03  0.00000000000E+00 0.  1.
        -15    1    1    2    0    0 -0.35065668582E+01  0.51296473827E+00  0.11247126200E+03  0.11254111093E+03  0.17770000000E+01 0. -1.
         15    1    1    2    0    0 -0.43204954241E+01  0.32930622834E+01  0.13335899541E+03  0.13348142315E+03  0.17770000000E+01 0.  1.
</event>
<event>
 6    1  0.1823098E-004  0.5004492E+03  0.7546771E-02  0.9398805E-01
        -11   -1    0    0    0    0  0.00000000000E+00  0.00000000000E+00  0.50000000000E+03  0.50000000000E+03  0.00000000000E+00 0.  1.
         11   -1    0    0    0    0 -0.00000000000E+00 -0.00000000000E+00 -0.50000000000E+03  0.50000000000E+03  0.00000000000E+00 0.  1.
        -11    1    1    2    0    0 -0.66665282080E+01  0.25004290615E+02  0.49888006730E+03  0.49955077689E+03  0.00000000000E+00 0.  1.
         11    1    1    2    0    0  0.27733037814E+01 -0.19321161961E+02 -0.13652273329E+03  0.13791104095E+03  0.00000000000E+00 0.  1.
        -15    1    1    2    0    0  0.16790828616E+01  0.20491974432E+01 -0.91246091546E+02  0.91301837226E+02  0.17770000000E+01 0. -1.
         15    1    1    2    0    0  0.22141415651E+01 -0.77323260968E+01 -0.27111124247E+03  0.27123634493E+03  0.17770000000E+01 0.  1.
</event>
<event>
 6    1  0.1823098E-004  0.4846945E+03  0.7546771E-02  0.9434724E-01
        -11   -1    0    0    0    0  0.00000000000E+00  0.00000000000E+00  0.50000000000E+03  0.50000000000E+03  0.00000000000E+00 0.  1.
         11   -1    0    0    0    0 -0.00000000000E+00 -0.00000000000E+00 -0.50000000000E+03  0.50000000000E+03  0.00000000000E+00 0. -1.
        -11    1    1    2    0    0  0.84812664421E+01  0.16209828168E+01  0.48559065281E+03  0.48566741868E+03  0.00000000000E+00 0.  1.
         11    1    1    2    0    0  0.18267991340E+02  0.81301790241E+01 -0.48372826956E+03  0.48414136168E+03  0.00000000000E+00 0. -1.
        -15    1    1    2    0    0 -0.65500895853E+01  0.14759779657E+01 -0.76347920483E+00  0.69873323971E+01  0.17770000000E+01 0. -1.
         15    1    1    2    0    0 -0.20199168197E+02 -0.11227139807E+02 -0.10989040420E+01  0.23203887243E+02  0.17770000000E+01 0.  1.
</event>
<event>
 6    1  0.1823098E-004  0.5124771E+03  0.7546771E-02  0.9372316E-01
        -11   -1    0    0    0    0  0.00000000000E+00  0.00000000000E+00  0.50000000000E+03  0.50000000000E+03  0.00000000000E+00 0.  1.
         11   -1    0    0    0    0 -0.00000000000E+00 -0.00000000000E+00 -0.50000000000E+03  0.50000000000E+03  0.00000000000E+00 0.  1.
        -11    1    1    2    0    0 -0.13488647739E+02 -0.76619153084E+01  0.43834922224E+03  0.43862363047E+03  0.00000000000E+00 0.  1.
         11    1    1    2    0    0 -0.31401399208E+02 -0.51943057887E+01 -0.48648286035E+03  0.48752292469E+03  0.00000000000E+00 0.  1.
        -15    1    1    2    0    0  0.43587043292E+02  0.36868222583E+01  0.28972896023E+02  0.52497708847E+02  0.17770000000E+01 0.  1.
         15    1    1    2    0    0  0.13030036550E+01  0.91693988388E+01  0.19160742082E+02  0.21355735992E+02  0.17770000000E+01 0. -1.
</event>
<event>
 6    1  0.1823098E-004  0.5000374E+03  0.7546771E-02  0.9399726E-01
        -11   -1    0    0    0    0  0.00000000000E+00  0.00000000000E+00  0.50000000000E+03  0.50000000000E+03  0.00000000000E+00 0.  1.
         11   -1    0    0    0    0 -0.00000000000E+00 -0.00000000000E+00 -0.50000000000E+03  0.50000000000E+03  0.00000000000E+00 0.  1.
        -11    1    1    2    0    0 -0.21966926529E+01  0.42169415987E+01  0.26482022822E+03  0.26486291045E+03  0.00000000000E+00 0.  1.
         11    1    1    2    0    0  0.98263056450E+00 -0.90656364670E+01 -0.49987947181E+03  0.49996263626E+03  0.00000000000E+00 0.  1.
        -15    1    1    2    0    0 -0.11228543054E+01  0.30965054545E+01  0.95433414283E+02  0.95506771690E+02  0.17770000000E+01 0. -1.
         15    1    1    2    0    0  0.23369163938E+01  0.17521894138E+01  0.13962582930E+03  0.13966768160E+03  0.17770000000E+01 0.  1.
</event>
<event>
 6    1  0.1823098E-004  0.5003274E+03  0.7546771E-02  0.9399077E-01
        -11   -1    0    0    0    0  0.00000000000E+00  0.00000000000E+00  0.50000000000E+03  0.50000000000E+03  0.00000000000E+00 0.  1.
         11   -1    0    0    0    0 -0.00000000000E+00 -0.00000000000E+00 -0.50000000000E+03  0.50000000000E+03  0.00000000000E+00 0. -1.
        -11    1    1    2    0    0  0.24920759917E+01 -0.26285128192E+01  0.16010682118E+03  0.16014778709E+03  0.00000000000E+00 0.  1.
         11    1    1    2    0    0  0.75506965185E+01 -0.22037026057E+02 -0.49912931734E+03  0.49967261178E+03  0.00000000000E+00 0. -1.
        -15    1    1    2    0    0 -0.89808946608E+01  0.23484286446E+02  0.28778915888E+03  0.28889085460E+03  0.17770000000E+01 0.  1.
         15    1    1    2    0    0 -0.10618778494E+01  0.11812524307E+01  0.51233337283E+02  0.51288746525E+02  0.17770000000E+01 0.  1.
</event>
<event>
 6    1  0.1823098E-004  0.5080377E+03  0.7546771E-02  0.9382002E-01
        -11   -1    0    0    0    0  0.00000000000E+00  0.00000000000E+00  0.50000000000E+03  0.50000000000E+03  0.00000000000E+00 0.  1.
         11   -1    0    0    0    0 -0.00000000000E+00 -0.00000000000E+00 -0.50000000000E+03  0.50000000000E+03  0.00000000000E+00 0.  1.
        -11    1    1    2    0    0 -0.77230711736E+01 -0.46778033632E+01  0.46424310365E+03  0.46433090243E+03  0.00000000000E+00 0.  1.
         11    1    1    2    0    0 -0.15296078762E+02  0.15564614278E+02 -0.49147804087E+03  0.49196228707E+03  0.00000000000E+00 0.  1.
        -15    1    1    2    0    0  0.58369459152E+01  0.32375638494E+01  0.18495287706E+02  0.19742977324E+02  0.17770000000E+01 0. -1.
         15    1    1    2    0    0  0.17182204020E+02 -0.14124374764E+02  0.87396495182E+01  0.23963833170E+02  0.17770000000E+01 0.  1.
</event>
<event>
 6    1  0.1823098E-004  0.5035424E+03  0.7546771E-02  0.9391918E-01
        -11   -1    0    0    0    0  0.00000000000E+00  0.00000000000E+00  0.50000000000E+03  0.50000000000E+03  0.00000000000E+00 0. -1.
         11   -1    0    0    0    0 -0.00000000000E+00 -0.00000000000E+00 -0.50000000000E+03  0.50000000000E+03  0.00000000000E+00 0.  1.
        -11    1    1    2    0    0 -0.50702076179E+00 -0.11475725960E+02  0.38930316009E+03  0.38947259186E+03  0.00000000000E+00 0. -1.
         11    1    1    2    0    0  0.23305479390E+02 -0.10055075195E+02 -0.49580837486E+03  0.49645764622E+03  0.00000000000E+00 0.  1.
        -15    1    1    2    0    0 -0.74654682883E+01  0.21354994377E+02  0.41945088995E+02  0.47689802069E+02  0.17770000000E+01 0.  1.
         15    1    1    2    0    0 -0.15332990340E+02  0.17580677803E+00  0.64560125778E+02  0.66379959855E+02  0.17770000000E+01 0. -1.
</event>
<event>
 6    1  0.1823098E-004  0.4867808E+03  0.7546771E-02  0.9429884E-01
        -11   -1    0    0    0    0  0.00000000000E+00  0.00000000000E+00  0.50000000000E+03  0.50000000000E+03  0.00000000000E+00 0. -1.
         11   -1    0    0    0    0 -0.00000000000E+00 -0.00000000000E+00 -0.50000000000E+03  0.50000000000E+03  0.00000000000E+00 0. -1.
        -11    1    1    2    0    0  0.71549186057E+01 -0.59308418334E+01  0.48054856656E+03  0.48063842186E+03  0.00000000000E+00 0. -1.
         11    1    1    2    0    0  0.13228110686E+02 -0.12120880258E+01 -0.49306427180E+03  0.49324317349E+03  0.00000000000E+00 0. -1.
        -15    1    1    2    0    0 -0.19029957909E+02  0.75008012035E+01  0.10376240294E+02  0.23004899660E+02  0.17770000000E+01 0. -1.
         15    1    1    2    0    0 -0.13530713824E+01 -0.35787134430E+00  0.21394649446E+01  0.31135049886E+01  0.17770000000E+01 0.  1.
</event>
<event>
 6    1  0.1823098E-004  0.5003803E+03  0.7546771E-02  0.9398959E-01
        -11   -1    0    0    0    0  0.00000000000E+00  0.00000000000E+00  0.50000000000E+03  0.50000000000E+03  0.00000000000E+00 0.  1.
         11   -1    0    0    0    0 -0.00000000000E+00 -0.00000000000E+00 -0.50000000000E+03  0.50000000000E+03  0.00000000000E+00 0. -1.
        -11    1    1    2    0    0  0.11479500447E+02  0.14688734017E+01  0.41946553660E+03  0.41962515763E+03  0.00000000000E+00 0.  1.
         11    1    1    2    0    0 -0.81977676284E+01 -0.93444773664E+01 -0.49946502348E+03  0.49961968770E+03  0.00000000000E+00 0. -1.
        -15    1    1    2    0    0  0.91779506367E+00  0.52600442910E+01  0.47678295001E+02  0.48009248660E+02  0.17770000000E+01 0.  1.
         15    1    1    2    0    0 -0.41995278826E+01  0.26155596738E+01  0.32321191879E+02  0.32745906008E+02  0.17770000000E+01 0.  1.
</event>
<event>
 6    1  0.1823098E-004  0.5039944E+03  0.7546771E-02  0.9390916E-01
        -11   -1    0    0    0    0  0.00000000000E+00  0.00000000000E+00  0.50000000000E+03  0.50000000000E+03  0.00000000000E+00 0.  1.
         11   -1    0    0    0    0 -0.00000000000E+00 -0.00000000000E+00 -0.50000000000E+03  0.50000000000E+03  0.00000000000E+00 0. -1.
        -11    1    1    2    0    0  0.12029520921E+02  0.93449905014E+01  0.45465807945E+03  0.45491318670E+03  0.00000000000E+00 0.  1.
         11    1    1    2    0    0  0.12298341454E+02 -0.77603998301E+01 -0.49579233742E+03  0.49600555930E+03  0.00000000000E+00 0. -1.
        -15    1    1    2    0    0 -0.17281857493E+02 -0.34065700832E+00  0.36358137402E+02  0.40297028798E+02  0.17770000000E+01 0. -1.
         15    1    1    2    0    0 -0.70460048824E+01 -0.12439336630E+01  0.47761205710E+01  0.87842252060E+01  0.17770000000E+01 0.  1.
</event>
<event>
 6    1  0.1823098E-004  0.5032417E+03  0.7546771E-02  0.9392585E-01
        -11   -1    0    0    0    0  0.00000000000E+00  0.00000000000E+00  0.50000000000E+03  0.50000000000E+03  0.00000000000E+00 0. -1.
         11   -1    0    0    0    0 -0.00000000000E+00 -0.00000000000E+00 -0.50000000000E+03  0.50000000000E+03  0.00000000000E+00 0.  1.
        -11    1    1    2    0    0  0.92647222103E+02 -0.86295052354E+02  0.48035247745E+03  0.49675833805E+03  0.00000000000E+00 0. -1.
         11    1    1    2    0    0 -0.69430509516E+02  0.65609822111E+02 -0.27513213212E+03  0.29124377167E+03  0.00000000000E+00 0.  1.
        -15    1    1    2    0    0 -0.19723470144E+02  0.31964525251E+02 -0.18247237246E+03  0.18630638902E+03  0.17770000000E+01 0.  1.
         15    1    1    2    0    0 -0.34932424434E+01 -0.11279295009E+02 -0.22747972869E+02  0.25691501266E+02  0.17770000000E+01 0. -1.
</event>
<event>
 6    1  0.1823098E-004  0.4630254E+03  0.7546771E-02  0.9486570E-01
        -11   -1    0    0    0    0  0.00000000000E+00  0.00000000000E+00  0.50000000000E+03  0.50000000000E+03  0.00000000000E+00 0. -1.
         11   -1    0    0    0    0 -0.00000000000E+00 -0.00000000000E+00 -0.50000000000E+03  0.50000000000E+03  0.00000000000E+00 0.  1.
        -11    1    1    2    0    0  0.18948533996E+02  0.90981282402E+01  0.45524569901E+03  0.45573069827E+03  0.00000000000E+00 0. -1.
         11    1    1    2    0    0  0.17345951417E+02  0.46907847020E+02 -0.47018979608E+03  0.47284212215E+03  0.00000000000E+00 0.  1.
        -15    1    1    2    0    0 -0.82252661071E+01 -0.99479340837E+01  0.11453188933E+02  0.17347900761E+02  0.17770000000E+01 0.  1.
         15    1    1    2    0    0 -0.28069219306E+02 -0.46058041177E+02  0.34909081320E+01  0.54079278823E+02  0.17770000000E+01 0. -1.
</event>
<event>
 6    1  0.1823098E-004  0.5000425E+03  0.7546771E-02  0.9399715E-01
        -11   -1    0    0    0    0  0.00000000000E+00  0.00000000000E+00  0.50000000000E+03  0.50000000000E+03  0.00000000000E+00 0.  1.
         11   -1    0    0    0    0 -0.00000000000E+00 -0.00000000000E+00 -0.50000000000E+03  0.50000000000E+03  0.00000000000E+00 0.  1.
        -11    1    1    2    0    0 -0.18555118110E+01  0.30092977654E+01  0.13719466026E+03  0.13724020403E+03  0.00000000000E+00 0.  1.
         11    1    1    2    0    0 -0.28151199556E+01 -0.14956753259E+02 -0.49972575940E+03  0.49995746217E+03  0.00000000000E+00 0.  1.
        -15    1    1    2    0    0  0.18780942828E+01  0.25183002035E+01  0.14065787692E+03  0.14070417600E+03  0.17770000000E+01 0.  1.
         15    1    1    2    0    0  0.27925374838E+01  0.94291552897E+01  0.22187322222E+03  0.22209815781E+03  0.17770000000E+01 0. -1.
</event>
<event>
 6    1  0.1823098E-004  0.5120890E+03  0.7546771E-02  0.9373159E-01
        -11   -1    0    0    0    0  0.00000000000E+00  0.00000000000E+00  0.50000000000E+03  0.50000000000E+03  0.00000000000E+00 0. -1.
         11   -1    0    0    0    0 -0.00000000000E+00 -0.00000000000E+00 -0.50000000000E+03  0.50000000000E+03  0.00000000000E+00 0. -1.
        -11    1    1    2    0    0 -0.58331737923E+01 -0.34872065352E+01  0.46587899971E+03  0.46592856630E+03  0.00000000000E+00 0. -1.
         11    1    1    2    0    0  0.85175673125E+01 -0.26996468418E+02 -0.48708912080E+03  0.48791102658E+03  0.00000000000E+00 0. -1.
        -15    1    1    2    0    0  0.87917139652E+01  0.24480619624E+02  0.73071381013E+01  0.27076686796E+02  0.17770000000E+01 0. -1.
         15    1    1    2    0    0 -0.11476107485E+02  0.60030553294E+01  0.13902982989E+02  0.19083720321E+02  0.17770000000E+01 0.  1.
</event>
<event>
 6    1  0.1823098E-004  0.5005086E+03  0.7546771E-02  0.9398672E-01
        -11   -1    0    0    0    0  0.00000000000E+00  0.00000000000E+00  0.50000000000E+03  0.50000000000E+03  0.00000000000E+00 0. -1.
         11   -1    0    0    0    0 -0.00000000000E+00 -0.00000000000E+00 -0.50000000000E+03  0.50000000000E+03  0.00000000000E+00 0.  1.
        -11    1    1    2    0    0 -0.73765248792E+01 -0.74061036928E+01  0.49938199285E+03  0.49949137958E+03  0.00000000000E+00 0. -1.
         11    1    1    2    0    0 -0.42991444353E+01 -0.85761284363E+01 -0.20139185356E+03  0.20162021551E+03  0.00000000000E+00 0.  1.
        -15    1    1    2    0    0  0.44741135514E+00  0.44424872178E+01 -0.27735654535E+02  0.28148892182E+02  0.17770000000E+01 0. -1.
         15    1    1    2    0    0  0.11228257959E+02  0.11539744911E+02 -0.27025448476E+03  0.27073951272E+03  0.17770000000E+01 0.  1.
</event>
<event>
 6    1  0.1823098E-004  0.5002546E+03  0.7546771E-02  0.9399240E-01
        -11   -1    0    0    0    0  0.00000000000E+00  0.00000000000E+00  0.50000000000E+03  0.50000000000E+03  0.00000000000E+00 0.  1.
         11   -1    0    0    0    0 -0.00000000000E+00 -0.00000000000E+00 -0.50000000000E+03  0.50000000000E+03  0.00000000000E+00 0. -1.
        -11    1    1    2    0    0  0.71446595767E+00 -0.13635469849E+01  0.27517553912E+02  0.27560578645E+02  0.00000000000E+00 0.  1.
         11    1    1    2    0    0  0.28230484916E+02 -0.20907687719E+02 -0.49850910247E+03  0.49974535208E+03  0.00000000000E+00 0. -1.
        -15    1    1    2    0    0 -0.13379276171E+02  0.17503935738E+02  0.33330408985E+03  0.33403617594E+03  0.17770000000E+01 0.  1.
         15    1    1    2    0    0 -0.15565674703E+02  0.47672989658E+01  0.13768745871E+03  0.13865789333E+03  0.17770000000E+01 0. -1.
</event>
<event>
 6    1  0.1823098E-004  0.5026723E+03  0.7546771E-02  0.9393850E-01
        -11   -1    0    0    0    0  0.00000000000E+00  0.00000000000E+00  0.50000000000E+03  0.50000000000E+03  0.00000000000E+00 0.  1.
         11   -1    0    0    0    0 -0.00000000000E+00 -0.00000000000E+00 -0.50000000000E+03  0.50000000000E+03  0.00000000000E+00 0. -1.
        -11    1    1    2    0    0 -0.20151034447E+01 -0.71214160442E+01  0.49262308901E+03  0.49267868133E+03  0.00000000000E+00 0.  1.
         11    1    1    2    0    0 -0.47821847666E+01  0.47489973385E+01 -0.49728202727E+03  0.49732769570E+03  0.00000000000E+00 0. -1.
        -15    1    1    2    0    0  0.51639501128E+01  0.67381738118E-01  0.24132968973E+01  0.59709841719E+01  0.17770000000E+01 0.  1.
         15    1    1    2    0    0  0.16333380985E+01  0.23050369676E+01  0.22456413609E+01  0.40226387966E+01  0.17770000000E+01 0. -1.
</event>
<event>
 6    1  0.1823098E-004  0.5040501E+03  0.7546771E-02  0.9390793E-01
        -11   -1    0    0    0    0  0.00000000000E+00  0.00000000000E+00  0.50000000000E+03  0.50000000000E+03  0.00000000000E+00 0. -1.
         11   -1    0    0    0    0 -0.00000000000E+00 -0.00000000000E+00 -0.50000000000E+03  0.50000000000E+03  0.00000000000E+00 0.  1.
        -11    1    1    2    0    0 -0.68089201146E+01 -0.18838908792E+01  0.47410316542E+03  0.47415579918E+03  0.00000000000E+00 0. -1.
         11    1    1    2    0    0  0.97514648858E+01 -0.13735747072E+02 -0.49566375072E+03  0.49594991238E+03  0.00000000000E+00 0.  1.
        -15    1    1    2    0    0 -0.80088893244E+01  0.90635828754E+01  0.12301825794E+02  0.17343110725E+02  0.17770000000E+01 0.  1.
         15    1    1    2    0    0  0.50663445532E+01  0.65560550763E+01  0.92587595073E+01  0.12551177710E+02  0.17770000000E+01 0.  1.
</event>
<event>
 6    1  0.1823098E-004  0.5113393E+03  0.7546771E-02  0.9374789E-01
        -11   -1    0    0    0    0  0.00000000000E+00  0.00000000000E+00  0.50000000000E+03  0.50000000000E+03  0.00000000000E+00 0.  1.
         11   -1    0    0    0    0 -0.00000000000E+00 -0.00000000000E+00 -0.50000000000E+03  0.50000000000E+03  0.00000000000E+00 0.  1.
        -11    1    1    2    0    0 -0.12568036285E+02  0.39337132857E+01  0.48848316502E+03  0.48866065131E+03  0.00000000000E+00 0.  1.
         11    1    1    2    0    0 -0.12289956355E+02 -0.47426007461E+02 -0.71040510158E+02  0.86296137193E+02  0.00000000000E+00 0.  1.
        -15    1    1    2    0    0  0.42586649942E+02  0.45187595164E+02 -0.32215402464E+03  0.32808827293E+03  0.17770000000E+01 0.  1.
         15    1    1    2    0    0 -0.17728657303E+02 -0.16953009885E+01 -0.95288630216E+02  0.96954938568E+02  0.17770000000E+01 0. -1.
</event>
<event>
 6    1  0.1823098E-004  0.4770933E+03  0.7546771E-02  0.9452576E-01
        -11   -1    0    0    0    0  0.00000000000E+00  0.00000000000E+00  0.50000000000E+03  0.50000000000E+03  0.00000000000E+00 0.  1.
         11   -1    0    0    0    0 -0.00000000000E+00 -0.00000000000E+00 -0.50000000000E+03  0.50000000000E+03  0.00000000000E+00 0.  1.
        -11    1    1    2    0    0  0.12356698201E+02  0.10420904746E+02  0.47164989195E+03  0.47192679922E+03  0.00000000000E+00 0.  1.
         11    1    1    2    0    0  0.27127035643E+02 -0.15907446069E+02 -0.48212515304E+03  0.48314965186E+03  0.00000000000E+00 0.  1.
        -15    1    1    2    0    0 -0.32410335219E+02  0.58657798375E+01  0.10518932500E+01  0.33001536487E+02  0.17770000000E+01 0. -1.
         15    1    1    2    0    0 -0.70733986248E+01 -0.37923851511E+00  0.94233678334E+01  0.11922012426E+02  0.17770000000E+01 0.  1.
</event>
<event>
 6    1  0.1823098E-004  0.5074622E+03  0.7546771E-02  0.9383265E-01
        -11   -1    0    0    0    0  0.00000000000E+00  0.00000000000E+00  0.50000000000E+03  0.50000000000E+03  0.00000000000E+00 0. -1.
         11   -1    0    0    0    0 -0.00000000000E+00 -0.00000000000E+00 -0.50000000000E+03  0.50000000000E+03  0.00000000000E+00 0.  1.
        -11    1    1    2    0    0 -0.70835723344E+01 -0.12951839188E+02  0.39261320780E+03  0.39289064391E+03  0.00000000000E+00 0. -1.
         11    1    1    2    0    0  0.36015725695E+02 -0.62925550433E+01 -0.49117891192E+03  0.49253776734E+03  0.00000000000E+00 0.  1.
        -15    1    1    2    0    0  0.88365400625E+01 -0.58220495037E+01  0.83648133915E+01  0.13605459668E+02  0.17770000000E+01 0.  1.
         15    1    1    2    0    0 -0.37768693423E+02  0.25066443735E+02  0.90200890730E+02  0.10096612908E+03  0.17770000000E+01 0. -1.
</event>
<event>
 6    1  0.1823098E-004  0.5002571E+03  0.7546771E-02  0.9399235E-01
        -11   -1    0    0    0    0  0.00000000000E+00  0.00000000000E+00  0.50000000000E+03  0.50000000000E+03  0.00000000000E+00 0.  1.
         11   -1    0    0    0    0 -0.00000000000E+00 -0.00000000000E+00 -0.50000000000E+03  0.50000000000E+03  0.00000000000E+00 0. -1.
        -11    1    1    2    0    0  0.42967602560E+00 -0.62253355615E+00  0.28637742345E+02  0.28647730384E+02  0.00000000000E+00 0.  1.
         11    1    1    2    0    0 -0.15730386691E+02  0.28845287915E+02 -0.49866168694E+03  0.49974290763E+03  0.00000000000E+00 0. -1.
        -15    1    1    2    0    0  0.25437075424E+01 -0.11210699471E+02  0.30364293362E+03  0.30386565962E+03  0.17770000000E+01 0.  1.
         15    1    1    2    0    0  0.12757003123E+02 -0.17012054888E+02  0.16638101098E+03  0.16774370237E+03  0.17770000000E+01 0. -1.
</event>
<event>
 6    1  0.1823098E-004  0.5010022E+03  0.7546771E-02  0.9397570E-01
        -11   -1    0    0    0    0  0.00000000000E+00  0.00000000000E+00  0.50000000000E+03  0.50000000000E+03  0.00000000000E+00 0. -1.
         11   -1    0    0    0    0 -0.00000000000E+00 -0.00000000000E+00 -0.50000000000E+03  0.50000000000E+03  0.00000000000E+00 0. -1.
        -11    1    1    2    0    0 -0.53340082168E+01 -0.43030937223E+01  0.49895070317E+03  0.49899776798E+03  0.00000000000E+00 0. -1.
         11    1    1    2    0    0  0.67183509096E+01 -0.57106692950E+01 -0.37943952361E+03  0.37954196087E+03  0.00000000000E+00 0. -1.
        -15    1    1    2    0    0 -0.65882387417E+01  0.44912047857E+01 -0.10158937372E+03  0.10191729192E+03  0.17770000000E+01 0. -1.
         15    1    1    2    0    0  0.52038960488E+01  0.55225582317E+01 -0.17921805839E+02  0.19542979226E+02  0.17770000000E+01 0.  1.
</event>
<event>
 6    1  0.1823098E-004  0.5006659E+03  0.7546771E-02  0.9398321E-01
        -11   -1    0    0    0    0  0.00000000000E+00  0.00000000000E+00  0.50000000000E+03  0.50000000000E+03  0.00000000000E+00 0. -1.
         11   -1    0    0    0    0 -0.00000000000E+00 -0.00000000000E+00 -0.50000000000E+03  0.50000000000E+03  0.00000000000E+00 0.  1.
        -11    1    1    2    0    0  0.47978007240E+01  0.66533704418E+01  0.49926671772E+03  0.49933409823E+03  0.00000000000E+00 0. -1.
         11    1    1    2    0    0 -0.12177371727E+02 -0.32315250091E+00 -0.60449960470E+02  0.61665148427E+02  0.00000000000E+00 0.  1.
        -15    1    1    2    0    0  0.65334461876E+01 -0.61604178218E+01 -0.41539069877E+03  0.41549154868E+03  0.17770000000E+01 0.  1.
         15    1    1    2    0    0  0.84612481552E+00 -0.16980011905E+00 -0.23426058478E+02  0.23509204668E+02  0.17770000000E+01 0.  1.
</event>
<event>
 6    1  0.1823098E-004  0.5139451E+03  0.7546771E-02  0.9369136E-01
        -11   -1    0    0    0    0  0.00000000000E+00  0.00000000000E+00  0.50000000000E+03  0.50000000000E+03  0.00000000000E+00 0.  1.
         11   -1    0    0    0    0 -0.00000000000E+00 -0.00000000000E+00 -0.50000000000E+03  0.50000000000E+03  0.00000000000E+00 0.  1.
        -11    1    1    2    0    0 -0.13074564768E+02 -0.62595843046E+01  0.48583874274E+03  0.48605494606E+03  0.00000000000E+00 0.  1.
         11    1    1    2    0    0 -0.20648408972E+02 -0.42646217134E+02 -0.38688086116E+03  0.38977154509E+03  0.00000000000E+00 0.  1.
        -15    1    1    2    0    0  0.93937852224E+01  0.14723080662E+02 -0.98795334657E+00  0.17582550606E+02  0.17770000000E+01 0.  1.
         15    1    1    2    0    0  0.24329188517E+02  0.34182720776E+02 -0.97969928234E+02  0.10659095825E+03  0.17770000000E+01 0. -1.
</event>
<event>
 6    1  0.1823098E-004  0.5005802E+03  0.7546771E-02  0.9398512E-01
        -11   -1    0    0    0    0  0.00000000000E+00  0.00000000000E+00  0.50000000000E+03  0.50000000000E+03  0.00000000000E+00 0.  1.
         11   -1    0    0    0    0 -0.00000000000E+00 -0.00000000000E+00 -0.50000000000E+03  0.50000000000E+03  0.00000000000E+00 0.  1.
        -11    1    1    2    0    0 -0.56808409497E+01  0.38520850905E+01  0.49937264877E+03  0.49941981624E+03  0.00000000000E+00 0.  1.
         11    1    1    2    0    0  0.13875671561E+02 -0.13834654402E+01 -0.30325129217E+03  0.30357172865E+03  0.00000000000E+00 0.  1.
        -15    1    1    2    0    0 -0.10172699821E+02 -0.21637014549E+00 -0.18632034171E+03  0.18660642567E+03  0.17770000000E+01 0.  1.
         15    1    1    2    0    0  0.19778692103E+01 -0.22522495048E+01 -0.98010148962E+01  0.10402029439E+02  0.17770000000E+01 0. -1.
</event>
<event>
 6    1  0.1823098E-004  0.5039012E+03  0.7546771E-02  0.9391123E-01
        -11   -1    0    0    0    0  0.00000000000E+00  0.00000000000E+00  0.50000000000E+03  0.50000000000E+03  0.00000000000E+00 0. -1.
         11   -1    0    0    0    0 -0.00000000000E+00 -0.00000000000E+00 -0.50000000000E+03  0.50000000000E+03  0.00000000000E+00 0.  1.
        -11    1    1    2    0    0 -0.39343543088E+01 -0.53767329703E+01  0.48420731704E+03  0.48425315102E+03  0.00000000000E+00 0. -1.
         11    1    1    2    0    0  0.74751166341E+01 -0.11547728330E+01 -0.49604113481E+03  0.49609879892E+03  0.00000000000E+00 0.  1.
        -15    1    1    2    0    0  0.59891367316E+00 -0.80893332597E+00  0.10779400038E+02  0.10971156041E+02  0.17770000000E+01 0. -1.
         15    1    1    2    0    0 -0.41396759985E+01  0.73404391293E+01  0.10544177351E+01  0.86768940147E+01  0.17770000000E+01 0.  1.
</event>
<event>
 6    1  0.1823098E-004  0.5079917E+03  0.7546771E-02  0.9382103E-01
        -11   -1    0    0    0    0  0.00000000000E+00  0.00000000000E+00  0.50000000000E+03  0.50000000000E+03  0.00000000000E+00 0. -1.
         11   -1    0    0    0    0 -0.00000000000E+00 -0.00000000000E+00 -0.50000000000E+03  0.50000000000E+03  0.00000000000E+00 0. -1.
        -11    1    1    2    0    0 -0.11028822370E+02  0.77802440170E+01  0.47828819995E+03  0.47847859861E+03  0.00000000000E+00 0. -1.
         11    1    1    2    0    0  0.16373400109E+02 -0.17633869775E+02 -0.49141950271E+03  0.49200830200E+03  0.00000000000E+00 0. -1.
        -15    1    1    2    0    0 -0.88470559953E+01  0.11898401524E+02  0.17695166579E+02  0.23154243841E+02  0.17770000000E+01 0.  1.
         15    1    1    2    0    0  0.35024782561E+01 -0.20447757666E+01 -0.45638638215E+01  0.63588555457E+01  0.17770000000E+01 0. -1.
</event>
<event>
 6    1  0.1823098E-004  0.5001158E+03  0.7546771E-02  0.9399551E-01
        -11   -1    0    0    0    0  0.00000000000E+00  0.00000000000E+00  0.50000000000E+03  0.50000000000E+03  0.00000000000E+00 0.  1.
         11   -1    0    0    0    0 -0.00000000000E+00 -0.00000000000E+00 -0.50000000000E+03  0.50000000000E+03  0.00000000000E+00 0. -1.
        -11    1    1    2    0    0 -0.25327376617E+01  0.12963991725E+02  0.49970963885E+03  0.49988418959E+03  0.00000000000E+00 0.  1.
         11    1    1    2    0    0  0.25295980720E+01 -0.99932481299E+01 -0.16379659838E+03  0.16412065536E+03  0.00000000000E+00 0. -1.
        -15    1    1    2    0    0  0.19873294473E+01 -0.29691855507E+01 -0.26829459866E+03  0.26832427199E+03  0.17770000000E+01 0. -1.
         15    1    1    2    0    0 -0.19841898577E+01 -0.15580447416E-02 -0.67618441814E+02  0.67670883060E+02  0.17770000000E+01 0.  1.
</event>
<event>
 6    1  0.1823098E-004  0.5023873E+03  0.7546771E-02  0.9394484E-01
        -11   -1    0    0    0    0  0.00000000000E+00  0.00000000000E+00  0.50000000000E+03  0.50000000000E+03  0.00000000000E+00 0.  1.
         11   -1    0    0    0    0 -0.00000000000E+00 -0.00000000000E+00 -0.50000000000E+03  0.50000000000E+03  0.00000000000E+00 0.  1.
        -11    1    1    2    0    0  0.21029885539E+01  0.80963291164E+01  0.49754234767E+03  0.49761266145E+03  0.00000000000E+00 0.  1.
         11    1    1    2    0    0 -0.20240940071E+02 -0.13935248779E+02 -0.67121908634E+02  0.71478929987E+02  0.00000000000E+00 0.  1.
        -15    1    1    2    0    0  0.83656047490E+01 -0.23104754453E+00 -0.14667816325E+03  0.14692745839E+03  0.17770000000E+01 0. -1.
         15    1    1    2    0    0  0.97723467677E+01  0.60699672068E+01 -0.28374227579E+03  0.28398095018E+03  0.17770000000E+01 0.  1.
</event>
<event>
 6    1  0.1823098E-004  0.5079649E+03  0.7546771E-02  0.9382162E-01
        -11   -1    0    0    0    0  0.00000000000E+00  0.00000000000E+00  0.50000000000E+03  0.50000000000E+03  0.00000000000E+00 0. -1.
         11   -1    0    0    0    0 -0.00000000000E+00 -0.00000000000E+00 -0.50000000000E+03  0.50000000000E+03  0.00000000000E+00 0. -1.
        -11    1    1    2    0    0  0.53826326220E+02  0.32663463580E+02  0.48799008263E+03  0.49203505565E+03  0.00000000000E+00 0. -1.
         11    1    1    2    0    0 -0.38268271085E+02  0.27050574644E+02 -0.79978338387E+02  0.92696972829E+02  0.00000000000E+00 0. -1.
        -15    1    1    2    0    0 -0.21376662751E+02 -0.59553564562E+02 -0.27806135006E+03  0.28517514072E+03  0.17770000000E+01 0. -1.
         15    1    1    2    0    0  0.58186076159E+01 -0.16047366215E+00 -0.12995039418E+03  0.13009283079E+03  0.17770000000E+01 0.  1.
</event>
<event>
 6    1  0.1823098E-004  0.5005149E+03  0.7546771E-02  0.9398658E-01
        -11   -1    0    0    0    0  0.00000000000E+00  0.00000000000E+00  0.50000000000E+03  0.50000000000E+03  0.00000000000E+00 0.  1.
         11   -1    0    0    0    0 -0.00000000000E+00 -0.00000000000E+00 -0.50000000000E+03  0.50000000000E+03  0.00000000000E+00 0. -1.
        -11    1    1    2    0    0  0.38491193821E+00 -0.81506819915E+01  0.49941840376E+03  0.49948505863E+03  0.00000000000E+00 0.  1.
         11    1    1    2    0    0  0.19531064447E+01 -0.10144146884E+02 -0.26342349330E+03  0.26362597589E+03  0.00000000000E+00 0. -1.
        -15    1    1    2    0    0 -0.45450649122E+01  0.13241916752E+02 -0.13707434078E+03  0.13779890640E+03  0.17770000000E+01 0. -1.
         15    1    1    2    0    0  0.22070465293E+01  0.50529121239E+01 -0.98920569678E+02  0.99090059086E+02  0.17770000000E+01 0.  1.
</event>
<event>
 6    1  0.1823098E-004  0.4914328E+03  0.7546771E-02  0.9419186E-01
        -11   -1    0    0    0    0  0.00000000000E+00  0.00000000000E+00  0.50000000000E+03  0.50000000000E+03  0.00000000000E+00 0.  1.
         11   -1    0    0    0    0 -0.00000000000E+00 -0.00000000000E+00 -0.50000000000E+03  0.50000000000E+03  0.00000000000E+00 0. -1.
        -11    1    1    2    0    0  0.52642558108E+01 -0.42053176368E+01  0.48856379324E+03  0.48861025077E+03  0.00000000000E+00 0.  1.
         11    1    1    2    0    0 -0.74429607058E+01 -0.68713534376E+01 -0.49423272209E+03  0.49433652176E+03  0.00000000000E+00 0. -1.
        -15    1    1    2    0    0  0.57200304486E+00 -0.20308147311E+01  0.10129909377E+01  0.29385839439E+01  0.17770000000E+01 0.  1.
         15    1    1    2    0    0  0.16067018502E+01  0.13107485805E+02  0.46559379121E+01  0.14114643524E+02  0.17770000000E+01 0. -1.
</event>
<event>
 6    1  0.1823098E-004  0.5002990E+03  0.7546771E-02  0.9399141E-01
        -11   -1    0    0    0    0  0.00000000000E+00  0.00000000000E+00  0.50000000000E+03  0.50000000000E+03  0.00000000000E+00 0.  1.
         11   -1    0    0    0    0 -0.00000000000E+00 -0.00000000000E+00 -0.50000000000E+03  0.50000000000E+03  0.00000000000E+00 0.  1.
        -11    1    1    2    0    0 -0.21951074065E+02 -0.55802725301E+01  0.49918748690E+03  0.49970104680E+03  0.00000000000E+00 0.  1.
         11    1    1    2    0    0  0.14384844619E+02 -0.28966065309E+01 -0.40279856017E+03  0.40306574422E+03  0.00000000000E+00 0.  1.
        -15    1    1    2    0    0  0.30888496373E+01  0.72493370652E+00 -0.30130821526E+02  0.30349475379E+02  0.17770000000E+01 0.  1.
         15    1    1    2    0    0  0.44773798086E+01  0.77519453545E+01 -0.66258105204E+02  0.66883733605E+02  0.17770000000E+01 0. -1.
</event>
<event>
 6    1  0.1823098E-004  0.5038581E+03  0.7546771E-02  0.9391218E-01
        -11   -1    0    0    0    0  0.00000000000E+00  0.00000000000E+00  0.50000000000E+03  0.50000000000E+03  0.00000000000E+00 0. -1.
         11   -1    0    0    0    0 -0.00000000000E+00 -0.00000000000E+00 -0.50000000000E+03  0.50000000000E+03  0.00000000000E+00 0.  1.
        -11    1    1    2    0    0 -0.10363883995E+02 -0.21651302263E+02  0.49556086909E+03  0.49614187886E+03  0.00000000000E+00 0. -1.
         11    1    1    2    0    0 -0.14412444206E+01  0.39650300607E+02 -0.98888752411E+02  0.10655143771E+03  0.00000000000E+00 0.  1.
        -15    1    1    2    0    0  0.69596046429E+01 -0.13442550396E+02 -0.30215940077E+03  0.30254354969E+03  0.17770000000E+01 0.  1.
         15    1    1    2    0    0  0.48455237731E+01 -0.45564479478E+01 -0.94512715915E+02  0.94763133745E+02  0.17770000000E+01 0. -1.
</event>
<event>
 6    1  0.1823098E-004  0.5038368E+03  0.7546771E-02  0.9391265E-01
        -11   -1    0    0    0    0  0.00000000000E+00  0.00000000000E+00  0.50000000000E+03  0.50000000000E+03  0.00000000000E+00 0. -1.
         11   -1    0    0    0    0 -0.00000000000E+00 -0.00000000000E+00 -0.50000000000E+03  0.50000000000E+03  0.00000000000E+00 0. -1.
        -11    1    1    2    0    0  0.70895060413E+00 -0.68036247229E+01  0.44915186795E+03  0.44920395412E+03  0.00000000000E+00 0. -1.
         11    1    1    2    0    0  0.10545577742E+02  0.18169716583E+02 -0.49571819987E+03  0.49616316015E+03  0.00000000000E+00 0. -1.
        -15    1    1    2    0    0 -0.11189493200E+02 -0.15652431109E+02  0.20556187351E+02  0.28212017388E+02  0.17770000000E+01 0. -1.
         15    1    1    2    0    0 -0.65035145979E-01  0.42863392490E+01  0.26010144574E+02  0.26420868333E+02  0.17770000000E+01 0.  1.
</event>
<event>
 6    1  0.1823098E-004  0.5001398E+03  0.7546771E-02  0.9399497E-01
        -11   -1    0    0    0    0  0.00000000000E+00  0.00000000000E+00  0.50000000000E+03  0.50000000000E+03  0.00000000000E+00 0.  1.
         11   -1    0    0    0    0 -0.00000000000E+00 -0.00000000000E+00 -0.50000000000E+03  0.50000000000E+03  0.00000000000E+00 0.  1.
        -11    1    1    2    0    0 -0.47398384625E+01  0.63048598125E+01  0.49979795891E+03  0.49986019751E+03  0.00000000000E+00 0.  1.
         11    1    1    2    0    0  0.14531152805E+00 -0.53747735073E+01 -0.13435812407E+03  0.13446566405E+03  0.00000000000E+00 0.  1.
        -15    1    1    2    0    0 -0.14655762491E+01  0.40604473594E+01 -0.95108714034E+02  0.95223213350E+02  0.17770000000E+01 0. -1.
         15    1    1    2    0    0  0.60601031835E+01 -0.49905336646E+01 -0.27033112081E+03  0.27045092509E+03  0.17770000000E+01 0.  1.
</event>
<event>
 6    1  0.1823098E-004  0.5070451E+03  0.7546771E-02  0.9384182E-01
        -11   -1    0    0    0    0  0.00000000000E+00  0.00000000000E+00  0.50000000000E+03  0.50000000000E+03  0.00000000000E+00 0.  1.
         11   -1    0    0    0    0 -0.00000000000E+00 -0.00000000000E+00 -0.50000000000E+03  0.50000000000E+03  0.00000000000E+00 0.  1.
        -11    1    1    2    0    0  0.12490492014E+02 -0.78115535138E+01  0.47950205151E+03  0.47972830869E+03  0.00000000000E+00 0.  1.
         11    1    1    2    0    0 -0.16335818025E+02 -0.93683373441E+01 -0.49259505327E+03  0.49295487745E+03  0.00000000000E+00 0.  1.
        -15    1    1    2    0    0 -0.56851733155E+01  0.27528643670E+01  0.42154123405E+01  0.77991594451E+01  0.17770000000E+01 0. -1.
         15    1    1    2    0    0  0.95304993266E+01  0.14427026491E+02  0.88775894182E+01  0.19517654410E+02  0.17770000000E+01 0.  1.
</event>
<event>
 6    1  0.1823098E-004  0.4723186E+03  0.7546771E-02  0.9463972E-01
        -11   -1    0    0    0    0  0.00000000000E+00  0.00000000000E+00  0.50000000000E+03  0.50000000000E+03  0.00000000000E+00 0.  1.
         11   -1    0    0    0    0 -0.00000000000E+00 -0.00000000000E+00 -0.50000000000E+03  0.50000000000E+03  0.00000000000E+00 0.  1.
        -11    1    1    2    0    0  0.53746724989E+01 -0.43692526869E+01  0.47943184362E+03  0.47948187677E+03  0.00000000000E+00 0.  1.
         11    1    1    2    0    0  0.34636917944E+02  0.10069504676E+02 -0.46473593698E+03  0.46613367410E+03  0.00000000000E+00 0.  1.
        -15    1    1    2    0    0 -0.36819540586E+02 -0.74988518342E+01 -0.23728800029E+02  0.44476117497E+02  0.17770000000E+01 0.  1.
         15    1    1    2    0    0 -0.31920498570E+01  0.17985998450E+01  0.90328933954E+01  0.99083316348E+01  0.17770000000E+01 0. -1.
</event>
<event>
 6    1  0.1823098E-004  0.5003511E+03  0.7546771E-02  0.9399025E-01
        -11   -1    0    0    0    0  0.00000000000E+00  0.00000000000E+00  0.50000000000E+03  0.50000000000E+03  0.00000000000E+00 0. -1.
         11   -1    0    0    0    0 -0.00000000000E+00 -0.00000000000E+00 -0.50000000000E+03  0.50000000000E+03  0.00000000000E+00 0. -1.
        -11    1    1    2    0    0 -0.49249457541E+02 -0.10393695503E+02  0.35446213280E+03  0.35801807435E+03  0.00000000000E+00 0. -1.
         11    1    1    2    0    0  0.54935378859E+02  0.11929791361E+02 -0.49647642233E+03  0.49964893045E+03  0.00000000000E+00 0. -1.
        -15    1    1    2    0    0 -0.45896956668E+01 -0.29889731331E+01  0.12469775349E+03  0.12483063214E+03  0.17770000000E+01 0. -1.
         15    1    1    2    0    0 -0.10962256505E+01  0.14528772755E+01  0.17316536043E+02  0.17502363057E+02  0.17770000000E+01 0.  1.
</event>
<event>
 6    1  0.1823098E-004  0.5026211E+03  0.7546771E-02  0.9393964E-01
        -11   -1    0    0    0    0  0.00000000000E+00  0.00000000000E+00  0.50000000000E+03  0.50000000000E+03  0.00000000000E+00 0.  1.
         11   -1    0    0    0    0 -0.00000000000E+00 -0.00000000000E+00 -0.50000000000E+03  0.50000000000E+03  0.00000000000E+00 0.  1.
        -11    1    1    2    0    0 -0.39653614437E+00  0.20873865846E+02  0.44192598970E+03  0.44241886927E+03  0.00000000000E+00 0.  1.
         11    1    1    2    0    0 -0.80578580004E+01 -0.65061705303E+01 -0.49727102396E+03  0.49737886023E+03  0.00000000000E+00 0.  1.
        -15    1    1    2    0    0  0.84990530585E+01 -0.11576889412E+02  0.19912180315E+02  0.24615257977E+02  0.17770000000E+01 0. -1.
         15    1    1    2    0    0 -0.44658913716E-01 -0.27908059037E+01  0.35432853952E+02  0.35587012521E+02  0.17770000000E+01 0.  1.
</event>
<event>
 6    1  0.1823098E-004  0.5006918E+03  0.7546771E-02  0.9398263E-01
        -11   -1    0    0    0    0  0.00000000000E+00  0.00000000000E+00  0.50000000000E+03  0.50000000000E+03  0.00000000000E+00 0.  1.
         11   -1    0    0    0    0 -0.00000000000E+00 -0.00000000000E+00 -0.50000000000E+03  0.50000000000E+03  0.00000000000E+00 0.  1.
        -11    1    1    2    0    0 -0.89526614742E+00  0.67796821336E+01  0.49926137637E+03  0.49930820895E+03  0.00000000000E+00 0.  1.
         11    1    1    2    0    0  0.69441414758E+01 -0.53591731853E+01 -0.44008175502E+03  0.44016916400E+03  0.00000000000E+00 0.  1.
        -15    1    1    2    0    0  0.70723573052E+00 -0.41196986409E+01 -0.13774941385E+02  0.14504442024E+02  0.17770000000E+01 0. -1.
         15    1    1    2    0    0 -0.67561110589E+01  0.26991896926E+01 -0.45404679961E+02  0.46018185025E+02  0.17770000000E+01 0.  1.
</event>
<event>
 6    1  0.1823098E-004  0.5009059E+03  0.7546771E-02  0.9397785E-01
        -11   -1    0    0    0    0  0.00000000000E+00  0.00000000000E+00  0.50000000000E+03  0.50000000000E+03  0.00000000000E+00 0.  1.
         11   -1    0    0    0    0 -0.00000000000E+00 -0.00000000000E+00 -0.50000000000E+03  0.50000000000E+03  0.00000000000E+00 0. -1.
        -11    1    1    2    0    0 -0.68879925177E+01  0.24757406810E+00  0.46773787769E+03  0.46778865737E+03  0.00000000000E+00 0.  1.
         11    1    1    2    0    0  0.96142755133E+01  0.79780544402E+01 -0.49893767469E+03  0.49909406616E+03  0.00000000000E+00 0. -1.
        -15    1    1    2    0    0 -0.45350656111E+01 -0.60223359229E+01  0.21916610840E+02  0.23245019031E+02  0.17770000000E+01 0.  1.
         15    1    1    2    0    0  0.18087826154E+01 -0.22032925854E+01  0.92831861580E+01  0.98722574425E+01  0.17770000000E+01 0. -1.
</event>
<event>
 6    1  0.1823098E-004  0.5031014E+03  0.7546771E-02  0.9392897E-01
        -11   -1    0    0    0    0  0.00000000000E+00  0.00000000000E+00  0.50000000000E+03  0.50000000000E+03  0.00000000000E+00 0.  1.
         11   -1    0    0    0    0 -0.00000000000E+00 -0.00000000000E+00 -0.50000000000E+03  0.50000000000E+03  0.00000000000E+00 0. -1.
        -11    1    1    2    0    0 -0.48833483246E+01  0.58673758579E+01  0.49683994637E+03  0.49689858673E+03  0.00000000000E+00 0.  1.
         11    1    1    2    0    0 -0.92391685067E+01 -0.28077275015E+01 -0.47648939871E+03  0.47658723509E+03  0.00000000000E+00 0. -1.
        -15    1    1    2    0    0  0.12599381286E+02 -0.52595051299E+01 -0.16933517574E+02  0.21824494254E+02  0.17770000000E+01 0.  1.
         15    1    1    2    0    0  0.15231355454E+01  0.21998567734E+01 -0.34170300867E+01  0.46896839261E+01  0.17770000000E+01 0. -1.
</event>
<event>
 6    1  0.1823098E-004  0.5006720E+03  0.7546771E-02  0.9398307E-01
        -11   -1    0    0    0    0  0.00000000000E+00  0.00000000000E+00  0.50000000000E+03  0.50000000000E+03  0.00000000000E+00 0.  1.
         11   -1    0    0    0    0 -0.00000000000E+00 -0.00000000000E+00 -0.50000000000E+03  0.50000000000E+03  0.00000000000E+00 0. -1.
        -11    1    1    2    0    0  0.12092236560E+02  0.50117515369E+02  0.49665931569E+03  0.49932801183E+03  0.00000000000E+00 0.  1.
         11    1    1    2    0    0 -0.23034705814E+01 -0.43709264548E+02 -0.37215007165E+03  0.37471520067E+03  0.00000000000E+00 0. -1.
        -15    1    1    2    0    0 -0.20508883446E+01 -0.10476985151E+01 -0.34223508715E+01  0.44915509202E+01  0.17770000000E+01 0. -1.
         15    1    1    2    0    0 -0.77378776337E+01 -0.53605523065E+01 -0.12108689317E+03  0.12146523658E+03  0.17770000000E+01 0. -1.
</event>
<event>
 6    1  0.1823098E-004  0.5113232E+03  0.7546771E-02  0.9374824E-01
        -11   -1    0    0    0    0  0.00000000000E+00  0.00000000000E+00  0.50000000000E+03  0.50000000000E+03  0.00000000000E+00 0. -1.
         11   -1    0    0    0    0 -0.00000000000E+00 -0.00000000000E+00 -0.50000000000E+03  0.50000000000E+03  0.00000000000E+00 0.  1.
        -11    1    1    2    0    0  0.58152701706E+01  0.32281414277E+01  0.48863156708E+03  0.48867683249E+03  0.00000000000E+00 0. -1.
         11    1    1    2    0    0 -0.33270926684E+02 -0.29512613402E+02 -0.42493142524E+02  0.61511105289E+02  0.00000000000E+00 0.  1.
        -15    1    1    2    0    0  0.35170564706E+02  0.31989052242E+02 -0.37610258854E+03  0.37909970050E+03  0.17770000000E+01 0.  1.
         15    1    1    2    0    0 -0.77149081917E+01 -0.57045802679E+01 -0.70035836020E+02  0.70712361723E+02  0.17770000000E+01 0. -1.
</event>
<event>
 6    1  0.1823098E-004  0.5035373E+03  0.7546771E-02  0.9391929E-01
        -11   -1    0    0    0    0  0.00000000000E+00  0.00000000000E+00  0.50000000000E+03  0.50000000000E+03  0.00000000000E+00 0.  1.
         11   -1    0    0    0    0 -0.00000000000E+00 -0.00000000000E+00 -0.50000000000E+03  0.50000000000E+03  0.00000000000E+00 0.  1.
        -11    1    1    2    0    0 -0.72811104021E+01 -0.14797036166E+02  0.32350369313E+03  0.32392376621E+03  0.00000000000E+00 0.  1.
         11    1    1    2    0    0  0.35754634299E+01 -0.93281653831E+01 -0.49636218859E+03  0.49646270844E+03  0.00000000000E+00 0.  1.
        -15    1    1    2    0    0  0.16095772567E+02 -0.22505021940E+01  0.34097454658E+02  0.37814452234E+02  0.17770000000E+01 0.  1.
         15    1    1    2    0    0 -0.12390125595E+02  0.26375703743E+02  0.13876104081E+03  0.14179907311E+03  0.17770000000E+01 0. -1.
</event>
<event>
 6    1  0.1823098E-004  0.4769827E+03  0.7546771E-02  0.9452839E-01
        -11   -1    0    0    0    0  0.00000000000E+00  0.00000000000E+00  0.50000000000E+03  0.50000000000E+03  0.00000000000E+00 0. -1.
         11   -1    0    0    0    0 -0.00000000000E+00 -0.00000000000E+00 -0.50000000000E+03  0.50000000000E+03  0.00000000000E+00 0. -1.
        -11    1    1    2    0    0 -0.36070200254E+01  0.14731162897E+02  0.47032284061E+03  0.47056730884E+03  0.00000000000E+00 0. -1.
         11    1    1    2    0    0 -0.21506267653E+02 -0.20313945846E+02 -0.48292277255E+03  0.48382804817E+03  0.00000000000E+00 0. -1.
        -15    1    1    2    0    0  0.12304223755E+02 -0.51440128009E+01  0.22417541396E+02  0.26144955176E+02  0.17770000000E+01 0.  1.
         15    1    1    2    0    0  0.12809063923E+02  0.10726795749E+02 -0.98176094506E+01  0.19459687817E+02  0.17770000000E+01 0. -1.
</event>
<event>
 6    1  0.1823098E-004  0.5044278E+03  0.7546771E-02  0.9389956E-01
        -11   -1    0    0    0    0  0.00000000000E+00  0.00000000000E+00  0.50000000000E+03  0.50000000000E+03  0.00000000000E+00 0.  1.
         11   -1    0    0    0    0 -0.00000000000E+00 -0.00000000000E+00 -0.50000000000E+03  0.50000000000E+03  0.00000000000E+00 0. -1.
        -11    1    1    2    0    0 -0.53880726922E+01  0.42331890253E+01  0.49552481348E+03  0.49557218646E+03  0.00000000000E+00 0.  1.
         11    1    1    2    0    0 -0.39937341165E+02  0.35986994014E+01 -0.15160250831E+03  0.15681601444E+03  0.00000000000E+00 0. -1.
        -15    1    1    2    0    0  0.46698758522E+02 -0.94564756496E+01 -0.32078955111E+03  0.32431357173E+03  0.17770000000E+01 0. -1.
         15    1    1    2    0    0 -0.13733446643E+01  0.16245872228E+01 -0.23132754065E+02  0.23298227375E+02  0.17770000000E+01 0.  1.
</event>
<event>
 6    1  0.1823098E-004  0.5020103E+03  0.7546771E-02  0.9395323E-01
        -11   -1    0    0    0    0  0.00000000000E+00  0.00000000000E+00  0.50000000000E+03  0.50000000000E+03  0.00000000000E+00 0.  1.
         11   -1    0    0    0    0 -0.00000000000E+00 -0.00000000000E+00 -0.50000000000E+03  0.50000000000E+03  0.00000000000E+00 0.  1.
        -11    1    1    2    0    0 -0.94794055233E+01  0.58520923419E+00  0.49789909552E+03  0.49798966949E+03  0.00000000000E+00 0.  1.
         11    1    1    2    0    0  0.12056672181E+02 -0.37747998484E+01 -0.17648840674E+02  0.21704700761E+02  0.00000000000E+00 0.  1.
        -15    1    1    2    0    0  0.13356355372E+01  0.12459807341E+01 -0.14884935250E+03  0.14887116530E+03  0.17770000000E+01 0. -1.
         15    1    1    2    0    0 -0.39129021947E+01  0.19436098801E+01 -0.33140090234E+03  0.33143446445E+03  0.17770000000E+01 0.  1.
</event>
<event>
 6    1  0.1823098E-004  0.5011826E+03  0.7546771E-02  0.9397168E-01
        -11   -1    0    0    0    0  0.00000000000E+00  0.00000000000E+00  0.50000000000E+03  0.50000000000E+03  0.00000000000E+00 0. -1.
         11   -1    0    0    0    0 -0.00000000000E+00 -0.00000000000E+00 -0.50000000000E+03  0.50000000000E+03  0.00000000000E+00 0. -1.
        -11    1    1    2    0    0 -0.90913797052E+01 -0.36264260421E+01  0.47725898731E+03  0.47735934590E+03  0.00000000000E+00 0. -1.
         11    1    1    2    0    0  0.14858758257E+02  0.15182164912E+01 -0.49859377506E+03  0.49881744176E+03  0.00000000000E+00 0. -1.
        -15    1    1    2    0    0 -0.56640298383E+01 -0.18848988421E+01  0.12636486830E+02  0.14088030595E+02  0.17770000000E+01 0.  1.
         15    1    1    2    0    0 -0.10334871304E+00  0.39931083929E+01  0.86983009191E+01  0.97351817381E+01  0.17770000000E+01 0. -1.
</event>
<event>
 6    1  0.1823098E-004  0.5001276E+03  0.7546771E-02  0.9399524E-01
        -11   -1    0    0    0    0  0.00000000000E+00  0.00000000000E+00  0.50000000000E+03  0.50000000000E+03  0.00000000000E+00 0. -1.
         11   -1    0    0    0    0 -0.00000000000E+00 -0.00000000000E+00 -0.50000000000E+03  0.50000000000E+03  0.00000000000E+00 0.  1.
        -11    1    1    2    0    0  0.28287985506E+01  0.34966610294E+01  0.22894743299E+03  0.22899160642E+03  0.00000000000E+00 0. -1.
         11    1    1    2    0    0 -0.96029229346E+01  0.42728200639E+01 -0.49976191484E+03  0.49987242837E+03  0.00000000000E+00 0.  1.
        -15    1    1    2    0    0  0.13288638440E+01 -0.50823271120E+01  0.18733780796E+03  0.18741987074E+03  0.17770000000E+01 0. -1.
         15    1    1    2    0    0  0.54452605400E+01 -0.26871539813E+01  0.83476673893E+02  0.83716094463E+02  0.17770000000E+01 0.  1.
</event>
<event>
 6    1  0.1823098E-004  0.5006719E+03  0.7546771E-02  0.9398307E-01
        -11   -1    0    0    0    0  0.00000000000E+00  0.00000000000E+00  0.50000000000E+03  0.50000000000E+03  0.00000000000E+00 0.  1.
         11   -1    0    0    0    0 -0.00000000000E+00 -0.00000000000E+00 -0.50000000000E+03  0.50000000000E+03  0.00000000000E+00 0.  1.
        -11    1    1    2    0    0 -0.50933253399E+01  0.62642178828E+01  0.49926279996E+03  0.49932807433E+03  0.00000000000E+00 0.  1.
         11    1    1    2    0    0 -0.31916959439E+01  0.37512508329E+01 -0.11575564856E+02  0.12579845291E+02  0.00000000000E+00 0.  1.
        -15    1    1    2    0    0  0.45413517125E+01 -0.13238971292E+02 -0.39919682152E+03  0.39944605928E+03  0.17770000000E+01 0.  1.
         15    1    1    2    0    0  0.37436695712E+01  0.32235025760E+01 -0.88490413590E+02  0.88646021101E+02  0.17770000000E+01 0. -1.
</event>
<event>
 6    1  0.1823098E-004  0.4947117E+03  0.7546771E-02  0.9411721E-01
        -11   -1    0    0    0    0  0.00000000000E+00  0.00000000000E+00  0.50000000000E+03  0.50000000000E+03  0.00000000000E+00 0.  1.
         11   -1    0    0    0    0 -0.00000000000E+00 -0.00000000000E+00 -0.50000000000E+03  0.50000000000E+03  0.00000000000E+00 0.  1.
        -11    1    1    2    0    0  0.17206501465E+01 -0.72418194008E+01  0.49704139306E+03  0.49709712431E+03  0.00000000000E+00 0.  1.
         11    1    1    2    0    0 -0.92226004166E+01 -0.16827956042E+01 -0.52076492930E+01  0.10724167597E+02  0.00000000000E+00 0.  1.
        -15    1    1    2    0    0  0.80352777440E+01  0.53396368926E+01 -0.45799536653E+03  0.45810041574E+03  0.17770000000E+01 0.  1.
         15    1    1    2    0    0 -0.53332747384E+00  0.35849781124E+01 -0.33838377236E+02  0.34078292346E+02  0.17770000000E+01 0.  1.
</event>
<event>
 6    1  0.1823098E-004  0.5002018E+03  0.7546771E-02  0.9399358E-01
        -11   -1    0    0    0    0  0.00000000000E+00  0.00000000000E+00  0.50000000000E+03  0.50000000000E+03  0.00000000000E+00 0.  1.
         11   -1    0    0    0    0 -0.00000000000E+00 -0.00000000000E+00 -0.50000000000E+03  0.50000000000E+03  0.00000000000E+00 0. -1.
        -11    1    1    2    0    0  0.78748763802E+01 -0.91191934619E+01  0.49965290740E+03  0.49979816050E+03  0.00000000000E+00 0.  1.
         11    1    1    2    0    0 -0.39923393639E+01  0.13508284418E+02 -0.23325945428E+03  0.23368437160E+03  0.00000000000E+00 0. -1.
        -15    1    1    2    0    0 -0.28665794915E+01 -0.18699532162E+01 -0.20659089852E+03  0.20662688858E+03  0.17770000000E+01 0. -1.
         15    1    1    2    0    0 -0.10159575248E+01 -0.25191377402E+01 -0.59802554601E+02  0.59890579313E+02  0.17770000000E+01 0.  1.
</event>
<event>
 6    1  0.1823098E-004  0.5001803E+03  0.7546771E-02  0.9399406E-01
        -11   -1    0    0    0    0  0.00000000000E+00  0.00000000000E+00  0.50000000000E+03  0.50000000000E+03  0.00000000000E+00 0.  1.
         11   -1    0    0    0    0 -0.00000000000E+00 -0.00000000000E+00 -0.50000000000E+03  0.50000000000E+03  0.00000000000E+00 0. -1.
        -11    1    1    2    0    0 -0.10986086857E+02  0.12477390684E+02  0.49954317245E+03  0.49981972803E+03  0.00000000000E+00 0.  1.
         11    1    1    2    0    0  0.10706006490E+02 -0.64250336979E+01 -0.15711987910E+03  0.15761521513E+03  0.00000000000E+00 0. -1.
        -15    1    1    2    0    0  0.34488892384E+01 -0.34651344530E+01 -0.15027737202E+03  0.15036737765E+03  0.17770000000E+01 0.  1.
         15    1    1    2    0    0 -0.31688088710E+01 -0.25872225331E+01 -0.19214592134E+03  0.19219767919E+03  0.17770000000E+01 0. -1.
</event>
<event>
 6    1  0.1823098E-004  0.4844452E+03  0.7546771E-02  0.9435304E-01
        -11   -1    0    0    0    0  0.00000000000E+00  0.00000000000E+00  0.50000000000E+03  0.50000000000E+03  0.00000000000E+00 0.  1.
         11   -1    0    0    0    0 -0.00000000000E+00 -0.00000000000E+00 -0.50000000000E+03  0.50000000000E+03  0.00000000000E+00 0.  1.
        -11    1    1    2    0    0  0.76926163210E+01  0.53038925806E+01  0.48270226790E+03  0.48279269574E+03  0.00000000000E+00 0.  1.
         11    1    1    2    0    0 -0.43777583554E+01  0.23113548497E+02 -0.48595638662E+03  0.48652544701E+03  0.00000000000E+00 0.  1.
        -15    1    1    2    0    0  0.10752984110E+01 -0.23058068485E+02  0.96224654724E+00  0.23171414207E+02  0.17770000000E+01 0. -1.
         15    1    1    2    0    0 -0.43901563766E+01 -0.53593725933E+01  0.22918721755E+01  0.75104430411E+01  0.17770000000E+01 0.  1.
</event>
<event>
 6    1  0.1823098E-004  0.5011898E+03  0.7546771E-02  0.9397151E-01
        -11   -1    0    0    0    0  0.00000000000E+00  0.00000000000E+00  0.50000000000E+03  0.50000000000E+03  0.00000000000E+00 0.  1.
         11   -1    0    0    0    0 -0.00000000000E+00 -0.00000000000E+00 -0.50000000000E+03  0.50000000000E+03  0.00000000000E+00 0. -1.
        -11    1    1    2    0    0  0.14065125997E+01 -0.11340169720E+02  0.49867925320E+03  0.49881015958E+03  0.00000000000E+00 0.  1.
         11    1    1    2    0    0 -0.21005128127E+02  0.14449321211E+02 -0.22580293536E+03  0.22723768154E+03  0.00000000000E+00 0. -1.
        -15    1    1    2    0    0  0.11387626708E+02 -0.36912013092E+01 -0.81803247857E+02  0.82693603731E+02  0.17770000000E+01 0.  1.
         15    1    1    2    0    0  0.82109888198E+01  0.58204981760E+00 -0.19107306998E+03  0.19125855515E+03  0.17770000000E+01 0. -1.
</event>
<event>
 6    1  0.1823098E-004  0.5003177E+03  0.7546771E-02  0.9399099E-01
        -11   -1    0    0    0    0  0.00000000000E+00  0.00000000000E+00  0.50000000000E+03  0.50000000000E+03  0.00000000000E+00 0.  1.
         11   -1    0    0    0    0 -0.00000000000E+00 -0.00000000000E+00 -0.50000000000E+03  0.50000000000E+03  0.00000000000E+00 0. -1.
        -11    1    1    2    0    0  0.25274909104E+02  0.12301485103E+02  0.49889099790E+03  0.49968227441E+03  0.00000000000E+00 0.  1.
         11    1    1    2    0    0 -0.14067137492E+02 -0.58022043437E+00 -0.16499871645E+03  0.16559830145E+03  0.00000000000E+00 0. -1.
        -15    1    1    2    0    0 -0.23314620499E+01 -0.49739138880E+01 -0.25047598996E+03  0.25054252096E+03  0.17770000000E+01 0. -1.
         15    1    1    2    0    0 -0.88763095626E+01 -0.67473507806E+01 -0.83416291495E+02  0.84176903185E+02  0.17770000000E+01 0.  1.
</event>
<event>
 6    1  0.1823098E-004  0.5004060E+03  0.7546771E-02  0.9398902E-01
        -11   -1    0    0    0    0  0.00000000000E+00  0.00000000000E+00  0.50000000000E+03  0.50000000000E+03  0.00000000000E+00 0.  1.
         11   -1    0    0    0    0 -0.00000000000E+00 -0.00000000000E+00 -0.50000000000E+03  0.50000000000E+03  0.00000000000E+00 0. -1.
        -11    1    1    2    0    0 -0.52220161142E+01  0.19177558282E+01  0.36518722292E+03  0.36522959221E+03  0.00000000000E+00 0.  1.
         11    1    1    2    0    0 -0.73386720251E+01  0.19126566437E+01 -0.49953638602E+03  0.49959395044E+03  0.00000000000E+00 0. -1.
        -15    1    1    2    0    0  0.10867552397E+02 -0.49956111369E+01  0.11574868040E+03  0.11637858295E+03  0.17770000000E+01 0.  1.
         15    1    1    2    0    0  0.16931357422E+01  0.11651986649E+01  0.18600482693E+02  0.18797874400E+02  0.17770000000E+01 0. -1.
</event>
<event>
 6    1  0.1823098E-004  0.5019148E+03  0.7546771E-02  0.9395535E-01
        -11   -1    0    0    0    0  0.00000000000E+00  0.00000000000E+00  0.50000000000E+03  0.50000000000E+03  0.00000000000E+00 0. -1.
         11   -1    0    0    0    0 -0.00000000000E+00 -0.00000000000E+00 -0.50000000000E+03  0.50000000000E+03  0.00000000000E+00 0. -1.
        -11    1    1    2    0    0 -0.12593196063E+02  0.30587357305E+01  0.49791653347E+03  0.49808515211E+03  0.00000000000E+00 0. -1.
         11    1    1    2    0    0  0.32891229106E+02 -0.25743352113E+01 -0.41599650361E+03  0.41730270928E+03  0.00000000000E+00 0. -1.
        -15    1    1    2    0    0 -0.11176800287E+02 -0.26245729016E+01 -0.46817911955E+02  0.48237784530E+02  0.17770000000E+01 0. -1.
         15    1    1    2    0    0 -0.91212327557E+01  0.21401723824E+01 -0.35102117901E+02  0.36374354083E+02  0.17770000000E+01 0.  1.
</event>
<event>
 6    1  0.1823098E-004  0.5063645E+03  0.7546771E-02  0.9385680E-01
        -11   -1    0    0    0    0  0.00000000000E+00  0.00000000000E+00  0.50000000000E+03  0.50000000000E+03  0.00000000000E+00 0.  1.
         11   -1    0    0    0    0 -0.00000000000E+00 -0.00000000000E+00 -0.50000000000E+03  0.50000000000E+03  0.00000000000E+00 0. -1.
        -11    1    1    2    0    0 -0.22250619705E+02  0.53887674966E+01  0.39226230422E+03  0.39292982096E+03  0.00000000000E+00 0.  1.
         11    1    1    2    0    0 -0.22135616464E+02  0.10628262936E+02 -0.49302436841E+03  0.49363546604E+03  0.00000000000E+00 0. -1.
        -15    1    1    2    0    0  0.42835017665E+01 -0.38232461969E+01  0.34417677334E+02  0.34938515151E+02  0.17770000000E+01 0.  1.
         15    1    1    2    0    0  0.40102734402E+02 -0.12193784235E+02  0.66344386854E+02  0.78496197847E+02  0.17770000000E+01 0. -1.
</event>
<event>
 6    1  0.1823098E-004  0.5011522E+03  0.7546771E-02  0.9397235E-01
        -11   -1    0    0    0    0  0.00000000000E+00  0.00000000000E+00  0.50000000000E+03  0.50000000000E+03  0.00000000000E+00 0.  1.
         11   -1    0    0    0    0 -0.00000000000E+00 -0.00000000000E+00 -0.50000000000E+03  0.50000000000E+03  0.00000000000E+00 0. -1.
        -11    1    1    2    0    0  0.22198678147E+02  0.24256217136E+02  0.49776297411E+03  0.49884779621E+03  0.00000000000E+00 0.  1.
         11    1    1    2    0    0 -0.23065872242E+02 -0.13576447220E+02 -0.12135384192E+03  0.12427030752E+03  0.00000000000E+00 0. -1.
        -15    1    1    2    0    0  0.75203163556E+01 -0.67596304715E+01 -0.26049290590E+03  0.26069514670E+03  0.17770000000E+01 0. -1.
         15    1    1    2    0    0 -0.66531222611E+01 -0.39201394451E+01 -0.11591622629E+03  0.11618674957E+03  0.17770000000E+01 0.  1.
</event>
<event>
 6    1  0.1823098E-004  0.4846746E+03  0.7546771E-02  0.9434770E-01
        -11   -1    0    0    0    0  0.00000000000E+00  0.00000000000E+00  0.50000000000E+03  0.50000000000E+03  0.00000000000E+00 0. -1.
         11   -1    0    0    0    0 -0.00000000000E+00 -0.00000000000E+00 -0.50000000000E+03  0.50000000000E+03  0.00000000000E+00 0.  1.
        -11    1    1    2    0    0  0.66405919269E+01  0.10655470450E+01  0.47887160189E+03  0.47891882814E+03  0.00000000000E+00 0. -1.
         11    1    1    2    0    0  0.18565301171E+02 -0.59110566047E+01 -0.49045246260E+03  0.49083931084E+03  0.00000000000E+00 0.  1.
        -15    1    1    2    0    0 -0.35331310754E+01 -0.80607829764E+00 -0.14259804860E+01  0.42806456013E+01  0.17770000000E+01 0. -1.
         15    1    1    2    0    0 -0.21672762022E+02  0.56515878573E+01  0.13006841201E+02  0.25961215419E+02  0.17770000000E+01 0.  1.
</event>
<event>
 6    1  0.1823098E-004  0.4684411E+03  0.7546771E-02  0.9473333E-01
        -11   -1    0    0    0    0  0.00000000000E+00  0.00000000000E+00  0.50000000000E+03  0.50000000000E+03  0.00000000000E+00 0.  1.
         11   -1    0    0    0    0 -0.00000000000E+00 -0.00000000000E+00 -0.50000000000E+03  0.50000000000E+03  0.00000000000E+00 0. -1.
        -11    1    1    2    0    0  0.38785125920E+00  0.27851394864E+02  0.45866176784E+03  0.45950676589E+03  0.00000000000E+00 0.  1.
         11    1    1    2    0    0  0.39206357018E+02  0.12082003949E+02 -0.47749123400E+03  0.47925044789E+03  0.00000000000E+00 0. -1.
        -15    1    1    2    0    0 -0.25556617861E+02 -0.17457807234E+02  0.14896517132E+02  0.34394471962E+02  0.17770000000E+01 0.  1.
         15    1    1    2    0    0 -0.14037590416E+02 -0.22475591580E+02  0.39329490332E+01  0.26848314261E+02  0.17770000000E+01 0. -1.
</event>
<event>
 6    1  0.1823098E-004  0.5007063E+03  0.7546771E-02  0.9398231E-01
        -11   -1    0    0    0    0  0.00000000000E+00  0.00000000000E+00  0.50000000000E+03  0.50000000000E+03  0.00000000000E+00 0.  1.
         11   -1    0    0    0    0 -0.00000000000E+00 -0.00000000000E+00 -0.50000000000E+03  0.50000000000E+03  0.00000000000E+00 0.  1.
        -11    1    1    2    0    0  0.37650054784E+01  0.13841216843E+02  0.49908763548E+03  0.49929372361E+03  0.00000000000E+00 0.  1.
         11    1    1    2    0    0  0.16904366124E+01  0.31424563698E+01 -0.45614802486E+01  0.57913478599E+01  0.00000000000E+00 0.  1.
        -15    1    1    2    0    0 -0.68196408456E+01 -0.15174270669E+02 -0.42456978502E+03  0.42489931286E+03  0.17770000000E+01 0.  1.
         15    1    1    2    0    0  0.13641987548E+01 -0.18094025431E+01 -0.69956370211E+02  0.70015615672E+02  0.17770000000E+01 0.  1.
</event>
<event>
 6    1  0.1823098E-004  0.5001973E+03  0.7546771E-02  0.9399368E-01
        -11   -1    0    0    0    0  0.00000000000E+00  0.00000000000E+00  0.50000000000E+03  0.50000000000E+03  0.00000000000E+00 0. -1.
         11   -1    0    0    0    0 -0.00000000000E+00 -0.00000000000E+00 -0.50000000000E+03  0.50000000000E+03  0.00000000000E+00 0.  1.
        -11    1    1    2    0    0  0.35738161729E+01 -0.31207914276E+01  0.25075402594E+03  0.25079890954E+03  0.00000000000E+00 0. -1.
         11    1    1    2    0    0  0.59065512108E+01  0.75850655815E+01 -0.49971021648E+03  0.49980268209E+03  0.00000000000E+00 0.  1.
        -15    1    1    2    0    0 -0.37211199754E+01 -0.26489457065E+01  0.34139824861E+02  0.34489839341E+02  0.17770000000E+01 0.  1.
         15    1    1    2    0    0 -0.57592474082E+01 -0.18153284475E+01  0.21481636568E+03  0.21490856903E+03  0.17770000000E+01 0. -1.
</event>
<event>
 6    1  0.1823098E-004  0.5155143E+03  0.7546771E-02  0.9365749E-01
        -11   -1    0    0    0    0  0.00000000000E+00  0.00000000000E+00  0.50000000000E+03  0.50000000000E+03  0.00000000000E+00 0. -1.
         11   -1    0    0    0    0 -0.00000000000E+00 -0.00000000000E+00 -0.50000000000E+03  0.50000000000E+03  0.00000000000E+00 0. -1.
        -11    1    1    2    0    0  0.72753349381E+01  0.15541799249E+02  0.43040454549E+03  0.43074650411E+03  0.00000000000E+00 0. -1.
         11    1    1    2    0    0  0.25939663322E+02  0.80873832473E+01 -0.48372321375E+03  0.48448572674E+03  0.00000000000E+00 0. -1.
        -15    1    1    2    0    0 -0.15300306811E+02  0.11919491818E+02  0.36792257944E+02  0.41629336379E+02  0.17770000000E+01 0.  1.
         15    1    1    2    0    0 -0.17914691450E+02 -0.35548674314E+02  0.16526410314E+02  0.43138432773E+02  0.17770000000E+01 0. -1.
</event>
<event>
 6    1  0.1823098E-004  0.5000320E+03  0.7546771E-02  0.9399738E-01
        -11   -1    0    0    0    0  0.00000000000E+00  0.00000000000E+00  0.50000000000E+03  0.50000000000E+03  0.00000000000E+00 0.  1.
         11   -1    0    0    0    0 -0.00000000000E+00 -0.00000000000E+00 -0.50000000000E+03  0.50000000000E+03  0.00000000000E+00 0.  1.
        -11    1    1    2    0    0  0.77075155440E+01 -0.25674966795E+01  0.49990200656E+03  0.49996801297E+03  0.00000000000E+00 0.  1.
         11    1    1    2    0    0 -0.34049966573E+01  0.27859873248E+01 -0.16724593494E+03  0.16730379099E+03  0.00000000000E+00 0.  1.
        -15    1    1    2    0    0 -0.35465994957E+01 -0.17354893379E+01 -0.24265836753E+03  0.24269699494E+03  0.17770000000E+01 0. -1.
         15    1    1    2    0    0 -0.75591939103E+00  0.15169986926E+01 -0.89997704096E+02  0.90031201095E+02  0.17770000000E+01 0.  1.
</event>
<event>
 6    1  0.1823098E-004  0.5102216E+03  0.7546771E-02  0.9377224E-01
        -11   -1    0    0    0    0  0.00000000000E+00  0.00000000000E+00  0.50000000000E+03  0.50000000000E+03  0.00000000000E+00 0.  1.
         11   -1    0    0    0    0 -0.00000000000E+00 -0.00000000000E+00 -0.50000000000E+03  0.50000000000E+03  0.00000000000E+00 0. -1.
        -11    1    1    2    0    0 -0.19711810805E+01 -0.15626583388E+02  0.48952506905E+03  0.48977838753E+03  0.00000000000E+00 0.  1.
         11    1    1    2    0    0  0.55085142716E+02  0.17814233275E+02 -0.25823291204E+03  0.26464307419E+03  0.00000000000E+00 0. -1.
        -15    1    1    2    0    0 -0.32765441076E+02  0.41607633803E+00 -0.34141713957E+02  0.47355692470E+02  0.17770000000E+01 0.  1.
         15    1    1    2    0    0 -0.20348520560E+02 -0.26037262243E+01 -0.19715044305E+03  0.19822284581E+03  0.17770000000E+01 0. -1.
</event>
<event>
 6    1  0.1823098E-004  0.5011426E+03  0.7546771E-02  0.9397257E-01
        -11   -1    0    0    0    0  0.00000000000E+00  0.00000000000E+00  0.50000000000E+03  0.50000000000E+03  0.00000000000E+00 0. -1.
         11   -1    0    0    0    0 -0.00000000000E+00 -0.00000000000E+00 -0.50000000000E+03  0.50000000000E+03  0.00000000000E+00 0.  1.
        -11    1    1    2    0    0  0.65965741769E+01  0.23479876230E+01  0.43268758423E+03  0.43274423553E+03  0.00000000000E+00 0. -1.
         11    1    1    2    0    0 -0.36863571155E+01  0.97498532211E+01 -0.49874844619E+03  0.49885735580E+03  0.00000000000E+00 0.  1.
        -15    1    1    2    0    0  0.25377963927E+01 -0.89223796382E+01  0.23348194230E+02  0.25186209952E+02  0.17770000000E+01 0.  1.
         15    1    1    2    0    0 -0.54480134541E+01 -0.31754612058E+01  0.42712667723E+02  0.43212198711E+02  0.17770000000E+01 0. -1.
</event>
<event>
 6    1  0.1823098E-004  0.5001933E+03  0.7546771E-02  0.9399377E-01
        -11   -1    0    0    0    0  0.00000000000E+00  0.00000000000E+00  0.50000000000E+03  0.50000000000E+03  0.00000000000E+00 0.  1.
         11   -1    0    0    0    0 -0.00000000000E+00 -0.00000000000E+00 -0.50000000000E+03  0.50000000000E+03  0.00000000000E+00 0.  1.
        -11    1    1    2    0    0  0.50273672485E+01 -0.69168001965E+01  0.49973357381E+03  0.49980672399E+03  0.00000000000E+00 0.  1.
         11    1    1    2    0    0  0.24336540900E+00 -0.55241404901E+01 -0.18195414869E+03  0.18203814869E+03  0.00000000000E+00 0.  1.
        -15    1    1    2    0    0 -0.34947982561E+01  0.16476588583E+01 -0.71315704424E+02  0.71442395124E+02  0.17770000000E+01 0. -1.
         15    1    1    2    0    0 -0.17759344014E+01  0.10793281828E+02 -0.24646372070E+03  0.24671273220E+03  0.17770000000E+01 0.  1.
</event>
<event>
 6    1  0.1823098E-004  0.5050494E+03  0.7546771E-02  0.9388582E-01
        -11   -1    0    0    0    0  0.00000000000E+00  0.00000000000E+00  0.50000000000E+03  0.50000000000E+03  0.00000000000E+00 0.  1.
         11   -1    0    0    0    0 -0.00000000000E+00 -0.00000000000E+00 -0.50000000000E+03  0.50000000000E+03  0.00000000000E+00 0.  1.
        -11    1    1    2    0    0 -0.69205454885E+01 -0.10044616801E+02  0.49480029175E+03  0.49495062076E+03  0.00000000000E+00 0.  1.
         11    1    1    2    0    0  0.28956827406E+02  0.12864837886E+02 -0.46518360030E+03  0.46626149734E+03  0.00000000000E+00 0.  1.
        -15    1    1    2    0    0 -0.10840558687E+02 -0.53482312392E+01 -0.21112451509E+02  0.24392921673E+02  0.17770000000E+01 0. -1.
         15    1    1    2    0    0 -0.11195723231E+02  0.25280101547E+01 -0.85042399371E+01  0.14394960226E+02  0.17770000000E+01 0.  1.
</event>
<event>
 6    1  0.1823098E-004  0.5016179E+03  0.7546771E-02  0.9396197E-01
        -11   -1    0    0    0    0  0.00000000000E+00  0.00000000000E+00  0.50000000000E+03  0.50000000000E+03  0.00000000000E+00 0.  1.
         11   -1    0    0    0    0 -0.00000000000E+00 -0.00000000000E+00 -0.50000000000E+03  0.50000000000E+03  0.00000000000E+00 0.  1.
        -11    1    1    2    0    0 -0.72545891794E+01  0.25975159636E+00  0.30358228172E+03  0.30366906051E+03  0.00000000000E+00 0.  1.
         11    1    1    2    0    0 -0.23779610864E+02 -0.89621870661E+01 -0.49773378404E+03  0.49838209284E+03  0.00000000000E+00 0.  1.
        -15    1    1    2    0    0  0.18939818144E+01  0.44343240103E+01  0.82432340864E+01  0.97138578199E+01  0.17770000000E+01 0. -1.
         15    1    1    2    0    0  0.29140218229E+02  0.42681114594E+01  0.18590826823E+03  0.18823498883E+03  0.17770000000E+01 0.  1.
</event>
<event>
 6    1  0.1823098E-004  0.5029600E+03  0.7546771E-02  0.9393211E-01
        -11   -1    0    0    0    0  0.00000000000E+00  0.00000000000E+00  0.50000000000E+03  0.50000000000E+03  0.00000000000E+00 0.  1.
         11   -1    0    0    0    0 -0.00000000000E+00 -0.00000000000E+00 -0.50000000000E+03  0.50000000000E+03  0.00000000000E+00 0.  1.
        -11    1    1    2    0    0 -0.42337935733E+00 -0.17659216268E+02  0.49672602814E+03  0.49704001268E+03  0.00000000000E+00 0.  1.
         11    1    1    2    0    0  0.14339824698E+02  0.19032194070E+02 -0.51257101063E+02  0.56525617139E+02  0.00000000000E+00 0.  1.
        -15    1    1    2    0    0 -0.11445463208E+02 -0.81190708742E+01 -0.11283612764E+03  0.11371924802E+03  0.17770000000E+01 0. -1.
         15    1    1    2    0    0 -0.24709821332E+01  0.67460930723E+01 -0.33263279944E+03  0.33271512216E+03  0.17770000000E+01 0.  1.
</event>
<event>
 6    1  0.1823098E-004  0.5023082E+03  0.7546771E-02  0.9394660E-01
        -11   -1    0    0    0    0  0.00000000000E+00  0.00000000000E+00  0.50000000000E+03  0.50000000000E+03  0.00000000000E+00 0. -1.
         11   -1    0    0    0    0 -0.00000000000E+00 -0.00000000000E+00 -0.50000000000E+03  0.50000000000E+03  0.00000000000E+00 0.  1.
        -11    1    1    2    0    0 -0.11372387973E+02 -0.40060306021E+00  0.49756173915E+03  0.49769184840E+03  0.00000000000E+00 0. -1.
         11    1    1    2    0    0  0.72429351353E+01  0.14490693186E+02 -0.46739787930E+03  0.46767854117E+03  0.00000000000E+00 0.  1.
        -15    1    1    2    0    0  0.23770998184E+01 -0.94708575005E+01 -0.11258017506E+02  0.15008278799E+02  0.17770000000E+01 0. -1.
         15    1    1    2    0    0  0.17523530191E+01 -0.46192326256E+01 -0.18905842351E+02  0.19621331636E+02  0.17770000000E+01 0.  1.
</event>
<event>
 6    1  0.1823098E-004  0.5026994E+03  0.7546771E-02  0.9393790E-01
        -11   -1    0    0    0    0  0.00000000000E+00  0.00000000000E+00  0.50000000000E+03  0.50000000000E+03  0.00000000000E+00 0.  1.
         11   -1    0    0    0    0 -0.00000000000E+00 -0.00000000000E+00 -0.50000000000E+03  0.50000000000E+03  0.00000000000E+00 0. -1.
        -11    1    1    2    0    0 -0.73498151716E+02  0.66963618218E+02  0.24092965384E+03  0.26063998651E+03  0.00000000000E+00 0.  1.
         11    1    1    2    0    0  0.74535761919E+02 -0.12357534429E+03 -0.47590070720E+03  0.49730064210E+03  0.00000000000E+00 0. -1.
        -15    1    1    2    0    0 -0.65785227351E+01  0.33043348876E+02  0.12843986225E+03  0.13279719805E+03  0.17770000000E+01 0.  1.
         15    1    1    2    0    0  0.55409125315E+01  0.23568377194E+02  0.10653119110E+03  0.10926217333E+03  0.17770000000E+01 0. -1.
</event>
<event>
 6    1  0.1823098E-004  0.4758023E+03  0.7546771E-02  0.9455644E-01
        -11   -1    0    0    0    0  0.00000000000E+00  0.00000000000E+00  0.50000000000E+03  0.50000000000E+03  0.00000000000E+00 0. -1.
         11   -1    0    0    0    0 -0.00000000000E+00 -0.00000000000E+00 -0.50000000000E+03  0.50000000000E+03  0.00000000000E+00 0.  1.
        -11    1    1    2    0    0  0.28902598420E+01 -0.57848974815E+01  0.47045866517E+03  0.47050310762E+03  0.00000000000E+00 0. -1.
         11    1    1    2    0    0 -0.32456191929E+02 -0.28115066906E+02 -0.48029918406E+03  0.48221485626E+03  0.00000000000E+00 0.  1.
        -15    1    1    2    0    0  0.21646714995E+02  0.18889583468E+02  0.31627753379E+01  0.28957857492E+02  0.17770000000E+01 0. -1.
         15    1    1    2    0    0  0.79192170918E+01  0.15010380919E+02  0.66777435514E+01  0.18324178634E+02  0.17770000000E+01 0.  1.
</event>
<event>
 6    1  0.1823098E-004  0.4917922E+03  0.7546771E-02  0.9418365E-01
        -11   -1    0    0    0    0  0.00000000000E+00  0.00000000000E+00  0.50000000000E+03  0.50000000000E+03  0.00000000000E+00 0. -1.
         11   -1    0    0    0    0 -0.00000000000E+00 -0.00000000000E+00 -0.50000000000E+03  0.50000000000E+03  0.00000000000E+00 0.  1.
        -11    1    1    2    0    0 -0.53565216005E+00 -0.12840103329E+00  0.17282662316E+02  0.17291437962E+02  0.00000000000E+00 0. -1.
         11    1    1    2    0    0  0.39604118108E+02 -0.16930499477E+02 -0.49759813700E+03  0.49945874096E+03  0.00000000000E+00 0.  1.
        -15    1    1    2    0    0 -0.13182745238E+02  0.21668797204E+02  0.29104930833E+03  0.29215779838E+03  0.17770000000E+01 0. -1.
         15    1    1    2    0    0 -0.25885720710E+02 -0.46098966941E+01  0.18926616635E+03  0.19109202269E+03  0.17770000000E+01 0.  1.
</event>
<event>
 6    1  0.1823098E-004  0.5001038E+03  0.7546771E-02  0.9399578E-01
        -11   -1    0    0    0    0  0.00000000000E+00  0.00000000000E+00  0.50000000000E+03  0.50000000000E+03  0.00000000000E+00 0. -1.
         11   -1    0    0    0    0 -0.00000000000E+00 -0.00000000000E+00 -0.50000000000E+03  0.50000000000E+03  0.00000000000E+00 0. -1.
        -11    1    1    2    0    0 -0.29542444024E+00 -0.28413539523E+01  0.83866004424E+02  0.83914642739E+02  0.00000000000E+00 0. -1.
         11    1    1    2    0    0  0.77741417663E+01 -0.22330294554E+01 -0.49983077117E+03  0.49989621274E+03  0.00000000000E+00 0. -1.
        -15    1    1    2    0    0 -0.44596368745E+01  0.74305511325E+01  0.33250825825E+03  0.33262591749E+03  0.17770000000E+01 0. -1.
         15    1    1    2    0    0 -0.30190804516E+01 -0.23561677248E+01  0.83456508498E+02  0.83563227036E+02  0.17770000000E+01 0.  1.
</event>
<event>
 6    1  0.1823098E-004  0.5013907E+03  0.7546771E-02  0.9396703E-01
        -11   -1    0    0    0    0  0.00000000000E+00  0.00000000000E+00  0.50000000000E+03  0.50000000000E+03  0.00000000000E+00 0. -1.
         11   -1    0    0    0    0 -0.00000000000E+00 -0.00000000000E+00 -0.50000000000E+03  0.50000000000E+03  0.00000000000E+00 0.  1.
        -11    1    1    2    0    0  0.63312911753E+01  0.30124979204E+01  0.49856000382E+03  0.49860930376E+03  0.00000000000E+00 0. -1.
         11    1    1    2    0    0 -0.15213188032E+01 -0.89705802364E+01 -0.46234616490E+03  0.46243568409E+03  0.00000000000E+00 0.  1.
        -15    1    1    2    0    0  0.36059453229E+01  0.36863381866E+01 -0.14197197963E+02  0.15208881941E+02  0.17770000000E+01 0. -1.
         15    1    1    2    0    0 -0.84159176950E+01  0.22717441295E+01 -0.22016640953E+02  0.23746130209E+02  0.17770000000E+01 0.  1.
</event>
<event>
 6    1  0.1823098E-004  0.4983063E+03  0.7546771E-02  0.9403608E-01
        -11   -1    0    0    0    0  0.00000000000E+00  0.00000000000E+00  0.50000000000E+03  0.50000000000E+03  0.00000000000E+00 0. -1.
         11   -1    0    0    0    0 -0.00000000000E+00 -0.00000000000E+00 -0.50000000000E+03  0.50000000000E+03  0.00000000000E+00 0. -1.
        -11    1    1    2    0    0  0.71561862381E+01  0.22338681829E+00  0.49457009670E+03  0.49462191768E+03  0.00000000000E+00 0. -1.
         11    1    1    2    0    0 -0.64332621209E+01 -0.28149038288E+01  0.11743472464E+00  0.70231286472E+01  0.00000000000E+00 0. -1.
        -15    1    1    2    0    0  0.16846790180E+02  0.17994867339E+02 -0.40172466648E+03  0.40248415494E+03  0.17770000000E+01 0. -1.
         15    1    1    2    0    0 -0.17569714297E+02 -0.15403350328E+02 -0.92962864939E+02  0.95870798727E+02  0.17770000000E+01 0.  1.
</event>
<event>
 6    1  0.1823098E-004  0.5011491E+03  0.7546771E-02  0.9397242E-01
        -11   -1    0    0    0    0  0.00000000000E+00  0.00000000000E+00  0.50000000000E+03  0.50000000000E+03  0.00000000000E+00 0.  1.
         11   -1    0    0    0    0 -0.00000000000E+00 -0.00000000000E+00 -0.50000000000E+03  0.50000000000E+03  0.00000000000E+00 0.  1.
        -11    1    1    2    0    0  0.37921274586E+01 -0.26686022412E+01  0.33634007637E+03  0.33637203903E+03  0.00000000000E+00 0.  1.
         11    1    1    2    0    0 -0.20945582485E+02 -0.23637032364E+02 -0.49785018589E+03  0.49885091392E+03  0.00000000000E+00 0.  1.
        -15    1    1    2    0    0  0.25918217454E+01  0.86029729488E+01  0.60065572240E+02  0.60759850075E+02  0.17770000000E+01 0. -1.
         15    1    1    2    0    0  0.14561633281E+02  0.17702661656E+02  0.10144453728E+03  0.10401719697E+03  0.17770000000E+01 0.  1.
</event>
<event>
 6    1  0.1823098E-004  0.5007177E+03  0.7546771E-02  0.9398205E-01
        -11   -1    0    0    0    0  0.00000000000E+00  0.00000000000E+00  0.50000000000E+03  0.50000000000E+03  0.00000000000E+00 0.  1.
         11   -1    0    0    0    0 -0.00000000000E+00 -0.00000000000E+00 -0.50000000000E+03  0.50000000000E+03  0.00000000000E+00 0. -1.
        -11    1    1    2    0    0  0.24650226533E+01 -0.67960304904E+01  0.33038777345E+03  0.33046685645E+03  0.00000000000E+00 0.  1.
         11    1    1    2    0    0 -0.77721260112E+01 -0.15176145417E+02 -0.49899104919E+03  0.49928227337E+03  0.00000000000E+00 0. -1.
        -15    1    1    2    0    0  0.14512064937E+01  0.41695502993E+01  0.52336528952E+02  0.52552460853E+02  0.17770000000E+01 0.  1.
         15    1    1    2    0    0  0.38558968641E+01  0.17802625608E+02  0.11626674679E+03  0.11769840932E+03  0.17770000000E+01 0. -1.
</event>
<event>
 6    1  0.1823098E-004  0.5011623E+03  0.7546771E-02  0.9397213E-01
        -11   -1    0    0    0    0  0.00000000000E+00  0.00000000000E+00  0.50000000000E+03  0.50000000000E+03  0.00000000000E+00 0.  1.
         11   -1    0    0    0    0 -0.00000000000E+00 -0.00000000000E+00 -0.50000000000E+03  0.50000000000E+03  0.00000000000E+00 0.  1.
        -11    1    1    2    0    0  0.59694665938E+01 -0.35002367590E+01  0.49878965930E+03  0.49883765938E+03  0.00000000000E+00 0.  1.
         11    1    1    2    0    0 -0.21791895337E+02  0.38153705550E+01 -0.40342665419E+03  0.40403280692E+03  0.00000000000E+00 0.  1.
        -15    1    1    2    0    0  0.13879694534E+02 -0.26334570411E+01 -0.63654247748E+02  0.65227310245E+02  0.17770000000E+01 0.  1.
         15    1    1    2    0    0  0.19427342092E+01  0.23183232450E+01 -0.31708757361E+02  0.31902223454E+02  0.17770000000E+01 0. -1.
</event>
<event>
 6    1  0.1823098E-004  0.5044453E+03  0.7546771E-02  0.9389918E-01
        -11   -1    0    0    0    0  0.00000000000E+00  0.00000000000E+00  0.50000000000E+03  0.50000000000E+03  0.00000000000E+00 0. -1.
         11   -1    0    0    0    0 -0.00000000000E+00 -0.00000000000E+00 -0.50000000000E+03  0.50000000000E+03  0.00000000000E+00 0. -1.
        -11    1    1    2    0    0  0.64358540950E+01 -0.42330665517E+01  0.39571210625E+03  0.39578707673E+03  0.00000000000E+00 0. -1.
         11    1    1    2    0    0  0.14029145390E+02 -0.14902626075E+02 -0.49513186906E+03  0.49555471236E+03  0.00000000000E+00 0. -1.
        -15    1    1    2    0    0 -0.23981960447E+02  0.73211069277E+01  0.88804667238E+02  0.92293876751E+02  0.17770000000E+01 0.  1.
         15    1    1    2    0    0  0.35169609628E+01  0.11814585699E+02  0.10615095571E+02  0.16364334164E+02  0.17770000000E+01 0. -1.
</event>
<event>
 6    1  0.1823098E-004  0.5092982E+03  0.7546771E-02  0.9379241E-01
        -11   -1    0    0    0    0  0.00000000000E+00  0.00000000000E+00  0.50000000000E+03  0.50000000000E+03  0.00000000000E+00 0.  1.
         11   -1    0    0    0    0 -0.00000000000E+00 -0.00000000000E+00 -0.50000000000E+03  0.50000000000E+03  0.00000000000E+00 0. -1.
        -11    1    1    2    0    0  0.13008177691E+02  0.11283894678E+02  0.44448634606E+03  0.44481979588E+03  0.00000000000E+00 0.  1.
         11    1    1    2    0    0  0.77905428609E+01  0.15324008586E+01 -0.49063752971E+03  0.49070176928E+03  0.00000000000E+00 0. -1.
        -15    1    1    2    0    0 -0.13881198338E+02 -0.13864855769E+02  0.20678383819E+01  0.19807967523E+02  0.17770000000E+01 0. -1.
         15    1    1    2    0    0 -0.69175222136E+01  0.10485602330E+01  0.44083345266E+02  0.44670467324E+02  0.17770000000E+01 0.  1.
</event>
<event>
 6    1  0.1823098E-004  0.5004747E+03  0.7546771E-02  0.9398748E-01
        -11   -1    0    0    0    0  0.00000000000E+00  0.00000000000E+00  0.50000000000E+03  0.50000000000E+03  0.00000000000E+00 0. -1.
         11   -1    0    0    0    0 -0.00000000000E+00 -0.00000000000E+00 -0.50000000000E+03  0.50000000000E+03  0.00000000000E+00 0. -1.
        -11    1    1    2    0    0 -0.36995065918E+00  0.82924195607E+01  0.26024517776E+03  0.26037752137E+03  0.00000000000E+00 0. -1.
         11    1    1    2    0    0  0.16034976332E+02 -0.90937366046E+01 -0.49918508110E+03  0.49952533640E+03  0.00000000000E+00 0. -1.
        -15    1    1    2    0    0  0.22178881088E+01 -0.19602619932E+01  0.87750513199E+02  0.87818403256E+02  0.17770000000E+01 0.  1.
         15    1    1    2    0    0 -0.17882913781E+02  0.27615790371E+01  0.15118939014E+03  0.15227873898E+03  0.17770000000E+01 0. -1.
</event>
<event>
 6    1  0.1823098E-004  0.5054533E+03  0.7546771E-02  0.9387690E-01
        -11   -1    0    0    0    0  0.00000000000E+00  0.00000000000E+00  0.50000000000E+03  0.50000000000E+03  0.00000000000E+00 0. -1.
         11   -1    0    0    0    0 -0.00000000000E+00 -0.00000000000E+00 -0.50000000000E+03  0.50000000000E+03  0.00000000000E+00 0.  1.
        -11    1    1    2    0    0  0.32571402388E+01  0.82791224971E+01  0.49446671740E+03  0.49454674951E+03  0.00000000000E+00 0. -1.
         11    1    1    2    0    0  0.15721589031E+02 -0.60116767119E+00 -0.47651845492E+03  0.47677811154E+03  0.00000000000E+00 0.  1.
        -15    1    1    2    0    0 -0.15911587236E+02 -0.31238395810E+01 -0.11156662977E+02  0.19762738674E+02  0.17770000000E+01 0. -1.
         15    1    1    2    0    0 -0.30671420339E+01 -0.45541152449E+01 -0.67915995046E+01  0.89124002800E+01  0.17770000000E+01 0.  1.
</event>
<event>
 6    1  0.1823098E-004  0.5001476E+03  0.7546771E-02  0.9399480E-01
        -11   -1    0    0    0    0  0.00000000000E+00  0.00000000000E+00  0.50000000000E+03  0.50000000000E+03  0.00000000000E+00 0.  1.
         11   -1    0    0    0    0 -0.00000000000E+00 -0.00000000000E+00 -0.50000000000E+03  0.50000000000E+03  0.00000000000E+00 0. -1.
        -11    1    1    2    0    0 -0.31553305995E+01 -0.99849964359E+01  0.49974273584E+03  0.49985243651E+03  0.00000000000E+00 0.  1.
         11    1    1    2    0    0  0.32644324259E+00 -0.32573654628E+01 -0.10356170189E+03  0.10361343104E+03  0.00000000000E+00 0. -1.
        -15    1    1    2    0    0  0.37052057574E+01  0.67746384448E+01 -0.11543438442E+03  0.11570600291E+03  0.17770000000E+01 0. -1.
         15    1    1    2    0    0 -0.87631840046E+00  0.64677234539E+01 -0.28074664954E+03  0.28082812953E+03  0.17770000000E+01 0.  1.
</event>
<event>
 6    1  0.1823098E-004  0.5012383E+03  0.7546771E-02  0.9397043E-01
        -11   -1    0    0    0    0  0.00000000000E+00  0.00000000000E+00  0.50000000000E+03  0.50000000000E+03  0.00000000000E+00 0. -1.
         11   -1    0    0    0    0 -0.00000000000E+00 -0.00000000000E+00 -0.50000000000E+03  0.50000000000E+03  0.00000000000E+00 0.  1.
        -11    1    1    2    0    0  0.52969103412E+01 -0.14029074442E+02  0.49853625099E+03  0.49876173244E+03  0.00000000000E+00 0. -1.
         11    1    1    2    0    0 -0.11820448053E+02 -0.30663111657E+01 -0.35488432626E+03  0.35509436813E+03  0.00000000000E+00 0.  1.
        -15    1    1    2    0    0  0.12607103055E+02  0.63353376519E+01 -0.68376281198E+02  0.69839452389E+02  0.17770000000E+01 0.  1.
         15    1    1    2    0    0 -0.60835653438E+01  0.10760047956E+02 -0.75275643536E+02  0.76304447040E+02  0.17770000000E+01 0. -1.
</event>
<event>
 6    1  0.1823098E-004  0.5011322E+03  0.7546771E-02  0.9397280E-01
        -11   -1    0    0    0    0  0.00000000000E+00  0.00000000000E+00  0.50000000000E+03  0.50000000000E+03  0.00000000000E+00 0. -1.
         11   -1    0    0    0    0 -0.00000000000E+00 -0.00000000000E+00 -0.50000000000E+03  0.50000000000E+03  0.00000000000E+00 0.  1.
        -11    1    1    2    0    0  0.18642777735E+01 -0.61573374929E+01  0.37469768680E+03  0.37475291171E+03  0.00000000000E+00 0. -1.
         11    1    1    2    0    0  0.83391569921E+01  0.77453062521E+01 -0.49873792739E+03  0.49886776958E+03  0.00000000000E+00 0.  1.
        -15    1    1    2    0    0 -0.49592165049E+01 -0.45303947161E+01  0.11588045527E+03  0.11608856941E+03  0.17770000000E+01 0.  1.
         15    1    1    2    0    0 -0.52442182607E+01  0.29424259568E+01  0.81597853191E+01  0.10290749299E+02  0.17770000000E+01 0. -1.
</event>
<event>
 6    1  0.1823098E-004  0.5012217E+03  0.7546771E-02  0.9397080E-01
        -11   -1    0    0    0    0  0.00000000000E+00  0.00000000000E+00  0.50000000000E+03  0.50000000000E+03  0.00000000000E+00 0. -1.
         11   -1    0    0    0    0 -0.00000000000E+00 -0.00000000000E+00 -0.50000000000E+03  0.50000000000E+03  0.00000000000E+00 0.  1.
        -11    1    1    2    0    0  0.45792413936E+01  0.72891616957E+01  0.38412957884E+03  0.38422602030E+03  0.00000000000E+00 0. -1.
         11    1    1    2    0    0  0.31200906334E+01  0.12921635132E+02 -0.49860116911E+03  0.49877833700E+03  0.00000000000E+00 0.  1.
        -15    1    1    2    0    0 -0.56832514029E+01 -0.77976990903E+01  0.29717679604E+02  0.31295393713E+02  0.17770000000E+01 0. -1.
         15    1    1    2    0    0 -0.20160806241E+01 -0.12413097737E+02  0.84753910660E+02  0.85700248994E+02  0.17770000000E+01 0.  1.
</event>
<event>
 6    1  0.1823098E-004  0.5002245E+03  0.7546771E-02  0.9399307E-01
        -11   -1    0    0    0    0  0.00000000000E+00  0.00000000000E+00  0.50000000000E+03  0.50000000000E+03  0.00000000000E+00 0. -1.
         11   -1    0    0    0    0 -0.00000000000E+00 -0.00000000000E+00 -0.50000000000E+03  0.50000000000E+03  0.00000000000E+00 0.  1.
        -11    1    1    2    0    0  0.45086738914E+01 -0.13251170215E+01  0.32367938332E+03  0.32371349565E+03  0.00000000000E+00 0. -1.
         11    1    1    2    0    0  0.52746000676E+00 -0.85966221571E+01 -0.49970124054E+03  0.49977545950E+03  0.00000000000E+00 0.  1.
        -15    1    1    2    0    0 -0.76452816339E+00  0.77964165727E+01  0.10469722978E+03  0.10500493449E+03  0.17770000000E+01 0. -1.
         15    1    1    2    0    0 -0.42716057348E+01  0.21253226059E+01  0.71324627435E+02  0.71506110365E+02  0.17770000000E+01 0.  1.
</event>
<event>
 6    1  0.1823098E-004  0.5034925E+03  0.7546771E-02  0.9392029E-01
        -11   -1    0    0    0    0  0.00000000000E+00  0.00000000000E+00  0.50000000000E+03  0.50000000000E+03  0.00000000000E+00 0.  1.
         11   -1    0    0    0    0 -0.00000000000E+00 -0.00000000000E+00 -0.50000000000E+03  0.50000000000E+03  0.00000000000E+00 0. -1.
        -11    1    1    2    0    0  0.37101394201E+01 -0.67131439639E+01  0.49644822160E+03  0.49650747040E+03  0.00000000000E+00 0.  1.
         11    1    1    2    0    0  0.16106484668E+02  0.16451013491E+02 -0.38067792518E+03  0.38137348809E+03  0.00000000000E+00 0. -1.
        -15    1    1    2    0    0 -0.18268146973E+02 -0.13802326275E+02 -0.11510523009E+03  0.11737376678E+03  0.17770000000E+01 0. -1.
         15    1    1    2    0    0 -0.15484771153E+01  0.40644567475E+01 -0.66506632083E+00  0.47452747275E+01  0.17770000000E+01 0.  1.
</event>
<event>
 6    1  0.1823098E-004  0.5005775E+03  0.7546771E-02  0.9398518E-01
        -11   -1    0    0    0    0  0.00000000000E+00  0.00000000000E+00  0.50000000000E+03  0.50000000000E+03  0.00000000000E+00 0.  1.
         11   -1    0    0    0    0 -0.00000000000E+00 -0.00000000000E+00 -0.50000000000E+03  0.50000000000E+03  0.00000000000E+00 0.  1.
        -11    1    1    2    0    0 -0.87335708462E+01 -0.40699591815E+01  0.29879035776E+03  0.29894567686E+03  0.00000000000E+00 0.  1.
         11    1    1    2    0    0 -0.43873538995E+01  0.18815718798E+02 -0.49904864454E+03  0.49942249626E+03  0.00000000000E+00 0.  1.
        -15    1    1    2    0    0 -0.11631395823E+01  0.81966166907E+00  0.17225696044E+02  0.17375473292E+02  0.17770000000E+01 0.  1.
         15    1    1    2    0    0  0.14284064328E+02 -0.15565421286E+02  0.18303259074E+03  0.18425635359E+03  0.17770000000E+01 0.  1.
</event>
<event>
 6    1  0.1823098E-004  0.5016481E+03  0.7546771E-02  0.9396130E-01
        -11   -1    0    0    0    0  0.00000000000E+00  0.00000000000E+00  0.50000000000E+03  0.50000000000E+03  0.00000000000E+00 0.  1.
         11   -1    0    0    0    0 -0.00000000000E+00 -0.00000000000E+00 -0.50000000000E+03  0.50000000000E+03  0.00000000000E+00 0.  1.
        -11    1    1    2    0    0 -0.12767263827E+02 -0.17032752372E+02  0.49789711349E+03  0.49835193719E+03  0.00000000000E+00 0.  1.
         11    1    1    2    0    0 -0.21673256255E+02  0.82569732531E+00 -0.15385513173E+03  0.15537636040E+03  0.00000000000E+00 0.  1.
        -15    1    1    2    0    0  0.29910606235E+02  0.13808156352E+02 -0.26538907959E+03  0.26743191814E+03  0.17770000000E+01 0.  1.
         15    1    1    2    0    0  0.45299138471E+01  0.23988986952E+01 -0.78652902174E+02  0.78839784270E+02  0.17770000000E+01 0. -1.
</event>
<event>
 6    1  0.1823098E-004  0.4910204E+03  0.7546771E-02  0.9420130E-01
        -11   -1    0    0    0    0  0.00000000000E+00  0.00000000000E+00  0.50000000000E+03  0.50000000000E+03  0.00000000000E+00 0. -1.
         11   -1    0    0    0    0 -0.00000000000E+00 -0.00000000000E+00 -0.50000000000E+03  0.50000000000E+03  0.00000000000E+00 0. -1.
        -11    1    1    2    0    0  0.81028253252E+01  0.59857999236E+01  0.49135147146E+03  0.49145473249E+03  0.00000000000E+00 0. -1.
         11    1    1    2    0    0 -0.18562601731E+02 -0.73080346426E+01 -0.49023751964E+03  0.49064325453E+03  0.00000000000E+00 0. -1.
        -15    1    1    2    0    0  0.61222015307E+01 -0.15847121616E+01  0.60024875510E+01  0.88983284957E+01  0.17770000000E+01 0.  1.
         15    1    1    2    0    0  0.43375748752E+01  0.29069468806E+01 -0.71164393695E+01  0.90036844827E+01  0.17770000000E+01 0. -1.
</event>
<event>
 6    1  0.1823098E-004  0.5010466E+03  0.7546771E-02  0.9397471E-01
        -11   -1    0    0    0    0  0.00000000000E+00  0.00000000000E+00  0.50000000000E+03  0.50000000000E+03  0.00000000000E+00 0.  1.
         11   -1    0    0    0    0 -0.00000000000E+00 -0.00000000000E+00 -0.50000000000E+03  0.50000000000E+03  0.00000000000E+00 0. -1.
        -11    1    1    2    0    0 -0.11363589243E+01 -0.68267187552E+01  0.49890544250E+03  0.49895344067E+03  0.00000000000E+00 0.  1.
         11    1    1    2    0    0  0.24476053431E+01  0.83049383278E+01 -0.47068217749E+03  0.47076180281E+03  0.00000000000E+00 0. -1.
        -15    1    1    2    0    0 -0.38520775922E+01 -0.43759838286E+01 -0.21385742320E+02  0.22237253424E+02  0.17770000000E+01 0. -1.
         15    1    1    2    0    0  0.25408311734E+01  0.28977642560E+01 -0.68375226855E+01  0.80475031041E+01  0.17770000000E+01 0.  1.
</event>
<event>
 6    1  0.1823098E-004  0.5001690E+03  0.7546771E-02  0.9399432E-01
        -11   -1    0    0    0    0  0.00000000000E+00  0.00000000000E+00  0.50000000000E+03  0.50000000000E+03  0.00000000000E+00 0.  1.
         11   -1    0    0    0    0 -0.00000000000E+00 -0.00000000000E+00 -0.50000000000E+03  0.50000000000E+03  0.00000000000E+00 0. -1.
        -11    1    1    2    0    0 -0.15638403507E+02  0.12394512506E+02  0.34909606082E+03  0.34966590237E+03  0.00000000000E+00 0.  1.
         11    1    1    2    0    0  0.19340095516E+02 -0.93199895955E+01 -0.49936970580E+03  0.49983097600E+03  0.00000000000E+00 0. -1.
        -15    1    1    2    0    0 -0.30686167648E+01  0.32885860110E-01  0.11227587230E+03  0.11233185977E+03  0.17770000000E+01 0. -1.
         15    1    1    2    0    0 -0.63307524384E+00 -0.31074087704E+01  0.37997772683E+02  0.38171261853E+02  0.17770000000E+01 0.  1.
</event>
<event>
 6    1  0.1823098E-004  0.5025080E+03  0.7546771E-02  0.9394215E-01
        -11   -1    0    0    0    0  0.00000000000E+00  0.00000000000E+00  0.50000000000E+03  0.50000000000E+03  0.00000000000E+00 0.  1.
         11   -1    0    0    0    0 -0.00000000000E+00 -0.00000000000E+00 -0.50000000000E+03  0.50000000000E+03  0.00000000000E+00 0. -1.
        -11    1    1    2    0    0 -0.48812444304E+00 -0.69652633367E+01  0.39638638892E+03  0.39644788117E+03  0.00000000000E+00 0.  1.
         11    1    1    2    0    0  0.68638705933E+00 -0.17160211333E+02 -0.49719551152E+03  0.49749203074E+03  0.00000000000E+00 0. -1.
        -15    1    1    2    0    0 -0.25317705455E+01  0.17246136303E+02  0.29141221267E+02  0.34003052589E+02  0.17770000000E+01 0.  1.
         15    1    1    2    0    0  0.23335079292E+01  0.68793383663E+01  0.71667901325E+02  0.72057035500E+02  0.17770000000E+01 0.  1.
</event>
<event>
 6    1  0.1823098E-004  0.5007583E+03  0.7546771E-02  0.9398114E-01
        -11   -1    0    0    0    0  0.00000000000E+00  0.00000000000E+00  0.50000000000E+03  0.50000000000E+03  0.00000000000E+00 0.  1.
         11   -1    0    0    0    0 -0.00000000000E+00 -0.00000000000E+00 -0.50000000000E+03  0.50000000000E+03  0.00000000000E+00 0.  1.
        -11    1    1    2    0    0 -0.59271633994E+01  0.13550428633E+01  0.40932331776E+03  0.40936847200E+03  0.00000000000E+00 0.  1.
         11    1    1    2    0    0 -0.42448297779E+01  0.10030935088E+02 -0.49912282004E+03  0.49924165263E+03  0.00000000000E+00 0.  1.
        -15    1    1    2    0    0  0.81486016696E+01 -0.81371952630E+01  0.77850222100E+02  0.78717396209E+02  0.17770000000E+01 0. -1.
         15    1    1    2    0    0  0.20233915077E+01 -0.32487826883E+01  0.11949280181E+02  0.12672479157E+02  0.17770000000E+01 0.  1.
</event>
<event>
 6    1  0.1823098E-004  0.5048881E+03  0.7546771E-02  0.9388938E-01
        -11   -1    0    0    0    0  0.00000000000E+00  0.00000000000E+00  0.50000000000E+03  0.50000000000E+03  0.00000000000E+00 0. -1.
         11   -1    0    0    0    0 -0.00000000000E+00 -0.00000000000E+00 -0.50000000000E+03  0.50000000000E+03  0.00000000000E+00 0. -1.
        -11    1    1    2    0    0  0.10120612497E+02 -0.51236642353E+01  0.49498197003E+03  0.49511193622E+03  0.00000000000E+00 0. -1.
         11    1    1    2    0    0  0.42229833585E+01  0.16485241851E+02 -0.47904032045E+03  0.47934249280E+03  0.00000000000E+00 0. -1.
        -15    1    1    2    0    0 -0.39738367709E+01 -0.36488741715E+01 -0.10997428174E+01  0.57855703838E+01  0.17770000000E+01 0. -1.
         15    1    1    2    0    0 -0.10369759084E+02 -0.77127034443E+01 -0.14841906763E+02  0.19760000589E+02  0.17770000000E+01 0.  1.
</event>
<event>
 6    1  0.1823098E-004  0.5029582E+03  0.7546771E-02  0.9393215E-01
        -11   -1    0    0    0    0  0.00000000000E+00  0.00000000000E+00  0.50000000000E+03  0.50000000000E+03  0.00000000000E+00 0. -1.
         11   -1    0    0    0    0 -0.00000000000E+00 -0.00000000000E+00 -0.50000000000E+03  0.50000000000E+03  0.00000000000E+00 0. -1.
        -11    1    1    2    0    0 -0.13652785551E+01  0.86108475530E+01  0.49696530785E+03  0.49704177680E+03  0.00000000000E+00 0. -1.
         11    1    1    2    0    0 -0.78770022736E+01  0.25480923645E+01 -0.46145949224E+03  0.46153375057E+03  0.00000000000E+00 0. -1.
        -15    1    1    2    0    0  0.20553245652E+00 -0.15248067775E+01  0.10055076510E+01  0.25565707374E+01  0.17770000000E+01 0. -1.
         15    1    1    2    0    0  0.90367483722E+01 -0.96341331400E+01 -0.36511323259E+02  0.38867901894E+02  0.17770000000E+01 0.  1.
</event>
<event>
 6    1  0.1823098E-004  0.5000872E+03  0.7546771E-02  0.9399615E-01
        -11   -1    0    0    0    0  0.00000000000E+00  0.00000000000E+00  0.50000000000E+03  0.50000000000E+03  0.00000000000E+00 0. -1.
         11   -1    0    0    0    0 -0.00000000000E+00 -0.00000000000E+00 -0.50000000000E+03  0.50000000000E+03  0.00000000000E+00 0. -1.
        -11    1    1    2    0    0 -0.61827740670E+01 -0.45539052696E+01  0.49985386488E+03  0.49991284339E+03  0.00000000000E+00 0. -1.
         11    1    1    2    0    0 -0.11751195751E+01  0.41079539171E+01 -0.15880739824E+03  0.15886486687E+03  0.00000000000E+00 0. -1.
        -15    1    1    2    0    0  0.41567345929E-01  0.21157090916E+01 -0.52390788475E+02  0.52463610234E+02  0.17770000000E+01 0. -1.
         15    1    1    2    0    0  0.73163262962E+01 -0.16697577391E+01 -0.28865567817E+03  0.28875867951E+03  0.17770000000E+01 0.  1.
</event>
<event>
 6    1  0.1823098E-004  0.5011589E+03  0.7546771E-02  0.9397220E-01
        -11   -1    0    0    0    0  0.00000000000E+00  0.00000000000E+00  0.50000000000E+03  0.50000000000E+03  0.00000000000E+00 0. -1.
         11   -1    0    0    0    0 -0.00000000000E+00 -0.00000000000E+00 -0.50000000000E+03  0.50000000000E+03  0.00000000000E+00 0. -1.
        -11    1    1    2    0    0 -0.70671106967E+01  0.45604811223E+01  0.47954492533E+03  0.47961867921E+03  0.00000000000E+00 0. -1.
         11    1    1    2    0    0 -0.72890120283E+00 -0.80082759513E+01 -0.49877624284E+03  0.49884106106E+03  0.00000000000E+00 0. -1.
        -15    1    1    2    0    0  0.26569593273E+01  0.18071191351E+01  0.10505906218E+02  0.11129101801E+02  0.17770000000E+01 0. -1.
         15    1    1    2    0    0  0.51390525723E+01  0.16406756939E+01  0.87254112969E+01  0.10411157927E+02  0.17770000000E+01 0.  1.
</event>
<event>
 6    1  0.1823098E-004  0.5006295E+03  0.7546771E-02  0.9398402E-01
        -11   -1    0    0    0    0  0.00000000000E+00  0.00000000000E+00  0.50000000000E+03  0.50000000000E+03  0.00000000000E+00 0.  1.
         11   -1    0    0    0    0 -0.00000000000E+00 -0.00000000000E+00 -0.50000000000E+03  0.50000000000E+03  0.00000000000E+00 0. -1.
        -11    1    1    2    0    0  0.89220242139E+01 -0.12652521116E+00  0.49929079735E+03  0.49937052260E+03  0.00000000000E+00 0.  1.
         11    1    1    2    0    0 -0.64414670288E+01 -0.37432613360E+01 -0.45377298374E+03  0.45383413851E+03  0.00000000000E+00 0. -1.
        -15    1    1    2    0    0 -0.56972536200E+01  0.20040806046E+01 -0.20649823463E+02  0.21588144337E+02  0.17770000000E+01 0.  1.
         15    1    1    2    0    0  0.32166964349E+01  0.18657059425E+01 -0.24867990145E+02  0.25207194558E+02  0.17770000000E+01 0. -1.
</event>
<event>
 6    1  0.1823098E-004  0.5014536E+03  0.7546771E-02  0.9396563E-01
        -11   -1    0    0    0    0  0.00000000000E+00  0.00000000000E+00  0.50000000000E+03  0.50000000000E+03  0.00000000000E+00 0.  1.
         11   -1    0    0    0    0 -0.00000000000E+00 -0.00000000000E+00 -0.50000000000E+03  0.50000000000E+03  0.00000000000E+00 0. -1.
        -11    1    1    2    0    0  0.10285755663E+01  0.11250114026E+02  0.49841840358E+03  0.49854641515E+03  0.00000000000E+00 0.  1.
         11    1    1    2    0    0  0.14121243546E+02 -0.16164264325E+02 -0.33602093716E+03  0.33670575161E+03  0.00000000000E+00 0. -1.
        -15    1    1    2    0    0 -0.44244632688E+01 -0.80415180916E+01 -0.85663589115E+02  0.86172211979E+02  0.17770000000E+01 0. -1.
         15    1    1    2    0    0 -0.10725355843E+02  0.12955668390E+02 -0.76733877303E+02  0.78575621260E+02  0.17770000000E+01 0.  1.
</event>
<event>
 6    1  0.1823098E-004  0.5094866E+03  0.7546771E-02  0.9378829E-01
        -11   -1    0    0    0    0  0.00000000000E+00  0.00000000000E+00  0.50000000000E+03  0.50000000000E+03  0.00000000000E+00 0.  1.
         11   -1    0    0    0    0 -0.00000000000E+00 -0.00000000000E+00 -0.50000000000E+03  0.50000000000E+03  0.00000000000E+00 0.  1.
        -11    1    1    2    0    0  0.13355344652E+02  0.38122728631E+01  0.49031674427E+03  0.49051341304E+03  0.00000000000E+00 0.  1.
         11    1    1    2    0    0  0.19979278578E+02  0.11779500531E+02 -0.36175401290E+03  0.36249675041E+03  0.00000000000E+00 0.  1.
        -15    1    1    2    0    0 -0.11715091278E+02 -0.29356355213E+00  0.34422599454E+01  0.12342464330E+02  0.17770000000E+01 0.  1.
         15    1    1    2    0    0 -0.21619531952E+02 -0.15298209842E+02 -0.13200499131E+03  0.13464737222E+03  0.17770000000E+01 0.  1.
</event>
<event>
 6    1  0.1823098E-004  0.5081485E+03  0.7546771E-02  0.9381759E-01
        -11   -1    0    0    0    0  0.00000000000E+00  0.00000000000E+00  0.50000000000E+03  0.50000000000E+03  0.00000000000E+00 0. -1.
         11   -1    0    0    0    0 -0.00000000000E+00 -0.00000000000E+00 -0.50000000000E+03  0.50000000000E+03  0.00000000000E+00 0.  1.
        -11    1    1    2    0    0  0.85089579709E+01  0.46677251607E+01  0.49175577797E+03  0.49185153775E+03  0.00000000000E+00 0. -1.
         11    1    1    2    0    0 -0.67566292071E+01  0.52976377977E+01 -0.46492077138E+03  0.46500004372E+03  0.00000000000E+00 0.  1.
        -15    1    1    2    0    0 -0.11823732694E+02  0.35515058053E+01 -0.22383060056E+02  0.25623679571E+02  0.17770000000E+01 0. -1.
         15    1    1    2    0    0  0.10071403930E+02 -0.13516868764E+02 -0.44519465354E+01  0.17524738949E+02  0.17770000000E+01 0.  1.
</event>
<event>
 6    1  0.1823098E-004  0.4913140E+03  0.7546771E-02  0.9419458E-01
        -11   -1    0    0    0    0  0.00000000000E+00  0.00000000000E+00  0.50000000000E+03  0.50000000000E+03  0.00000000000E+00 0.  1.
         11   -1    0    0    0    0 -0.00000000000E+00 -0.00000000000E+00 -0.50000000000E+03  0.50000000000E+03  0.00000000000E+00 0. -1.
        -11    1    1    2    0    0  0.64092901925E+01 -0.24649595352E+01  0.49116633699E+03  0.49121433776E+03  0.00000000000E+00 0.  1.
         11    1    1    2    0    0  0.44398169217E+01 -0.93363537454E+01 -0.49143572124E+03  0.49154445129E+03  0.00000000000E+00 0. -1.
        -15    1    1    2    0    0 -0.78993987861E+01  0.68228468848E+01  0.23396391177E+01  0.10843587091E+02  0.17770000000E+01 0. -1.
         15    1    1    2    0    0 -0.29497083281E+01  0.49784663958E+01 -0.20702548652E+01  0.63976238622E+01  0.17770000000E+01 0.  1.
</event>
<event>
 6    1  0.1823098E-004  0.5000912E+03  0.7546771E-02  0.9399606E-01
        -11   -1    0    0    0    0  0.00000000000E+00  0.00000000000E+00  0.50000000000E+03  0.50000000000E+03  0.00000000000E+00 0.  1.
         11   -1    0    0    0    0 -0.00000000000E+00 -0.00000000000E+00 -0.50000000000E+03  0.50000000000E+03  0.00000000000E+00 0. -1.
        -11    1    1    2    0    0  0.19028567628E+01  0.23746036051E+01  0.15156627177E+03  0.15159681509E+03  0.00000000000E+00 0.  1.
         11    1    1    2    0    0 -0.86883026450E+01 -0.56746215092E+01 -0.49980105763E+03  0.49990877681E+03  0.00000000000E+00 0. -1.
        -15    1    1    2    0    0  0.72217006142E+01  0.62873040598E+01  0.22657228690E+03  0.22678148529E+03  0.17770000000E+01 0.  1.
         15    1    1    2    0    0 -0.43625473208E+00 -0.29872861557E+01  0.12166249896E+03  0.12171292281E+03  0.17770000000E+01 0. -1.
</event>
<event>
 6    1  0.1823098E-004  0.5002483E+03  0.7546771E-02  0.9399254E-01
        -11   -1    0    0    0    0  0.00000000000E+00  0.00000000000E+00  0.50000000000E+03  0.50000000000E+03  0.00000000000E+00 0.  1.
         11   -1    0    0    0    0 -0.00000000000E+00 -0.00000000000E+00 -0.50000000000E+03  0.50000000000E+03  0.00000000000E+00 0. -1.
        -11    1    1    2    0    0  0.24467454667E+01  0.39178847796E+01  0.32108028743E+03  0.32111351164E+03  0.00000000000E+00 0.  1.
         11    1    1    2    0    0 -0.12065671833E+02 -0.56336180919E+01 -0.49957425662E+03  0.49975169431E+03  0.00000000000E+00 0. -1.
        -15    1    1    2    0    0  0.32893143837E+01 -0.33540044373E+01  0.11373344725E+03  0.11384429581E+03  0.17770000000E+01 0.  1.
         15    1    1    2    0    0  0.63296119826E+01  0.50697377496E+01  0.64760521941E+02  0.65290498235E+02  0.17770000000E+01 0. -1.
</event>
<event>
 6    1  0.1823098E-004  0.5000530E+03  0.7546771E-02  0.9399691E-01
        -11   -1    0    0    0    0  0.00000000000E+00  0.00000000000E+00  0.50000000000E+03  0.50000000000E+03  0.00000000000E+00 0.  1.
         11   -1    0    0    0    0 -0.00000000000E+00 -0.00000000000E+00 -0.50000000000E+03  0.50000000000E+03  0.00000000000E+00 0. -1.
        -11    1    1    2    0    0  0.60985026416E+01 -0.34552001100E+01  0.31790473153E+03  0.31798199394E+03  0.00000000000E+00 0.  1.
         11    1    1    2    0    0 -0.47180264999E+01  0.52349733777E+01 -0.49989737050E+03  0.49994704294E+03  0.00000000000E+00 0. -1.
        -15    1    1    2    0    0 -0.83883642053E+00 -0.19872687126E+01  0.14843128325E+03  0.14845759145E+03  0.17770000000E+01 0.  1.
         15    1    1    2    0    0 -0.54163972123E+00  0.20749544487E+00  0.33561355716E+02  0.33613371661E+02  0.17770000000E+01 0.  1.
</event>
<event>
 6    1  0.1823098E-004  0.5015563E+03  0.7546771E-02  0.9396334E-01
        -11   -1    0    0    0    0  0.00000000000E+00  0.00000000000E+00  0.50000000000E+03  0.50000000000E+03  0.00000000000E+00 0. -1.
         11   -1    0    0    0    0 -0.00000000000E+00 -0.00000000000E+00 -0.50000000000E+03  0.50000000000E+03  0.00000000000E+00 0.  1.
        -11    1    1    2    0    0  0.52032500980E+01  0.91443804257E+01  0.44916875661E+03  0.44929196011E+03  0.00000000000E+00 0. -1.
         11    1    1    2    0    0 -0.20122728657E+02 -0.17992742081E+01 -0.49803414002E+03  0.49844374429E+03  0.00000000000E+00 0.  1.
        -15    1    1    2    0    0  0.62439361053E+01  0.36822686455E+00  0.13189858197E+02  0.14705523363E+02  0.17770000000E+01 0. -1.
         15    1    1    2    0    0  0.86755424538E+01 -0.77133330821E+01  0.35675525213E+02  0.37558772242E+02  0.17770000000E+01 0.  1.
</event>
<event>
 6    1  0.1823098E-004  0.5027280E+03  0.7546771E-02  0.9393726E-01
        -11   -1    0    0    0    0  0.00000000000E+00  0.00000000000E+00  0.50000000000E+03  0.50000000000E+03  0.00000000000E+00 0. -1.
         11   -1    0    0    0    0 -0.00000000000E+00 -0.00000000000E+00 -0.50000000000E+03  0.50000000000E+03  0.00000000000E+00 0. -1.
        -11    1    1    2    0    0 -0.22607143050E+01 -0.63547559601E+01  0.49722624843E+03  0.49727199387E+03  0.00000000000E+00 0. -1.
         11    1    1    2    0    0 -0.93183653244E+01  0.11489805040E+01 -0.47616200372E+03  0.47625455995E+03  0.00000000000E+00 0. -1.
        -15    1    1    2    0    0  0.73818282581E+01  0.72233318163E+01 -0.17302620612E+02  0.20228848707E+02  0.17770000000E+01 0.  1.
         15    1    1    2    0    0  0.41972513713E+01 -0.20175563602E+01 -0.37616241047E+01  0.62445974767E+01  0.17770000000E+01 0. -1.
</event>
<event>
 6    1  0.1823098E-004  0.5019723E+03  0.7546771E-02  0.9395407E-01
        -11   -1    0    0    0    0  0.00000000000E+00  0.00000000000E+00  0.50000000000E+03  0.50000000000E+03  0.00000000000E+00 0.  1.
         11   -1    0    0    0    0 -0.00000000000E+00 -0.00000000000E+00 -0.50000000000E+03  0.50000000000E+03  0.00000000000E+00 0.  1.
        -11    1    1    2    0    0 -0.18530044233E+01  0.75675147180E+01  0.49796676381E+03  0.49802770883E+03  0.00000000000E+00 0.  1.
         11    1    1    2    0    0  0.29416485554E+01 -0.89457868158E+01 -0.47760631374E+03  0.47769914311E+03  0.00000000000E+00 0.  1.
        -15    1    1    2    0    0  0.19022783302E+01 -0.50855945956E+01 -0.10817886937E+02  0.12233819601E+02  0.17770000000E+01 0. -1.
         15    1    1    2    0    0 -0.29909224622E+01  0.64638666934E+01 -0.95425631262E+01  0.12039328462E+02  0.17770000000E+01 0.  1.
</event>
<event>
 6    1  0.1823098E-004  0.4787526E+03  0.7546771E-02  0.9448649E-01
        -11   -1    0    0    0    0  0.00000000000E+00  0.00000000000E+00  0.50000000000E+03  0.50000000000E+03  0.00000000000E+00 0. -1.
         11   -1    0    0    0    0 -0.00000000000E+00 -0.00000000000E+00 -0.50000000000E+03  0.50000000000E+03  0.00000000000E+00 0. -1.
        -11    1    1    2    0    0 -0.88806090237E+01  0.34103349281E+01  0.47060278981E+03  0.47069892859E+03  0.00000000000E+00 0. -1.
         11    1    1    2    0    0 -0.26545161863E+02 -0.87909988191E+01 -0.48681117713E+03  0.48761362723E+03  0.00000000000E+00 0. -1.
        -15    1    1    2    0    0  0.30602545550E+02  0.91874323391E+01  0.13857327053E+02  0.34872739342E+02  0.17770000000E+01 0. -1.
         15    1    1    2    0    0  0.48232253366E+01 -0.38067684481E+01  0.23510602729E+01  0.68147048412E+01  0.17770000000E+01 0.  1.
</event>
<event>
 6    1  0.1823098E-004  0.4832296E+03  0.7546771E-02  0.9438137E-01
        -11   -1    0    0    0    0  0.00000000000E+00  0.00000000000E+00  0.50000000000E+03  0.50000000000E+03  0.00000000000E+00 0. -1.
         11   -1    0    0    0    0 -0.00000000000E+00 -0.00000000000E+00 -0.50000000000E+03  0.50000000000E+03  0.00000000000E+00 0.  1.
        -11    1    1    2    0    0  0.12364849463E+02 -0.58333411959E+01  0.48915431861E+03  0.48934534308E+03  0.00000000000E+00 0. -1.
         11    1    1    2    0    0  0.98537100097E+01 -0.11823599399E+02 -0.47735447900E+03  0.47760254577E+03  0.00000000000E+00 0.  1.
        -15    1    1    2    0    0 -0.12207613385E+02  0.15664810119E+02 -0.46806084620E+01  0.20481160250E+02  0.17770000000E+01 0. -1.
         15    1    1    2    0    0 -0.10010946087E+02  0.19921304762E+01 -0.71192311487E+01  0.12570950901E+02  0.17770000000E+01 0.  1.
</event>
<event>
 6    1  0.1823098E-004  0.5018044E+03  0.7546771E-02  0.9395781E-01
        -11   -1    0    0    0    0  0.00000000000E+00  0.00000000000E+00  0.50000000000E+03  0.50000000000E+03  0.00000000000E+00 0. -1.
         11   -1    0    0    0    0 -0.00000000000E+00 -0.00000000000E+00 -0.50000000000E+03  0.50000000000E+03  0.00000000000E+00 0. -1.
        -11    1    1    2    0    0 -0.27843412951E+01 -0.79375600469E+01  0.49812455873E+03  0.49819557748E+03  0.00000000000E+00 0. -1.
         11    1    1    2    0    0  0.10334427693E+02  0.18010247288E+02 -0.60837856449E+02  0.64283856297E+02  0.00000000000E+00 0. -1.
        -15    1    1    2    0    0 -0.36340219402E+01 -0.46443688530E+01 -0.11968492996E+03  0.11984329963E+03  0.17770000000E+01 0. -1.
         15    1    1    2    0    0 -0.39160644583E+01 -0.54283183879E+01 -0.31760177231E+03  0.31767726659E+03  0.17770000000E+01 0.  1.
</event>
<event>
 6    1  0.1823098E-004  0.5067118E+03  0.7546771E-02  0.9384916E-01
        -11   -1    0    0    0    0  0.00000000000E+00  0.00000000000E+00  0.50000000000E+03  0.50000000000E+03  0.00000000000E+00 0.  1.
         11   -1    0    0    0    0 -0.00000000000E+00 -0.00000000000E+00 -0.50000000000E+03  0.50000000000E+03  0.00000000000E+00 0.  1.
        -11    1    1    2    0    0 -0.21126526352E+01  0.83140971393E+01  0.49321359574E+03  0.49328819014E+03  0.00000000000E+00 0.  1.
         11    1    1    2    0    0 -0.19832955740E+02 -0.53844622552E+01 -0.47845913796E+03  0.47890028740E+03  0.00000000000E+00 0.  1.
        -15    1    1    2    0    0  0.14527075863E+02 -0.44759574006E+01 -0.12347259587E+02  0.19664248678E+02  0.17770000000E+01 0.  1.
         15    1    1    2    0    0  0.74185325125E+01  0.15463225166E+01 -0.24071981889E+01  0.81472737824E+01  0.17770000000E+01 0. -1.
</event>
<event>
 6    1  0.1823098E-004  0.5027618E+03  0.7546771E-02  0.9393651E-01
        -11   -1    0    0    0    0  0.00000000000E+00  0.00000000000E+00  0.50000000000E+03  0.50000000000E+03  0.00000000000E+00 0. -1.
         11   -1    0    0    0    0 -0.00000000000E+00 -0.00000000000E+00 -0.50000000000E+03  0.50000000000E+03  0.00000000000E+00 0.  1.
        -11    1    1    2    0    0 -0.27880594320E+01  0.64338208446E+01  0.41549821089E+03  0.41555737339E+03  0.00000000000E+00 0. -1.
         11    1    1    2    0    0 -0.64128148853E+01  0.89863477447E+01 -0.49711562315E+03  0.49723819384E+03  0.00000000000E+00 0.  1.
        -15    1    1    2    0    0  0.17456201756E+02 -0.98139198695E+01  0.46653962250E+02  0.50801396887E+02  0.17770000000E+01 0. -1.
         15    1    1    2    0    0 -0.82553274392E+01 -0.56062487198E+01  0.34963450012E+02  0.36403035884E+02  0.17770000000E+01 0.  1.
</event>
<event>
 6    1  0.1823098E-004  0.5013251E+03  0.7546771E-02  0.9396850E-01
        -11   -1    0    0    0    0  0.00000000000E+00  0.00000000000E+00  0.50000000000E+03  0.50000000000E+03  0.00000000000E+00 0.  1.
         11   -1    0    0    0    0 -0.00000000000E+00 -0.00000000000E+00 -0.50000000000E+03  0.50000000000E+03  0.00000000000E+00 0.  1.
        -11    1    1    2    0    0 -0.11203472833E+02 -0.20323522580E+01  0.39110667332E+03  0.39127238361E+03  0.00000000000E+00 0.  1.
         11    1    1    2    0    0 -0.11052492842E+02 -0.32219977067E+01 -0.49854201764E+03  0.49867492640E+03  0.00000000000E+00 0.  1.
        -15    1    1    2    0    0  0.18132054439E+02  0.36713505266E+01  0.74929538267E+02  0.77200023619E+02  0.17770000000E+01 0. -1.
         15    1    1    2    0    0  0.41239112370E+01  0.15829994381E+01  0.32505806052E+02  0.32852666364E+02  0.17770000000E+01 0.  1.
</event>
<event>
 6    1  0.1823098E-004  0.5003492E+03  0.7546771E-02  0.9399029E-01
        -11   -1    0    0    0    0  0.00000000000E+00  0.00000000000E+00  0.50000000000E+03  0.50000000000E+03  0.00000000000E+00 0. -1.
         11   -1    0    0    0    0 -0.00000000000E+00 -0.00000000000E+00 -0.50000000000E+03  0.50000000000E+03  0.00000000000E+00 0. -1.
        -11    1    1    2    0    0 -0.61280002947E+00  0.85303079799E+01  0.49957764645E+03  0.49965084460E+03  0.00000000000E+00 0. -1.
         11    1    1    2    0    0  0.18060790817E+01 -0.11343600966E+02 -0.38426346883E+03  0.38443510854E+03  0.00000000000E+00 0. -1.
        -15    1    1    2    0    0 -0.11244591419E+01 -0.32092221111E+01 -0.18354702330E+02  0.18751435720E+02  0.17770000000E+01 0.  1.
         15    1    1    2    0    0 -0.68819910318E-01  0.60225150969E+01 -0.96959475292E+02  0.97162611133E+02  0.17770000000E+01 0. -1.
</event>
<event>
 6    1  0.1823098E-004  0.5045248E+03  0.7546771E-02  0.9389742E-01
        -11   -1    0    0    0    0  0.00000000000E+00  0.00000000000E+00  0.50000000000E+03  0.50000000000E+03  0.00000000000E+00 0.  1.
         11   -1    0    0    0    0 -0.00000000000E+00 -0.00000000000E+00 -0.50000000000E+03  0.50000000000E+03  0.00000000000E+00 0. -1.
        -11    1    1    2    0    0  0.31180386228E+01  0.60312829012E+01  0.41471549738E+03  0.41477107217E+03  0.00000000000E+00 0.  1.
         11    1    1    2    0    0 -0.39166564764E+02  0.24583414827E+01 -0.49391859622E+03  0.49547516884E+03  0.00000000000E+00 0. -1.
        -15    1    1    2    0    0  0.17540801176E+02 -0.14319602550E+02  0.44081827514E+02  0.49589272722E+02  0.17770000000E+01 0.  1.
         15    1    1    2    0    0  0.18507724965E+02  0.58299781658E+01  0.35121271327E+02  0.40164486271E+02  0.17770000000E+01 0. -1.
</event>
<event>
 6    1  0.1823098E-004  0.5012573E+03  0.7546771E-02  0.9397001E-01
        -11   -1    0    0    0    0  0.00000000000E+00  0.00000000000E+00  0.50000000000E+03  0.50000000000E+03  0.00000000000E+00 0.  1.
         11   -1    0    0    0    0 -0.00000000000E+00 -0.00000000000E+00 -0.50000000000E+03  0.50000000000E+03  0.00000000000E+00 0.  1.
        -11    1    1    2    0    0  0.21863790747E+01  0.69236714034E+01  0.49868983296E+03  0.49874268614E+03  0.00000000000E+00 0.  1.
         11    1    1    2    0    0 -0.95967892716E+01 -0.71491032665E+01 -0.44214038383E+03  0.44230230279E+03  0.00000000000E+00 0.  1.
        -15    1    1    2    0    0  0.91290049655E+01 -0.14046378985E+00 -0.55450171385E+02  0.56224885036E+02  0.17770000000E+01 0. -1.
         15    1    1    2    0    0 -0.17185947687E+01  0.36589565292E+00 -0.10992777503E+01  0.27301260374E+01  0.17770000000E+01 0.  1.
</event>
<event>
 6    1  0.1823098E-004  0.5001763E+03  0.7546771E-02  0.9399415E-01
        -11   -1    0    0    0    0  0.00000000000E+00  0.00000000000E+00  0.50000000000E+03  0.50000000000E+03  0.00000000000E+00 0.  1.
         11   -1    0    0    0    0 -0.00000000000E+00 -0.00000000000E+00 -0.50000000000E+03  0.50000000000E+03  0.00000000000E+00 0.  1.
        -11    1    1    2    0    0 -0.38630311681E+01  0.77953007856E+01  0.49974793364E+03  0.49982365580E+03  0.00000000000E+00 0.  1.
         11    1    1    2    0    0  0.12833921982E+01 -0.12962872583E+02 -0.30578734579E+03  0.30606467291E+03  0.00000000000E+00 0.  1.
        -15    1    1    2    0    0  0.20878703458E+01  0.36417687509E+01 -0.82847750823E+02  0.82973063265E+02  0.17770000000E+01 0.  1.
         15    1    1    2    0    0  0.49176862412E+00  0.15258030467E+01 -0.11111283702E+03  0.11113860802E+03  0.17770000000E+01 0. -1.
</event>
<event>
 6    1  0.1823098E-004  0.5008533E+03  0.7546771E-02  0.9397902E-01
        -11   -1    0    0    0    0  0.00000000000E+00  0.00000000000E+00  0.50000000000E+03  0.50000000000E+03  0.00000000000E+00 0. -1.
         11   -1    0    0    0    0 -0.00000000000E+00 -0.00000000000E+00 -0.50000000000E+03  0.50000000000E+03  0.00000000000E+00 0.  1.
        -11    1    1    2    0    0  0.11104404247E+02 -0.21156910865E+02  0.26310229916E+03  0.26418505350E+03  0.00000000000E+00 0. -1.
         11    1    1    2    0    0 -0.53774756924E+02  0.23718836319E+02 -0.49567439696E+03  0.49914668734E+03  0.00000000000E+00 0.  1.
        -15    1    1    2    0    0  0.33773278730E+02 -0.19839542775E+01  0.20009637818E+03  0.20294405317E+03  0.17770000000E+01 0. -1.
         15    1    1    2    0    0  0.88970739474E+01 -0.57797117655E+00  0.32475719624E+02  0.33724205989E+02  0.17770000000E+01 0.  1.
</event>
<event>
 6    1  0.1823098E-004  0.5037479E+03  0.7546771E-02  0.9391462E-01
        -11   -1    0    0    0    0  0.00000000000E+00  0.00000000000E+00  0.50000000000E+03  0.50000000000E+03  0.00000000000E+00 0.  1.
         11   -1    0    0    0    0 -0.00000000000E+00 -0.00000000000E+00 -0.50000000000E+03  0.50000000000E+03  0.00000000000E+00 0.  1.
        -11    1    1    2    0    0  0.10375274728E+02 -0.69316413622E+01  0.44910599736E+03  0.44927930160E+03  0.00000000000E+00 0.  1.
         11    1    1    2    0    0 -0.14189181666E+02 -0.18705043131E+02 -0.49569639272E+03  0.49625207835E+03  0.00000000000E+00 0.  1.
        -15    1    1    2    0    0  0.88281265999E+00  0.41821207796E+01  0.23730531231E+01  0.52017883976E+01  0.17770000000E+01 0.  1.
         15    1    1    2    0    0  0.29310942777E+01  0.21454563714E+02  0.44217342236E+02  0.49266831654E+02  0.17770000000E+01 0. -1.
</event>
<event>
 6    1  0.1823098E-004  0.5007928E+03  0.7546771E-02  0.9398037E-01
        -11   -1    0    0    0    0  0.00000000000E+00  0.00000000000E+00  0.50000000000E+03  0.50000000000E+03  0.00000000000E+00 0.  1.
         11   -1    0    0    0    0 -0.00000000000E+00 -0.00000000000E+00 -0.50000000000E+03  0.50000000000E+03  0.00000000000E+00 0.  1.
        -11    1    1    2    0    0  0.21859513882E+02  0.12178107322E+01  0.49872685449E+03  0.49920716822E+03  0.00000000000E+00 0.  1.
         11    1    1    2    0    0 -0.11933715864E+02  0.44703284654E+01 -0.47683820561E+02  0.49357311051E+02  0.00000000000E+00 0.  1.
        -15    1    1    2    0    0 -0.75598536019E+00 -0.72821162735E+00 -0.78638353821E+01  0.81301563304E+01  0.17770000000E+01 0. -1.
         15    1    1    2    0    0 -0.91698126582E+01 -0.49599275703E+01 -0.44317919855E+03  0.44330536440E+03  0.17770000000E+01 0. -1.
</event>
<event>
 6    1  0.1823098E-004  0.5002178E+03  0.7546771E-02  0.9399323E-01
        -11   -1    0    0    0    0  0.00000000000E+00  0.00000000000E+00  0.50000000000E+03  0.50000000000E+03  0.00000000000E+00 0.  1.
         11   -1    0    0    0    0 -0.00000000000E+00 -0.00000000000E+00 -0.50000000000E+03  0.50000000000E+03  0.00000000000E+00 0.  1.
        -11    1    1    2    0    0  0.27261244639E+01 -0.28206845912E+01  0.67372057646E+02  0.67486162786E+02  0.00000000000E+00 0.  1.
         11    1    1    2    0    0  0.13001673100E+02 -0.56517099470E+01 -0.49958110005E+03  0.49978221342E+03  0.00000000000E+00 0.  1.
        -15    1    1    2    0    0 -0.33330494156E+01 -0.57488988525E+00  0.18553677599E+03  0.18557611024E+03  0.17770000000E+01 0. -1.
         15    1    1    2    0    0 -0.12394748148E+02  0.90472844235E+01  0.24667226641E+03  0.24715551355E+03  0.17770000000E+01 0.  1.
</event>
<event>
 6    1  0.1823098E-004  0.5003805E+03  0.7546771E-02  0.9398959E-01
        -11   -1    0    0    0    0  0.00000000000E+00  0.00000000000E+00  0.50000000000E+03  0.50000000000E+03  0.00000000000E+00 0.  1.
         11   -1    0    0    0    0 -0.00000000000E+00 -0.00000000000E+00 -0.50000000000E+03  0.50000000000E+03  0.00000000000E+00 0.  1.
        -11    1    1    2    0    0  0.66042476541E+01  0.82455761291E+01  0.28513295227E+03  0.28532859317E+03  0.00000000000E+00 0.  1.
         11    1    1    2    0    0  0.97056903704E+01 -0.66277386316E+01 -0.49948124561E+03  0.49961949728E+03  0.00000000000E+00 0.  1.
        -15    1    1    2    0    0 -0.49112487740E+01 -0.11517465627E+01  0.93668096039E+02  0.93820663125E+02  0.17770000000E+01 0.  1.
         15    1    1    2    0    0 -0.11398689251E+02 -0.46609093480E+00  0.12068019731E+03  0.12123124642E+03  0.17770000000E+01 0. -1.
</event>
<event>
 6    1  0.1823098E-004  0.5140917E+03  0.7546771E-02  0.9368819E-01
        -11   -1    0    0    0    0  0.00000000000E+00  0.00000000000E+00  0.50000000000E+03  0.50000000000E+03  0.00000000000E+00 0.  1.
         11   -1    0    0    0    0 -0.00000000000E+00 -0.00000000000E+00 -0.50000000000E+03  0.50000000000E+03  0.00000000000E+00 0.  1.
        -11    1    1    2    0    0  0.10596623252E+01 -0.95727432767E+01  0.41632050432E+03  0.41643189433E+03  0.00000000000E+00 0.  1.
         11    1    1    2    0    0  0.44928697761E+02 -0.32821087944E+02 -0.48271215934E+03  0.48590826343E+03  0.00000000000E+00 0.  1.
        -15    1    1    2    0    0 -0.23264194671E+02  0.22214125725E+02  0.57559507053E+02  0.65961691281E+02  0.17770000000E+01 0.  1.
         15    1    1    2    0    0 -0.22724165416E+02  0.20179705496E+02  0.88321479658E+01  0.31698150962E+02  0.17770000000E+01 0. -1.
</event>
<event>
 6    1  0.1823098E-004  0.5006576E+03  0.7546771E-02  0.9398339E-01
        -11   -1    0    0    0    0  0.00000000000E+00  0.00000000000E+00  0.50000000000E+03  0.50000000000E+03  0.00000000000E+00 0. -1.
         11   -1    0    0    0    0 -0.00000000000E+00 -0.00000000000E+00 -0.50000000000E+03  0.50000000000E+03  0.00000000000E+00 0. -1.
        -11    1    1    2    0    0  0.80822369377E+01 -0.29814565833E+01  0.41660521935E+03  0.41669427694E+03  0.00000000000E+00 0. -1.
         11    1    1    2    0    0  0.59896296765E+00  0.13778985573E+02 -0.49915187054E+03  0.49934237660E+03  0.00000000000E+00 0. -1.
        -15    1    1    2    0    0 -0.22305971634E+01 -0.28972654635E+01  0.38609799043E+02  0.38823240746E+02  0.17770000000E+01 0.  1.
         15    1    1    2    0    0 -0.64506027419E+01 -0.79002635263E+01  0.43936852142E+02  0.45140105723E+02  0.17770000000E+01 0. -1.
</event>
<event>
 6    1  0.1823098E-004  0.5062551E+03  0.7546771E-02  0.9385921E-01
        -11   -1    0    0    0    0  0.00000000000E+00  0.00000000000E+00  0.50000000000E+03  0.50000000000E+03  0.00000000000E+00 0. -1.
         11   -1    0    0    0    0 -0.00000000000E+00 -0.00000000000E+00 -0.50000000000E+03  0.50000000000E+03  0.00000000000E+00 0. -1.
        -11    1    1    2    0    0 -0.11632897678E+02  0.69547901238E+01  0.43493383755E+03  0.43514496028E+03  0.00000000000E+00 0. -1.
         11    1    1    2    0    0  0.25026007672E+01  0.21479523054E+02 -0.49327114923E+03  0.49374493373E+03  0.00000000000E+00 0. -1.
        -15    1    1    2    0    0  0.25384544327E+01 -0.17323853718E+02  0.54860490174E+02  0.57614154248E+02  0.17770000000E+01 0.  1.
         15    1    1    2    0    0  0.65918424778E+01 -0.11110459459E+02  0.34768215056E+01  0.13495951742E+02  0.17770000000E+01 0. -1.
</event>
<event>
 6    1  0.1823098E-004  0.5036078E+03  0.7546771E-02  0.9391773E-01
        -11   -1    0    0    0    0  0.00000000000E+00  0.00000000000E+00  0.50000000000E+03  0.50000000000E+03  0.00000000000E+00 0. -1.
         11   -1    0    0    0    0 -0.00000000000E+00 -0.00000000000E+00 -0.50000000000E+03  0.50000000000E+03  0.00000000000E+00 0.  1.
        -11    1    1    2    0    0 -0.73171461937E+01  0.83289716189E+01  0.45079618216E+03  0.45093248967E+03  0.00000000000E+00 0. -1.
         11    1    1    2    0    0  0.91778963162E+01  0.94530407968E+01 -0.49621735703E+03  0.49639224327E+03  0.00000000000E+00 0.  1.
        -15    1    1    2    0    0 -0.30714814876E+00 -0.11572041041E+02  0.69162266248E+01  0.13601411455E+02  0.17770000000E+01 0.  1.
         15    1    1    2    0    0 -0.15536019738E+01 -0.62099713749E+01  0.38504948245E+02  0.39073855606E+02  0.17770000000E+01 0. -1.
</event>
<event>
 6    1  0.1823098E-004  0.4907252E+03  0.7546771E-02  0.9420805E-01
        -11   -1    0    0    0    0  0.00000000000E+00  0.00000000000E+00  0.50000000000E+03  0.50000000000E+03  0.00000000000E+00 0. -1.
         11   -1    0    0    0    0 -0.00000000000E+00 -0.00000000000E+00 -0.50000000000E+03  0.50000000000E+03  0.00000000000E+00 0.  1.
        -11    1    1    2    0    0 -0.46807149993E+01  0.81713410226E+01  0.49052750968E+03  0.49061789374E+03  0.00000000000E+00 0. -1.
         11    1    1    2    0    0  0.63197870983E+01  0.68885700980E+01 -0.49086042964E+03  0.49094944087E+03  0.00000000000E+00 0.  1.
        -15    1    1    2    0    0 -0.65068786132E+00 -0.27063635538E+01 -0.39974995855E+01  0.51851258726E+01  0.17770000000E+01 0.  1.
         15    1    1    2    0    0 -0.98838423765E+00 -0.12353547567E+02  0.43304195472E+01  0.13247539520E+02  0.17770000000E+01 0. -1.
</event>
<event>
 6    1  0.1823098E-004  0.5004202E+03  0.7546771E-02  0.9398870E-01
        -11   -1    0    0    0    0  0.00000000000E+00  0.00000000000E+00  0.50000000000E+03  0.50000000000E+03  0.00000000000E+00 0.  1.
         11   -1    0    0    0    0 -0.00000000000E+00 -0.00000000000E+00 -0.50000000000E+03  0.50000000000E+03  0.00000000000E+00 0.  1.
        -11    1    1    2    0    0  0.23861164938E+01  0.29587253150E+01  0.24086131899E+03  0.24089130867E+03  0.00000000000E+00 0.  1.
         11    1    1    2    0    0  0.12499060432E+02 -0.88064283054E+00 -0.49942264042E+03  0.49957979924E+03  0.00000000000E+00 0.  1.
        -15    1    1    2    0    0 -0.22593010978E+01  0.42302958702E+01  0.14355912732E+03  0.14365020226E+03  0.17770000000E+01 0. -1.
         15    1    1    2    0    0 -0.12625875828E+02 -0.63083783547E+01  0.11500219410E+03  0.11587868983E+03  0.17770000000E+01 0.  1.
</event>
<event>
 6    1  0.1823098E-004  0.5001039E+03  0.7546771E-02  0.9399577E-01
        -11   -1    0    0    0    0  0.00000000000E+00  0.00000000000E+00  0.50000000000E+03  0.50000000000E+03  0.00000000000E+00 0. -1.
         11   -1    0    0    0    0 -0.00000000000E+00 -0.00000000000E+00 -0.50000000000E+03  0.50000000000E+03  0.00000000000E+00 0. -1.
        -11    1    1    2    0    0  0.11142008458E+02  0.96096329983E-01  0.49977195067E+03  0.49989614547E+03  0.00000000000E+00 0. -1.
         11    1    1    2    0    0 -0.96184558976E+01  0.33689710916E+01 -0.18396623586E+03  0.18424831233E+03  0.00000000000E+00 0. -1.
        -15    1    1    2    0    0  0.33656495743E-01 -0.59396884123E+00 -0.94246242502E+02  0.94264870903E+02  0.17770000000E+01 0. -1.
         15    1    1    2    0    0 -0.15572090559E+01 -0.28710985804E+01 -0.22155947231E+03  0.22159067129E+03  0.17770000000E+01 0. -1.
</event>
<event>
 6    1  0.1823098E-004  0.5017484E+03  0.7546771E-02  0.9395906E-01
        -11   -1    0    0    0    0  0.00000000000E+00  0.00000000000E+00  0.50000000000E+03  0.50000000000E+03  0.00000000000E+00 0.  1.
         11   -1    0    0    0    0 -0.00000000000E+00 -0.00000000000E+00 -0.50000000000E+03  0.50000000000E+03  0.00000000000E+00 0.  1.
        -11    1    1    2    0    0 -0.43747369528E+01 -0.31762404886E+01  0.28140727755E+03  0.28145920252E+03  0.00000000000E+00 0.  1.
         11    1    1    2    0    0 -0.22989018089E+02  0.78745834210E+00 -0.49772035985E+03  0.49825161480E+03  0.00000000000E+00 0.  1.
        -15    1    1    2    0    0 -0.35215775481E+01  0.26839375658E+01  0.57784213436E+01  0.74935246385E+01  0.17770000000E+01 0.  1.
         15    1    1    2    0    0  0.30885332590E+02 -0.29515541927E+00  0.21053466096E+03  0.21279565804E+03  0.17770000000E+01 0.  1.
</event>
<event>
 6    1  0.1823098E-004  0.5173284E+03  0.7546771E-02  0.9361850E-01
        -11   -1    0    0    0    0  0.00000000000E+00  0.00000000000E+00  0.50000000000E+03  0.50000000000E+03  0.00000000000E+00 0.  1.
         11   -1    0    0    0    0 -0.00000000000E+00 -0.00000000000E+00 -0.50000000000E+03  0.50000000000E+03  0.00000000000E+00 0. -1.
        -11    1    1    2    0    0 -0.94920568866E+01 -0.80824865239E+01  0.45006373405E+03  0.45023637175E+03  0.00000000000E+00 0.  1.
         11    1    1    2    0    0  0.14959048604E+02  0.27393005526E+02 -0.48166146219E+03  0.48267164206E+03  0.00000000000E+00 0. -1.
        -15    1    1    2    0    0  0.19356044204E+01  0.18291044934E+02  0.19002224144E+01  0.18576260750E+02  0.17770000000E+01 0.  1.
         15    1    1    2    0    0 -0.74025961382E+01 -0.37601563935E+02  0.29697505726E+02  0.48515725444E+02  0.17770000000E+01 0. -1.
</event>
<event>
 6    1  0.1823098E-004  0.5004124E+03  0.7546771E-02  0.9398887E-01
        -11   -1    0    0    0    0  0.00000000000E+00  0.00000000000E+00  0.50000000000E+03  0.50000000000E+03  0.00000000000E+00 0.  1.
         11   -1    0    0    0    0 -0.00000000000E+00 -0.00000000000E+00 -0.50000000000E+03  0.50000000000E+03  0.00000000000E+00 0. -1.
        -11    1    1    2    0    0 -0.24201741838E+01 -0.11449524055E+02  0.49945047347E+03  0.49958755418E+03  0.00000000000E+00 0.  1.
         11    1    1    2    0    0 -0.38057150102E+01  0.18870375579E+02 -0.29431611682E+03  0.29494499684E+03  0.00000000000E+00 0. -1.
        -15    1    1    2    0    0  0.48993252674E+01 -0.62232771622E+01 -0.18469649057E+03  0.18487477904E+03  0.17770000000E+01 0. -1.
         15    1    1    2    0    0  0.13265639267E+01 -0.11975743620E+01 -0.20437866080E+02  0.20592669936E+02  0.17770000000E+01 0. -1.
</event>
<event>
 6    1  0.1823098E-004  0.5006240E+03  0.7546771E-02  0.9398415E-01
        -11   -1    0    0    0    0  0.00000000000E+00  0.00000000000E+00  0.50000000000E+03  0.50000000000E+03  0.00000000000E+00 0.  1.
         11   -1    0    0    0    0 -0.00000000000E+00 -0.00000000000E+00 -0.50000000000E+03  0.50000000000E+03  0.00000000000E+00 0.  1.
        -11    1    1    2    0    0 -0.10718313329E+02  0.54387510987E+01  0.49923131685E+03  0.49937598058E+03  0.00000000000E+00 0.  1.
         11    1    1    2    0    0  0.30038504629E+00 -0.98752019886E+01 -0.40476279571E+02  0.41664601923E+02  0.00000000000E+00 0.  1.
        -15    1    1    2    0    0  0.54914285452E+01 -0.76423525263E+00 -0.14362444507E+03  0.14374240430E+03  0.17770000000E+01 0. -1.
         15    1    1    2    0    0  0.49264997379E+01  0.52006861426E+01 -0.31513059221E+03  0.31521701320E+03  0.17770000000E+01 0.  1.
</event>
<event>
 6    1  0.1823098E-004  0.4845603E+03  0.7546771E-02  0.9435036E-01
        -11   -1    0    0    0    0  0.00000000000E+00  0.00000000000E+00  0.50000000000E+03  0.50000000000E+03  0.00000000000E+00 0.  1.
         11   -1    0    0    0    0 -0.00000000000E+00 -0.00000000000E+00 -0.50000000000E+03  0.50000000000E+03  0.00000000000E+00 0. -1.
        -11    1    1    2    0    0 -0.16033069793E+02  0.10737845475E+02  0.48684813741E+03  0.48723040705E+03  0.00000000000E+00 0.  1.
         11    1    1    2    0    0 -0.48221245833E+01 -0.11968211639E+02 -0.48195503951E+03  0.48212773316E+03  0.00000000000E+00 0. -1.
        -15    1    1    2    0    0  0.11250367077E+02  0.11420671023E+01 -0.13445824135E+02  0.17658510478E+02  0.17770000000E+01 0. -1.
         15    1    1    2    0    0  0.96048273000E+01  0.88299061957E-01  0.85527262373E+01  0.12983349309E+02  0.17770000000E+01 0.  1.
</event>
<event>
 6    1  0.1823098E-004  0.5046078E+03  0.7546771E-02  0.9389558E-01
        -11   -1    0    0    0    0  0.00000000000E+00  0.00000000000E+00  0.50000000000E+03  0.50000000000E+03  0.00000000000E+00 0. -1.
         11   -1    0    0    0    0 -0.00000000000E+00 -0.00000000000E+00 -0.50000000000E+03  0.50000000000E+03  0.00000000000E+00 0. -1.
        -11    1    1    2    0    0 -0.67166749303E+01 -0.12600734631E+01  0.49534503645E+03  0.49539217459E+03  0.00000000000E+00 0. -1.
         11    1    1    2    0    0  0.15904327328E+02  0.40392432324E+01 -0.48824450516E+03  0.48852017352E+03  0.00000000000E+00 0. -1.
        -15    1    1    2    0    0  0.18013799678E+01 -0.18990051263E+01 -0.78793065940E+00  0.32603303486E+01  0.17770000000E+01 0.  1.
         15    1    1    2    0    0 -0.10989032365E+02 -0.88016464300E+00 -0.63126006303E+01  0.12827321538E+02  0.17770000000E+01 0. -1.
</event>
<event>
 6    1  0.1823098E-004  0.5006103E+03  0.7546771E-02  0.9398445E-01
        -11   -1    0    0    0    0  0.00000000000E+00  0.00000000000E+00  0.50000000000E+03  0.50000000000E+03  0.00000000000E+00 0. -1.
         11   -1    0    0    0    0 -0.00000000000E+00 -0.00000000000E+00 -0.50000000000E+03  0.50000000000E+03  0.00000000000E+00 0. -1.
        -11    1    1    2    0    0 -0.10460311510E+02  0.50534538447E+01  0.49925452837E+03  0.49938966710E+03  0.00000000000E+00 0. -1.
         11    1    1    2    0    0 -0.29812855424E+01  0.61501223889E+01 -0.27402368157E+02  0.28241845717E+02  0.00000000000E+00 0. -1.
        -15    1    1    2    0    0  0.41365646726E+01  0.23225632565E+01 -0.73620405435E+02  0.73794493649E+02  0.17770000000E+01 0.  1.
         15    1    1    2    0    0  0.93050323798E+01 -0.13526139490E+02 -0.39823175478E+03  0.39857399353E+03  0.17770000000E+01 0. -1.
</event>
<event>
 6    1  0.1823098E-004  0.5054281E+03  0.7546771E-02  0.9387745E-01
        -11   -1    0    0    0    0  0.00000000000E+00  0.00000000000E+00  0.50000000000E+03  0.50000000000E+03  0.00000000000E+00 0. -1.
         11   -1    0    0    0    0 -0.00000000000E+00 -0.00000000000E+00 -0.50000000000E+03  0.50000000000E+03  0.00000000000E+00 0. -1.
        -11    1    1    2    0    0 -0.86714863142E+01  0.11957374603E+02  0.49435125715E+03  0.49457187438E+03  0.00000000000E+00 0. -1.
         11    1    1    2    0    0 -0.18351077169E+02  0.66644487477E+00 -0.45061667004E+03  0.45099067563E+03  0.00000000000E+00 0. -1.
        -15    1    1    2    0    0  0.54754278470E+00 -0.25109999577E+01 -0.13134409888E+01  0.33893627896E+01  0.17770000000E+01 0.  1.
         15    1    1    2    0    0  0.26475020698E+02 -0.10112819520E+02 -0.42421146119E+02  0.51048087199E+02  0.17770000000E+01 0. -1.
</event>
<event>
 6    1  0.1823098E-004  0.5000149E+03  0.7546771E-02  0.9399776E-01
        -11   -1    0    0    0    0  0.00000000000E+00  0.00000000000E+00  0.50000000000E+03  0.50000000000E+03  0.00000000000E+00 0. -1.
         11   -1    0    0    0    0 -0.00000000000E+00 -0.00000000000E+00 -0.50000000000E+03  0.50000000000E+03  0.00000000000E+00 0.  1.
        -11    1    1    2    0    0 -0.24006652151E+01 -0.15180039343E+01  0.15314754702E+03  0.15317388383E+03  0.00000000000E+00 0. -1.
         11    1    1    2    0    0  0.87357356363E+01  0.44744368350E+01 -0.49988879946E+03  0.49998514527E+03  0.00000000000E+00 0.  1.
        -15    1    1    2    0    0 -0.29901706244E+01 -0.27182600487E+01  0.15848731478E+03  0.15854878345E+03  0.17770000000E+01 0. -1.
         15    1    1    2    0    0 -0.33448997968E+01 -0.23817285200E+00  0.18825393767E+03  0.18829218746E+03  0.17770000000E+01 0.  1.
</event>
<event>
 6    1  0.1823098E-004  0.4889726E+03  0.7546771E-02  0.9424828E-01
        -11   -1    0    0    0    0  0.00000000000E+00  0.00000000000E+00  0.50000000000E+03  0.50000000000E+03  0.00000000000E+00 0. -1.
         11   -1    0    0    0    0 -0.00000000000E+00 -0.00000000000E+00 -0.50000000000E+03  0.50000000000E+03  0.00000000000E+00 0.  1.
        -11    1    1    2    0    0 -0.92376198119E+01  0.14936812065E+01  0.48970736517E+03  0.48979676215E+03  0.00000000000E+00 0. -1.
         11    1    1    2    0    0 -0.18971270921E+02  0.14041235316E+02 -0.11016975574E+02  0.26046864694E+02  0.00000000000E+00 0.  1.
        -15    1    1    2    0    0  0.36246383761E+02 -0.86199815904E+00 -0.12759600858E+03  0.13265912147E+03  0.17770000000E+01 0.  1.
         15    1    1    2    0    0 -0.80374930276E+01 -0.14672918363E+02 -0.35109438102E+03  0.35149725169E+03  0.17770000000E+01 0. -1.
</event>
<event>
 6    1  0.1823098E-004  0.5100694E+03  0.7546771E-02  0.9377556E-01
        -11   -1    0    0    0    0  0.00000000000E+00  0.00000000000E+00  0.50000000000E+03  0.50000000000E+03  0.00000000000E+00 0. -1.
         11   -1    0    0    0    0 -0.00000000000E+00 -0.00000000000E+00 -0.50000000000E+03  0.50000000000E+03  0.00000000000E+00 0.  1.
        -11    1    1    2    0    0  0.99901870309E+01  0.76641132245E+01  0.48976875805E+03  0.48993058573E+03  0.00000000000E+00 0. -1.
         11    1    1    2    0    0  0.43826390219E+01  0.28680435433E+02 -0.43638093079E+03  0.43734436278E+03  0.00000000000E+00 0.  1.
        -15    1    1    2    0    0 -0.94536278646E+01 -0.16922096740E+02 -0.48156330900E+02  0.51941489896E+02  0.17770000000E+01 0.  1.
         15    1    1    2    0    0 -0.49191981881E+01 -0.19422451917E+02 -0.52314963626E+01  0.20783561593E+02  0.17770000000E+01 0. -1.
</event>
<event>
 6    1  0.1823098E-004  0.5056885E+03  0.7546771E-02  0.9387171E-01
        -11   -1    0    0    0    0  0.00000000000E+00  0.00000000000E+00  0.50000000000E+03  0.50000000000E+03  0.00000000000E+00 0. -1.
         11   -1    0    0    0    0 -0.00000000000E+00 -0.00000000000E+00 -0.50000000000E+03  0.50000000000E+03  0.00000000000E+00 0. -1.
        -11    1    1    2    0    0 -0.65769533581E+01  0.42932625893E+01  0.47887298253E+03  0.47893738820E+03  0.00000000000E+00 0. -1.
         11    1    1    2    0    0  0.11092317098E+02  0.13755340751E+02 -0.49399558619E+03  0.49431152937E+03  0.00000000000E+00 0. -1.
        -15    1    1    2    0    0 -0.34893505115E+01 -0.75743289068E+01  0.13482436968E+02  0.15952424925E+02  0.17770000000E+01 0. -1.
         15    1    1    2    0    0 -0.10260132288E+01 -0.10474274434E+02  0.16401666882E+01  0.10798657501E+02  0.17770000000E+01 0.  1.
</event>
<event>
 6    1  0.1823098E-004  0.5001984E+03  0.7546771E-02  0.9399366E-01
        -11   -1    0    0    0    0  0.00000000000E+00  0.00000000000E+00  0.50000000000E+03  0.50000000000E+03  0.00000000000E+00 0.  1.
         11   -1    0    0    0    0 -0.00000000000E+00 -0.00000000000E+00 -0.50000000000E+03  0.50000000000E+03  0.00000000000E+00 0.  1.
        -11    1    1    2    0    0  0.47780643440E+00 -0.24347165830E+01  0.15976587620E+03  0.15978514118E+03  0.00000000000E+00 0.  1.
         11    1    1    2    0    0  0.19173006965E+02  0.11401652757E+02 -0.49930358297E+03  0.49980163050E+03  0.00000000000E+00 0.  1.
        -15    1    1    2    0    0 -0.16350785706E+02 -0.87480365183E+01  0.21101668623E+03  0.21183738086E+03  0.17770000000E+01 0. -1.
         15    1    1    2    0    0 -0.33000276934E+01 -0.21889965616E+00  0.12852102054E+03  0.12857584746E+03  0.17770000000E+01 0.  1.
</event>
<event>
 6    1  0.1823098E-004  0.4836563E+03  0.7546771E-02  0.9437141E-01
        -11   -1    0    0    0    0  0.00000000000E+00  0.00000000000E+00  0.50000000000E+03  0.50000000000E+03  0.00000000000E+00 0.  1.
         11   -1    0    0    0    0 -0.00000000000E+00 -0.00000000000E+00 -0.50000000000E+03  0.50000000000E+03  0.00000000000E+00 0.  1.
        -11    1    1    2    0    0  0.18931398680E+02 -0.64586700836E+01  0.48674288375E+03  0.48715372026E+03  0.00000000000E+00 0.  1.
         11    1    1    2    0    0  0.52574933129E+01  0.95628128880E+01 -0.48036335681E+03  0.48048729764E+03  0.00000000000E+00 0.  1.
        -15    1    1    2    0    0 -0.72874369471E+01 -0.91614903162E+01  0.27250495430E+01  0.12150031526E+02  0.17770000000E+01 0. -1.
         15    1    1    2    0    0 -0.16901455045E+02  0.60573475119E+01 -0.91045764832E+01  0.20208950578E+02  0.17770000000E+01 0.  1.
</event>
<event>
 6    1  0.1823098E-004  0.5040118E+03  0.7546771E-02  0.9390878E-01
        -11   -1    0    0    0    0  0.00000000000E+00  0.00000000000E+00  0.50000000000E+03  0.50000000000E+03  0.00000000000E+00 0. -1.
         11   -1    0    0    0    0 -0.00000000000E+00 -0.00000000000E+00 -0.50000000000E+03  0.50000000000E+03  0.00000000000E+00 0. -1.
        -11    1    1    2    0    0  0.35370708924E+01  0.69610674796E+01  0.47178391538E+03  0.47184852457E+03  0.00000000000E+00 0. -1.
         11    1    1    2    0    0 -0.48769767757E+01  0.10890341968E+02 -0.49584466254E+03  0.49598821943E+03  0.00000000000E+00 0. -1.
        -15    1    1    2    0    0  0.15349091267E+01 -0.56735990506E+01  0.16767394323E+02  0.17856340991E+02  0.17770000000E+01 0.  1.
         15    1    1    2    0    0 -0.19500324339E+00 -0.12177810397E+02  0.72933528376E+01  0.14306915005E+02  0.17770000000E+01 0. -1.
</event>
<event>
 6    1  0.1823098E-004  0.5000566E+03  0.7546771E-02  0.9399683E-01
        -11   -1    0    0    0    0  0.00000000000E+00  0.00000000000E+00  0.50000000000E+03  0.50000000000E+03  0.00000000000E+00 0. -1.
         11   -1    0    0    0    0 -0.00000000000E+00 -0.00000000000E+00 -0.50000000000E+03  0.50000000000E+03  0.00000000000E+00 0. -1.
        -11    1    1    2    0    0 -0.78056239451E+01 -0.33509931456E+01  0.35295820751E+03  0.35306041008E+03  0.00000000000E+00 0. -1.
         11    1    1    2    0    0  0.13238935212E+02  0.10086269493E+01 -0.49976709294E+03  0.49994343072E+03  0.00000000000E+00 0. -1.
        -15    1    1    2    0    0 -0.25917225231E+01  0.13812122445E+00  0.45948504382E+02  0.46056040722E+02  0.17770000000E+01 0. -1.
         15    1    1    2    0    0 -0.28415887440E+01  0.22042449718E+01  0.10086038105E+03  0.10094011848E+03  0.17770000000E+01 0.  1.
</event>
<event>
 6    1  0.1823098E-004  0.5001807E+03  0.7546771E-02  0.9399405E-01
        -11   -1    0    0    0    0  0.00000000000E+00  0.00000000000E+00  0.50000000000E+03  0.50000000000E+03  0.00000000000E+00 0.  1.
         11   -1    0    0    0    0 -0.00000000000E+00 -0.00000000000E+00 -0.50000000000E+03  0.50000000000E+03  0.00000000000E+00 0. -1.
        -11    1    1    2    0    0 -0.50292486711E+01 -0.13710550676E+01  0.33487777378E+03  0.33491834305E+03  0.00000000000E+00 0.  1.
         11    1    1    2    0    0 -0.14848440708E+01  0.79931575195E+01 -0.49975316191E+03  0.49981928551E+03  0.00000000000E+00 0. -1.
        -15    1    1    2    0    0  0.52755737011E+01 -0.71342795175E+01  0.13672088848E+03  0.13702003028E+03  0.17770000000E+01 0. -1.
         15    1    1    2    0    0  0.12385190408E+01  0.51217706555E+00  0.28154499645E+02  0.28242341157E+02  0.17770000000E+01 0. -1.
</event>
<event>
 6    1  0.1823098E-004  0.5009642E+03  0.7546771E-02  0.9397655E-01
        -11   -1    0    0    0    0  0.00000000000E+00  0.00000000000E+00  0.50000000000E+03  0.50000000000E+03  0.00000000000E+00 0.  1.
         11   -1    0    0    0    0 -0.00000000000E+00 -0.00000000000E+00 -0.50000000000E+03  0.50000000000E+03  0.00000000000E+00 0.  1.
        -11    1    1    2    0    0 -0.36788696059E+01 -0.95310861594E+01  0.46001928273E+03  0.46013271582E+03  0.00000000000E+00 0.  1.
         11    1    1    2    0    0  0.13018903765E+02  0.11571697136E+02 -0.49873170205E+03  0.49903577693E+03  0.00000000000E+00 0.  1.
        -15    1    1    2    0    0 -0.14845545687E-01  0.55262772976E+00  0.15609189212E+02  0.15719737105E+02  0.17770000000E+01 0. -1.
         15    1    1    2    0    0 -0.93251886133E+01 -0.25932387059E+01  0.23103230101E+02  0.25111770144E+02  0.17770000000E+01 0.  1.
</event>
<event>
 6    1  0.1823098E-004  0.5003460E+03  0.7546771E-02  0.9399036E-01
        -11   -1    0    0    0    0  0.00000000000E+00  0.00000000000E+00  0.50000000000E+03  0.50000000000E+03  0.00000000000E+00 0. -1.
         11   -1    0    0    0    0 -0.00000000000E+00 -0.00000000000E+00 -0.50000000000E+03  0.50000000000E+03  0.00000000000E+00 0.  1.
        -11    1    1    2    0    0 -0.62113915157E+01 -0.13758525925E+01  0.39612860238E+03  0.39617968648E+03  0.00000000000E+00 0. -1.
         11    1    1    2    0    0  0.66576640986E+01 -0.10348399443E+02 -0.49950240958E+03  0.49965395129E+03  0.00000000000E+00 0.  1.
        -15    1    1    2    0    0  0.12852779971E+01  0.54401038565E+01  0.38935270511E+02  0.39374607151E+02  0.17770000000E+01 0. -1.
         15    1    1    2    0    0 -0.17315505800E+01  0.62841481787E+01  0.64438536691E+02  0.64791755075E+02  0.17770000000E+01 0.  1.
</event>
<event>
 6    1  0.1823098E-004  0.5044329E+03  0.7546771E-02  0.9389945E-01
        -11   -1    0    0    0    0  0.00000000000E+00  0.00000000000E+00  0.50000000000E+03  0.50000000000E+03  0.00000000000E+00 0.  1.
         11   -1    0    0    0    0 -0.00000000000E+00 -0.00000000000E+00 -0.50000000000E+03  0.50000000000E+03  0.00000000000E+00 0. -1.
        -11    1    1    2    0    0 -0.12089213674E+02  0.12168488173E+02  0.49527019596E+03  0.49556713793E+03  0.00000000000E+00 0.  1.
         11    1    1    2    0    0  0.58378347207E+00 -0.23230839332E+02 -0.26176180753E+02  0.35002930421E+02  0.00000000000E+00 0. -1.
        -15    1    1    2    0    0  0.65793518677E+01  0.85314242137E+01 -0.37318647912E+03  0.37334619188E+03  0.17770000000E+01 0. -1.
         15    1    1    2    0    0  0.49260783338E+01  0.25309269449E+01 -0.95907536090E+02  0.96083739763E+02  0.17770000000E+01 0. -1.
</event>
<event>
 6    1  0.1823098E-004  0.5004978E+03  0.7546771E-02  0.9398696E-01
        -11   -1    0    0    0    0  0.00000000000E+00  0.00000000000E+00  0.50000000000E+03  0.50000000000E+03  0.00000000000E+00 0. -1.
         11   -1    0    0    0    0 -0.00000000000E+00 -0.00000000000E+00 -0.50000000000E+03  0.50000000000E+03  0.00000000000E+00 0.  1.
        -11    1    1    2    0    0  0.55234644552E+01  0.41062613842E+01  0.49945474892E+03  0.49950216842E+03  0.00000000000E+00 0. -1.
         11    1    1    2    0    0 -0.99546424747E+01  0.63847277725E+01 -0.32184541464E+03  0.32206261903E+03  0.00000000000E+00 0.  1.
        -15    1    1    2    0    0 -0.15300597719E+01 -0.10647555008E+02 -0.11742805113E+03  0.11793310151E+03  0.17770000000E+01 0.  1.
         15    1    1    2    0    0  0.59612377913E+01  0.15656585123E+00 -0.60181283155E+02  0.60502111038E+02  0.17770000000E+01 0.  1.
</event>
<event>
 6    1  0.1823098E-004  0.4911504E+03  0.7546771E-02  0.9419832E-01
        -11   -1    0    0    0    0  0.00000000000E+00  0.00000000000E+00  0.50000000000E+03  0.50000000000E+03  0.00000000000E+00 0. -1.
         11   -1    0    0    0    0 -0.00000000000E+00 -0.00000000000E+00 -0.50000000000E+03  0.50000000000E+03  0.00000000000E+00 0.  1.
        -11    1    1    2    0    0  0.76103700289E+01  0.48931282203E-01  0.49413358280E+03  0.49419218708E+03  0.00000000000E+00 0. -1.
         11    1    1    2    0    0  0.48048327313E+01 -0.48630229374E+01 -0.48816905086E+03  0.48821691657E+03  0.00000000000E+00 0.  1.
        -15    1    1    2    0    0 -0.21891394970E+01  0.51142605761E+00  0.22740761981E+01  0.36582837376E+01  0.17770000000E+01 0. -1.
         15    1    1    2    0    0 -0.10226063263E+02  0.43026655976E+01 -0.82386081358E+01  0.13932612609E+02  0.17770000000E+01 0.  1.
</event>
<event>
 6    1  0.1823098E-004  0.5031699E+03  0.7546771E-02  0.9392745E-01
        -11   -1    0    0    0    0  0.00000000000E+00  0.00000000000E+00  0.50000000000E+03  0.50000000000E+03  0.00000000000E+00 0.  1.
         11   -1    0    0    0    0 -0.00000000000E+00 -0.00000000000E+00 -0.50000000000E+03  0.50000000000E+03  0.00000000000E+00 0.  1.
        -11    1    1    2    0    0 -0.20234490482E+02 -0.91797970775E+01  0.49633301720E+03  0.49683011910E+03  0.00000000000E+00 0.  1.
         11    1    1    2    0    0 -0.84214282456E+01  0.29101651250E+02 -0.18329177918E+03  0.18577863945E+03  0.00000000000E+00 0.  1.
        -15    1    1    2    0    0  0.26107216524E+02 -0.26441218853E+02 -0.30143313605E+03  0.30371996650E+03  0.17770000000E+01 0.  1.
         15    1    1    2    0    0  0.25487022039E+01  0.65193646801E+01 -0.11608101968E+02  0.13671274961E+02  0.17770000000E+01 0. -1.
</event>
<event>
 6    1  0.1823098E-004  0.4891087E+03  0.7546771E-02  0.9424515E-01
        -11   -1    0    0    0    0  0.00000000000E+00  0.00000000000E+00  0.50000000000E+03  0.50000000000E+03  0.00000000000E+00 0. -1.
         11   -1    0    0    0    0 -0.00000000000E+00 -0.00000000000E+00 -0.50000000000E+03  0.50000000000E+03  0.00000000000E+00 0.  1.
        -11    1    1    2    0    0 -0.11328241055E+02  0.10154345031E+02  0.48943657515E+03  0.48967295296E+03  0.00000000000E+00 0. -1.
         11    1    1    2    0    0  0.98249268137E+01  0.21245129166E+02 -0.85080360983E+01  0.24905248010E+02  0.00000000000E+00 0.  1.
        -15    1    1    2    0    0  0.22242310598E+02 -0.55728097597E+01 -0.33420874467E+03  0.33499913333E+03  0.17770000000E+01 0.  1.
         15    1    1    2    0    0 -0.20738996357E+02 -0.25826664437E+02 -0.14671979437E+03  0.15042266570E+03  0.17770000000E+01 0. -1.
</event>
<event>
 6    1  0.1823098E-004  0.5003426E+03  0.7546771E-02  0.9399043E-01
        -11   -1    0    0    0    0  0.00000000000E+00  0.00000000000E+00  0.50000000000E+03  0.50000000000E+03  0.00000000000E+00 0. -1.
         11   -1    0    0    0    0 -0.00000000000E+00 -0.00000000000E+00 -0.50000000000E+03  0.50000000000E+03  0.00000000000E+00 0. -1.
        -11    1    1    2    0    0 -0.58361659583E-01  0.14007543637E+02  0.49946100055E+03  0.49965738837E+03  0.00000000000E+00 0. -1.
         11    1    1    2    0    0  0.10508785529E+02 -0.39113048237E+01 -0.32510188535E+03  0.32529520244E+03  0.00000000000E+00 0. -1.
        -15    1    1    2    0    0 -0.45474897704E+01 -0.70967595258E+01 -0.90935715694E+02  0.91342792692E+02  0.17770000000E+01 0.  1.
         15    1    1    2    0    0 -0.59029340987E+01 -0.29994792878E+01 -0.83423399510E+02  0.83704616491E+02  0.17770000000E+01 0. -1.
</event>
<event>
 6    1  0.1823098E-004  0.5045902E+03  0.7546771E-02  0.9389597E-01
        -11   -1    0    0    0    0  0.00000000000E+00  0.00000000000E+00  0.50000000000E+03  0.50000000000E+03  0.00000000000E+00 0. -1.
         11   -1    0    0    0    0 -0.00000000000E+00 -0.00000000000E+00 -0.50000000000E+03  0.50000000000E+03  0.00000000000E+00 0.  1.
        -11    1    1    2    0    0  0.22021825245E+02  0.13322588068E+02  0.49474080220E+03  0.49540984397E+03  0.00000000000E+00 0. -1.
         11    1    1    2    0    0 -0.11724207405E+02  0.25878983525E+02 -0.17792346751E+03  0.18017752112E+03  0.00000000000E+00 0.  1.
        -15    1    1    2    0    0 -0.26517640487E+01 -0.91207143694E+01 -0.46904881826E+01  0.10741400820E+02  0.17770000000E+01 0. -1.
         15    1    1    2    0    0 -0.76458537912E+01 -0.30080857224E+02 -0.31212684651E+03  0.31367123408E+03  0.17770000000E+01 0.  1.
</event>
<event>
 6    1  0.1823098E-004  0.5089966E+03  0.7546771E-02  0.9379901E-01
        -11   -1    0    0    0    0  0.00000000000E+00  0.00000000000E+00  0.50000000000E+03  0.50000000000E+03  0.00000000000E+00 0. -1.
         11   -1    0    0    0    0 -0.00000000000E+00 -0.00000000000E+00 -0.50000000000E+03  0.50000000000E+03  0.00000000000E+00 0.  1.
        -11    1    1    2    0    0 -0.31209142524E+02 -0.93306197894E+01  0.48992172400E+03  0.49100342839E+03  0.00000000000E+00 0. -1.
         11    1    1    2    0    0  0.80350510381E+01 -0.14869082148E+02 -0.44984751659E+03  0.45016490293E+03  0.00000000000E+00 0.  1.
        -15    1    1    2    0    0  0.96470467466E+01  0.19686940486E+02 -0.38546400548E+02  0.44380444577E+02  0.17770000000E+01 0.  1.
         15    1    1    2    0    0  0.13527044739E+02  0.45127614509E+01 -0.15278068589E+01  0.14451224103E+02  0.17770000000E+01 0. -1.
</event>
<event>
 6    1  0.1823098E-004  0.5009720E+03  0.7546771E-02  0.9397637E-01
        -11   -1    0    0    0    0  0.00000000000E+00  0.00000000000E+00  0.50000000000E+03  0.50000000000E+03  0.00000000000E+00 0. -1.
         11   -1    0    0    0    0 -0.00000000000E+00 -0.00000000000E+00 -0.50000000000E+03  0.50000000000E+03  0.00000000000E+00 0. -1.
        -11    1    1    2    0    0  0.20288033085E+01 -0.71886729091E+01  0.44193546128E+03  0.44199858031E+03  0.00000000000E+00 0. -1.
         11    1    1    2    0    0  0.99308687242E+01 -0.67113000946E+00 -0.49892872637E+03  0.49902800178E+03  0.00000000000E+00 0. -1.
        -15    1    1    2    0    0 -0.94138408420E+01  0.45195251785E+01  0.40089396821E+02  0.41465214020E+02  0.17770000000E+01 0.  1.
         15    1    1    2    0    0 -0.25458311907E+01  0.33402777401E+01  0.16903868269E+02  0.17508203885E+02  0.17770000000E+01 0.  1.
</event>
<event>
 6    1  0.1823098E-004  0.5008182E+03  0.7546771E-02  0.9397981E-01
        -11   -1    0    0    0    0  0.00000000000E+00  0.00000000000E+00  0.50000000000E+03  0.50000000000E+03  0.00000000000E+00 0.  1.
         11   -1    0    0    0    0 -0.00000000000E+00 -0.00000000000E+00 -0.50000000000E+03  0.50000000000E+03  0.00000000000E+00 0.  1.
        -11    1    1    2    0    0 -0.28201322755E+01  0.47784428223E+01  0.30107069431E+03  0.30112181859E+03  0.00000000000E+00 0.  1.
         11    1    1    2    0    0  0.18570237860E+02  0.92221212641E+01 -0.49875101275E+03  0.49918180453E+03  0.00000000000E+00 0.  1.
        -15    1    1    2    0    0 -0.12274216263E+02 -0.41040157277E+01  0.51556935082E+02  0.53186225792E+02  0.17770000000E+01 0. -1.
         15    1    1    2    0    0 -0.34758893217E+01 -0.98965483587E+01  0.14612338336E+03  0.14651015108E+03  0.17770000000E+01 0.  1.
</event>
<event>
 6    1  0.1823098E-004  0.5005449E+03  0.7546771E-02  0.9398591E-01
        -11   -1    0    0    0    0  0.00000000000E+00  0.00000000000E+00  0.50000000000E+03  0.50000000000E+03  0.00000000000E+00 0.  1.
         11   -1    0    0    0    0 -0.00000000000E+00 -0.00000000000E+00 -0.50000000000E+03  0.50000000000E+03  0.00000000000E+00 0. -1.
        -11    1    1    2    0    0  0.67974829762E+01 -0.27883635842E+01  0.17331380690E+03  0.17346946823E+03  0.00000000000E+00 0.  1.
         11    1    1    2    0    0  0.99486733749E+01  0.25601324280E+02 -0.49869933459E+03  0.49945513335E+03  0.00000000000E+00 0. -1.
        -15    1    1    2    0    0  0.11776315897E+01 -0.68516473093E+01  0.13252325357E+03  0.13271737774E+03  0.17770000000E+01 0. -1.
         15    1    1    2    0    0 -0.17923787941E+02 -0.15961313386E+02  0.19286227411E+03  0.19435802069E+03  0.17770000000E+01 0.  1.
</event>
<event>
 6    1  0.1823098E-004  0.5118008E+03  0.7546771E-02  0.9373785E-01
        -11   -1    0    0    0    0  0.00000000000E+00  0.00000000000E+00  0.50000000000E+03  0.50000000000E+03  0.00000000000E+00 0. -1.
         11   -1    0    0    0    0 -0.00000000000E+00 -0.00000000000E+00 -0.50000000000E+03  0.50000000000E+03  0.00000000000E+00 0. -1.
        -11    1    1    2    0    0 -0.46296449586E+01  0.13901577918E+02  0.41517796367E+03  0.41543643196E+03  0.00000000000E+00 0. -1.
         11    1    1    2    0    0 -0.64657526689E+01  0.44501999707E+02 -0.48612367044E+03  0.48819919797E+03  0.00000000000E+00 0. -1.
        -15    1    1    2    0    0 -0.19170739787E+01 -0.53650152512E+01  0.22703744294E+02  0.23475014276E+02  0.17770000000E+01 0. -1.
         15    1    1    2    0    0  0.13012471606E+02 -0.53038562374E+02  0.48241962476E+02  0.72889355797E+02  0.17770000000E+01 0.  1.
</event>
<event>
 6    1  0.1823098E-004  0.4884462E+03  0.7546771E-02  0.9426040E-01
        -11   -1    0    0    0    0  0.00000000000E+00  0.00000000000E+00  0.50000000000E+03  0.50000000000E+03  0.00000000000E+00 0. -1.
         11   -1    0    0    0    0 -0.00000000000E+00 -0.00000000000E+00 -0.50000000000E+03  0.50000000000E+03  0.00000000000E+00 0.  1.
        -11    1    1    2    0    0  0.33403421121E+00 -0.73020224790E+01  0.49142650389E+03  0.49148086416E+03  0.00000000000E+00 0. -1.
         11    1    1    2    0    0 -0.13403166490E+02 -0.28764340182E+01 -0.48537719891E+03  0.48557074043E+03  0.00000000000E+00 0.  1.
        -15    1    1    2    0    0  0.81914073508E+01  0.63057084998E+01 -0.10693256043E+02  0.14978803953E+02  0.17770000000E+01 0.  1.
         15    1    1    2    0    0  0.48777249281E+01  0.38727479974E+01  0.46439510589E+01  0.79695914552E+01  0.17770000000E+01 0. -1.
</event>
<event>
 6    1  0.1823098E-004  0.5010134E+03  0.7546771E-02  0.9397545E-01
        -11   -1    0    0    0    0  0.00000000000E+00  0.00000000000E+00  0.50000000000E+03  0.50000000000E+03  0.00000000000E+00 0. -1.
         11   -1    0    0    0    0 -0.00000000000E+00 -0.00000000000E+00 -0.50000000000E+03  0.50000000000E+03  0.00000000000E+00 0. -1.
        -11    1    1    2    0    0  0.58663731526E+01 -0.47029364784E+00  0.38698933815E+03  0.38703408551E+03  0.00000000000E+00 0. -1.
         11    1    1    2    0    0 -0.24664100016E+02  0.51229485806E+00 -0.49837641766E+03  0.49898660699E+03  0.00000000000E+00 0. -1.
        -15    1    1    2    0    0  0.21204573767E+00  0.42919211371E+01  0.14970170415E+02  0.15675754582E+02  0.17770000000E+01 0. -1.
         15    1    1    2    0    0  0.18585681125E+02 -0.43339223473E+01  0.96416909101E+02  0.98303552914E+02  0.17770000000E+01 0.  1.
</event>
<event>
 6    1  0.1823098E-004  0.5028467E+03  0.7546771E-02  0.9393462E-01
        -11   -1    0    0    0    0  0.00000000000E+00  0.00000000000E+00  0.50000000000E+03  0.50000000000E+03  0.00000000000E+00 0. -1.
         11   -1    0    0    0    0 -0.00000000000E+00 -0.00000000000E+00 -0.50000000000E+03  0.50000000000E+03  0.00000000000E+00 0. -1.
        -11    1    1    2    0    0 -0.54857679847E+01 -0.26477183933E+01  0.42113986373E+03  0.42118391337E+03  0.00000000000E+00 0. -1.
         11    1    1    2    0    0 -0.90133093404E+01  0.16237043581E+02 -0.49680633081E+03  0.49715330801E+03  0.00000000000E+00 0. -1.
        -15    1    1    2    0    0  0.95469889961E+01 -0.16800547332E+02  0.30997625928E+02  0.36570670375E+02  0.17770000000E+01 0.  1.
         15    1    1    2    0    0  0.49520883289E+01  0.32112221442E+01  0.44668841158E+02  0.45092108244E+02  0.17770000000E+01 0. -1.
</event>
<event>
 6    1  0.1823098E-004  0.5002208E+03  0.7546771E-02  0.9399316E-01
        -11   -1    0    0    0    0  0.00000000000E+00  0.00000000000E+00  0.50000000000E+03  0.50000000000E+03  0.00000000000E+00 0. -1.
         11   -1    0    0    0    0 -0.00000000000E+00 -0.00000000000E+00 -0.50000000000E+03  0.50000000000E+03  0.00000000000E+00 0. -1.
        -11    1    1    2    0    0  0.54275432024E+00  0.67557720183E+00  0.45051646634E+02  0.45059980595E+02  0.00000000000E+00 0. -1.
         11    1    1    2    0    0  0.12438940691E+02  0.30568293446E+02 -0.49868836279E+03  0.49977918223E+03  0.00000000000E+00 0. -1.
        -15    1    1    2    0    0 -0.45137826010E+01 -0.63510104851E+00  0.91155488079E+02  0.91286682066E+02  0.17770000000E+01 0.  1.
         15    1    1    2    0    0 -0.84679124107E+01 -0.30608769599E+02  0.36248122808E+03  0.36387415511E+03  0.17770000000E+01 0. -1.
</event>
<event>
 6    1  0.1823098E-004  0.5050190E+03  0.7546771E-02  0.9388649E-01
        -11   -1    0    0    0    0  0.00000000000E+00  0.00000000000E+00  0.50000000000E+03  0.50000000000E+03  0.00000000000E+00 0. -1.
         11   -1    0    0    0    0 -0.00000000000E+00 -0.00000000000E+00 -0.50000000000E+03  0.50000000000E+03  0.00000000000E+00 0. -1.
        -11    1    1    2    0    0 -0.13389895544E+02 -0.84747273734E+01  0.44774211084E+03  0.44802244154E+03  0.00000000000E+00 0. -1.
         11    1    1    2    0    0 -0.90122204770E+01  0.98411213344E+01 -0.49480109842E+03  0.49498100447E+03  0.00000000000E+00 0. -1.
        -15    1    1    2    0    0  0.26430597335E+02 -0.35708693008E+01  0.35545807796E+02  0.44474596838E+02  0.17770000000E+01 0.  1.
         15    1    1    2    0    0 -0.40284813139E+01  0.22044753397E+01  0.11513179786E+02  0.12521957156E+02  0.17770000000E+01 0. -1.
</event>
<event>
 6    1  0.1823098E-004  0.5059063E+03  0.7546771E-02  0.9386690E-01
        -11   -1    0    0    0    0  0.00000000000E+00  0.00000000000E+00  0.50000000000E+03  0.50000000000E+03  0.00000000000E+00 0. -1.
         11   -1    0    0    0    0 -0.00000000000E+00 -0.00000000000E+00 -0.50000000000E+03  0.50000000000E+03  0.00000000000E+00 0. -1.
        -11    1    1    2    0    0  0.17057507265E+01  0.15377619643E+02  0.49385134972E+03  0.49409365144E+03  0.00000000000E+00 0. -1.
         11    1    1    2    0    0  0.18365843826E+02  0.51681220917E+00 -0.45915485482E+03  0.45952230851E+03  0.00000000000E+00 0. -1.
        -15    1    1    2    0    0 -0.21886490264E+02 -0.11758947525E+02 -0.23780462952E+02  0.34437761979E+02  0.17770000000E+01 0.  1.
         15    1    1    2    0    0  0.18148957110E+01 -0.41354843272E+01 -0.10916031956E+02  0.11946278070E+02  0.17770000000E+01 0. -1.
</event>
<event>
 6    1  0.1823098E-004  0.5001057E+03  0.7546771E-02  0.9399573E-01
        -11   -1    0    0    0    0  0.00000000000E+00  0.00000000000E+00  0.50000000000E+03  0.50000000000E+03  0.00000000000E+00 0. -1.
         11   -1    0    0    0    0 -0.00000000000E+00 -0.00000000000E+00 -0.50000000000E+03  0.50000000000E+03  0.00000000000E+00 0.  1.
        -11    1    1    2    0    0 -0.72539501403E+01 -0.45996441371E+01  0.49982048231E+03  0.49989427988E+03  0.00000000000E+00 0. -1.
         11    1    1    2    0    0  0.65223216324E+01  0.66121766359E+01 -0.18752697408E+03  0.18775683094E+03  0.00000000000E+00 0.  1.
        -15    1    1    2    0    0 -0.36891304122E+00 -0.27818244062E+01 -0.23444013164E+03  0.23446365965E+03  0.17770000000E+01 0.  1.
         15    1    1    2    0    0  0.11005415491E+01  0.76929190738E+00 -0.77853376602E+02  0.77885229531E+02  0.17770000000E+01 0.  1.
</event>
<event>
 6    1  0.1823098E-004  0.5091220E+03  0.7546771E-02  0.9379627E-01
        -11   -1    0    0    0    0  0.00000000000E+00  0.00000000000E+00  0.50000000000E+03  0.50000000000E+03  0.00000000000E+00 0. -1.
         11   -1    0    0    0    0 -0.00000000000E+00 -0.00000000000E+00 -0.50000000000E+03  0.50000000000E+03  0.00000000000E+00 0. -1.
        -11    1    1    2    0    0 -0.10921142219E+02  0.39847250180E+01  0.49074030055E+03  0.49087798073E+03  0.00000000000E+00 0. -1.
         11    1    1    2    0    0 -0.14453830603E+02  0.19658107639E+01 -0.47380470641E+03  0.47402919472E+03  0.00000000000E+00 0. -1.
        -15    1    1    2    0    0  0.13611761904E+02 -0.58348668424E+01 -0.17729237595E+02  0.23169146033E+02  0.17770000000E+01 0. -1.
         15    1    1    2    0    0  0.11763210919E+02 -0.11566893951E+00  0.79364344802E+00  0.11923678516E+02  0.17770000000E+01 0.  1.
</event>
<event>
 6    1  0.1823098E-004  0.5088194E+03  0.7546771E-02  0.9380289E-01
        -11   -1    0    0    0    0  0.00000000000E+00  0.00000000000E+00  0.50000000000E+03  0.50000000000E+03  0.00000000000E+00 0. -1.
         11   -1    0    0    0    0 -0.00000000000E+00 -0.00000000000E+00 -0.50000000000E+03  0.50000000000E+03  0.00000000000E+00 0.  1.
        -11    1    1    2    0    0 -0.66265488087E+01 -0.40492349583E+01  0.49111921353E+03  0.49118060767E+03  0.00000000000E+00 0. -1.
         11    1    1    2    0    0 -0.41181767641E+02 -0.26437678026E+02 -0.35551642873E+03  0.35886880597E+03  0.00000000000E+00 0.  1.
        -15    1    1    2    0    0  0.31511106973E+01  0.76090240711E+01 -0.44762463552E+01  0.95405060859E+01  0.17770000000E+01 0. -1.
         15    1    1    2    0    0  0.44657205752E+02  0.22877888913E+02 -0.13112653845E+03  0.14041008027E+03  0.17770000000E+01 0.  1.
</event>
<event>
 6    1  0.1823098E-004  0.5072633E+03  0.7546771E-02  0.9383703E-01
        -11   -1    0    0    0    0  0.00000000000E+00  0.00000000000E+00  0.50000000000E+03  0.50000000000E+03  0.00000000000E+00 0. -1.
         11   -1    0    0    0    0 -0.00000000000E+00 -0.00000000000E+00 -0.50000000000E+03  0.50000000000E+03  0.00000000000E+00 0. -1.
        -11    1    1    2    0    0 -0.95232685587E+01 -0.13263521956E+02  0.49246609752E+03  0.49273671556E+03  0.00000000000E+00 0. -1.
         11    1    1    2    0    0 -0.20980176851E+02 -0.16026359781E+02 -0.42625596044E+03  0.42707277581E+03  0.00000000000E+00 0. -1.
        -15    1    1    2    0    0  0.89459733060E+01  0.46325022480E+00 -0.11670080765E+02  0.14818689322E+02  0.17770000000E+01 0.  1.
         15    1    1    2    0    0  0.21557472104E+02  0.28826631513E+02 -0.54540056310E+02  0.65371819304E+02  0.17770000000E+01 0. -1.
</event>
<event>
 6    1  0.1823098E-004  0.5001664E+03  0.7546771E-02  0.9399437E-01
        -11   -1    0    0    0    0  0.00000000000E+00  0.00000000000E+00  0.50000000000E+03  0.50000000000E+03  0.00000000000E+00 0.  1.
         11   -1    0    0    0    0 -0.00000000000E+00 -0.00000000000E+00 -0.50000000000E+03  0.50000000000E+03  0.00000000000E+00 0.  1.
        -11    1    1    2    0    0  0.59112940335E-01 -0.80756967487E+01  0.49976834289E+03  0.49983358924E+03  0.00000000000E+00 0.  1.
         11    1    1    2    0    0 -0.72686080591E+01  0.10750730164E+01 -0.22539320729E+03  0.22551294051E+03  0.00000000000E+00 0.  1.
        -15    1    1    2    0    0  0.71880165533E+01  0.46632757389E+01 -0.15868969203E+03  0.15893077049E+03  0.17770000000E+01 0.  1.
         15    1    1    2    0    0  0.21478565483E-01  0.23373479933E+01 -0.11568544357E+03  0.11572269976E+03  0.17770000000E+01 0. -1.
</event>
<event>
 6    1  0.1823098E-004  0.5035905E+03  0.7546771E-02  0.9391811E-01
        -11   -1    0    0    0    0  0.00000000000E+00  0.00000000000E+00  0.50000000000E+03  0.50000000000E+03  0.00000000000E+00 0.  1.
         11   -1    0    0    0    0 -0.00000000000E+00 -0.00000000000E+00 -0.50000000000E+03  0.50000000000E+03  0.00000000000E+00 0.  1.
        -11    1    1    2    0    0 -0.14078565336E+02 -0.15870546189E+02  0.49595599815E+03  0.49640954095E+03  0.00000000000E+00 0.  1.
         11    1    1    2    0    0 -0.45668022697E+01  0.16914390764E+02 -0.41031380986E+03  0.41068768530E+03  0.00000000000E+00 0.  1.
        -15    1    1    2    0    0  0.14447997812E+02  0.57053628747E+01 -0.82820899949E+02  0.84283776634E+02  0.17770000000E+01 0.  1.
         15    1    1    2    0    0  0.41973697938E+01 -0.67492074494E+01 -0.28212883419E+01  0.86189971162E+01  0.17770000000E+01 0. -1.
</event>
<event>
 6    1  0.1823098E-004  0.5125801E+03  0.7546771E-02  0.9372093E-01
        -11   -1    0    0    0    0  0.00000000000E+00  0.00000000000E+00  0.50000000000E+03  0.50000000000E+03  0.00000000000E+00 0. -1.
         11   -1    0    0    0    0 -0.00000000000E+00 -0.00000000000E+00 -0.50000000000E+03  0.50000000000E+03  0.00000000000E+00 0.  1.
        -11    1    1    2    0    0 -0.24147982633E+01  0.49410218389E+02  0.48490305312E+03  0.48741991327E+03  0.00000000000E+00 0. -1.
         11    1    1    2    0    0  0.69545611573E+02 -0.36382786358E+02 -0.16576612956E+03  0.18340858470E+03  0.00000000000E+00 0.  1.
        -15    1    1    2    0    0 -0.45114816526E+02 -0.22195357835E+02 -0.14676755648E+03  0.15515106814E+03  0.17770000000E+01 0.  1.
         15    1    1    2    0    0 -0.22015996784E+02  0.91679258039E+01 -0.17236936707E+03  0.17402043389E+03  0.17770000000E+01 0. -1.
</event>
<event>
 6    1  0.1823098E-004  0.5001801E+03  0.7546771E-02  0.9399407E-01
        -11   -1    0    0    0    0  0.00000000000E+00  0.00000000000E+00  0.50000000000E+03  0.50000000000E+03  0.00000000000E+00 0.  1.
         11   -1    0    0    0    0 -0.00000000000E+00 -0.00000000000E+00 -0.50000000000E+03  0.50000000000E+03  0.00000000000E+00 0. -1.
        -11    1    1    2    0    0  0.26886070034E+01  0.79734666025E+01  0.49974904252E+03  0.49981987783E+03  0.00000000000E+00 0.  1.
         11    1    1    2    0    0 -0.51181942798E+01 -0.81064812239E+01 -0.23177116202E+03  0.23196935680E+03  0.00000000000E+00 0. -1.
        -15    1    1    2    0    0 -0.32770636737E+01  0.53027279164E-01 -0.45462791320E+02  0.45615403997E+02  0.17770000000E+01 0. -1.
         15    1    1    2    0    0  0.57066509501E+01  0.79987342313E-01 -0.22251508918E+03  0.22259536137E+03  0.17770000000E+01 0. -1.
</event>
<event>
 6    1  0.1823098E-004  0.5044143E+03  0.7546771E-02  0.9389986E-01
        -11   -1    0    0    0    0  0.00000000000E+00  0.00000000000E+00  0.50000000000E+03  0.50000000000E+03  0.00000000000E+00 0.  1.
         11   -1    0    0    0    0 -0.00000000000E+00 -0.00000000000E+00 -0.50000000000E+03  0.50000000000E+03  0.00000000000E+00 0.  1.
        -11    1    1    2    0    0  0.10833318525E+01 -0.15482159252E+02  0.49534260019E+03  0.49558567617E+03  0.00000000000E+00 0.  1.
         11    1    1    2    0    0  0.87929157847E+01  0.74404109384E+01 -0.48451258596E+03  0.48464948265E+03  0.00000000000E+00 0.  1.
        -15    1    1    2    0    0 -0.92097548435E+01  0.32936616879E+01 -0.29471022420E+01  0.10368747862E+02  0.17770000000E+01 0. -1.
         15    1    1    2    0    0 -0.66649279362E+00  0.47480866254E+01 -0.78829119859E+01  0.93960933171E+01  0.17770000000E+01 0.  1.
</event>
<event>
 6    1  0.1823098E-004  0.4911940E+03  0.7546771E-02  0.9419732E-01
        -11   -1    0    0    0    0  0.00000000000E+00  0.00000000000E+00  0.50000000000E+03  0.50000000000E+03  0.00000000000E+00 0.  1.
         11   -1    0    0    0    0 -0.00000000000E+00 -0.00000000000E+00 -0.50000000000E+03  0.50000000000E+03  0.00000000000E+00 0. -1.
        -11    1    1    2    0    0 -0.14939959578E+00 -0.82800422912E+01  0.48722009141E+03  0.48729046666E+03  0.00000000000E+00 0.  1.
         11    1    1    2    0    0  0.27578302807E+01 -0.62367233591E+01 -0.49519355218E+03  0.49524050366E+03  0.00000000000E+00 0. -1.
        -15    1    1    2    0    0 -0.30762315168E+01  0.11114467639E+02  0.62284471894E+01  0.13226710651E+02  0.17770000000E+01 0. -1.
         15    1    1    2    0    0  0.46780083189E+00  0.34022980112E+01  0.17450135752E+01  0.42423190301E+01  0.17770000000E+01 0.  1.
</event>
<event>
 6    1  0.1823098E-004  0.5005775E+03  0.7546771E-02  0.9398518E-01
        -11   -1    0    0    0    0  0.00000000000E+00  0.00000000000E+00  0.50000000000E+03  0.50000000000E+03  0.00000000000E+00 0. -1.
         11   -1    0    0    0    0 -0.00000000000E+00 -0.00000000000E+00 -0.50000000000E+03  0.50000000000E+03  0.00000000000E+00 0. -1.
        -11    1    1    2    0    0 -0.22183516404E+02 -0.26378167753E+00  0.26257742047E+03  0.26351295930E+03  0.00000000000E+00 0. -1.
         11    1    1    2    0    0  0.18298044846E+02  0.10946664254E+02  0.23610368656E+03  0.23706454546E+03  0.00000000000E+00 0. -1.
        -15    1    1    2    0    0  0.11572304663E+02 -0.14242255301E+02 -0.31765850814E+03  0.31819309482E+03  0.17770000000E+01 0. -1.
         15    1    1    2    0    0 -0.76868331050E+01  0.35593727247E+01 -0.18102259889E+03  0.18122940042E+03  0.17770000000E+01 0.  1.
</event>
<event>
 6    1  0.1823098E-004  0.5007250E+03  0.7546771E-02  0.9398189E-01
        -11   -1    0    0    0    0  0.00000000000E+00  0.00000000000E+00  0.50000000000E+03  0.50000000000E+03  0.00000000000E+00 0. -1.
         11   -1    0    0    0    0 -0.00000000000E+00 -0.00000000000E+00 -0.50000000000E+03  0.50000000000E+03  0.00000000000E+00 0. -1.
        -11    1    1    2    0    0  0.73000259335E+01 -0.16443580088E+02  0.49895075727E+03  0.49927501428E+03  0.00000000000E+00 0. -1.
         11    1    1    2    0    0  0.81541201163E+01 -0.26234990101E+01 -0.24683609090E+03  0.24698467197E+03  0.00000000000E+00 0. -1.
        -15    1    1    2    0    0 -0.35059252531E+01  0.14953851448E+01 -0.12704638178E+02  0.13382572580E+02  0.17770000000E+01 0. -1.
         15    1    1    2    0    0 -0.11948220797E+02  0.17571693953E+02 -0.23941002820E+03  0.24035774117E+03  0.17770000000E+01 0. -1.
</event>
<event>
 6    1  0.1823098E-004  0.5006603E+03  0.7546771E-02  0.9398333E-01
        -11   -1    0    0    0    0  0.00000000000E+00  0.00000000000E+00  0.50000000000E+03  0.50000000000E+03  0.00000000000E+00 0.  1.
         11   -1    0    0    0    0 -0.00000000000E+00 -0.00000000000E+00 -0.50000000000E+03  0.50000000000E+03  0.00000000000E+00 0.  1.
        -11    1    1    2    0    0 -0.10026038469E+02 -0.44640872612E+01  0.49921907976E+03  0.49933970313E+03  0.00000000000E+00 0.  1.
         11    1    1    2    0    0 -0.86946961834E+01  0.68402693976E+01 -0.25066056585E+03  0.25090457608E+03  0.00000000000E+00 0.  1.
        -15    1    1    2    0    0  0.66048378382E+01 -0.29400487648E+01 -0.17687470144E+03  0.17703131223E+03  0.17770000000E+01 0.  1.
         15    1    1    2    0    0  0.12115896814E+02  0.56386662840E+00 -0.71683812473E+02  0.72724408563E+02  0.17770000000E+01 0.  1.
</event>
<event>
 6    1  0.1823098E-004  0.4877489E+03  0.7546771E-02  0.9427647E-01
        -11   -1    0    0    0    0  0.00000000000E+00  0.00000000000E+00  0.50000000000E+03  0.50000000000E+03  0.00000000000E+00 0. -1.
         11   -1    0    0    0    0 -0.00000000000E+00 -0.00000000000E+00 -0.50000000000E+03  0.50000000000E+03  0.00000000000E+00 0. -1.
        -11    1    1    2    0    0  0.17196912717E+01  0.74377473900E+01  0.48952899884E+03  0.48958851919E+03  0.00000000000E+00 0. -1.
         11    1    1    2    0    0 -0.65815016982E+01 -0.23194266620E+02 -0.48545888084E+03  0.48605721387E+03  0.00000000000E+00 0. -1.
        -15    1    1    2    0    0  0.76880807893E+01  0.11947975045E+02  0.39639845534E+01  0.14857038616E+02  0.17770000000E+01 0.  1.
         15    1    1    2    0    0 -0.28262703629E+01  0.38085441853E+01 -0.80341025454E+01  0.94972283160E+01  0.17770000000E+01 0. -1.
</event>
<event>
 6    1  0.1823098E-004  0.5000756E+03  0.7546771E-02  0.9399641E-01
        -11   -1    0    0    0    0  0.00000000000E+00  0.00000000000E+00  0.50000000000E+03  0.50000000000E+03  0.00000000000E+00 0. -1.
         11   -1    0    0    0    0 -0.00000000000E+00 -0.00000000000E+00 -0.50000000000E+03  0.50000000000E+03  0.00000000000E+00 0.  1.
        -11    1    1    2    0    0  0.56365041813E+01  0.42569780727E+01  0.30698734147E+03  0.30706859147E+03  0.00000000000E+00 0. -1.
         11    1    1    2    0    0 -0.11016735815E+02 -0.52536402576E+01 -0.49977537252E+03  0.49992438646E+03  0.00000000000E+00 0.  1.
        -15    1    1    2    0    0  0.56507178498E+01 -0.68899264620E+00  0.16565956163E+03  0.16576686463E+03  0.17770000000E+01 0. -1.
         15    1    1    2    0    0 -0.27048621603E+00  0.16856548311E+01  0.27128469421E+02  0.27240157435E+02  0.17770000000E+01 0.  1.
</event>
<event>
 6    1  0.1823098E-004  0.5010711E+03  0.7546771E-02  0.9397416E-01
        -11   -1    0    0    0    0  0.00000000000E+00  0.00000000000E+00  0.50000000000E+03  0.50000000000E+03  0.00000000000E+00 0. -1.
         11   -1    0    0    0    0 -0.00000000000E+00 -0.00000000000E+00 -0.50000000000E+03  0.50000000000E+03  0.00000000000E+00 0.  1.
        -11    1    1    2    0    0 -0.63146011639E+00  0.28803423117E+01  0.18709133629E+03  0.18711457246E+03  0.00000000000E+00 0. -1.
         11    1    1    2    0    0 -0.11933980281E+02 -0.32888997985E+02 -0.49770065946E+03  0.49892890525E+03  0.00000000000E+00 0.  1.
        -15    1    1    2    0    0 -0.13340725351E+01 -0.43555271649E+01  0.98778117631E+02  0.98899062777E+02  0.17770000000E+01 0. -1.
         15    1    1    2    0    0  0.13899512932E+02  0.34364182838E+02  0.21183120554E+03  0.21505745951E+03  0.17770000000E+01 0. -1.
</event>
<event>
 6    1  0.1823098E-004  0.4881688E+03  0.7546771E-02  0.9426679E-01
        -11   -1    0    0    0    0  0.00000000000E+00  0.00000000000E+00  0.50000000000E+03  0.50000000000E+03  0.00000000000E+00 0.  1.
         11   -1    0    0    0    0 -0.00000000000E+00 -0.00000000000E+00 -0.50000000000E+03  0.50000000000E+03  0.00000000000E+00 0.  1.
        -11    1    1    2    0    0 -0.10148465017E+02  0.80431363300E+01  0.48652230574E+03  0.48669460380E+03  0.00000000000E+00 0.  1.
         11    1    1    2    0    0 -0.35681779923E+01  0.86707176768E+01 -0.48979812316E+03  0.48988785930E+03  0.00000000000E+00 0.  1.
        -15    1    1    2    0    0  0.35411005532E+01 -0.22616578412E+01  0.33387417019E+01  0.56532658235E+01  0.17770000000E+01 0. -1.
         15    1    1    2    0    0  0.10175542456E+02 -0.14452196166E+02 -0.62924279133E-01  0.17764271073E+02  0.17770000000E+01 0.  1.
</event>
<event>
 6    1  0.1823098E-004  0.4792227E+03  0.7546771E-02  0.9447539E-01
        -11   -1    0    0    0    0  0.00000000000E+00  0.00000000000E+00  0.50000000000E+03  0.50000000000E+03  0.00000000000E+00 0. -1.
         11   -1    0    0    0    0 -0.00000000000E+00 -0.00000000000E+00 -0.50000000000E+03  0.50000000000E+03  0.00000000000E+00 0. -1.
        -11    1    1    2    0    0  0.40727653794E+01  0.67860028126E+01  0.47814054546E+03  0.47820604185E+03  0.00000000000E+00 0. -1.
         11    1    1    2    0    0 -0.30621399713E+02 -0.14154095398E+02 -0.47945094068E+03  0.48063625857E+03  0.00000000000E+00 0. -1.
        -15    1    1    2    0    0  0.21468175480E+02  0.15352992211E+02  0.99089971984E+01  0.28247882801E+02  0.17770000000E+01 0.  1.
         15    1    1    2    0    0  0.50804588541E+01 -0.79848996256E+01 -0.85986019783E+01  0.12909816776E+02  0.17770000000E+01 0. -1.
</event>
<event>
 6    1  0.1823098E-004  0.5005609E+03  0.7546771E-02  0.9398556E-01
        -11   -1    0    0    0    0  0.00000000000E+00  0.00000000000E+00  0.50000000000E+03  0.50000000000E+03  0.00000000000E+00 0. -1.
         11   -1    0    0    0    0 -0.00000000000E+00 -0.00000000000E+00 -0.50000000000E+03  0.50000000000E+03  0.00000000000E+00 0.  1.
        -11    1    1    2    0    0  0.72185088207E+01  0.33063630107E+01  0.49937600789E+03  0.49943912158E+03  0.00000000000E+00 0. -1.
         11    1    1    2    0    0 -0.49774752825E+01 -0.15711227234E+02 -0.25308558527E+03  0.25362163037E+03  0.00000000000E+00 0.  1.
        -15    1    1    2    0    0  0.34828559381E+01  0.98062966544E+01 -0.11404638873E+03  0.11453396986E+03  0.17770000000E+01 0.  1.
         15    1    1    2    0    0 -0.57238894763E+01  0.25985675691E+01 -0.13224403389E+03  0.13240527819E+03  0.17770000000E+01 0. -1.
</event>
<event>
 6    1  0.1823098E-004  0.5010099E+03  0.7546771E-02  0.9397553E-01
        -11   -1    0    0    0    0  0.00000000000E+00  0.00000000000E+00  0.50000000000E+03  0.50000000000E+03  0.00000000000E+00 0.  1.
         11   -1    0    0    0    0 -0.00000000000E+00 -0.00000000000E+00 -0.50000000000E+03  0.50000000000E+03  0.00000000000E+00 0. -1.
        -11    1    1    2    0    0 -0.88853320994E+01 -0.13199405994E+02  0.49873635535E+03  0.49899010571E+03  0.00000000000E+00 0.  1.
         11    1    1    2    0    0  0.19284061291E+02  0.10693644293E+02 -0.45460747286E+03  0.45514193767E+03  0.00000000000E+00 0. -1.
        -15    1    1    2    0    0 -0.26829879984E+01  0.15125431131E+01 -0.65679255840E+01  0.74687071670E+01  0.17770000000E+01 0.  1.
         15    1    1    2    0    0 -0.77157411932E+01  0.99321858828E+00 -0.37560956912E+02  0.38399249452E+02  0.17770000000E+01 0.  1.
</event>
<event>
 6    1  0.1823098E-004  0.5094066E+03  0.7546771E-02  0.9379004E-01
        -11   -1    0    0    0    0  0.00000000000E+00  0.00000000000E+00  0.50000000000E+03  0.50000000000E+03  0.00000000000E+00 0. -1.
         11   -1    0    0    0    0 -0.00000000000E+00 -0.00000000000E+00 -0.50000000000E+03  0.50000000000E+03  0.00000000000E+00 0. -1.
        -11    1    1    2    0    0 -0.48857736358E+02  0.18856238295E+02  0.48779011805E+03  0.49059335034E+03  0.00000000000E+00 0. -1.
         11    1    1    2    0    0  0.13897516178E+02  0.39970039527E+02 -0.24948005423E+03  0.25304355845E+03  0.00000000000E+00 0. -1.
        -15    1    1    2    0    0 -0.18881460295E+02 -0.13465009795E+02 -0.74765006846E+02  0.78299297630E+02  0.17770000000E+01 0.  1.
         15    1    1    2    0    0  0.53841680474E+02 -0.45361268026E+02 -0.16354505698E+03  0.17806379358E+03  0.17770000000E+01 0. -1.
</event>
<event>
 6    1  0.1823098E-004  0.5003694E+03  0.7546771E-02  0.9398984E-01
        -11   -1    0    0    0    0  0.00000000000E+00  0.00000000000E+00  0.50000000000E+03  0.50000000000E+03  0.00000000000E+00 0.  1.
         11   -1    0    0    0    0 -0.00000000000E+00 -0.00000000000E+00 -0.50000000000E+03  0.50000000000E+03  0.00000000000E+00 0.  1.
        -11    1    1    2    0    0  0.13449927297E+02 -0.29411557969E+01  0.49944085852E+03  0.49963058563E+03  0.00000000000E+00 0.  1.
         11    1    1    2    0    0 -0.80263530444E+01  0.16261961407E+01 -0.96110728657E+02  0.96459001757E+02  0.00000000000E+00 0.  1.
        -15    1    1    2    0    0 -0.19105000184E+01 -0.40852323902E+01 -0.22259221454E+02  0.22780908734E+02  0.17770000000E+01 0.  1.
         15    1    1    2    0    0 -0.35130742346E+01  0.54001920464E+01 -0.38107090841E+03  0.38112950388E+03  0.17770000000E+01 0. -1.
</event>
<event>
 6    1  0.1823098E-004  0.5023173E+03  0.7546771E-02  0.9394639E-01
        -11   -1    0    0    0    0  0.00000000000E+00  0.00000000000E+00  0.50000000000E+03  0.50000000000E+03  0.00000000000E+00 0. -1.
         11   -1    0    0    0    0 -0.00000000000E+00 -0.00000000000E+00 -0.50000000000E+03  0.50000000000E+03  0.00000000000E+00 0. -1.
        -11    1    1    2    0    0  0.40379230926E+01 -0.43262700781E+01  0.39368058564E+03  0.39372506263E+03  0.00000000000E+00 0. -1.
         11    1    1    2    0    0  0.26832544669E+02 -0.32111743573E+01 -0.49694845940E+03  0.49768269851E+03  0.00000000000E+00 0. -1.
        -15    1    1    2    0    0 -0.27559789128E+02  0.58115592379E+01  0.77165558756E+02  0.82164453291E+02  0.17770000000E+01 0.  1.
         15    1    1    2    0    0 -0.33106786340E+01  0.17258851976E+01  0.26102315003E+02  0.26427785572E+02  0.17770000000E+01 0. -1.
</event>
<event>
 6    1  0.1823098E-004  0.5009596E+03  0.7546771E-02  0.9397665E-01
        -11   -1    0    0    0    0  0.00000000000E+00  0.00000000000E+00  0.50000000000E+03  0.50000000000E+03  0.00000000000E+00 0.  1.
         11   -1    0    0    0    0 -0.00000000000E+00 -0.00000000000E+00 -0.50000000000E+03  0.50000000000E+03  0.00000000000E+00 0. -1.
        -11    1    1    2    0    0  0.89993599893E+01 -0.80299607032E+00  0.31571886873E+03  0.31584812387E+03  0.00000000000E+00 0.  1.
         11    1    1    2    0    0  0.12622864369E+02  0.13335524823E+02 -0.49870242542E+03  0.49904036114E+03  0.00000000000E+00 0. -1.
        -15    1    1    2    0    0 -0.32562010601E+00 -0.45578964818E+00  0.39459252313E+02  0.39503216259E+02  0.17770000000E+01 0. -1.
         15    1    1    2    0    0 -0.21296604253E+02 -0.12076739105E+02  0.14352430439E+03  0.14560829873E+03  0.17770000000E+01 0. -1.
</event>
<event>
 6    1  0.1823098E-004  0.5042372E+03  0.7546771E-02  0.9390378E-01
        -11   -1    0    0    0    0  0.00000000000E+00  0.00000000000E+00  0.50000000000E+03  0.50000000000E+03  0.00000000000E+00 0.  1.
         11   -1    0    0    0    0 -0.00000000000E+00 -0.00000000000E+00 -0.50000000000E+03  0.50000000000E+03  0.00000000000E+00 0.  1.
        -11    1    1    2    0    0  0.32682426101E+00 -0.62284997692E+01  0.46261301909E+03  0.46265506207E+03  0.00000000000E+00 0.  1.
         11    1    1    2    0    0 -0.17909420792E+02  0.23968996720E+02 -0.49485906517E+03  0.49576280068E+03  0.00000000000E+00 0.  1.
        -15    1    1    2    0    0  0.16240110415E+02 -0.13591035224E+02  0.28574758129E+02  0.35610840427E+02  0.17770000000E+01 0. -1.
         15    1    1    2    0    0  0.13424861155E+01 -0.41494617265E+01  0.36712879465E+01  0.59712968253E+01  0.17770000000E+01 0.  1.
</event>
<event>
 6    1  0.1823098E-004  0.5002300E+03  0.7546771E-02  0.9399295E-01
        -11   -1    0    0    0    0  0.00000000000E+00  0.00000000000E+00  0.50000000000E+03  0.50000000000E+03  0.00000000000E+00 0.  1.
         11   -1    0    0    0    0 -0.00000000000E+00 -0.00000000000E+00 -0.50000000000E+03  0.50000000000E+03  0.00000000000E+00 0. -1.
        -11    1    1    2    0    0  0.80421371409E+00 -0.15862783845E+01  0.55297419675E+02  0.55326012521E+02  0.00000000000E+00 0.  1.
         11    1    1    2    0    0 -0.28202023202E+02  0.20280222192E+02 -0.49856133070E+03  0.49976998909E+03  0.00000000000E+00 0. -1.
        -15    1    1    2    0    0  0.26937157405E+02 -0.19266915903E+02  0.33816749680E+03  0.33978999119E+03  0.17770000000E+01 0.  1.
         15    1    1    2    0    0  0.46065208285E+00  0.57297209475E+00  0.10509641423E+03  0.10511400720E+03  0.17770000000E+01 0.  1.
</event>
<event>
 6    1  0.1823098E-004  0.5000805E+03  0.7546771E-02  0.9399630E-01
        -11   -1    0    0    0    0  0.00000000000E+00  0.00000000000E+00  0.50000000000E+03  0.50000000000E+03  0.00000000000E+00 0. -1.
         11   -1    0    0    0    0 -0.00000000000E+00 -0.00000000000E+00 -0.50000000000E+03  0.50000000000E+03  0.00000000000E+00 0. -1.
        -11    1    1    2    0    0 -0.48457600494E+01  0.23711185645E+00  0.16806440365E+03  0.16813441465E+03  0.00000000000E+00 0. -1.
         11    1    1    2    0    0  0.91352389907E+01 -0.10578575136E+02 -0.49972405245E+03  0.49991948096E+03  0.00000000000E+00 0. -1.
        -15    1    1    2    0    0 -0.60980459172E+01  0.86733540974E+01  0.25624285091E+03  0.25646826238E+03  0.17770000000E+01 0. -1.
         15    1    1    2    0    0  0.18085669759E+01  0.16681091820E+01  0.75416797886E+02  0.75477842014E+02  0.17770000000E+01 0. -1.
</event>
<event>
 6    1  0.1823098E-004  0.4779062E+03  0.7546771E-02  0.9450650E-01
        -11   -1    0    0    0    0  0.00000000000E+00  0.00000000000E+00  0.50000000000E+03  0.50000000000E+03  0.00000000000E+00 0. -1.
         11   -1    0    0    0    0 -0.00000000000E+00 -0.00000000000E+00 -0.50000000000E+03  0.50000000000E+03  0.00000000000E+00 0.  1.
        -11    1    1    2    0    0 -0.52046599282E+01 -0.47836178625E+01  0.48257491601E+03  0.48262668911E+03  0.00000000000E+00 0. -1.
         11    1    1    2    0    0 -0.19451751644E+02 -0.26273207338E+02 -0.47292816277E+03  0.47405664135E+03  0.00000000000E+00 0.  1.
        -15    1    1    2    0    0  0.66824555336E+01  0.91978290862E+00 -0.40866340668E+00  0.69875566071E+01  0.17770000000E+01 0. -1.
         15    1    1    2    0    0  0.17973956038E+02  0.30137042292E+02 -0.92380898324E+01  0.36329112934E+02  0.17770000000E+01 0.  1.
</event>
<event>
 6    1  0.1823098E-004  0.5089567E+03  0.7546771E-02  0.9379989E-01
        -11   -1    0    0    0    0  0.00000000000E+00  0.00000000000E+00  0.50000000000E+03  0.50000000000E+03  0.00000000000E+00 0. -1.
         11   -1    0    0    0    0 -0.00000000000E+00 -0.00000000000E+00 -0.50000000000E+03  0.50000000000E+03  0.00000000000E+00 0.  1.
        -11    1    1    2    0    0  0.30343065609E+01 -0.57449258037E+01  0.47180593118E+03  0.47185066270E+03  0.00000000000E+00 0. -1.
         11    1    1    2    0    0  0.16357625485E+02  0.13668221405E+02 -0.49058044580E+03  0.49104334431E+03  0.00000000000E+00 0.  1.
        -15    1    1    2    0    0 -0.14297140694E+02 -0.11266261079E+02  0.23071197306E+02  0.29441038447E+02  0.17770000000E+01 0. -1.
         15    1    1    2    0    0 -0.50947913524E+01  0.33429654777E+01 -0.42966826873E+01  0.76649545481E+01  0.17770000000E+01 0.  1.
</event>
<event>
 6    1  0.1823098E-004  0.4767833E+03  0.7546771E-02  0.9453312E-01
        -11   -1    0    0    0    0  0.00000000000E+00  0.00000000000E+00  0.50000000000E+03  0.50000000000E+03  0.00000000000E+00 0. -1.
         11   -1    0    0    0    0 -0.00000000000E+00 -0.00000000000E+00 -0.50000000000E+03  0.50000000000E+03  0.00000000000E+00 0.  1.
        -11    1    1    2    0    0  0.76430348473E+01  0.50847525010E+01  0.47330280561E+03  0.47339182132E+03  0.00000000000E+00 0. -1.
         11    1    1    2    0    0 -0.27699618541E+01 -0.28701510661E+02 -0.47963477991E+03  0.48050075078E+03  0.00000000000E+00 0.  1.
        -15    1    1    2    0    0 -0.90196217885E+00  0.32831620806E+02  0.11289099461E+02  0.34775427477E+02  0.17770000000E+01 0.  1.
         15    1    1    2    0    0 -0.39711108144E+01 -0.92148626461E+01 -0.49571251624E+01  0.11332000422E+02  0.17770000000E+01 0. -1.
</event>
<event>
 6    1  0.1823098E-004  0.5014859E+03  0.7546771E-02  0.9396491E-01
        -11   -1    0    0    0    0  0.00000000000E+00  0.00000000000E+00  0.50000000000E+03  0.50000000000E+03  0.00000000000E+00 0.  1.
         11   -1    0    0    0    0 -0.00000000000E+00 -0.00000000000E+00 -0.50000000000E+03  0.50000000000E+03  0.00000000000E+00 0.  1.
        -11    1    1    2    0    0 -0.48674825095E+01 -0.46337105216E+01  0.49846878300E+03  0.49851408334E+03  0.00000000000E+00 0.  1.
         11    1    1    2    0    0 -0.28928634284E+01  0.11498779184E+02 -0.42767068181E+03  0.42783501804E+03  0.00000000000E+00 0.  1.
        -15    1    1    2    0    0 -0.83503500685E+00  0.50552031325E+01 -0.16321935389E+02  0.17199292602E+02  0.17770000000E+01 0. -1.
         15    1    1    2    0    0  0.85953809448E+01 -0.11920271795E+02 -0.54476165797E+02  0.56451606020E+02  0.17770000000E+01 0.  1.
</event>
<event>
 6    1  0.1823098E-004  0.5038951E+03  0.7546771E-02  0.9391136E-01
        -11   -1    0    0    0    0  0.00000000000E+00  0.00000000000E+00  0.50000000000E+03  0.50000000000E+03  0.00000000000E+00 0. -1.
         11   -1    0    0    0    0 -0.00000000000E+00 -0.00000000000E+00 -0.50000000000E+03  0.50000000000E+03  0.00000000000E+00 0.  1.
        -11    1    1    2    0    0  0.81681220272E+01 -0.26277985097E+00  0.48885874178E+03  0.48892704638E+03  0.00000000000E+00 0. -1.
         11    1    1    2    0    0 -0.55759324138E+01  0.92428080459E+01 -0.49598744525E+03  0.49610489453E+03  0.00000000000E+00 0.  1.
        -15    1    1    2    0    0 -0.36527550120E+01 -0.68609975863E+00  0.49787814492E+00  0.41495739183E+01  0.17770000000E+01 0. -1.
         15    1    1    2    0    0  0.10605653986E+01 -0.82939284363E+01  0.66308253329E+01  0.10818485174E+02  0.17770000000E+01 0.  1.
</event>
<event>
 6    1  0.1823098E-004  0.5054923E+03  0.7546771E-02  0.9387603E-01
        -11   -1    0    0    0    0  0.00000000000E+00  0.00000000000E+00  0.50000000000E+03  0.50000000000E+03  0.00000000000E+00 0.  1.
         11   -1    0    0    0    0 -0.00000000000E+00 -0.00000000000E+00 -0.50000000000E+03  0.50000000000E+03  0.00000000000E+00 0.  1.
        -11    1    1    2    0    0  0.94169734503E+01 -0.14376771643E+01  0.40534424504E+03  0.40545616692E+03  0.00000000000E+00 0.  1.
         11    1    1    2    0    0 -0.16061502785E+02 -0.91088013278E+01 -0.49416287024E+03  0.49450771931E+03  0.00000000000E+00 0.  1.
        -15    1    1    2    0    0  0.10747542373E+02 -0.25424721125E+01  0.84936627830E+02  0.85670078251E+02  0.17770000000E+01 0.  1.
         15    1    1    2    0    0 -0.41030130382E+01  0.13088950605E+02  0.38819973708E+01  0.14366035518E+02  0.17770000000E+01 0. -1.
</event>
<event>
 6    1  0.2032450E-004  0.5000593E+03  0.7546771E-02  0.9399677E-01
        -11   -1    0    0    0    0  0.00000000000E+00  0.00000000000E+00  0.50000000000E+03  0.50000000000E+03  0.00000000000E+00 0. -1.
         11   -1    0    0    0    0 -0.00000000000E+00 -0.00000000000E+00 -0.50000000000E+03  0.50000000000E+03  0.00000000000E+00 0. -1.
        -11    1    1    2    0    0  0.33041132654E+01 -0.19517690143E+00  0.15915433640E+03  0.15918874977E+03  0.00000000000E+00 0. -1.
         11    1    1    2    0    0 -0.71753325380E+01  0.74985761682E+01 -0.49983292487E+03  0.49994066330E+03  0.00000000000E+00 0. -1.
        -15    1    1    2    0    0  0.65994637079E+00 -0.50559818253E+01  0.27403258999E+03  0.27408578327E+03  0.17770000000E+01 0. -1.
         15    1    1    2    0    0  0.32112729018E+01 -0.22474174414E+01  0.66645998475E+02  0.66784803664E+02  0.17770000000E+01 0.  1.
</event>
<event>
 6    1  0.1823098E-004  0.5005220E+03  0.7546771E-02  0.9398642E-01
        -11   -1    0    0    0    0  0.00000000000E+00  0.00000000000E+00  0.50000000000E+03  0.50000000000E+03  0.00000000000E+00 0. -1.
         11   -1    0    0    0    0 -0.00000000000E+00 -0.00000000000E+00 -0.50000000000E+03  0.50000000000E+03  0.00000000000E+00 0. -1.
        -11    1    1    2    0    0 -0.22726907675E+01  0.35000687264E+01  0.18473778935E+03  0.18478491934E+03  0.00000000000E+00 0. -1.
         11    1    1    2    0    0 -0.95398540800E+01  0.15792238560E+02 -0.49913708756E+03  0.49947796327E+03  0.00000000000E+00 0. -1.
        -15    1    1    2    0    0 -0.13604299121E+01 -0.12340816222E+02  0.94794412048E+02  0.95620524988E+02  0.17770000000E+01 0.  1.
         15    1    1    2    0    0  0.13172974760E+02 -0.69514910637E+01  0.21960488617E+03  0.22011659240E+03  0.17770000000E+01 0. -1.
</event>
<event>
 6    1  0.1823098E-004  0.5050950E+03  0.7546771E-02  0.9388481E-01
        -11   -1    0    0    0    0  0.00000000000E+00  0.00000000000E+00  0.50000000000E+03  0.50000000000E+03  0.00000000000E+00 0.  1.
         11   -1    0    0    0    0 -0.00000000000E+00 -0.00000000000E+00 -0.50000000000E+03  0.50000000000E+03  0.00000000000E+00 0.  1.
        -11    1    1    2    0    0 -0.12352197462E+02  0.46748263010E+01  0.49136341087E+03  0.49154087554E+03  0.00000000000E+00 0.  1.
         11    1    1    2    0    0  0.78265251222E+01 -0.74990756179E+01 -0.49478624610E+03  0.49490496053E+03  0.00000000000E+00 0.  1.
        -15    1    1    2    0    0  0.28134678956E+00  0.57437777818E+01 -0.15081123669E+01  0.62050198335E+01  0.17770000000E+01 0. -1.
         15    1    1    2    0    0  0.42443255505E+01 -0.29195284649E+01  0.49309475935E+01  0.73491441003E+01  0.17770000000E+01 0.  1.
</event>
<event>
 6    1  0.1823098E-004  0.5001709E+03  0.7546771E-02  0.9399427E-01
        -11   -1    0    0    0    0  0.00000000000E+00  0.00000000000E+00  0.50000000000E+03  0.50000000000E+03  0.00000000000E+00 0.  1.
         11   -1    0    0    0    0 -0.00000000000E+00 -0.00000000000E+00 -0.50000000000E+03  0.50000000000E+03  0.00000000000E+00 0. -1.
        -11    1    1    2    0    0 -0.50451153747E+01  0.49259747608E+01  0.49977940061E+03  0.49982913849E+03  0.00000000000E+00 0.  1.
         11    1    1    2    0    0  0.56238390128E+01  0.46093228566E+01 -0.24661104597E+03  0.24671822271E+03  0.00000000000E+00 0. -1.
        -15    1    1    2    0    0 -0.28015746040E+01 -0.80726911870E+01 -0.19696646880E+03  0.19715974418E+03  0.17770000000E+01 0. -1.
         15    1    1    2    0    0  0.22228509658E+01 -0.14626064304E+01 -0.56201885832E+02  0.56292894614E+02  0.17770000000E+01 0.  1.
</event>
<event>
 6    1  0.1823098E-004  0.5121674E+03  0.7546771E-02  0.9372988E-01
        -11   -1    0    0    0    0  0.00000000000E+00  0.00000000000E+00  0.50000000000E+03  0.50000000000E+03  0.00000000000E+00 0. -1.
         11   -1    0    0    0    0 -0.00000000000E+00 -0.00000000000E+00 -0.50000000000E+03  0.50000000000E+03  0.00000000000E+00 0.  1.
        -11    1    1    2    0    0  0.16121781114E+02 -0.11776847885E+02  0.48742383113E+03  0.48783255029E+03  0.00000000000E+00 0. -1.
         11    1    1    2    0    0  0.66614072901E+01 -0.36077106250E+01 -0.46720029044E+03  0.46726170537E+03  0.00000000000E+00 0.  1.
        -15    1    1    2    0    0 -0.28190086305E+02  0.11918838872E+02 -0.22317884178E+02  0.37920777538E+02  0.17770000000E+01 0.  1.
         15    1    1    2    0    0  0.54068979015E+01  0.34657196382E+01  0.20943434851E+01  0.69849667974E+01  0.17770000000E+01 0. -1.
</event>
<event>
 6    1  0.1823098E-004  0.5047259E+03  0.7546771E-02  0.9389297E-01
        -11   -1    0    0    0    0  0.00000000000E+00  0.00000000000E+00  0.50000000000E+03  0.50000000000E+03  0.00000000000E+00 0.  1.
         11   -1    0    0    0    0 -0.00000000000E+00 -0.00000000000E+00 -0.50000000000E+03  0.50000000000E+03  0.00000000000E+00 0. -1.
        -11    1    1    2    0    0  0.20493451635E+02  0.44122342617E+02  0.49287900808E+03  0.49527414559E+03  0.00000000000E+00 0.  1.
         11    1    1    2    0    0 -0.14582323026E+02 -0.57717732001E+02 -0.14844402504E+03  0.15993626638E+03  0.00000000000E+00 0. -1.
        -15    1    1    2    0    0 -0.20736273818E+01  0.24292052323E+01 -0.70950911761E+02  0.71044989811E+02  0.17770000000E+01 0.  1.
         15    1    1    2    0    0 -0.38375012268E+01  0.11166184151E+02 -0.27348407128E+03  0.27374459822E+03  0.17770000000E+01 0. -1.
</event>
<event>
 6    1  0.1823098E-004  0.5003389E+03  0.7546771E-02  0.9399052E-01
        -11   -1    0    0    0    0  0.00000000000E+00  0.00000000000E+00  0.50000000000E+03  0.50000000000E+03  0.00000000000E+00 0.  1.
         11   -1    0    0    0    0 -0.00000000000E+00 -0.00000000000E+00 -0.50000000000E+03  0.50000000000E+03  0.00000000000E+00 0. -1.
        -11    1    1    2    0    0  0.24442410287E+02 -0.10725822009E+02  0.49894763358E+03  0.49966110088E+03  0.00000000000E+00 0.  1.
         11    1    1    2    0    0 -0.13453687284E+02  0.39670724089E+01 -0.32541679408E+03  0.32571894209E+03  0.00000000000E+00 0. -1.
        -15    1    1    2    0    0 -0.74642633083E+01  0.15465554592E+01 -0.32188780187E+02  0.33126761983E+02  0.17770000000E+01 0. -1.
         15    1    1    2    0    0 -0.35244596955E+01  0.52121941413E+01 -0.14134205931E+03  0.14149319504E+03  0.17770000000E+01 0.  1.
</event>
<event>
 6    1  0.1823098E-004  0.5018038E+03  0.7546771E-02  0.9395783E-01
        -11   -1    0    0    0    0  0.00000000000E+00  0.00000000000E+00  0.50000000000E+03  0.50000000000E+03  0.00000000000E+00 0. -1.
         11   -1    0    0    0    0 -0.00000000000E+00 -0.00000000000E+00 -0.50000000000E+03  0.50000000000E+03  0.00000000000E+00 0.  1.
        -11    1    1    2    0    0 -0.58683441794E+01  0.32171877228E+01  0.23619369247E+03  0.23628848496E+03  0.00000000000E+00 0. -1.
         11    1    1    2    0    0 -0.60477952325E+01  0.32480998126E+02 -0.49709940673E+03  0.49819615739E+03  0.00000000000E+00 0.  1.
        -15    1    1    2    0    0  0.55584437678E+01 -0.38123692172E+02  0.16918060996E+03  0.17352103249E+03  0.17770000000E+01 0. -1.
         15    1    1    2    0    0  0.63576956442E+01  0.24255063231E+01  0.91725104297E+02  0.91994325163E+02  0.17770000000E+01 0.  1.
</event>
<event>
 6    1  0.1823098E-004  0.4874131E+03  0.7546771E-02  0.9428423E-01
        -11   -1    0    0    0    0  0.00000000000E+00  0.00000000000E+00  0.50000000000E+03  0.50000000000E+03  0.00000000000E+00 0. -1.
         11   -1    0    0    0    0 -0.00000000000E+00 -0.00000000000E+00 -0.50000000000E+03  0.50000000000E+03  0.00000000000E+00 0.  1.
        -11    1    1    2    0    0 -0.73490831847E+01 -0.14527403896E+01  0.48688796861E+03  0.48694559599E+03  0.00000000000E+00 0. -1.
         11    1    1    2    0    0 -0.15428825242E+02 -0.40351948035E+01 -0.48790213319E+03  0.48816270138E+03  0.00000000000E+00 0.  1.
        -15    1    1    2    0    0  0.19784149355E+02  0.58055505472E+01 -0.12402738139E+01  0.20731931675E+02  0.17770000000E+01 0. -1.
         15    1    1    2    0    0  0.29937590714E+01 -0.31761535406E+00  0.22544383997E+01  0.41597709539E+01  0.17770000000E+01 0.  1.
</event>
<event>
 6    1  0.1823098E-004  0.5001623E+03  0.7546771E-02  0.9399447E-01
        -11   -1    0    0    0    0  0.00000000000E+00  0.00000000000E+00  0.50000000000E+03  0.50000000000E+03  0.00000000000E+00 0. -1.
         11   -1    0    0    0    0 -0.00000000000E+00 -0.00000000000E+00 -0.50000000000E+03  0.50000000000E+03  0.00000000000E+00 0. -1.
        -11    1    1    2    0    0  0.12636664772E+02 -0.47837061775E+01  0.49965501313E+03  0.49983767493E+03  0.00000000000E+00 0. -1.
         11    1    1    2    0    0 -0.64734948664E+01 -0.40254369180E+01 -0.17175013269E+03  0.17191922044E+03  0.00000000000E+00 0. -1.
        -15    1    1    2    0    0 -0.38739836131E+00  0.67186115156E+01 -0.24220982333E+03  0.24230981421E+03  0.17770000000E+01 0. -1.
         15    1    1    2    0    0 -0.57757715440E+01  0.20905315798E+01 -0.85695057108E+02  0.85933290412E+02  0.17770000000E+01 0.  1.
</event>
<event>
 6    1  0.1823098E-004  0.5067359E+03  0.7546771E-02  0.9384863E-01
        -11   -1    0    0    0    0  0.00000000000E+00  0.00000000000E+00  0.50000000000E+03  0.50000000000E+03  0.00000000000E+00 0.  1.
         11   -1    0    0    0    0 -0.00000000000E+00 -0.00000000000E+00 -0.50000000000E+03  0.50000000000E+03  0.00000000000E+00 0. -1.
        -11    1    1    2    0    0  0.42374428191E+02 -0.19512704683E+03  0.45104250202E+03  0.49326412316E+03  0.00000000000E+00 0.  1.
         11    1    1    2    0    0 -0.25495855530E+02  0.18471223809E+03 -0.29327916771E+03  0.34753606972E+03  0.00000000000E+00 0. -1.
        -15    1    1    2    0    0 -0.23857075266E+01  0.47958390366E+01 -0.37220840641E+02  0.37646253194E+02  0.17770000000E+01 0. -1.
         15    1    1    2    0    0 -0.14492865134E+02  0.56189697043E+01 -0.12054249367E+03  0.12155355392E+03  0.17770000000E+01 0. -1.
</event>
<event>
 6    1  0.1823098E-004  0.5001549E+03  0.7546771E-02  0.9399463E-01
        -11   -1    0    0    0    0  0.00000000000E+00  0.00000000000E+00  0.50000000000E+03  0.50000000000E+03  0.00000000000E+00 0. -1.
         11   -1    0    0    0    0 -0.00000000000E+00 -0.00000000000E+00 -0.50000000000E+03  0.50000000000E+03  0.00000000000E+00 0. -1.
        -11    1    1    2    0    0  0.18994964542E+01  0.11256956827E+02  0.49971474006E+03  0.49984512461E+03  0.00000000000E+00 0. -1.
         11    1    1    2    0    0  0.37805172894E+01 -0.10865810305E+02 -0.35173681314E+03  0.35192491225E+03  0.00000000000E+00 0. -1.
        -15    1    1    2    0    0 -0.68345748616E+00  0.10451134330E+01 -0.17186533988E+02  0.17323223019E+02  0.17770000000E+01 0.  1.
         15    1    1    2    0    0 -0.49965562574E+01 -0.14362599554E+01 -0.13079139292E+03  0.13090674012E+03  0.17770000000E+01 0.  1.
</event>
<event>
 6    1  0.1823098E-004  0.4888229E+03  0.7546771E-02  0.9425173E-01
        -11   -1    0    0    0    0  0.00000000000E+00  0.00000000000E+00  0.50000000000E+03  0.50000000000E+03  0.00000000000E+00 0. -1.
         11   -1    0    0    0    0 -0.00000000000E+00 -0.00000000000E+00 -0.50000000000E+03  0.50000000000E+03  0.00000000000E+00 0.  1.
        -11    1    1    2    0    0  0.11888638556E+02  0.86040243683E+01  0.49327584880E+03  0.49349410530E+03  0.00000000000E+00 0. -1.
         11    1    1    2    0    0 -0.12797036198E+02  0.97299303281E+01 -0.48410023226E+03  0.48436708244E+03  0.00000000000E+00 0.  1.
        -15    1    1    2    0    0  0.20389707408E+01 -0.14640676301E+01 -0.21014688588E+01  0.37248887328E+01  0.17770000000E+01 0. -1.
         15    1    1    2    0    0 -0.11305730988E+01 -0.16869887066E+02 -0.70741476840E+01  0.18413923526E+02  0.17770000000E+01 0.  1.
</event>
<event>
 6    1  0.1823098E-004  0.5217532E+03  0.7546771E-02  0.9352409E-01
        -11   -1    0    0    0    0  0.00000000000E+00  0.00000000000E+00  0.50000000000E+03  0.50000000000E+03  0.00000000000E+00 0. -1.
         11   -1    0    0    0    0 -0.00000000000E+00 -0.00000000000E+00 -0.50000000000E+03  0.50000000000E+03  0.00000000000E+00 0. -1.
        -11    1    1    2    0    0 -0.51468948716E+01  0.80521711203E+01  0.42510507904E+03  0.42521248360E+03  0.00000000000E+00 0. -1.
         11    1    1    2    0    0 -0.68522249689E+02 -0.22536555496E+02 -0.47277560006E+03  0.47824675958E+03  0.00000000000E+00 0. -1.
        -15    1    1    2    0    0  0.53061202177E+02  0.25361584766E+02  0.24828200261E+02  0.63861556633E+02  0.17770000000E+01 0.  1.
         15    1    1    2    0    0  0.20607942384E+02 -0.10877200391E+02  0.22842320762E+02  0.32679200180E+02  0.17770000000E+01 0. -1.
</event>
<event>
 6    1  0.1823098E-004  0.5028313E+03  0.7546771E-02  0.9393497E-01
        -11   -1    0    0    0    0  0.00000000000E+00  0.00000000000E+00  0.50000000000E+03  0.50000000000E+03  0.00000000000E+00 0.  1.
         11   -1    0    0    0    0 -0.00000000000E+00 -0.00000000000E+00 -0.50000000000E+03  0.50000000000E+03  0.00000000000E+00 0.  1.
        -11    1    1    2    0    0  0.78820937930E+01 -0.11700611629E+01  0.47395938820E+03  0.47402636857E+03  0.00000000000E+00 0.  1.
         11    1    1    2    0    0  0.54926447775E+00  0.12135241771E+02 -0.49702022678E+03  0.49716865509E+03  0.00000000000E+00 0.  1.
        -15    1    1    2    0    0 -0.44399579713E+01  0.52387920253E-01  0.10484218823E+02  0.11523564753E+02  0.17770000000E+01 0.  1.
         15    1    1    2    0    0 -0.39914002994E+01 -0.11017568528E+02  0.12576619757E+02  0.17281411578E+02  0.17770000000E+01 0. -1.
</event>
<event>
 6    1  0.1823098E-004  0.5000859E+03  0.7546771E-02  0.9399618E-01
        -11   -1    0    0    0    0  0.00000000000E+00  0.00000000000E+00  0.50000000000E+03  0.50000000000E+03  0.00000000000E+00 0.  1.
         11   -1    0    0    0    0 -0.00000000000E+00 -0.00000000000E+00 -0.50000000000E+03  0.50000000000E+03  0.00000000000E+00 0. -1.
        -11    1    1    2    0    0  0.46509345204E+01  0.16477343764E+02  0.49962087937E+03  0.49991414979E+03  0.00000000000E+00 0.  1.
         11    1    1    2    0    0 -0.35049960247E+01 -0.10276815314E+02 -0.28088947228E+03  0.28109925928E+03  0.00000000000E+00 0. -1.
        -15    1    1    2    0    0 -0.52572530983E-01 -0.48183312528E+01 -0.55773038372E+02  0.56009004796E+02  0.17770000000E+01 0. -1.
         15    1    1    2    0    0 -0.10933659647E+01 -0.13821971965E+01 -0.16295836872E+03  0.16297758614E+03  0.17770000000E+01 0.  1.
</event>
<event>
 6    1  0.1823098E-004  0.5001703E+03  0.7546771E-02  0.9399429E-01
        -11   -1    0    0    0    0  0.00000000000E+00  0.00000000000E+00  0.50000000000E+03  0.50000000000E+03  0.00000000000E+00 0. -1.
         11   -1    0    0    0    0 -0.00000000000E+00 -0.00000000000E+00 -0.50000000000E+03  0.50000000000E+03  0.00000000000E+00 0. -1.
        -11    1    1    2    0    0 -0.55640738449E+01 -0.45109227551E+01  0.49977837788E+03  0.49982970534E+03  0.00000000000E+00 0. -1.
         11    1    1    2    0    0 -0.30807433387E+01  0.72364607026E+01 -0.31613677689E+03  0.31623459495E+03  0.00000000000E+00 0. -1.
        -15    1    1    2    0    0  0.66099291071E+01 -0.18972358001E+01 -0.10299850204E+03  0.10324311026E+03  0.17770000000E+01 0. -1.
         15    1    1    2    0    0  0.20348880765E+01 -0.82830214743E+00 -0.80643098956E+02  0.80692589450E+02  0.17770000000E+01 0.  1.
</event>
<event>
 6    1  0.1823098E-004  0.5063852E+03  0.7546771E-02  0.9385635E-01
        -11   -1    0    0    0    0  0.00000000000E+00  0.00000000000E+00  0.50000000000E+03  0.50000000000E+03  0.00000000000E+00 0.  1.
         11   -1    0    0    0    0 -0.00000000000E+00 -0.00000000000E+00 -0.50000000000E+03  0.50000000000E+03  0.00000000000E+00 0.  1.
        -11    1    1    2    0    0  0.54023437477E+01  0.58385304629E+01  0.49355071357E+03  0.49361480997E+03  0.00000000000E+00 0.  1.
         11    1    1    2    0    0  0.25390326922E+02 -0.72416861124E+00 -0.45153408977E+03  0.45224797108E+03  0.00000000000E+00 0.  1.
        -15    1    1    2    0    0 -0.13381067555E+01 -0.38680130737E+01 -0.73178523808E+01  0.85709245297E+01  0.17770000000E+01 0. -1.
         15    1    1    2    0    0 -0.29454563914E+02 -0.12463487779E+01 -0.34698771417E+02  0.45566294423E+02  0.17770000000E+01 0.  1.
</event>
<event>
 6    1  0.1823098E-004  0.5032780E+03  0.7546771E-02  0.9392505E-01
        -11   -1    0    0    0    0  0.00000000000E+00  0.00000000000E+00  0.50000000000E+03  0.50000000000E+03  0.00000000000E+00 0. -1.
         11   -1    0    0    0    0 -0.00000000000E+00 -0.00000000000E+00 -0.50000000000E+03  0.50000000000E+03  0.00000000000E+00 0. -1.
        -11    1    1    2    0    0 -0.10248429877E+02 -0.47314286599E+00  0.46261640467E+03  0.46273015036E+03  0.00000000000E+00 0. -1.
         11    1    1    2    0    0  0.20871404181E+01  0.12732843897E+02 -0.49655438524E+03  0.49672199365E+03  0.00000000000E+00 0. -1.
        -15    1    1    2    0    0  0.11412647600E+02 -0.96255484196E+01  0.15645157793E+02  0.21698580576E+02  0.17770000000E+01 0.  1.
         15    1    1    2    0    0 -0.32513581409E+01 -0.26341526118E+01  0.18292822779E+02  0.18849275423E+02  0.17770000000E+01 0. -1.
</event>
<event>
 6    1  0.1823098E-004  0.5002094E+03  0.7546771E-02  0.9399341E-01
        -11   -1    0    0    0    0  0.00000000000E+00  0.00000000000E+00  0.50000000000E+03  0.50000000000E+03  0.00000000000E+00 0. -1.
         11   -1    0    0    0    0 -0.00000000000E+00 -0.00000000000E+00 -0.50000000000E+03  0.50000000000E+03  0.00000000000E+00 0.  1.
        -11    1    1    2    0    0  0.10385783501E+02 -0.42740040156E+01  0.25334597927E+03  0.25359478863E+03  0.00000000000E+00 0. -1.
         11    1    1    2    0    0 -0.26534658760E+02 -0.74824386286E+01 -0.49902965840E+03  0.49979063113E+03  0.00000000000E+00 0.  1.
        -15    1    1    2    0    0  0.33180607866E+01  0.18604289909E+01  0.85649844088E+02  0.85752692347E+02  0.17770000000E+01 0. -1.
         15    1    1    2    0    0  0.12830814473E+02  0.98960136533E+01  0.16003383505E+03  0.16086188789E+03  0.17770000000E+01 0.  1.
</event>
<event>
 6    1  0.1823098E-004  0.5001055E+03  0.7546771E-02  0.9399574E-01
        -11   -1    0    0    0    0  0.00000000000E+00  0.00000000000E+00  0.50000000000E+03  0.50000000000E+03  0.00000000000E+00 0.  1.
         11   -1    0    0    0    0 -0.00000000000E+00 -0.00000000000E+00 -0.50000000000E+03  0.50000000000E+03  0.00000000000E+00 0. -1.
        -11    1    1    2    0    0 -0.78112782352E+01  0.50304596873E+01  0.15196243141E+03  0.15224618928E+03  0.00000000000E+00 0.  1.
         11    1    1    2    0    0  0.26178776553E+02 -0.44274111824E+01 -0.49918887473E+03  0.49989445182E+03  0.00000000000E+00 0. -1.
        -15    1    1    2    0    0 -0.55049377585E+00 -0.18543549184E+01  0.72246591850E+02  0.72294325078E+02  0.17770000000E+01 0.  1.
         15    1    1    2    0    0 -0.17817004542E+02  0.12513064135E+01  0.27497985147E+03  0.27556503382E+03  0.17770000000E+01 0.  1.
</event>
<event>
 6    1  0.1823098E-004  0.5086964E+03  0.7546771E-02  0.9380558E-01
        -11   -1    0    0    0    0  0.00000000000E+00  0.00000000000E+00  0.50000000000E+03  0.50000000000E+03  0.00000000000E+00 0.  1.
         11   -1    0    0    0    0 -0.00000000000E+00 -0.00000000000E+00 -0.50000000000E+03  0.50000000000E+03  0.00000000000E+00 0.  1.
        -11    1    1    2    0    0 -0.46156577473E+01  0.14580156098E+02  0.45185397821E+03  0.45211271037E+03  0.00000000000E+00 0.  1.
         11    1    1    2    0    0 -0.24559592773E+02 -0.67992485990E+01 -0.49064224234E+03  0.49130358572E+03  0.00000000000E+00 0.  1.
        -15    1    1    2    0    0 -0.97295763568E+00 -0.24481291717E+01  0.20775846595E+02  0.21017457357E+02  0.17770000000E+01 0. -1.
         15    1    1    2    0    0  0.30148208156E+02 -0.53327783268E+01  0.18012417530E+02  0.35566246555E+02  0.17770000000E+01 0.  1.
</event>
<event>
 6    1  0.1823098E-004  0.5074039E+03  0.7546771E-02  0.9383394E-01
        -11   -1    0    0    0    0  0.00000000000E+00  0.00000000000E+00  0.50000000000E+03  0.50000000000E+03  0.00000000000E+00 0.  1.
         11   -1    0    0    0    0 -0.00000000000E+00 -0.00000000000E+00 -0.50000000000E+03  0.50000000000E+03  0.00000000000E+00 0. -1.
        -11    1    1    2    0    0  0.62610373929E+01  0.91785241998E+01  0.49247076746E+03  0.49259608473E+03  0.00000000000E+00 0.  1.
         11    1    1    2    0    0  0.37688386217E+01  0.96103691540E+01 -0.47815948871E+03  0.47827090648E+03  0.00000000000E+00 0. -1.
        -15    1    1    2    0    0  0.13553657128E+01 -0.15014379262E+01  0.14473132192E+01  0.30567591689E+01  0.17770000000E+01 0. -1.
         15    1    1    2    0    0 -0.11385241727E+02 -0.17287455428E+02 -0.15758591962E+02  0.26076249615E+02  0.17770000000E+01 0.  1.
</event>
<event>
 6    1  0.1823098E-004  0.5059021E+03  0.7546771E-02  0.9386699E-01
        -11   -1    0    0    0    0  0.00000000000E+00  0.00000000000E+00  0.50000000000E+03  0.50000000000E+03  0.00000000000E+00 0.  1.
         11   -1    0    0    0    0 -0.00000000000E+00 -0.00000000000E+00 -0.50000000000E+03  0.50000000000E+03  0.00000000000E+00 0. -1.
        -11    1    1    2    0    0 -0.42712086611E+02  0.35058836201E+02  0.49099829503E+03  0.49409793570E+03  0.00000000000E+00 0.  1.
         11    1    1    2    0    0  0.33252924401E+02 -0.35291023898E+02 -0.13243143537E+03  0.14102942396E+03  0.00000000000E+00 0. -1.
        -15    1    1    2    0    0 -0.25892030885E+02  0.21838346102E+01 -0.81836493752E+02  0.85880939885E+02  0.17770000000E+01 0.  1.
         15    1    1    2    0    0  0.35351193095E+02 -0.19516469125E+01 -0.27673036591E+03  0.27899170046E+03  0.17770000000E+01 0. -1.
</event>
<event>
 6    1  0.1823098E-004  0.5004390E+03  0.7546771E-02  0.9398828E-01
        -11   -1    0    0    0    0  0.00000000000E+00  0.00000000000E+00  0.50000000000E+03  0.50000000000E+03  0.00000000000E+00 0.  1.
         11   -1    0    0    0    0 -0.00000000000E+00 -0.00000000000E+00 -0.50000000000E+03  0.50000000000E+03  0.00000000000E+00 0.  1.
        -11    1    1    2    0    0 -0.93355203866E+01 -0.38716258118E+01  0.20699669016E+03  0.20724326567E+03  0.00000000000E+00 0.  1.
         11    1    1    2    0    0  0.41329471415E+01  0.13443528940E+02 -0.49936295294E+03  0.49956097575E+03  0.00000000000E+00 0.  1.
        -15    1    1    2    0    0 -0.16199981816E+01  0.48476217469E+01  0.48273921503E+02  0.48576260220E+02  0.17770000000E+01 0.  1.
         15    1    1    2    0    0  0.68225714266E+01 -0.14419524875E+02  0.24409234128E+03  0.24461949836E+03  0.17770000000E+01 0. -1.
</event>
<event>
 6    1  0.1823098E-004  0.5150351E+03  0.7546771E-02  0.9366782E-01
        -11   -1    0    0    0    0  0.00000000000E+00  0.00000000000E+00  0.50000000000E+03  0.50000000000E+03  0.00000000000E+00 0. -1.
         11   -1    0    0    0    0 -0.00000000000E+00 -0.00000000000E+00 -0.50000000000E+03  0.50000000000E+03  0.00000000000E+00 0. -1.
        -11    1    1    2    0    0 -0.42615618790E+00  0.67530759751E+01  0.48491770197E+03  0.48496490938E+03  0.00000000000E+00 0. -1.
         11    1    1    2    0    0 -0.46554595699E+02 -0.66039251261E+02 -0.32231357517E+03  0.33228685473E+03  0.00000000000E+00 0. -1.
        -15    1    1    2    0    0  0.43168162057E+02  0.60981867588E+02 -0.16168310709E+03  0.17812036166E+03  0.17770000000E+01 0. -1.
         15    1    1    2    0    0  0.38125898300E+01 -0.16956923021E+01 -0.92101970896E+00  0.46278742312E+01  0.17770000000E+01 0.  1.
</event>
<event>
 6    1  0.1823098E-004  0.4903179E+03  0.7546771E-02  0.9421739E-01
        -11   -1    0    0    0    0  0.00000000000E+00  0.00000000000E+00  0.50000000000E+03  0.50000000000E+03  0.00000000000E+00 0. -1.
         11   -1    0    0    0    0 -0.00000000000E+00 -0.00000000000E+00 -0.50000000000E+03  0.50000000000E+03  0.00000000000E+00 0. -1.
        -11    1    1    2    0    0  0.47987795491E+01  0.49928910253E+01  0.48815742614E+03  0.48820654434E+03  0.00000000000E+00 0. -1.
         11    1    1    2    0    0  0.75643045192E+01  0.68076669149E+01 -0.49248258124E+03  0.49258771387E+03  0.00000000000E+00 0. -1.
        -15    1    1    2    0    0 -0.12115484724E+02 -0.11069487567E+02  0.28057495104E+01  0.16743610256E+02  0.17770000000E+01 0. -1.
         15    1    1    2    0    0 -0.24759934387E+00 -0.73107037317E+00  0.15194055915E+01  0.24621315313E+01  0.17770000000E+01 0.  1.
</event>
<event>
 6    1  0.1823098E-004  0.5037311E+03  0.7546771E-02  0.9391500E-01
        -11   -1    0    0    0    0  0.00000000000E+00  0.00000000000E+00  0.50000000000E+03  0.50000000000E+03  0.00000000000E+00 0.  1.
         11   -1    0    0    0    0 -0.00000000000E+00 -0.00000000000E+00 -0.50000000000E+03  0.50000000000E+03  0.00000000000E+00 0.  1.
        -11    1    1    2    0    0 -0.13283269638E+01 -0.10916292148E+02  0.49614708592E+03  0.49626893995E+03  0.00000000000E+00 0.  1.
         11    1    1    2    0    0  0.17751780334E+02 -0.22614850349E+02 -0.34836060269E+03  0.34954494227E+03  0.00000000000E+00 0.  1.
        -15    1    1    2    0    0  0.30805253995E+01 -0.13602499864E+01 -0.97363909928E+01  0.10454422764E+02  0.17770000000E+01 0. -1.
         15    1    1    2    0    0 -0.19503978770E+02  0.34891392484E+02 -0.13805009224E+03  0.14373169502E+03  0.17770000000E+01 0.  1.
</event>
<event>
 6    1  0.1823098E-004  0.5020742E+03  0.7546771E-02  0.9395181E-01
        -11   -1    0    0    0    0  0.00000000000E+00  0.00000000000E+00  0.50000000000E+03  0.50000000000E+03  0.00000000000E+00 0.  1.
         11   -1    0    0    0    0 -0.00000000000E+00 -0.00000000000E+00 -0.50000000000E+03  0.50000000000E+03  0.00000000000E+00 0. -1.
        -11    1    1    2    0    0  0.14686384730E+01 -0.82014821968E+01  0.48220512842E+03  0.48227710612E+03  0.00000000000E+00 0.  1.
         11    1    1    2    0    0 -0.68983736047E+01  0.10012001997E+02 -0.49777735738E+03  0.49792582305E+03  0.00000000000E+00 0. -1.
        -15    1    1    2    0    0  0.90858818243E-01  0.14216696321E+01  0.12338373173E+02  0.12546815589E+02  0.17770000000E+01 0. -1.
         15    1    1    2    0    0  0.53388763135E+01 -0.32321894323E+01  0.32338557838E+01  0.72502552401E+01  0.17770000000E+01 0.  1.
</event>
<event>
 6    1  0.1823098E-004  0.5046776E+03  0.7546771E-02  0.9389404E-01
        -11   -1    0    0    0    0  0.00000000000E+00  0.00000000000E+00  0.50000000000E+03  0.50000000000E+03  0.00000000000E+00 0. -1.
         11   -1    0    0    0    0 -0.00000000000E+00 -0.00000000000E+00 -0.50000000000E+03  0.50000000000E+03  0.00000000000E+00 0. -1.
        -11    1    1    2    0    0  0.41964946414E+01  0.84787771617E+01  0.39064255718E+03  0.39075709553E+03  0.00000000000E+00 0. -1.
         11    1    1    2    0    0 -0.63924315867E+01  0.34477275537E+02 -0.49407969023E+03  0.49532240612E+03  0.00000000000E+00 0. -1.
        -15    1    1    2    0    0  0.11491126132E+01 -0.36761686443E+02  0.63098588745E+02  0.73057044017E+02  0.17770000000E+01 0.  1.
         15    1    1    2    0    0  0.10468243321E+01 -0.61943662559E+01  0.40338544306E+02  0.40863454335E+02  0.17770000000E+01 0. -1.
</event>
<event>
 6    1  0.1823098E-004  0.4902920E+03  0.7546771E-02  0.9421798E-01
        -11   -1    0    0    0    0  0.00000000000E+00  0.00000000000E+00  0.50000000000E+03  0.50000000000E+03  0.00000000000E+00 0.  1.
         11   -1    0    0    0    0 -0.00000000000E+00 -0.00000000000E+00 -0.50000000000E+03  0.50000000000E+03  0.00000000000E+00 0.  1.
        -11    1    1    2    0    0 -0.42447103742E+01  0.58943991642E+01  0.49406280038E+03  0.49411619305E+03  0.00000000000E+00 0.  1.
         11    1    1    2    0    0  0.97465050647E+01  0.72838936450E+01 -0.48644922238E+03  0.48660137220E+03  0.00000000000E+00 0.  1.
        -15    1    1    2    0    0 -0.41347460595E+00 -0.39790430497E+01 -0.74245689573E+01  0.86189151314E+01  0.17770000000E+01 0.  1.
         15    1    1    2    0    0 -0.50883200845E+01 -0.91992497595E+01 -0.18900904527E+00  0.10663519627E+02  0.17770000000E+01 0. -1.
</event>
<event>
 6    1  0.1823098E-004  0.5031190E+03  0.7546771E-02  0.9392858E-01
        -11   -1    0    0    0    0  0.00000000000E+00  0.00000000000E+00  0.50000000000E+03  0.50000000000E+03  0.00000000000E+00 0.  1.
         11   -1    0    0    0    0 -0.00000000000E+00 -0.00000000000E+00 -0.50000000000E+03  0.50000000000E+03  0.00000000000E+00 0.  1.
        -11    1    1    2    0    0  0.21464582669E+02  0.16861213159E+02  0.49613072271E+03  0.49688099464E+03  0.00000000000E+00 0.  1.
         11    1    1    2    0    0  0.17463773629E+02 -0.25283233633E+01 -0.28470422753E+02  0.33495384460E+02  0.00000000000E+00 0.  1.
        -15    1    1    2    0    0 -0.28170008928E+02 -0.15000295036E+02 -0.34439323775E+03  0.34587341354E+03  0.17770000000E+01 0.  1.
         15    1    1    2    0    0 -0.10758347370E+02  0.66740524046E+00 -0.12326706221E+03  0.12375020736E+03  0.17770000000E+01 0. -1.
</event>
<event>
 6    1  0.1823098E-004  0.5010200E+03  0.7546771E-02  0.9397530E-01
        -11   -1    0    0    0    0  0.00000000000E+00  0.00000000000E+00  0.50000000000E+03  0.50000000000E+03  0.00000000000E+00 0.  1.
         11   -1    0    0    0    0 -0.00000000000E+00 -0.00000000000E+00 -0.50000000000E+03  0.50000000000E+03  0.00000000000E+00 0. -1.
        -11    1    1    2    0    0 -0.23290122537E+01  0.64909057713E+01  0.49893231855E+03  0.49897997420E+03  0.00000000000E+00 0.  1.
         11    1    1    2    0    0 -0.26646204506E+01  0.99352447710E+01 -0.41448684620E+03  0.41461446545E+03  0.00000000000E+00 0. -1.
        -15    1    1    2    0    0  0.18907701803E+01 -0.13195245999E+02 -0.59819196144E+02  0.61312180562E+02  0.17770000000E+01 0.  1.
         15    1    1    2    0    0  0.31028625240E+01 -0.32309045430E+01 -0.24626276213E+02  0.25093379787E+02  0.17770000000E+01 0. -1.
</event>
<event>
 6    1  0.1823098E-004  0.5194921E+03  0.7546771E-02  0.9357221E-01
        -11   -1    0    0    0    0  0.00000000000E+00  0.00000000000E+00  0.50000000000E+03  0.50000000000E+03  0.00000000000E+00 0.  1.
         11   -1    0    0    0    0 -0.00000000000E+00 -0.00000000000E+00 -0.50000000000E+03  0.50000000000E+03  0.00000000000E+00 0. -1.
        -11    1    1    2    0    0  0.59797132122E+01  0.25453789096E+01  0.42823286074E+03  0.42828217210E+03  0.00000000000E+00 0.  1.
         11    1    1    2    0    0 -0.42996380180E+02  0.39849546899E+02 -0.47691843376E+03  0.48050792663E+03  0.00000000000E+00 0. -1.
        -15    1    1    2    0    0  0.45949224473E+02 -0.47915352135E+02  0.40594604768E+02  0.77835029808E+02  0.17770000000E+01 0. -1.
         15    1    1    2    0    0 -0.89325575053E+01  0.55204263262E+01  0.80909682489E+01  0.13374871462E+02  0.17770000000E+01 0.  1.
</event>
<event>
 6    1  0.1823098E-004  0.5178693E+03  0.7546771E-02  0.9360690E-01
        -11   -1    0    0    0    0  0.00000000000E+00  0.00000000000E+00  0.50000000000E+03  0.50000000000E+03  0.00000000000E+00 0.  1.
         11   -1    0    0    0    0 -0.00000000000E+00 -0.00000000000E+00 -0.50000000000E+03  0.50000000000E+03  0.00000000000E+00 0.  1.
        -11    1    1    2    0    0  0.75928038767E+01  0.14121558246E+01  0.48206882549E+03  0.48213068494E+03  0.00000000000E+00 0.  1.
         11    1    1    2    0    0  0.36687470259E+02  0.66457369674E+02 -0.35490867509E+03  0.36293624800E+03  0.00000000000E+00 0.  1.
        -15    1    1    2    0    0 -0.75134214361E+01 -0.11601218252E+02 -0.38099109502E+01  0.14446899912E+02  0.17770000000E+01 0. -1.
         15    1    1    2    0    0 -0.36766852700E+02 -0.56268307246E+02 -0.12335023945E+03  0.14048616714E+03  0.17770000000E+01 0.  1.
</event>
<event>
 6    1  0.1823098E-004  0.5026699E+03  0.7546771E-02  0.9393855E-01
        -11   -1    0    0    0    0  0.00000000000E+00  0.00000000000E+00  0.50000000000E+03  0.50000000000E+03  0.00000000000E+00 0. -1.
         11   -1    0    0    0    0 -0.00000000000E+00 -0.00000000000E+00 -0.50000000000E+03  0.50000000000E+03  0.00000000000E+00 0. -1.
        -11    1    1    2    0    0  0.11058070048E+02  0.38524282848E+01  0.39568716807E+03  0.39586040101E+03  0.00000000000E+00 0. -1.
         11    1    1    2    0    0  0.14686975936E+02 -0.24976985953E+02 -0.49648535586E+03  0.49733013751E+03  0.00000000000E+00 0. -1.
        -15    1    1    2    0    0 -0.21507935479E+01 -0.85627545908E+00  0.10991730263E+02  0.11372553966E+02  0.17770000000E+01 0. -1.
         15    1    1    2    0    0 -0.23594252436E+02  0.21980833127E+02  0.89806457530E+02  0.95436907515E+02  0.17770000000E+01 0.  1.
</event>
<event>
 6    1  0.1823098E-004  0.5036101E+03  0.7546771E-02  0.9391768E-01
        -11   -1    0    0    0    0  0.00000000000E+00  0.00000000000E+00  0.50000000000E+03  0.50000000000E+03  0.00000000000E+00 0. -1.
         11   -1    0    0    0    0 -0.00000000000E+00 -0.00000000000E+00 -0.50000000000E+03  0.50000000000E+03  0.00000000000E+00 0.  1.
        -11    1    1    2    0    0  0.89589554137E+01 -0.85513174347E+01  0.34232724824E+03  0.34255121194E+03  0.00000000000E+00 0. -1.
         11    1    1    2    0    0 -0.27399497555E+02  0.17912214400E+01 -0.49562985643E+03  0.49638986244E+03  0.00000000000E+00 0.  1.
        -15    1    1    2    0    0 -0.82411550299E+01  0.10394397463E+02  0.14809182190E+02  0.19960704922E+02  0.17770000000E+01 0. -1.
         15    1    1    2    0    0  0.26681697171E+02 -0.36343014685E+01  0.13849342600E+03  0.14109822071E+03  0.17770000000E+01 0.  1.
</event>
<event>
 6    1  0.1823098E-004  0.5015588E+03  0.7546771E-02  0.9396328E-01
        -11   -1    0    0    0    0  0.00000000000E+00  0.00000000000E+00  0.50000000000E+03  0.50000000000E+03  0.00000000000E+00 0.  1.
         11   -1    0    0    0    0 -0.00000000000E+00 -0.00000000000E+00 -0.50000000000E+03  0.50000000000E+03  0.00000000000E+00 0.  1.
        -11    1    1    2    0    0 -0.25125630263E+01 -0.76596704244E+01  0.49837599150E+03  0.49844118252E+03  0.00000000000E+00 0.  1.
         11    1    1    2    0    0 -0.81247414710E+01 -0.42980810792E+01 -0.44743381025E+03  0.44752821082E+03  0.00000000000E+00 0.  1.
        -15    1    1    2    0    0  0.42587080971E+01  0.10526361432E+01 -0.87034871726E+01  0.99072223892E+01  0.17770000000E+01 0. -1.
         15    1    1    2    0    0  0.63785964002E+01  0.10905115360E+02 -0.42238694079E+02  0.44123384271E+02  0.17770000000E+01 0.  1.
</event>
<event>
 6    1  0.1823098E-004  0.5073081E+03  0.7546771E-02  0.9383604E-01
        -11   -1    0    0    0    0  0.00000000000E+00  0.00000000000E+00  0.50000000000E+03  0.50000000000E+03  0.00000000000E+00 0. -1.
         11   -1    0    0    0    0 -0.00000000000E+00 -0.00000000000E+00 -0.50000000000E+03  0.50000000000E+03  0.00000000000E+00 0. -1.
        -11    1    1    2    0    0  0.60236854292E+01  0.49942839481E+01  0.46102884013E+03  0.46109523863E+03  0.00000000000E+00 0. -1.
         11    1    1    2    0    0  0.11410119058E+02  0.70696865896E+01 -0.49250905899E+03  0.49269193669E+03  0.00000000000E+00 0. -1.
        -15    1    1    2    0    0 -0.44679627520E+01 -0.43651709408E+01  0.30294734327E+02  0.30982996392E+02  0.17770000000E+01 0. -1.
         15    1    1    2    0    0 -0.12965841736E+02 -0.76987995970E+01  0.11854845366E+01  0.15229828290E+02  0.17770000000E+01 0.  1.
</event>
<event>
 6    1  0.1823098E-004  0.5043013E+03  0.7546771E-02  0.9390236E-01
        -11   -1    0    0    0    0  0.00000000000E+00  0.00000000000E+00  0.50000000000E+03  0.50000000000E+03  0.00000000000E+00 0.  1.
         11   -1    0    0    0    0 -0.00000000000E+00 -0.00000000000E+00 -0.50000000000E+03  0.50000000000E+03  0.00000000000E+00 0.  1.
        -11    1    1    2    0    0 -0.56767824689E+01 -0.57746735425E+01  0.49563253464E+03  0.49569868076E+03  0.00000000000E+00 0.  1.
         11    1    1    2    0    0 -0.20934410703E+02 -0.13168330307E+02 -0.42221669570E+03  0.42294041259E+03  0.00000000000E+00 0.  1.
        -15    1    1    2    0    0  0.25655414761E+02  0.13397992219E+02 -0.57768596945E+02  0.64638030787E+02  0.17770000000E+01 0.  1.
         15    1    1    2    0    0  0.95577841024E+00  0.55450116305E+01 -0.15647241988E+02  0.16722875864E+02  0.17770000000E+01 0. -1.
</event>
<event>
 6    1  0.1823098E-004  0.5004944E+03  0.7546771E-02  0.9398704E-01
        -11   -1    0    0    0    0  0.00000000000E+00  0.00000000000E+00  0.50000000000E+03  0.50000000000E+03  0.00000000000E+00 0. -1.
         11   -1    0    0    0    0 -0.00000000000E+00 -0.00000000000E+00 -0.50000000000E+03  0.50000000000E+03  0.00000000000E+00 0.  1.
        -11    1    1    2    0    0 -0.34352279485E+01 -0.57385653277E+01  0.24810163545E+03  0.24819176747E+03  0.00000000000E+00 0. -1.
         11    1    1    2    0    0 -0.68587355437E+01 -0.10267068897E+02 -0.49935297875E+03  0.49950560792E+03  0.00000000000E+00 0.  1.
        -15    1    1    2    0    0  0.18440909457E+01 -0.13203202166E+01  0.61232091764E+02  0.61299842640E+02  0.17770000000E+01 0.  1.
         15    1    1    2    0    0  0.84498725465E+01  0.17325954441E+02  0.19001925153E+03  0.19100278198E+03  0.17770000000E+01 0.  1.
</event>
<event>
 6    1  0.1823098E-004  0.5008619E+03  0.7546771E-02  0.9397883E-01
        -11   -1    0    0    0    0  0.00000000000E+00  0.00000000000E+00  0.50000000000E+03  0.50000000000E+03  0.00000000000E+00 0.  1.
         11   -1    0    0    0    0 -0.00000000000E+00 -0.00000000000E+00 -0.50000000000E+03  0.50000000000E+03  0.00000000000E+00 0.  1.
        -11    1    1    2    0    0 -0.54729415623E+01 -0.36742633579E+01  0.46094419747E+03  0.46099133016E+03  0.00000000000E+00 0.  1.
         11    1    1    2    0    0 -0.36120333973E+01  0.75705664936E+01 -0.49906765819E+03  0.49913814492E+03  0.00000000000E+00 0.  1.
        -15    1    1    2    0    0  0.20232904662E+01  0.35722705731E+00  0.15291950828E+02  0.15531349092E+02  0.17770000000E+01 0.  1.
         15    1    1    2    0    0  0.70616844934E+01 -0.42535301930E+01  0.22831509892E+02  0.24339175827E+02  0.17770000000E+01 0. -1.
</event>
<event>
 6    1  0.1823098E-004  0.5003467E+03  0.7546771E-02  0.9399034E-01
        -11   -1    0    0    0    0  0.00000000000E+00  0.00000000000E+00  0.50000000000E+03  0.50000000000E+03  0.00000000000E+00 0.  1.
         11   -1    0    0    0    0 -0.00000000000E+00 -0.00000000000E+00 -0.50000000000E+03  0.50000000000E+03  0.00000000000E+00 0. -1.
        -11    1    1    2    0    0 -0.12731216717E+02 -0.21730025505E+01  0.49948634750E+03  0.49965329695E+03  0.00000000000E+00 0.  1.
         11    1    1    2    0    0 -0.21566979544E+01  0.66797611523E+01 -0.43669218257E+02  0.44229754446E+02  0.00000000000E+00 0. -1.
        -15    1    1    2    0    0  0.12422664053E+02 -0.48837233538E+01 -0.37644438302E+03  0.37668515311E+03  0.17770000000E+01 0. -1.
         15    1    1    2    0    0  0.24652506191E+01  0.37696475196E+00 -0.79372746225E+02  0.79431795493E+02  0.17770000000E+01 0. -1.
</event>
<event>
 6    1  0.1823098E-004  0.5003295E+03  0.7546771E-02  0.9399073E-01
        -11   -1    0    0    0    0  0.00000000000E+00  0.00000000000E+00  0.50000000000E+03  0.50000000000E+03  0.00000000000E+00 0. -1.
         11   -1    0    0    0    0 -0.00000000000E+00 -0.00000000000E+00 -0.50000000000E+03  0.50000000000E+03  0.00000000000E+00 0. -1.
        -11    1    1    2    0    0  0.30699156585E+01  0.12630741439E+02  0.49950141249E+03  0.49967051253E+03  0.00000000000E+00 0. -1.
         11    1    1    2    0    0  0.56516332424E+01 -0.10475895314E+02 -0.34743168388E+03  0.34763552796E+03  0.00000000000E+00 0. -1.
        -15    1    1    2    0    0  0.10422400153E+00 -0.19521946841E+01 -0.10129334457E+02  0.10468193362E+02  0.17770000000E+01 0. -1.
         15    1    1    2    0    0 -0.88257729024E+01 -0.20265144073E+00 -0.14194039415E+03  0.14222576615E+03  0.17770000000E+01 0. -1.
</event>
<event>
 6    1  0.1823098E-004  0.5002212E+03  0.7546771E-02  0.9399315E-01
        -11   -1    0    0    0    0  0.00000000000E+00  0.00000000000E+00  0.50000000000E+03  0.50000000000E+03  0.00000000000E+00 0.  1.
         11   -1    0    0    0    0 -0.00000000000E+00 -0.00000000000E+00 -0.50000000000E+03  0.50000000000E+03  0.00000000000E+00 0.  1.
        -11    1    1    2    0    0  0.56887885722E+01  0.19984213223E+02  0.49934671133E+03  0.49977882029E+03  0.00000000000E+00 0.  1.
         11    1    1    2    0    0 -0.50858064159E+01 -0.25269519078E+01 -0.39657301092E+02  0.40061857705E+02  0.00000000000E+00 0.  1.
        -15    1    1    2    0    0  0.19014898113E+01 -0.11667349604E+00 -0.31351777603E+02  0.31459830961E+02  0.17770000000E+01 0.  1.
         15    1    1    2    0    0 -0.25044719676E+01 -0.17340587819E+02 -0.42833763263E+03  0.42869949105E+03  0.17770000000E+01 0.  1.
</event>
<event>
 6    1  0.1823098E-004  0.5000463E+03  0.7546771E-02  0.9399706E-01
        -11   -1    0    0    0    0  0.00000000000E+00  0.00000000000E+00  0.50000000000E+03  0.50000000000E+03  0.00000000000E+00 0. -1.
         11   -1    0    0    0    0 -0.00000000000E+00 -0.00000000000E+00 -0.50000000000E+03  0.50000000000E+03  0.00000000000E+00 0. -1.
        -11    1    1    2    0    0  0.54994630106E+01  0.42868175551E+01  0.49990509074E+03  0.49995371851E+03  0.00000000000E+00 0. -1.
         11    1    1    2    0    0 -0.19973884703E+01 -0.59473108216E+01 -0.24206009699E+03  0.24214138560E+03  0.00000000000E+00 0. -1.
        -15    1    1    2    0    0 -0.64847296019E+00  0.83725013172E+00 -0.10945397868E+03  0.10947352504E+03  0.17770000000E+01 0.  1.
         15    1    1    2    0    0 -0.28536015801E+01  0.82324313485E+00 -0.14839101507E+03  0.14843137086E+03  0.17770000000E+01 0.  1.
</event>
<event>
 6    1  0.1823098E-004  0.5000612E+03  0.7546771E-02  0.9399673E-01
        -11   -1    0    0    0    0  0.00000000000E+00  0.00000000000E+00  0.50000000000E+03  0.50000000000E+03  0.00000000000E+00 0.  1.
         11   -1    0    0    0    0 -0.00000000000E+00 -0.00000000000E+00 -0.50000000000E+03  0.50000000000E+03  0.00000000000E+00 0.  1.
        -11    1    1    2    0    0  0.60373485754E+01  0.78262086035E+01  0.49984107428E+03  0.49993879491E+03  0.00000000000E+00 0.  1.
         11    1    1    2    0    0  0.29117598705E+00 -0.24656314696E+01 -0.25571078575E+02  0.25691325024E+02  0.00000000000E+00 0.  1.
        -15    1    1    2    0    0 -0.60826230825E+00 -0.84921085715E+00 -0.69996939507E+02  0.70027283336E+02  0.17770000000E+01 0.  1.
         15    1    1    2    0    0 -0.57202622542E+01 -0.45113662768E+01 -0.40427305620E+03  0.40434259673E+03  0.17770000000E+01 0.  1.
</event>
<event>
 6    1  0.1823098E-004  0.5017579E+03  0.7546771E-02  0.9395885E-01
        -11   -1    0    0    0    0  0.00000000000E+00  0.00000000000E+00  0.50000000000E+03  0.50000000000E+03  0.00000000000E+00 0.  1.
         11   -1    0    0    0    0 -0.00000000000E+00 -0.00000000000E+00 -0.50000000000E+03  0.50000000000E+03  0.00000000000E+00 0. -1.
        -11    1    1    2    0    0  0.81955646735E+01  0.78024677069E+01  0.49811362388E+03  0.49824213800E+03  0.00000000000E+00 0.  1.
         11    1    1    2    0    0 -0.25889263763E+02  0.70154578795E+01 -0.12894872912E+03  0.13170894187E+03  0.00000000000E+00 0. -1.
        -15    1    1    2    0    0  0.36122242737E+01 -0.53584745798E+01 -0.52663463463E+02  0.53088223995E+02  0.17770000000E+01 0.  1.
         15    1    1    2    0    0  0.14081474816E+02 -0.94594510067E+01 -0.31650143130E+03  0.31696069613E+03  0.17770000000E+01 0. -1.
</event>
<event>
 6    1  0.1823098E-004  0.4986158E+03  0.7546771E-02  0.9402912E-01
        -11   -1    0    0    0    0  0.00000000000E+00  0.00000000000E+00  0.50000000000E+03  0.50000000000E+03  0.00000000000E+00 0.  1.
         11   -1    0    0    0    0 -0.00000000000E+00 -0.00000000000E+00 -0.50000000000E+03  0.50000000000E+03  0.00000000000E+00 0. -1.
        -11    1    1    2    0    0 -0.81575854054E+01  0.47261480515E+01  0.49759542173E+03  0.49768472590E+03  0.00000000000E+00 0.  1.
         11    1    1    2    0    0  0.35400749738E+01 -0.48743196777E+00  0.27449407106E+00  0.35840016376E+01  0.00000000000E+00 0. -1.
        -15    1    1    2    0    0 -0.45563178156E+00 -0.88070769121E+01 -0.49812565488E+02  0.50618392049E+02  0.17770000000E+01 0.  1.
         15    1    1    2    0    0  0.50731422131E+01  0.45683608284E+01 -0.44805735031E+03  0.44811288041E+03  0.17770000000E+01 0. -1.
</event>
<event>
 6    1  0.1823098E-004  0.5044995E+03  0.7546771E-02  0.9389798E-01
        -11   -1    0    0    0    0  0.00000000000E+00  0.00000000000E+00  0.50000000000E+03  0.50000000000E+03  0.00000000000E+00 0. -1.
         11   -1    0    0    0    0 -0.00000000000E+00 -0.00000000000E+00 -0.50000000000E+03  0.50000000000E+03  0.00000000000E+00 0.  1.
        -11    1    1    2    0    0  0.10275835297E+03  0.73449922230E+02  0.47913102194E+03  0.49550046051E+03  0.00000000000E+00 0. -1.
         11    1    1    2    0    0 -0.81013310733E+02 -0.94385042122E+02 -0.35835230080E+03  0.37932580215E+03  0.00000000000E+00 0.  1.
        -15    1    1    2    0    0 -0.25646705307E+01 -0.14116277411E+00 -0.47601390780E+01  0.56933395210E+01  0.17770000000E+01 0.  1.
         15    1    1    2    0    0 -0.19180371706E+02  0.21076282666E+02 -0.11601858206E+03  0.11948039782E+03  0.17770000000E+01 0. -1.
</event>
<event>
 6    1  0.1823098E-004  0.5028352E+03  0.7546771E-02  0.9393488E-01
        -11   -1    0    0    0    0  0.00000000000E+00  0.00000000000E+00  0.50000000000E+03  0.50000000000E+03  0.00000000000E+00 0.  1.
         11   -1    0    0    0    0 -0.00000000000E+00 -0.00000000000E+00 -0.50000000000E+03  0.50000000000E+03  0.00000000000E+00 0. -1.
        -11    1    1    2    0    0 -0.14159306482E+01 -0.12157746750E+01  0.11199233712E+03  0.11200788607E+03  0.00000000000E+00 0.  1.
         11    1    1    2    0    0 -0.46465733981E+01  0.57978983364E+02 -0.49375060835E+03  0.49716477791E+03  0.00000000000E+00 0. -1.
        -15    1    1    2    0    0  0.80448511712E+01 -0.60902955496E+02  0.20532581901E+03  0.21432624501E+03  0.17770000000E+01 0.  1.
         15    1    1    2    0    0 -0.19823471249E+01  0.41397468076E+01  0.17643245222E+03  0.17650109101E+03  0.17770000000E+01 0.  1.
</event>
<event>
 6    1  0.1823098E-004  0.5004235E+03  0.7546771E-02  0.9398863E-01
        -11   -1    0    0    0    0  0.00000000000E+00  0.00000000000E+00  0.50000000000E+03  0.50000000000E+03  0.00000000000E+00 0.  1.
         11   -1    0    0    0    0 -0.00000000000E+00 -0.00000000000E+00 -0.50000000000E+03  0.50000000000E+03  0.00000000000E+00 0.  1.
        -11    1    1    2    0    0  0.45494828895E+01  0.51871551808E+01  0.49952885236E+03  0.49957649936E+03  0.00000000000E+00 0.  1.
         11    1    1    2    0    0 -0.12557263232E+02  0.38245911820E+01 -0.31414188766E+03  0.31441602685E+03  0.00000000000E+00 0.  1.
        -15    1    1    2    0    0  0.96773357115E+00 -0.43306212382E+01 -0.11392218701E+03  0.11402242416E+03  0.17770000000E+01 0.  1.
         15    1    1    2    0    0  0.70400467717E+01 -0.46811251247E+01 -0.71464777686E+02  0.71985049626E+02  0.17770000000E+01 0. -1.
</event>
<event>
 6    1  0.1823098E-004  0.5074577E+03  0.7546771E-02  0.9383276E-01
        -11   -1    0    0    0    0  0.00000000000E+00  0.00000000000E+00  0.50000000000E+03  0.50000000000E+03  0.00000000000E+00 0. -1.
         11   -1    0    0    0    0 -0.00000000000E+00 -0.00000000000E+00 -0.50000000000E+03  0.50000000000E+03  0.00000000000E+00 0. -1.
        -11    1    1    2    0    0 -0.61474362588E+01 -0.56785084699E+01  0.49247123759E+03  0.49254233958E+03  0.00000000000E+00 0. -1.
         11    1    1    2    0    0  0.86981411548E+01 -0.16049923063E+02 -0.47713521707E+03  0.47748431708E+03  0.00000000000E+00 0. -1.
        -15    1    1    2    0    0 -0.24769787550E+01  0.58254344672E+01 -0.11916396897E+02  0.13609899136E+02  0.17770000000E+01 0. -1.
         15    1    1    2    0    0 -0.73726141001E-01  0.15902997066E+02 -0.34196236185E+01  0.16363444195E+02  0.17770000000E+01 0.  1.
</event>
<event>
 6    1  0.2063319E-004  0.5001011E+03  0.7546771E-02  0.9399584E-01
        -11   -1    0    0    0    0  0.00000000000E+00  0.00000000000E+00  0.50000000000E+03  0.50000000000E+03  0.00000000000E+00 0.  1.
         11   -1    0    0    0    0 -0.00000000000E+00 -0.00000000000E+00 -0.50000000000E+03  0.50000000000E+03  0.00000000000E+00 0.  1.
        -11    1    1    2    0    0  0.22557650633E+01 -0.15635761256E+02  0.49964924124E+03  0.49989891956E+03  0.00000000000E+00 0.  1.
         11    1    1    2    0    0 -0.35646554503E+01  0.14958336399E+02 -0.28867637396E+03  0.28908564039E+03  0.00000000000E+00 0.  1.
        -15    1    1    2    0    0  0.83263684698E+00  0.11748469938E+01 -0.99510505529E+02  0.99536787116E+02  0.17770000000E+01 0. -1.
         15    1    1    2    0    0  0.47625354002E+00 -0.49742213624E+00 -0.11146236175E+03  0.11147865294E+03  0.17770000000E+01 0. -1.
</event>
<event>
 6    1  0.1823098E-004  0.5001425E+03  0.7546771E-02  0.9399491E-01
        -11   -1    0    0    0    0  0.00000000000E+00  0.00000000000E+00  0.50000000000E+03  0.50000000000E+03  0.00000000000E+00 0.  1.
         11   -1    0    0    0    0 -0.00000000000E+00 -0.00000000000E+00 -0.50000000000E+03  0.50000000000E+03  0.00000000000E+00 0. -1.
        -11    1    1    2    0    0 -0.58345781124E+01 -0.20887841083E+02  0.49938679614E+03  0.49985749606E+03  0.00000000000E+00 0.  1.
         11    1    1    2    0    0  0.17688314748E+01  0.23042022632E+01 -0.14879396318E+02  0.15160295104E+02  0.00000000000E+00 0. -1.
        -15    1    1    2    0    0  0.48604984915E+01  0.18544498311E+02 -0.41330248367E+03  0.41375067806E+03  0.17770000000E+01 0. -1.
         15    1    1    2    0    0 -0.79475185394E+00  0.39140509227E-01 -0.71204916158E+02  0.71231530775E+02  0.17770000000E+01 0.  1.
</event>
<event>
 6    1  0.1823098E-004  0.4728568E+03  0.7546771E-02  0.9462681E-01
        -11   -1    0    0    0    0  0.00000000000E+00  0.00000000000E+00  0.50000000000E+03  0.50000000000E+03  0.00000000000E+00 0. -1.
         11   -1    0    0    0    0 -0.00000000000E+00 -0.00000000000E+00 -0.50000000000E+03  0.50000000000E+03  0.00000000000E+00 0. -1.
        -11    1    1    2    0    0  0.32934535075E+01 -0.17905795078E+02  0.46421539299E+03  0.46457227147E+03  0.00000000000E+00 0. -1.
         11    1    1    2    0    0 -0.93137961327E+01 -0.29283503519E+02 -0.48151557713E+03  0.48249509986E+03  0.00000000000E+00 0. -1.
        -15    1    1    2    0    0  0.41943377756E+01  0.83628051908E+01  0.90919701221E+01  0.13166268634E+02  0.17770000000E+01 0.  1.
         15    1    1    2    0    0  0.18260048496E+01  0.38826493406E+02  0.82082140163E+01  0.39766360033E+02  0.17770000000E+01 0. -1.
</event>
<event>
 6    1  0.1823098E-004  0.5096762E+03  0.7546771E-02  0.9378415E-01
        -11   -1    0    0    0    0  0.00000000000E+00  0.00000000000E+00  0.50000000000E+03  0.50000000000E+03  0.00000000000E+00 0.  1.
         11   -1    0    0    0    0 -0.00000000000E+00 -0.00000000000E+00 -0.50000000000E+03  0.50000000000E+03  0.00000000000E+00 0.  1.
        -11    1    1    2    0    0  0.16389634159E+01  0.10059909888E+02  0.48330383783E+03  0.48341130277E+03  0.00000000000E+00 0.  1.
         11    1    1    2    0    0 -0.11718642134E+01 -0.72404318212E+01 -0.49026890831E+03  0.49032377015E+03  0.00000000000E+00 0.  1.
        -15    1    1    2    0    0 -0.72919182951E+01  0.80969103301E+01 -0.89508478267E+00  0.11076594020E+02  0.17770000000E+01 0. -1.
         15    1    1    2    0    0  0.68248190926E+01 -0.10916388397E+02  0.78601552640E+01  0.15188333057E+02  0.17770000000E+01 0.  1.
</event>
<event>
 6    1  0.1823098E-004  0.5005736E+03  0.7546771E-02  0.9398527E-01
        -11   -1    0    0    0    0  0.00000000000E+00  0.00000000000E+00  0.50000000000E+03  0.50000000000E+03  0.00000000000E+00 0.  1.
         11   -1    0    0    0    0 -0.00000000000E+00 -0.00000000000E+00 -0.50000000000E+03  0.50000000000E+03  0.00000000000E+00 0. -1.
        -11    1    1    2    0    0  0.27902058274E+01 -0.95220792754E+01  0.49932777314E+03  0.49942635120E+03  0.00000000000E+00 0.  1.
         11    1    1    2    0    0 -0.85537903321E+01 -0.46047436263E+00 -0.22896181393E+03  0.22912200157E+03  0.00000000000E+00 0. -1.
        -15    1    1    2    0    0 -0.36726561507E+00  0.92960987679E+01 -0.44609441097E+02  0.45603862779E+02  0.17770000000E+01 0.  1.
         15    1    1    2    0    0  0.61308501198E+01  0.68645487005E+00 -0.22575651811E+03  0.22584778445E+03  0.17770000000E+01 0. -1.
</event>
<event>
 6    1  0.1823098E-004  0.4313382E+03  0.7546771E-02  0.9568085E-01
        -11   -1    0    0    0    0  0.00000000000E+00  0.00000000000E+00  0.50000000000E+03  0.50000000000E+03  0.00000000000E+00 0.  1.
         11   -1    0    0    0    0 -0.00000000000E+00 -0.00000000000E+00 -0.50000000000E+03  0.50000000000E+03  0.00000000000E+00 0. -1.
        -11    1    1    2    0    0  0.11787396569E+02  0.63392282601E+01  0.42994698751E+03  0.43015525174E+03  0.00000000000E+00 0.  1.
         11    1    1    2    0    0 -0.82670045261E+02 -0.91343278591E+02 -0.42201331907E+03  0.43962844812E+03  0.00000000000E+00 0. -1.
        -15    1    1    2    0    0  0.76799308673E+02  0.86588790376E+02 -0.19136897030E+02  0.11732489501E+03  0.17770000000E+01 0.  1.
         15    1    1    2    0    0 -0.59166599811E+01 -0.15847400453E+01  0.11203228593E+02  0.12891405131E+02  0.17770000000E+01 0.  1.
</event>
<event>
 6    1  0.1823098E-004  0.5018651E+03  0.7546771E-02  0.9395646E-01
        -11   -1    0    0    0    0  0.00000000000E+00  0.00000000000E+00  0.50000000000E+03  0.50000000000E+03  0.00000000000E+00 0. -1.
         11   -1    0    0    0    0 -0.00000000000E+00 -0.00000000000E+00 -0.50000000000E+03  0.50000000000E+03  0.00000000000E+00 0.  1.
        -11    1    1    2    0    0 -0.16219370560E+02  0.13682868183E+02  0.26430947373E+03  0.26515992677E+03  0.00000000000E+00 0. -1.
         11    1    1    2    0    0  0.63791586459E+02  0.10534402796E+02 -0.49392105690E+03  0.49813487189E+03  0.00000000000E+00 0.  1.
        -15    1    1    2    0    0 -0.37957322527E+02 -0.20534289392E+02  0.21086856343E+03  0.21524665885E+03  0.17770000000E+01 0. -1.
         15    1    1    2    0    0 -0.96148933725E+01 -0.36829815861E+01  0.18743019735E+02  0.21458542488E+02  0.17770000000E+01 0.  1.
</event>
<event>
 6    1  0.1823098E-004  0.5012156E+03  0.7546771E-02  0.9397094E-01
        -11   -1    0    0    0    0  0.00000000000E+00  0.00000000000E+00  0.50000000000E+03  0.50000000000E+03  0.00000000000E+00 0.  1.
         11   -1    0    0    0    0 -0.00000000000E+00 -0.00000000000E+00 -0.50000000000E+03  0.50000000000E+03  0.00000000000E+00 0. -1.
        -11    1    1    2    0    0  0.23611602136E+02  0.14452917135E+02  0.49801557291E+03  0.49878442782E+03  0.00000000000E+00 0.  1.
         11    1    1    2    0    0 -0.28335693070E+02 -0.99272194375E+01 -0.15620302745E+03  0.15906239962E+03  0.00000000000E+00 0. -1.
        -15    1    1    2    0    0  0.74849091722E+01  0.76466618565E+00 -0.25522137407E+03  0.25533843442E+03  0.17770000000E+01 0.  1.
         15    1    1    2    0    0 -0.27608182380E+01 -0.52903638829E+01 -0.86591171395E+02  0.86814738149E+02  0.17770000000E+01 0. -1.
</event>
<event>
 6    1  0.1823098E-004  0.5019211E+03  0.7546771E-02  0.9395521E-01
        -11   -1    0    0    0    0  0.00000000000E+00  0.00000000000E+00  0.50000000000E+03  0.50000000000E+03  0.00000000000E+00 0.  1.
         11   -1    0    0    0    0 -0.00000000000E+00 -0.00000000000E+00 -0.50000000000E+03  0.50000000000E+03  0.00000000000E+00 0.  1.
        -11    1    1    2    0    0  0.86461942715E+01  0.15702518231E+01  0.43192409118E+03  0.43201347537E+03  0.00000000000E+00 0.  1.
         11    1    1    2    0    0 -0.33949463489E+01  0.17779298977E+02 -0.49774988338E+03  0.49807888485E+03  0.00000000000E+00 0.  1.
        -15    1    1    2    0    0 -0.31692965960E+01 -0.15556773077E+01  0.24695660508E+02  0.25009957012E+02  0.17770000000E+01 0.  1.
         15    1    1    2    0    0 -0.20819513267E+01 -0.17793873492E+02  0.41130131695E+02  0.44897682762E+02  0.17770000000E+01 0. -1.
</event>
<event>
 6    1  0.1823098E-004  0.5014181E+03  0.7546771E-02  0.9396642E-01
        -11   -1    0    0    0    0  0.00000000000E+00  0.00000000000E+00  0.50000000000E+03  0.50000000000E+03  0.00000000000E+00 0. -1.
         11   -1    0    0    0    0 -0.00000000000E+00 -0.00000000000E+00 -0.50000000000E+03  0.50000000000E+03  0.00000000000E+00 0. -1.
        -11    1    1    2    0    0 -0.38604203080E+01  0.37304076539E+01  0.38609647155E+03  0.38613379045E+03  0.00000000000E+00 0. -1.
         11    1    1    2    0    0 -0.20281641602E+02 -0.76086162508E+01 -0.49811112086E+03  0.49858191379E+03  0.00000000000E+00 0. -1.
        -15    1    1    2    0    0  0.17573681743E+02  0.70177117723E+01  0.91260265313E+02  0.93218433383E+02  0.17770000000E+01 0. -1.
         15    1    1    2    0    0  0.65683801670E+01 -0.31395031755E+01  0.20754384000E+02  0.22065862376E+02  0.17770000000E+01 0.  1.
</event>
<event>
 6    1  0.1823098E-004  0.5004581E+03  0.7546771E-02  0.9398785E-01
        -11   -1    0    0    0    0  0.00000000000E+00  0.00000000000E+00  0.50000000000E+03  0.50000000000E+03  0.00000000000E+00 0.  1.
         11   -1    0    0    0    0 -0.00000000000E+00 -0.00000000000E+00 -0.50000000000E+03  0.50000000000E+03  0.00000000000E+00 0. -1.
        -11    1    1    2    0    0 -0.17676036034E+02  0.89363832935E+01  0.49914910083E+03  0.49954191621E+03  0.00000000000E+00 0.  1.
         11    1    1    2    0    0  0.11780136604E+02  0.18044477482E+01 -0.90111225016E+02  0.90895877376E+02  0.00000000000E+00 0. -1.
        -15    1    1    2    0    0  0.64518113513E+01 -0.19213479518E+01 -0.59167486667E+02  0.59575722028E+02  0.17770000000E+01 0.  1.
         15    1    1    2    0    0 -0.55591192136E+00 -0.88194830899E+01 -0.34987038915E+03  0.34998648438E+03  0.17770000000E+01 0. -1.
</event>
<event>
 6    1  0.1823098E-004  0.5003410E+03  0.7546771E-02  0.9399047E-01
        -11   -1    0    0    0    0  0.00000000000E+00  0.00000000000E+00  0.50000000000E+03  0.50000000000E+03  0.00000000000E+00 0.  1.
         11   -1    0    0    0    0 -0.00000000000E+00 -0.00000000000E+00 -0.50000000000E+03  0.50000000000E+03  0.00000000000E+00 0. -1.
        -11    1    1    2    0    0  0.22311732645E+01 -0.20768571236E+01  0.13559053812E+03  0.13562479677E+03  0.00000000000E+00 0.  1.
         11    1    1    2    0    0  0.30731297536E+02  0.35339483963E+01 -0.49870054812E+03  0.49965902187E+03  0.00000000000E+00 0. -1.
        -15    1    1    2    0    0 -0.59578463299E+01 -0.32663781015E+00  0.41088527042E+02  0.41557519279E+02  0.17770000000E+01 0. -1.
         15    1    1    2    0    0 -0.27004624471E+02 -0.11304534625E+01  0.32202148295E+03  0.32315866209E+03  0.17770000000E+01 0.  1.
</event>
<event>
 6    1  0.1823098E-004  0.5070411E+03  0.7546771E-02  0.9384191E-01
        -11   -1    0    0    0    0  0.00000000000E+00  0.00000000000E+00  0.50000000000E+03  0.50000000000E+03  0.00000000000E+00 0. -1.
         11   -1    0    0    0    0 -0.00000000000E+00 -0.00000000000E+00 -0.50000000000E+03  0.50000000000E+03  0.00000000000E+00 0.  1.
        -11    1    1    2    0    0 -0.65771701014E+02 -0.16861465990E+02  0.46436251938E+03  0.46930030375E+03  0.00000000000E+00 0. -1.
         11    1    1    2    0    0  0.22701156871E+02  0.14164045853E+02  0.26615858325E+02  0.37740782087E+02  0.00000000000E+00 0.  1.
        -15    1    1    2    0    0  0.53677200619E+01  0.25620675691E+01 -0.86931337833E+02  0.87152692645E+02  0.17770000000E+01 0. -1.
         15    1    1    2    0    0  0.37702824082E+02  0.13535256708E+00 -0.40404703987E+03  0.40580622152E+03  0.17770000000E+01 0.  1.
</event>
<event>
 6    1  0.1823098E-004  0.4747716E+03  0.7546771E-02  0.9458100E-01
        -11   -1    0    0    0    0  0.00000000000E+00  0.00000000000E+00  0.50000000000E+03  0.50000000000E+03  0.00000000000E+00 0.  1.
         11   -1    0    0    0    0 -0.00000000000E+00 -0.00000000000E+00 -0.50000000000E+03  0.50000000000E+03  0.00000000000E+00 0.  1.
        -11    1    1    2    0    0  0.12796375467E+02 -0.15285963457E+02  0.48076805590E+03  0.48118118363E+03  0.00000000000E+00 0.  1.
         11    1    1    2    0    0  0.30775873356E+02  0.27475395035E+02 -0.46771291334E+03  0.46952893523E+03  0.00000000000E+00 0.  1.
        -15    1    1    2    0    0 -0.34824687603E+02 -0.14756404960E+02 -0.12898728831E+02  0.40000566102E+02  0.17770000000E+01 0.  1.
         15    1    1    2    0    0 -0.87475612202E+01  0.25669733816E+01 -0.15641373511E+00  0.92893150393E+01  0.17770000000E+01 0. -1.
</event>
<event>
 6    1  0.1823098E-004  0.5024515E+03  0.7546771E-02  0.9394341E-01
        -11   -1    0    0    0    0  0.00000000000E+00  0.00000000000E+00  0.50000000000E+03  0.50000000000E+03  0.00000000000E+00 0.  1.
         11   -1    0    0    0    0 -0.00000000000E+00 -0.00000000000E+00 -0.50000000000E+03  0.50000000000E+03  0.00000000000E+00 0. -1.
        -11    1    1    2    0    0  0.84946129845E+01  0.85538772739E+01  0.36327021802E+03  0.36347018938E+03  0.00000000000E+00 0.  1.
         11    1    1    2    0    0  0.21795587476E+02  0.13381392228E+02 -0.49689069192E+03  0.49754845896E+03  0.00000000000E+00 0. -1.
        -15    1    1    2    0    0 -0.15428988604E+01 -0.27544003292E+01  0.12917467721E+02  0.13415884592E+02  0.17770000000E+01 0. -1.
         15    1    1    2    0    0 -0.28747301601E+02 -0.19180869173E+02  0.12070300618E+03  0.12556546708E+03  0.17770000000E+01 0.  1.
</event>
<event>
 6    1  0.1823098E-004  0.5063507E+03  0.7546771E-02  0.9385711E-01
        -11   -1    0    0    0    0  0.00000000000E+00  0.00000000000E+00  0.50000000000E+03  0.50000000000E+03  0.00000000000E+00 0. -1.
         11   -1    0    0    0    0 -0.00000000000E+00 -0.00000000000E+00 -0.50000000000E+03  0.50000000000E+03  0.00000000000E+00 0.  1.
        -11    1    1    2    0    0 -0.46006390878E+01  0.20906402447E+02  0.47137759905E+03  0.47186341713E+03  0.00000000000E+00 0. -1.
         11    1    1    2    0    0  0.66669810380E+01 -0.14016461852E+02 -0.49340527448E+03  0.49364934389E+03  0.00000000000E+00 0.  1.
        -15    1    1    2    0    0  0.67926217100E+01 -0.82813543369E+01  0.22860223828E+02  0.25307471265E+02  0.17770000000E+01 0. -1.
         15    1    1    2    0    0 -0.88589636601E+01  0.13914137422E+01 -0.83254839288E+00  0.91797677073E+01  0.17770000000E+01 0.  1.
</event>
<event>
 6    1  0.1823098E-004  0.3964658E+03  0.7546771E-02  0.9666901E-01
        -11   -1    0    0    0    0  0.00000000000E+00  0.00000000000E+00  0.50000000000E+03  0.50000000000E+03  0.00000000000E+00 0.  1.
         11   -1    0    0    0    0 -0.00000000000E+00 -0.00000000000E+00 -0.50000000000E+03  0.50000000000E+03  0.00000000000E+00 0. -1.
        -11    1    1    2    0    0 -0.19802258652E+02  0.18116290608E+02  0.43399049264E+03  0.43481959148E+03  0.00000000000E+00 0.  1.
         11    1    1    2    0    0 -0.14128485999E+02  0.15368547801E+03 -0.11422223971E+03  0.19200406327E+03  0.00000000000E+00 0. -1.
        -15    1    1    2    0    0  0.32771451305E+02 -0.17256829096E+03 -0.26243720615E+03  0.31580093092E+03  0.17770000000E+01 0. -1.
         15    1    1    2    0    0  0.11592933454E+01  0.76652234791E+00 -0.57331046769E+02  0.57375414335E+02  0.17770000000E+01 0.  1.
</event>
<event>
 6    1  0.1823098E-004  0.5006581E+03  0.7546771E-02  0.9398338E-01
        -11   -1    0    0    0    0  0.00000000000E+00  0.00000000000E+00  0.50000000000E+03  0.50000000000E+03  0.00000000000E+00 0.  1.
         11   -1    0    0    0    0 -0.00000000000E+00 -0.00000000000E+00 -0.50000000000E+03  0.50000000000E+03  0.00000000000E+00 0. -1.
        -11    1    1    2    0    0  0.59204945644E+01 -0.30620790385E+01  0.40170748888E+03  0.40176278474E+03  0.00000000000E+00 0.  1.
         11    1    1    2    0    0 -0.94975379412E+01 -0.14094526917E+01 -0.49924958726E+03  0.49934190708E+03  0.00000000000E+00 0. -1.
        -15    1    1    2    0    0 -0.55340770538E+01  0.11165173992E+01  0.25362008899E+02  0.26043460683E+02  0.17770000000E+01 0. -1.
         15    1    1    2    0    0  0.91111204306E+01  0.33550143310E+01  0.72180089485E+02  0.72851847497E+02  0.17770000000E+01 0.  1.
</event>
<event>
 6    1  0.1823098E-004  0.5006538E+03  0.7546771E-02  0.9398348E-01
        -11   -1    0    0    0    0  0.00000000000E+00  0.00000000000E+00  0.50000000000E+03  0.50000000000E+03  0.00000000000E+00 0.  1.
         11   -1    0    0    0    0 -0.00000000000E+00 -0.00000000000E+00 -0.50000000000E+03  0.50000000000E+03  0.00000000000E+00 0.  1.
        -11    1    1    2    0    0 -0.55064766488E+01  0.51930993679E+01  0.49928879049E+03  0.49934615837E+03  0.00000000000E+00 0.  1.
         11    1    1    2    0    0 -0.11886453590E+02  0.82921972181E+00 -0.12430293666E+03  0.12487271699E+03  0.00000000000E+00 0.  1.
        -15    1    1    2    0    0  0.28779187995E+01 -0.54661365458E+01 -0.43495413042E+02  0.43967826306E+02  0.17770000000E+01 0. -1.
         15    1    1    2    0    0  0.14515011440E+02 -0.55618254398E+00 -0.33149044078E+03  0.33181329834E+03  0.17770000000E+01 0.  1.
</event>
<event>
 6    1  0.1823098E-004  0.5013611E+03  0.7546771E-02  0.9396769E-01
        -11   -1    0    0    0    0  0.00000000000E+00  0.00000000000E+00  0.50000000000E+03  0.50000000000E+03  0.00000000000E+00 0.  1.
         11   -1    0    0    0    0 -0.00000000000E+00 -0.00000000000E+00 -0.50000000000E+03  0.50000000000E+03  0.00000000000E+00 0.  1.
        -11    1    1    2    0    0  0.55425360829E+01 -0.47031545131E+01  0.49858592080E+03  0.49863890721E+03  0.00000000000E+00 0.  1.
         11    1    1    2    0    0 -0.64968549202E+01 -0.27088981560E+01 -0.48257944039E+03  0.48263077351E+03  0.00000000000E+00 0.  1.
        -15    1    1    2    0    0  0.22870115640E+01  0.68133538370E+01 -0.12743104240E+02  0.14737592988E+02  0.17770000000E+01 0. -1.
         15    1    1    2    0    0 -0.13326927267E+01  0.59869883217E+00 -0.32633761646E+01  0.39927262850E+01  0.17770000000E+01 0.  1.
</event>
<event>
 6    1  0.1823098E-004  0.5002065E+03  0.7546771E-02  0.9399348E-01
        -11   -1    0    0    0    0  0.00000000000E+00  0.00000000000E+00  0.50000000000E+03  0.50000000000E+03  0.00000000000E+00 0. -1.
         11   -1    0    0    0    0 -0.00000000000E+00 -0.00000000000E+00 -0.50000000000E+03  0.50000000000E+03  0.00000000000E+00 0. -1.
        -11    1    1    2    0    0 -0.48858130883E+01  0.21041192334E+01  0.35929475969E+03  0.35933413814E+03  0.00000000000E+00 0. -1.
         11    1    1    2    0    0  0.12693860773E+01 -0.12456735265E+02 -0.49963662942E+03  0.49979350041E+03  0.00000000000E+00 0. -1.
        -15    1    1    2    0    0  0.35745242022E+01  0.46539395582E+01  0.61528538360E+02  0.61833285037E+02  0.17770000000E+01 0.  1.
         15    1    1    2    0    0  0.41902808752E-01  0.56986764730E+01  0.78813331371E+02  0.79039076413E+02  0.17770000000E+01 0. -1.
</event>
<event>
 6    1  0.1823098E-004  0.5055751E+03  0.7546771E-02  0.9387421E-01
        -11   -1    0    0    0    0  0.00000000000E+00  0.00000000000E+00  0.50000000000E+03  0.50000000000E+03  0.00000000000E+00 0. -1.
         11   -1    0    0    0    0 -0.00000000000E+00 -0.00000000000E+00 -0.50000000000E+03  0.50000000000E+03  0.00000000000E+00 0.  1.
        -11    1    1    2    0    0  0.10907275387E+02 -0.54611851541E+01  0.36305547496E+03  0.36326033516E+03  0.00000000000E+00 0. -1.
         11    1    1    2    0    0 -0.17099424243E+02 -0.51944310457E+02 -0.49139130582E+03  0.49442493580E+03  0.00000000000E+00 0.  1.
        -15    1    1    2    0    0 -0.29834472923E+01  0.31679953437E+00  0.10116738343E+02  0.10700815081E+02  0.17770000000E+01 0.  1.
         15    1    1    2    0    0  0.91755961490E+01  0.57088696077E+02  0.11821909252E+03  0.13161391396E+03  0.17770000000E+01 0. -1.
</event>
<event>
 6    1  0.1823098E-004  0.5103613E+03  0.7546771E-02  0.9376919E-01
        -11   -1    0    0    0    0  0.00000000000E+00  0.00000000000E+00  0.50000000000E+03  0.50000000000E+03  0.00000000000E+00 0.  1.
         11   -1    0    0    0    0 -0.00000000000E+00 -0.00000000000E+00 -0.50000000000E+03  0.50000000000E+03  0.00000000000E+00 0.  1.
        -11    1    1    2    0    0  0.25839840655E+00 -0.11596766815E+02  0.48950124371E+03  0.48963866204E+03  0.00000000000E+00 0.  1.
         11    1    1    2    0    0  0.14704462709E+02 -0.31277566361E+02 -0.43043209328E+03  0.43181743168E+03  0.00000000000E+00 0.  1.
        -15    1    1    2    0    0 -0.28991040676E+00  0.33979571931E+01  0.20039720217E+01  0.43363341654E+01  0.17770000000E+01 0.  1.
         15    1    1    2    0    0 -0.14672950709E+02  0.39476375983E+02 -0.61073122457E+02  0.74207572113E+02  0.17770000000E+01 0. -1.
</event>
<event>
 6    1  0.1823098E-004  0.5002524E+03  0.7546771E-02  0.9399245E-01
        -11   -1    0    0    0    0  0.00000000000E+00  0.00000000000E+00  0.50000000000E+03  0.50000000000E+03  0.00000000000E+00 0.  1.
         11   -1    0    0    0    0 -0.00000000000E+00 -0.00000000000E+00 -0.50000000000E+03  0.50000000000E+03  0.00000000000E+00 0. -1.
        -11    1    1    2    0    0 -0.99595129492E+01  0.12964342081E+01  0.49964668193E+03  0.49974761570E+03  0.00000000000E+00 0.  1.
         11    1    1    2    0    0  0.54505987184E+01 -0.95435825610E+00 -0.12051415869E+03  0.12064113010E+03  0.00000000000E+00 0. -1.
        -15    1    1    2    0    0  0.10801777280E+02  0.44797999011E+00 -0.15736108909E+03  0.15774203361E+03  0.17770000000E+01 0.  1.
         15    1    1    2    0    0 -0.62928630497E+01 -0.79005594207E+00 -0.22177143415E+03  0.22186922059E+03  0.17770000000E+01 0. -1.
</event>
<event>
 6    1  0.1823098E-004  0.5006096E+03  0.7546771E-02  0.9398447E-01
        -11   -1    0    0    0    0  0.00000000000E+00  0.00000000000E+00  0.50000000000E+03  0.50000000000E+03  0.00000000000E+00 0.  1.
         11   -1    0    0    0    0 -0.00000000000E+00 -0.00000000000E+00 -0.50000000000E+03  0.50000000000E+03  0.00000000000E+00 0.  1.
        -11    1    1    2    0    0 -0.39548413778E+01  0.27328667898E+01  0.35350394340E+03  0.35353662799E+03  0.00000000000E+00 0.  1.
         11    1    1    2    0    0  0.62125171131E+01  0.86910138179E+01 -0.49927607187E+03  0.49939035336E+03  0.00000000000E+00 0.  1.
        -15    1    1    2    0    0 -0.39463001098E+01 -0.92202514774E+01  0.40902985967E+02  0.42152085499E+02  0.17770000000E+01 0.  1.
         15    1    1    2    0    0  0.16886243745E+01 -0.22036291303E+01  0.10486914250E+03  0.10492093314E+03  0.17770000000E+01 0. -1.
</event>
<event>
 6    1  0.1823098E-004  0.5007042E+03  0.7546771E-02  0.9398235E-01
        -11   -1    0    0    0    0  0.00000000000E+00  0.00000000000E+00  0.50000000000E+03  0.50000000000E+03  0.00000000000E+00 0.  1.
         11   -1    0    0    0    0 -0.00000000000E+00 -0.00000000000E+00 -0.50000000000E+03  0.50000000000E+03  0.00000000000E+00 0.  1.
        -11    1    1    2    0    0  0.30765315178E+01 -0.98995936912E+01  0.33423860143E+03  0.33439932669E+03  0.00000000000E+00 0.  1.
         11    1    1    2    0    0 -0.15457448719E+02 -0.48582466957E+01 -0.49903281040E+03  0.49929578522E+03  0.00000000000E+00 0.  1.
        -15    1    1    2    0    0  0.93834428812E+01  0.47730712907E+01  0.10865484382E+03  0.10917812979E+03  0.17770000000E+01 0.  1.
         15    1    1    2    0    0  0.29974743196E+01  0.99847690962E+01  0.56139365150E+02  0.57126758307E+02  0.17770000000E+01 0. -1.
</event>
<event>
 6    1  0.1823098E-004  0.5002355E+03  0.7546771E-02  0.9399283E-01
        -11   -1    0    0    0    0  0.00000000000E+00  0.00000000000E+00  0.50000000000E+03  0.50000000000E+03  0.00000000000E+00 0.  1.
         11   -1    0    0    0    0 -0.00000000000E+00 -0.00000000000E+00 -0.50000000000E+03  0.50000000000E+03  0.00000000000E+00 0. -1.
        -11    1    1    2    0    0  0.56289481076E+01 -0.63662564440E+01  0.49969223098E+03  0.49976448451E+03  0.00000000000E+00 0.  1.
         11    1    1    2    0    0 -0.50158923303E+01 -0.55685311775E+01 -0.29197851891E+03  0.29207468774E+03  0.00000000000E+00 0. -1.
        -15    1    1    2    0    0 -0.24757211350E+01  0.91879616258E+01 -0.13262419045E+03  0.13297699596E+03  0.17770000000E+01 0. -1.
         15    1    1    2    0    0  0.18626653577E+01  0.27468259958E+01 -0.75089521623E+02  0.75183831785E+02  0.17770000000E+01 0.  1.
</event>
<event>
 6    1  0.1823098E-004  0.5010452E+03  0.7546771E-02  0.9397474E-01
        -11   -1    0    0    0    0  0.00000000000E+00  0.00000000000E+00  0.50000000000E+03  0.50000000000E+03  0.00000000000E+00 0. -1.
         11   -1    0    0    0    0 -0.00000000000E+00 -0.00000000000E+00 -0.50000000000E+03  0.50000000000E+03  0.00000000000E+00 0.  1.
        -11    1    1    2    0    0  0.64350784129E+01  0.11065402561E+02  0.49879052644E+03  0.49895475009E+03  0.00000000000E+00 0. -1.
         11    1    1    2    0    0  0.31623260858E+01  0.12720209388E+02 -0.30118394984E+03  0.30146902938E+03  0.00000000000E+00 0.  1.
        -15    1    1    2    0    0 -0.95928670195E+00 -0.29648962663E+00 -0.60850630726E+01  0.64182442049E+01  0.17770000000E+01 0.  1.
         15    1    1    2    0    0 -0.86381177968E+01 -0.23489122323E+02 -0.19152151353E+03  0.19315797633E+03  0.17770000000E+01 0.  1.
</event>
<event>
 6    1  0.1823098E-004  0.5111384E+03  0.7546771E-02  0.9375226E-01
        -11   -1    0    0    0    0  0.00000000000E+00  0.00000000000E+00  0.50000000000E+03  0.50000000000E+03  0.00000000000E+00 0.  1.
         11   -1    0    0    0    0 -0.00000000000E+00 -0.00000000000E+00 -0.50000000000E+03  0.50000000000E+03  0.00000000000E+00 0. -1.
        -11    1    1    2    0    0 -0.23631466982E+02 -0.61173172308E+02  0.48444307031E+03  0.48886162829E+03  0.00000000000E+00 0.  1.
         11    1    1    2    0    0 -0.53572882785E+02  0.51860702885E+02 -0.31433209945E+03  0.32305456972E+03  0.00000000000E+00 0. -1.
        -15    1    1    2    0    0  0.51404518237E+02  0.10871733554E+02 -0.94246238226E+02  0.10791723789E+03  0.17770000000E+01 0.  1.
         15    1    1    2    0    0  0.25799831530E+02 -0.15592641310E+01 -0.75864732634E+02  0.80166564092E+02  0.17770000000E+01 0. -1.
</event>
<event>
 6    1  0.1823098E-004  0.5031913E+03  0.7546771E-02  0.9392697E-01
        -11   -1    0    0    0    0  0.00000000000E+00  0.00000000000E+00  0.50000000000E+03  0.50000000000E+03  0.00000000000E+00 0. -1.
         11   -1    0    0    0    0 -0.00000000000E+00 -0.00000000000E+00 -0.50000000000E+03  0.50000000000E+03  0.00000000000E+00 0.  1.
        -11    1    1    2    0    0  0.13818033713E+02  0.26691245931E+02  0.49589867530E+03  0.49680867226E+03  0.00000000000E+00 0. -1.
         11    1    1    2    0    0 -0.30590807702E+02 -0.15654719575E+02 -0.11325589532E+03  0.11835440670E+03  0.00000000000E+00 0.  1.
        -15    1    1    2    0    0  0.42563741980E+01  0.13033781231E+02 -0.12309480700E+03  0.12386882341E+03  0.17770000000E+01 0. -1.
         15    1    1    2    0    0  0.12516399791E+02 -0.24070307586E+02 -0.25954797298E+03  0.26096809762E+03  0.17770000000E+01 0.  1.
</event>
<event>
 6    1  0.1823098E-004  0.4893524E+03  0.7546771E-02  0.9423955E-01
        -11   -1    0    0    0    0  0.00000000000E+00  0.00000000000E+00  0.50000000000E+03  0.50000000000E+03  0.00000000000E+00 0.  1.
         11   -1    0    0    0    0 -0.00000000000E+00 -0.00000000000E+00 -0.50000000000E+03  0.50000000000E+03  0.00000000000E+00 0.  1.
        -11    1    1    2    0    0  0.66162151042E+01  0.73492201824E+01  0.48814842282E+03  0.48824857198E+03  0.00000000000E+00 0.  1.
         11    1    1    2    0    0 -0.63847074847E+01  0.90271455426E+01 -0.49047138102E+03  0.49059599412E+03  0.00000000000E+00 0.  1.
        -15    1    1    2    0    0 -0.21449697769E+00 -0.48985296522E+01 -0.51619826055E+01  0.73379421589E+01  0.17770000000E+01 0.  1.
         15    1    1    2    0    0 -0.17010641798E-01 -0.11477836073E+02  0.74849408033E+01  0.13817491744E+02  0.17770000000E+01 0. -1.
</event>
<event>
 6    1  0.1823098E-004  0.5054840E+03  0.7546771E-02  0.9387622E-01
        -11   -1    0    0    0    0  0.00000000000E+00  0.00000000000E+00  0.50000000000E+03  0.50000000000E+03  0.00000000000E+00 0.  1.
         11   -1    0    0    0    0 -0.00000000000E+00 -0.00000000000E+00 -0.50000000000E+03  0.50000000000E+03  0.00000000000E+00 0.  1.
        -11    1    1    2    0    0 -0.13830909033E+02 -0.35313227712E+02  0.33013638343E+03  0.33230761315E+03  0.00000000000E+00 0.  1.
         11    1    1    2    0    0 -0.24241820910E+02  0.78243858502E+01 -0.49385948868E+03  0.49451600728E+03  0.00000000000E+00 0.  1.
        -15    1    1    2    0    0  0.35011039334E+02  0.20647404190E+02  0.15904016173E+03  0.16416156355E+03  0.17770000000E+01 0. -1.
         15    1    1    2    0    0  0.30616906088E+01  0.68414376721E+01  0.46829435293E+01  0.90148160216E+01  0.17770000000E+01 0.  1.
</event>
<event>
 6    1  0.1823098E-004  0.5061479E+03  0.7546771E-02  0.9386157E-01
        -11   -1    0    0    0    0  0.00000000000E+00  0.00000000000E+00  0.50000000000E+03  0.50000000000E+03  0.00000000000E+00 0. -1.
         11   -1    0    0    0    0 -0.00000000000E+00 -0.00000000000E+00 -0.50000000000E+03  0.50000000000E+03  0.00000000000E+00 0. -1.
        -11    1    1    2    0    0  0.65846948598E+01  0.10254909369E+02  0.47232101006E+03  0.47247820894E+03  0.00000000000E+00 0. -1.
         11    1    1    2    0    0  0.61596807838E+01  0.10906479892E+02 -0.49369322663E+03  0.49385209829E+03  0.00000000000E+00 0. -1.
        -15    1    1    2    0    0  0.35828092197E+00 -0.20306524380E+01  0.28321815109E+01  0.39282178725E+01  0.17770000000E+01 0. -1.
         15    1    1    2    0    0 -0.13102656566E+02 -0.19130736823E+02  0.18540035053E+02  0.29741474900E+02  0.17770000000E+01 0.  1.
</event>
<event>
 6    1  0.1823098E-004  0.5019001E+03  0.7546771E-02  0.9395568E-01
        -11   -1    0    0    0    0  0.00000000000E+00  0.00000000000E+00  0.50000000000E+03  0.50000000000E+03  0.00000000000E+00 0. -1.
         11   -1    0    0    0    0 -0.00000000000E+00 -0.00000000000E+00 -0.50000000000E+03  0.50000000000E+03  0.00000000000E+00 0. -1.
        -11    1    1    2    0    0 -0.81458774678E+01  0.11204642843E+02  0.33556686188E+03  0.33585267326E+03  0.00000000000E+00 0. -1.
         11    1    1    2    0    0  0.12030220547E+02 -0.15608158782E+02 -0.49770992689E+03  0.49809990178E+03  0.00000000000E+00 0. -1.
        -15    1    1    2    0    0  0.53311959100E+01 -0.12350695414E+02  0.36409452966E+02  0.38855724435E+02  0.17770000000E+01 0. -1.
         15    1    1    2    0    0 -0.92155389889E+01  0.16754211353E+02  0.12573361204E+03  0.12719170053E+03  0.17770000000E+01 0.  1.
</event>
<event>
 6    1  0.1823098E-004  0.5038712E+03  0.7546771E-02  0.9391189E-01
        -11   -1    0    0    0    0  0.00000000000E+00  0.00000000000E+00  0.50000000000E+03  0.50000000000E+03  0.00000000000E+00 0.  1.
         11   -1    0    0    0    0 -0.00000000000E+00 -0.00000000000E+00 -0.50000000000E+03  0.50000000000E+03  0.00000000000E+00 0. -1.
        -11    1    1    2    0    0  0.99130909818E+02  0.36667094493E+02  0.48473952419E+03  0.49612883348E+03  0.00000000000E+00 0.  1.
         11    1    1    2    0    0 -0.84167734004E+02 -0.39726798925E+02 -0.26434983663E+03  0.28025570846E+03  0.00000000000E+00 0. -1.
        -15    1    1    2    0    0  0.91239198014E+01  0.82139718801E+01 -0.95976293499E+02  0.96774593201E+02  0.17770000000E+01 0.  1.
         15    1    1    2    0    0 -0.24087095616E+02 -0.51542674478E+01 -0.12441339406E+03  0.12684086486E+03  0.17770000000E+01 0. -1.
</event>
<event>
 6    1  0.1823098E-004  0.5024383E+03  0.7546771E-02  0.9394370E-01
        -11   -1    0    0    0    0  0.00000000000E+00  0.00000000000E+00  0.50000000000E+03  0.50000000000E+03  0.00000000000E+00 0.  1.
         11   -1    0    0    0    0 -0.00000000000E+00 -0.00000000000E+00 -0.50000000000E+03  0.50000000000E+03  0.00000000000E+00 0.  1.
        -11    1    1    2    0    0 -0.72593733216E+01  0.24191304892E-01  0.49750874745E+03  0.49756170760E+03  0.00000000000E+00 0.  1.
         11    1    1    2    0    0  0.20981775647E+02  0.46252327336E+01 -0.41938892714E+03  0.41993892401E+03  0.00000000000E+00 0.  1.
        -15    1    1    2    0    0 -0.56360395981E+00  0.28351191865E+01 -0.53934308680E+00  0.34357197485E+01  0.17770000000E+01 0. -1.
         15    1    1    2    0    0 -0.13158798365E+02 -0.74845432250E+01 -0.77580477221E+02  0.79063648642E+02  0.17770000000E+01 0.  1.
</event>
<event>
 6    1  0.1823098E-004  0.5011506E+03  0.7546771E-02  0.9397239E-01
        -11   -1    0    0    0    0  0.00000000000E+00  0.00000000000E+00  0.50000000000E+03  0.50000000000E+03  0.00000000000E+00 0. -1.
         11   -1    0    0    0    0 -0.00000000000E+00 -0.00000000000E+00 -0.50000000000E+03  0.50000000000E+03  0.00000000000E+00 0. -1.
        -11    1    1    2    0    0  0.46032085156E+01 -0.71151019716E+01  0.31219474170E+03  0.31230973559E+03  0.00000000000E+00 0. -1.
         11    1    1    2    0    0  0.24919430230E+01 -0.89738764703E+01 -0.49876245597E+03  0.49884940386E+03  0.00000000000E+00 0. -1.
        -15    1    1    2    0    0 -0.83646902392E+01 -0.32897717693E+01  0.77921083569E+02  0.78457909956E+02  0.17770000000E+01 0. -1.
         15    1    1    2    0    0  0.12695387006E+01  0.19378750211E+02  0.10864663071E+03  0.11038295059E+03  0.17770000000E+01 0.  1.
</event>
<event>
 6    1  0.1823098E-004  0.5172584E+03  0.7546771E-02  0.9362000E-01
        -11   -1    0    0    0    0  0.00000000000E+00  0.00000000000E+00  0.50000000000E+03  0.50000000000E+03  0.00000000000E+00 0.  1.
         11   -1    0    0    0    0 -0.00000000000E+00 -0.00000000000E+00 -0.50000000000E+03  0.50000000000E+03  0.00000000000E+00 0. -1.
        -11    1    1    2    0    0 -0.53959677747E+01 -0.16783436012E+02  0.48241959177E+03  0.48274161071E+03  0.00000000000E+00 0.  1.
         11    1    1    2    0    0  0.45941476936E+02  0.22525906230E+02 -0.43191615043E+03  0.43493631345E+03  0.00000000000E+00 0. -1.
        -15    1    1    2    0    0  0.98617135009E+01  0.60133754951E+01 -0.17036320319E+02  0.20659332444E+02  0.17770000000E+01 0. -1.
         15    1    1    2    0    0 -0.50407222663E+02 -0.11755845713E+02 -0.33467121015E+02  0.61662743395E+02  0.17770000000E+01 0.  1.
</event>
<event>
 6    1  0.1823098E-004  0.5010282E+03  0.7546771E-02  0.9397512E-01
        -11   -1    0    0    0    0  0.00000000000E+00  0.00000000000E+00  0.50000000000E+03  0.50000000000E+03  0.00000000000E+00 0.  1.
         11   -1    0    0    0    0 -0.00000000000E+00 -0.00000000000E+00 -0.50000000000E+03  0.50000000000E+03  0.00000000000E+00 0. -1.
        -11    1    1    2    0    0 -0.14553229158E+01 -0.54896126655E+01  0.41430579136E+03  0.41434471466E+03  0.00000000000E+00 0.  1.
         11    1    1    2    0    0  0.10133754201E+02 -0.56366000067E+01 -0.49883700692E+03  0.49897176645E+03  0.00000000000E+00 0. -1.
        -15    1    1    2    0    0 -0.60579655404E+01  0.79358018564E+01  0.24936797241E+02  0.26919834384E+02  0.17770000000E+01 0.  1.
         15    1    1    2    0    0 -0.26204657446E+01  0.31904108158E+01  0.59594418319E+02  0.59763684505E+02  0.17770000000E+01 0. -1.
</event>
<event>
 6    1  0.1823098E-004  0.5062584E+03  0.7546771E-02  0.9385914E-01
        -11   -1    0    0    0    0  0.00000000000E+00  0.00000000000E+00  0.50000000000E+03  0.50000000000E+03  0.00000000000E+00 0.  1.
         11   -1    0    0    0    0 -0.00000000000E+00 -0.00000000000E+00 -0.50000000000E+03  0.50000000000E+03  0.00000000000E+00 0. -1.
        -11    1    1    2    0    0 -0.18398264613E+02  0.10060645352E+01  0.49339765705E+03  0.49374158858E+03  0.00000000000E+00 0.  1.
         11    1    1    2    0    0  0.11876613092E+02 -0.19591404802E+02 -0.47325503369E+03  0.47380924853E+03  0.00000000000E+00 0. -1.
        -15    1    1    2    0    0  0.10084597793E+02  0.11698091713E+02 -0.69187024013E+01  0.17016775085E+02  0.17770000000E+01 0.  1.
         15    1    1    2    0    0 -0.35629462708E+01  0.68872485542E+01 -0.13223920959E+02  0.15432387803E+02  0.17770000000E+01 0. -1.
</event>
<event>
 6    1  0.1823098E-004  0.5013866E+03  0.7546771E-02  0.9396713E-01
        -11   -1    0    0    0    0  0.00000000000E+00  0.00000000000E+00  0.50000000000E+03  0.50000000000E+03  0.00000000000E+00 0. -1.
         11   -1    0    0    0    0 -0.00000000000E+00 -0.00000000000E+00 -0.50000000000E+03  0.50000000000E+03  0.00000000000E+00 0. -1.
        -11    1    1    2    0    0  0.73684117947E+01  0.21254700418E+02  0.49810571757E+03  0.49861343911E+03  0.00000000000E+00 0. -1.
         11    1    1    2    0    0  0.19749871175E+01 -0.17762237798E+02 -0.29487998046E+03  0.29542105636E+03  0.00000000000E+00 0. -1.
        -15    1    1    2    0    0 -0.16916615233E+01  0.95283917542E+01 -0.15688948661E+03  0.15719771215E+03  0.17770000000E+01 0. -1.
         15    1    1    2    0    0 -0.76517373889E+01 -0.13020854374E+02 -0.46336250506E+02  0.48767792381E+02  0.17770000000E+01 0.  1.
</event>
<event>
 6    1  0.1823098E-004  0.5044170E+03  0.7546771E-02  0.9389980E-01
        -11   -1    0    0    0    0  0.00000000000E+00  0.00000000000E+00  0.50000000000E+03  0.50000000000E+03  0.00000000000E+00 0.  1.
         11   -1    0    0    0    0 -0.00000000000E+00 -0.00000000000E+00 -0.50000000000E+03  0.50000000000E+03  0.00000000000E+00 0.  1.
        -11    1    1    2    0    0 -0.24178488472E+02  0.42450586220E+02  0.49316922198E+03  0.49558302340E+03  0.00000000000E+00 0.  1.
         11    1    1    2    0    0  0.20176513571E+02 -0.62811375004E+02 -0.20315596732E+03  0.21359940915E+03  0.00000000000E+00 0.  1.
        -15    1    1    2    0    0  0.36793835370E+01  0.88901602288E+01 -0.11234332581E+03  0.11276858337E+03  0.17770000000E+01 0. -1.
         15    1    1    2    0    0  0.32259136395E+00  0.11470628555E+02 -0.17766992885E+03  0.17804898408E+03  0.17770000000E+01 0.  1.
</event>
<event>
 6    1  0.1823098E-004  0.5000962E+03  0.7546771E-02  0.9399594E-01
        -11   -1    0    0    0    0  0.00000000000E+00  0.00000000000E+00  0.50000000000E+03  0.50000000000E+03  0.00000000000E+00 0. -1.
         11   -1    0    0    0    0 -0.00000000000E+00 -0.00000000000E+00 -0.50000000000E+03  0.50000000000E+03  0.00000000000E+00 0.  1.
        -11    1    1    2    0    0  0.10214104159E+02 -0.79494090255E+01  0.49973620553E+03  0.49990378689E+03  0.00000000000E+00 0. -1.
         11    1    1    2    0    0 -0.23463298048E+01  0.72113718148E+01 -0.12729478345E+03  0.12752047302E+03  0.00000000000E+00 0.  1.
        -15    1    1    2    0    0 -0.44709539082E+01 -0.19777130702E+01 -0.22221580912E+03  0.22227668418E+03  0.17770000000E+01 0.  1.
         15    1    1    2    0    0 -0.33968204458E+01  0.27157502809E+01 -0.15022561297E+03  0.15029905591E+03  0.17770000000E+01 0. -1.
</event>
<event>
 6    1  0.1823098E-004  0.5007211E+03  0.7546771E-02  0.9398198E-01
        -11   -1    0    0    0    0  0.00000000000E+00  0.00000000000E+00  0.50000000000E+03  0.50000000000E+03  0.00000000000E+00 0.  1.
         11   -1    0    0    0    0 -0.00000000000E+00 -0.00000000000E+00 -0.50000000000E+03  0.50000000000E+03  0.00000000000E+00 0.  1.
        -11    1    1    2    0    0 -0.48295836202E+01 -0.84066241957E+01  0.49918479071E+03  0.49927893155E+03  0.00000000000E+00 0.  1.
         11    1    1    2    0    0 -0.61662944596E+01  0.62524629481E+01 -0.44068965504E+03  0.44077714158E+03  0.00000000000E+00 0.  1.
        -15    1    1    2    0    0  0.22413375753E+01  0.15379572272E+01 -0.75646776686E+01  0.82323133923E+01  0.17770000000E+01 0. -1.
         15    1    1    2    0    0  0.87545405045E+01  0.61620402035E+00 -0.50930458003E+02  0.51711613476E+02  0.17770000000E+01 0.  1.
</event>
<event>
 6    1  0.1823098E-004  0.5004493E+03  0.7546771E-02  0.9398805E-01
        -11   -1    0    0    0    0  0.00000000000E+00  0.00000000000E+00  0.50000000000E+03  0.50000000000E+03  0.00000000000E+00 0.  1.
         11   -1    0    0    0    0 -0.00000000000E+00 -0.00000000000E+00 -0.50000000000E+03  0.50000000000E+03  0.00000000000E+00 0.  1.
        -11    1    1    2    0    0 -0.57024901644E+01 -0.46139808266E+01  0.38796935080E+03  0.38803868928E+03  0.00000000000E+00 0.  1.
         11    1    1    2    0    0  0.11670507784E+02 -0.24445146898E+01 -0.49940839633E+03  0.49955072088E+03  0.00000000000E+00 0.  1.
        -15    1    1    2    0    0 -0.37616868076E+01  0.88060389845E+01  0.53725218453E+02  0.54600855644E+02  0.17770000000E+01 0.  1.
         15    1    1    2    0    0 -0.22063308122E+01 -0.17475434681E+01  0.57713827075E+02  0.57809734202E+02  0.17770000000E+01 0. -1.
</event>
<event>
 6    1  0.1823098E-004  0.5000932E+03  0.7546771E-02  0.9399601E-01
        -11   -1    0    0    0    0  0.00000000000E+00  0.00000000000E+00  0.50000000000E+03  0.50000000000E+03  0.00000000000E+00 0.  1.
         11   -1    0    0    0    0 -0.00000000000E+00 -0.00000000000E+00 -0.50000000000E+03  0.50000000000E+03  0.00000000000E+00 0. -1.
        -11    1    1    2    0    0 -0.12496701774E+02 -0.14633505878E+02  0.42172569071E+03  0.42216450023E+03  0.00000000000E+00 0.  1.
         11    1    1    2    0    0  0.17966492964E+02  0.17612131986E+02 -0.49927326421E+03  0.49990676572E+03  0.00000000000E+00 0. -1.
        -15    1    1    2    0    0 -0.38231559049E+01 -0.71228295319E+00  0.49898128691E+02  0.50080982857E+02  0.17770000000E+01 0.  1.
         15    1    1    2    0    0 -0.16466352854E+01 -0.22663431542E+01  0.27649444807E+02  0.27847751187E+02  0.17770000000E+01 0. -1.
</event>
<event>
 6    1  0.1823098E-004  0.5066497E+03  0.7546771E-02  0.9385052E-01
        -11   -1    0    0    0    0  0.00000000000E+00  0.00000000000E+00  0.50000000000E+03  0.50000000000E+03  0.00000000000E+00 0.  1.
         11   -1    0    0    0    0 -0.00000000000E+00 -0.00000000000E+00 -0.50000000000E+03  0.50000000000E+03  0.00000000000E+00 0.  1.
        -11    1    1    2    0    0  0.77030738814E+01 -0.97180127528E+01  0.46173147747E+03  0.46189796970E+03  0.00000000000E+00 0.  1.
         11    1    1    2    0    0 -0.26457560403E+02  0.10087408963E+02 -0.49253711022E+03  0.49335034536E+03  0.00000000000E+00 0.  1.
        -15    1    1    2    0    0  0.55907646518E+01 -0.73786252784E+01 -0.10974331926E+01  0.94901448357E+01  0.17770000000E+01 0. -1.
         15    1    1    2    0    0  0.13163721870E+02  0.70092290686E+01  0.31903065938E+02  0.35261540109E+02  0.17770000000E+01 0.  1.
</event>
<event>
 6    1  0.1823098E-004  0.5104967E+03  0.7546771E-02  0.9376624E-01
        -11   -1    0    0    0    0  0.00000000000E+00  0.00000000000E+00  0.50000000000E+03  0.50000000000E+03  0.00000000000E+00 0.  1.
         11   -1    0    0    0    0 -0.00000000000E+00 -0.00000000000E+00 -0.50000000000E+03  0.50000000000E+03  0.00000000000E+00 0. -1.
        -11    1    1    2    0    0  0.19099147427E+01 -0.13641469141E+02  0.29920010351E+03  0.29951701019E+03  0.00000000000E+00 0.  1.
         11    1    1    2    0    0 -0.11679328568E+02 -0.27958065356E+02 -0.48856467586E+03  0.48950332239E+03  0.00000000000E+00 0. -1.
        -15    1    1    2    0    0  0.37841847607E+02  0.34259240816E+02  0.61951346732E+02  0.80292142221E+02  0.17770000000E+01 0.  1.
         15    1    1    2    0    0 -0.28072433782E+02  0.73402936814E+01  0.12741322562E+03  0.13068752519E+03  0.17770000000E+01 0. -1.
</event>
<event>
 6    1  0.1823098E-004  0.5033465E+03  0.7546771E-02  0.9392353E-01
        -11   -1    0    0    0    0  0.00000000000E+00  0.00000000000E+00  0.50000000000E+03  0.50000000000E+03  0.00000000000E+00 0.  1.
         11   -1    0    0    0    0 -0.00000000000E+00 -0.00000000000E+00 -0.50000000000E+03  0.50000000000E+03  0.00000000000E+00 0. -1.
        -11    1    1    2    0    0  0.11068360342E+02 -0.50696808594E+01  0.49650431408E+03  0.49665354541E+03  0.00000000000E+00 0.  1.
         11    1    1    2    0    0 -0.77533341778E+01  0.39676183804E+01 -0.48748687346E+03  0.48756467056E+03  0.00000000000E+00 0. -1.
        -15    1    1    2    0    0  0.13252327483E+01 -0.38777917822E+01 -0.72710604169E+01  0.85334377322E+01  0.17770000000E+01 0. -1.
         15    1    1    2    0    0 -0.46402589128E+01  0.49798542613E+01 -0.17463802083E+01  0.72483462992E+01  0.17770000000E+01 0.  1.
</event>
<event>
 6    1  0.1823098E-004  0.5001760E+03  0.7546771E-02  0.9399416E-01
        -11   -1    0    0    0    0  0.00000000000E+00  0.00000000000E+00  0.50000000000E+03  0.50000000000E+03  0.00000000000E+00 0. -1.
         11   -1    0    0    0    0 -0.00000000000E+00 -0.00000000000E+00 -0.50000000000E+03  0.50000000000E+03  0.00000000000E+00 0.  1.
        -11    1    1    2    0    0 -0.36479814565E+00 -0.35266470217E+01  0.19805448993E+03  0.19808622188E+03  0.00000000000E+00 0. -1.
         11    1    1    2    0    0 -0.19640584096E+01 -0.76100988318E+01 -0.49976217884E+03  0.49982397554E+03  0.00000000000E+00 0.  1.
        -15    1    1    2    0    0 -0.16013093466E+01 -0.66806492563E+00  0.36430850996E+02  0.36515409564E+02  0.17770000000E+01 0. -1.
         15    1    1    2    0    0  0.39301659018E+01  0.11804810779E+02  0.26527683791E+03  0.26557439301E+03  0.17770000000E+01 0. -1.
</event>
<event>
 6    1  0.1823098E-004  0.5011765E+03  0.7546771E-02  0.9397181E-01
        -11   -1    0    0    0    0  0.00000000000E+00  0.00000000000E+00  0.50000000000E+03  0.50000000000E+03  0.00000000000E+00 0. -1.
         11   -1    0    0    0    0 -0.00000000000E+00 -0.00000000000E+00 -0.50000000000E+03  0.50000000000E+03  0.00000000000E+00 0.  1.
        -11    1    1    2    0    0 -0.14741133725E+02  0.42272573670E+01  0.43404684952E+03  0.43431766981E+03  0.00000000000E+00 0. -1.
         11    1    1    2    0    0  0.23934808741E+02 -0.10637302666E+02 -0.49813535420E+03  0.49882347416E+03  0.00000000000E+00 0.  1.
        -15    1    1    2    0    0 -0.91757402455E+01  0.11266931981E+01  0.57331980525E+02  0.58099719160E+02  0.17770000000E+01 0. -1.
         15    1    1    2    0    0 -0.17934770955E-01  0.52833521005E+01  0.67565241526E+01  0.87591368695E+01  0.17770000000E+01 0.  1.
</event>
<event>
 6    1  0.1823098E-004  0.5000739E+03  0.7546771E-02  0.9399644E-01
        -11   -1    0    0    0    0  0.00000000000E+00  0.00000000000E+00  0.50000000000E+03  0.50000000000E+03  0.00000000000E+00 0. -1.
         11   -1    0    0    0    0 -0.00000000000E+00 -0.00000000000E+00 -0.50000000000E+03  0.50000000000E+03  0.00000000000E+00 0.  1.
        -11    1    1    2    0    0 -0.21266881047E+02 -0.15523446882E+02  0.49923221699E+03  0.49992605865E+03  0.00000000000E+00 0. -1.
         11    1    1    2    0    0  0.15786497495E+02  0.11527491813E+02 -0.31212248484E+03  0.31273397978E+03  0.00000000000E+00 0.  1.
        -15    1    1    2    0    0  0.23699813601E+01 -0.22245712580E+00 -0.33770882352E+02  0.33901276122E+02  0.17770000000E+01 0.  1.
         15    1    1    2    0    0  0.31104021916E+01  0.42184121953E+01 -0.15333884980E+03  0.15343868545E+03  0.17770000000E+01 0.  1.
</event>
<event>
 6    1  0.1823098E-004  0.5009804E+03  0.7546771E-02  0.9397619E-01
        -11   -1    0    0    0    0  0.00000000000E+00  0.00000000000E+00  0.50000000000E+03  0.50000000000E+03  0.00000000000E+00 0.  1.
         11   -1    0    0    0    0 -0.00000000000E+00 -0.00000000000E+00 -0.50000000000E+03  0.50000000000E+03  0.00000000000E+00 0. -1.
        -11    1    1    2    0    0  0.17971291248E+02  0.28153131024E+01  0.49868795042E+03  0.49901960401E+03  0.00000000000E+00 0.  1.
         11    1    1    2    0    0 -0.15693586122E+02  0.71688905370E+01 -0.73343896432E+02  0.75345927432E+02  0.00000000000E+00 0. -1.
        -15    1    1    2    0    0  0.11049472646E+01 -0.34691520821E+01 -0.37740083358E+02  0.37956916965E+02  0.17770000000E+01 0.  1.
         15    1    1    2    0    0 -0.33826523911E+01 -0.65150515574E+01 -0.38760397063E+03  0.38767755159E+03  0.17770000000E+01 0. -1.
</event>
<event>
 6    1  0.1823098E-004  0.4677397E+03  0.7546771E-02  0.9475037E-01
        -11   -1    0    0    0    0  0.00000000000E+00  0.00000000000E+00  0.50000000000E+03  0.50000000000E+03  0.00000000000E+00 0.  1.
         11   -1    0    0    0    0 -0.00000000000E+00 -0.00000000000E+00 -0.50000000000E+03  0.50000000000E+03  0.00000000000E+00 0. -1.
        -11    1    1    2    0    0 -0.20771273481E+02  0.15373721589E+02  0.45861272632E+03  0.45934021145E+03  0.00000000000E+00 0.  1.
         11    1    1    2    0    0 -0.23630159676E+02 -0.53297846756E+02 -0.47452693955E+03  0.47809503373E+03  0.00000000000E+00 0. -1.
        -15    1    1    2    0    0  0.33282121626E+02  0.35497371549E+02  0.10383810802E+02  0.49786988889E+02  0.17770000000E+01 0.  1.
         15    1    1    2    0    0  0.11119311531E+02  0.24267536183E+01  0.55304024316E+01  0.12777765927E+02  0.17770000000E+01 0. -1.
</event>
<event>
 6    1  0.1823098E-004  0.5042004E+03  0.7546771E-02  0.9390460E-01
        -11   -1    0    0    0    0  0.00000000000E+00  0.00000000000E+00  0.50000000000E+03  0.50000000000E+03  0.00000000000E+00 0. -1.
         11   -1    0    0    0    0 -0.00000000000E+00 -0.00000000000E+00 -0.50000000000E+03  0.50000000000E+03  0.00000000000E+00 0. -1.
        -11    1    1    2    0    0  0.56847009383E+01  0.43191035458E+01  0.49574816659E+03  0.49579957156E+03  0.00000000000E+00 0. -1.
         11    1    1    2    0    0 -0.56048543599E+00 -0.11986260119E+02 -0.38200151669E+03  0.38218993096E+03  0.00000000000E+00 0. -1.
        -15    1    1    2    0    0 -0.12282818770E+01 -0.55051129432E+01  0.13644129510E+01  0.60691265094E+01  0.17770000000E+01 0. -1.
         15    1    1    2    0    0 -0.38959336253E+01  0.13172269517E+02 -0.11511106285E+03  0.11594137097E+03  0.17770000000E+01 0.  1.
</event>
<event>
 6    1  0.1823098E-004  0.5001551E+03  0.7546771E-02  0.9399463E-01
        -11   -1    0    0    0    0  0.00000000000E+00  0.00000000000E+00  0.50000000000E+03  0.50000000000E+03  0.00000000000E+00 0. -1.
         11   -1    0    0    0    0 -0.00000000000E+00 -0.00000000000E+00 -0.50000000000E+03  0.50000000000E+03  0.00000000000E+00 0.  1.
        -11    1    1    2    0    0  0.56799805313E+00 -0.35893351270E+01  0.11009446197E+03  0.11015442118E+03  0.00000000000E+00 0. -1.
         11    1    1    2    0    0 -0.47816771315E+01 -0.10843871180E+02 -0.49970439451E+03  0.49984491182E+03  0.00000000000E+00 0.  1.
        -15    1    1    2    0    0 -0.22299383691E+01  0.56941190125E+01  0.16163865929E+03  0.16176405510E+03  0.17770000000E+01 0.  1.
         15    1    1    2    0    0  0.64436174474E+01  0.87390872941E+01  0.22797127325E+03  0.22823661190E+03  0.17770000000E+01 0. -1.
</event>
<event>
 6    1  0.1823098E-004  0.4924123E+03  0.7546771E-02  0.9416950E-01
        -11   -1    0    0    0    0  0.00000000000E+00  0.00000000000E+00  0.50000000000E+03  0.50000000000E+03  0.00000000000E+00 0. -1.
         11   -1    0    0    0    0 -0.00000000000E+00 -0.00000000000E+00 -0.50000000000E+03  0.50000000000E+03  0.00000000000E+00 0. -1.
        -11    1    1    2    0    0 -0.29711908868E+01  0.11593460187E+02  0.49485318150E+03  0.49499788639E+03  0.00000000000E+00 0. -1.
         11    1    1    2    0    0  0.12503149838E+02 -0.55091170529E+01 -0.48971453546E+03  0.48990509833E+03  0.00000000000E+00 0. -1.
        -15    1    1    2    0    0 -0.81072736770E+01 -0.10446248447E+01 -0.45838119045E+01  0.95387728831E+01  0.17770000000E+01 0. -1.
         15    1    1    2    0    0 -0.14246852744E+01 -0.50397182897E+01 -0.55483413134E+00  0.55582423916E+01  0.17770000000E+01 0.  1.
</event>
<event>
 6    1  0.1823098E-004  0.5009782E+03  0.7546771E-02  0.9397624E-01
        -11   -1    0    0    0    0  0.00000000000E+00  0.00000000000E+00  0.50000000000E+03  0.50000000000E+03  0.00000000000E+00 0.  1.
         11   -1    0    0    0    0 -0.00000000000E+00 -0.00000000000E+00 -0.50000000000E+03  0.50000000000E+03  0.00000000000E+00 0.  1.
        -11    1    1    2    0    0  0.62084085145E+01 -0.26128562528E+01  0.49897636807E+03  0.49902183043E+03  0.00000000000E+00 0.  1.
         11    1    1    2    0    0 -0.89088985417E+01 -0.14996992250E+02 -0.24496416467E+03  0.24558444621E+03  0.00000000000E+00 0.  1.
        -15    1    1    2    0    0  0.80465641980E+01  0.39101829473E+01 -0.15621701910E+03  0.15648307101E+03  0.17770000000E+01 0. -1.
         15    1    1    2    0    0 -0.53460741707E+01  0.13699665556E+02 -0.97795184302E+02  0.98910652343E+02  0.17770000000E+01 0.  1.
</event>
<event>
 6    1  0.1823098E-004  0.5033496E+03  0.7546771E-02  0.9392346E-01
        -11   -1    0    0    0    0  0.00000000000E+00  0.00000000000E+00  0.50000000000E+03  0.50000000000E+03  0.00000000000E+00 0. -1.
         11   -1    0    0    0    0 -0.00000000000E+00 -0.00000000000E+00 -0.50000000000E+03  0.50000000000E+03  0.00000000000E+00 0.  1.
        -11    1    1    2    0    0 -0.10314307188E+02 -0.14661453973E+01  0.49654116854E+03  0.49665044707E+03  0.00000000000E+00 0. -1.
         11    1    1    2    0    0 -0.38111727044E+01  0.15626091571E+02 -0.43285560712E+03  0.43315433323E+03  0.00000000000E+00 0.  1.
        -15    1    1    2    0    0  0.93243231188E+01  0.27565196110E+01 -0.11860344145E+02  0.15439135152E+02  0.17770000000E+01 0.  1.
         15    1    1    2    0    0  0.48011567738E+01 -0.16916465784E+02 -0.51825217275E+02  0.54756084553E+02  0.17770000000E+01 0. -1.
</event>
<event>
 6    1  0.1823098E-004  0.5022826E+03  0.7546771E-02  0.9394717E-01
        -11   -1    0    0    0    0  0.00000000000E+00  0.00000000000E+00  0.50000000000E+03  0.50000000000E+03  0.00000000000E+00 0. -1.
         11   -1    0    0    0    0 -0.00000000000E+00 -0.00000000000E+00 -0.50000000000E+03  0.50000000000E+03  0.00000000000E+00 0.  1.
        -11    1    1    2    0    0  0.75940099518E+01 -0.53727804088E+01  0.49763043289E+03  0.49771737311E+03  0.00000000000E+00 0. -1.
         11    1    1    2    0    0 -0.10363373110E+02 -0.70812144258E+01 -0.45718076175E+03  0.45735302778E+03  0.00000000000E+00 0.  1.
        -15    1    1    2    0    0  0.77398652137E+01  0.39371925788E+01 -0.24905982081E+02  0.26436200017E+02  0.17770000000E+01 0.  1.
         15    1    1    2    0    0 -0.49705020555E+01  0.85168022557E+01 -0.15543689060E+02  0.18493399091E+02  0.17770000000E+01 0. -1.
</event>
<event>
 6    1  0.1823098E-004  0.5167589E+03  0.7546771E-02  0.9363072E-01
        -11   -1    0    0    0    0  0.00000000000E+00  0.00000000000E+00  0.50000000000E+03  0.50000000000E+03  0.00000000000E+00 0.  1.
         11   -1    0    0    0    0 -0.00000000000E+00 -0.00000000000E+00 -0.50000000000E+03  0.50000000000E+03  0.00000000000E+00 0. -1.
        -11    1    1    2    0    0  0.14027940653E+02 -0.57614567897E+02  0.47958915206E+03  0.48324111614E+03  0.00000000000E+00 0.  1.
         11    1    1    2    0    0 -0.54738806009E+02  0.10039213117E+03 -0.24048804027E+03  0.26628821679E+03  0.00000000000E+00 0. -1.
        -15    1    1    2    0    0  0.20563404482E+01 -0.35037684451E+02 -0.11361242305E+03  0.11892353959E+03  0.17770000000E+01 0.  1.
         15    1    1    2    0    0  0.38654524908E+02 -0.77398788236E+01 -0.12548868874E+03  0.13154712749E+03  0.17770000000E+01 0. -1.
</event>
<event>
 6    1  0.1823098E-004  0.5046750E+03  0.7546771E-02  0.9389409E-01
        -11   -1    0    0    0    0  0.00000000000E+00  0.00000000000E+00  0.50000000000E+03  0.50000000000E+03  0.00000000000E+00 0. -1.
         11   -1    0    0    0    0 -0.00000000000E+00 -0.00000000000E+00 -0.50000000000E+03  0.50000000000E+03  0.00000000000E+00 0. -1.
        -11    1    1    2    0    0  0.32905718000E+01 -0.69470233574E+01  0.47850506977E+03  0.47856680912E+03  0.00000000000E+00 0. -1.
         11    1    1    2    0    0 -0.16936490865E+02  0.90090314105E+00 -0.49503453397E+03  0.49532499045E+03  0.00000000000E+00 0. -1.
        -15    1    1    2    0    0  0.10839514345E+02 -0.21186960487E+01  0.11079836066E+02  0.15744981436E+02  0.17770000000E+01 0. -1.
         15    1    1    2    0    0  0.28064047200E+01  0.81648162651E+01  0.54496281305E+01  0.10363218991E+02  0.17770000000E+01 0.  1.
</event>
<event>
 6    1  0.1823098E-004  0.5002420E+03  0.7546771E-02  0.9399268E-01
        -11   -1    0    0    0    0  0.00000000000E+00  0.00000000000E+00  0.50000000000E+03  0.50000000000E+03  0.00000000000E+00 0.  1.
         11   -1    0    0    0    0 -0.00000000000E+00 -0.00000000000E+00 -0.50000000000E+03  0.50000000000E+03  0.00000000000E+00 0. -1.
        -11    1    1    2    0    0 -0.29002630059E+01 -0.99972005409E+01  0.49964958608E+03  0.49975800585E+03  0.00000000000E+00 0.  1.
         11    1    1    2    0    0  0.66202622732E+01  0.24174910285E+01 -0.92053289314E+02  0.92322696067E+02  0.00000000000E+00 0. -1.
        -15    1    1    2    0    0 -0.86816751263E+01  0.60769120354E+01 -0.27442618573E+03  0.27463646787E+03  0.17770000000E+01 0. -1.
         15    1    1    2    0    0  0.49616758591E+01  0.15027974770E+01 -0.13317011104E+03  0.13328283021E+03  0.17770000000E+01 0.  1.
</event>
<event>
 6    1  0.1823098E-004  0.5011594E+03  0.7546771E-02  0.9397219E-01
        -11   -1    0    0    0    0  0.00000000000E+00  0.00000000000E+00  0.50000000000E+03  0.50000000000E+03  0.00000000000E+00 0. -1.
         11   -1    0    0    0    0 -0.00000000000E+00 -0.00000000000E+00 -0.50000000000E+03  0.50000000000E+03  0.00000000000E+00 0.  1.
        -11    1    1    2    0    0  0.82809862750E+01  0.84573773733E+01  0.25045030537E+03  0.25072984949E+03  0.00000000000E+00 0. -1.
         11    1    1    2    0    0 -0.27324493815E+02 -0.31654166497E+02 -0.49708479027E+03  0.49884055863E+03  0.00000000000E+00 0.  1.
        -15    1    1    2    0    0  0.90682799522E+00 -0.50064813098E+01  0.93577026112E+02  0.93732090221E+02  0.17770000000E+01 0. -1.
         15    1    1    2    0    0  0.18136679545E+02  0.28203270433E+02  0.15305745879E+03  0.15669750166E+03  0.17770000000E+01 0.  1.
</event>
<event>
 6    1  0.1823098E-004  0.5001311E+03  0.7546771E-02  0.9399516E-01
        -11   -1    0    0    0    0  0.00000000000E+00  0.00000000000E+00  0.50000000000E+03  0.50000000000E+03  0.00000000000E+00 0.  1.
         11   -1    0    0    0    0 -0.00000000000E+00 -0.00000000000E+00 -0.50000000000E+03  0.50000000000E+03  0.00000000000E+00 0.  1.
        -11    1    1    2    0    0 -0.79390926312E+01 -0.60131491012E+01  0.49976967191E+03  0.49986889493E+03  0.00000000000E+00 0.  1.
         11    1    1    2    0    0 -0.31715507945E+01 -0.69886526641E+00 -0.50487292466E+02  0.50591638119E+02  0.00000000000E+00 0.  1.
        -15    1    1    2    0    0  0.10880881014E+02  0.48451197699E+01 -0.40689864667E+03  0.40707681726E+03  0.17770000000E+01 0.  1.
         15    1    1    2    0    0  0.22976241146E+00  0.18668945977E+01 -0.42383732776E+02  0.42462649697E+02  0.17770000000E+01 0. -1.
</event>
<event>
 6    1  0.1823098E-004  0.5033603E+03  0.7546771E-02  0.9392322E-01
        -11   -1    0    0    0    0  0.00000000000E+00  0.00000000000E+00  0.50000000000E+03  0.50000000000E+03  0.00000000000E+00 0. -1.
         11   -1    0    0    0    0 -0.00000000000E+00 -0.00000000000E+00 -0.50000000000E+03  0.50000000000E+03  0.00000000000E+00 0. -1.
        -11    1    1    2    0    0  0.23873398106E+01 -0.64589171552E+01  0.49659194309E+03  0.49663968321E+03  0.00000000000E+00 0. -1.
         11    1    1    2    0    0  0.13846241650E+02 -0.11911523944E+02 -0.40471695823E+03  0.40512889194E+03  0.00000000000E+00 0. -1.
        -15    1    1    2    0    0  0.56581195305E+01  0.26749787555E+01 -0.30431369218E+02  0.31119058299E+02  0.17770000000E+01 0.  1.
         15    1    1    2    0    0 -0.21891700991E+02  0.15695462344E+02 -0.61443615643E+02  0.67112366541E+02  0.17770000000E+01 0. -1.
</event>
<event>
 6    1  0.1823098E-004  0.5001779E+03  0.7546771E-02  0.9399412E-01
        -11   -1    0    0    0    0  0.00000000000E+00  0.00000000000E+00  0.50000000000E+03  0.50000000000E+03  0.00000000000E+00 0.  1.
         11   -1    0    0    0    0 -0.00000000000E+00 -0.00000000000E+00 -0.50000000000E+03  0.50000000000E+03  0.00000000000E+00 0.  1.
        -11    1    1    2    0    0 -0.16561869410E+02 -0.34460295183E+02  0.33423831119E+03  0.33641797830E+03  0.00000000000E+00 0.  1.
         11    1    1    2    0    0  0.18314263599E+02  0.42073959988E+02 -0.49771130496E+03  0.49982214181E+03  0.00000000000E+00 0.  1.
        -15    1    1    2    0    0 -0.30601486214E+01 -0.32852417039E+01  0.83237044881E+02  0.83376979389E+02  0.17770000000E+01 0.  1.
         15    1    1    2    0    0  0.13077544326E+01 -0.43284231004E+01  0.80235948893E+02  0.80382900495E+02  0.17770000000E+01 0.  1.
</event>
<event>
 6    1  0.1823098E-004  0.5112581E+03  0.7546771E-02  0.9374965E-01
        -11   -1    0    0    0    0  0.00000000000E+00  0.00000000000E+00  0.50000000000E+03  0.50000000000E+03  0.00000000000E+00 0. -1.
         11   -1    0    0    0    0 -0.00000000000E+00 -0.00000000000E+00 -0.50000000000E+03  0.50000000000E+03  0.00000000000E+00 0.  1.
        -11    1    1    2    0    0  0.30330036226E+01  0.83034028004E+01  0.48866191500E+03  0.48874186723E+03  0.00000000000E+00 0. -1.
         11    1    1    2    0    0  0.17445099997E+02  0.16466261220E+02 -0.45440038970E+03  0.45503316740E+03  0.00000000000E+00 0.  1.
        -15    1    1    2    0    0 -0.22469553489E+02 -0.23411980109E+02 -0.38909289030E+02  0.50696076263E+02  0.17770000000E+01 0. -1.
         15    1    1    2    0    0  0.19914498697E+01 -0.13576839109E+01  0.46477637279E+01  0.55288891159E+01  0.17770000000E+01 0.  1.
</event>
<event>
 6    1  0.1823098E-004  0.5072180E+03  0.7546771E-02  0.9383802E-01
        -11   -1    0    0    0    0  0.00000000000E+00  0.00000000000E+00  0.50000000000E+03  0.50000000000E+03  0.00000000000E+00 0.  1.
         11   -1    0    0    0    0 -0.00000000000E+00 -0.00000000000E+00 -0.50000000000E+03  0.50000000000E+03  0.00000000000E+00 0. -1.
        -11    1    1    2    0    0 -0.31051673489E+01  0.35259240584E+01  0.23411803380E+03  0.23416517238E+03  0.00000000000E+00 0.  1.
         11    1    1    2    0    0 -0.76595345194E+02  0.37289282465E+02 -0.48536252299E+03  0.49278201694E+03  0.00000000000E+00 0. -1.
        -15    1    1    2    0    0  0.40381808155E+02  0.36176069465E+00  0.52219029755E+02  0.66036399798E+02  0.17770000000E+01 0. -1.
         15    1    1    2    0    0  0.39318704389E+02 -0.41176967218E+02  0.19902545944E+03  0.20701641089E+03  0.17770000000E+01 0.  1.
</event>
<event>
 6    1  0.1823098E-004  0.4893467E+03  0.7546771E-02  0.9423968E-01
        -11   -1    0    0    0    0  0.00000000000E+00  0.00000000000E+00  0.50000000000E+03  0.50000000000E+03  0.00000000000E+00 0.  1.
         11   -1    0    0    0    0 -0.00000000000E+00 -0.00000000000E+00 -0.50000000000E+03  0.50000000000E+03  0.00000000000E+00 0. -1.
        -11    1    1    2    0    0 -0.89334499807E+01  0.77778804258E+00  0.49284274194E+03  0.49292431444E+03  0.00000000000E+00 0.  1.
         11    1    1    2    0    0  0.96191642893E-01  0.10082543650E+02 -0.48579005089E+03  0.48589468044E+03  0.00000000000E+00 0. -1.
        -15    1    1    2    0    0  0.21600569221E+01 -0.12281882733E+02 -0.26704002614E+01  0.12876305990E+02  0.17770000000E+01 0. -1.
         15    1    1    2    0    0  0.66772014157E+01  0.14215510406E+01 -0.43822907875E+01  0.83046991308E+01  0.17770000000E+01 0.  1.
</event>
<event>
 6    1  0.1823098E-004  0.5021052E+03  0.7546771E-02  0.9395111E-01
        -11   -1    0    0    0    0  0.00000000000E+00  0.00000000000E+00  0.50000000000E+03  0.50000000000E+03  0.00000000000E+00 0. -1.
         11   -1    0    0    0    0 -0.00000000000E+00 -0.00000000000E+00 -0.50000000000E+03  0.50000000000E+03  0.00000000000E+00 0.  1.
        -11    1    1    2    0    0 -0.44198895399E+02 -0.24067783527E+02  0.49534476287E+03  0.49789480280E+03  0.00000000000E+00 0. -1.
         11    1    1    2    0    0  0.50745376819E+02  0.35194499892E+02 -0.41932942543E+03  0.42385246622E+03  0.00000000000E+00 0.  1.
        -15    1    1    2    0    0  0.30998694458E+00  0.25750934579E+01 -0.13867719735E+02  0.14219654632E+02  0.17770000000E+01 0.  1.
         15    1    1    2    0    0 -0.68564683652E+01 -0.13701809823E+02 -0.62147617703E+02  0.64033076344E+02  0.17770000000E+01 0. -1.
</event>
<event>
 6    1  0.1823098E-004  0.4514666E+03  0.7546771E-02  0.9515477E-01
        -11   -1    0    0    0    0  0.00000000000E+00  0.00000000000E+00  0.50000000000E+03  0.50000000000E+03  0.00000000000E+00 0.  1.
         11   -1    0    0    0    0 -0.00000000000E+00 -0.00000000000E+00 -0.50000000000E+03  0.50000000000E+03  0.00000000000E+00 0.  1.
        -11    1    1    2    0    0  0.10670743988E+02  0.17521349854E+02  0.43367416128E+03  0.43415911903E+03  0.00000000000E+00 0.  1.
         11    1    1    2    0    0  0.54938169420E+02 -0.36801479655E+02 -0.46733002236E+03  0.47198506455E+03  0.00000000000E+00 0.  1.
        -15    1    1    2    0    0 -0.18645676541E+02  0.24131449619E+02  0.35171177158E+02  0.46584949781E+02  0.17770000000E+01 0. -1.
         15    1    1    2    0    0 -0.46963236868E+02 -0.48513198178E+01 -0.15153160782E+01  0.47270866640E+02  0.17770000000E+01 0.  1.
</event>
<event>
 6    1  0.1823098E-004  0.5023744E+03  0.7546771E-02  0.9394512E-01
        -11   -1    0    0    0    0  0.00000000000E+00  0.00000000000E+00  0.50000000000E+03  0.50000000000E+03  0.00000000000E+00 0. -1.
         11   -1    0    0    0    0 -0.00000000000E+00 -0.00000000000E+00 -0.50000000000E+03  0.50000000000E+03  0.00000000000E+00 0. -1.
        -11    1    1    2    0    0  0.10053922632E+02  0.18585316299E+01  0.49752051597E+03  0.49762556135E+03  0.00000000000E+00 0. -1.
         11    1    1    2    0    0 -0.18771813465E+02  0.13692649917E+02 -0.44979264957E+03  0.45039238143E+03  0.00000000000E+00 0. -1.
        -15    1    1    2    0    0  0.10072171548E+02 -0.88677670944E+01 -0.32222008793E+02  0.34949985874E+02  0.17770000000E+01 0. -1.
         15    1    1    2    0    0 -0.13542807158E+01 -0.66834144523E+01 -0.15505857604E+02  0.17032071337E+02  0.17770000000E+01 0.  1.
</event>
<event>
 6    1  0.1823098E-004  0.5017771E+03  0.7546771E-02  0.9395842E-01
        -11   -1    0    0    0    0  0.00000000000E+00  0.00000000000E+00  0.50000000000E+03  0.50000000000E+03  0.00000000000E+00 0. -1.
         11   -1    0    0    0    0 -0.00000000000E+00 -0.00000000000E+00 -0.50000000000E+03  0.50000000000E+03  0.00000000000E+00 0. -1.
        -11    1    1    2    0    0  0.63652097703E+00 -0.13781044726E+02  0.49803187899E+03  0.49822291682E+03  0.00000000000E+00 0. -1.
         11    1    1    2    0    0 -0.53548311269E+01  0.37146514791E+01 -0.40978154495E+01  0.76983727805E+01  0.00000000000E+00 0. -1.
        -15    1    1    2    0    0  0.28894794109E+01  0.70742178715E+01 -0.36673433830E+03  0.36681824691E+03  0.17770000000E+01 0. -1.
         15    1    1    2    0    0  0.18288307390E+01  0.29921753751E+01 -0.12719972525E+03  0.12726046349E+03  0.17770000000E+01 0. -1.
</event>
<event>
 6    1  0.1823098E-004  0.5058285E+03  0.7546771E-02  0.9386862E-01
        -11   -1    0    0    0    0  0.00000000000E+00  0.00000000000E+00  0.50000000000E+03  0.50000000000E+03  0.00000000000E+00 0. -1.
         11   -1    0    0    0    0 -0.00000000000E+00 -0.00000000000E+00 -0.50000000000E+03  0.50000000000E+03  0.00000000000E+00 0. -1.
        -11    1    1    2    0    0 -0.40222025171E+01 -0.43203281940E+01  0.38852761247E+03  0.38857245013E+03  0.00000000000E+00 0. -1.
         11    1    1    2    0    0  0.12430051440E+02  0.38439913781E+02 -0.49251733251E+03  0.49417148438E+03  0.00000000000E+00 0. -1.
        -15    1    1    2    0    0 -0.60808124194E+01 -0.33373371246E+02  0.37116103575E+02  0.50314223253E+02  0.17770000000E+01 0. -1.
         15    1    1    2    0    0 -0.23270365031E+01 -0.74621434077E+00  0.66873616466E+02  0.66941842244E+02  0.17770000000E+01 0.  1.
</event>
<event>
 6    1  0.1823098E-004  0.5012416E+03  0.7546771E-02  0.9397036E-01
        -11   -1    0    0    0    0  0.00000000000E+00  0.00000000000E+00  0.50000000000E+03  0.50000000000E+03  0.00000000000E+00 0.  1.
         11   -1    0    0    0    0 -0.00000000000E+00 -0.00000000000E+00 -0.50000000000E+03  0.50000000000E+03  0.00000000000E+00 0.  1.
        -11    1    1    2    0    0  0.60892477702E+01  0.29549278124E+01  0.49871250624E+03  0.49875843292E+03  0.00000000000E+00 0.  1.
         11    1    1    2    0    0  0.22433882927E+01  0.10568256097E+02 -0.42988093891E+03  0.43001667697E+03  0.00000000000E+00 0.  1.
        -15    1    1    2    0    0 -0.44288891769E+01 -0.15630594153E+01 -0.28507352126E+02  0.28946244459E+02  0.17770000000E+01 0.  1.
         15    1    1    2    0    0 -0.39037468860E+01 -0.11960124494E+02 -0.40324215198E+02  0.42278645650E+02  0.17770000000E+01 0. -1.
</event>
<event>
 6    1  0.1823098E-004  0.5004381E+03  0.7546771E-02  0.9398830E-01
        -11   -1    0    0    0    0  0.00000000000E+00  0.00000000000E+00  0.50000000000E+03  0.50000000000E+03  0.00000000000E+00 0. -1.
         11   -1    0    0    0    0 -0.00000000000E+00 -0.00000000000E+00 -0.50000000000E+03  0.50000000000E+03  0.00000000000E+00 0. -1.
        -11    1    1    2    0    0 -0.29755800629E+01 -0.12773103652E+02  0.49938971305E+03  0.49956189982E+03  0.00000000000E+00 0. -1.
         11    1    1    2    0    0 -0.67696419600E+01  0.57519863955E+01 -0.40013819846E+03  0.40023679399E+03  0.00000000000E+00 0. -1.
        -15    1    1    2    0    0  0.27315892316E+01  0.22654870456E+01 -0.15370901176E+02  0.15875022622E+02  0.17770000000E+01 0. -1.
         15    1    1    2    0    0  0.70136327913E+01  0.47556302108E+01 -0.83880613418E+02  0.84326283566E+02  0.17770000000E+01 0.  1.
</event>
<event>
 6    1  0.1823098E-004  0.5020523E+03  0.7546771E-02  0.9395229E-01
        -11   -1    0    0    0    0  0.00000000000E+00  0.00000000000E+00  0.50000000000E+03  0.50000000000E+03  0.00000000000E+00 0.  1.
         11   -1    0    0    0    0 -0.00000000000E+00 -0.00000000000E+00 -0.50000000000E+03  0.50000000000E+03  0.00000000000E+00 0. -1.
        -11    1    1    2    0    0  0.65003002592E+01 -0.21785797311E+01  0.49790053717E+03  0.49794773323E+03  0.00000000000E+00 0.  1.
         11    1    1    2    0    0  0.42260797688E+01  0.72785693465E+01 -0.47822334525E+03  0.47829740252E+03  0.00000000000E+00 0. -1.
        -15    1    1    2    0    0 -0.33630274338E+01 -0.41592203480E+01 -0.74704890951E+01  0.93581517269E+01  0.17770000000E+01 0. -1.
         15    1    1    2    0    0 -0.73633525942E+01 -0.94076926745E+00 -0.12206702832E+02  0.14396712516E+02  0.17770000000E+01 0.  1.
</event>
<event>
 6    1  0.5473975E-004  0.5000271E+03  0.7546771E-02  0.9399749E-01
        -11   -1    0    0    0    0  0.00000000000E+00  0.00000000000E+00  0.50000000000E+03  0.50000000000E+03  0.00000000000E+00 0. -1.
         11   -1    0    0    0    0 -0.00000000000E+00 -0.00000000000E+00 -0.50000000000E+03  0.50000000000E+03  0.00000000000E+00 0. -1.
        -11    1    1    2    0    0  0.11429337529E+01  0.71765129032E+01  0.33932998322E+03  0.33940778740E+03  0.00000000000E+00 0. -1.
         11    1    1    2    0    0 -0.16787097097E+01 -0.91398948364E+01 -0.49988652985E+03  0.49997289773E+03  0.00000000000E+00 0. -1.
        -15    1    1    2    0    0  0.97863248097E+00  0.10183223902E+01  0.10505863113E+03  0.10508314997E+03  0.17770000000E+01 0.  1.
         15    1    1    2    0    0 -0.44285652417E+00  0.94505954298E+00  0.55497915488E+02  0.55536164901E+02  0.17770000000E+01 0.  1.
</event>
<event>
 6    1  0.1823098E-004  0.4937054E+03  0.7546771E-02  0.9414006E-01
        -11   -1    0    0    0    0  0.00000000000E+00  0.00000000000E+00  0.50000000000E+03  0.50000000000E+03  0.00000000000E+00 0. -1.
         11   -1    0    0    0    0 -0.00000000000E+00 -0.00000000000E+00 -0.50000000000E+03  0.50000000000E+03  0.00000000000E+00 0. -1.
        -11    1    1    2    0    0  0.13427042984E+01  0.70590926637E+01  0.49533397889E+03  0.49538609618E+03  0.00000000000E+00 0. -1.
         11    1    1    2    0    0  0.87876348370E+01 -0.29731978133E+01 -0.49200318858E+03  0.49209064206E+03  0.00000000000E+00 0. -1.
        -15    1    1    2    0    0 -0.34811832125E+01 -0.10377339815E+00 -0.19709733753E-01  0.39099262078E+01  0.17770000000E+01 0.  1.
         15    1    1    2    0    0 -0.66491559229E+01 -0.39821214523E+01 -0.33110805739E+01  0.86133355510E+01  0.17770000000E+01 0. -1.
</event>
<event>
 6    1  0.1823098E-004  0.5001608E+03  0.7546771E-02  0.9399450E-01
        -11   -1    0    0    0    0  0.00000000000E+00  0.00000000000E+00  0.50000000000E+03  0.50000000000E+03  0.00000000000E+00 0.  1.
         11   -1    0    0    0    0 -0.00000000000E+00 -0.00000000000E+00 -0.50000000000E+03  0.50000000000E+03  0.00000000000E+00 0.  1.
        -11    1    1    2    0    0  0.42178833986E+01 -0.42785901454E+01  0.27667548986E+03  0.27674071541E+03  0.00000000000E+00 0.  1.
         11    1    1    2    0    0  0.70716983926E+01  0.71570682417E+01 -0.49973797354E+03  0.49983924890E+03  0.00000000000E+00 0.  1.
        -15    1    1    2    0    0 -0.35114957797E+01  0.44697145346E-01  0.53357449201E+02  0.53502408494E+02  0.17770000000E+01 0.  1.
         15    1    1    2    0    0 -0.77780860116E+01 -0.29231752416E+01  0.16970503448E+03  0.16991762720E+03  0.17770000000E+01 0. -1.
</event>
<event>
 6    1  0.1823098E-004  0.5002511E+03  0.7546771E-02  0.9399248E-01
        -11   -1    0    0    0    0  0.00000000000E+00  0.00000000000E+00  0.50000000000E+03  0.50000000000E+03  0.00000000000E+00 0. -1.
         11   -1    0    0    0    0 -0.00000000000E+00 -0.00000000000E+00 -0.50000000000E+03  0.50000000000E+03  0.00000000000E+00 0. -1.
        -11    1    1    2    0    0  0.74389268004E+01 -0.10056166123E+02  0.49959232533E+03  0.49974889259E+03  0.00000000000E+00 0. -1.
         11    1    1    2    0    0 -0.69490533769E+01  0.57515391556E+01 -0.67485102090E+02  0.68085303478E+02  0.00000000000E+00 0. -1.
        -15    1    1    2    0    0  0.86972248188E+00  0.44302592883E+01 -0.31106459485E+03  0.31110243251E+03  0.17770000000E+01 0. -1.
         15    1    1    2    0    0 -0.13595959054E+01 -0.12563232059E+00 -0.12104262839E+03  0.12106337142E+03  0.17770000000E+01 0. -1.
</event>
<event>
 6    1  0.1823098E-004  0.5005601E+03  0.7546771E-02  0.9398557E-01
        -11   -1    0    0    0    0  0.00000000000E+00  0.00000000000E+00  0.50000000000E+03  0.50000000000E+03  0.00000000000E+00 0. -1.
         11   -1    0    0    0    0 -0.00000000000E+00 -0.00000000000E+00 -0.50000000000E+03  0.50000000000E+03  0.00000000000E+00 0. -1.
        -11    1    1    2    0    0  0.19047969227E+01 -0.22070704970E+01  0.16430127265E+03  0.16432713594E+03  0.00000000000E+00 0. -1.
         11    1    1    2    0    0 -0.21938182257E+01 -0.29293926696E+02 -0.49857523236E+03  0.49943989559E+03  0.00000000000E+00 0. -1.
        -15    1    1    2    0    0  0.65869000565E+01  0.97017634687E+01  0.71692049253E+02  0.72666492429E+02  0.17770000000E+01 0.  1.
         15    1    1    2    0    0 -0.62978787535E+01  0.21799233724E+02  0.26258191045E+03  0.26356647604E+03  0.17770000000E+01 0. -1.
</event>
<event>
 6    1  0.1823098E-004  0.4729384E+03  0.7546771E-02  0.9462485E-01
        -11   -1    0    0    0    0  0.00000000000E+00  0.00000000000E+00  0.50000000000E+03  0.50000000000E+03  0.00000000000E+00 0. -1.
         11   -1    0    0    0    0 -0.00000000000E+00 -0.00000000000E+00 -0.50000000000E+03  0.50000000000E+03  0.00000000000E+00 0. -1.
        -11    1    1    2    0    0  0.14928077704E+02 -0.10714563407E+02  0.46812677420E+03  0.46848727421E+03  0.00000000000E+00 0. -1.
         11    1    1    2    0    0 -0.22214651627E+02 -0.19724450878E+02 -0.47702496408E+03  0.47794911975E+03  0.00000000000E+00 0. -1.
        -15    1    1    2    0    0  0.11144383099E+02  0.35731199117E+02 -0.52838834495E+01  0.37841683608E+02  0.17770000000E+01 0. -1.
         15    1    1    2    0    0 -0.38578091751E+01 -0.52921848327E+01  0.14182073330E+02  0.15721922429E+02  0.17770000000E+01 0.  1.
</event>
<event>
 6    1  0.1823098E-004  0.5041645E+03  0.7546771E-02  0.9390539E-01
        -11   -1    0    0    0    0  0.00000000000E+00  0.00000000000E+00  0.50000000000E+03  0.50000000000E+03  0.00000000000E+00 0. -1.
         11   -1    0    0    0    0 -0.00000000000E+00 -0.00000000000E+00 -0.50000000000E+03  0.50000000000E+03  0.00000000000E+00 0. -1.
        -11    1    1    2    0    0  0.76983109671E+01  0.74347130765E+00  0.49577514661E+03  0.49583546942E+03  0.00000000000E+00 0. -1.
         11    1    1    2    0    0  0.40557973115E+01 -0.85195119906E+01 -0.48576872331E+03  0.48586035455E+03  0.00000000000E+00 0. -1.
        -15    1    1    2    0    0 -0.73441040336E+01  0.65186183553E+01 -0.45780638880E+01  0.10979282640E+02  0.17770000000E+01 0. -1.
         15    1    1    2    0    0 -0.44100042450E+01  0.12574223276E+01 -0.54283594073E+01  0.73248933921E+01  0.17770000000E+01 0.  1.
</event>
<event>
 6    1  0.1823098E-004  0.5002929E+03  0.7546771E-02  0.9399155E-01
        -11   -1    0    0    0    0  0.00000000000E+00  0.00000000000E+00  0.50000000000E+03  0.50000000000E+03  0.00000000000E+00 0.  1.
         11   -1    0    0    0    0 -0.00000000000E+00 -0.00000000000E+00 -0.50000000000E+03  0.50000000000E+03  0.00000000000E+00 0.  1.
        -11    1    1    2    0    0  0.28185579114E+01 -0.68876536661E+00  0.95764264948E+01  0.10006328540E+02  0.00000000000E+00 0.  1.
         11    1    1    2    0    0  0.28369488738E+00  0.32727794224E+02 -0.49863415613E+03  0.49970712488E+03  0.00000000000E+00 0.  1.
        -15    1    1    2    0    0 -0.77134562739E+01 -0.18299827036E+02  0.30458392033E+03  0.30523581593E+03  0.17770000000E+01 0.  1.
         15    1    1    2    0    0  0.46112034752E+01 -0.13739201822E+02  0.18447380931E+03  0.18505073065E+03  0.17770000000E+01 0. -1.
</event>
<event>
 6    1  0.1823098E-004  0.5006322E+03  0.7546771E-02  0.9398396E-01
        -11   -1    0    0    0    0  0.00000000000E+00  0.00000000000E+00  0.50000000000E+03  0.50000000000E+03  0.00000000000E+00 0.  1.
         11   -1    0    0    0    0 -0.00000000000E+00 -0.00000000000E+00 -0.50000000000E+03  0.50000000000E+03  0.00000000000E+00 0. -1.
        -11    1    1    2    0    0 -0.68514140083E+01  0.25769106889E+01  0.49931410835E+03  0.49936776141E+03  0.00000000000E+00 0.  1.
         11    1    1    2    0    0 -0.51522550665E+01  0.12245230204E+02 -0.11891199953E+03  0.11965180746E+03  0.00000000000E+00 0. -1.
        -15    1    1    2    0    0  0.99285449845E+01 -0.15180234015E+02 -0.32826122901E+03  0.32876679837E+03  0.17770000000E+01 0. -1.
         15    1    1    2    0    0  0.20751240902E+01  0.35809312219E+00 -0.52140879804E+02  0.52213632764E+02  0.17770000000E+01 0.  1.
</event>
<event>
 6    1  0.1823098E-004  0.5004961E+03  0.7546771E-02  0.9398700E-01
        -11   -1    0    0    0    0  0.00000000000E+00  0.00000000000E+00  0.50000000000E+03  0.50000000000E+03  0.00000000000E+00 0. -1.
         11   -1    0    0    0    0 -0.00000000000E+00 -0.00000000000E+00 -0.50000000000E+03  0.50000000000E+03  0.00000000000E+00 0.  1.
        -11    1    1    2    0    0 -0.69602200951E+01 -0.57246538041E+01  0.49942258219E+03  0.49950388580E+03  0.00000000000E+00 0. -1.
         11    1    1    2    0    0  0.81354739460E+01  0.10170074797E+01 -0.32929306934E+02  0.33934635635E+02  0.00000000000E+00 0.  1.
        -15    1    1    2    0    0 -0.30243601198E+01  0.39150890169E+01 -0.28703941824E+03  0.28708754768E+03  0.17770000000E+01 0.  1.
         15    1    1    2    0    0  0.18491062690E+01  0.79255730743E+00 -0.17945385702E+03  0.17947393089E+03  0.17770000000E+01 0. -1.
</event>
<event>
 6    1  0.1823098E-004  0.5014697E+03  0.7546771E-02  0.9396527E-01
        -11   -1    0    0    0    0  0.00000000000E+00  0.00000000000E+00  0.50000000000E+03  0.50000000000E+03  0.00000000000E+00 0. -1.
         11   -1    0    0    0    0 -0.00000000000E+00 -0.00000000000E+00 -0.50000000000E+03  0.50000000000E+03  0.00000000000E+00 0. -1.
        -11    1    1    2    0    0  0.18526164002E+01 -0.68565786147E+01  0.44782832228E+03  0.44788464039E+03  0.00000000000E+00 0. -1.
         11    1    1    2    0    0 -0.75189582228E+01 -0.56652007951E+01 -0.49844138963E+03  0.49853028807E+03  0.00000000000E+00 0. -1.
        -15    1    1    2    0    0 -0.18236568093E+01  0.32835071113E+01  0.24323117680E+02  0.24675472149E+02  0.17770000000E+01 0. -1.
         15    1    1    2    0    0  0.74899986318E+01  0.92382722984E+01  0.26289949662E+02  0.28909599388E+02  0.17770000000E+01 0.  1.
</event>
<event>
 6    1  0.1823098E-004  0.5015975E+03  0.7546771E-02  0.9396242E-01
        -11   -1    0    0    0    0  0.00000000000E+00  0.00000000000E+00  0.50000000000E+03  0.50000000000E+03  0.00000000000E+00 0. -1.
         11   -1    0    0    0    0 -0.00000000000E+00 -0.00000000000E+00 -0.50000000000E+03  0.50000000000E+03  0.00000000000E+00 0.  1.
        -11    1    1    2    0    0  0.72639962883E+01  0.35142607853E+01  0.17919115828E+03  0.17937275957E+03  0.00000000000E+00 0. -1.
         11    1    1    2    0    0  0.30137785863E+02 -0.28258308891E+02 -0.49668729485E+03  0.49840253513E+03  0.00000000000E+00 0.  1.
        -15    1    1    2    0    0 -0.34511111967E+02  0.21809214112E+02  0.17695242654E+03  0.18160940960E+03  0.17770000000E+01 0. -1.
         15    1    1    2    0    0 -0.28906701843E+01  0.29348339933E+01  0.14054371003E+03  0.14061529569E+03  0.17770000000E+01 0.  1.
</event>
<event>
 6    1  0.1823098E-004  0.5049107E+03  0.7546771E-02  0.9388888E-01
        -11   -1    0    0    0    0  0.00000000000E+00  0.00000000000E+00  0.50000000000E+03  0.50000000000E+03  0.00000000000E+00 0. -1.
         11   -1    0    0    0    0 -0.00000000000E+00 -0.00000000000E+00 -0.50000000000E+03  0.50000000000E+03  0.00000000000E+00 0.  1.
        -11    1    1    2    0    0 -0.63615926077E+01 -0.52918382109E+01  0.49502011882E+03  0.49508927624E+03  0.00000000000E+00 0. -1.
         11    1    1    2    0    0 -0.21865499789E+02  0.35674823517E+02 -0.37024701392E+03  0.37260387066E+03  0.00000000000E+00 0.  1.
        -15    1    1    2    0    0  0.14897925100E+02 -0.24998086520E+02 -0.91064076562E+02  0.95617342941E+02  0.17770000000E+01 0.  1.
         15    1    1    2    0    0  0.13329167297E+02 -0.53848987856E+01 -0.33709028337E+02  0.36689510166E+02  0.17770000000E+01 0. -1.
</event>
<event>
 6    1  0.1823098E-004  0.4897553E+03  0.7546771E-02  0.9423029E-01
        -11   -1    0    0    0    0  0.00000000000E+00  0.00000000000E+00  0.50000000000E+03  0.50000000000E+03  0.00000000000E+00 0.  1.
         11   -1    0    0    0    0 -0.00000000000E+00 -0.00000000000E+00 -0.50000000000E+03  0.50000000000E+03  0.00000000000E+00 0. -1.
        -11    1    1    2    0    0 -0.10220524323E+02  0.11415865544E+01  0.48890517347E+03  0.48901332393E+03  0.00000000000E+00 0.  1.
         11    1    1    2    0    0  0.15813634522E+01  0.12014714642E+02 -0.49047538563E+03  0.49062506865E+03  0.00000000000E+00 0. -1.
        -15    1    1    2    0    0  0.11735477050E+02 -0.99075736088E+01  0.88383645514E+00  0.15486133549E+02  0.17770000000E+01 0.  1.
         15    1    1    2    0    0 -0.30963161797E+01 -0.32487275872E+01  0.68637570670E+00  0.48754738673E+01  0.17770000000E+01 0. -1.
</event>
<event>
 6    1  0.1823098E-004  0.5005623E+03  0.7546771E-02  0.9398552E-01
        -11   -1    0    0    0    0  0.00000000000E+00  0.00000000000E+00  0.50000000000E+03  0.50000000000E+03  0.00000000000E+00 0. -1.
         11   -1    0    0    0    0 -0.00000000000E+00 -0.00000000000E+00 -0.50000000000E+03  0.50000000000E+03  0.00000000000E+00 0. -1.
        -11    1    1    2    0    0 -0.99051623761E+01 -0.11855407988E+02  0.49919870902E+03  0.49943769784E+03  0.00000000000E+00 0. -1.
         11    1    1    2    0    0  0.11020445234E+02  0.17669869371E+02 -0.42419173926E+03  0.42470260908E+03  0.00000000000E+00 0. -1.
        -15    1    1    2    0    0 -0.15837403045E+01 -0.40213426705E+01 -0.13259400300E+02  0.14058764367E+02  0.17770000000E+01 0. -1.
         15    1    1    2    0    0  0.46845744689E+00 -0.17931187127E+01 -0.61747569457E+02  0.61800928714E+02  0.17770000000E+01 0.  1.
</event>
<event>
 6    1  0.1823098E-004  0.5019975E+03  0.7546771E-02  0.9395351E-01
        -11   -1    0    0    0    0  0.00000000000E+00  0.00000000000E+00  0.50000000000E+03  0.50000000000E+03  0.00000000000E+00 0.  1.
         11   -1    0    0    0    0 -0.00000000000E+00 -0.00000000000E+00 -0.50000000000E+03  0.50000000000E+03  0.00000000000E+00 0. -1.
        -11    1    1    2    0    0  0.70707419719E+01 -0.65699639428E+01  0.49790893149E+03  0.49800247376E+03  0.00000000000E+00 0.  1.
         11    1    1    2    0    0  0.17598476811E+02  0.10504240408E+02 -0.40004807616E+03  0.40057272585E+03  0.00000000000E+00 0. -1.
        -15    1    1    2    0    0 -0.21442488330E+02 -0.44844633899E+01 -0.91017846796E+02  0.93633844747E+02  0.17770000000E+01 0. -1.
         15    1    1    2    0    0 -0.32267304527E+01  0.55018692447E+00 -0.68430085293E+01  0.77909556408E+01  0.17770000000E+01 0.  1.
</event>
<event>
 6    1  0.1823098E-004  0.5044698E+03  0.7546771E-02  0.9389863E-01
        -11   -1    0    0    0    0  0.00000000000E+00  0.00000000000E+00  0.50000000000E+03  0.50000000000E+03  0.00000000000E+00 0. -1.
         11   -1    0    0    0    0 -0.00000000000E+00 -0.00000000000E+00 -0.50000000000E+03  0.50000000000E+03  0.00000000000E+00 0.  1.
        -11    1    1    2    0    0 -0.16051851037E+02  0.22453972771E+01  0.49526506527E+03  0.49553020958E+03  0.00000000000E+00 0. -1.
         11    1    1    2    0    0 -0.63162164651E+01 -0.62276053111E+01 -0.41727249688E+02  0.42659594758E+02  0.00000000000E+00 0.  1.
        -15    1    1    2    0    0 -0.32016670644E+01  0.41542315136E+01  0.17452307701E+01  0.58061924616E+01  0.17770000000E+01 0. -1.
         15    1    1    2    0    0  0.25569734567E+02 -0.17202347954E+00 -0.45528304635E+03  0.45600400320E+03  0.17770000000E+01 0.  1.
</event>
<event>
 6    1  0.1823098E-004  0.5006977E+03  0.7546771E-02  0.9398250E-01
        -11   -1    0    0    0    0  0.00000000000E+00  0.00000000000E+00  0.50000000000E+03  0.50000000000E+03  0.00000000000E+00 0. -1.
         11   -1    0    0    0    0 -0.00000000000E+00 -0.00000000000E+00 -0.50000000000E+03  0.50000000000E+03  0.00000000000E+00 0.  1.
        -11    1    1    2    0    0 -0.56915066945E+01 -0.28356709028E+01  0.33463871009E+03  0.33469911946E+03  0.00000000000E+00 0. -1.
         11    1    1    2    0    0 -0.11572703968E+02 -0.47305685935E+01 -0.49914572587E+03  0.49930227459E+03  0.00000000000E+00 0.  1.
        -15    1    1    2    0    0  0.15879347577E+02  0.93125673503E+01  0.15418577874E+03  0.15529098391E+03  0.17770000000E+01 0.  1.
         15    1    1    2    0    0  0.13848630858E+01 -0.17463278539E+01  0.10321237042E+02  0.10707622043E+02  0.17770000000E+01 0. -1.
</event>
<event>
 6    1  0.1985649E-004  0.4894671E+03  0.7546771E-02  0.9423691E-01
        -11   -1    0    0    0    0  0.00000000000E+00  0.00000000000E+00  0.50000000000E+03  0.50000000000E+03  0.00000000000E+00 0.  1.
         11   -1    0    0    0    0 -0.00000000000E+00 -0.00000000000E+00 -0.50000000000E+03  0.50000000000E+03  0.00000000000E+00 0. -1.
        -11    1    1    2    0    0  0.49357184669E+01 -0.57894700361E+01  0.48574855352E+03  0.48580812727E+03  0.00000000000E+00 0.  1.
         11    1    1    2    0    0  0.48752770535E+01 -0.89849961498E+01 -0.49320913097E+03  0.49331505688E+03  0.00000000000E+00 0. -1.
        -15    1    1    2    0    0 -0.69463676159E+01  0.12510646603E+02  0.27885819288E+01  0.14686804270E+02  0.17770000000E+01 0. -1.
         15    1    1    2    0    0 -0.28646279045E+01  0.22638195829E+01  0.46719955170E+01  0.61900115707E+01  0.17770000000E+01 0.  1.
</event>
<event>
 6    1  0.1823098E-004  0.5013718E+03  0.7546771E-02  0.9396745E-01
        -11   -1    0    0    0    0  0.00000000000E+00  0.00000000000E+00  0.50000000000E+03  0.50000000000E+03  0.00000000000E+00 0. -1.
         11   -1    0    0    0    0 -0.00000000000E+00 -0.00000000000E+00 -0.50000000000E+03  0.50000000000E+03  0.00000000000E+00 0. -1.
        -11    1    1    2    0    0 -0.93572462568E+01 -0.33828608790E+01  0.49852886666E+03  0.49862815072E+03  0.00000000000E+00 0. -1.
         11    1    1    2    0    0  0.20698479445E+02 -0.22711515784E+00 -0.86171825490E+02  0.88623146756E+02  0.00000000000E+00 0. -1.
        -15    1    1    2    0    0 -0.12745512357E+01 -0.40133780412E+01 -0.66632753038E+02  0.66789319435E+02  0.17770000000E+01 0. -1.
         15    1    1    2    0    0 -0.10066681953E+02  0.76233540780E+01 -0.34572428813E+03  0.34595938308E+03  0.17770000000E+01 0. -1.
</event>
<event>
 6    1  0.1823098E-004  0.5052471E+03  0.7546771E-02  0.9388145E-01
        -11   -1    0    0    0    0  0.00000000000E+00  0.00000000000E+00  0.50000000000E+03  0.50000000000E+03  0.00000000000E+00 0.  1.
         11   -1    0    0    0    0 -0.00000000000E+00 -0.00000000000E+00 -0.50000000000E+03  0.50000000000E+03  0.00000000000E+00 0. -1.
        -11    1    1    2    0    0  0.95226761316E+01 -0.13343660979E+02  0.47486723456E+03  0.47515010797E+03  0.00000000000E+00 0.  1.
         11    1    1    2    0    0 -0.77769849695E+01  0.56125778606E+01 -0.49465996497E+03  0.49475293174E+03  0.00000000000E+00 0. -1.
        -15    1    1    2    0    0  0.89375018510E+01  0.18554141427E+01  0.13130162812E+02  0.16089760889E+02  0.17770000000E+01 0.  1.
         15    1    1    2    0    0 -0.10683193013E+02  0.58756689758E+01  0.66625676015E+01  0.14007199396E+02  0.17770000000E+01 0. -1.
</event>
<event>
 6    1  0.1823098E-004  0.4992994E+03  0.7546771E-02  0.9401379E-01
        -11   -1    0    0    0    0  0.00000000000E+00  0.00000000000E+00  0.50000000000E+03  0.50000000000E+03  0.00000000000E+00 0. -1.
         11   -1    0    0    0    0 -0.00000000000E+00 -0.00000000000E+00 -0.50000000000E+03  0.50000000000E+03  0.00000000000E+00 0. -1.
        -11    1    1    2    0    0  0.29895706893E+01 -0.64162498797E+01  0.49777124829E+03  0.49782157588E+03  0.00000000000E+00 0. -1.
         11    1    1    2    0    0  0.30768185406E+01  0.10279720249E-01 -0.51487271617E+00  0.31196172711E+01  0.00000000000E+00 0. -1.
        -15    1    1    2    0    0  0.62228494860E+00  0.63685919378E+01 -0.11702203965E+02  0.13455315250E+02  0.17770000000E+01 0.  1.
         15    1    1    2    0    0 -0.66886741785E+01  0.37378221611E-01 -0.48555417160E+03  0.48560349160E+03  0.17770000000E+01 0. -1.
</event>
<event>
 6    1  0.1823098E-004  0.5009461E+03  0.7546771E-02  0.9397695E-01
        -11   -1    0    0    0    0  0.00000000000E+00  0.00000000000E+00  0.50000000000E+03  0.50000000000E+03  0.00000000000E+00 0. -1.
         11   -1    0    0    0    0 -0.00000000000E+00 -0.00000000000E+00 -0.50000000000E+03  0.50000000000E+03  0.00000000000E+00 0. -1.
        -11    1    1    2    0    0  0.17383445354E+02 -0.14920279075E+02  0.49852785737E+03  0.49905392842E+03  0.00000000000E+00 0. -1.
         11    1    1    2    0    0  0.11532673066E+02  0.69372212540E+00 -0.13912978728E+03  0.13960867275E+03  0.00000000000E+00 0. -1.
        -15    1    1    2    0    0 -0.19793509183E+02  0.43418615927E+01 -0.28405366255E+03  0.28478110138E+03  0.17770000000E+01 0. -1.
         15    1    1    2    0    0 -0.91226092380E+01  0.98846953567E+01 -0.75344407539E+02  0.76556297442E+02  0.17770000000E+01 0.  1.
</event>
<event>
 6    1  0.1823098E-004  0.5022546E+03  0.7546771E-02  0.9394779E-01
        -11   -1    0    0    0    0  0.00000000000E+00  0.00000000000E+00  0.50000000000E+03  0.50000000000E+03  0.00000000000E+00 0.  1.
         11   -1    0    0    0    0 -0.00000000000E+00 -0.00000000000E+00 -0.50000000000E+03  0.50000000000E+03  0.00000000000E+00 0. -1.
        -11    1    1    2    0    0 -0.78765214821E+00  0.35725263862E+01  0.23813498708E+03  0.23816308575E+03  0.00000000000E+00 0.  1.
         11    1    1    2    0    0  0.33033652866E+02  0.44260468820E+02 -0.49467186154E+03  0.49774537860E+03  0.00000000000E+00 0. -1.
        -15    1    1    2    0    0 -0.76294376491E+01  0.91774130185E+00  0.26159675533E+02  0.27322827836E+02  0.17770000000E+01 0. -1.
         15    1    1    2    0    0 -0.24616563068E+02 -0.48750736508E+02  0.23037719893E+03  0.23676870782E+03  0.17770000000E+01 0.  1.
</event>
<event>
 6    1  0.1823098E-004  0.5056816E+03  0.7546771E-02  0.9387186E-01
        -11   -1    0    0    0    0  0.00000000000E+00  0.00000000000E+00  0.50000000000E+03  0.50000000000E+03  0.00000000000E+00 0.  1.
         11   -1    0    0    0    0 -0.00000000000E+00 -0.00000000000E+00 -0.50000000000E+03  0.50000000000E+03  0.00000000000E+00 0. -1.
        -11    1    1    2    0    0  0.13023555523E+02  0.76740012501E+01  0.46412306302E+03  0.46436916448E+03  0.00000000000E+00 0.  1.
         11    1    1    2    0    0 -0.31736480920E+02  0.10875228152E+02 -0.49317871993E+03  0.49431844453E+03  0.00000000000E+00 0. -1.
        -15    1    1    2    0    0  0.17847558088E+02 -0.16334913042E+02  0.29624627426E+02  0.38290220591E+02  0.17770000000E+01 0. -1.
         15    1    1    2    0    0  0.86536730826E+00 -0.22143163602E+01 -0.56897051189E+00  0.30221704063E+01  0.17770000000E+01 0.  1.
</event>
<event>
 6    1  0.1823098E-004  0.5013304E+03  0.7546771E-02  0.9396838E-01
        -11   -1    0    0    0    0  0.00000000000E+00  0.00000000000E+00  0.50000000000E+03  0.50000000000E+03  0.00000000000E+00 0. -1.
         11   -1    0    0    0    0 -0.00000000000E+00 -0.00000000000E+00 -0.50000000000E+03  0.50000000000E+03  0.00000000000E+00 0.  1.
        -11    1    1    2    0    0 -0.58486393003E+01 -0.78521921912E+01  0.41900129958E+03  0.41911567920E+03  0.00000000000E+00 0. -1.
         11    1    1    2    0    0  0.53588038432E+01 -0.86217974732E+01 -0.49856624342E+03  0.49866958123E+03  0.00000000000E+00 0.  1.
        -15    1    1    2    0    0  0.24299767524E+01  0.36429696190E+01  0.68035397233E+01  0.82838334380E+01  0.17770000000E+01 0.  1.
         15    1    1    2    0    0 -0.19401412952E+01  0.12831020045E+02  0.72761404111E+02  0.73930906127E+02  0.17770000000E+01 0. -1.
</event>
<event>
 6    1  0.1823098E-004  0.4880736E+03  0.7546771E-02  0.9426899E-01
        -11   -1    0    0    0    0  0.00000000000E+00  0.00000000000E+00  0.50000000000E+03  0.50000000000E+03  0.00000000000E+00 0. -1.
         11   -1    0    0    0    0 -0.00000000000E+00 -0.00000000000E+00 -0.50000000000E+03  0.50000000000E+03  0.00000000000E+00 0. -1.
        -11    1    1    2    0    0 -0.16407680137E+02  0.11801248552E+02  0.48597250215E+03  0.48639259275E+03  0.00000000000E+00 0. -1.
         11    1    1    2    0    0  0.15235119946E+02 -0.17924755964E+02 -0.48921456999E+03  0.48977984978E+03  0.00000000000E+00 0. -1.
        -15    1    1    2    0    0  0.63322965678E-01 -0.34517875029E+01  0.10782919618E+02  0.11460712510E+02  0.17770000000E+01 0.  1.
         15    1    1    2    0    0  0.11092372260E+01  0.95752949146E+01 -0.75408517703E+01  0.12366844963E+02  0.17770000000E+01 0. -1.
</event>
<event>
 6    1  0.1823098E-004  0.5001369E+03  0.7546771E-02  0.9399503E-01
        -11   -1    0    0    0    0  0.00000000000E+00  0.00000000000E+00  0.50000000000E+03  0.50000000000E+03  0.00000000000E+00 0.  1.
         11   -1    0    0    0    0 -0.00000000000E+00 -0.00000000000E+00 -0.50000000000E+03  0.50000000000E+03  0.00000000000E+00 0.  1.
        -11    1    1    2    0    0  0.10347190240E+01 -0.14745461134E+01  0.21174984692E+02  0.21251468335E+02  0.00000000000E+00 0.  1.
         11    1    1    2    0    0  0.19670958746E+02  0.20487464581E+02 -0.49905550335E+03  0.49986305950E+03  0.00000000000E+00 0.  1.
        -15    1    1    2    0    0 -0.18275586971E+02 -0.88393102276E+01  0.32229781105E+03  0.32294143002E+03  0.17770000000E+01 0.  1.
         15    1    1    2    0    0 -0.24300907989E+01 -0.10173608240E+02  0.15558270761E+03  0.15594404215E+03  0.17770000000E+01 0. -1.
</event>
<event>
 6    1  0.1823098E-004  0.5101369E+03  0.7546771E-02  0.9377409E-01
        -11   -1    0    0    0    0  0.00000000000E+00  0.00000000000E+00  0.50000000000E+03  0.50000000000E+03  0.00000000000E+00 0. -1.
         11   -1    0    0    0    0 -0.00000000000E+00 -0.00000000000E+00 -0.50000000000E+03  0.50000000000E+03  0.00000000000E+00 0.  1.
        -11    1    1    2    0    0 -0.13175167918E+02  0.13133883547E+02  0.48950976319E+03  0.48986313620E+03  0.00000000000E+00 0. -1.
         11    1    1    2    0    0  0.22033750373E+02 -0.33329658756E+02 -0.45496348851E+03  0.45671449307E+03  0.00000000000E+00 0.  1.
        -15    1    1    2    0    0 -0.77704696121E+01  0.27217782651E+02 -0.36126750429E+02  0.45929159757E+02  0.17770000000E+01 0.  1.
         15    1    1    2    0    0 -0.10881128425E+01 -0.70220074419E+01  0.15804757467E+01  0.74932109711E+01  0.17770000000E+01 0. -1.
</event>
<event>
 6    1  0.1823098E-004  0.4956961E+03  0.7546771E-02  0.9409492E-01
        -11   -1    0    0    0    0  0.00000000000E+00  0.00000000000E+00  0.50000000000E+03  0.50000000000E+03  0.00000000000E+00 0.  1.
         11   -1    0    0    0    0 -0.00000000000E+00 -0.00000000000E+00 -0.50000000000E+03  0.50000000000E+03  0.00000000000E+00 0.  1.
        -11    1    1    2    0    0 -0.46172387939E+01  0.64769976492E+01  0.49549403722E+03  0.49555787887E+03  0.00000000000E+00 0.  1.
         11    1    1    2    0    0 -0.10915243982E+01 -0.77820135967E+01 -0.49578942329E+03  0.49585169498E+03  0.00000000000E+00 0.  1.
        -15    1    1    2    0    0  0.39366264634E+01 -0.17049331965E+01 -0.15278876608E+00  0.46459550712E+01  0.17770000000E+01 0. -1.
         15    1    1    2    0    0  0.17721367287E+01  0.30099491440E+01  0.44817484329E+00  0.39444710830E+01  0.17770000000E+01 0.  1.
</event>
<event>
 6    1  0.1823098E-004  0.5003437E+03  0.7546771E-02  0.9399041E-01
        -11   -1    0    0    0    0  0.00000000000E+00  0.00000000000E+00  0.50000000000E+03  0.50000000000E+03  0.00000000000E+00 0. -1.
         11   -1    0    0    0    0 -0.00000000000E+00 -0.00000000000E+00 -0.50000000000E+03  0.50000000000E+03  0.00000000000E+00 0. -1.
        -11    1    1    2    0    0  0.16194225567E+02 -0.93259530808E+01  0.49930667707E+03  0.49965626595E+03  0.00000000000E+00 0. -1.
         11    1    1    2    0    0 -0.40517162489E+00 -0.47709740415E+01 -0.22206636223E+02  0.22716977125E+02  0.00000000000E+00 0. -1.
        -15    1    1    2    0    0 -0.42075106946E+01  0.52340760400E+01 -0.10021405896E+03  0.10045453719E+03  0.17770000000E+01 0. -1.
         15    1    1    2    0    0 -0.11581543247E+02  0.88628510824E+01 -0.37688598188E+03  0.37717221974E+03  0.17770000000E+01 0. -1.
</event>
<event>
 6    1  0.1823098E-004  0.5007290E+03  0.7546771E-02  0.9398180E-01
        -11   -1    0    0    0    0  0.00000000000E+00  0.00000000000E+00  0.50000000000E+03  0.50000000000E+03  0.00000000000E+00 0. -1.
         11   -1    0    0    0    0 -0.00000000000E+00 -0.00000000000E+00 -0.50000000000E+03  0.50000000000E+03  0.00000000000E+00 0. -1.
        -11    1    1    2    0    0  0.66617920886E+01  0.14656412260E+01  0.36930470845E+03  0.36936769656E+03  0.00000000000E+00 0. -1.
         11    1    1    2    0    0  0.11505868838E+02 -0.19895559213E+01 -0.49913445308E+03  0.49927101418E+03  0.00000000000E+00 0. -1.
        -15    1    1    2    0    0 -0.16979250998E+02  0.22533771396E+01  0.10929082791E+03  0.11063912268E+03  0.17770000000E+01 0.  1.
         15    1    1    2    0    0 -0.11884099285E+01 -0.17294624443E+01  0.20538916723E+02  0.20722166577E+02  0.17770000000E+01 0. -1.
</event>
<event>
 6    1  0.1823098E-004  0.5028873E+03  0.7546771E-02  0.9393372E-01
        -11   -1    0    0    0    0  0.00000000000E+00  0.00000000000E+00  0.50000000000E+03  0.50000000000E+03  0.00000000000E+00 0. -1.
         11   -1    0    0    0    0 -0.00000000000E+00 -0.00000000000E+00 -0.50000000000E+03  0.50000000000E+03  0.00000000000E+00 0. -1.
        -11    1    1    2    0    0  0.96392814057E+01  0.67026299103E+01  0.49697403007E+03  0.49711269101E+03  0.00000000000E+00 0. -1.
         11    1    1    2    0    0  0.12174054605E+01  0.24772914530E+02 -0.17166074846E+03  0.17344333926E+03  0.00000000000E+00 0. -1.
        -15    1    1    2    0    0  0.57520596945E+01 -0.22276496082E+02 -0.76588714596E+02  0.79989483064E+02  0.17770000000E+01 0.  1.
         15    1    1    2    0    0 -0.16608746561E+02 -0.91990483583E+01 -0.24872456701E+03  0.24945448667E+03  0.17770000000E+01 0. -1.
</event>
<event>
 6    1  0.1823098E-004  0.5005214E+03  0.7546771E-02  0.9398644E-01
        -11   -1    0    0    0    0  0.00000000000E+00  0.00000000000E+00  0.50000000000E+03  0.50000000000E+03  0.00000000000E+00 0. -1.
         11   -1    0    0    0    0 -0.00000000000E+00 -0.00000000000E+00 -0.50000000000E+03  0.50000000000E+03  0.00000000000E+00 0. -1.
        -11    1    1    2    0    0 -0.38761510816E+01  0.18357080389E+00  0.24608390292E+03  0.24611449677E+03  0.00000000000E+00 0. -1.
         11    1    1    2    0    0 -0.20201137857E+01 -0.13517927439E+02 -0.49929153911E+03  0.49947858438E+03  0.00000000000E+00 0. -1.
        -15    1    1    2    0    0  0.16381353446E+01 -0.28345573795E+01  0.13043975903E+03  0.13049293724E+03  0.17770000000E+01 0.  1.
         15    1    1    2    0    0  0.42581295226E+01  0.16168914014E+02  0.12276787716E+03  0.12391398162E+03  0.17770000000E+01 0. -1.
</event>
<event>
 6    1  0.1823098E-004  0.5004312E+03  0.7546771E-02  0.9398845E-01
        -11   -1    0    0    0    0  0.00000000000E+00  0.00000000000E+00  0.50000000000E+03  0.50000000000E+03  0.00000000000E+00 0. -1.
         11   -1    0    0    0    0 -0.00000000000E+00 -0.00000000000E+00 -0.50000000000E+03  0.50000000000E+03  0.00000000000E+00 0. -1.
        -11    1    1    2    0    0  0.46620091759E+01  0.83723354196E+01  0.49947688004E+03  0.49956879809E+03  0.00000000000E+00 0. -1.
         11    1    1    2    0    0  0.90364523400E+01 -0.37546644301E+00 -0.78113293876E+02  0.78635139258E+02  0.00000000000E+00 0. -1.
        -15    1    1    2    0    0 -0.13127328311E+02 -0.31643613808E+01 -0.33550546114E+03  0.33578179241E+03  0.17770000000E+01 0. -1.
         15    1    1    2    0    0 -0.57113320495E+00 -0.48325075958E+01 -0.85858125028E+02  0.86014270241E+02  0.17770000000E+01 0.  1.
</event>
<event>
 6    1  0.1823098E-004  0.5180171E+03  0.7546771E-02  0.9360374E-01
        -11   -1    0    0    0    0  0.00000000000E+00  0.00000000000E+00  0.50000000000E+03  0.50000000000E+03  0.00000000000E+00 0.  1.
         11   -1    0    0    0    0 -0.00000000000E+00 -0.00000000000E+00 -0.50000000000E+03  0.50000000000E+03  0.00000000000E+00 0.  1.
        -11    1    1    2    0    0  0.51126396094E+01  0.54930301281E+01  0.48192452217E+03  0.48198294320E+03  0.00000000000E+00 0.  1.
         11    1    1    2    0    0  0.28615528008E+02 -0.32677697325E+02 -0.44954360860E+03  0.45163717338E+03  0.00000000000E+00 0.  1.
        -15    1    1    2    0    0 -0.30573084883E+01 -0.16699613084E+01  0.74340246435E+01  0.83999022235E+01  0.17770000000E+01 0. -1.
         15    1    1    2    0    0 -0.30670859129E+02  0.28854628506E+02 -0.39814938215E+02  0.57979981200E+02  0.17770000000E+01 0.  1.
</event>
<event>
 6    1  0.1823098E-004  0.5001773E+03  0.7546771E-02  0.9399413E-01
        -11   -1    0    0    0    0  0.00000000000E+00  0.00000000000E+00  0.50000000000E+03  0.50000000000E+03  0.00000000000E+00 0.  1.
         11   -1    0    0    0    0 -0.00000000000E+00 -0.00000000000E+00 -0.50000000000E+03  0.50000000000E+03  0.00000000000E+00 0.  1.
        -11    1    1    2    0    0 -0.44794908540E+01  0.81336893993E+00  0.20083906159E+03  0.20089065699E+03  0.00000000000E+00 0.  1.
         11    1    1    2    0    0 -0.85341016162E+01 -0.87006217104E+00 -0.49974904504E+03  0.49982266447E+03  0.00000000000E+00 0.  1.
        -15    1    1    2    0    0  0.10446092684E+02 -0.19298056802E+01  0.18222157492E+03  0.18253959871E+03  0.17770000000E+01 0. -1.
         15    1    1    2    0    0  0.25674997862E+01  0.19864989113E+01  0.11668840853E+03  0.11674707982E+03  0.17770000000E+01 0. -1.
</event>
<event>
 6    1  0.1823098E-004  0.5054762E+03  0.7546771E-02  0.9387639E-01
        -11   -1    0    0    0    0  0.00000000000E+00  0.00000000000E+00  0.50000000000E+03  0.50000000000E+03  0.00000000000E+00 0. -1.
         11   -1    0    0    0    0 -0.00000000000E+00 -0.00000000000E+00 -0.50000000000E+03  0.50000000000E+03  0.00000000000E+00 0.  1.
        -11    1    1    2    0    0  0.14794129188E+02 -0.15549108582E+02  0.49405783956E+03  0.49452380111E+03  0.00000000000E+00 0. -1.
         11    1    1    2    0    0 -0.19622702286E+02 -0.11041783778E+02 -0.46018834577E+03  0.46073884688E+03  0.00000000000E+00 0.  1.
        -15    1    1    2    0    0  0.61966038634E+00  0.19287110179E+02 -0.16927547693E+02  0.25730841377E+02  0.17770000000E+01 0. -1.
         15    1    1    2    0    0  0.42089127109E+01  0.73037821812E+01 -0.16941946090E+02  0.19006510639E+02  0.17770000000E+01 0.  1.
</event>
<event>
 6    1  0.1823098E-004  0.5006935E+03  0.7546771E-02  0.9398259E-01
        -11   -1    0    0    0    0  0.00000000000E+00  0.00000000000E+00  0.50000000000E+03  0.50000000000E+03  0.00000000000E+00 0.  1.
         11   -1    0    0    0    0 -0.00000000000E+00 -0.00000000000E+00 -0.50000000000E+03  0.50000000000E+03  0.00000000000E+00 0.  1.
        -11    1    1    2    0    0  0.66427674538E+01 -0.12956739945E+01  0.39833143583E+03  0.39838892793E+03  0.00000000000E+00 0.  1.
         11    1    1    2    0    0  0.68082018675E+01  0.10852501541E+02 -0.49914211417E+03  0.49930649759E+03  0.00000000000E+00 0.  1.
        -15    1    1    2    0    0 -0.75114615424E+01 -0.30229666081E+01  0.42289762686E+02  0.43094572032E+02  0.17770000000E+01 0. -1.
         15    1    1    2    0    0 -0.59395077789E+01 -0.65338609387E+01  0.58520915653E+02  0.59210002443E+02  0.17770000000E+01 0.  1.
</event>
<event>
 6    1  0.1823098E-004  0.5009418E+03  0.7546771E-02  0.9397705E-01
        -11   -1    0    0    0    0  0.00000000000E+00  0.00000000000E+00  0.50000000000E+03  0.50000000000E+03  0.00000000000E+00 0. -1.
         11   -1    0    0    0    0 -0.00000000000E+00 -0.00000000000E+00 -0.50000000000E+03  0.50000000000E+03  0.00000000000E+00 0. -1.
        -11    1    1    2    0    0  0.87866349735E+01 -0.25988061204E+02  0.38214644722E+03  0.38312986233E+03  0.00000000000E+00 0. -1.
         11    1    1    2    0    0 -0.91537325307E+01  0.25016988245E+02 -0.49834670637E+03  0.49905819327E+03  0.00000000000E+00 0. -1.
        -15    1    1    2    0    0  0.38815311149E+01 -0.74046731775E+01  0.79681118049E+02  0.80138216671E+02  0.17770000000E+01 0.  1.
         15    1    1    2    0    0 -0.35144335577E+01  0.83757461359E+01  0.36519141092E+02  0.37673727738E+02  0.17770000000E+01 0. -1.
</event>
<event>
 6    1  0.1823098E-004  0.5034428E+03  0.7546771E-02  0.9392139E-01
        -11   -1    0    0    0    0  0.00000000000E+00  0.00000000000E+00  0.50000000000E+03  0.50000000000E+03  0.00000000000E+00 0. -1.
         11   -1    0    0    0    0 -0.00000000000E+00 -0.00000000000E+00 -0.50000000000E+03  0.50000000000E+03  0.00000000000E+00 0. -1.
        -11    1    1    2    0    0  0.55499035940E+01 -0.14543875723E+01  0.33851663087E+03  0.33856524637E+03  0.00000000000E+00 0. -1.
         11    1    1    2    0    0  0.39848736492E+02  0.23884655557E+01 -0.49494989638E+03  0.49655717344E+03  0.00000000000E+00 0. -1.
        -15    1    1    2    0    0 -0.40893415581E+02 -0.37101915734E+01  0.99260824678E+02  0.10743326302E+03  0.17770000000E+01 0. -1.
         15    1    1    2    0    0 -0.45052245047E+01  0.27761135900E+01  0.57172440830E+02  0.57444317160E+02  0.17770000000E+01 0.  1.
</event>
<event>
 6    1  0.1823098E-004  0.5029577E+03  0.7546771E-02  0.9393216E-01
        -11   -1    0    0    0    0  0.00000000000E+00  0.00000000000E+00  0.50000000000E+03  0.50000000000E+03  0.00000000000E+00 0. -1.
         11   -1    0    0    0    0 -0.00000000000E+00 -0.00000000000E+00 -0.50000000000E+03  0.50000000000E+03  0.00000000000E+00 0.  1.
        -11    1    1    2    0    0 -0.33435193222E+00  0.61402948167E+01  0.35410847875E+03  0.35416186939E+03  0.00000000000E+00 0. -1.
         11    1    1    2    0    0  0.65150405753E+01 -0.29570432206E+02 -0.49611915546E+03  0.49704232479E+03  0.00000000000E+00 0.  1.
        -15    1    1    2    0    0  0.11662474374E+00  0.28038263674E+02  0.13577227598E+03  0.13864857188E+03  0.17770000000E+01 0. -1.
         15    1    1    2    0    0 -0.62973133868E+01 -0.46081262846E+01  0.62384007394E+01  0.10147233935E+02  0.17770000000E+01 0.  1.
</event>
<event>
 6    1  0.1823098E-004  0.5031292E+03  0.7546771E-02  0.9392835E-01
        -11   -1    0    0    0    0  0.00000000000E+00  0.00000000000E+00  0.50000000000E+03  0.50000000000E+03  0.00000000000E+00 0.  1.
         11   -1    0    0    0    0 -0.00000000000E+00 -0.00000000000E+00 -0.50000000000E+03  0.50000000000E+03  0.00000000000E+00 0.  1.
        -11    1    1    2    0    0  0.15017367500E+02 -0.14902578226E+01  0.36255017517E+03  0.36286412293E+03  0.00000000000E+00 0.  1.
         11    1    1    2    0    0 -0.16815236736E+02 -0.43496051517E+02 -0.49467764973E+03  0.49687084421E+03  0.00000000000E+00 0.  1.
        -15    1    1    2    0    0  0.39877510875E+01  0.56925192994E+01  0.28865053997E+02  0.29743167383E+02  0.17770000000E+01 0. -1.
         15    1    1    2    0    0 -0.21898818515E+01  0.39293790041E+02  0.10326242057E+03  0.11052186548E+03  0.17770000000E+01 0.  1.
</event>
<event>
 6    1  0.1823098E-004  0.5004020E+03  0.7546771E-02  0.9398911E-01
        -11   -1    0    0    0    0  0.00000000000E+00  0.00000000000E+00  0.50000000000E+03  0.50000000000E+03  0.00000000000E+00 0. -1.
         11   -1    0    0    0    0 -0.00000000000E+00 -0.00000000000E+00 -0.50000000000E+03  0.50000000000E+03  0.00000000000E+00 0.  1.
        -11    1    1    2    0    0  0.28372600934E+02 -0.51675484442E+01  0.49876495667E+03  0.49959802846E+03  0.00000000000E+00 0. -1.
         11    1    1    2    0    0 -0.15040757786E+02  0.12814679328E+02 -0.15546205672E+03  0.15671276744E+03  0.00000000000E+00 0.  1.
        -15    1    1    2    0    0 -0.22437594479E+01 -0.19967796126E+01 -0.53434755011E+02  0.53548598089E+02  0.17770000000E+01 0. -1.
         15    1    1    2    0    0 -0.11088083700E+02 -0.56503512710E+01 -0.28986814494E+03  0.29014060600E+03  0.17770000000E+01 0.  1.
</event>
<event>
 6    1  0.1823098E-004  0.5007760E+03  0.7546771E-02  0.9398075E-01
        -11   -1    0    0    0    0  0.00000000000E+00  0.00000000000E+00  0.50000000000E+03  0.50000000000E+03  0.00000000000E+00 0.  1.
         11   -1    0    0    0    0 -0.00000000000E+00 -0.00000000000E+00 -0.50000000000E+03  0.50000000000E+03  0.00000000000E+00 0. -1.
        -11    1    1    2    0    0 -0.35998631743E+01  0.15075413352E+02  0.49898334161E+03  0.49922400013E+03  0.00000000000E+00 0.  1.
         11    1    1    2    0    0 -0.19571015359E+01  0.85038251071E+01 -0.11069459978E+03  0.11103801019E+03  0.00000000000E+00 0. -1.
        -15    1    1    2    0    0  0.33646453485E+01 -0.19907970753E+01 -0.22059418809E+03  0.22063598451E+03  0.17770000000E+01 0.  1.
         15    1    1    2    0    0  0.21923193618E+01 -0.21588441383E+02 -0.16769455374E+03  0.16910200516E+03  0.17770000000E+01 0. -1.
</event>
<event>
 6    1  0.1823098E-004  0.5008302E+03  0.7546771E-02  0.9397954E-01
        -11   -1    0    0    0    0  0.00000000000E+00  0.00000000000E+00  0.50000000000E+03  0.50000000000E+03  0.00000000000E+00 0.  1.
         11   -1    0    0    0    0 -0.00000000000E+00 -0.00000000000E+00 -0.50000000000E+03  0.50000000000E+03  0.00000000000E+00 0. -1.
        -11    1    1    2    0    0  0.97543623902E+02  0.28160327539E+02  0.44295940081E+03  0.45444558902E+03  0.00000000000E+00 0.  1.
         11    1    1    2    0    0 -0.98133500684E+02 -0.27804980255E+02 -0.48863805944E+03  0.49916976472E+03  0.00000000000E+00 0. -1.
        -15    1    1    2    0    0 -0.29174654270E+01  0.14798565675E+01  0.21232904428E+02  0.21556797986E+02  0.17770000000E+01 0. -1.
         15    1    1    2    0    0  0.35073422087E+01 -0.18352038518E+01  0.24445754195E+02  0.24827848269E+02  0.17770000000E+01 0.  1.
</event>
<event>
 6    1  0.4718461E-004  0.5002220E+03  0.7546771E-02  0.9399313E-01
        -11   -1    0    0    0    0  0.00000000000E+00  0.00000000000E+00  0.50000000000E+03  0.50000000000E+03  0.00000000000E+00 0. -1.
         11   -1    0    0    0    0 -0.00000000000E+00 -0.00000000000E+00 -0.50000000000E+03  0.50000000000E+03  0.00000000000E+00 0.  1.
        -11    1    1    2    0    0  0.79100731370E+00 -0.25699585033E+00  0.57986768600E+02  0.57992732925E+02  0.00000000000E+00 0. -1.
         11    1    1    2    0    0  0.16473880050E+02 -0.99419285119E+01 -0.49940750484E+03  0.49977803729E+03  0.00000000000E+00 0.  1.
        -15    1    1    2    0    0 -0.13942935119E+02  0.10614652232E+02  0.19876078992E+03  0.19953968432E+03  0.17770000000E+01 0. -1.
         15    1    1    2    0    0 -0.33219522441E+01 -0.41572786947E+00  0.24265994632E+03  0.24268954546E+03  0.17770000000E+01 0. -1.
</event>
<event>
 6    1  0.1823098E-004  0.5046587E+03  0.7546771E-02  0.9389446E-01
        -11   -1    0    0    0    0  0.00000000000E+00  0.00000000000E+00  0.50000000000E+03  0.50000000000E+03  0.00000000000E+00 0.  1.
         11   -1    0    0    0    0 -0.00000000000E+00 -0.00000000000E+00 -0.50000000000E+03  0.50000000000E+03  0.00000000000E+00 0. -1.
        -11    1    1    2    0    0 -0.93832949739E+01  0.25014904061E+02  0.49462030895E+03  0.49534133855E+03  0.00000000000E+00 0.  1.
         11    1    1    2    0    0  0.38319922929E+02  0.20932892907E+01 -0.16589729228E+03  0.17027833080E+03  0.00000000000E+00 0. -1.
        -15    1    1    2    0    0 -0.96245240525E+01 -0.87479890179E+01 -0.16820075640E+02  0.21336153558E+02  0.17770000000E+01 0.  1.
         15    1    1    2    0    0 -0.19312103902E+02 -0.18360204334E+02 -0.31190294103E+03  0.31304417709E+03  0.17770000000E+01 0. -1.
</event>
<event>
 6    1  0.1823098E-004  0.5004528E+03  0.7546771E-02  0.9398797E-01
        -11   -1    0    0    0    0  0.00000000000E+00  0.00000000000E+00  0.50000000000E+03  0.50000000000E+03  0.00000000000E+00 0.  1.
         11   -1    0    0    0    0 -0.00000000000E+00 -0.00000000000E+00 -0.50000000000E+03  0.50000000000E+03  0.00000000000E+00 0.  1.
        -11    1    1    2    0    0  0.76985375431E+01  0.38057355587E+00  0.49948777313E+03  0.49954724283E+03  0.00000000000E+00 0.  1.
         11    1    1    2    0    0  0.64069205876E-01 -0.11692396613E+02 -0.34191140818E+03  0.34211127909E+03  0.00000000000E+00 0.  1.
        -15    1    1    2    0    0 -0.34653141472E+01  0.31069707121E+01 -0.29443173439E+02  0.29861678792E+02  0.17770000000E+01 0. -1.
         15    1    1    2    0    0 -0.42972926019E+01  0.82048523447E+01 -0.12813319152E+03  0.12847979928E+03  0.17770000000E+01 0.  1.
</event>
<event>
 6    1  0.1823098E-004  0.5086374E+03  0.7546771E-02  0.9380688E-01
        -11   -1    0    0    0    0  0.00000000000E+00  0.00000000000E+00  0.50000000000E+03  0.50000000000E+03  0.00000000000E+00 0. -1.
         11   -1    0    0    0    0 -0.00000000000E+00 -0.00000000000E+00 -0.50000000000E+03  0.50000000000E+03  0.00000000000E+00 0. -1.
        -11    1    1    2    0    0  0.82349365026E+01 -0.20038127674E+01  0.49128950219E+03  0.49136259973E+03  0.00000000000E+00 0. -1.
         11    1    1    2    0    0 -0.18137141624E+02 -0.66903047943E+01 -0.47315612879E+03  0.47355088248E+03  0.00000000000E+00 0. -1.
        -15    1    1    2    0    0 -0.64482382187E+01  0.65803204883E+01 -0.15751475468E+02  0.18334314884E+02  0.17770000000E+01 0.  1.
         15    1    1    2    0    0  0.16350443340E+02  0.21137970734E+01 -0.23818979340E+01  0.16752202907E+02  0.17770000000E+01 0. -1.
</event>
<event>
 6    1  0.1823098E-004  0.5012646E+03  0.7546771E-02  0.9396984E-01
        -11   -1    0    0    0    0  0.00000000000E+00  0.00000000000E+00  0.50000000000E+03  0.50000000000E+03  0.00000000000E+00 0.  1.
         11   -1    0    0    0    0 -0.00000000000E+00 -0.00000000000E+00 -0.50000000000E+03  0.50000000000E+03  0.00000000000E+00 0. -1.
        -11    1    1    2    0    0 -0.71782881848E+01  0.60213235503E+01  0.49864737020E+03  0.49873538472E+03  0.00000000000E+00 0.  1.
         11    1    1    2    0    0 -0.11664835908E+02 -0.68266626581E+00 -0.13388715447E+03  0.13439607346E+03  0.00000000000E+00 0. -1.
        -15    1    1    2    0    0  0.16105579158E+02 -0.36718877351E+01 -0.36173544519E+03  0.36211678017E+03  0.17770000000E+01 0. -1.
         15    1    1    2    0    0  0.27375449353E+01 -0.16667695494E+01 -0.30247705439E+01  0.47517616572E+01  0.17770000000E+01 0.  1.
</event>
<event>
 6    1  0.1823098E-004  0.5030744E+03  0.7546771E-02  0.9392957E-01
        -11   -1    0    0    0    0  0.00000000000E+00  0.00000000000E+00  0.50000000000E+03  0.50000000000E+03  0.00000000000E+00 0. -1.
         11   -1    0    0    0    0 -0.00000000000E+00 -0.00000000000E+00 -0.50000000000E+03  0.50000000000E+03  0.00000000000E+00 0.  1.
        -11    1    1    2    0    0  0.10125093823E+02  0.34292052345E+01  0.49681062128E+03  0.49692561857E+03  0.00000000000E+00 0. -1.
         11    1    1    2    0    0 -0.15308842733E+02 -0.50757800246E+01 -0.47771417479E+03  0.47798635650E+03  0.00000000000E+00 0.  1.
        -15    1    1    2    0    0  0.75268794487E+01  0.30155648922E+01 -0.32524183113E+01  0.89153519126E+01  0.17770000000E+01 0. -1.
         15    1    1    2    0    0 -0.23431305383E+01 -0.13689901021E+01 -0.15844028178E+02  0.16172673017E+02  0.17770000000E+01 0.  1.
</event>
<event>
 6    1  0.1823098E-004  0.4837791E+03  0.7546771E-02  0.9436855E-01
        -11   -1    0    0    0    0  0.00000000000E+00  0.00000000000E+00  0.50000000000E+03  0.50000000000E+03  0.00000000000E+00 0.  1.
         11   -1    0    0    0    0 -0.00000000000E+00 -0.00000000000E+00 -0.50000000000E+03  0.50000000000E+03  0.00000000000E+00 0.  1.
        -11    1    1    2    0    0  0.62481898175E+01  0.25667627099E+01  0.47706738415E+03  0.47711520324E+03  0.00000000000E+00 0.  1.
         11    1    1    2    0    0  0.18270182613E+02 -0.10377842555E+01 -0.49050680446E+03  0.49084804348E+03  0.00000000000E+00 0.  1.
        -15    1    1    2    0    0 -0.22641542293E+02 -0.13938294571E+01  0.51183421225E+01  0.23322464558E+02  0.17770000000E+01 0.  1.
         15    1    1    2    0    0 -0.18768301376E+01 -0.13514899721E+00  0.83210781925E+01  0.87142887204E+01  0.17770000000E+01 0. -1.
</event>
<event>
 6    1  0.1823098E-004  0.5015591E+03  0.7546771E-02  0.9396328E-01
        -11   -1    0    0    0    0  0.00000000000E+00  0.00000000000E+00  0.50000000000E+03  0.50000000000E+03  0.00000000000E+00 0.  1.
         11   -1    0    0    0    0 -0.00000000000E+00 -0.00000000000E+00 -0.50000000000E+03  0.50000000000E+03  0.00000000000E+00 0. -1.
        -11    1    1    2    0    0 -0.91058939331E+01  0.50165591239E+01  0.39463337250E+03  0.39477028999E+03  0.00000000000E+00 0.  1.
         11    1    1    2    0    0  0.32753710320E+01  0.17250459579E+02 -0.49813155768E+03  0.49844092445E+03  0.00000000000E+00 0. -1.
        -15    1    1    2    0    0  0.37808825397E+01 -0.11811644603E+02  0.79375286328E+02  0.80357973030E+02  0.17770000000E+01 0.  1.
         15    1    1    2    0    0  0.20496403614E+01 -0.10455374100E+02  0.24122898850E+02  0.26430812532E+02  0.17770000000E+01 0. -1.
</event>
<event>
 6    1  0.1823098E-004  0.5021096E+03  0.7546771E-02  0.9395102E-01
        -11   -1    0    0    0    0  0.00000000000E+00  0.00000000000E+00  0.50000000000E+03  0.50000000000E+03  0.00000000000E+00 0.  1.
         11   -1    0    0    0    0 -0.00000000000E+00 -0.00000000000E+00 -0.50000000000E+03  0.50000000000E+03  0.00000000000E+00 0. -1.
        -11    1    1    2    0    0  0.83123585347E+01  0.24598387644E+01  0.49781492023E+03  0.49789039046E+03  0.00000000000E+00 0.  1.
         11    1    1    2    0    0 -0.89170679923E+01 -0.15679239338E+02 -0.42668884697E+03  0.42706992961E+03  0.00000000000E+00 0. -1.
        -15    1    1    2    0    0  0.56885844307E+01  0.10169750949E+02 -0.65880625862E+02  0.66926813910E+02  0.17770000000E+01 0.  1.
         15    1    1    2    0    0 -0.50838749731E+01  0.30496496240E+01 -0.52454473967E+01  0.81128660141E+01  0.17770000000E+01 0. -1.
</event>
<event>
 6    1  0.1823098E-004  0.4822520E+03  0.7546771E-02  0.9440422E-01
        -11   -1    0    0    0    0  0.00000000000E+00  0.00000000000E+00  0.50000000000E+03  0.50000000000E+03  0.00000000000E+00 0. -1.
         11   -1    0    0    0    0 -0.00000000000E+00 -0.00000000000E+00 -0.50000000000E+03  0.50000000000E+03  0.00000000000E+00 0. -1.
        -11    1    1    2    0    0 -0.48955167347E+01 -0.81927615848E+01  0.48638189489E+03  0.48647552364E+03  0.00000000000E+00 0. -1.
         11    1    1    2    0    0  0.23150368129E+02 -0.19209730941E+02 -0.47768323699E+03  0.47862953128E+03  0.00000000000E+00 0. -1.
        -15    1    1    2    0    0 -0.12027169328E+02  0.17764283306E+02 -0.88690726923E+01  0.23281768464E+02  0.17770000000E+01 0.  1.
         15    1    1    2    0    0 -0.62276820670E+01  0.96382092196E+01  0.17041479738E+00  0.11613176615E+02  0.17770000000E+01 0. -1.
</event>
<event>
 6    1  0.1823098E-004  0.5011008E+03  0.7546771E-02  0.9397350E-01
        -11   -1    0    0    0    0  0.00000000000E+00  0.00000000000E+00  0.50000000000E+03  0.50000000000E+03  0.00000000000E+00 0. -1.
         11   -1    0    0    0    0 -0.00000000000E+00 -0.00000000000E+00 -0.50000000000E+03  0.50000000000E+03  0.00000000000E+00 0. -1.
        -11    1    1    2    0    0 -0.34069697858E+01  0.43773940721E+01  0.37578788107E+03  0.37582881819E+03  0.00000000000E+00 0. -1.
         11    1    1    2    0    0  0.45145952841E+01  0.18069673675E+02 -0.49855145437E+03  0.49889923564E+03  0.00000000000E+00 0. -1.
        -15    1    1    2    0    0 -0.21505824744E+01 -0.33300191537E+01  0.10332658396E+02  0.11208728343E+02  0.17770000000E+01 0. -1.
         15    1    1    2    0    0  0.10429569761E+01 -0.19117048593E+02  0.11243091490E+03  0.11406321782E+03  0.17770000000E+01 0.  1.
</event>
<event>
 6    1  0.1823098E-004  0.5009078E+03  0.7546771E-02  0.9397781E-01
        -11   -1    0    0    0    0  0.00000000000E+00  0.00000000000E+00  0.50000000000E+03  0.50000000000E+03  0.00000000000E+00 0.  1.
         11   -1    0    0    0    0 -0.00000000000E+00 -0.00000000000E+00 -0.50000000000E+03  0.50000000000E+03  0.00000000000E+00 0. -1.
        -11    1    1    2    0    0 -0.69451938179E+01 -0.26506735270E+01  0.49903678886E+03  0.49909215424E+03  0.00000000000E+00 0.  1.
         11    1    1    2    0    0  0.21142779503E+02  0.94876929169E+01 -0.18667876576E+03  0.18811165575E+03  0.00000000000E+00 0. -1.
        -15    1    1    2    0    0 -0.51883148096E+01 -0.44449511563E+01 -0.13085977611E+03  0.13105004744E+03  0.17770000000E+01 0. -1.
         15    1    1    2    0    0 -0.90092708759E+01 -0.23920682335E+01 -0.18149824699E+03  0.18174614257E+03  0.17770000000E+01 0.  1.
</event>
<event>
 6    1  0.1823098E-004  0.5040371E+03  0.7546771E-02  0.9390821E-01
        -11   -1    0    0    0    0  0.00000000000E+00  0.00000000000E+00  0.50000000000E+03  0.50000000000E+03  0.00000000000E+00 0.  1.
         11   -1    0    0    0    0 -0.00000000000E+00 -0.00000000000E+00 -0.50000000000E+03  0.50000000000E+03  0.00000000000E+00 0.  1.
        -11    1    1    2    0    0  0.98366019544E+00  0.15846879787E+02  0.49570866404E+03  0.49596287240E+03  0.00000000000E+00 0.  1.
         11    1    1    2    0    0 -0.13028156641E+02  0.12145040523E+02 -0.43360393068E+03  0.43396958830E+03  0.00000000000E+00 0.  1.
        -15    1    1    2    0    0  0.70517687525E+01 -0.13166418459E+02 -0.19365767442E+02  0.24520862448E+02  0.17770000000E+01 0.  1.
         15    1    1    2    0    0  0.49927276928E+01 -0.14825501851E+02 -0.42738965926E+02  0.45546676853E+02  0.17770000000E+01 0. -1.
</event>
<event>
 6    1  0.1823098E-004  0.5025377E+03  0.7546771E-02  0.9394149E-01
        -11   -1    0    0    0    0  0.00000000000E+00  0.00000000000E+00  0.50000000000E+03  0.50000000000E+03  0.00000000000E+00 0. -1.
         11   -1    0    0    0    0 -0.00000000000E+00 -0.00000000000E+00 -0.50000000000E+03  0.50000000000E+03  0.00000000000E+00 0. -1.
        -11    1    1    2    0    0 -0.14856890564E+02  0.96942972592E+01  0.49714592415E+03  0.49746233676E+03  0.00000000000E+00 0. -1.
         11    1    1    2    0    0  0.93223797693E+01 -0.13679408362E+02 -0.27478736111E+02  0.32079805423E+02  0.00000000000E+00 0. -1.
        -15    1    1    2    0    0 -0.95160890327E+01  0.26118936443E+01 -0.28067185153E+03  0.28085089266E+03  0.17770000000E+01 0. -1.
         15    1    1    2    0    0  0.15050599828E+02  0.13732174589E+01 -0.18899533651E+03  0.18960696515E+03  0.17770000000E+01 0. -1.
</event>
<event>
 6    1  0.1823098E-004  0.5005254E+03  0.7546771E-02  0.9398635E-01
        -11   -1    0    0    0    0  0.00000000000E+00  0.00000000000E+00  0.50000000000E+03  0.50000000000E+03  0.00000000000E+00 0. -1.
         11   -1    0    0    0    0 -0.00000000000E+00 -0.00000000000E+00 -0.50000000000E+03  0.50000000000E+03  0.00000000000E+00 0. -1.
        -11    1    1    2    0    0  0.84246488637E+02 -0.12890991696E+02  0.49214963940E+03  0.49947464008E+03  0.00000000000E+00 0. -1.
         11    1    1    2    0    0 -0.68498506833E+02  0.38359573734E+01 -0.32675524814E+03  0.33387984694E+03  0.00000000000E+00 0. -1.
        -15    1    1    2    0    0 -0.65975821901E+01  0.71527475793E+01 -0.58679608496E+02  0.59507512726E+02  0.17770000000E+01 0.  1.
         15    1    1    2    0    0 -0.91503996142E+01  0.19022867432E+01 -0.10671478277E+03  0.10713800026E+03  0.17770000000E+01 0. -1.
</event>
<event>
 6    1  0.1823098E-004  0.5008334E+03  0.7546771E-02  0.9397947E-01
        -11   -1    0    0    0    0  0.00000000000E+00  0.00000000000E+00  0.50000000000E+03  0.50000000000E+03  0.00000000000E+00 0.  1.
         11   -1    0    0    0    0 -0.00000000000E+00 -0.00000000000E+00 -0.50000000000E+03  0.50000000000E+03  0.00000000000E+00 0. -1.
        -11    1    1    2    0    0  0.82859679259E+01 -0.17880452884E+02  0.49877739417E+03  0.49916656218E+03  0.00000000000E+00 0.  1.
         11    1    1    2    0    0 -0.22467171000E+02  0.97285899524E+01 -0.19201506015E+03  0.19356963233E+03  0.00000000000E+00 0. -1.
        -15    1    1    2    0    0  0.97085494391E+00  0.19870759049E+01 -0.43956259613E+02  0.44047718648E+02  0.17770000000E+01 0. -1.
         15    1    1    2    0    0  0.13210348130E+02  0.61647870263E+01 -0.26280607441E+03  0.26321608684E+03  0.17770000000E+01 0.  1.
</event>
<event>
 6    1  0.1823098E-004  0.5007971E+03  0.7546771E-02  0.9398028E-01
        -11   -1    0    0    0    0  0.00000000000E+00  0.00000000000E+00  0.50000000000E+03  0.50000000000E+03  0.00000000000E+00 0. -1.
         11   -1    0    0    0    0 -0.00000000000E+00 -0.00000000000E+00 -0.50000000000E+03  0.50000000000E+03  0.00000000000E+00 0. -1.
        -11    1    1    2    0    0  0.20491475029E+02  0.27353403734E+00  0.49878202933E+03  0.49920285271E+03  0.00000000000E+00 0. -1.
         11    1    1    2    0    0 -0.22880012556E+02  0.13403311103E+02 -0.25522827149E+03  0.25660205434E+03  0.00000000000E+00 0. -1.
        -15    1    1    2    0    0 -0.25832294320E+01 -0.79438414956E+01 -0.17330787978E+03  0.17351817373E+03  0.17770000000E+01 0.  1.
         15    1    1    2    0    0  0.49717669593E+01 -0.57330036450E+01 -0.70245878055E+02  0.70676919218E+02  0.17770000000E+01 0.  1.
</event>
<event>
 6    1  0.1823098E-004  0.5055503E+03  0.7546771E-02  0.9387475E-01
        -11   -1    0    0    0    0  0.00000000000E+00  0.00000000000E+00  0.50000000000E+03  0.50000000000E+03  0.00000000000E+00 0. -1.
         11   -1    0    0    0    0 -0.00000000000E+00 -0.00000000000E+00 -0.50000000000E+03  0.50000000000E+03  0.00000000000E+00 0.  1.
        -11    1    1    2    0    0 -0.86903276162E+00 -0.75951877289E+01  0.47612233517E+03  0.47618370420E+03  0.00000000000E+00 0. -1.
         11    1    1    2    0    0 -0.79152946684E+01 -0.73341447062E+01 -0.49433196181E+03  0.49444972448E+03  0.00000000000E+00 0.  1.
        -15    1    1    2    0    0  0.11435612300E+02  0.13457338822E+02  0.98522876925E+01  0.20300209325E+02  0.17770000000E+01 0.  1.
         15    1    1    2    0    0 -0.26512848696E+01  0.14719936127E+01  0.83573389441E+01  0.90663619982E+01  0.17770000000E+01 0. -1.
</event>
<event>
 6    1  0.1823098E-004  0.5013918E+03  0.7546771E-02  0.9396701E-01
        -11   -1    0    0    0    0  0.00000000000E+00  0.00000000000E+00  0.50000000000E+03  0.50000000000E+03  0.00000000000E+00 0. -1.
         11   -1    0    0    0    0 -0.00000000000E+00 -0.00000000000E+00 -0.50000000000E+03  0.50000000000E+03  0.00000000000E+00 0.  1.
        -11    1    1    2    0    0  0.13437785785E+01 -0.63465731532E+01  0.43689763505E+03  0.43694579555E+03  0.00000000000E+00 0. -1.
         11    1    1    2    0    0 -0.72736255995E+01 -0.90591926357E+01 -0.49847278059E+03  0.49860815034E+03  0.00000000000E+00 0.  1.
        -15    1    1    2    0    0  0.72808056434E+00  0.48063223543E+01  0.77980217211E+01  0.93593647030E+01  0.17770000000E+01 0.  1.
         15    1    1    2    0    0  0.52017664567E+01  0.10599443435E+02  0.53777123813E+02  0.55086689408E+02  0.17770000000E+01 0. -1.
</event>
<event>
 6    1  0.1823098E-004  0.5001249E+03  0.7546771E-02  0.9399530E-01
        -11   -1    0    0    0    0  0.00000000000E+00  0.00000000000E+00  0.50000000000E+03  0.50000000000E+03  0.00000000000E+00 0. -1.
         11   -1    0    0    0    0 -0.00000000000E+00 -0.00000000000E+00 -0.50000000000E+03  0.50000000000E+03  0.00000000000E+00 0.  1.
        -11    1    1    2    0    0 -0.14560755213E+02 -0.22858983844E+02  0.44140819507E+03  0.44223946388E+03  0.00000000000E+00 0. -1.
         11    1    1    2    0    0  0.15274508862E+02  0.29349968363E+02 -0.49877889395E+03  0.49987510071E+03  0.00000000000E+00 0.  1.
        -15    1    1    2    0    0 -0.31945221298E+00 -0.44109467671E+01  0.30098360023E+02  0.30473390132E+02  0.17770000000E+01 0. -1.
         15    1    1    2    0    0 -0.39430143623E+00 -0.20800377512E+01  0.27272338856E+02  0.27412045279E+02  0.17770000000E+01 0.  1.
</event>
<event>
 6    1  0.1823098E-004  0.5024480E+03  0.7546771E-02  0.9394349E-01
        -11   -1    0    0    0    0  0.00000000000E+00  0.00000000000E+00  0.50000000000E+03  0.50000000000E+03  0.00000000000E+00 0. -1.
         11   -1    0    0    0    0 -0.00000000000E+00 -0.00000000000E+00 -0.50000000000E+03  0.50000000000E+03  0.00000000000E+00 0. -1.
        -11    1    1    2    0    0  0.37882839133E+01 -0.57031387203E+01  0.49750485378E+03  0.49755196354E+03  0.00000000000E+00 0. -1.
         11    1    1    2    0    0  0.82616695344E+01 -0.96960251666E+01 -0.44712235154E+03  0.44730377299E+03  0.00000000000E+00 0. -1.
        -15    1    1    2    0    0 -0.39707571355E+01  0.14468049446E+01 -0.42811297558E+01  0.62726356313E+01  0.17770000000E+01 0.  1.
         15    1    1    2    0    0 -0.80791963122E+01  0.13952358942E+02 -0.46101372489E+02  0.48871627837E+02  0.17770000000E+01 0. -1.
</event>
<event>
 6    1  0.1823098E-004  0.5006263E+03  0.7546771E-02  0.9398409E-01
        -11   -1    0    0    0    0  0.00000000000E+00  0.00000000000E+00  0.50000000000E+03  0.50000000000E+03  0.00000000000E+00 0. -1.
         11   -1    0    0    0    0 -0.00000000000E+00 -0.00000000000E+00 -0.50000000000E+03  0.50000000000E+03  0.00000000000E+00 0. -1.
        -11    1    1    2    0    0  0.40568433673E+01  0.97944073898E+01  0.49926113193E+03  0.49937367397E+03  0.00000000000E+00 0. -1.
         11    1    1    2    0    0  0.50843119972E+01 -0.10178583797E+02 -0.52102207603E+02  0.53330046257E+02  0.00000000000E+00 0. -1.
        -15    1    1    2    0    0 -0.65707197545E+01 -0.46892746265E+00 -0.37796384962E+03  0.37802542719E+03  0.17770000000E+01 0. -1.
         15    1    1    2    0    0 -0.25704356100E+01  0.85310386951E+00 -0.69195074710E+02  0.69270852590E+02  0.17770000000E+01 0. -1.
</event>
<event>
 6    1  0.1823098E-004  0.5001555E+03  0.7546771E-02  0.9399462E-01
        -11   -1    0    0    0    0  0.00000000000E+00  0.00000000000E+00  0.50000000000E+03  0.50000000000E+03  0.00000000000E+00 0.  1.
         11   -1    0    0    0    0 -0.00000000000E+00 -0.00000000000E+00 -0.50000000000E+03  0.50000000000E+03  0.00000000000E+00 0. -1.
        -11    1    1    2    0    0  0.25029281278E+01 -0.24458113518E+01  0.25824999578E+03  0.25827370552E+03  0.00000000000E+00 0.  1.
         11    1    1    2    0    0  0.40872508865E+01  0.10470073439E+02 -0.49971809950E+03  0.49984448284E+03  0.00000000000E+00 0. -1.
        -15    1    1    2    0    0 -0.20640877566E+01 -0.37165273891E+01  0.18229039580E+03  0.18234861986E+03  0.17770000000E+01 0. -1.
         15    1    1    2    0    0 -0.45260912577E+01 -0.43077346985E+01  0.59177707919E+02  0.59533191783E+02  0.17770000000E+01 0.  1.
</event>
<event>
 6    1  0.5895445E-004  0.5002177E+03  0.7546771E-02  0.9399323E-01
        -11   -1    0    0    0    0  0.00000000000E+00  0.00000000000E+00  0.50000000000E+03  0.50000000000E+03  0.00000000000E+00 0.  1.
         11   -1    0    0    0    0 -0.00000000000E+00 -0.00000000000E+00 -0.50000000000E+03  0.50000000000E+03  0.00000000000E+00 0. -1.
        -11    1    1    2    0    0 -0.60094322964E+02 -0.39960454847E+02  0.45802375339E+03  0.46367437311E+03  0.00000000000E+00 0.  1.
         11    1    1    2    0    0  0.61446587468E+02  0.40723470698E+02 -0.49431599077E+03  0.49978233553E+03  0.00000000000E+00 0. -1.
        -15    1    1    2    0    0 -0.36294459443E+00 -0.66518477535E+00  0.10926530128E+02  0.11095989781E+02  0.17770000000E+01 0.  1.
         15    1    1    2    0    0 -0.98931990986E+00 -0.97831076071E-01  0.25365707245E+02  0.25447301583E+02  0.17770000000E+01 0.  1.
</event>
<event>
 6    1  0.1823098E-004  0.5008743E+03  0.7546771E-02  0.9397855E-01
        -11   -1    0    0    0    0  0.00000000000E+00  0.00000000000E+00  0.50000000000E+03  0.50000000000E+03  0.00000000000E+00 0. -1.
         11   -1    0    0    0    0 -0.00000000000E+00 -0.00000000000E+00 -0.50000000000E+03  0.50000000000E+03  0.00000000000E+00 0. -1.
        -11    1    1    2    0    0 -0.55536873154E+01  0.85372242366E+01  0.35810240441E+03  0.35824720471E+03  0.00000000000E+00 0. -1.
         11    1    1    2    0    0  0.32953245894E+01 -0.23249001425E+02 -0.49857303686E+03  0.49912568389E+03  0.00000000000E+00 0. -1.
        -15    1    1    2    0    0 -0.39631515180E+01  0.15769005431E+02  0.71566626700E+02  0.73411905631E+02  0.17770000000E+01 0. -1.
         15    1    1    2    0    0  0.62215142439E+01 -0.10572282427E+01  0.68904005755E+02  0.69215205765E+02  0.17770000000E+01 0.  1.
</event>
<event>
 6    1  0.1823098E-004  0.5036723E+03  0.7546771E-02  0.9391630E-01
        -11   -1    0    0    0    0  0.00000000000E+00  0.00000000000E+00  0.50000000000E+03  0.50000000000E+03  0.00000000000E+00 0. -1.
         11   -1    0    0    0    0 -0.00000000000E+00 -0.00000000000E+00 -0.50000000000E+03  0.50000000000E+03  0.00000000000E+00 0. -1.
        -11    1    1    2    0    0  0.51558873233E+01  0.33832882067E+01  0.36072608537E+03  0.36077879438E+03  0.00000000000E+00 0. -1.
         11    1    1    2    0    0 -0.33561337449E+02 -0.85869846177E+01 -0.49511724524E+03  0.49632770043E+03  0.00000000000E+00 0. -1.
        -15    1    1    2    0    0  0.21476019782E+02  0.66250148679E+01  0.26654780395E+02  0.34910532717E+02  0.17770000000E+01 0.  1.
         15    1    1    2    0    0  0.69294303432E+01 -0.14213184568E+01  0.10773637948E+03  0.10798297247E+03  0.17770000000E+01 0. -1.
</event>
<event>
 6    1  0.1823098E-004  0.5000333E+03  0.7546771E-02  0.9399735E-01
        -11   -1    0    0    0    0  0.00000000000E+00  0.00000000000E+00  0.50000000000E+03  0.50000000000E+03  0.00000000000E+00 0.  1.
         11   -1    0    0    0    0 -0.00000000000E+00 -0.00000000000E+00 -0.50000000000E+03  0.50000000000E+03  0.00000000000E+00 0.  1.
        -11    1    1    2    0    0 -0.38417550500E+01  0.63089181506E+01  0.49991210094E+03  0.49996666908E+03  0.00000000000E+00 0.  1.
         11    1    1    2    0    0 -0.81684679071E+00 -0.54484758020E+00 -0.12813902873E+02  0.12851467014E+02  0.00000000000E+00 0.  1.
        -15    1    1    2    0    0  0.32121061591E+01 -0.11148890156E+01 -0.21795996333E+03  0.21799372456E+03  0.17770000000E+01 0.  1.
         15    1    1    2    0    0  0.14464956816E+01 -0.46491815548E+01 -0.26913823473E+03  0.26918813934E+03  0.17770000000E+01 0. -1.
</event>
<event>
 6    1  0.1823098E-004  0.5008541E+03  0.7546771E-02  0.9397901E-01
        -11   -1    0    0    0    0  0.00000000000E+00  0.00000000000E+00  0.50000000000E+03  0.50000000000E+03  0.00000000000E+00 0.  1.
         11   -1    0    0    0    0 -0.00000000000E+00 -0.00000000000E+00 -0.50000000000E+03  0.50000000000E+03  0.00000000000E+00 0. -1.
        -11    1    1    2    0    0 -0.13027650971E+00 -0.73491429800E+01  0.49909173215E+03  0.49914585441E+03  0.00000000000E+00 0.  1.
         11    1    1    2    0    0 -0.59856668451E+01  0.93229556503E+01 -0.32485175596E+03  0.32504062678E+03  0.00000000000E+00 0. -1.
        -15    1    1    2    0    0  0.76445377499E+01 -0.92578667021E+01 -0.14754961553E+03  0.14804794435E+03  0.17770000000E+01 0.  1.
         15    1    1    2    0    0 -0.15285943952E+01  0.72840540318E+01 -0.26690360654E+02  0.27765574455E+02  0.17770000000E+01 0. -1.
</event>
<event>
 6    1  0.1823098E-004  0.5042043E+03  0.7546771E-02  0.9390451E-01
        -11   -1    0    0    0    0  0.00000000000E+00  0.00000000000E+00  0.50000000000E+03  0.50000000000E+03  0.00000000000E+00 0. -1.
         11   -1    0    0    0    0 -0.00000000000E+00 -0.00000000000E+00 -0.50000000000E+03  0.50000000000E+03  0.00000000000E+00 0.  1.
        -11    1    1    2    0    0  0.26027268135E+01 -0.75133769570E+01  0.49573190087E+03  0.49579566614E+03  0.00000000000E+00 0. -1.
         11    1    1    2    0    0  0.91969142949E+01 -0.47924933957E+01 -0.47562706736E+03  0.47574011649E+03  0.00000000000E+00 0.  1.
        -15    1    1    2    0    0  0.16246543744E+01  0.18710591883E+01 -0.32713675608E+01  0.44721291395E+01  0.17770000000E+01 0.  1.
         15    1    1    2    0    0 -0.13424295483E+02  0.10434811164E+02 -0.16833465946E+02  0.23992088237E+02  0.17770000000E+01 0. -1.
</event>
<event>
 6    1  0.1823098E-004  0.5001557E+03  0.7546771E-02  0.9399461E-01
        -11   -1    0    0    0    0  0.00000000000E+00  0.00000000000E+00  0.50000000000E+03  0.50000000000E+03  0.00000000000E+00 0. -1.
         11   -1    0    0    0    0 -0.00000000000E+00 -0.00000000000E+00 -0.50000000000E+03  0.50000000000E+03  0.00000000000E+00 0.  1.
        -11    1    1    2    0    0  0.39547404430E+02 -0.28057559622E+02  0.49748678368E+03  0.49984429955E+03  0.00000000000E+00 0. -1.
         11    1    1    2    0    0 -0.32263186163E+02  0.28083892158E+02 -0.38811309907E+03  0.39046305312E+03  0.00000000000E+00 0.  1.
        -15    1    1    2    0    0 -0.26048881994E+01  0.86479181992E-01 -0.54426545238E+02  0.54517882173E+02  0.17770000000E+01 0. -1.
         15    1    1    2    0    0 -0.46793300673E+01 -0.11281171763E+00 -0.54947139373E+02  0.55174765161E+02  0.17770000000E+01 0. -1.
</event>
<event>
 6    1  0.1823098E-004  0.5085042E+03  0.7546771E-02  0.9380979E-01
        -11   -1    0    0    0    0  0.00000000000E+00  0.00000000000E+00  0.50000000000E+03  0.50000000000E+03  0.00000000000E+00 0.  1.
         11   -1    0    0    0    0 -0.00000000000E+00 -0.00000000000E+00 -0.50000000000E+03  0.50000000000E+03  0.00000000000E+00 0. -1.
        -11    1    1    2    0    0  0.24973498025E+01  0.75786561057E+01  0.40732629763E+03  0.40740444957E+03  0.00000000000E+00 0.  1.
         11    1    1    2    0    0  0.38787214766E+02  0.11089367936E+02 -0.48983742562E+03  0.49149580431E+03  0.00000000000E+00 0. -1.
        -15    1    1    2    0    0 -0.50318403303E+01 -0.72213095746E+01  0.50724524879E+02  0.51513123399E+02  0.17770000000E+01 0. -1.
         15    1    1    2    0    0 -0.36252724238E+02 -0.11446714467E+02  0.31786603111E+02  0.49586622724E+02  0.17770000000E+01 0.  1.
</event>
<event>
 6    1  0.1823098E-004  0.5002375E+03  0.7546771E-02  0.9399278E-01
        -11   -1    0    0    0    0  0.00000000000E+00  0.00000000000E+00  0.50000000000E+03  0.50000000000E+03  0.00000000000E+00 0.  1.
         11   -1    0    0    0    0 -0.00000000000E+00 -0.00000000000E+00 -0.50000000000E+03  0.50000000000E+03  0.00000000000E+00 0. -1.
        -11    1    1    2    0    0 -0.67213748436E+01  0.16062785066E+02  0.49945904994E+03  0.49976247609E+03  0.00000000000E+00 0.  1.
         11    1    1    2    0    0 -0.44761242688E-02 -0.15755834975E+02 -0.20131899626E+03  0.20193460478E+03  0.00000000000E+00 0. -1.
        -15    1    1    2    0    0  0.71740309184E+01 -0.12039625833E+01 -0.26049763154E+03  0.26060523788E+03  0.17770000000E+01 0. -1.
         15    1    1    2    0    0 -0.44817995053E+00  0.89701249300E+00 -0.37642422145E+02  0.37697681237E+02  0.17770000000E+01 0. -1.
</event>
<event>
 6    1  0.1823098E-004  0.4747724E+03  0.7546771E-02  0.9458098E-01
        -11   -1    0    0    0    0  0.00000000000E+00  0.00000000000E+00  0.50000000000E+03  0.50000000000E+03  0.00000000000E+00 0.  1.
         11   -1    0    0    0    0 -0.00000000000E+00 -0.00000000000E+00 -0.50000000000E+03  0.50000000000E+03  0.00000000000E+00 0. -1.
        -11    1    1    2    0    0 -0.76775904824E+01  0.94297862778E+01  0.48670203014E+03  0.48685391279E+03  0.00000000000E+00 0.  1.
         11    1    1    2    0    0  0.16286144538E+02  0.29875712694E+02 -0.46259885937E+03  0.46384857594E+03  0.00000000000E+00 0. -1.
        -15    1    1    2    0    0 -0.30963752576E+01 -0.21761459652E+01  0.74496926524E+00  0.42468646321E+01  0.17770000000E+01 0.  1.
         15    1    1    2    0    0 -0.55121787976E+01 -0.37129353007E+02 -0.24848140031E+02  0.45050646630E+02  0.17770000000E+01 0. -1.
</event>
<event>
 6    1  0.1823098E-004  0.4943445E+03  0.7546771E-02  0.9412554E-01
        -11   -1    0    0    0    0  0.00000000000E+00  0.00000000000E+00  0.50000000000E+03  0.50000000000E+03  0.00000000000E+00 0.  1.
         11   -1    0    0    0    0 -0.00000000000E+00 -0.00000000000E+00 -0.50000000000E+03  0.50000000000E+03  0.00000000000E+00 0.  1.
        -11    1    1    2    0    0 -0.35680804553E+01 -0.69186771578E+01  0.49487516835E+03  0.49493639141E+03  0.00000000000E+00 0.  1.
         11    1    1    2    0    0 -0.24678563412E+01  0.97109475717E+01 -0.49367409203E+03  0.49377576080E+03  0.00000000000E+00 0.  1.
        -15    1    1    2    0    0  0.67089746902E+01 -0.46323678350E+01  0.89329309658E-01  0.83447517565E+01  0.17770000000E+01 0.  1.
         15    1    1    2    0    0 -0.67303789369E+00  0.18400974210E+01 -0.12904056384E+01  0.29430960291E+01  0.17770000000E+01 0. -1.
</event>
<event>
 6    1  0.1823098E-004  0.5001032E+03  0.7546771E-02  0.9399579E-01
        -11   -1    0    0    0    0  0.00000000000E+00  0.00000000000E+00  0.50000000000E+03  0.50000000000E+03  0.00000000000E+00 0. -1.
         11   -1    0    0    0    0 -0.00000000000E+00 -0.00000000000E+00 -0.50000000000E+03  0.50000000000E+03  0.00000000000E+00 0. -1.
        -11    1    1    2    0    0  0.14796208295E+02  0.76262818140E+01  0.49961960315E+03  0.49989682516E+03  0.00000000000E+00 0. -1.
         11    1    1    2    0    0 -0.67188389389E+01 -0.64507353479E+01 -0.11791125857E+03  0.11827856814E+03  0.00000000000E+00 0. -1.
        -15    1    1    2    0    0 -0.48835801080E+01 -0.21573307293E+01 -0.23698062459E+03  0.23704741634E+03  0.17770000000E+01 0. -1.
         15    1    1    2    0    0 -0.31937892484E+01  0.98178426321E+00 -0.14472771998E+03  0.14477719036E+03  0.17770000000E+01 0. -1.
</event>
<event>
 6    1  0.1823098E-004  0.5100376E+03  0.7546771E-02  0.9377626E-01
        -11   -1    0    0    0    0  0.00000000000E+00  0.00000000000E+00  0.50000000000E+03  0.50000000000E+03  0.00000000000E+00 0.  1.
         11   -1    0    0    0    0 -0.00000000000E+00 -0.00000000000E+00 -0.50000000000E+03  0.50000000000E+03  0.00000000000E+00 0.  1.
        -11    1    1    2    0    0 -0.88936426982E+01 -0.11378930349E+02  0.48974954000E+03  0.48996243618E+03  0.00000000000E+00 0.  1.
         11    1    1    2    0    0 -0.17177708173E+02 -0.17459868438E+02 -0.44984912958E+03  0.45051543819E+03  0.00000000000E+00 0.  1.
        -15    1    1    2    0    0  0.99732110879E+01  0.24653497458E+01 -0.20438243938E+01  0.10624398144E+02  0.17770000000E+01 0. -1.
         15    1    1    2    0    0  0.16098139784E+02  0.26373449041E+02 -0.37856586031E+02  0.48897727490E+02  0.17770000000E+01 0.  1.
</event>
<event>
 6    1  0.1823098E-004  0.5004349E+03  0.7546771E-02  0.9398837E-01
        -11   -1    0    0    0    0  0.00000000000E+00  0.00000000000E+00  0.50000000000E+03  0.50000000000E+03  0.00000000000E+00 0. -1.
         11   -1    0    0    0    0 -0.00000000000E+00 -0.00000000000E+00 -0.50000000000E+03  0.50000000000E+03  0.00000000000E+00 0.  1.
        -11    1    1    2    0    0 -0.21046648084E+01 -0.77169971380E+01  0.41079910281E+03  0.41087697007E+03  0.00000000000E+00 0. -1.
         11    1    1    2    0    0 -0.60315686929E+01  0.70810932907E+01 -0.49947853853E+03  0.49956514305E+03  0.00000000000E+00 0.  1.
        -15    1    1    2    0    0  0.87997130410E+01  0.26862963317E+01  0.75931515967E+02  0.76507542005E+02  0.17770000000E+01 0.  1.
         15    1    1    2    0    0 -0.66347953978E+00 -0.20503924845E+01  0.12747919750E+02  0.13050344876E+02  0.17770000000E+01 0.  1.
</event>
<event>
 6    1  0.1823098E-004  0.5004124E+03  0.7546771E-02  0.9398887E-01
        -11   -1    0    0    0    0  0.00000000000E+00  0.00000000000E+00  0.50000000000E+03  0.50000000000E+03  0.00000000000E+00 0.  1.
         11   -1    0    0    0    0 -0.00000000000E+00 -0.00000000000E+00 -0.50000000000E+03  0.50000000000E+03  0.00000000000E+00 0. -1.
        -11    1    1    2    0    0 -0.44786223530E+01 -0.55609557157E+01  0.49953657484E+03  0.49958760181E+03  0.00000000000E+00 0.  1.
         11    1    1    2    0    0  0.29701377123E+01 -0.64402679928E+01 -0.35573996916E+03  0.35581065811E+03  0.00000000000E+00 0. -1.
        -15    1    1    2    0    0  0.61150211920E+00  0.28864172524E+00 -0.60027207992E+01  0.62966367912E+01  0.17770000000E+01 0. -1.
         15    1    1    2    0    0  0.89698252148E+00  0.11712581983E+02 -0.13779388488E+03  0.13830510328E+03  0.17770000000E+01 0. -1.
</event>
<event>
 6    1  0.1823098E-004  0.5006204E+03  0.7546771E-02  0.9398423E-01
        -11   -1    0    0    0    0  0.00000000000E+00  0.00000000000E+00  0.50000000000E+03  0.50000000000E+03  0.00000000000E+00 0. -1.
         11   -1    0    0    0    0 -0.00000000000E+00 -0.00000000000E+00 -0.50000000000E+03  0.50000000000E+03  0.00000000000E+00 0. -1.
        -11    1    1    2    0    0  0.52782590852E+01  0.36881053683E+01  0.44654102007E+03  0.44658744356E+03  0.00000000000E+00 0. -1.
         11    1    1    2    0    0 -0.22165720920E+01 -0.75855615089E+01 -0.49931711201E+03  0.49937964745E+03  0.00000000000E+00 0. -1.
        -15    1    1    2    0    0  0.78690358985E+00  0.59605017845E+01  0.21224855992E+02  0.22131403924E+02  0.17770000000E+01 0. -1.
         15    1    1    2    0    0 -0.38485905830E+01 -0.20630456439E+01  0.31551235949E+02  0.31901505070E+02  0.17770000000E+01 0.  1.
</event>
<event>
 6    1  0.1823098E-004  0.5042014E+03  0.7546771E-02  0.9390458E-01
        -11   -1    0    0    0    0  0.00000000000E+00  0.00000000000E+00  0.50000000000E+03  0.50000000000E+03  0.00000000000E+00 0. -1.
         11   -1    0    0    0    0 -0.00000000000E+00 -0.00000000000E+00 -0.50000000000E+03  0.50000000000E+03  0.00000000000E+00 0.  1.
        -11    1    1    2    0    0  0.10846952731E+01 -0.26077180509E+02  0.49511117665E+03  0.49579862157E+03  0.00000000000E+00 0. -1.
         11    1    1    2    0    0  0.26026880195E+02  0.10463878360E+02 -0.18780866814E+03  0.18989204057E+03  0.00000000000E+00 0.  1.
        -15    1    1    2    0    0 -0.67271797916E+01 -0.84916042642E+01 -0.23665030024E+03  0.23690480076E+03  0.17770000000E+01 0.  1.
         15    1    1    2    0    0 -0.20384395677E+02  0.24104906413E+02 -0.70652208270E+02  0.77404537094E+02  0.17770000000E+01 0. -1.
</event>
<event>
 6    1  0.1823098E-004  0.5005928E+03  0.7546771E-02  0.9398484E-01
        -11   -1    0    0    0    0  0.00000000000E+00  0.00000000000E+00  0.50000000000E+03  0.50000000000E+03  0.00000000000E+00 0. -1.
         11   -1    0    0    0    0 -0.00000000000E+00 -0.00000000000E+00 -0.50000000000E+03  0.50000000000E+03  0.00000000000E+00 0. -1.
        -11    1    1    2    0    0 -0.31977596619E+01 -0.21484742520E+01  0.18843176475E+03  0.18847114256E+03  0.00000000000E+00 0. -1.
         11    1    1    2    0    0  0.20716883982E+02  0.20497202652E+02 -0.49855610740E+03  0.49940716537E+03  0.00000000000E+00 0. -1.
        -15    1    1    2    0    0 -0.18535428199E+02 -0.23068143919E+02  0.27955895366E+03  0.28112642647E+03  0.17770000000E+01 0. -1.
         15    1    1    2    0    0  0.10163038796E+01  0.47194155194E+01  0.30565388990E+02  0.30995265599E+02  0.17770000000E+01 0.  1.
</event>
<event>
 6    1  0.1823098E-004  0.5074501E+03  0.7546771E-02  0.9383292E-01
        -11   -1    0    0    0    0  0.00000000000E+00  0.00000000000E+00  0.50000000000E+03  0.50000000000E+03  0.00000000000E+00 0.  1.
         11   -1    0    0    0    0 -0.00000000000E+00 -0.00000000000E+00 -0.50000000000E+03  0.50000000000E+03  0.00000000000E+00 0. -1.
        -11    1    1    2    0    0 -0.58514443099E+01 -0.16890080234E+02  0.49222540683E+03  0.49254986077E+03  0.00000000000E+00 0.  1.
         11    1    1    2    0    0  0.35524945433E+02 -0.17081762660E+01 -0.43962409064E+03  0.44106040480E+03  0.00000000000E+00 0. -1.
        -15    1    1    2    0    0 -0.16714659455E+02 -0.84945030314E+00 -0.25581181148E+02  0.30621168568E+02  0.17770000000E+01 0. -1.
         15    1    1    2    0    0 -0.12958841668E+02  0.19447706803E+02 -0.27020135046E+02  0.35768565867E+02  0.17770000000E+01 0.  1.
</event>
<event>
 6    1  0.1823098E-004  0.5030641E+03  0.7546771E-02  0.9392980E-01
        -11   -1    0    0    0    0  0.00000000000E+00  0.00000000000E+00  0.50000000000E+03  0.50000000000E+03  0.00000000000E+00 0.  1.
         11   -1    0    0    0    0 -0.00000000000E+00 -0.00000000000E+00 -0.50000000000E+03  0.50000000000E+03  0.00000000000E+00 0. -1.
        -11    1    1    2    0    0  0.38762304620E+01 -0.60068854082E+01  0.49046098197E+03  0.49051308104E+03  0.00000000000E+00 0.  1.
         11    1    1    2    0    0 -0.12801014851E+02  0.17555592276E+01 -0.49676789106E+03  0.49693589683E+03  0.00000000000E+00 0. -1.
        -15    1    1    2    0    0  0.40566402519E+01  0.28478611954E+01  0.43723726525E+01  0.68441226709E+01  0.17770000000E+01 0.  1.
         15    1    1    2    0    0  0.48681441374E+01  0.14034649852E+01  0.19345364346E+01  0.57068994667E+01  0.17770000000E+01 0. -1.
</event>
<event>
 6    1  0.1823098E-004  0.5001470E+03  0.7546771E-02  0.9399481E-01
        -11   -1    0    0    0    0  0.00000000000E+00  0.00000000000E+00  0.50000000000E+03  0.50000000000E+03  0.00000000000E+00 0.  1.
         11   -1    0    0    0    0 -0.00000000000E+00 -0.00000000000E+00 -0.50000000000E+03  0.50000000000E+03  0.00000000000E+00 0. -1.
        -11    1    1    2    0    0 -0.91534517884E+01 -0.88788398751E+01  0.49969027846E+03  0.49985297225E+03  0.00000000000E+00 0.  1.
         11    1    1    2    0    0 -0.35181406636E+01  0.91720534775E+00 -0.80019359569E+02  0.80101913118E+02  0.00000000000E+00 0. -1.
        -15    1    1    2    0    0  0.55378836742E+01 -0.10220903177E+01 -0.11242142982E+03  0.11257641155E+03  0.17770000000E+01 0.  1.
         15    1    1    2    0    0  0.71337087778E+01  0.89837248451E+01 -0.30724948907E+03  0.30746870308E+03  0.17770000000E+01 0. -1.
</event>
<event>
 6    1  0.1823098E-004  0.5009294E+03  0.7546771E-02  0.9397732E-01
        -11   -1    0    0    0    0  0.00000000000E+00  0.00000000000E+00  0.50000000000E+03  0.50000000000E+03  0.00000000000E+00 0. -1.
         11   -1    0    0    0    0 -0.00000000000E+00 -0.00000000000E+00 -0.50000000000E+03  0.50000000000E+03  0.00000000000E+00 0. -1.
        -11    1    1    2    0    0 -0.31072745404E+01 -0.32692149402E+01  0.29860547390E+03  0.29863953517E+03  0.00000000000E+00 0. -1.
         11    1    1    2    0    0  0.96782517484E+01  0.26414926302E+01 -0.49896973001E+03  0.49907057367E+03  0.00000000000E+00 0. -1.
        -15    1    1    2    0    0  0.96717870929E+01  0.42303337917E+01  0.61968256820E+02  0.62886101580E+02  0.17770000000E+01 0.  1.
         15    1    1    2    0    0 -0.16242764301E+02 -0.36026114817E+01  0.13839599929E+03  0.13940378958E+03  0.17770000000E+01 0. -1.
</event>
<event>
 6    1  0.1823098E-004  0.5012649E+03  0.7546771E-02  0.9396984E-01
        -11   -1    0    0    0    0  0.00000000000E+00  0.00000000000E+00  0.50000000000E+03  0.50000000000E+03  0.00000000000E+00 0.  1.
         11   -1    0    0    0    0 -0.00000000000E+00 -0.00000000000E+00 -0.50000000000E+03  0.50000000000E+03  0.00000000000E+00 0.  1.
        -11    1    1    2    0    0  0.57618826850E+01 -0.56761079856E+01  0.49866947839E+03  0.49873506611E+03  0.00000000000E+00 0.  1.
         11    1    1    2    0    0 -0.58939453353E+01  0.10692507327E+02 -0.44598918870E+03  0.44615627839E+03  0.00000000000E+00 0.  1.
        -15    1    1    2    0    0 -0.58526021031E+01  0.19466641482E+01 -0.15637487769E+02  0.16903585578E+02  0.17770000000E+01 0. -1.
         15    1    1    2    0    0  0.59846647533E+01 -0.69630634899E+01 -0.37042801913E+02  0.38205069925E+02  0.17770000000E+01 0.  1.
</event>
<event>
 6    1  0.1823098E-004  0.4820603E+03  0.7546771E-02  0.9440871E-01
        -11   -1    0    0    0    0  0.00000000000E+00  0.00000000000E+00  0.50000000000E+03  0.50000000000E+03  0.00000000000E+00 0.  1.
         11   -1    0    0    0    0 -0.00000000000E+00 -0.00000000000E+00 -0.50000000000E+03  0.50000000000E+03  0.00000000000E+00 0. -1.
        -11    1    1    2    0    0  0.91691025333E+01 -0.27362076287E+01  0.48754576707E+03  0.48763965616E+03  0.00000000000E+00 0.  1.
         11    1    1    2    0    0  0.16800651048E+02 -0.97449142365E+01 -0.47657818870E+03  0.47697378877E+03  0.00000000000E+00 0. -1.
        -15    1    1    2    0    0 -0.28110241399E+02  0.99555944414E+01 -0.10044895321E+02  0.31517569437E+02  0.17770000000E+01 0.  1.
         15    1    1    2    0    0  0.21404878174E+01  0.25255274237E+01 -0.92268304563E+00  0.38689856380E+01  0.17770000000E+01 0. -1.
</event>
<event>
 6    1  0.1823098E-004  0.5112947E+03  0.7546771E-02  0.9374886E-01
        -11   -1    0    0    0    0  0.00000000000E+00  0.00000000000E+00  0.50000000000E+03  0.50000000000E+03  0.00000000000E+00 0. -1.
         11   -1    0    0    0    0 -0.00000000000E+00 -0.00000000000E+00 -0.50000000000E+03  0.50000000000E+03  0.00000000000E+00 0.  1.
        -11    1    1    2    0    0  0.21377310859E+02  0.13065672434E+02  0.48806264106E+03  0.48870527193E+03  0.00000000000E+00 0. -1.
         11    1    1    2    0    0 -0.10940105770E+02  0.14407980983E+02 -0.46356749550E+03  0.46392035816E+03  0.00000000000E+00 0.  1.
        -15    1    1    2    0    0  0.75658437898E+01 -0.91996910445E+00 -0.82471632276E+01  0.11369334444E+02  0.17770000000E+01 0. -1.
         15    1    1    2    0    0 -0.18003048878E+02 -0.26553684313E+02 -0.16247982331E+02  0.36005035458E+02  0.17770000000E+01 0.  1.
</event>
<event>
 6    1  0.1823098E-004  0.5007041E+03  0.7546771E-02  0.9398236E-01
        -11   -1    0    0    0    0  0.00000000000E+00  0.00000000000E+00  0.50000000000E+03  0.50000000000E+03  0.00000000000E+00 0. -1.
         11   -1    0    0    0    0 -0.00000000000E+00 -0.00000000000E+00 -0.50000000000E+03  0.50000000000E+03  0.00000000000E+00 0. -1.
        -11    1    1    2    0    0 -0.26868545047E+00 -0.16590221684E+01  0.10321609694E+03  0.10322977871E+03  0.00000000000E+00 0. -1.
         11    1    1    2    0    0  0.50576576086E+01  0.42427157289E+02 -0.49746433844E+03  0.49929591586E+03  0.00000000000E+00 0. -1.
        -15    1    1    2    0    0  0.40347013569E+01 -0.37801262402E+02  0.24630872486E+03  0.24923153879E+03  0.17770000000E+01 0. -1.
         15    1    1    2    0    0 -0.88236735151E+01 -0.29668727181E+01  0.14793951664E+03  0.14824276664E+03  0.17770000000E+01 0.  1.
</event>
<event>
 6    1  0.1823098E-004  0.5005413E+03  0.7546771E-02  0.9398599E-01
        -11   -1    0    0    0    0  0.00000000000E+00  0.00000000000E+00  0.50000000000E+03  0.50000000000E+03  0.00000000000E+00 0.  1.
         11   -1    0    0    0    0 -0.00000000000E+00 -0.00000000000E+00 -0.50000000000E+03  0.50000000000E+03  0.00000000000E+00 0. -1.
        -11    1    1    2    0    0 -0.21016632059E+01 -0.61799791775E+01  0.39473402258E+03  0.39478799084E+03  0.00000000000E+00 0.  1.
         11    1    1    2    0    0 -0.37578754119E+01 -0.65734653977E+01 -0.49940126332E+03  0.49945866083E+03  0.00000000000E+00 0. -1.
        -15    1    1    2    0    0  0.59213248985E+01  0.10770550102E+02  0.88790270493E+02  0.89654540884E+02  0.17770000000E+01 0. -1.
         15    1    1    2    0    0 -0.61786280655E-01  0.19828944732E+01  0.15876970246E+02  0.16098807447E+02  0.17770000000E+01 0.  1.
</event>
<event>
 6    1  0.1823098E-004  0.4484048E+03  0.7546771E-02  0.9523289E-01
        -11   -1    0    0    0    0  0.00000000000E+00  0.00000000000E+00  0.50000000000E+03  0.50000000000E+03  0.00000000000E+00 0.  1.
         11   -1    0    0    0    0 -0.00000000000E+00 -0.00000000000E+00 -0.50000000000E+03  0.50000000000E+03  0.00000000000E+00 0. -1.
        -11    1    1    2    0    0 -0.80965140366E+02  0.77451539952E+02  0.46114573551E+03  0.47456241357E+03  0.00000000000E+00 0.  1.
         11    1    1    2    0    0  0.69398571424E+02 -0.60096429217E+02 -0.34624154213E+02  0.98115108802E+02  0.00000000000E+00 0. -1.
        -15    1    1    2    0    0  0.16621592715E+01 -0.11752205393E+02 -0.12341594125E+03  0.12399810236E+03  0.17770000000E+01 0.  1.
         15    1    1    2    0    0  0.99044096706E+01 -0.56029053421E+01 -0.30310564004E+03  0.30332437527E+03  0.17770000000E+01 0. -1.
</event>
<event>
 6    1  0.1823098E-004  0.5025074E+03  0.7546771E-02  0.9394217E-01
        -11   -1    0    0    0    0  0.00000000000E+00  0.00000000000E+00  0.50000000000E+03  0.50000000000E+03  0.00000000000E+00 0. -1.
         11   -1    0    0    0    0 -0.00000000000E+00 -0.00000000000E+00 -0.50000000000E+03  0.50000000000E+03  0.00000000000E+00 0. -1.
        -11    1    1    2    0    0 -0.13159211655E+01 -0.14392117434E+02  0.41374715737E+03  0.41399948662E+03  0.00000000000E+00 0. -1.
         11    1    1    2    0    0 -0.14108536522E+02  0.10199338410E+02 -0.49718792643E+03  0.49749262456E+03  0.00000000000E+00 0. -1.
        -15    1    1    2    0    0 -0.67234392729E+00  0.10704176923E+02  0.44924018652E+02  0.46220738103E+02  0.17770000000E+01 0.  1.
         15    1    1    2    0    0  0.16096801615E+02 -0.65113978985E+01  0.38516750409E+02  0.42287150719E+02  0.17770000000E+01 0. -1.
</event>
<event>
 6    1  0.1823098E-004  0.5003016E+03  0.7546771E-02  0.9399135E-01
        -11   -1    0    0    0    0  0.00000000000E+00  0.00000000000E+00  0.50000000000E+03  0.50000000000E+03  0.00000000000E+00 0.  1.
         11   -1    0    0    0    0 -0.00000000000E+00 -0.00000000000E+00 -0.50000000000E+03  0.50000000000E+03  0.00000000000E+00 0.  1.
        -11    1    1    2    0    0 -0.20541124639E+00 -0.46704883926E+01  0.35878269153E+02  0.36181567863E+02  0.00000000000E+00 0.  1.
         11    1    1    2    0    0  0.20359019246E+02  0.28031975748E+02 -0.49849596414E+03  0.49969841664E+03  0.00000000000E+00 0.  1.
        -15    1    1    2    0    0 -0.10806034766E+02 -0.11618759288E+02  0.36408489033E+03  0.36443481043E+03  0.17770000000E+01 0.  1.
         15    1    1    2    0    0 -0.93475732330E+01 -0.11742728068E+02  0.98532804656E+02  0.99685205072E+02  0.17770000000E+01 0. -1.
</event>
<event>
 6    1  0.1823098E-004  0.5034595E+03  0.7546771E-02  0.9392102E-01
        -11   -1    0    0    0    0  0.00000000000E+00  0.00000000000E+00  0.50000000000E+03  0.50000000000E+03  0.00000000000E+00 0. -1.
         11   -1    0    0    0    0 -0.00000000000E+00 -0.00000000000E+00 -0.50000000000E+03  0.50000000000E+03  0.00000000000E+00 0.  1.
        -11    1    1    2    0    0  0.47847629028E+01  0.20028468179E+02  0.49611331512E+03  0.49654048670E+03  0.00000000000E+00 0. -1.
         11    1    1    2    0    0 -0.36516303333E+02 -0.79660342064E+01 -0.12632527291E+03  0.13173827343E+03  0.00000000000E+00 0.  1.
        -15    1    1    2    0    0  0.12416082031E+02  0.21726498018E+01 -0.89226317372E+02  0.90129756135E+02  0.17770000000E+01 0. -1.
         15    1    1    2    0    0  0.19315458399E+02 -0.14235083774E+02 -0.28056172483E+03  0.28159148374E+03  0.17770000000E+01 0.  1.
</event>
<event>
 6    1  0.1823098E-004  0.5002111E+03  0.7546771E-02  0.9399338E-01
        -11   -1    0    0    0    0  0.00000000000E+00  0.00000000000E+00  0.50000000000E+03  0.50000000000E+03  0.00000000000E+00 0.  1.
         11   -1    0    0    0    0 -0.00000000000E+00 -0.00000000000E+00 -0.50000000000E+03  0.50000000000E+03  0.00000000000E+00 0. -1.
        -11    1    1    2    0    0 -0.34742087123E+01 -0.16621611688E+02  0.43794246965E+03  0.43827155375E+03  0.00000000000E+00 0.  1.
         11    1    1    2    0    0  0.35767890718E+01  0.12898310761E+02 -0.49960967846E+03  0.49978894611E+03  0.00000000000E+00 0. -1.
        -15    1    1    2    0    0  0.10311420157E+01  0.86891147226E+00  0.26508708645E+02  0.26602398839E+02  0.17770000000E+01 0. -1.
         15    1    1    2    0    0 -0.11337223752E+01  0.28543894545E+01  0.35158500169E+02  0.35337101306E+02  0.17770000000E+01 0.  1.
</event>
<event>
 6    1  0.2302754E-004  0.5005098E+03  0.7546771E-02  0.9398670E-01
        -11   -1    0    0    0    0  0.00000000000E+00  0.00000000000E+00  0.50000000000E+03  0.50000000000E+03  0.00000000000E+00 0. -1.
         11   -1    0    0    0    0 -0.00000000000E+00 -0.00000000000E+00 -0.50000000000E+03  0.50000000000E+03  0.00000000000E+00 0.  1.
        -11    1    1    2    0    0  0.58911286302E+01  0.23203085848E+01  0.35934053140E+03  0.35939630874E+03  0.00000000000E+00 0. -1.
         11    1    1    2    0    0  0.81346281885E+01 -0.70349983696E+00 -0.49942345086E+03  0.49949019045E+03  0.00000000000E+00 0.  1.
        -15    1    1    2    0    0 -0.29814135485E+01  0.67427006233E+00  0.71431292754E+02  0.71518744259E+02  0.17770000000E+01 0. -1.
         15    1    1    2    0    0 -0.11044343270E+02 -0.22910788101E+01  0.68651626704E+02  0.69594756545E+02  0.17770000000E+01 0.  1.
</event>
<event>
 6    1  0.1823098E-004  0.5009327E+03  0.7546771E-02  0.9397725E-01
        -11   -1    0    0    0    0  0.00000000000E+00  0.00000000000E+00  0.50000000000E+03  0.50000000000E+03  0.00000000000E+00 0.  1.
         11   -1    0    0    0    0 -0.00000000000E+00 -0.00000000000E+00 -0.50000000000E+03  0.50000000000E+03  0.00000000000E+00 0.  1.
        -11    1    1    2    0    0 -0.10860231281E+02 -0.40161774653E+01  0.27238096087E+02  0.29597097550E+02  0.00000000000E+00 0.  1.
         11    1    1    2    0    0  0.38235922556E+02 -0.74171061920E+01 -0.49754516126E+03  0.49906731684E+03  0.00000000000E+00 0.  1.
        -15    1    1    2    0    0 -0.60513517871E+01  0.14734622140E+01  0.59599509538E+02  0.59950389619E+02  0.17770000000E+01 0.  1.
         15    1    1    2    0    0 -0.21324339488E+02  0.99598214433E+01  0.41070755564E+03  0.41138519600E+03  0.17770000000E+01 0.  1.
</event>
<event>
 6    1  0.1823098E-004  0.5003296E+03  0.7546771E-02  0.9399073E-01
        -11   -1    0    0    0    0  0.00000000000E+00  0.00000000000E+00  0.50000000000E+03  0.50000000000E+03  0.00000000000E+00 0.  1.
         11   -1    0    0    0    0 -0.00000000000E+00 -0.00000000000E+00 -0.50000000000E+03  0.50000000000E+03  0.00000000000E+00 0.  1.
        -11    1    1    2    0    0  0.45091427091E+01  0.13716851917E+02  0.49946176113E+03  0.49967042661E+03  0.00000000000E+00 0.  1.
         11    1    1    2    0    0 -0.71577848628E+01 -0.12058647944E+02 -0.12617839277E+03  0.12695523493E+03  0.00000000000E+00 0.  1.
        -15    1    1    2    0    0  0.46890552908E+01 -0.21605832121E+01 -0.26264630638E+03  0.26270305546E+03  0.17770000000E+01 0. -1.
         15    1    1    2    0    0 -0.20404131372E+01  0.50237923927E+00 -0.11063706198E+03  0.11067128301E+03  0.17770000000E+01 0.  1.
</event>
<event>
 6    1  0.1823098E-004  0.5002324E+03  0.7546771E-02  0.9399290E-01
        -11   -1    0    0    0    0  0.00000000000E+00  0.00000000000E+00  0.50000000000E+03  0.50000000000E+03  0.00000000000E+00 0. -1.
         11   -1    0    0    0    0 -0.00000000000E+00 -0.00000000000E+00 -0.50000000000E+03  0.50000000000E+03  0.00000000000E+00 0. -1.
        -11    1    1    2    0    0  0.91504498326E+01  0.88689610303E+01  0.49960512969E+03  0.49976762082E+03  0.00000000000E+00 0. -1.
         11    1    1    2    0    0  0.83427824974E+00 -0.69130626961E+01 -0.97332624806E+02  0.97581382997E+02  0.00000000000E+00 0. -1.
        -15    1    1    2    0    0  0.26624301430E+01  0.22916178997E+01 -0.10557463811E+03  0.10564800987E+03  0.17770000000E+01 0.  1.
         15    1    1    2    0    0 -0.12647158225E+02 -0.42475162338E+01 -0.29669786677E+03  0.29700298632E+03  0.17770000000E+01 0. -1.
</event>
<event>
 6    1  0.1823098E-004  0.5006203E+03  0.7546771E-02  0.9398423E-01
        -11   -1    0    0    0    0  0.00000000000E+00  0.00000000000E+00  0.50000000000E+03  0.50000000000E+03  0.00000000000E+00 0. -1.
         11   -1    0    0    0    0 -0.00000000000E+00 -0.00000000000E+00 -0.50000000000E+03  0.50000000000E+03  0.00000000000E+00 0.  1.
        -11    1    1    2    0    0 -0.68068117441E+01 -0.95977090052E+00  0.49933237060E+03  0.49937968538E+03  0.00000000000E+00 0. -1.
         11    1    1    2    0    0 -0.41450736278E+01  0.51230055452E+01 -0.43393035120E+03  0.43398038725E+03  0.00000000000E+00 0.  1.
        -15    1    1    2    0    0  0.62973379401E+01 -0.25569454186E+01 -0.46450368072E+02  0.46978600001E+02  0.17770000000E+01 0. -1.
         15    1    1    2    0    0  0.46545474318E+01 -0.16062892261E+01 -0.18951651323E+02  0.19661327365E+02  0.17770000000E+01 0.  1.
</event>
<event>
 6    1  0.1823098E-004  0.5011334E+03  0.7546771E-02  0.9397277E-01
        -11   -1    0    0    0    0  0.00000000000E+00  0.00000000000E+00  0.50000000000E+03  0.50000000000E+03  0.00000000000E+00 0. -1.
         11   -1    0    0    0    0 -0.00000000000E+00 -0.00000000000E+00 -0.50000000000E+03  0.50000000000E+03  0.00000000000E+00 0.  1.
        -11    1    1    2    0    0 -0.24746645871E+00  0.63805450330E+01  0.28674574457E+03  0.28681683114E+03  0.00000000000E+00 0. -1.
         11    1    1    2    0    0  0.59000971539E+01  0.17689487947E+02 -0.49851800446E+03  0.49886664541E+03  0.00000000000E+00 0.  1.
        -15    1    1    2    0    0  0.71804323943E+01 -0.29670309336E+01  0.62163438955E+02  0.62672264628E+02  0.17770000000E+01 0.  1.
         15    1    1    2    0    0 -0.12833063090E+02 -0.21103002047E+02  0.14960882094E+03  0.15164425883E+03  0.17770000000E+01 0. -1.
</event>
<event>
 6    1  0.1823098E-004  0.5009157E+03  0.7546771E-02  0.9397763E-01
        -11   -1    0    0    0    0  0.00000000000E+00  0.00000000000E+00  0.50000000000E+03  0.50000000000E+03  0.00000000000E+00 0.  1.
         11   -1    0    0    0    0 -0.00000000000E+00 -0.00000000000E+00 -0.50000000000E+03  0.50000000000E+03  0.00000000000E+00 0. -1.
        -11    1    1    2    0    0 -0.13381513077E+02  0.52539119790E+01  0.35153068447E+03  0.35182451678E+03  0.00000000000E+00 0.  1.
         11    1    1    2    0    0  0.10283373262E+02  0.16447994207E+02 -0.49870719755E+03  0.49908431469E+03  0.00000000000E+00 0. -1.
        -15    1    1    2    0    0  0.39273569622E+01 -0.13374748589E+02  0.11253419217E+03  0.11340815741E+03  0.17770000000E+01 0.  1.
         15    1    1    2    0    0 -0.82921714768E+00 -0.83271575972E+01  0.34642320919E+02  0.35683011117E+02  0.17770000000E+01 0. -1.
</event>
<event>
 6    1  0.1823098E-004  0.5051238E+03  0.7546771E-02  0.9388417E-01
        -11   -1    0    0    0    0  0.00000000000E+00  0.00000000000E+00  0.50000000000E+03  0.50000000000E+03  0.00000000000E+00 0. -1.
         11   -1    0    0    0    0 -0.00000000000E+00 -0.00000000000E+00 -0.50000000000E+03  0.50000000000E+03  0.00000000000E+00 0. -1.
        -11    1    1    2    0    0  0.95813739821E+01 -0.25890364317E+01  0.48355096289E+03  0.48365280889E+03  0.00000000000E+00 0. -1.
         11    1    1    2    0    0 -0.17282038274E+02 -0.31658985161E+00 -0.49457424957E+03  0.49487620413E+03  0.00000000000E+00 0. -1.
        -15    1    1    2    0    0  0.12627673888E+02  0.32017803131E+01  0.73060021293E+01  0.15041440792E+02  0.17770000000E+01 0.  1.
         15    1    1    2    0    0 -0.49270095959E+01 -0.29615402982E+00  0.37172845518E+01  0.64295461897E+01  0.17770000000E+01 0. -1.
</event>
<event>
 6    1  0.1823098E-004  0.5003551E+03  0.7546771E-02  0.9399016E-01
        -11   -1    0    0    0    0  0.00000000000E+00  0.00000000000E+00  0.50000000000E+03  0.50000000000E+03  0.00000000000E+00 0. -1.
         11   -1    0    0    0    0 -0.00000000000E+00 -0.00000000000E+00 -0.50000000000E+03  0.50000000000E+03  0.00000000000E+00 0. -1.
        -11    1    1    2    0    0 -0.27165663172E+01  0.67435618661E+01  0.38611163631E+03  0.38618007594E+03  0.00000000000E+00 0. -1.
         11    1    1    2    0    0  0.97867436681E+01 -0.11348589363E+01 -0.49954778032E+03  0.49964492700E+03  0.00000000000E+00 0. -1.
        -15    1    1    2    0    0 -0.48340617561E+01  0.80279019552E+00  0.68048056322E+02  0.68247405250E+02  0.17770000000E+01 0. -1.
         15    1    1    2    0    0 -0.22361155948E+01 -0.64114931254E+01  0.45388087684E+02  0.45927591812E+02  0.17770000000E+01 0.  1.
</event>
<event>
 6    1  0.1823098E-004  0.5001137E+03  0.7546771E-02  0.9399555E-01
        -11   -1    0    0    0    0  0.00000000000E+00  0.00000000000E+00  0.50000000000E+03  0.50000000000E+03  0.00000000000E+00 0.  1.
         11   -1    0    0    0    0 -0.00000000000E+00 -0.00000000000E+00 -0.50000000000E+03  0.50000000000E+03  0.00000000000E+00 0. -1.
        -11    1    1    2    0    0  0.10901170912E+02  0.12537776732E+01  0.49976588670E+03  0.49988633608E+03  0.00000000000E+00 0.  1.
         11    1    1    2    0    0 -0.67182879875E+01 -0.40689857198E+01 -0.26033000336E+03  0.26044846455E+03  0.00000000000E+00 0. -1.
        -15    1    1    2    0    0  0.13852909776E+01  0.11508262532E+01 -0.22097523740E+02  0.22241891031E+02  0.17770000000E+01 0. -1.
         15    1    1    2    0    0 -0.55681739019E+01  0.16643817934E+01 -0.21733835960E+03  0.21742330834E+03  0.17770000000E+01 0. -1.
</event>
<event>
 6    1  0.1823098E-004  0.5051395E+03  0.7546771E-02  0.9388383E-01
        -11   -1    0    0    0    0  0.00000000000E+00  0.00000000000E+00  0.50000000000E+03  0.50000000000E+03  0.00000000000E+00 0. -1.
         11   -1    0    0    0    0 -0.00000000000E+00 -0.00000000000E+00 -0.50000000000E+03  0.50000000000E+03  0.00000000000E+00 0.  1.
        -11    1    1    2    0    0  0.34900505508E+01 -0.39480620878E+00  0.23418035453E+03  0.23420669242E+03  0.00000000000E+00 0. -1.
         11    1    1    2    0    0 -0.16024478066E+02  0.43553494841E+02 -0.49267966227E+03  0.49486052623E+03  0.00000000000E+00 0.  1.
        -15    1    1    2    0    0  0.10351832946E+01 -0.35208213039E+01  0.19583247282E+03  0.19587491653E+03  0.17770000000E+01 0. -1.
         15    1    1    2    0    0  0.11499244221E+02 -0.39637867328E+02  0.62666834914E+02  0.75057864818E+02  0.17770000000E+01 0.  1.
</event>
<event>
 6    1  0.1823098E-004  0.5000872E+03  0.7546771E-02  0.9399615E-01
        -11   -1    0    0    0    0  0.00000000000E+00  0.00000000000E+00  0.50000000000E+03  0.50000000000E+03  0.00000000000E+00 0. -1.
         11   -1    0    0    0    0 -0.00000000000E+00 -0.00000000000E+00 -0.50000000000E+03  0.50000000000E+03  0.00000000000E+00 0. -1.
        -11    1    1    2    0    0  0.33781105769E+01  0.16065413732E+01  0.24228806806E+03  0.24231694231E+03  0.00000000000E+00 0. -1.
         11    1    1    2    0    0 -0.12323174549E+01  0.67291330047E+01 -0.49986602340E+03  0.49991283359E+03  0.00000000000E+00 0. -1.
        -15    1    1    2    0    0 -0.11004450503E+01 -0.66847561185E+01  0.15483941808E+03  0.15499774212E+03  0.17770000000E+01 0.  1.
         15    1    1    2    0    0 -0.10453480717E+01 -0.16509182594E+01  0.10273853727E+03  0.10277248198E+03  0.17770000000E+01 0. -1.
</event>
<event>
 6    1  0.1823098E-004  0.4423057E+03  0.7546771E-02  0.9539050E-01
        -11   -1    0    0    0    0  0.00000000000E+00  0.00000000000E+00  0.50000000000E+03  0.50000000000E+03  0.00000000000E+00 0. -1.
         11   -1    0    0    0    0 -0.00000000000E+00 -0.00000000000E+00 -0.50000000000E+03  0.50000000000E+03  0.00000000000E+00 0.  1.
        -11    1    1    2    0    0  0.73715559386E+01  0.38544141658E+00  0.43727890240E+03  0.43734120191E+03  0.00000000000E+00 0. -1.
         11    1    1    2    0    0  0.52806039730E+02  0.86398078699E+02 -0.44211749690E+03  0.45356475492E+03  0.00000000000E+00 0.  1.
        -15    1    1    2    0    0 -0.22201550206E+02 -0.45075302587E+02  0.13352125790E+02  0.52020464502E+02  0.17770000000E+01 0. -1.
         15    1    1    2    0    0 -0.37976045462E+02 -0.41708217528E+02 -0.85135312868E+01  0.57073578671E+02  0.17770000000E+01 0.  1.
</event>
<event>
 6    1  0.1823098E-004  0.5040527E+03  0.7546771E-02  0.9390787E-01
        -11   -1    0    0    0    0  0.00000000000E+00  0.00000000000E+00  0.50000000000E+03  0.50000000000E+03  0.00000000000E+00 0.  1.
         11   -1    0    0    0    0 -0.00000000000E+00 -0.00000000000E+00 -0.50000000000E+03  0.50000000000E+03  0.00000000000E+00 0. -1.
        -11    1    1    2    0    0  0.53199582431E+00 -0.10582163416E+02  0.49583408702E+03  0.49594728253E+03  0.00000000000E+00 0.  1.
         11    1    1    2    0    0 -0.20027660795E+02  0.17911691857E+02 -0.26872354031E+03  0.27006346850E+03  0.00000000000E+00 0. -1.
        -15    1    1    2    0    0  0.22060673430E+02  0.15435695690E+02 -0.17457991670E+03  0.17665287730E+03  0.17770000000E+01 0.  1.
         15    1    1    2    0    0 -0.25650084589E+01 -0.22765224131E+02 -0.52530630011E+02  0.57336371671E+02  0.17770000000E+01 0. -1.
</event>
<event>
 6    1  0.1823098E-004  0.5009140E+03  0.7546771E-02  0.9397767E-01
        -11   -1    0    0    0    0  0.00000000000E+00  0.00000000000E+00  0.50000000000E+03  0.50000000000E+03  0.00000000000E+00 0.  1.
         11   -1    0    0    0    0 -0.00000000000E+00 -0.00000000000E+00 -0.50000000000E+03  0.50000000000E+03  0.00000000000E+00 0. -1.
        -11    1    1    2    0    0 -0.66823741365E+01  0.22211053791E+01  0.49903635097E+03  0.49908603169E+03  0.00000000000E+00 0.  1.
         11    1    1    2    0    0  0.66964634768E+01  0.11185302562E+02 -0.40865482287E+03  0.40886271274E+03  0.00000000000E+00 0. -1.
        -15    1    1    2    0    0  0.10583257742E+01 -0.11316829964E+02 -0.86035814033E+02  0.86801553668E+02  0.17770000000E+01 0. -1.
         15    1    1    2    0    0 -0.10724151145E+01 -0.20895779767E+01 -0.43457140679E+01  0.52497019019E+01  0.17770000000E+01 0. -1.
</event>
<event>
 6    1  0.1823098E-004  0.5020890E+03  0.7546771E-02  0.9395148E-01
        -11   -1    0    0    0    0  0.00000000000E+00  0.00000000000E+00  0.50000000000E+03  0.50000000000E+03  0.00000000000E+00 0. -1.
         11   -1    0    0    0    0 -0.00000000000E+00 -0.00000000000E+00 -0.50000000000E+03  0.50000000000E+03  0.00000000000E+00 0.  1.
        -11    1    1    2    0    0  0.22143017217E+01  0.65530772462E+01  0.49786297766E+03  0.49791102667E+03  0.00000000000E+00 0. -1.
         11    1    1    2    0    0 -0.89466939989E+01 -0.33221284046E+01 -0.48685956338E+03  0.48695309253E+03  0.00000000000E+00 0.  1.
        -15    1    1    2    0    0  0.42806339282E+01  0.35885503563E+00 -0.21669214549E+01  0.51289259456E+01  0.17770000000E+01 0. -1.
         15    1    1    2    0    0  0.24517583490E+01 -0.35898038772E+01 -0.88364928312E+01  0.10006954853E+02  0.17770000000E+01 0.  1.
</event>
<event>
 6    1  0.1823098E-004  0.5044688E+03  0.7546771E-02  0.9389866E-01
        -11   -1    0    0    0    0  0.00000000000E+00  0.00000000000E+00  0.50000000000E+03  0.50000000000E+03  0.00000000000E+00 0.  1.
         11   -1    0    0    0    0 -0.00000000000E+00 -0.00000000000E+00 -0.50000000000E+03  0.50000000000E+03  0.00000000000E+00 0. -1.
        -11    1    1    2    0    0  0.16145685612E+01  0.74414723409E+01  0.49547269237E+03  0.49553120106E+03  0.00000000000E+00 0.  1.
         11    1    1    2    0    0 -0.10210050345E+02 -0.26841819585E+02 -0.45515636426E+03  0.45606144798E+03  0.00000000000E+00 0. -1.
        -15    1    1    2    0    0  0.20204249643E+01  0.85355026386E+01 -0.38325592468E+01  0.97356644206E+01  0.17770000000E+01 0.  1.
         15    1    1    2    0    0  0.65750568194E+01  0.10864844605E+02 -0.36483768861E+02  0.38671686539E+02  0.17770000000E+01 0. -1.
</event>
<event>
 6    1  0.1823098E-004  0.5019311E+03  0.7546771E-02  0.9395499E-01
        -11   -1    0    0    0    0  0.00000000000E+00  0.00000000000E+00  0.50000000000E+03  0.50000000000E+03  0.00000000000E+00 0.  1.
         11   -1    0    0    0    0 -0.00000000000E+00 -0.00000000000E+00 -0.50000000000E+03  0.50000000000E+03  0.00000000000E+00 0. -1.
        -11    1    1    2    0    0 -0.61513411805E+02  0.71933465622E+02  0.48899316899E+03  0.49806891353E+03  0.00000000000E+00 0.  1.
         11    1    1    2    0    0  0.60421982478E+02 -0.70901833812E+02 -0.47863413999E+03  0.48761514124E+03  0.00000000000E+00 0. -1.
        -15    1    1    2    0    0  0.33499783571E+01 -0.25388102154E+00 -0.10666065779E+02  0.11322963339E+02  0.17770000000E+01 0.  1.
         15    1    1    2    0    0 -0.22585490306E+01 -0.77775078844E+00  0.30703678488E+00  0.29929818910E+01  0.17770000000E+01 0. -1.
</event>
<event>
 6    1  0.1823098E-004  0.5009554E+03  0.7546771E-02  0.9397674E-01
        -11   -1    0    0    0    0  0.00000000000E+00  0.00000000000E+00  0.50000000000E+03  0.50000000000E+03  0.00000000000E+00 0.  1.
         11   -1    0    0    0    0 -0.00000000000E+00 -0.00000000000E+00 -0.50000000000E+03  0.50000000000E+03  0.00000000000E+00 0. -1.
        -11    1    1    2    0    0  0.10361869740E+02 -0.16703754810E+02  0.49865732458E+03  0.49904459833E+03  0.00000000000E+00 0.  1.
         11    1    1    2    0    0  0.95588486444E+01  0.39948936753E+01 -0.63646120235E+02  0.64483791637E+02  0.00000000000E+00 0. -1.
        -15    1    1    2    0    0 -0.52319638994E+01  0.18435525509E+02 -0.19931171606E+03  0.20023875732E+03  0.17770000000E+01 0.  1.
         15    1    1    2    0    0 -0.14688754485E+02 -0.57266643738E+01 -0.23569948828E+03  0.23623285271E+03  0.17770000000E+01 0. -1.
</event>
<event>
 6    1  0.1823098E-004  0.5048787E+03  0.7546771E-02  0.9388959E-01
        -11   -1    0    0    0    0  0.00000000000E+00  0.00000000000E+00  0.50000000000E+03  0.50000000000E+03  0.00000000000E+00 0.  1.
         11   -1    0    0    0    0 -0.00000000000E+00 -0.00000000000E+00 -0.50000000000E+03  0.50000000000E+03  0.00000000000E+00 0.  1.
        -11    1    1    2    0    0 -0.29067626862E+01 -0.62656219057E+01  0.41521807228E+03  0.41527551678E+03  0.00000000000E+00 0.  1.
         11    1    1    2    0    0 -0.26777213080E+02  0.11965673557E+02 -0.49425191255E+03  0.49512134830E+03  0.00000000000E+00 0.  1.
        -15    1    1    2    0    0  0.32182113651E+02 -0.11994150727E+02  0.57938128881E+02  0.67376053594E+02  0.17770000000E+01 0.  1.
         15    1    1    2    0    0 -0.24981378848E+01  0.62940990750E+01  0.21095711388E+02  0.22227081321E+02  0.17770000000E+01 0. -1.
</event>
<event>
 6    1  0.1823098E-004  0.3786599E+03  0.7546771E-02  0.9721644E-01
        -11   -1    0    0    0    0  0.00000000000E+00  0.00000000000E+00  0.50000000000E+03  0.50000000000E+03  0.00000000000E+00 0. -1.
         11   -1    0    0    0    0 -0.00000000000E+00 -0.00000000000E+00 -0.50000000000E+03  0.50000000000E+03  0.00000000000E+00 0.  1.
        -11    1    1    2    0    0 -0.24556061236E+02  0.96094073356E+02  0.32622228794E+03  0.34096635058E+03  0.00000000000E+00 0. -1.
         11    1    1    2    0    0 -0.18999742820E+03  0.11925186626E+03 -0.56752259324E+02  0.23138895667E+03  0.00000000000E+00 0.  1.
        -15    1    1    2    0    0  0.13184426122E+03 -0.15582141891E+03 -0.94007867637E+02  0.22473064035E+03  0.17770000000E+01 0. -1.
         15    1    1    2    0    0  0.82709228217E+02 -0.59524520713E+02 -0.17546216098E+03  0.20291405240E+03  0.17770000000E+01 0.  1.
</event>
<event>
 6    1  0.1823098E-004  0.5033851E+03  0.7546771E-02  0.9392267E-01
        -11   -1    0    0    0    0  0.00000000000E+00  0.00000000000E+00  0.50000000000E+03  0.50000000000E+03  0.00000000000E+00 0. -1.
         11   -1    0    0    0    0 -0.00000000000E+00 -0.00000000000E+00 -0.50000000000E+03  0.50000000000E+03  0.00000000000E+00 0. -1.
        -11    1    1    2    0    0  0.41897065554E+01  0.30447908247E+01  0.33577387607E+03  0.33581381783E+03  0.00000000000E+00 0. -1.
         11    1    1    2    0    0 -0.23736844874E+02 -0.11338008977E+02 -0.49591772536E+03  0.49661491981E+03  0.00000000000E+00 0. -1.
        -15    1    1    2    0    0 -0.37282807592E+01 -0.31793313813E+01  0.11753812275E+03  0.11765362831E+03  0.17770000000E+01 0.  1.
         15    1    1    2    0    0  0.23275419078E+02  0.11472549533E+02  0.42605726542E+02  0.49917634051E+02  0.17770000000E+01 0. -1.
</event>
<event>
 6    1  0.1823098E-004  0.5067532E+03  0.7546771E-02  0.9384824E-01
        -11   -1    0    0    0    0  0.00000000000E+00  0.00000000000E+00  0.50000000000E+03  0.50000000000E+03  0.00000000000E+00 0. -1.
         11   -1    0    0    0    0 -0.00000000000E+00 -0.00000000000E+00 -0.50000000000E+03  0.50000000000E+03  0.00000000000E+00 0.  1.
        -11    1    1    2    0    0 -0.90515793452E+01  0.53763822852E+00  0.47514399234E+03  0.47523050576E+03  0.00000000000E+00 0. -1.
         11    1    1    2    0    0 -0.12287170312E+02 -0.13974129533E+02 -0.49289570177E+03  0.49324681821E+03  0.00000000000E+00 0.  1.
        -15    1    1    2    0    0  0.14847954423E+02  0.64508543774E+01  0.12176722811E+02  0.20334836615E+02  0.17770000000E+01 0. -1.
         15    1    1    2    0    0  0.64907952340E+01  0.69856369273E+01  0.55749866196E+01  0.11187839419E+02  0.17770000000E+01 0.  1.
</event>
<event>
 6    1  0.1823098E-004  0.5011693E+03  0.7546771E-02  0.9397197E-01
        -11   -1    0    0    0    0  0.00000000000E+00  0.00000000000E+00  0.50000000000E+03  0.50000000000E+03  0.00000000000E+00 0. -1.
         11   -1    0    0    0    0 -0.00000000000E+00 -0.00000000000E+00 -0.50000000000E+03  0.50000000000E+03  0.00000000000E+00 0.  1.
        -11    1    1    2    0    0 -0.92875002965E+01 -0.25129137227E+01  0.43104004522E+03  0.43114741444E+03  0.00000000000E+00 0. -1.
         11    1    1    2    0    0 -0.30936030946E+01 -0.65234677391E+01 -0.49877846383E+03  0.49883071476E+03  0.00000000000E+00 0.  1.
        -15    1    1    2    0    0  0.13068225593E+02  0.83697496161E+01  0.57348116770E+02  0.59437323752E+02  0.17770000000E+01 0. -1.
         15    1    1    2    0    0 -0.68712220183E+00  0.66663184572E+00  0.10390301840E+02  0.10584547050E+02  0.17770000000E+01 0.  1.
</event>
<event>
 6    1  0.1823098E-004  0.5009447E+03  0.7546771E-02  0.9397698E-01
        -11   -1    0    0    0    0  0.00000000000E+00  0.00000000000E+00  0.50000000000E+03  0.50000000000E+03  0.00000000000E+00 0. -1.
         11   -1    0    0    0    0 -0.00000000000E+00 -0.00000000000E+00 -0.50000000000E+03  0.50000000000E+03  0.00000000000E+00 0.  1.
        -11    1    1    2    0    0  0.67988420639E+01 -0.80879766483E+01  0.39969311098E+03  0.39983274326E+03  0.00000000000E+00 0. -1.
         11    1    1    2    0    0 -0.24065179157E+01  0.15423438920E+02 -0.49881111153E+03  0.49905530633E+03  0.00000000000E+00 0.  1.
        -15    1    1    2    0    0  0.43057025576E+01 -0.19100038273E+01  0.70181361862E+02  0.70361697470E+02  0.17770000000E+01 0. -1.
         15    1    1    2    0    0 -0.86980267058E+01 -0.54254584446E+01  0.28936638686E+02  0.30750252931E+02  0.17770000000E+01 0.  1.
</event>
<event>
 6    1  0.1823098E-004  0.5010842E+03  0.7546771E-02  0.9397387E-01
        -11   -1    0    0    0    0  0.00000000000E+00  0.00000000000E+00  0.50000000000E+03  0.50000000000E+03  0.00000000000E+00 0.  1.
         11   -1    0    0    0    0 -0.00000000000E+00 -0.00000000000E+00 -0.50000000000E+03  0.50000000000E+03  0.00000000000E+00 0.  1.
        -11    1    1    2    0    0  0.12740368356E+02  0.87177174280E+01  0.49867692863E+03  0.49891581928E+03  0.00000000000E+00 0.  1.
         11    1    1    2    0    0 -0.63000462808E+01 -0.15408081774E+02 -0.27184685101E+03  0.27235603531E+03  0.00000000000E+00 0.  1.
        -15    1    1    2    0    0  0.47393813816E+01  0.27957476497E+01 -0.18812891020E+03  0.18821775295E+03  0.17770000000E+01 0.  1.
         15    1    1    2    0    0 -0.11179703457E+02  0.38946166965E+01 -0.38701167416E+02  0.40510392456E+02  0.17770000000E+01 0. -1.
</event>
<event>
 6    1  0.1823098E-004  0.5048090E+03  0.7546771E-02  0.9389113E-01
        -11   -1    0    0    0    0  0.00000000000E+00  0.00000000000E+00  0.50000000000E+03  0.50000000000E+03  0.00000000000E+00 0. -1.
         11   -1    0    0    0    0 -0.00000000000E+00 -0.00000000000E+00 -0.50000000000E+03  0.50000000000E+03  0.00000000000E+00 0.  1.
        -11    1    1    2    0    0  0.99412027832E+01  0.13373248714E+01  0.22006463509E+03  0.22029312193E+03  0.00000000000E+00 0. -1.
         11    1    1    2    0    0  0.51579102379E+02 -0.48502416816E+02 -0.49010327713E+03  0.49519098385E+03  0.00000000000E+00 0.  1.
        -15    1    1    2    0    0 -0.60811761483E+02  0.36672671468E+02  0.17481117022E+03  0.18869302618E+03  0.17770000000E+01 0.  1.
         15    1    1    2    0    0 -0.70854367977E+00  0.10492420476E+02  0.95227471819E+02  0.95822868041E+02  0.17770000000E+01 0. -1.
</event>
<event>
 6    1  0.1823098E-004  0.4891782E+03  0.7546771E-02  0.9424355E-01
        -11   -1    0    0    0    0  0.00000000000E+00  0.00000000000E+00  0.50000000000E+03  0.50000000000E+03  0.00000000000E+00 0.  1.
         11   -1    0    0    0    0 -0.00000000000E+00 -0.00000000000E+00 -0.50000000000E+03  0.50000000000E+03  0.00000000000E+00 0. -1.
        -11    1    1    2    0    0  0.55585217764E+01 -0.37795227161E+01  0.48961781341E+03  0.48966395127E+03  0.00000000000E+00 0.  1.
         11    1    1    2    0    0  0.27485254238E+01 -0.13596085037E+02 -0.48868561620E+03  0.48888243924E+03  0.00000000000E+00 0. -1.
        -15    1    1    2    0    0 -0.19028900461E+01  0.36426057395E+01  0.33677105856E+01  0.56025682227E+01  0.17770000000E+01 0.  1.
         15    1    1    2    0    0 -0.64041571540E+01  0.13733002014E+02 -0.42999077999E+01  0.15851041267E+02  0.17770000000E+01 0. -1.
</event>
<event>
 6    1  0.1823098E-004  0.5011675E+03  0.7546771E-02  0.9397201E-01
        -11   -1    0    0    0    0  0.00000000000E+00  0.00000000000E+00  0.50000000000E+03  0.50000000000E+03  0.00000000000E+00 0. -1.
         11   -1    0    0    0    0 -0.00000000000E+00 -0.00000000000E+00 -0.50000000000E+03  0.50000000000E+03  0.00000000000E+00 0.  1.
        -11    1    1    2    0    0  0.36493361217E+01  0.14824490960E+02  0.39684322153E+03  0.39713678458E+03  0.00000000000E+00 0. -1.
         11    1    1    2    0    0 -0.22393929605E+02 -0.54855405529E+01 -0.49829935142E+03  0.49883245972E+03  0.00000000000E+00 0.  1.
        -15    1    1    2    0    0  0.98310283297E+01 -0.21269682057E+01  0.64268446427E+02  0.65075064709E+02  0.17770000000E+01 0.  1.
         15    1    1    2    0    0  0.89135651535E+01 -0.72119822013E+01  0.37187683460E+02  0.38955690998E+02  0.17770000000E+01 0. -1.
</event>
<event>
 6    1  0.1823098E-004  0.5070727E+03  0.7546771E-02  0.9384122E-01
        -11   -1    0    0    0    0  0.00000000000E+00  0.00000000000E+00  0.50000000000E+03  0.50000000000E+03  0.00000000000E+00 0. -1.
         11   -1    0    0    0    0 -0.00000000000E+00 -0.00000000000E+00 -0.50000000000E+03  0.50000000000E+03  0.00000000000E+00 0.  1.
        -11    1    1    2    0    0  0.36723747646E+01 -0.11655999199E+02  0.47168541893E+03  0.47184370621E+03  0.00000000000E+00 0. -1.
         11    1    1    2    0    0  0.10694600835E+02 -0.10301404964E+02 -0.49270363005E+03  0.49292733795E+03  0.00000000000E+00 0.  1.
        -15    1    1    2    0    0 -0.82297446383E+01  0.15516049204E+02  0.80496582730E+01  0.19401835145E+02  0.17770000000E+01 0. -1.
         15    1    1    2    0    0 -0.61372309611E+01  0.64413549595E+01  0.12968552849E+02  0.15827120698E+02  0.17770000000E+01 0.  1.
</event>
<event>
 6    1  0.1823098E-004  0.4860491E+03  0.7546771E-02  0.9431579E-01
        -11   -1    0    0    0    0  0.00000000000E+00  0.00000000000E+00  0.50000000000E+03  0.50000000000E+03  0.00000000000E+00 0.  1.
         11   -1    0    0    0    0 -0.00000000000E+00 -0.00000000000E+00 -0.50000000000E+03  0.50000000000E+03  0.00000000000E+00 0.  1.
        -11    1    1    2    0    0 -0.52383512824E+01  0.55493677084E+01  0.48929384494E+03  0.48935335137E+03  0.00000000000E+00 0.  1.
         11    1    1    2    0    0 -0.53819639933E+01  0.16868018897E+02 -0.48275869382E+03  0.48308327652E+03  0.00000000000E+00 0.  1.
        -15    1    1    2    0    0  0.19950992437E+01 -0.54485538827E+01  0.23168553278E+01  0.64955914292E+01  0.17770000000E+01 0.  1.
         15    1    1    2    0    0  0.86252160319E+01 -0.16968832722E+02 -0.88520064492E+01  0.21067780679E+02  0.17770000000E+01 0. -1.
</event>
<event>
 6    1  0.1823098E-004  0.5009887E+03  0.7546771E-02  0.9397600E-01
        -11   -1    0    0    0    0  0.00000000000E+00  0.00000000000E+00  0.50000000000E+03  0.50000000000E+03  0.00000000000E+00 0.  1.
         11   -1    0    0    0    0 -0.00000000000E+00 -0.00000000000E+00 -0.50000000000E+03  0.50000000000E+03  0.00000000000E+00 0.  1.
        -11    1    1    2    0    0 -0.61739731977E+00  0.65937898617E+01  0.47415735015E+03  0.47420359756E+03  0.00000000000E+00 0.  1.
         11    1    1    2    0    0  0.38748799704E+00 -0.73269337182E+01 -0.49895738145E+03  0.49901132513E+03  0.00000000000E+00 0.  1.
        -15    1    1    2    0    0 -0.28579683851E+01  0.37941650007E+01  0.93511146124E+01  0.10637891936E+02  0.17770000000E+01 0. -1.
         15    1    1    2    0    0  0.30878777078E+01 -0.30610211443E+01  0.15448916696E+02  0.16147185367E+02  0.17770000000E+01 0.  1.
</event>
<event>
 6    1  0.1823098E-004  0.5012691E+03  0.7546771E-02  0.9396975E-01
        -11   -1    0    0    0    0  0.00000000000E+00  0.00000000000E+00  0.50000000000E+03  0.50000000000E+03  0.00000000000E+00 0. -1.
         11   -1    0    0    0    0 -0.00000000000E+00 -0.00000000000E+00 -0.50000000000E+03  0.50000000000E+03  0.00000000000E+00 0. -1.
        -11    1    1    2    0    0 -0.54386929770E+01 -0.92374104303E+01  0.49861572641E+03  0.49873094124E+03  0.00000000000E+00 0. -1.
         11    1    1    2    0    0 -0.28749110383E+01  0.54726170383E+01 -0.62458807025E+01  0.87878140897E+01  0.00000000000E+00 0. -1.
        -15    1    1    2    0    0  0.12591141065E+01  0.21399428782E-01 -0.13643003367E+03  0.13644741714E+03  0.17770000000E+01 0.  1.
         15    1    1    2    0    0  0.70544899088E+01  0.37433939632E+01 -0.35593981203E+03  0.35603382753E+03  0.17770000000E+01 0. -1.
</event>
<event>
 6    1  0.1823098E-004  0.5001141E+03  0.7546771E-02  0.9399554E-01
        -11   -1    0    0    0    0  0.00000000000E+00  0.00000000000E+00  0.50000000000E+03  0.50000000000E+03  0.00000000000E+00 0.  1.
         11   -1    0    0    0    0 -0.00000000000E+00 -0.00000000000E+00 -0.50000000000E+03  0.50000000000E+03  0.00000000000E+00 0. -1.
        -11    1    1    2    0    0  0.19287228073E+01  0.70110580240E+01  0.49983298617E+03  0.49988587595E+03  0.00000000000E+00 0.  1.
         11    1    1    2    0    0 -0.64693783922E+01 -0.67852679847E+01 -0.19668015899E+03  0.19690347295E+03  0.00000000000E+00 0. -1.
        -15    1    1    2    0    0  0.16826559841E+01  0.41075021019E+00 -0.13805517801E+03  0.13807747807E+03  0.17770000000E+01 0. -1.
         15    1    1    2    0    0  0.28579996009E+01 -0.63654024948E+00 -0.16509764917E+03  0.16513317304E+03  0.17770000000E+01 0. -1.
</event>
<event>
 6    1  0.1823098E-004  0.5020020E+03  0.7546771E-02  0.9395341E-01
        -11   -1    0    0    0    0  0.00000000000E+00  0.00000000000E+00  0.50000000000E+03  0.50000000000E+03  0.00000000000E+00 0. -1.
         11   -1    0    0    0    0 -0.00000000000E+00 -0.00000000000E+00 -0.50000000000E+03  0.50000000000E+03  0.00000000000E+00 0. -1.
        -11    1    1    2    0    0 -0.26249682715E+01  0.76162351814E+01  0.49793280703E+03  0.49799796969E+03  0.00000000000E+00 0. -1.
         11    1    1    2    0    0 -0.84535418285E+01  0.15122984887E+02 -0.40385112907E+03  0.40422258904E+03  0.00000000000E+00 0. -1.
        -15    1    1    2    0    0  0.36591993801E+01 -0.68483479717E+01 -0.43268915512E+02  0.43995981505E+02  0.17770000000E+01 0.  1.
         15    1    1    2    0    0  0.74193107199E+01 -0.15890872097E+02 -0.50812762449E+02  0.53783459765E+02  0.17770000000E+01 0. -1.
</event>
<event>
 6    1  0.1823098E-004  0.5018540E+03  0.7546771E-02  0.9395671E-01
        -11   -1    0    0    0    0  0.00000000000E+00  0.00000000000E+00  0.50000000000E+03  0.50000000000E+03  0.00000000000E+00 0. -1.
         11   -1    0    0    0    0 -0.00000000000E+00 -0.00000000000E+00 -0.50000000000E+03  0.50000000000E+03  0.00000000000E+00 0. -1.
        -11    1    1    2    0    0 -0.75795871926E+01 -0.28523329256E+01  0.49808016906E+03  0.49814600346E+03  0.00000000000E+00 0. -1.
         11    1    1    2    0    0 -0.10025314563E+02  0.13123144694E+02 -0.35821738397E+03  0.35859785001E+03  0.00000000000E+00 0. -1.
        -15    1    1    2    0    0  0.83617610886E+01 -0.37163327008E+00 -0.12412639296E+02  0.15076090444E+02  0.17770000000E+01 0.  1.
         15    1    1    2    0    0  0.92431406667E+01 -0.98991784981E+01 -0.12745014580E+03  0.12818005609E+03  0.17770000000E+01 0. -1.
</event>
<event>
 6    1  0.1823098E-004  0.5037811E+03  0.7546771E-02  0.9391389E-01
        -11   -1    0    0    0    0  0.00000000000E+00  0.00000000000E+00  0.50000000000E+03  0.50000000000E+03  0.00000000000E+00 0. -1.
         11   -1    0    0    0    0 -0.00000000000E+00 -0.00000000000E+00 -0.50000000000E+03  0.50000000000E+03  0.00000000000E+00 0.  1.
        -11    1    1    2    0    0  0.85715001601E+02  0.78419139793E+02  0.48242774894E+03  0.49621885891E+03  0.00000000000E+00 0. -1.
         11    1    1    2    0    0 -0.57714867973E+02 -0.45858766569E+02 -0.13820933686E+03  0.15663924556E+03  0.00000000000E+00 0.  1.
        -15    1    1    2    0    0 -0.24392015586E+02 -0.24308644402E+02 -0.30037567730E+03  0.30234845106E+03  0.17770000000E+01 0.  1.
         15    1    1    2    0    0 -0.36081180420E+01 -0.82517288225E+01 -0.43842734790E+02  0.44793444467E+02  0.17770000000E+01 0. -1.
</event>
<event>
 6    1  0.1823098E-004  0.5061805E+03  0.7546771E-02  0.9386086E-01
        -11   -1    0    0    0    0  0.00000000000E+00  0.00000000000E+00  0.50000000000E+03  0.50000000000E+03  0.00000000000E+00 0. -1.
         11   -1    0    0    0    0 -0.00000000000E+00 -0.00000000000E+00 -0.50000000000E+03  0.50000000000E+03  0.00000000000E+00 0. -1.
        -11    1    1    2    0    0 -0.12811386762E+02 -0.59584847396E+01  0.43745029821E+03  0.43767841913E+03  0.00000000000E+00 0. -1.
         11    1    1    2    0    0 -0.19958994355E+02  0.51400366115E+01 -0.49338923976E+03  0.49381952508E+03  0.00000000000E+00 0. -1.
        -15    1    1    2    0    0  0.82761809340E+01 -0.91300827178E+01  0.12662392174E+02  0.17758025956E+02  0.17770000000E+01 0.  1.
         15    1    1    2    0    0  0.24494200183E+02  0.99485308458E+01  0.43276549383E+02  0.50744029836E+02  0.17770000000E+01 0. -1.
</event>
<event>
 6    1  0.1823098E-004  0.5008473E+03  0.7546771E-02  0.9397916E-01
        -11   -1    0    0    0    0  0.00000000000E+00  0.00000000000E+00  0.50000000000E+03  0.50000000000E+03  0.00000000000E+00 0.  1.
         11   -1    0    0    0    0 -0.00000000000E+00 -0.00000000000E+00 -0.50000000000E+03  0.50000000000E+03  0.00000000000E+00 0. -1.
        -11    1    1    2    0    0  0.11814372136E+02  0.27934243313E+02  0.49823040321E+03  0.49915271813E+03  0.00000000000E+00 0.  1.
         11    1    1    2    0    0 -0.25948049142E+02 -0.23557314241E+02 -0.34743723447E+03  0.34920034393E+03  0.00000000000E+00 0. -1.
        -15    1    1    2    0    0  0.86575219211E+01 -0.19486623117E+01 -0.65072913032E+02  0.65699251975E+02  0.17770000000E+01 0. -1.
         15    1    1    2    0    0  0.54761550853E+01 -0.24282667601E+01 -0.85720255709E+02  0.85947685959E+02  0.17770000000E+01 0.  1.
</event>
<event>
 6    1  0.1823098E-004  0.5065844E+03  0.7546771E-02  0.9385196E-01
        -11   -1    0    0    0    0  0.00000000000E+00  0.00000000000E+00  0.50000000000E+03  0.50000000000E+03  0.00000000000E+00 0.  1.
         11   -1    0    0    0    0 -0.00000000000E+00 -0.00000000000E+00 -0.50000000000E+03  0.50000000000E+03  0.00000000000E+00 0. -1.
        -11    1    1    2    0    0 -0.24288395024E+02  0.83684559989E+01  0.49274642629E+03  0.49341564407E+03  0.00000000000E+00 0.  1.
         11    1    1    2    0    0  0.64550601368E+02 -0.22178429521E+02 -0.27973490460E+03  0.28794145191E+03  0.00000000000E+00 0. -1.
        -15    1    1    2    0    0 -0.83571432611E+01  0.12664033640E+02 -0.42571841588E+02  0.45229846526E+02  0.17770000000E+01 0.  1.
         15    1    1    2    0    0 -0.31905063083E+02  0.11459398821E+01 -0.17043968010E+03  0.17341305750E+03  0.17770000000E+01 0. -1.
</event>
<event>
 6    1  0.1823098E-004  0.5001243E+03  0.7546771E-02  0.9399532E-01
        -11   -1    0    0    0    0  0.00000000000E+00  0.00000000000E+00  0.50000000000E+03  0.50000000000E+03  0.00000000000E+00 0. -1.
         11   -1    0    0    0    0 -0.00000000000E+00 -0.00000000000E+00 -0.50000000000E+03  0.50000000000E+03  0.00000000000E+00 0. -1.
        -11    1    1    2    0    0 -0.13836015100E+02 -0.87819307557E+01  0.38560748659E+03  0.38595555617E+03  0.00000000000E+00 0. -1.
         11    1    1    2    0    0  0.23800350521E+02  0.11781271247E+02 -0.49916978079E+03  0.49987570964E+03  0.00000000000E+00 0. -1.
        -15    1    1    2    0    0 -0.49181336405E+01 -0.16953866507E+01  0.76779336181E+02  0.76975883027E+02  0.17770000000E+01 0.  1.
         15    1    1    2    0    0 -0.50462017805E+01 -0.13039538408E+01  0.36782958021E+02  0.37192851165E+02  0.17770000000E+01 0. -1.
</event>
<event>
 6    1  0.1823098E-004  0.5012624E+03  0.7546771E-02  0.9396989E-01
        -11   -1    0    0    0    0  0.00000000000E+00  0.00000000000E+00  0.50000000000E+03  0.50000000000E+03  0.00000000000E+00 0.  1.
         11   -1    0    0    0    0 -0.00000000000E+00 -0.00000000000E+00 -0.50000000000E+03  0.50000000000E+03  0.00000000000E+00 0. -1.
        -11    1    1    2    0    0  0.97165798618E+01 -0.18446998587E+02  0.49830156515E+03  0.49873755975E+03  0.00000000000E+00 0.  1.
         11    1    1    2    0    0 -0.13606791286E+02  0.21780548330E+02 -0.13962958836E+03  0.14197168380E+03  0.00000000000E+00 0. -1.
        -15    1    1    2    0    0 -0.64401195114E+00  0.53070249870E+01 -0.33713418349E+02  0.34180865574E+02  0.17770000000E+01 0. -1.
         15    1    1    2    0    0  0.45342233759E+01 -0.86405747301E+01 -0.32495855844E+03  0.32510989087E+03  0.17770000000E+01 0.  1.
</event>
<event>
 6    1  0.1823098E-004  0.5021081E+03  0.7546771E-02  0.9395105E-01
        -11   -1    0    0    0    0  0.00000000000E+00  0.00000000000E+00  0.50000000000E+03  0.50000000000E+03  0.00000000000E+00 0.  1.
         11   -1    0    0    0    0 -0.00000000000E+00 -0.00000000000E+00 -0.50000000000E+03  0.50000000000E+03  0.00000000000E+00 0.  1.
        -11    1    1    2    0    0  0.28695987876E+01  0.74188814613E+01  0.48465355904E+03  0.48471883261E+03  0.00000000000E+00 0.  1.
         11    1    1    2    0    0  0.57807366850E+01 -0.50071049159E+01 -0.49783316203E+03  0.49789190115E+03  0.00000000000E+00 0.  1.
        -15    1    1    2    0    0 -0.36545003774E+01 -0.34507915297E+01  0.93616738376E+01  0.10773207565E+02  0.17770000000E+01 0.  1.
         15    1    1    2    0    0 -0.49958350951E+01  0.10390149843E+01  0.38179291526E+01  0.66160586795E+01  0.17770000000E+01 0. -1.
</event>
<event>
 6    1  0.1823098E-004  0.5022442E+03  0.7546771E-02  0.9394802E-01
        -11   -1    0    0    0    0  0.00000000000E+00  0.00000000000E+00  0.50000000000E+03  0.50000000000E+03  0.00000000000E+00 0. -1.
         11   -1    0    0    0    0 -0.00000000000E+00 -0.00000000000E+00 -0.50000000000E+03  0.50000000000E+03  0.00000000000E+00 0. -1.
        -11    1    1    2    0    0 -0.63024051818E+01  0.45197968925E+01  0.49769537733E+03  0.49775580107E+03  0.00000000000E+00 0. -1.
         11    1    1    2    0    0 -0.15549152943E+01 -0.25574726679E+02 -0.87575038371E+02  0.91246215001E+02  0.00000000000E+00 0. -1.
        -15    1    1    2    0    0  0.64961964605E+01  0.22047781664E+02 -0.39571911589E+03  0.39639006251E+03  0.17770000000E+01 0.  1.
         15    1    1    2    0    0  0.13611240156E+01 -0.99285187757E+00 -0.14401223072E+02  0.14607921427E+02  0.17770000000E+01 0.  1.
</event>
<event>
 6    1  0.1823098E-004  0.5002395E+03  0.7546771E-02  0.9399274E-01
        -11   -1    0    0    0    0  0.00000000000E+00  0.00000000000E+00  0.50000000000E+03  0.50000000000E+03  0.00000000000E+00 0.  1.
         11   -1    0    0    0    0 -0.00000000000E+00 -0.00000000000E+00 -0.50000000000E+03  0.50000000000E+03  0.00000000000E+00 0.  1.
        -11    1    1    2    0    0  0.13924046481E+01  0.27283751385E+02  0.49901324976E+03  0.49976050796E+03  0.00000000000E+00 0.  1.
         11    1    1    2    0    0 -0.37381218455E+01 -0.21480169034E+02 -0.21545485056E+03  0.21655522124E+03  0.00000000000E+00 0.  1.
        -15    1    1    2    0    0  0.12525975931E+01 -0.15945413273E+01 -0.45685643906E+02  0.45765132480E+02  0.17770000000E+01 0.  1.
         15    1    1    2    0    0  0.10931196042E+01 -0.42090410237E+01 -0.23787275529E+03  0.23791913831E+03  0.17770000000E+01 0.  1.
</event>
<event>
 6    1  0.1823098E-004  0.4886061E+03  0.7546771E-02  0.9425672E-01
        -11   -1    0    0    0    0  0.00000000000E+00  0.00000000000E+00  0.50000000000E+03  0.50000000000E+03  0.00000000000E+00 0. -1.
         11   -1    0    0    0    0 -0.00000000000E+00 -0.00000000000E+00 -0.50000000000E+03  0.50000000000E+03  0.00000000000E+00 0.  1.
        -11    1    1    2    0    0 -0.43607991637E+01  0.68403474763E+01  0.49199063149E+03  0.49205750518E+03  0.00000000000E+00 0. -1.
         11    1    1    2    0    0 -0.14228879255E+02  0.20240711259E+01 -0.48518267800E+03  0.48539549740E+03  0.00000000000E+00 0.  1.
        -15    1    1    2    0    0  0.54695618758E+01 -0.36733710379E+01 -0.10389260423E+00  0.68248285377E+01  0.17770000000E+01 0. -1.
         15    1    1    2    0    0  0.13120116543E+02 -0.51910475643E+01 -0.67040608909E+01  0.15722168882E+02  0.17770000000E+01 0.  1.
</event>
<event>
 6    1  0.1823098E-004  0.5170816E+03  0.7546771E-02  0.9362379E-01
        -11   -1    0    0    0    0  0.00000000000E+00  0.00000000000E+00  0.50000000000E+03  0.50000000000E+03  0.00000000000E+00 0. -1.
         11   -1    0    0    0    0 -0.00000000000E+00 -0.00000000000E+00 -0.50000000000E+03  0.50000000000E+03  0.00000000000E+00 0. -1.
        -11    1    1    2    0    0  0.52919638572E+01 -0.73515519984E+01  0.48283342104E+03  0.48291838097E+03  0.00000000000E+00 0. -1.
         11    1    1    2    0    0  0.31484266019E+02  0.28732837990E+02 -0.43233033600E+03  0.43442646606E+03  0.00000000000E+00 0. -1.
        -15    1    1    2    0    0 -0.10342566029E+02 -0.19823766796E+02 -0.51421062930E+02  0.56100212512E+02  0.17770000000E+01 0. -1.
         15    1    1    2    0    0 -0.26433663846E+02 -0.15575191957E+01  0.91797789087E+00  0.26554940459E+02  0.17770000000E+01 0.  1.
</event>
<event>
 6    1  0.1823098E-004  0.5007680E+03  0.7546771E-02  0.9398093E-01
        -11   -1    0    0    0    0  0.00000000000E+00  0.00000000000E+00  0.50000000000E+03  0.50000000000E+03  0.00000000000E+00 0.  1.
         11   -1    0    0    0    0 -0.00000000000E+00 -0.00000000000E+00 -0.50000000000E+03  0.50000000000E+03  0.00000000000E+00 0. -1.
        -11    1    1    2    0    0  0.43525513520E+01 -0.34597290562E+01  0.38149423972E+03  0.38153475513E+03  0.00000000000E+00 0.  1.
         11    1    1    2    0    0 -0.21715593707E+02 -0.70745528731E+01 -0.49870926933E+03  0.49923196174E+03  0.00000000000E+00 0. -1.
        -15    1    1    2    0    0  0.94335897413E+01  0.67868544724E+01  0.46895579964E+02  0.48346738858E+02  0.17770000000E+01 0. -1.
         15    1    1    2    0    0  0.79294526133E+01  0.37474274569E+01  0.70319449645E+02  0.70886544271E+02  0.17770000000E+01 0.  1.
</event>
<event>
 6    1  0.1823098E-004  0.5008556E+03  0.7546771E-02  0.9397897E-01
        -11   -1    0    0    0    0  0.00000000000E+00  0.00000000000E+00  0.50000000000E+03  0.50000000000E+03  0.00000000000E+00 0.  1.
         11   -1    0    0    0    0 -0.00000000000E+00 -0.00000000000E+00 -0.50000000000E+03  0.50000000000E+03  0.00000000000E+00 0.  1.
        -11    1    1    2    0    0  0.56309596368E+00 -0.93414309590E+01  0.49905664208E+03  0.49914437933E+03  0.00000000000E+00 0.  1.
         11    1    1    2    0    0  0.86367071390E+01  0.34689903855E+01 -0.44913656476E+03  0.44923299122E+03  0.00000000000E+00 0.  1.
        -15    1    1    2    0    0 -0.26957471956E+01  0.13846066331E+01 -0.59250323343E+01  0.68882454684E+01  0.17770000000E+01 0. -1.
         15    1    1    2    0    0 -0.65040559071E+01  0.44878339403E+01 -0.43995044994E+02  0.44734383976E+02  0.17770000000E+01 0.  1.
</event>
<event>
 6    1  0.2015416E-004  0.5083122E+03  0.7546771E-02  0.9381400E-01
        -11   -1    0    0    0    0  0.00000000000E+00  0.00000000000E+00  0.50000000000E+03  0.50000000000E+03  0.00000000000E+00 0. -1.
         11   -1    0    0    0    0 -0.00000000000E+00 -0.00000000000E+00 -0.50000000000E+03  0.50000000000E+03  0.00000000000E+00 0.  1.
        -11    1    1    2    0    0  0.43732567699E+01 -0.43556184320E+01  0.42942120714E+03  0.42946556314E+03  0.00000000000E+00 0. -1.
         11    1    1    2    0    0 -0.61688079947E+01 -0.32729915526E+02 -0.49055847860E+03  0.49168783033E+03  0.00000000000E+00 0.  1.
        -15    1    1    2    0    0  0.15401018278E+01  0.32044184487E+02  0.21068119130E+02  0.38421674167E+02  0.17770000000E+01 0. -1.
         15    1    1    2    0    0  0.25544939702E+00  0.50413494708E+01  0.40069152336E+02  0.40424932366E+02  0.17770000000E+01 0.  1.
</event>
<event>
 6    1  0.1823098E-004  0.5009667E+03  0.7546771E-02  0.9397649E-01
        -11   -1    0    0    0    0  0.00000000000E+00  0.00000000000E+00  0.50000000000E+03  0.50000000000E+03  0.00000000000E+00 0. -1.
         11   -1    0    0    0    0 -0.00000000000E+00 -0.00000000000E+00 -0.50000000000E+03  0.50000000000E+03  0.00000000000E+00 0. -1.
        -11    1    1    2    0    0  0.83872095271E+00 -0.70897070222E+01  0.49898224611E+03  0.49903331485E+03  0.00000000000E+00 0. -1.
         11    1    1    2    0    0 -0.26380231404E+01 -0.87722099461E+01 -0.41016509231E+03  0.41026736865E+03  0.00000000000E+00 0. -1.
        -15    1    1    2    0    0 -0.22160297303E+01  0.82321557022E+01 -0.57977163116E+02  0.58627539154E+02  0.17770000000E+01 0. -1.
         15    1    1    2    0    0  0.40153319180E+01  0.76297612662E+01 -0.30839990685E+02  0.32071777341E+02  0.17770000000E+01 0.  1.
</event>
<event>
 6    1  0.1823098E-004  0.4800279E+03  0.7546771E-02  0.9445642E-01
        -11   -1    0    0    0    0  0.00000000000E+00  0.00000000000E+00  0.50000000000E+03  0.50000000000E+03  0.00000000000E+00 0. -1.
         11   -1    0    0    0    0 -0.00000000000E+00 -0.00000000000E+00 -0.50000000000E+03  0.50000000000E+03  0.00000000000E+00 0. -1.
        -11    1    1    2    0    0  0.78340343570E+01 -0.12906132610E+02  0.48273076282E+03  0.48296679982E+03  0.00000000000E+00 0. -1.
         11    1    1    2    0    0  0.13710354069E+02  0.36378535584E+02 -0.64401191198E+01  0.39406177107E+02  0.00000000000E+00 0. -1.
        -15    1    1    2    0    0 -0.10862507003E+02 -0.13737731026E+01 -0.15078772182E+03  0.15119515896E+03  0.17770000000E+01 0. -1.
         15    1    1    2    0    0 -0.10681881422E+02 -0.22098629872E+02 -0.32550292188E+03  0.32643186412E+03  0.17770000000E+01 0. -1.
</event>
<event>
 6    1  0.1823098E-004  0.5001558E+03  0.7546771E-02  0.9399461E-01
        -11   -1    0    0    0    0  0.00000000000E+00  0.00000000000E+00  0.50000000000E+03  0.50000000000E+03  0.00000000000E+00 0. -1.
         11   -1    0    0    0    0 -0.00000000000E+00 -0.00000000000E+00 -0.50000000000E+03  0.50000000000E+03  0.00000000000E+00 0.  1.
        -11    1    1    2    0    0  0.97944059853E+01  0.23907214746E+01  0.49974246517E+03  0.49984415314E+03  0.00000000000E+00 0. -1.
         11    1    1    2    0    0 -0.34603571362E+01 -0.50866970472E+01 -0.66576194047E+02  0.66859839755E+02  0.00000000000E+00 0.  1.
        -15    1    1    2    0    0 -0.49041504113E+01  0.49418199694E+01 -0.33664174275E+03  0.33671841792E+03  0.17770000000E+01 0.  1.
         15    1    1    2    0    0 -0.14298984378E+01 -0.22458443968E+01 -0.96524528369E+02  0.96577589184E+02  0.17770000000E+01 0. -1.
</event>
<event>
 6    1  0.1823098E-004  0.3973809E+03  0.7546771E-02  0.9664171E-01
        -11   -1    0    0    0    0  0.00000000000E+00  0.00000000000E+00  0.50000000000E+03  0.50000000000E+03  0.00000000000E+00 0. -1.
         11   -1    0    0    0    0 -0.00000000000E+00 -0.00000000000E+00 -0.50000000000E+03  0.50000000000E+03  0.00000000000E+00 0.  1.
        -11    1    1    2    0    0 -0.15884981715E+02  0.68545118681E+01  0.38974550545E+03  0.39012930676E+03  0.00000000000E+00 0. -1.
         11    1    1    2    0    0 -0.12561138692E+03 -0.22840887772E+02 -0.39731490927E+03  0.41732369188E+03  0.00000000000E+00 0.  1.
        -15    1    1    2    0    0  0.18151959914E+02  0.10556571686E+02  0.56060143000E+02  0.59890167947E+02  0.17770000000E+01 0. -1.
         15    1    1    2    0    0  0.12334440872E+03  0.54298042177E+01 -0.48490739179E+02  0.13265683341E+03  0.17770000000E+01 0.  1.
</event>
<event>
 6    1  0.1823098E-004  0.5005786E+03  0.7546771E-02  0.9398516E-01
        -11   -1    0    0    0    0  0.00000000000E+00  0.00000000000E+00  0.50000000000E+03  0.50000000000E+03  0.00000000000E+00 0. -1.
         11   -1    0    0    0    0 -0.00000000000E+00 -0.00000000000E+00 -0.50000000000E+03  0.50000000000E+03  0.00000000000E+00 0. -1.
        -11    1    1    2    0    0  0.30249096248E+01 -0.10168048638E+02  0.49930870138E+03  0.49942138377E+03  0.00000000000E+00 0. -1.
         11    1    1    2    0    0 -0.29029360658E+01 -0.59945315169E+01 -0.22894854353E+02  0.23843988797E+02  0.00000000000E+00 0. -1.
        -15    1    1    2    0    0 -0.98366491610E+00  0.27218378232E+01 -0.57209208362E+02  0.57309922773E+02  0.17770000000E+01 0.  1.
         15    1    1    2    0    0  0.86169135716E+00  0.13440742332E+02 -0.41920463867E+03  0.41942470466E+03  0.17770000000E+01 0. -1.
</event>
<event>
 6    1  0.1823098E-004  0.4921074E+03  0.7546771E-02  0.9417645E-01
        -11   -1    0    0    0    0  0.00000000000E+00  0.00000000000E+00  0.50000000000E+03  0.50000000000E+03  0.00000000000E+00 0.  1.
         11   -1    0    0    0    0 -0.00000000000E+00 -0.00000000000E+00 -0.50000000000E+03  0.50000000000E+03  0.00000000000E+00 0. -1.
        -11    1    1    2    0    0  0.87766919773E+01  0.54253156121E+01  0.49573223365E+03  0.49583960295E+03  0.00000000000E+00 0.  1.
         11    1    1    2    0    0 -0.79187317299E+01 -0.11397908678E+02 -0.75727950192E+01  0.15810308626E+02  0.00000000000E+00 0. -1.
        -15    1    1    2    0    0  0.40677767401E+01  0.51822280070E+01 -0.37982700883E+03  0.37988829497E+03  0.17770000000E+01 0. -1.
         15    1    1    2    0    0 -0.49257369875E+01  0.79036505874E+00 -0.10833242981E+03  0.10846179345E+03  0.17770000000E+01 0.  1.
</event>
<event>
 6    1  0.1823098E-004  0.5003899E+03  0.7546771E-02  0.9398938E-01
        -11   -1    0    0    0    0  0.00000000000E+00  0.00000000000E+00  0.50000000000E+03  0.50000000000E+03  0.00000000000E+00 0.  1.
         11   -1    0    0    0    0 -0.00000000000E+00 -0.00000000000E+00 -0.50000000000E+03  0.50000000000E+03  0.00000000000E+00 0. -1.
        -11    1    1    2    0    0 -0.38756831137E+01 -0.48053323298E+01  0.16799361618E+03  0.16810701121E+03  0.00000000000E+00 0.  1.
         11    1    1    2    0    0  0.34916797709E+02 -0.28701801962E+01 -0.49838017197E+03  0.49961006446E+03  0.00000000000E+00 0. -1.
        -15    1    1    2    0    0 -0.26543559831E+02  0.29178757717E+01  0.29765814816E+03  0.29885883869E+03  0.17770000000E+01 0.  1.
         15    1    1    2    0    0 -0.44975547640E+01  0.47576367542E+01  0.32728407626E+02  0.33424085643E+02  0.17770000000E+01 0. -1.
</event>
<event>
 6    1  0.1823098E-004  0.5028861E+03  0.7546771E-02  0.9393375E-01
        -11   -1    0    0    0    0  0.00000000000E+00  0.00000000000E+00  0.50000000000E+03  0.50000000000E+03  0.00000000000E+00 0. -1.
         11   -1    0    0    0    0 -0.00000000000E+00 -0.00000000000E+00 -0.50000000000E+03  0.50000000000E+03  0.00000000000E+00 0. -1.
        -11    1    1    2    0    0 -0.14985360583E+02 -0.25412742318E+01  0.46140555857E+03  0.46165583348E+03  0.00000000000E+00 0. -1.
         11    1    1    2    0    0  0.55278057672E+01  0.18547430825E+02 -0.49673703337E+03  0.49711391466E+03  0.00000000000E+00 0. -1.
        -15    1    1    2    0    0  0.34794810990E+01 -0.54232249841E+01  0.45430311471E+01  0.80817707806E+01  0.17770000000E+01 0.  1.
         15    1    1    2    0    0  0.59780737170E+01 -0.10582931609E+02  0.30788443645E+02  0.33148481079E+02  0.17770000000E+01 0. -1.
</event>
<event>
 6    1  0.1823098E-004  0.5037091E+03  0.7546771E-02  0.9391548E-01
        -11   -1    0    0    0    0  0.00000000000E+00  0.00000000000E+00  0.50000000000E+03  0.50000000000E+03  0.00000000000E+00 0. -1.
         11   -1    0    0    0    0 -0.00000000000E+00 -0.00000000000E+00 -0.50000000000E+03  0.50000000000E+03  0.00000000000E+00 0. -1.
        -11    1    1    2    0    0 -0.10327207854E+02  0.74599125614E+01  0.36213188108E+03  0.36235590352E+03  0.00000000000E+00 0. -1.
         11    1    1    2    0    0  0.18856726537E+02  0.15447147979E+02 -0.49569188191E+03  0.49629087469E+03  0.00000000000E+00 0. -1.
        -15    1    1    2    0    0 -0.19704519213E+02 -0.20885316981E+02  0.56112791628E+02  0.63057653430E+02  0.17770000000E+01 0. -1.
         15    1    1    2    0    0  0.11175000529E+02 -0.20217435588E+01  0.77447209195E+02  0.78295568361E+02  0.17770000000E+01 0.  1.
</event>
<event>
 6    1  0.1823098E-004  0.5017891E+03  0.7546771E-02  0.9395815E-01
        -11   -1    0    0    0    0  0.00000000000E+00  0.00000000000E+00  0.50000000000E+03  0.50000000000E+03  0.00000000000E+00 0. -1.
         11   -1    0    0    0    0 -0.00000000000E+00 -0.00000000000E+00 -0.50000000000E+03  0.50000000000E+03  0.00000000000E+00 0.  1.
        -11    1    1    2    0    0 -0.96936473495E+00  0.69431668030E+01  0.46969107691E+03  0.46974339268E+03  0.00000000000E+00 0. -1.
         11    1    1    2    0    0 -0.88897479582E+01  0.94113769367E+00 -0.49813070630E+03  0.49821091308E+03  0.00000000000E+00 0.  1.
        -15    1    1    2    0    0  0.79963215378E-01 -0.34501489178E+01  0.77845113360E+01  0.86986359512E+01  0.17770000000E+01 0. -1.
         15    1    1    2    0    0  0.97791494778E+01 -0.44341555788E+01  0.20655118047E+02  0.23347058289E+02  0.17770000000E+01 0.  1.
</event>
<event>
 6    1  0.1823098E-004  0.5088262E+03  0.7546771E-02  0.9380274E-01
        -11   -1    0    0    0    0  0.00000000000E+00  0.00000000000E+00  0.50000000000E+03  0.50000000000E+03  0.00000000000E+00 0. -1.
         11   -1    0    0    0    0 -0.00000000000E+00 -0.00000000000E+00 -0.50000000000E+03  0.50000000000E+03  0.00000000000E+00 0. -1.
        -11    1    1    2    0    0 -0.13275622267E+01  0.83126747486E+01  0.49110168718E+03  0.49117382884E+03  0.00000000000E+00 0. -1.
         11    1    1    2    0    0  0.54929933750E+02 -0.25361344030E+01 -0.36193914285E+03  0.36609243741E+03  0.00000000000E+00 0. -1.
        -15    1    1    2    0    0 -0.83485975109E+01  0.46109761842E+01 -0.50082044471E+02  0.51013028622E+02  0.17770000000E+01 0.  1.
         15    1    1    2    0    0 -0.45253774013E+02 -0.10387516530E+02 -0.79080499863E+02  0.91720705130E+02  0.17770000000E+01 0. -1.
</event>
<event>
 6    1  0.1823098E-004  0.5026872E+03  0.7546771E-02  0.9393817E-01
        -11   -1    0    0    0    0  0.00000000000E+00  0.00000000000E+00  0.50000000000E+03  0.50000000000E+03  0.00000000000E+00 0.  1.
         11   -1    0    0    0    0 -0.00000000000E+00 -0.00000000000E+00 -0.50000000000E+03  0.50000000000E+03  0.00000000000E+00 0.  1.
        -11    1    1    2    0    0  0.46324820914E+01  0.13685139213E+02  0.43363855233E+03  0.43387917326E+03  0.00000000000E+00 0.  1.
         11    1    1    2    0    0  0.13106505908E+02 -0.65648653821E+01 -0.49709675959E+03  0.49731284555E+03  0.00000000000E+00 0.  1.
        -15    1    1    2    0    0 -0.18146180647E+02 -0.11573195786E+02  0.48393272317E+02  0.52993294550E+02  0.17770000000E+01 0.  1.
         15    1    1    2    0    0  0.40719264854E+00  0.44529219547E+01  0.15064934942E+02  0.15814686642E+02  0.17770000000E+01 0. -1.
</event>
<event>
 6    1  0.1823098E-004  0.5024573E+03  0.7546771E-02  0.9394328E-01
        -11   -1    0    0    0    0  0.00000000000E+00  0.00000000000E+00  0.50000000000E+03  0.50000000000E+03  0.00000000000E+00 0.  1.
         11   -1    0    0    0    0 -0.00000000000E+00 -0.00000000000E+00 -0.50000000000E+03  0.50000000000E+03  0.00000000000E+00 0. -1.
        -11    1    1    2    0    0 -0.74423580504E+01 -0.65485752736E+00  0.48500834849E+03  0.48506588794E+03  0.00000000000E+00 0.  1.
         11    1    1    2    0    0  0.64402981189E+01  0.76984576568E+01 -0.49744140001E+03  0.49754265157E+03  0.00000000000E+00 0. -1.
        -15    1    1    2    0    0  0.34624454545E+01  0.32233736243E+00  0.59653681304E+01  0.71299211659E+01  0.17770000000E+01 0. -1.
         15    1    1    2    0    0 -0.24603855230E+01 -0.73659374919E+01  0.64676833828E+01  0.10261539329E+02  0.17770000000E+01 0.  1.
</event>
<event>
 6    1  0.1823098E-004  0.5037221E+03  0.7546771E-02  0.9391520E-01
        -11   -1    0    0    0    0  0.00000000000E+00  0.00000000000E+00  0.50000000000E+03  0.50000000000E+03  0.00000000000E+00 0.  1.
         11   -1    0    0    0    0 -0.00000000000E+00 -0.00000000000E+00 -0.50000000000E+03  0.50000000000E+03  0.00000000000E+00 0. -1.
        -11    1    1    2    0    0  0.11006482116E+02  0.24715116443E+01  0.49614970598E+03  0.49627792794E+03  0.00000000000E+00 0.  1.
         11    1    1    2    0    0 -0.73755186879E+01  0.11452806692E+02 -0.45598543965E+03  0.45618887123E+03  0.00000000000E+00 0. -1.
        -15    1    1    2    0    0 -0.11157739322E+02 -0.97459539686E+01 -0.16283194191E+02  0.22085717276E+02  0.17770000000E+01 0.  1.
         15    1    1    2    0    0  0.75267758947E+01 -0.41783643681E+01 -0.23881072133E+02  0.25447483557E+02  0.17770000000E+01 0. -1.
</event>
<event>
 6    1  0.1823098E-004  0.5045267E+03  0.7546771E-02  0.9389738E-01
        -11   -1    0    0    0    0  0.00000000000E+00  0.00000000000E+00  0.50000000000E+03  0.50000000000E+03  0.00000000000E+00 0. -1.
         11   -1    0    0    0    0 -0.00000000000E+00 -0.00000000000E+00 -0.50000000000E+03  0.50000000000E+03  0.00000000000E+00 0.  1.
        -11    1    1    2    0    0 -0.79238411085E+01  0.53931687287E+01  0.45177688528E+03  0.45187855404E+03  0.00000000000E+00 0. -1.
         11    1    1    2    0    0  0.32746365416E+02  0.11855402509E+02 -0.49424784604E+03  0.49547331747E+03  0.00000000000E+00 0.  1.
        -15    1    1    2    0    0 -0.22805884134E+01 -0.31276430944E+01  0.80868579618E+01  0.91399253570E+01  0.17770000000E+01 0.  1.
         15    1    1    2    0    0 -0.22541935894E+02 -0.14120928143E+02  0.34384102793E+02  0.43508203127E+02  0.17770000000E+01 0. -1.
</event>
<event>
 6    1  0.1823098E-004  0.5008420E+03  0.7546771E-02  0.9397928E-01
        -11   -1    0    0    0    0  0.00000000000E+00  0.00000000000E+00  0.50000000000E+03  0.50000000000E+03  0.00000000000E+00 0.  1.
         11   -1    0    0    0    0 -0.00000000000E+00 -0.00000000000E+00 -0.50000000000E+03  0.50000000000E+03  0.00000000000E+00 0. -1.
        -11    1    1    2    0    0 -0.96445923919E+01  0.37982442875E+01  0.45965452783E+03  0.45977138860E+03  0.00000000000E+00 0.  1.
         11    1    1    2    0    0  0.42710292528E+01 -0.97125190524E+01 -0.49904523933E+03  0.49915801668E+03  0.00000000000E+00 0. -1.
        -15    1    1    2    0    0  0.26008580285E+01  0.34134324765E+01  0.33795228069E+02  0.34112917685E+02  0.17770000000E+01 0.  1.
         15    1    1    2    0    0  0.27727051106E+01  0.25008422884E+01  0.55954834403E+01  0.69576770343E+01  0.17770000000E+01 0.  1.
</event>
<event>
 6    1  0.1823098E-004  0.5044154E+03  0.7546771E-02  0.9389984E-01
        -11   -1    0    0    0    0  0.00000000000E+00  0.00000000000E+00  0.50000000000E+03  0.50000000000E+03  0.00000000000E+00 0. -1.
         11   -1    0    0    0    0 -0.00000000000E+00 -0.00000000000E+00 -0.50000000000E+03  0.50000000000E+03  0.00000000000E+00 0. -1.
        -11    1    1    2    0    0  0.17058283821E+01 -0.69339203903E+01  0.49553318798E+03  0.49558463404E+03  0.00000000000E+00 0. -1.
         11    1    1    2    0    0 -0.89250133612E+01  0.22178153628E+02 -0.43324599574E+03  0.43390508085E+03  0.00000000000E+00 0. -1.
        -15    1    1    2    0    0  0.36405691919E+01 -0.21201631805E+02 -0.58591451091E+02  0.62441002596E+02  0.17770000000E+01 0. -1.
         15    1    1    2    0    0  0.35786157873E+01  0.59573985672E+01 -0.36957411471E+01  0.80692825126E+01  0.17770000000E+01 0.  1.
</event>
<event>
 6    1  0.1823098E-004  0.5031375E+03  0.7546771E-02  0.9392817E-01
        -11   -1    0    0    0    0  0.00000000000E+00  0.00000000000E+00  0.50000000000E+03  0.50000000000E+03  0.00000000000E+00 0.  1.
         11   -1    0    0    0    0 -0.00000000000E+00 -0.00000000000E+00 -0.50000000000E+03  0.50000000000E+03  0.00000000000E+00 0.  1.
        -11    1    1    2    0    0  0.64823048368E+01  0.11891081551E+01  0.47395727496E+03  0.47400309360E+03  0.00000000000E+00 0.  1.
         11    1    1    2    0    0 -0.76607212235E+01 -0.17687630984E+02 -0.49648850918E+03  0.49686253500E+03  0.00000000000E+00 0.  1.
        -15    1    1    2    0    0 -0.29960242402E+01  0.87535877816E+01  0.10240669866E+02  0.13915117987E+02  0.17770000000E+01 0.  1.
         15    1    1    2    0    0  0.41744406270E+01  0.77449350476E+01  0.12290564354E+02  0.15219253417E+02  0.17770000000E+01 0. -1.
</event>
<event>
 6    1  0.1823098E-004  0.5009378E+03  0.7546771E-02  0.9397714E-01
        -11   -1    0    0    0    0  0.00000000000E+00  0.00000000000E+00  0.50000000000E+03  0.50000000000E+03  0.00000000000E+00 0.  1.
         11   -1    0    0    0    0 -0.00000000000E+00 -0.00000000000E+00 -0.50000000000E+03  0.50000000000E+03  0.00000000000E+00 0. -1.
        -11    1    1    2    0    0  0.68856905321E+01 -0.18666769407E+01  0.49901117549E+03  0.49906217096E+03  0.00000000000E+00 0.  1.
         11    1    1    2    0    0  0.95958035372E+01 -0.17220432739E-01 -0.32231324706E+02  0.33629422153E+02  0.00000000000E+00 0. -1.
        -15    1    1    2    0    0 -0.67349901117E+01  0.60500197932E+01 -0.11689355624E+03  0.11725708529E+03  0.17770000000E+01 0.  1.
         15    1    1    2    0    0 -0.97465039576E+01 -0.41661224198E+01 -0.34988629454E+03  0.35005132160E+03  0.17770000000E+01 0. -1.
</event>
<event>
 6    1  0.1823098E-004  0.3426262E+03  0.7546771E-02  0.9842986E-01
        -11   -1    0    0    0    0  0.00000000000E+00  0.00000000000E+00  0.50000000000E+03  0.50000000000E+03  0.00000000000E+00 0. -1.
         11   -1    0    0    0    0 -0.00000000000E+00 -0.00000000000E+00 -0.50000000000E+03  0.50000000000E+03  0.00000000000E+00 0. -1.
        -11    1    1    2    0    0 -0.19596869469E+03  0.21980953891E+02  0.17950284876E+03  0.26666114143E+03  0.00000000000E+00 0. -1.
         11    1    1    2    0    0  0.82524249461E+02 -0.39585973524E+02  0.26097646330E+03  0.27656105193E+03  0.00000000000E+00 0. -1.
        -15    1    1    2    0    0  0.65419620067E+01  0.11157749501E+02 -0.33929282102E+02  0.36354457138E+02  0.17770000000E+01 0.  1.
         15    1    1    2    0    0  0.10690248322E+03  0.64472701318E+01 -0.40655002996E+03  0.42042334950E+03  0.17770000000E+01 0. -1.
</event>
<event>
 6    1  0.1823098E-004  0.5000976E+03  0.7546771E-02  0.9399591E-01
        -11   -1    0    0    0    0  0.00000000000E+00  0.00000000000E+00  0.50000000000E+03  0.50000000000E+03  0.00000000000E+00 0.  1.
         11   -1    0    0    0    0 -0.00000000000E+00 -0.00000000000E+00 -0.50000000000E+03  0.50000000000E+03  0.00000000000E+00 0. -1.
        -11    1    1    2    0    0  0.72354195081E+01 -0.13798244326E+02  0.30753877418E+03  0.30793317532E+03  0.00000000000E+00 0.  1.
         11    1    1    2    0    0 -0.54239093558E+01  0.16025127155E+02 -0.49961605704E+03  0.49990241842E+03  0.00000000000E+00 0. -1.
        -15    1    1    2    0    0  0.16952449630E+00  0.61810344384E+00  0.60926358783E+02  0.60955637262E+02  0.17770000000E+01 0.  1.
         15    1    1    2    0    0 -0.19810346486E+01 -0.28449862735E+01  0.13115092408E+03  0.13120876899E+03  0.17770000000E+01 0.  1.
</event>
<event>
 6    1  0.1823098E-004  0.4909766E+03  0.7546771E-02  0.9420230E-01
        -11   -1    0    0    0    0  0.00000000000E+00  0.00000000000E+00  0.50000000000E+03  0.50000000000E+03  0.00000000000E+00 0. -1.
         11   -1    0    0    0    0 -0.00000000000E+00 -0.00000000000E+00 -0.50000000000E+03  0.50000000000E+03  0.00000000000E+00 0. -1.
        -11    1    1    2    0    0  0.61086363447E+01  0.65080838521E+01  0.49243803875E+03  0.49251892614E+03  0.00000000000E+00 0. -1.
         11    1    1    2    0    0  0.48649413173E+01  0.62425304983E+01 -0.48951882588E+03  0.48958279967E+03  0.00000000000E+00 0. -1.
        -15    1    1    2    0    0 -0.95662216063E+01 -0.10223538453E+02 -0.14120333738E+01  0.14183966355E+02  0.17770000000E+01 0. -1.
         15    1    1    2    0    0 -0.14073560557E+01 -0.25270758978E+01 -0.15071795002E+01  0.37143078368E+01  0.17770000000E+01 0.  1.
</event>
<event>
 6    1  0.1823098E-004  0.5001600E+03  0.7546771E-02  0.9399452E-01
        -11   -1    0    0    0    0  0.00000000000E+00  0.00000000000E+00  0.50000000000E+03  0.50000000000E+03  0.00000000000E+00 0.  1.
         11   -1    0    0    0    0 -0.00000000000E+00 -0.00000000000E+00 -0.50000000000E+03  0.50000000000E+03  0.00000000000E+00 0. -1.
        -11    1    1    2    0    0  0.44756622171E+01  0.77513265562E+01  0.49975982029E+03  0.49983996698E+03  0.00000000000E+00 0.  1.
         11    1    1    2    0    0 -0.40027240846E+00  0.12356946634E+01 -0.36126696645E+01  0.38390808024E+01  0.00000000000E+00 0. -1.
        -15    1    1    2    0    0 -0.45125185785E+01 -0.69911314369E+01 -0.45747336773E+03  0.45755248732E+03  0.17770000000E+01 0. -1.
         15    1    1    2    0    0  0.43712876983E+00 -0.19958897827E+01 -0.38673782896E+02  0.38768464892E+02  0.17770000000E+01 0. -1.
</event>
<event>
 6    1  0.1823098E-004  0.5064195E+03  0.7546771E-02  0.9385559E-01
        -11   -1    0    0    0    0  0.00000000000E+00  0.00000000000E+00  0.50000000000E+03  0.50000000000E+03  0.00000000000E+00 0.  1.
         11   -1    0    0    0    0 -0.00000000000E+00 -0.00000000000E+00 -0.50000000000E+03  0.50000000000E+03  0.00000000000E+00 0.  1.
        -11    1    1    2    0    0  0.97839592556E+01  0.16984690981E+01  0.35673701109E+03  0.35687519631E+03  0.00000000000E+00 0.  1.
         11    1    1    2    0    0  0.16949437708E+02 -0.12261386099E+02 -0.49313699480E+03  0.49358051083E+03  0.00000000000E+00 0.  1.
        -15    1    1    2    0    0 -0.81045247161E+00  0.10026888989E+02  0.11614717994E+03  0.11659554225E+03  0.17770000000E+01 0. -1.
         15    1    1    2    0    0 -0.25922944492E+02  0.53602801172E+00  0.20252803776E+02  0.32948750613E+02  0.17770000000E+01 0.  1.
</event>
<event>
 6    1  0.1823098E-004  0.5001875E+03  0.7546771E-02  0.9399390E-01
        -11   -1    0    0    0    0  0.00000000000E+00  0.00000000000E+00  0.50000000000E+03  0.50000000000E+03  0.00000000000E+00 0.  1.
         11   -1    0    0    0    0 -0.00000000000E+00 -0.00000000000E+00 -0.50000000000E+03  0.50000000000E+03  0.00000000000E+00 0.  1.
        -11    1    1    2    0    0 -0.35610717287E+02 -0.12919430777E+02  0.49837488789E+03  0.49981252861E+03  0.00000000000E+00 0.  1.
         11    1    1    2    0    0  0.17020679803E+02  0.68888422557E+00 -0.25182754738E+03  0.25240303430E+03  0.00000000000E+00 0.  1.
        -15    1    1    2    0    0  0.72063853434E+01  0.22343251593E+00 -0.52127444493E+02  0.52653680880E+02  0.17770000000E+01 0. -1.
         15    1    1    2    0    0  0.11383652140E+02  0.12007114036E+02 -0.19441989601E+03  0.19513075621E+03  0.17770000000E+01 0.  1.
</event>
<event>
 6    1  0.1823098E-004  0.5026614E+03  0.7546771E-02  0.9393874E-01
        -11   -1    0    0    0    0  0.00000000000E+00  0.00000000000E+00  0.50000000000E+03  0.50000000000E+03  0.00000000000E+00 0.  1.
         11   -1    0    0    0    0 -0.00000000000E+00 -0.00000000000E+00 -0.50000000000E+03  0.50000000000E+03  0.00000000000E+00 0.  1.
        -11    1    1    2    0    0  0.55401452294E-01 -0.78986299524E+01  0.48645326522E+03  0.48651738989E+03  0.00000000000E+00 0.  1.
         11    1    1    2    0    0 -0.93373875262E+01  0.51926473832E+01 -0.49722381056E+03  0.49733858506E+03  0.00000000000E+00 0.  1.
        -15    1    1    2    0    0  0.32721503418E+01 -0.19554637382E+01  0.34635868749E+01  0.54483914443E+01  0.17770000000E+01 0. -1.
         15    1    1    2    0    0  0.60098357321E+01  0.46614463074E+01  0.73069584688E+01  0.10695633608E+02  0.17770000000E+01 0.  1.
</event>
<event>
 6    1  0.1823098E-004  0.4920744E+03  0.7546771E-02  0.9417721E-01
        -11   -1    0    0    0    0  0.00000000000E+00  0.00000000000E+00  0.50000000000E+03  0.50000000000E+03  0.00000000000E+00 0.  1.
         11   -1    0    0    0    0 -0.00000000000E+00 -0.00000000000E+00 -0.50000000000E+03  0.50000000000E+03  0.00000000000E+00 0. -1.
        -11    1    1    2    0    0  0.16124007340E+03  0.43101665767E+03  0.18000575048E+03  0.49414146827E+03  0.00000000000E+00 0.  1.
         11    1    1    2    0    0 -0.16330599002E+03 -0.43159354591E+03 -0.16515858537E+03  0.49012161099E+03  0.00000000000E+00 0. -1.
        -15    1    1    2    0    0  0.17121231637E+01  0.80978378712E-01 -0.12444574488E+02  0.12687122858E+02  0.17770000000E+01 0. -1.
         15    1    1    2    0    0  0.35379345393E+00  0.49590986208E+00 -0.24025906253E+01  0.30497978805E+01  0.17770000000E+01 0.  1.
</event>
<event>
 6    1  0.1823098E-004  0.5040297E+03  0.7546771E-02  0.9390838E-01
        -11   -1    0    0    0    0  0.00000000000E+00  0.00000000000E+00  0.50000000000E+03  0.50000000000E+03  0.00000000000E+00 0. -1.
         11   -1    0    0    0    0 -0.00000000000E+00 -0.00000000000E+00 -0.50000000000E+03  0.50000000000E+03  0.00000000000E+00 0. -1.
        -11    1    1    2    0    0 -0.56253823356E+01  0.44344589358E+01  0.49591861590E+03  0.49597034483E+03  0.00000000000E+00 0. -1.
         11    1    1    2    0    0 -0.11427858509E+02 -0.12773045727E+02 -0.45983279553E+03  0.46015209061E+03  0.00000000000E+00 0. -1.
        -15    1    1    2    0    0  0.14813088385E+02  0.12009736907E+02 -0.33408384791E+02  0.38508950536E+02  0.17770000000E+01 0. -1.
         15    1    1    2    0    0  0.22401524601E+01 -0.36711501153E+01 -0.26774355783E+01  0.53686140194E+01  0.17770000000E+01 0.  1.
</event>
<event>
 6    1  0.1823098E-004  0.5022145E+03  0.7546771E-02  0.9394868E-01
        -11   -1    0    0    0    0  0.00000000000E+00  0.00000000000E+00  0.50000000000E+03  0.50000000000E+03  0.00000000000E+00 0.  1.
         11   -1    0    0    0    0 -0.00000000000E+00 -0.00000000000E+00 -0.50000000000E+03  0.50000000000E+03  0.00000000000E+00 0.  1.
        -11    1    1    2    0    0 -0.59572514612E+01  0.83462886669E+01  0.49767989746E+03  0.49778552582E+03  0.00000000000E+00 0.  1.
         11    1    1    2    0    0 -0.61793217272E+01  0.61702838733E+01 -0.99063339818E+01  0.13205751514E+02  0.00000000000E+00 0.  1.
        -15    1    1    2    0    0  0.78464017961E+01 -0.21264131442E+02 -0.43589551011E+03  0.43648800988E+03  0.17770000000E+01 0.  1.
         15    1    1    2    0    0  0.42901713922E+01  0.67475589020E+01 -0.51878053371E+02  0.52520712793E+02  0.17770000000E+01 0. -1.
</event>
<event>
 6    1  0.1823098E-004  0.5035775E+03  0.7546771E-02  0.9391840E-01
        -11   -1    0    0    0    0  0.00000000000E+00  0.00000000000E+00  0.50000000000E+03  0.50000000000E+03  0.00000000000E+00 0. -1.
         11   -1    0    0    0    0 -0.00000000000E+00 -0.00000000000E+00 -0.50000000000E+03  0.50000000000E+03  0.00000000000E+00 0.  1.
        -11    1    1    2    0    0  0.98258677481E+01 -0.87258113427E+01  0.49624850345E+03  0.49642246589E+03  0.00000000000E+00 0. -1.
         11    1    1    2    0    0  0.55693553971E+01  0.13877238262E+02 -0.46933091961E+03  0.46956906580E+03  0.00000000000E+00 0.  1.
        -15    1    1    2    0    0 -0.79384103561E+01  0.28874375656E+01 -0.66501305843E+01  0.10896679332E+02  0.17770000000E+01 0. -1.
         15    1    1    2    0    0 -0.74568127891E+01 -0.80388644845E+01 -0.20267453259E+02  0.23111788978E+02  0.17770000000E+01 0.  1.
</event>
<event>
 6    1  0.1823098E-004  0.4913250E+03  0.7546771E-02  0.9419433E-01
        -11   -1    0    0    0    0  0.00000000000E+00  0.00000000000E+00  0.50000000000E+03  0.50000000000E+03  0.00000000000E+00 0. -1.
         11   -1    0    0    0    0 -0.00000000000E+00 -0.00000000000E+00 -0.50000000000E+03  0.50000000000E+03  0.00000000000E+00 0.  1.
        -11    1    1    2    0    0  0.70477814618E+01 -0.35840401727E+01  0.48976514481E+03  0.48982896365E+03  0.00000000000E+00 0. -1.
         11    1    1    2    0    0 -0.17445367830E+02  0.19178072802E+01 -0.49256895981E+03  0.49288152634E+03  0.00000000000E+00 0.  1.
        -15    1    1    2    0    0  0.12296968929E+02  0.25436872337E+01 -0.85987502013E+00  0.12711526408E+02  0.17770000000E+01 0.  1.
         15    1    1    2    0    0 -0.18993825607E+01 -0.87745434123E+00  0.36636900205E+01  0.45779835954E+01  0.17770000000E+01 0. -1.
</event>
<event>
 6    1  0.1823098E-004  0.5011351E+03  0.7546771E-02  0.9397273E-01
        -11   -1    0    0    0    0  0.00000000000E+00  0.00000000000E+00  0.50000000000E+03  0.50000000000E+03  0.00000000000E+00 0. -1.
         11   -1    0    0    0    0 -0.00000000000E+00 -0.00000000000E+00 -0.50000000000E+03  0.50000000000E+03  0.00000000000E+00 0. -1.
        -11    1    1    2    0    0  0.77791340244E+00 -0.69583001012E+01  0.49881575964E+03  0.49886489670E+03  0.00000000000E+00 0. -1.
         11    1    1    2    0    0 -0.98609378240E+01 -0.88785855722E+01 -0.38767506867E+03  0.38790208332E+03  0.00000000000E+00 0. -1.
        -15    1    1    2    0    0  0.24431539533E+01  0.14295252411E+02 -0.73214485342E+02  0.74658166570E+02  0.17770000000E+01 0.  1.
         15    1    1    2    0    0  0.66398704683E+01  0.15416332627E+01 -0.37926205631E+02  0.38574853409E+02  0.17770000000E+01 0. -1.
</event>
<event>
 6    1  0.1823098E-004  0.5013649E+03  0.7546771E-02  0.9396761E-01
        -11   -1    0    0    0    0  0.00000000000E+00  0.00000000000E+00  0.50000000000E+03  0.50000000000E+03  0.00000000000E+00 0.  1.
         11   -1    0    0    0    0 -0.00000000000E+00 -0.00000000000E+00 -0.50000000000E+03  0.50000000000E+03  0.00000000000E+00 0. -1.
        -11    1    1    2    0    0 -0.10230499667E+02 -0.68879602235E+00  0.49852966800E+03  0.49863510450E+03  0.00000000000E+00 0.  1.
         11    1    1    2    0    0 -0.63710611707E+01  0.78087582869E+01 -0.42133410374E+03  0.42145461690E+03  0.00000000000E+00 0. -1.
        -15    1    1    2    0    0  0.69263184435E+01 -0.12441868238E+01 -0.14948367368E+02  0.16617259221E+02  0.17770000000E+01 0. -1.
         15    1    1    2    0    0  0.96752423944E+01 -0.58757754408E+01 -0.62247196891E+02  0.63293019380E+02  0.17770000000E+01 0.  1.
</event>
<event>
 6    1  0.1823098E-004  0.5025694E+03  0.7546771E-02  0.9394079E-01
        -11   -1    0    0    0    0  0.00000000000E+00  0.00000000000E+00  0.50000000000E+03  0.50000000000E+03  0.00000000000E+00 0.  1.
         11   -1    0    0    0    0 -0.00000000000E+00 -0.00000000000E+00 -0.50000000000E+03  0.50000000000E+03  0.00000000000E+00 0.  1.
        -11    1    1    2    0    0 -0.16348365537E+01  0.69455273229E+01  0.27411024886E+03  0.27420310277E+03  0.00000000000E+00 0.  1.
         11    1    1    2    0    0 -0.30275327755E+02 -0.49950622449E+01 -0.49648329219E+03  0.49743060374E+03  0.00000000000E+00 0.  1.
        -15    1    1    2    0    0 -0.26708222773E+01 -0.89435186800E+01  0.13389761037E+02  0.16418381395E+02  0.17770000000E+01 0. -1.
         15    1    1    2    0    0  0.34580986586E+02  0.69930536019E+01  0.20898328229E+03  0.21194791209E+03  0.17770000000E+01 0.  1.
</event>
<event>
 6    1  0.1823098E-004  0.4747011E+03  0.7546771E-02  0.9458268E-01
        -11   -1    0    0    0    0  0.00000000000E+00  0.00000000000E+00  0.50000000000E+03  0.50000000000E+03  0.00000000000E+00 0. -1.
         11   -1    0    0    0    0 -0.00000000000E+00 -0.00000000000E+00 -0.50000000000E+03  0.50000000000E+03  0.00000000000E+00 0.  1.
        -11    1    1    2    0    0 -0.78558904586E+01 -0.12775489609E+02  0.48656746188E+03  0.48679854469E+03  0.00000000000E+00 0. -1.
         11    1    1    2    0    0 -0.29943062923E+02  0.90241257040E+01 -0.46260936835E+03  0.46366523435E+03  0.00000000000E+00 0.  1.
        -15    1    1    2    0    0  0.36703730042E+02  0.62544576364E+01 -0.26216210052E+02  0.45571146988E+02  0.17770000000E+01 0. -1.
         15    1    1    2    0    0  0.10952233393E+01 -0.25030937311E+01  0.22581165195E+01  0.39650739722E+01  0.17770000000E+01 0.  1.
</event>
<event>
 6    1  0.1823098E-004  0.5010794E+03  0.7546771E-02  0.9397398E-01
        -11   -1    0    0    0    0  0.00000000000E+00  0.00000000000E+00  0.50000000000E+03  0.50000000000E+03  0.00000000000E+00 0.  1.
         11   -1    0    0    0    0 -0.00000000000E+00 -0.00000000000E+00 -0.50000000000E+03  0.50000000000E+03  0.00000000000E+00 0.  1.
        -11    1    1    2    0    0 -0.44904466730E+01 -0.65686333838E+01  0.42058292228E+03  0.42065818139E+03  0.00000000000E+00 0.  1.
         11    1    1    2    0    0 -0.72900705022E+01  0.91059906514E+01 -0.49878422427E+03  0.49892060147E+03  0.00000000000E+00 0.  1.
        -15    1    1    2    0    0  0.41873160752E+01  0.22473737087E+01  0.58268133307E+02  0.58488609084E+02  0.17770000000E+01 0.  1.
         15    1    1    2    0    0  0.75932010999E+01 -0.47847309764E+01  0.19933168684E+02  0.21932608059E+02  0.17770000000E+01 0. -1.
</event>
<event>
 6    1  0.1823098E-004  0.5019491E+03  0.7546771E-02  0.9395459E-01
        -11   -1    0    0    0    0  0.00000000000E+00  0.00000000000E+00  0.50000000000E+03  0.50000000000E+03  0.00000000000E+00 0. -1.
         11   -1    0    0    0    0 -0.00000000000E+00 -0.00000000000E+00 -0.50000000000E+03  0.50000000000E+03  0.00000000000E+00 0.  1.
        -11    1    1    2    0    0 -0.99686720686E+01  0.11963542009E+02  0.45763692165E+03  0.45790179385E+03  0.00000000000E+00 0. -1.
         11    1    1    2    0    0  0.15450016741E+02  0.17414212496E+01 -0.49780818829E+03  0.49805092901E+03  0.00000000000E+00 0.  1.
        -15    1    1    2    0    0 -0.38239012240E+01 -0.98140692456E+01  0.14727456197E+02  0.18193236951E+02  0.17770000000E+01 0. -1.
         15    1    1    2    0    0 -0.16574434488E+01 -0.38908940131E+01  0.25443810442E+02  0.25854040184E+02  0.17770000000E+01 0.  1.
</event>
<event>
 6    1  0.1823098E-004  0.5010235E+03  0.7546771E-02  0.9397522E-01
        -11   -1    0    0    0    0  0.00000000000E+00  0.00000000000E+00  0.50000000000E+03  0.50000000000E+03  0.00000000000E+00 0.  1.
         11   -1    0    0    0    0 -0.00000000000E+00 -0.00000000000E+00 -0.50000000000E+03  0.50000000000E+03  0.00000000000E+00 0.  1.
        -11    1    1    2    0    0  0.49073585233E+01  0.74822792251E+01  0.49889627071E+03  0.49897650806E+03  0.00000000000E+00 0.  1.
         11    1    1    2    0    0  0.69365227282E+01  0.32943419752E+01 -0.43112165596E+03  0.43119003963E+03  0.00000000000E+00 0.  1.
        -15    1    1    2    0    0 -0.10390051410E+02 -0.81540180875E+01 -0.52307768434E+02  0.53978713831E+02  0.17770000000E+01 0.  1.
         15    1    1    2    0    0 -0.14538298414E+01 -0.26226031129E+01 -0.15466846312E+02  0.15854738476E+02  0.17770000000E+01 0. -1.
</event>
<event>
 6    1  0.1823098E-004  0.5022733E+03  0.7546771E-02  0.9394737E-01
        -11   -1    0    0    0    0  0.00000000000E+00  0.00000000000E+00  0.50000000000E+03  0.50000000000E+03  0.00000000000E+00 0.  1.
         11   -1    0    0    0    0 -0.00000000000E+00 -0.00000000000E+00 -0.50000000000E+03  0.50000000000E+03  0.00000000000E+00 0.  1.
        -11    1    1    2    0    0  0.64373457482E+01 -0.61566809763E+01  0.45880417354E+03  0.45889063381E+03  0.00000000000E+00 0.  1.
         11    1    1    2    0    0 -0.42723671436E+01 -0.11089354961E+02 -0.49758485738E+03  0.49772674954E+03  0.00000000000E+00 0.  1.
        -15    1    1    2    0    0 -0.39964634788E+01  0.14225754843E+02  0.34399433209E+02  0.37480962572E+02  0.17770000000E+01 0.  1.
         15    1    1    2    0    0  0.18314848742E+01  0.30202810934E+01  0.43812506342E+01  0.59016540773E+01  0.17770000000E+01 0. -1.
</event>
<event>
 6    1  0.1823098E-004  0.5008732E+03  0.7546771E-02  0.9397858E-01
        -11   -1    0    0    0    0  0.00000000000E+00  0.00000000000E+00  0.50000000000E+03  0.50000000000E+03  0.00000000000E+00 0.  1.
         11   -1    0    0    0    0 -0.00000000000E+00 -0.00000000000E+00 -0.50000000000E+03  0.50000000000E+03  0.00000000000E+00 0. -1.
        -11    1    1    2    0    0 -0.68006794817E+01  0.23515267543E+01  0.49907490081E+03  0.49912677301E+03  0.00000000000E+00 0.  1.
         11    1    1    2    0    0  0.13908720661E+02 -0.11060078203E+02 -0.98274035328E+02  0.99867731825E+02  0.00000000000E+00 0. -1.
        -15    1    1    2    0    0 -0.34127696958E+01  0.69698026292E+01 -0.20612753432E+03  0.20628122377E+03  0.17770000000E+01 0. -1.
         15    1    1    2    0    0 -0.36952714832E+01  0.17387488196E+01 -0.19467333116E+03  0.19472427140E+03  0.17770000000E+01 0. -1.
</event>
<event>
 6    1  0.1823098E-004  0.5014508E+03  0.7546771E-02  0.9396569E-01
        -11   -1    0    0    0    0  0.00000000000E+00  0.00000000000E+00  0.50000000000E+03  0.50000000000E+03  0.00000000000E+00 0. -1.
         11   -1    0    0    0    0 -0.00000000000E+00 -0.00000000000E+00 -0.50000000000E+03  0.50000000000E+03  0.00000000000E+00 0.  1.
        -11    1    1    2    0    0  0.56823396402E+01  0.66827150840E+01  0.45802437887E+03  0.45810837070E+03  0.00000000000E+00 0. -1.
         11    1    1    2    0    0  0.36252715338E+01 -0.10749857650E+02 -0.49842011777E+03  0.49854921104E+03  0.00000000000E+00 0.  1.
        -15    1    1    2    0    0 -0.10302119171E+02 -0.45350676199E+00  0.31004264391E+02  0.32722491764E+02  0.17770000000E+01 0.  1.
         15    1    1    2    0    0  0.99450799680E+00  0.45206493277E+01  0.93914745044E+01  0.10619926500E+02  0.17770000000E+01 0. -1.
</event>
<event>
 6    1  0.1823098E-004  0.5027678E+03  0.7546771E-02  0.9393638E-01
        -11   -1    0    0    0    0  0.00000000000E+00  0.00000000000E+00  0.50000000000E+03  0.50000000000E+03  0.00000000000E+00 0.  1.
         11   -1    0    0    0    0 -0.00000000000E+00 -0.00000000000E+00 -0.50000000000E+03  0.50000000000E+03  0.00000000000E+00 0.  1.
        -11    1    1    2    0    0  0.92245026011E+01  0.76922400270E+01  0.39229050253E+03  0.39247433085E+03  0.00000000000E+00 0.  1.
         11    1    1    2    0    0 -0.26965586707E+02 -0.33390598446E+00 -0.49650031744E+03  0.49723215863E+03  0.00000000000E+00 0.  1.
        -15    1    1    2    0    0  0.23337338032E+02  0.34798811855E+01  0.72928484732E+02  0.76671132337E+02  0.17770000000E+01 0. -1.
         15    1    1    2    0    0 -0.55962539252E+01 -0.10838215228E+02  0.31281330180E+02  0.33622378175E+02  0.17770000000E+01 0.  1.
</event>
<event>
 6    1  0.1823098E-004  0.5008041E+03  0.7546771E-02  0.9398012E-01
        -11   -1    0    0    0    0  0.00000000000E+00  0.00000000000E+00  0.50000000000E+03  0.50000000000E+03  0.00000000000E+00 0.  1.
         11   -1    0    0    0    0 -0.00000000000E+00 -0.00000000000E+00 -0.50000000000E+03  0.50000000000E+03  0.00000000000E+00 0.  1.
        -11    1    1    2    0    0 -0.72478700009E+01  0.12685527154E+02  0.35428381688E+03  0.35458493640E+03  0.00000000000E+00 0.  1.
         11    1    1    2    0    0  0.81564016318E+01  0.59216437206E+01 -0.49909409331E+03  0.49919586009E+03  0.00000000000E+00 0.  1.
        -15    1    1    2    0    0 -0.25567238359E+01 -0.27874148378E+01  0.35049703825E+02  0.35297960075E+02  0.17770000000E+01 0.  1.
         15    1    1    2    0    0  0.16481922049E+01 -0.15819756037E+02  0.10976057260E+03  0.11092124343E+03  0.17770000000E+01 0. -1.
</event>
<event>
 6    1  0.1823098E-004  0.5000837E+03  0.7546771E-02  0.9399622E-01
        -11   -1    0    0    0    0  0.00000000000E+00  0.00000000000E+00  0.50000000000E+03  0.50000000000E+03  0.00000000000E+00 0. -1.
         11   -1    0    0    0    0 -0.00000000000E+00 -0.00000000000E+00 -0.50000000000E+03  0.50000000000E+03  0.00000000000E+00 0.  1.
        -11    1    1    2    0    0  0.81588998503E+01  0.46091109428E+00  0.49984948883E+03  0.49991628457E+03  0.00000000000E+00 0. -1.
         11    1    1    2    0    0 -0.15607657461E+01 -0.33155960122E+01 -0.52195548814E+02  0.52324033509E+02  0.00000000000E+00 0.  1.
        -15    1    1    2    0    0 -0.18484955823E+01  0.24015959796E+01 -0.88568825679E+02  0.88638474775E+02  0.17770000000E+01 0. -1.
         15    1    1    2    0    0 -0.47496385219E+01  0.45308893830E+00 -0.35908511434E+03  0.35912120715E+03  0.17770000000E+01 0.  1.
</event>
<event>
 6    1  0.1823098E-004  0.5007807E+03  0.7546771E-02  0.9398065E-01
        -11   -1    0    0    0    0  0.00000000000E+00  0.00000000000E+00  0.50000000000E+03  0.50000000000E+03  0.00000000000E+00 0.  1.
         11   -1    0    0    0    0 -0.00000000000E+00 -0.00000000000E+00 -0.50000000000E+03  0.50000000000E+03  0.00000000000E+00 0. -1.
        -11    1    1    2    0    0 -0.11445204513E+02 -0.24006981871E+01  0.49908229771E+03  0.49921928643E+03  0.00000000000E+00 0.  1.
         11    1    1    2    0    0  0.14920390311E+00 -0.86923057158E+01 -0.37135236983E+03  0.37145411698E+03  0.00000000000E+00 0. -1.
        -15    1    1    2    0    0  0.83334225077E+01  0.86424351899E+01 -0.11906409374E+03  0.11968105015E+03  0.17770000000E+01 0. -1.
         15    1    1    2    0    0  0.29625781023E+01  0.24505687130E+01 -0.86658341314E+01  0.96455464450E+01  0.17770000000E+01 0.  1.
</event>
<event>
 6    1  0.1823098E-004  0.5034475E+03  0.7546771E-02  0.9392129E-01
        -11   -1    0    0    0    0  0.00000000000E+00  0.00000000000E+00  0.50000000000E+03  0.50000000000E+03  0.00000000000E+00 0. -1.
         11   -1    0    0    0    0 -0.00000000000E+00 -0.00000000000E+00 -0.50000000000E+03  0.50000000000E+03  0.00000000000E+00 0. -1.
        -11    1    1    2    0    0 -0.10574505412E+03  0.91836984180E+02  0.47639093894E+03  0.49655248951E+03  0.00000000000E+00 0. -1.
         11    1    1    2    0    0  0.31276204813E+02 -0.27836145440E+02 -0.55385666507E+02  0.69430713916E+02  0.00000000000E+00 0. -1.
        -15    1    1    2    0    0  0.34505499440E+02 -0.71525287747E+01 -0.16589700713E+03  0.16960767336E+03  0.17770000000E+01 0.  1.
         15    1    1    2    0    0  0.39963349871E+02 -0.56848309965E+02 -0.25510826531E+03  0.26440912321E+03  0.17770000000E+01 0. -1.
</event>
<event>
 6    1  0.1823098E-004  0.5009281E+03  0.7546771E-02  0.9397735E-01
        -11   -1    0    0    0    0  0.00000000000E+00  0.00000000000E+00  0.50000000000E+03  0.50000000000E+03  0.00000000000E+00 0.  1.
         11   -1    0    0    0    0 -0.00000000000E+00 -0.00000000000E+00 -0.50000000000E+03  0.50000000000E+03  0.00000000000E+00 0. -1.
        -11    1    1    2    0    0 -0.67776275957E+01 -0.21137803992E+01  0.39014528496E+03  0.39020987645E+03  0.00000000000E+00 0.  1.
         11    1    1    2    0    0  0.27293902392E+01  0.13204968959E+02 -0.49888968481E+03  0.49907187697E+03  0.00000000000E+00 0. -1.
        -15    1    1    2    0    0  0.19735948933E+01 -0.14422019847E+02  0.59290513350E+02  0.61077102383E+02  0.17770000000E+01 0. -1.
         15    1    1    2    0    0  0.20746424633E+01  0.33308312876E+01  0.49453886501E+02  0.49641144200E+02  0.17770000000E+01 0.  1.
</event>
<event>
 6    1  0.1823098E-004  0.5057339E+03  0.7546771E-02  0.9387070E-01
        -11   -1    0    0    0    0  0.00000000000E+00  0.00000000000E+00  0.50000000000E+03  0.50000000000E+03  0.00000000000E+00 0.  1.
         11   -1    0    0    0    0 -0.00000000000E+00 -0.00000000000E+00 -0.50000000000E+03  0.50000000000E+03  0.00000000000E+00 0.  1.
        -11    1    1    2    0    0  0.19257116359E+02  0.43711428560E+01  0.49387148986E+03  0.49426611448E+03  0.00000000000E+00 0.  1.
         11    1    1    2    0    0 -0.43484238418E+01  0.95070508854E+01 -0.47244896446E+03  0.47256461656E+03  0.00000000000E+00 0.  1.
        -15    1    1    2    0    0  0.18587352237E+01 -0.11358560066E+01  0.34177928576E+00  0.28318911666E+01  0.17770000000E+01 0.  1.
         15    1    1    2    0    0 -0.16767427741E+02 -0.12742337735E+02 -0.21764304690E+02  0.30337377797E+02  0.17770000000E+01 0. -1.
</event>
<event>
 6    1  0.1823098E-004  0.5049683E+03  0.7546771E-02  0.9388761E-01
        -11   -1    0    0    0    0  0.00000000000E+00  0.00000000000E+00  0.50000000000E+03  0.50000000000E+03  0.00000000000E+00 0.  1.
         11   -1    0    0    0    0 -0.00000000000E+00 -0.00000000000E+00 -0.50000000000E+03  0.50000000000E+03  0.00000000000E+00 0. -1.
        -11    1    1    2    0    0  0.23055449195E+00  0.83433625406E+01  0.48558398160E+03  0.48565570937E+03  0.00000000000E+00 0.  1.
         11    1    1    2    0    0  0.49558493941E+01 -0.17051594477E+02 -0.49471314459E+03  0.49503172903E+03  0.00000000000E+00 0. -1.
        -15    1    1    2    0    0 -0.51260697435E+01  0.11249129469E+02  0.36413477792E+01  0.13009098642E+02  0.17770000000E+01 0. -1.
         15    1    1    2    0    0 -0.60334142493E-01 -0.25408975330E+01  0.54878152082E+01  0.63034629563E+01  0.17770000000E+01 0.  1.
</event>
<event>
 6    1  0.1823098E-004  0.4979772E+03  0.7546771E-02  0.9404347E-01
        -11   -1    0    0    0    0  0.00000000000E+00  0.00000000000E+00  0.50000000000E+03  0.50000000000E+03  0.00000000000E+00 0.  1.
         11   -1    0    0    0    0 -0.00000000000E+00 -0.00000000000E+00 -0.50000000000E+03  0.50000000000E+03  0.00000000000E+00 0. -1.
        -11    1    1    2    0    0 -0.89154486601E+01 -0.11176058722E+02  0.49971456158E+03  0.49991902601E+03  0.00000000000E+00 0.  1.
         11    1    1    2    0    0 -0.69918878345E+00 -0.19942595295E+00 -0.40500624183E+01  0.41148075603E+01  0.00000000000E+00 0. -1.
        -15    1    1    2    0    0  0.31271408517E+01  0.91681632556E+01 -0.23644647933E+03  0.23665149385E+03  0.17770000000E+01 0. -1.
         15    1    1    2    0    0  0.64874965919E+01  0.22073214196E+01 -0.25921801983E+03  0.25931467258E+03  0.17770000000E+01 0.  1.
</event>
<event>
 6    1  0.1823098E-004  0.5011161E+03  0.7546771E-02  0.9397316E-01
        -11   -1    0    0    0    0  0.00000000000E+00  0.00000000000E+00  0.50000000000E+03  0.50000000000E+03  0.00000000000E+00 0.  1.
         11   -1    0    0    0    0 -0.00000000000E+00 -0.00000000000E+00 -0.50000000000E+03  0.50000000000E+03  0.00000000000E+00 0. -1.
        -11    1    1    2    0    0 -0.26259774069E+02 -0.50371228703E+01  0.44328321604E+03  0.44408890772E+03  0.00000000000E+00 0.  1.
         11    1    1    2    0    0  0.40453483381E+02  0.33059864778E+01 -0.49723001246E+03  0.49888385338E+03  0.00000000000E+00 0. -1.
        -15    1    1    2    0    0 -0.11960772636E+02 -0.34424285949E+01  0.37484203518E+02  0.39536484911E+02  0.17770000000E+01 0.  1.
         15    1    1    2    0    0 -0.22329366759E+01  0.51735649874E+01  0.16462592909E+02  0.17490753991E+02  0.17770000000E+01 0. -1.
</event>
<event>
 6    1  0.1823098E-004  0.5008645E+03  0.7546771E-02  0.9397877E-01
        -11   -1    0    0    0    0  0.00000000000E+00  0.00000000000E+00  0.50000000000E+03  0.50000000000E+03  0.00000000000E+00 0. -1.
         11   -1    0    0    0    0 -0.00000000000E+00 -0.00000000000E+00 -0.50000000000E+03  0.50000000000E+03  0.00000000000E+00 0. -1.
        -11    1    1    2    0    0  0.66960970562E+01  0.68608279541E+00  0.49909007266E+03  0.49913546163E+03  0.00000000000E+00 0. -1.
         11    1    1    2    0    0 -0.27802140829E+01 -0.76637720576E+01 -0.47299974309E+03  0.47306999478E+03  0.00000000000E+00 0. -1.
        -15    1    1    2    0    0 -0.76828553025E+00  0.50409634295E+01 -0.16598179316E+02  0.17454479670E+02  0.17770000000E+01 0.  1.
         15    1    1    2    0    0 -0.31475974431E+01  0.19367258327E+01 -0.94921502495E+01  0.10340063925E+02  0.17770000000E+01 0. -1.
</event>
<event>
 6    1  0.1823098E-004  0.5003699E+03  0.7546771E-02  0.9398982E-01
        -11   -1    0    0    0    0  0.00000000000E+00  0.00000000000E+00  0.50000000000E+03  0.50000000000E+03  0.00000000000E+00 0. -1.
         11   -1    0    0    0    0 -0.00000000000E+00 -0.00000000000E+00 -0.50000000000E+03  0.50000000000E+03  0.00000000000E+00 0. -1.
        -11    1    1    2    0    0 -0.12221921014E+02 -0.17959594928E+02  0.49915759801E+03  0.49963009322E+03  0.00000000000E+00 0. -1.
         11    1    1    2    0    0  0.18702481884E+02  0.15401521246E+02 -0.27856590446E+03  0.27961751163E+03  0.00000000000E+00 0. -1.
        -15    1    1    2    0    0 -0.38653827434E+01  0.22742788882E+01 -0.96935468489E+02  0.97055429052E+02  0.17770000000E+01 0. -1.
         15    1    1    2    0    0 -0.26151781263E+01  0.28379479404E+00 -0.12365622506E+03  0.12369696609E+03  0.17770000000E+01 0. -1.
</event>
<event>
 6    1  0.1823098E-004  0.5007633E+03  0.7546771E-02  0.9398103E-01
        -11   -1    0    0    0    0  0.00000000000E+00  0.00000000000E+00  0.50000000000E+03  0.50000000000E+03  0.00000000000E+00 0. -1.
         11   -1    0    0    0    0 -0.00000000000E+00 -0.00000000000E+00 -0.50000000000E+03  0.50000000000E+03  0.00000000000E+00 0.  1.
        -11    1    1    2    0    0  0.29122957555E+02  0.26862703596E+02  0.27752031988E+03  0.28033422810E+03  0.00000000000E+00 0. -1.
         11    1    1    2    0    0 -0.60086896028E+02 -0.44768172477E+02 -0.49358150707E+03  0.49923674591E+03  0.00000000000E+00 0.  1.
        -15    1    1    2    0    0 -0.93564244910E+00  0.90469354713E+01  0.72460507206E+02  0.73050703637E+02  0.17770000000E+01 0. -1.
         15    1    1    2    0    0  0.31899580922E+02  0.88585334099E+01  0.14360067999E+03  0.14737832235E+03  0.17770000000E+01 0.  1.
</event>
<event>
 6    1  0.1823098E-004  0.5002990E+03  0.7546771E-02  0.9399141E-01
        -11   -1    0    0    0    0  0.00000000000E+00  0.00000000000E+00  0.50000000000E+03  0.50000000000E+03  0.00000000000E+00 0. -1.
         11   -1    0    0    0    0 -0.00000000000E+00 -0.00000000000E+00 -0.50000000000E+03  0.50000000000E+03  0.00000000000E+00 0. -1.
        -11    1    1    2    0    0 -0.45846821804E+01  0.39988764659E+01  0.31361431526E+03  0.31367331583E+03  0.00000000000E+00 0. -1.
         11    1    1    2    0    0  0.77519375462E+01  0.79568732936E+01 -0.49957749368E+03  0.49970098715E+03  0.00000000000E+00 0. -1.
        -15    1    1    2    0    0  0.30217086772E+01 -0.53283893990E+01  0.66176046642E+02  0.66482699517E+02  0.17770000000E+01 0.  1.
         15    1    1    2    0    0 -0.61889640431E+01 -0.66273603604E+01  0.11978713177E+03  0.12014299750E+03  0.17770000000E+01 0. -1.
</event>
<event>
 6    1  0.1823098E-004  0.4780590E+03  0.7546771E-02  0.9450289E-01
        -11   -1    0    0    0    0  0.00000000000E+00  0.00000000000E+00  0.50000000000E+03  0.50000000000E+03  0.00000000000E+00 0. -1.
         11   -1    0    0    0    0 -0.00000000000E+00 -0.00000000000E+00 -0.50000000000E+03  0.50000000000E+03  0.00000000000E+00 0.  1.
        -11    1    1    2    0    0  0.15535447715E+02 -0.11981110239E+02  0.47482340425E+03  0.47522853699E+03  0.00000000000E+00 0. -1.
         11    1    1    2    0    0  0.21120616897E+02  0.60265615623E+01 -0.48113011391E+03  0.48163117259E+03  0.00000000000E+00 0.  1.
        -15    1    1    2    0    0 -0.21061672710E+02 -0.56275584228E+01  0.85938884555E+01  0.23500555715E+02  0.17770000000E+01 0.  1.
         15    1    1    2    0    0 -0.15594391901E+02  0.11582107099E+02 -0.22871788038E+01  0.19639734711E+02  0.17770000000E+01 0. -1.
</event>
<event>
 6    1  0.1823098E-004  0.5102288E+03  0.7546771E-02  0.9377208E-01
        -11   -1    0    0    0    0  0.00000000000E+00  0.00000000000E+00  0.50000000000E+03  0.50000000000E+03  0.00000000000E+00 0. -1.
         11   -1    0    0    0    0 -0.00000000000E+00 -0.00000000000E+00 -0.50000000000E+03  0.50000000000E+03  0.00000000000E+00 0. -1.
        -11    1    1    2    0    0  0.10906306926E+02 -0.15144534074E+01  0.48964741182E+03  0.48977120066E+03  0.00000000000E+00 0. -1.
         11    1    1    2    0    0  0.13317286810E+02 -0.11772745857E+02 -0.46466639110E+03  0.46500623941E+03  0.00000000000E+00 0. -1.
        -15    1    1    2    0    0 -0.56132216794E+01  0.19567845355E+01  0.51039583264E+01  0.80340141235E+01  0.17770000000E+01 0.  1.
         15    1    1    2    0    0 -0.18610372057E+02  0.11330414729E+02 -0.30084979038E+02  0.37188545800E+02  0.17770000000E+01 0. -1.
</event>
<event>
 6    1  0.1823098E-004  0.4900759E+03  0.7546771E-02  0.9422294E-01
        -11   -1    0    0    0    0  0.00000000000E+00  0.00000000000E+00  0.50000000000E+03  0.50000000000E+03  0.00000000000E+00 0.  1.
         11   -1    0    0    0    0 -0.00000000000E+00 -0.00000000000E+00 -0.50000000000E+03  0.50000000000E+03  0.00000000000E+00 0.  1.
        -11    1    1    2    0    0  0.13480197104E+01 -0.11773857393E+02  0.48697020951E+03  0.48711438680E+03  0.00000000000E+00 0.  1.
         11    1    1    2    0    0 -0.10177170023E+02 -0.23905468873E+01 -0.49308785292E+03  0.49319866200E+03  0.00000000000E+00 0.  1.
        -15    1    1    2    0    0  0.31882600787E+01  0.42417497914E+01  0.59023951764E+01  0.81334765901E+01  0.17770000000E+01 0.  1.
         15    1    1    2    0    0  0.56408902339E+01  0.99226544888E+01  0.21524822459E+00  0.11553474609E+02  0.17770000000E+01 0. -1.
</event>
<event>
 6    1  0.1823098E-004  0.5068836E+03  0.7546771E-02  0.9384538E-01
        -11   -1    0    0    0    0  0.00000000000E+00  0.00000000000E+00  0.50000000000E+03  0.50000000000E+03  0.00000000000E+00 0.  1.
         11   -1    0    0    0    0 -0.00000000000E+00 -0.00000000000E+00 -0.50000000000E+03  0.50000000000E+03  0.00000000000E+00 0.  1.
        -11    1    1    2    0    0  0.37456575843E+01 -0.63337539961E+01  0.49306153357E+03  0.49311643886E+03  0.00000000000E+00 0.  1.
         11    1    1    2    0    0  0.72056916750E+01  0.13612192266E+02 -0.48460941386E+03  0.48485409947E+03  0.00000000000E+00 0.  1.
        -15    1    1    2    0    0 -0.10812368927E+02 -0.44561457973E+01 -0.12212004683E+02  0.17001627704E+02  0.17770000000E+01 0. -1.
         15    1    1    2    0    0 -0.13898033194E+00 -0.28222924730E+01  0.37598849779E+01  0.50278339653E+01  0.17770000000E+01 0.  1.
</event>
<event>
 6    1  0.1823098E-004  0.5074624E+03  0.7546771E-02  0.9383265E-01
        -11   -1    0    0    0    0  0.00000000000E+00  0.00000000000E+00  0.50000000000E+03  0.50000000000E+03  0.00000000000E+00 0. -1.
         11   -1    0    0    0    0 -0.00000000000E+00 -0.00000000000E+00 -0.50000000000E+03  0.50000000000E+03  0.00000000000E+00 0.  1.
        -11    1    1    2    0    0 -0.59924553959E+01  0.64369789751E+01  0.49245905921E+03  0.49253758153E+03  0.00000000000E+00 0. -1.
         11    1    1    2    0    0 -0.44391135206E+01 -0.42292336759E+02 -0.41196148537E+03  0.41415047133E+03  0.00000000000E+00 0.  1.
        -15    1    1    2    0    0  0.71328849802E+01  0.39758513191E+02 -0.61832478503E+02  0.73878485002E+02  0.17770000000E+01 0.  1.
         15    1    1    2    0    0  0.32986839363E+01 -0.39031554075E+01 -0.18665095338E+02  0.19433462142E+02  0.17770000000E+01 0. -1.
</event>
<event>
 6    1  0.1823098E-004  0.5044048E+03  0.7546771E-02  0.9390007E-01
        -11   -1    0    0    0    0  0.00000000000E+00  0.00000000000E+00  0.50000000000E+03  0.50000000000E+03  0.00000000000E+00 0. -1.
         11   -1    0    0    0    0 -0.00000000000E+00 -0.00000000000E+00 -0.50000000000E+03  0.50000000000E+03  0.00000000000E+00 0. -1.
        -11    1    1    2    0    0  0.10722177865E+02 -0.24044570687E+02  0.49489540735E+03  0.49559516815E+03  0.00000000000E+00 0. -1.
         11    1    1    2    0    0  0.71848365993E+01 -0.31160324818E+02 -0.25889624422E+03  0.26086366744E+03  0.00000000000E+00 0. -1.
        -15    1    1    2    0    0 -0.18394893071E+02  0.43328999952E+02 -0.20377952063E+03  0.20915311397E+03  0.17770000000E+01 0.  1.
         15    1    1    2    0    0  0.48787860611E+00  0.11875895552E+02 -0.32219642507E+02  0.34388050439E+02  0.17770000000E+01 0. -1.
</event>
<event>
 6    1  0.1823098E-004  0.4879291E+03  0.7546771E-02  0.9427232E-01
        -11   -1    0    0    0    0  0.00000000000E+00  0.00000000000E+00  0.50000000000E+03  0.50000000000E+03  0.00000000000E+00 0.  1.
         11   -1    0    0    0    0 -0.00000000000E+00 -0.00000000000E+00 -0.50000000000E+03  0.50000000000E+03  0.00000000000E+00 0.  1.
        -11    1    1    2    0    0 -0.64036162505E+01 -0.44178285641E+01  0.48765683811E+03  0.48771888959E+03  0.00000000000E+00 0.  1.
         11    1    1    2    0    0  0.12268896230E+02 -0.40637671878E+01 -0.48802271834E+03  0.48819382794E+03  0.00000000000E+00 0.  1.
        -15    1    1    2    0    0 -0.11800432539E+02 -0.21589480431E+00 -0.39464123322E+01  0.12570947377E+02  0.17770000000E+01 0. -1.
         15    1    1    2    0    0  0.59351525594E+01  0.86974905562E+01  0.43122925661E+01  0.11516335096E+02  0.17770000000E+01 0.  1.
</event>
<event>
 6    1  0.1823098E-004  0.5031890E+03  0.7546771E-02  0.9392702E-01
        -11   -1    0    0    0    0  0.00000000000E+00  0.00000000000E+00  0.50000000000E+03  0.50000000000E+03  0.00000000000E+00 0.  1.
         11   -1    0    0    0    0 -0.00000000000E+00 -0.00000000000E+00 -0.50000000000E+03  0.50000000000E+03  0.00000000000E+00 0. -1.
        -11    1    1    2    0    0  0.61101278835E+01  0.40220048933E+01  0.49675719342E+03  0.49681105000E+03  0.00000000000E+00 0.  1.
         11    1    1    2    0    0 -0.13640379934E+02  0.18441734914E+02 -0.21472912868E+03  0.21595081907E+03  0.00000000000E+00 0. -1.
        -15    1    1    2    0    0  0.68365348972E+01 -0.33055978074E+02 -0.26463055555E+03  0.26678066751E+03  0.17770000000E+01 0. -1.
         15    1    1    2    0    0  0.69371715342E+00  0.10592238266E+02 -0.17397509185E+02  0.20457463426E+02  0.17770000000E+01 0.  1.
</event>
<event>
 6    1  0.1823098E-004  0.5055391E+03  0.7546771E-02  0.9387500E-01
        -11   -1    0    0    0    0  0.00000000000E+00  0.00000000000E+00  0.50000000000E+03  0.50000000000E+03  0.00000000000E+00 0.  1.
         11   -1    0    0    0    0 -0.00000000000E+00 -0.00000000000E+00 -0.50000000000E+03  0.50000000000E+03  0.00000000000E+00 0. -1.
        -11    1    1    2    0    0 -0.55176174349E+01 -0.67769983787E+01  0.49438369034E+03  0.49446092372E+03  0.00000000000E+00 0.  1.
         11    1    1    2    0    0 -0.71721435325E+01  0.12199001298E+02 -0.48584598948E+03  0.48605203504E+03  0.00000000000E+00 0. -1.
        -15    1    1    2    0    0  0.10111560323E+02 -0.80629488461E+01 -0.47018304980E+01  0.13875148118E+02  0.17770000000E+01 0.  1.
         15    1    1    2    0    0  0.25782006439E+01  0.26409459266E+01 -0.38358703662E+01  0.56118931221E+01  0.17770000000E+01 0. -1.
</event>
<event>
 6    1  0.1823098E-004  0.5000738E+03  0.7546771E-02  0.9399644E-01
        -11   -1    0    0    0    0  0.00000000000E+00  0.00000000000E+00  0.50000000000E+03  0.50000000000E+03  0.00000000000E+00 0. -1.
         11   -1    0    0    0    0 -0.00000000000E+00 -0.00000000000E+00 -0.50000000000E+03  0.50000000000E+03  0.00000000000E+00 0. -1.
        -11    1    1    2    0    0 -0.63458186605E+01  0.51015523207E+01  0.49985984200E+03  0.49992615144E+03  0.00000000000E+00 0. -1.
         11    1    1    2    0    0  0.31921946309E+01  0.21532881588E+01 -0.65980459123E+02  0.66092720798E+02  0.00000000000E+00 0. -1.
        -15    1    1    2    0    0 -0.13178954122E+00 -0.39994459242E+01 -0.22889582124E+03  0.22893769381E+03  0.17770000000E+01 0. -1.
         15    1    1    2    0    0  0.32854135708E+01 -0.32553945553E+01 -0.20498356163E+03  0.20504343395E+03  0.17770000000E+01 0. -1.
</event>
<event>
 6    1  0.1823098E-004  0.5032798E+03  0.7546771E-02  0.9392501E-01
        -11   -1    0    0    0    0  0.00000000000E+00  0.00000000000E+00  0.50000000000E+03  0.50000000000E+03  0.00000000000E+00 0. -1.
         11   -1    0    0    0    0 -0.00000000000E+00 -0.00000000000E+00 -0.50000000000E+03  0.50000000000E+03  0.00000000000E+00 0. -1.
        -11    1    1    2    0    0 -0.11116366312E+01  0.86944200902E+01  0.49664283161E+03  0.49672017361E+03  0.00000000000E+00 0. -1.
         11    1    1    2    0    0  0.10652021360E+02  0.15955382770E+02 -0.43801033171E+03  0.43843025726E+03  0.00000000000E+00 0. -1.
        -15    1    1    2    0    0  0.39458395940E+00 -0.27177714152E+01 -0.43707599131E+01  0.54592352197E+01  0.17770000000E+01 0. -1.
         15    1    1    2    0    0 -0.99349686879E+01 -0.21932031445E+02 -0.54261739994E+02  0.59390333913E+02  0.17770000000E+01 0.  1.
</event>
<event>
 6    1  0.1823098E-004  0.5052238E+03  0.7546771E-02  0.9388196E-01
        -11   -1    0    0    0    0  0.00000000000E+00  0.00000000000E+00  0.50000000000E+03  0.50000000000E+03  0.00000000000E+00 0.  1.
         11   -1    0    0    0    0 -0.00000000000E+00 -0.00000000000E+00 -0.50000000000E+03  0.50000000000E+03  0.00000000000E+00 0. -1.
        -11    1    1    2    0    0 -0.69876018075E+01  0.55238922762E+01  0.49469598550E+03  0.49477616963E+03  0.00000000000E+00 0.  1.
         11    1    1    2    0    0 -0.20971335373E+02 -0.26446733670E+01 -0.45600293531E+03  0.45649257192E+03  0.00000000000E+00 0. -1.
        -15    1    1    2    0    0  0.87846612115E+01 -0.31590556062E+01 -0.18672250524E+02  0.20951385958E+02  0.17770000000E+01 0.  1.
         15    1    1    2    0    0  0.19174275969E+02  0.27983669701E+00 -0.20020799668E+02  0.27779872496E+02  0.17770000000E+01 0. -1.
</event>
<event>
 6    1  0.1823098E-004  0.5012919E+03  0.7546771E-02  0.9396924E-01
        -11   -1    0    0    0    0  0.00000000000E+00  0.00000000000E+00  0.50000000000E+03  0.50000000000E+03  0.00000000000E+00 0.  1.
         11   -1    0    0    0    0 -0.00000000000E+00 -0.00000000000E+00 -0.50000000000E+03  0.50000000000E+03  0.00000000000E+00 0.  1.
        -11    1    1    2    0    0  0.42683685019E+00  0.13777691987E+02  0.43153713589E+03  0.43175723114E+03  0.00000000000E+00 0.  1.
         11    1    1    2    0    0  0.95845637501E+01  0.27444433615E+00 -0.49861587984E+03  0.49870806571E+03  0.00000000000E+00 0.  1.
        -15    1    1    2    0    0 -0.16250642397E+01 -0.37992481940E+01  0.24442701172E+02  0.24853138438E+02  0.17770000000E+01 0.  1.
         15    1    1    2    0    0 -0.83863363607E+01 -0.10252888129E+02  0.42636042776E+02  0.44681564713E+02  0.17770000000E+01 0. -1.
</event>
<event>
 6    1  0.1823098E-004  0.5006114E+03  0.7546771E-02  0.9398443E-01
        -11   -1    0    0    0    0  0.00000000000E+00  0.00000000000E+00  0.50000000000E+03  0.50000000000E+03  0.00000000000E+00 0. -1.
         11   -1    0    0    0    0 -0.00000000000E+00 -0.00000000000E+00 -0.50000000000E+03  0.50000000000E+03  0.00000000000E+00 0.  1.
        -11    1    1    2    0    0  0.10151984859E+03 -0.12363727686E+02  0.48880453801E+03  0.49938864405E+03  0.00000000000E+00 0. -1.
         11    1    1    2    0    0 -0.84568643405E+02  0.26114913810E+01 -0.43121250419E+03  0.43943474954E+03  0.00000000000E+00 0.  1.
        -15    1    1    2    0    0 -0.12712266814E+02  0.96026921631E+01 -0.45263599642E+02  0.48018377793E+02  0.17770000000E+01 0.  1.
         15    1    1    2    0    0 -0.42389383745E+01  0.14954414147E+00 -0.12328434182E+02  0.13158228619E+02  0.17770000000E+01 0. -1.
</event>
<event>
 6    1  0.1823098E-004  0.5023749E+03  0.7546771E-02  0.9394511E-01
        -11   -1    0    0    0    0  0.00000000000E+00  0.00000000000E+00  0.50000000000E+03  0.50000000000E+03  0.00000000000E+00 0. -1.
         11   -1    0    0    0    0 -0.00000000000E+00 -0.00000000000E+00 -0.50000000000E+03  0.50000000000E+03  0.00000000000E+00 0. -1.
        -11    1    1    2    0    0 -0.59517366250E+00 -0.15139930951E+02  0.25573403595E+03  0.25618249137E+03  0.00000000000E+00 0. -1.
         11    1    1    2    0    0  0.83836095639E+01 -0.29507011461E+02 -0.49667878397E+03  0.49762512304E+03  0.00000000000E+00 0. -1.
        -15    1    1    2    0    0  0.76934803355E+01  0.12169223677E+02  0.73115651339E+02  0.74540833402E+02  0.17770000000E+01 0.  1.
         15    1    1    2    0    0 -0.15481916237E+02  0.32477718735E+02  0.16782909669E+03  0.17165155219E+03  0.17770000000E+01 0. -1.
</event>
<event>
 6    1  0.1823098E-004  0.5005479E+03  0.7546771E-02  0.9398585E-01
        -11   -1    0    0    0    0  0.00000000000E+00  0.00000000000E+00  0.50000000000E+03  0.50000000000E+03  0.00000000000E+00 0. -1.
         11   -1    0    0    0    0 -0.00000000000E+00 -0.00000000000E+00 -0.50000000000E+03  0.50000000000E+03  0.00000000000E+00 0. -1.
        -11    1    1    2    0    0  0.12017162952E+02 -0.74845253733E+01  0.49925138905E+03  0.49945207958E+03  0.00000000000E+00 0. -1.
         11    1    1    2    0    0 -0.25889141543E+01 -0.10854536158E+02 -0.86604548490E+02  0.87320508765E+02  0.00000000000E+00 0. -1.
        -15    1    1    2    0    0 -0.51691761534E+00  0.55127040809E+01 -0.81137044099E+02  0.81345158210E+02  0.17770000000E+01 0.  1.
         15    1    1    2    0    0 -0.89113311825E+01  0.12826357451E+02 -0.33150979647E+03  0.33188225344E+03  0.17770000000E+01 0. -1.
</event>
<event>
 6    1  0.1823098E-004  0.5004419E+03  0.7546771E-02  0.9398821E-01
        -11   -1    0    0    0    0  0.00000000000E+00  0.00000000000E+00  0.50000000000E+03  0.50000000000E+03  0.00000000000E+00 0.  1.
         11   -1    0    0    0    0 -0.00000000000E+00 -0.00000000000E+00 -0.50000000000E+03  0.50000000000E+03  0.00000000000E+00 0. -1.
        -11    1    1    2    0    0 -0.10114219395E+02 -0.37503059029E+01  0.49944160815E+03  0.49955808690E+03  0.00000000000E+00 0.  1.
         11    1    1    2    0    0  0.56975924154E+01 -0.98724073123E+01 -0.32945854027E+03  0.32965566390E+03  0.00000000000E+00 0. -1.
        -15    1    1    2    0    0  0.99730169266E+00 -0.14988524368E+00 -0.13904371945E+02  0.14053695757E+02  0.17770000000E+01 0.  1.
         15    1    1    2    0    0  0.34193252866E+01  0.13772598459E+02 -0.15607869594E+03  0.15673255344E+03  0.17770000000E+01 0. -1.
</event>
<event>
 6    1  0.1823098E-004  0.5020790E+03  0.7546771E-02  0.9395170E-01
        -11   -1    0    0    0    0  0.00000000000E+00  0.00000000000E+00  0.50000000000E+03  0.50000000000E+03  0.00000000000E+00 0. -1.
         11   -1    0    0    0    0 -0.00000000000E+00 -0.00000000000E+00 -0.50000000000E+03  0.50000000000E+03  0.00000000000E+00 0.  1.
        -11    1    1    2    0    0 -0.33297451778E+01  0.10079210896E+02  0.48642925203E+03  0.48654505950E+03  0.00000000000E+00 0. -1.
         11    1    1    2    0    0  0.79743755113E+01 -0.40271203449E+01 -0.49784088432E+03  0.49792103236E+03  0.00000000000E+00 0.  1.
        -15    1    1    2    0    0 -0.36917664589E+01 -0.41014410055E+01  0.27256234827E+01  0.64060682387E+01  0.17770000000E+01 0.  1.
         15    1    1    2    0    0 -0.95286387449E+00 -0.19506495455E+01  0.86860088061E+01  0.91278398974E+01  0.17770000000E+01 0. -1.
</event>
<event>
 6    1  0.1823098E-004  0.5004183E+03  0.7546771E-02  0.9398874E-01
        -11   -1    0    0    0    0  0.00000000000E+00  0.00000000000E+00  0.50000000000E+03  0.50000000000E+03  0.00000000000E+00 0.  1.
         11   -1    0    0    0    0 -0.00000000000E+00 -0.00000000000E+00 -0.50000000000E+03  0.50000000000E+03  0.00000000000E+00 0.  1.
        -11    1    1    2    0    0 -0.50532273524E+01 -0.13378066340E+01  0.36352818732E+03  0.36356576820E+03  0.00000000000E+00 0.  1.
         11    1    1    2    0    0  0.14696710378E+02 -0.68233711240E+01 -0.49931888177E+03  0.49958172243E+03  0.00000000000E+00 0.  1.
        -15    1    1    2    0    0 -0.11479474707E+01  0.73281977130E+01  0.44765387850E+02  0.45410548813E+02  0.17770000000E+01 0.  1.
         15    1    1    2    0    0 -0.84955355546E+01  0.83298004506E+00  0.91025306599E+02  0.91441960558E+02  0.17770000000E+01 0. -1.
</event>
<event>
 6    1  0.1823098E-004  0.5027478E+03  0.7546771E-02  0.9393682E-01
        -11   -1    0    0    0    0  0.00000000000E+00  0.00000000000E+00  0.50000000000E+03  0.50000000000E+03  0.00000000000E+00 0.  1.
         11   -1    0    0    0    0 -0.00000000000E+00 -0.00000000000E+00 -0.50000000000E+03  0.50000000000E+03  0.00000000000E+00 0.  1.
        -11    1    1    2    0    0  0.89766591400E+01 -0.33060594084E+01  0.49716018754E+03  0.49725221218E+03  0.00000000000E+00 0.  1.
         11    1    1    2    0    0 -0.16292030172E+02 -0.12762357628E+02 -0.66192713070E+02  0.69352601125E+02  0.00000000000E+00 0.  1.
        -15    1    1    2    0    0 -0.50201603801E+00  0.29730354837E+02 -0.26252636172E+03  0.26421088990E+03  0.17770000000E+01 0.  1.
         15    1    1    2    0    0  0.78173870703E+01 -0.13661937800E+02 -0.16844111276E+03  0.16918429679E+03  0.17770000000E+01 0. -1.
</event>
<event>
 6    1  0.1823098E-004  0.5001959E+03  0.7546771E-02  0.9399371E-01
        -11   -1    0    0    0    0  0.00000000000E+00  0.00000000000E+00  0.50000000000E+03  0.50000000000E+03  0.00000000000E+00 0. -1.
         11   -1    0    0    0    0 -0.00000000000E+00 -0.00000000000E+00 -0.50000000000E+03  0.50000000000E+03  0.00000000000E+00 0. -1.
        -11    1    1    2    0    0 -0.13100517001E+01  0.93797095337E+01  0.49971431220E+03  0.49980405060E+03  0.00000000000E+00 0. -1.
         11    1    1    2    0    0  0.60779139790E+01 -0.47707930426E+00 -0.20790329769E+03  0.20799266774E+03  0.00000000000E+00 0. -1.
        -15    1    1    2    0    0 -0.11111568325E+00 -0.88639227857E+00 -0.82927662032E+01  0.85279386880E+01  0.17770000000E+01 0. -1.
         15    1    1    2    0    0 -0.46567465956E+01 -0.80162379509E+01 -0.28351824831E+03  0.28367534297E+03  0.17770000000E+01 0.  1.
</event>
<event>
 6    1  0.1823098E-004  0.5001594E+03  0.7546771E-02  0.9399453E-01
        -11   -1    0    0    0    0  0.00000000000E+00  0.00000000000E+00  0.50000000000E+03  0.50000000000E+03  0.00000000000E+00 0.  1.
         11   -1    0    0    0    0 -0.00000000000E+00 -0.00000000000E+00 -0.50000000000E+03  0.50000000000E+03  0.00000000000E+00 0.  1.
        -11    1    1    2    0    0  0.44333039879E+01  0.84078697831E+01  0.14481216433E+03  0.14512377268E+03  0.00000000000E+00 0.  1.
         11    1    1    2    0    0 -0.24669531824E+02 -0.18841536339E+02 -0.49887574609E+03  0.49984057391E+03  0.00000000000E+00 0.  1.
        -15    1    1    2    0    0  0.10814238606E+02  0.64048388050E+01  0.27475522570E+03  0.27504828939E+03  0.17770000000E+01 0.  1.
         15    1    1    2    0    0  0.94219892293E+01  0.40288277506E+01  0.79308356061E+02  0.79987364028E+02  0.17770000000E+01 0. -1.
</event>
<event>
 6    1  0.1823098E-004  0.5025758E+03  0.7546771E-02  0.9394065E-01
        -11   -1    0    0    0    0  0.00000000000E+00  0.00000000000E+00  0.50000000000E+03  0.50000000000E+03  0.00000000000E+00 0.  1.
         11   -1    0    0    0    0 -0.00000000000E+00 -0.00000000000E+00 -0.50000000000E+03  0.50000000000E+03  0.00000000000E+00 0. -1.
        -11    1    1    2    0    0 -0.21854788954E+01  0.82252452110E+01  0.49735137213E+03  0.49742418350E+03  0.00000000000E+00 0.  1.
         11    1    1    2    0    0  0.89397959036E+01 -0.27021104383E+02 -0.43651948643E+03  0.43744636479E+03  0.00000000000E+00 0. -1.
        -15    1    1    2    0    0 -0.56505532625E+01  0.11867890824E+02 -0.22485491895E+02  0.26106142180E+02  0.17770000000E+01 0. -1.
         15    1    1    2    0    0 -0.11037637458E+01  0.69279683486E+01 -0.38346393802E+02  0.39023309528E+02  0.17770000000E+01 0.  1.
</event>
<event>
 6    1  0.1823098E-004  0.5004405E+03  0.7546771E-02  0.9398825E-01
        -11   -1    0    0    0    0  0.00000000000E+00  0.00000000000E+00  0.50000000000E+03  0.50000000000E+03  0.00000000000E+00 0. -1.
         11   -1    0    0    0    0 -0.00000000000E+00 -0.00000000000E+00 -0.50000000000E+03  0.50000000000E+03  0.00000000000E+00 0. -1.
        -11    1    1    2    0    0  0.11430296498E+02 -0.31055987261E+02  0.39014977893E+03  0.39155073237E+03  0.00000000000E+00 0. -1.
         11    1    1    2    0    0 -0.10048367451E+02  0.25824389236E+02 -0.49879032140E+03  0.49955945941E+03  0.00000000000E+00 0. -1.
        -15    1    1    2    0    0 -0.55244996290E+00  0.10414553637E+00  0.30095053707E+02  0.30152711883E+02  0.17770000000E+01 0. -1.
         15    1    1    2    0    0 -0.82947908464E+00  0.51274524887E+01  0.78545488764E+02  0.78737096332E+02  0.17770000000E+01 0.  1.
</event>
<event>
 6    1  0.1823098E-004  0.4862064E+03  0.7546771E-02  0.9431214E-01
        -11   -1    0    0    0    0  0.00000000000E+00  0.00000000000E+00  0.50000000000E+03  0.50000000000E+03  0.00000000000E+00 0. -1.
         11   -1    0    0    0    0 -0.00000000000E+00 -0.00000000000E+00 -0.50000000000E+03  0.50000000000E+03  0.00000000000E+00 0. -1.
        -11    1    1    2    0    0 -0.98074983316E+01  0.16447356122E+01  0.49050374070E+03  0.49060453710E+03  0.00000000000E+00 0. -1.
         11    1    1    2    0    0 -0.10478006088E+02 -0.11966331067E+02 -0.48185056275E+03  0.48211300181E+03  0.00000000000E+00 0. -1.
        -15    1    1    2    0    0  0.18647656180E+02  0.12580060705E+02 -0.76525340968E+01  0.23826708028E+02  0.17770000000E+01 0.  1.
         15    1    1    2    0    0  0.16378482399E+01 -0.22584652503E+01 -0.10006438569E+01  0.34557530687E+01  0.17770000000E+01 0. -1.
</event>
<event>
 6    1  0.5533062E-004  0.5000354E+03  0.7546771E-02  0.9399730E-01
        -11   -1    0    0    0    0  0.00000000000E+00  0.00000000000E+00  0.50000000000E+03  0.50000000000E+03  0.00000000000E+00 0. -1.
         11   -1    0    0    0    0 -0.00000000000E+00 -0.00000000000E+00 -0.50000000000E+03  0.50000000000E+03  0.00000000000E+00 0.  1.
        -11    1    1    2    0    0  0.11450878258E+01 -0.88977082575E+00  0.80360033879E+02  0.80373117168E+02  0.00000000000E+00 0. -1.
         11    1    1    2    0    0 -0.33646500746E+01 -0.85482663758E+01 -0.49988017207E+03  0.49996457891E+03  0.00000000000E+00 0.  1.
        -15    1    1    2    0    0  0.25754638387E+01  0.40294217759E+01  0.16776096890E+03  0.16783852260E+03  0.17770000000E+01 0.  1.
         15    1    1    2    0    0 -0.35590158993E+00  0.54086154256E+01  0.25175916930E+03  0.25182378133E+03  0.17770000000E+01 0. -1.
</event>
<event>
 6    1  0.1823098E-004  0.5023334E+03  0.7546771E-02  0.9394604E-01
        -11   -1    0    0    0    0  0.00000000000E+00  0.00000000000E+00  0.50000000000E+03  0.50000000000E+03  0.00000000000E+00 0.  1.
         11   -1    0    0    0    0 -0.00000000000E+00 -0.00000000000E+00 -0.50000000000E+03  0.50000000000E+03  0.00000000000E+00 0. -1.
        -11    1    1    2    0    0  0.47300050683E+01 -0.77136701283E+01  0.47498928061E+03  0.47507545753E+03  0.00000000000E+00 0.  1.
         11    1    1    2    0    0  0.63824761016E+01  0.49679280775E+01 -0.49760091833E+03  0.49766664569E+03  0.00000000000E+00 0. -1.
        -15    1    1    2    0    0 -0.52684973686E+01 -0.14792521403E+01  0.17005864901E+02  0.17952783111E+02  0.17770000000E+01 0.  1.
         15    1    1    2    0    0 -0.58439838013E+01  0.42249941911E+01  0.56057728150E+01  0.93051136714E+01  0.17770000000E+01 0. -1.
</event>
<event>
 6    1  0.1823098E-004  0.5053620E+03  0.7546771E-02  0.9387891E-01
        -11   -1    0    0    0    0  0.00000000000E+00  0.00000000000E+00  0.50000000000E+03  0.50000000000E+03  0.00000000000E+00 0. -1.
         11   -1    0    0    0    0 -0.00000000000E+00 -0.00000000000E+00 -0.50000000000E+03  0.50000000000E+03  0.00000000000E+00 0.  1.
        -11    1    1    2    0    0 -0.12646000117E+01  0.87523882023E+01  0.49455898651E+03  0.49463804408E+03  0.00000000000E+00 0. -1.
         11    1    1    2    0    0 -0.25548154942E+02  0.36623605964E+02 -0.25977364300E+03  0.26358365338E+03  0.00000000000E+00 0.  1.
        -15    1    1    2    0    0  0.29652671469E+02 -0.45453845647E+02 -0.21791290786E+03  0.22457632589E+03  0.17770000000E+01 0.  1.
         15    1    1    2    0    0 -0.28399165151E+01  0.77851480967E-01 -0.16872435656E+02  0.17201976649E+02  0.17770000000E+01 0. -1.
</event>
<event>
 6    1  0.1823098E-004  0.5008371E+03  0.7546771E-02  0.9397939E-01
        -11   -1    0    0    0    0  0.00000000000E+00  0.00000000000E+00  0.50000000000E+03  0.50000000000E+03  0.00000000000E+00 0. -1.
         11   -1    0    0    0    0 -0.00000000000E+00 -0.00000000000E+00 -0.50000000000E+03  0.50000000000E+03  0.00000000000E+00 0. -1.
        -11    1    1    2    0    0 -0.11715593334E+01  0.70509455442E+01  0.49911176233E+03  0.49916293901E+03  0.00000000000E+00 0. -1.
         11    1    1    2    0    0 -0.12900285669E+02  0.94745029112E+00 -0.34563819000E+03  0.34588014314E+03  0.00000000000E+00 0. -1.
        -15    1    1    2    0    0 -0.11024572719E+01 -0.52384985969E+01 -0.51556162420E+02  0.51863791725E+02  0.17770000000E+01 0.  1.
         15    1    1    2    0    0  0.15174302274E+02 -0.27598972385E+01 -0.10191740991E+03  0.10309312612E+03  0.17770000000E+01 0. -1.
</event>
<event>
 6    1  0.1823098E-004  0.5011422E+03  0.7546771E-02  0.9397258E-01
        -11   -1    0    0    0    0  0.00000000000E+00  0.00000000000E+00  0.50000000000E+03  0.50000000000E+03  0.00000000000E+00 0.  1.
         11   -1    0    0    0    0 -0.00000000000E+00 -0.00000000000E+00 -0.50000000000E+03  0.50000000000E+03  0.00000000000E+00 0.  1.
        -11    1    1    2    0    0  0.11933007158E+02 -0.59096828036E+01  0.28604299889E+03  0.28635278631E+03  0.00000000000E+00 0.  1.
         11    1    1    2    0    0  0.13587105691E+02 -0.75485879286E+01 -0.49861560442E+03  0.49885780699E+03  0.00000000000E+00 0.  1.
        -15    1    1    2    0    0 -0.23290458072E+02  0.14444823655E+02  0.18081597222E+03  0.18288978076E+03  0.17770000000E+01 0.  1.
         15    1    1    2    0    0 -0.22296547772E+01 -0.98655292294E+00  0.31756633306E+02  0.31899625938E+02  0.17770000000E+01 0. -1.
</event>
<event>
 6    1  0.1823098E-004  0.5002905E+03  0.7546771E-02  0.9399160E-01
        -11   -1    0    0    0    0  0.00000000000E+00  0.00000000000E+00  0.50000000000E+03  0.50000000000E+03  0.00000000000E+00 0. -1.
         11   -1    0    0    0    0 -0.00000000000E+00 -0.00000000000E+00 -0.50000000000E+03  0.50000000000E+03  0.00000000000E+00 0. -1.
        -11    1    1    2    0    0 -0.80301542682E+01 -0.12560337710E+02  0.49948708362E+03  0.49970950778E+03  0.00000000000E+00 0. -1.
         11    1    1    2    0    0  0.31193922362E+00 -0.25214684216E+01 -0.77758759658E+01  0.81804251794E+01  0.00000000000E+00 0. -1.
        -15    1    1    2    0    0  0.97392392027E+01  0.10103280050E+02 -0.34629762505E+03  0.34658639889E+03  0.17770000000E+01 0.  1.
         15    1    1    2    0    0 -0.20210241582E+01  0.49785260818E+01 -0.14541358260E+03  0.14552366816E+03  0.17770000000E+01 0. -1.
</event>
<event>
 6    1  0.1823098E-004  0.5012025E+03  0.7546771E-02  0.9397123E-01
        -11   -1    0    0    0    0  0.00000000000E+00  0.00000000000E+00  0.50000000000E+03  0.50000000000E+03  0.00000000000E+00 0.  1.
         11   -1    0    0    0    0 -0.00000000000E+00 -0.00000000000E+00 -0.50000000000E+03  0.50000000000E+03  0.00000000000E+00 0. -1.
        -11    1    1    2    0    0 -0.76469632052E+01  0.56070181416E+00  0.49873861102E+03  0.49879754666E+03  0.00000000000E+00 0.  1.
         11    1    1    2    0    0  0.34467329351E+00 -0.11001566655E+02 -0.44564152406E+03  0.44577743464E+03  0.00000000000E+00 0. -1.
        -15    1    1    2    0    0  0.72446457996E+01  0.27098941782E+01 -0.28115826881E+02  0.29214480475E+02  0.17770000000E+01 0.  1.
         15    1    1    2    0    0  0.57644112117E-01  0.77309706630E+01 -0.24981260077E+02  0.26210538229E+02  0.17770000000E+01 0. -1.
</event>
<event>
 6    1  0.1823098E-004  0.5102575E+03  0.7546771E-02  0.9377146E-01
        -11   -1    0    0    0    0  0.00000000000E+00  0.00000000000E+00  0.50000000000E+03  0.50000000000E+03  0.00000000000E+00 0. -1.
         11   -1    0    0    0    0 -0.00000000000E+00 -0.00000000000E+00 -0.50000000000E+03  0.50000000000E+03  0.00000000000E+00 0.  1.
        -11    1    1    2    0    0  0.73208098298E+01 -0.24677422602E+01  0.48968158068E+03  0.48974251854E+03  0.00000000000E+00 0. -1.
         11    1    1    2    0    0 -0.74646281883E+01 -0.44516917399E+02 -0.37768600957E+03  0.38037376150E+03  0.00000000000E+00 0.  1.
        -15    1    1    2    0    0 -0.50768413146E+01  0.40049911713E+00  0.26520696269E+01  0.60104841388E+01  0.17770000000E+01 0.  1.
         15    1    1    2    0    0  0.52206596731E+01  0.46584160542E+02 -0.11464764073E+03  0.12387323583E+03  0.17770000000E+01 0. -1.
</event>
<event>
 6    1  0.1823098E-004  0.5004487E+03  0.7546771E-02  0.9398806E-01
        -11   -1    0    0    0    0  0.00000000000E+00  0.00000000000E+00  0.50000000000E+03  0.50000000000E+03  0.00000000000E+00 0. -1.
         11   -1    0    0    0    0 -0.00000000000E+00 -0.00000000000E+00 -0.50000000000E+03  0.50000000000E+03  0.00000000000E+00 0. -1.
        -11    1    1    2    0    0  0.58501911564E+01 -0.91177836400E+01  0.49943384060E+03  0.49955131854E+03  0.00000000000E+00 0. -1.
         11    1    1    2    0    0  0.10131901071E+01 -0.26769009130E+01 -0.46898312212E+01  0.54942578729E+01  0.00000000000E+00 0. -1.
        -15    1    1    2    0    0 -0.31059754260E+01  0.50502520912E+01 -0.16695678167E+03  0.16707147214E+03  0.17770000000E+01 0.  1.
         15    1    1    2    0    0 -0.37574058375E+01  0.67444324617E+01 -0.32778722771E+03  0.32788295145E+03  0.17770000000E+01 0. -1.
</event>
<event>
 6    1  0.1823098E-004  0.4714201E+03  0.7546771E-02  0.9466133E-01
        -11   -1    0    0    0    0  0.00000000000E+00  0.00000000000E+00  0.50000000000E+03  0.50000000000E+03  0.00000000000E+00 0. -1.
         11   -1    0    0    0    0 -0.00000000000E+00 -0.00000000000E+00 -0.50000000000E+03  0.50000000000E+03  0.00000000000E+00 0. -1.
        -11    1    1    2    0    0 -0.25634370499E+01 -0.13641332447E+02  0.47959631279E+03  0.47979712421E+03  0.00000000000E+00 0. -1.
         11    1    1    2    0    0 -0.22128450113E+02 -0.24408809983E+02 -0.46310713280E+03  0.46427758373E+03  0.00000000000E+00 0. -1.
        -15    1    1    2    0    0 -0.87813059256E+00  0.75179672148E+01  0.62995345188E+01  0.10006638223E+02  0.17770000000E+01 0. -1.
         15    1    1    2    0    0  0.25570017755E+02  0.30532175215E+02 -0.22788714516E+02  0.45918653831E+02  0.17770000000E+01 0.  1.
</event>
<event>
 6    1  0.1823098E-004  0.5002698E+03  0.7546771E-02  0.9399206E-01
        -11   -1    0    0    0    0  0.00000000000E+00  0.00000000000E+00  0.50000000000E+03  0.50000000000E+03  0.00000000000E+00 0. -1.
         11   -1    0    0    0    0 -0.00000000000E+00 -0.00000000000E+00 -0.50000000000E+03  0.50000000000E+03  0.00000000000E+00 0. -1.
        -11    1    1    2    0    0 -0.16196946368E+01 -0.10351005218E+02  0.30120898737E+03  0.30139114252E+03  0.00000000000E+00 0. -1.
         11    1    1    2    0    0  0.16404924798E+02  0.70478677130E+01 -0.49941110596E+03  0.49973017395E+03  0.00000000000E+00 0. -1.
        -15    1    1    2    0    0 -0.28110619263E+01  0.24431009580E+01  0.61883594474E+02  0.62021027124E+02  0.17770000000E+01 0.  1.
         15    1    1    2    0    0 -0.11974168234E+02  0.86003654732E+00  0.13631852412E+03  0.13685765640E+03  0.17770000000E+01 0. -1.
</event>
<event>
 6    1  0.1823098E-004  0.4522608E+03  0.7546771E-02  0.9513461E-01
        -11   -1    0    0    0    0  0.00000000000E+00  0.00000000000E+00  0.50000000000E+03  0.50000000000E+03  0.00000000000E+00 0.  1.
         11   -1    0    0    0    0 -0.00000000000E+00 -0.00000000000E+00 -0.50000000000E+03  0.50000000000E+03  0.00000000000E+00 0. -1.
        -11    1    1    2    0    0 -0.22409172758E+02  0.29577173807E+02  0.46046020159E+03  0.46195300354E+03  0.00000000000E+00 0.  1.
         11    1    1    2    0    0 -0.34433213135E+02 -0.79992289113E+02 -0.43746100922E+03  0.44604545404E+03  0.00000000000E+00 0. -1.
        -15    1    1    2    0    0  0.33590435438E+02  0.12225944746E+02 -0.30012984462E+02  0.46708971763E+02  0.17770000000E+01 0.  1.
         15    1    1    2    0    0  0.23251950455E+02  0.38189170560E+02  0.70137920854E+01  0.45292570655E+02  0.17770000000E+01 0. -1.
</event>
<event>
 6    1  0.1823098E-004  0.5002206E+03  0.7546771E-02  0.9399316E-01
        -11   -1    0    0    0    0  0.00000000000E+00  0.00000000000E+00  0.50000000000E+03  0.50000000000E+03  0.00000000000E+00 0. -1.
         11   -1    0    0    0    0 -0.00000000000E+00 -0.00000000000E+00 -0.50000000000E+03  0.50000000000E+03  0.00000000000E+00 0.  1.
        -11    1    1    2    0    0  0.12810393797E+00 -0.93351382825E+01  0.49969219482E+03  0.49977940212E+03  0.00000000000E+00 0. -1.
         11    1    1    2    0    0 -0.83782125917E+00 -0.15743459891E+00 -0.67456297318E+00  0.10870902999E+01  0.00000000000E+00 0.  1.
        -15    1    1    2    0    0  0.98997061158E+00  0.81022223460E+01 -0.42047880296E+03  0.42056177610E+03  0.17770000000E+01 0.  1.
         15    1    1    2    0    0 -0.28025329038E+00  0.13903505354E+01 -0.78538828888E+02  0.78571731485E+02  0.17770000000E+01 0.  1.
</event>
<event>
 6    1  0.1823098E-004  0.4218024E+03  0.7546771E-02  0.9594088E-01
        -11   -1    0    0    0    0  0.00000000000E+00  0.00000000000E+00  0.50000000000E+03  0.50000000000E+03  0.00000000000E+00 0. -1.
         11   -1    0    0    0    0 -0.00000000000E+00 -0.00000000000E+00 -0.50000000000E+03  0.50000000000E+03  0.00000000000E+00 0. -1.
        -11    1    1    2    0    0 -0.58714758446E+01 -0.56057789419E+00  0.41048100123E+03  0.41052337430E+03  0.00000000000E+00 0. -1.
         11    1    1    2    0    0 -0.88736729824E+02  0.96074666805E+02 -0.42412888122E+03  0.44383539371E+03  0.00000000000E+00 0. -1.
        -15    1    1    2    0    0  0.35775409889E+02 -0.60540681551E+02  0.27957778858E+02  0.75695767405E+02  0.17770000000E+01 0.  1.
         15    1    1    2    0    0  0.58832795780E+02 -0.34973407360E+02 -0.14309898867E+02  0.69945464587E+02  0.17770000000E+01 0. -1.
</event>
<event>
 6    1  0.1823098E-004  0.5004729E+03  0.7546771E-02  0.9398752E-01
        -11   -1    0    0    0    0  0.00000000000E+00  0.00000000000E+00  0.50000000000E+03  0.50000000000E+03  0.00000000000E+00 0. -1.
         11   -1    0    0    0    0 -0.00000000000E+00 -0.00000000000E+00 -0.50000000000E+03  0.50000000000E+03  0.00000000000E+00 0. -1.
        -11    1    1    2    0    0  0.17127097305E+01  0.87008497569E+01  0.17088166887E+03  0.17111160953E+03  0.00000000000E+00 0. -1.
         11    1    1    2    0    0 -0.15268164567E+02  0.10128711847E+02 -0.49919096635E+03  0.49952710491E+03  0.00000000000E+00 0. -1.
        -15    1    1    2    0    0  0.71088529242E+01 -0.11924993557E+01  0.87473321727E+02  0.87787798626E+02  0.17770000000E+01 0. -1.
         15    1    1    2    0    0  0.64466019127E+01 -0.17637062248E+02  0.24083597576E+03  0.24157348693E+03  0.17770000000E+01 0.  1.
</event>
<event>
 6    1  0.1823098E-004  0.5007129E+03  0.7546771E-02  0.9398216E-01
        -11   -1    0    0    0    0  0.00000000000E+00  0.00000000000E+00  0.50000000000E+03  0.50000000000E+03  0.00000000000E+00 0. -1.
         11   -1    0    0    0    0 -0.00000000000E+00 -0.00000000000E+00 -0.50000000000E+03  0.50000000000E+03  0.00000000000E+00 0.  1.
        -11    1    1    2    0    0 -0.47150600066E+01 -0.52474197622E+01  0.26017170654E+03  0.26026733197E+03  0.00000000000E+00 0. -1.
         11    1    1    2    0    0  0.49475809891E+01 -0.17532675106E+02 -0.49895467043E+03  0.49928712821E+03  0.00000000000E+00 0.  1.
        -15    1    1    2    0    0  0.50959786662E+01  0.89911663809E+00  0.57729048337E+02  0.57987741464E+02  0.17770000000E+01 0. -1.
         15    1    1    2    0    0 -0.53284996486E+01  0.21880978230E+02  0.18105391555E+03  0.18245779836E+03  0.17770000000E+01 0.  1.
</event>
<event>
 6    1  0.1823098E-004  0.5023679E+03  0.7546771E-02  0.9394527E-01
        -11   -1    0    0    0    0  0.00000000000E+00  0.00000000000E+00  0.50000000000E+03  0.50000000000E+03  0.00000000000E+00 0.  1.
         11   -1    0    0    0    0 -0.00000000000E+00 -0.00000000000E+00 -0.50000000000E+03  0.50000000000E+03  0.00000000000E+00 0. -1.
        -11    1    1    2    0    0 -0.17256776767E+02  0.49026856527E+01  0.49730863384E+03  0.49763210302E+03  0.00000000000E+00 0.  1.
         11    1    1    2    0    0 -0.47395035006E+01 -0.17374493547E+02 -0.37535088483E+03  0.37578268010E+03  0.00000000000E+00 0. -1.
        -15    1    1    2    0    0  0.77698477709E+01 -0.54612402771E+01 -0.22062095241E+02  0.24085046298E+02  0.17770000000E+01 0. -1.
         15    1    1    2    0    0  0.14226432497E+02  0.17933048171E+02 -0.99895653762E+02  0.10250017057E+03  0.17770000000E+01 0.  1.
</event>
<event>
 6    1  0.1823098E-004  0.5167904E+03  0.7546771E-02  0.9363004E-01
        -11   -1    0    0    0    0  0.00000000000E+00  0.00000000000E+00  0.50000000000E+03  0.50000000000E+03  0.00000000000E+00 0. -1.
         11   -1    0    0    0    0 -0.00000000000E+00 -0.00000000000E+00 -0.50000000000E+03  0.50000000000E+03  0.00000000000E+00 0. -1.
        -11    1    1    2    0    0  0.72155326568E+01 -0.14899341239E+02  0.48292595153E+03  0.48320961181E+03  0.00000000000E+00 0. -1.
         11    1    1    2    0    0  0.47724383618E+02 -0.28402310251E+02 -0.39539759701E+03  0.39927880953E+03  0.00000000000E+00 0. -1.
        -15    1    1    2    0    0 -0.19705505422E+01  0.19643308195E+02 -0.16536636934E+02  0.25813963593E+02  0.17770000000E+01 0. -1.
         15    1    1    2    0    0 -0.52969365733E+02  0.23658343295E+02 -0.70991717589E+02  0.91697615066E+02  0.17770000000E+01 0.  1.
</event>
<event>
 6    1  0.1823098E-004  0.5001234E+03  0.7546771E-02  0.9399534E-01
        -11   -1    0    0    0    0  0.00000000000E+00  0.00000000000E+00  0.50000000000E+03  0.50000000000E+03  0.00000000000E+00 0.  1.
         11   -1    0    0    0    0 -0.00000000000E+00 -0.00000000000E+00 -0.50000000000E+03  0.50000000000E+03  0.00000000000E+00 0. -1.
        -11    1    1    2    0    0  0.43456130823E+01 -0.17089444615E+02  0.49956545690E+03  0.49987656396E+03  0.00000000000E+00 0.  1.
         11    1    1    2    0    0 -0.11829344653E+01  0.16805761863E+02 -0.31019687072E+03  0.31065403840E+03  0.00000000000E+00 0. -1.
        -15    1    1    2    0    0 -0.30887372926E+01 -0.11439403165E+01 -0.95916566531E+02  0.95989553398E+02  0.17770000000E+01 0.  1.
         15    1    1    2    0    0 -0.73941324335E-01  0.14276230680E+01 -0.93452019646E+02  0.93479844244E+02  0.17770000000E+01 0. -1.
</event>
<event>
 6    1  0.1823098E-004  0.5077369E+03  0.7546771E-02  0.9382662E-01
        -11   -1    0    0    0    0  0.00000000000E+00  0.00000000000E+00  0.50000000000E+03  0.50000000000E+03  0.00000000000E+00 0.  1.
         11   -1    0    0    0    0 -0.00000000000E+00 -0.00000000000E+00 -0.50000000000E+03  0.50000000000E+03  0.00000000000E+00 0. -1.
        -11    1    1    2    0    0 -0.27056312303E+01  0.17118384676E+02  0.49195788445E+03  0.49226305936E+03  0.00000000000E+00 0.  1.
         11    1    1    2    0    0 -0.13611783448E+02  0.74663335866E+01 -0.45148567707E+03  0.45175252449E+03  0.00000000000E+00 0. -1.
        -15    1    1    2    0    0  0.15396768098E+02 -0.29924913543E+01 -0.10377051267E+02  0.18890643038E+02  0.17770000000E+01 0. -1.
         15    1    1    2    0    0  0.92064658011E+00 -0.21592226909E+02 -0.30095156115E+02  0.37093773111E+02  0.17770000000E+01 0. -1.
</event>
<event>
 6    1  0.1823098E-004  0.4903159E+03  0.7546771E-02  0.9421743E-01
        -11   -1    0    0    0    0  0.00000000000E+00  0.00000000000E+00  0.50000000000E+03  0.50000000000E+03  0.00000000000E+00 0.  1.
         11   -1    0    0    0    0 -0.00000000000E+00 -0.00000000000E+00 -0.50000000000E+03  0.50000000000E+03  0.00000000000E+00 0.  1.
        -11    1    1    2    0    0 -0.71971459901E+01  0.62844073932E+01  0.48714240292E+03  0.48723609617E+03  0.00000000000E+00 0.  1.
         11    1    1    2    0    0 -0.75385235987E+01 -0.11005310406E+02 -0.49335718837E+03  0.49353749758E+03  0.00000000000E+00 0.  1.
        -15    1    1    2    0    0  0.23274950722E+01  0.33910464986E+01  0.47610771165E+01  0.65377376802E+01  0.17770000000E+01 0.  1.
         15    1    1    2    0    0  0.12408174517E+02  0.13298565141E+01  0.14537083341E+01  0.12688668571E+02  0.17770000000E+01 0. -1.
</event>
<event>
 6    1  0.1823098E-004  0.4844161E+03  0.7546771E-02  0.9435371E-01
        -11   -1    0    0    0    0  0.00000000000E+00  0.00000000000E+00  0.50000000000E+03  0.50000000000E+03  0.00000000000E+00 0. -1.
         11   -1    0    0    0    0 -0.00000000000E+00 -0.00000000000E+00 -0.50000000000E+03  0.50000000000E+03  0.00000000000E+00 0.  1.
        -11    1    1    2    0    0 -0.80758436492E+01  0.78203224293E-01  0.48606628116E+03  0.48613337167E+03  0.00000000000E+00 0. -1.
         11    1    1    2    0    0  0.10748703927E+02 -0.28920290925E+02 -0.48215342941E+03  0.48313957337E+03  0.00000000000E+00 0.  1.
        -15    1    1    2    0    0  0.86828833697E+00  0.30578527237E+01 -0.28399121705E+01  0.46181401074E+01  0.17770000000E+01 0.  1.
         15    1    1    2    0    0 -0.35411486144E+01  0.25784234977E+02 -0.10729395817E+01  0.26108914860E+02  0.17770000000E+01 0. -1.
</event>
<event>
 6    1  0.1823098E-004  0.5002443E+03  0.7546771E-02  0.9399263E-01
        -11   -1    0    0    0    0  0.00000000000E+00  0.00000000000E+00  0.50000000000E+03  0.50000000000E+03  0.00000000000E+00 0.  1.
         11   -1    0    0    0    0 -0.00000000000E+00 -0.00000000000E+00 -0.50000000000E+03  0.50000000000E+03  0.00000000000E+00 0. -1.
        -11    1    1    2    0    0 -0.38213201564E+02  0.11126542698E+02  0.40060789026E+03  0.40258009199E+03  0.00000000000E+00 0.  1.
         11    1    1    2    0    0  0.38255483391E+02 -0.13788924182E+02 -0.49809856652E+03  0.49975573875E+03  0.00000000000E+00 0. -1.
        -15    1    1    2    0    0 -0.75495738453E+00  0.16899675906E+01  0.23023186659E+02  0.23165724769E+02  0.17770000000E+01 0.  1.
         15    1    1    2    0    0  0.71267555787E+00  0.97241389336E+00  0.74467489604E+02  0.74498444495E+02  0.17770000000E+01 0.  1.
</event>
<event>
 6    1  0.1823098E-004  0.5016854E+03  0.7546771E-02  0.9396046E-01
        -11   -1    0    0    0    0  0.00000000000E+00  0.00000000000E+00  0.50000000000E+03  0.50000000000E+03  0.00000000000E+00 0.  1.
         11   -1    0    0    0    0 -0.00000000000E+00 -0.00000000000E+00 -0.50000000000E+03  0.50000000000E+03  0.00000000000E+00 0.  1.
        -11    1    1    2    0    0  0.11133250806E+02 -0.70687453778E+01  0.49814008104E+03  0.49831461625E+03  0.00000000000E+00 0.  1.
         11    1    1    2    0    0  0.27708917701E+01 -0.11458059677E+02 -0.40658761373E+03  0.40675846962E+03  0.00000000000E+00 0.  1.
        -15    1    1    2    0    0 -0.10781744699E+02  0.13317764381E+02 -0.49748568962E+02  0.52646811011E+02  0.17770000000E+01 0. -1.
         15    1    1    2    0    0 -0.31223978775E+01  0.52090406735E+01 -0.41803898345E+02  0.42280103111E+02  0.17770000000E+01 0.  1.
</event>
<event>
 6    1  0.1823098E-004  0.5074872E+03  0.7546771E-02  0.9383211E-01
        -11   -1    0    0    0    0  0.00000000000E+00  0.00000000000E+00  0.50000000000E+03  0.50000000000E+03  0.00000000000E+00 0. -1.
         11   -1    0    0    0    0 -0.00000000000E+00 -0.00000000000E+00 -0.50000000000E+03  0.50000000000E+03  0.00000000000E+00 0.  1.
        -11    1    1    2    0    0 -0.33421341772E+03 -0.17548632438E+02  0.36133398669E+03  0.49251275417E+03  0.00000000000E+00 0. -1.
         11    1    1    2    0    0  0.34002728212E+03  0.19339119878E+02 -0.32699870275E+03  0.47214479320E+03  0.00000000000E+00 0.  1.
        -15    1    1    2    0    0 -0.39174852023E+01  0.88695596088E+00 -0.22783541343E+02  0.23203035714E+02  0.17770000000E+01 0.  1.
         15    1    1    2    0    0 -0.18963791910E+01 -0.26774434005E+01 -0.11551742594E+02  0.12139416920E+02  0.17770000000E+01 0. -1.
</event>
<event>
 6    1  0.1823098E-004  0.5012691E+03  0.7546771E-02  0.9396974E-01
        -11   -1    0    0    0    0  0.00000000000E+00  0.00000000000E+00  0.50000000000E+03  0.50000000000E+03  0.00000000000E+00 0.  1.
         11   -1    0    0    0    0 -0.00000000000E+00 -0.00000000000E+00 -0.50000000000E+03  0.50000000000E+03  0.00000000000E+00 0. -1.
        -11    1    1    2    0    0 -0.71268452292E+01  0.36982283259E+01  0.47621588331E+03  0.47628356714E+03  0.00000000000E+00 0.  1.
         11    1    1    2    0    0  0.65290238963E+01  0.24238515779E+01 -0.49868222566E+03  0.49873085466E+03  0.00000000000E+00 0. -1.
        -15    1    1    2    0    0  0.43774697026E+01 -0.37938386374E+01  0.14147301141E+02  0.15390234280E+02  0.17770000000E+01 0. -1.
         15    1    1    2    0    0 -0.37796483697E+01 -0.23282412664E+01  0.83190412075E+01  0.95953439129E+01  0.17770000000E+01 0.  1.
</event>
<event>
 6    1  0.1823098E-004  0.5065126E+03  0.7546771E-02  0.9385354E-01
        -11   -1    0    0    0    0  0.00000000000E+00  0.00000000000E+00  0.50000000000E+03  0.50000000000E+03  0.00000000000E+00 0. -1.
         11   -1    0    0    0    0 -0.00000000000E+00 -0.00000000000E+00 -0.50000000000E+03  0.50000000000E+03  0.00000000000E+00 0. -1.
        -11    1    1    2    0    0 -0.85693601173E+01 -0.15997440050E+01  0.49341044250E+03  0.49348744450E+03  0.00000000000E+00 0. -1.
         11    1    1    2    0    0 -0.27267162222E+02 -0.20245329646E+02 -0.40102416190E+03  0.40245962522E+03  0.00000000000E+00 0. -1.
        -15    1    1    2    0    0  0.76024233454E+01  0.22187738905E+01 -0.37051593285E+01  0.89222044893E+01  0.17770000000E+01 0. -1.
         15    1    1    2    0    0  0.28234098994E+02  0.19626299760E+02 -0.88681121274E+02  0.95130725782E+02  0.17770000000E+01 0.  1.
</event>
<event>
 6    1  0.1823098E-004  0.5047747E+03  0.7546771E-02  0.9389189E-01
        -11   -1    0    0    0    0  0.00000000000E+00  0.00000000000E+00  0.50000000000E+03  0.50000000000E+03  0.00000000000E+00 0.  1.
         11   -1    0    0    0    0 -0.00000000000E+00 -0.00000000000E+00 -0.50000000000E+03  0.50000000000E+03  0.00000000000E+00 0. -1.
        -11    1    1    2    0    0 -0.10859137777E+02  0.44393658684E+01  0.45114010849E+03  0.45129261719E+03  0.00000000000E+00 0.  1.
         11    1    1    2    0    0 -0.18386392722E+02 -0.54904863388E+01 -0.49485345164E+03  0.49522534616E+03  0.00000000000E+00 0. -1.
        -15    1    1    2    0    0  0.21185904468E+01 -0.20626724092E+01  0.47644698638E+01  0.58822567976E+01  0.17770000000E+01 0. -1.
         15    1    1    2    0    0  0.27126940052E+02  0.31137928796E+01  0.38948873285E+02  0.47599779851E+02  0.17770000000E+01 0.  1.
</event>
<event>
 6    1  0.1823098E-004  0.5004515E+03  0.7546771E-02  0.9398800E-01
        -11   -1    0    0    0    0  0.00000000000E+00  0.00000000000E+00  0.50000000000E+03  0.50000000000E+03  0.00000000000E+00 0.  1.
         11   -1    0    0    0    0 -0.00000000000E+00 -0.00000000000E+00 -0.50000000000E+03  0.50000000000E+03  0.00000000000E+00 0.  1.
        -11    1    1    2    0    0 -0.55311563451E+01 -0.38564967573E+01  0.40914314296E+03  0.40919870197E+03  0.00000000000E+00 0.  1.
         11    1    1    2    0    0 -0.46366309672E+01  0.54871109444E+01 -0.49949683624E+03  0.49954849229E+03  0.00000000000E+00 0.  1.
        -15    1    1    2    0    0  0.79848685026E+01  0.11926973227E+00  0.42232095520E+02  0.43017205526E+02  0.17770000000E+01 0.  1.
         15    1    1    2    0    0  0.21829188097E+01 -0.17498839194E+01  0.48121597761E+02  0.48235600217E+02  0.17770000000E+01 0. -1.
</event>
<event>
 6    1  0.1823098E-004  0.5016559E+03  0.7546771E-02  0.9396112E-01
        -11   -1    0    0    0    0  0.00000000000E+00  0.00000000000E+00  0.50000000000E+03  0.50000000000E+03  0.00000000000E+00 0. -1.
         11   -1    0    0    0    0 -0.00000000000E+00 -0.00000000000E+00 -0.50000000000E+03  0.50000000000E+03  0.00000000000E+00 0. -1.
        -11    1    1    2    0    0 -0.29552050210E+01  0.25942219416E+01  0.22953033692E+03  0.22956401894E+03  0.00000000000E+00 0. -1.
         11    1    1    2    0    0 -0.37819511364E+02  0.45045638476E+01 -0.49688653627E+03  0.49834409444E+03  0.00000000000E+00 0. -1.
        -15    1    1    2    0    0  0.31834510470E+02 -0.17559588038E+02  0.20548453206E+03  0.20868355430E+03  0.17770000000E+01 0. -1.
         15    1    1    2    0    0  0.89402059156E+01  0.10460802249E+02  0.61871667291E+02  0.63408332322E+02  0.17770000000E+01 0.  1.
</event>
<event>
 6    1  0.1823098E-004  0.5010295E+03  0.7546771E-02  0.9397509E-01
        -11   -1    0    0    0    0  0.00000000000E+00  0.00000000000E+00  0.50000000000E+03  0.50000000000E+03  0.00000000000E+00 0.  1.
         11   -1    0    0    0    0 -0.00000000000E+00 -0.00000000000E+00 -0.50000000000E+03  0.50000000000E+03  0.00000000000E+00 0.  1.
        -11    1    1    2    0    0  0.10906003618E+01  0.73223659549E+01  0.43664392896E+03  0.43670668320E+03  0.00000000000E+00 0.  1.
         11    1    1    2    0    0  0.83066749685E+01  0.20933859987E+01 -0.49889696494E+03  0.49897050488E+03  0.00000000000E+00 0.  1.
        -15    1    1    2    0    0 -0.61762041669E+01 -0.96397774443E+01  0.54763006742E+02  0.55975132367E+02  0.17770000000E+01 0.  1.
         15    1    1    2    0    0 -0.32210711634E+01  0.22402549071E+00  0.74900292409E+01  0.83476795512E+01  0.17770000000E+01 0. -1.
</event>
<event>
 6    1  0.1823098E-004  0.5037671E+03  0.7546771E-02  0.9391420E-01
        -11   -1    0    0    0    0  0.00000000000E+00  0.00000000000E+00  0.50000000000E+03  0.50000000000E+03  0.00000000000E+00 0. -1.
         11   -1    0    0    0    0 -0.00000000000E+00 -0.00000000000E+00 -0.50000000000E+03  0.50000000000E+03  0.00000000000E+00 0. -1.
        -11    1    1    2    0    0 -0.18883264853E+02 -0.13266062519E+01  0.49587166754E+03  0.49623285688E+03  0.00000000000E+00 0. -1.
         11    1    1    2    0    0  0.45743496587E+02 -0.96780945173E+01 -0.30609439461E+03  0.30964481491E+03  0.00000000000E+00 0. -1.
        -15    1    1    2    0    0 -0.26725434072E+02 -0.12762075417E+01 -0.15233861026E+03  0.15468059813E+03  0.17770000000E+01 0. -1.
         15    1    1    2    0    0 -0.13479766224E+00  0.12280908311E+02 -0.37438662676E+02  0.39441730075E+02  0.17770000000E+01 0.  1.
</event>
<event>
 6    1  0.1823098E-004  0.5073479E+03  0.7546771E-02  0.9383517E-01
        -11   -1    0    0    0    0  0.00000000000E+00  0.00000000000E+00  0.50000000000E+03  0.50000000000E+03  0.00000000000E+00 0. -1.
         11   -1    0    0    0    0 -0.00000000000E+00 -0.00000000000E+00 -0.50000000000E+03  0.50000000000E+03  0.00000000000E+00 0. -1.
        -11    1    1    2    0    0  0.49187574866E+01 -0.11130636591E+02  0.43375354587E+03  0.43392421435E+03  0.00000000000E+00 0. -1.
         11    1    1    2    0    0  0.12550896656E+02 -0.24572858396E+02 -0.49187877698E+03  0.49265208983E+03  0.00000000000E+00 0. -1.
        -15    1    1    2    0    0 -0.10893247669E+02  0.62047819147E+01  0.27923478462E+02  0.30660080590E+02  0.17770000000E+01 0.  1.
         15    1    1    2    0    0 -0.65764064738E+01  0.29498713073E+02  0.30201752644E+02  0.42763615222E+02  0.17770000000E+01 0. -1.
</event>
<event>
 6    1  0.1823098E-004  0.5002771E+03  0.7546771E-02  0.9399190E-01
        -11   -1    0    0    0    0  0.00000000000E+00  0.00000000000E+00  0.50000000000E+03  0.50000000000E+03  0.00000000000E+00 0.  1.
         11   -1    0    0    0    0 -0.00000000000E+00 -0.00000000000E+00 -0.50000000000E+03  0.50000000000E+03  0.00000000000E+00 0. -1.
        -11    1    1    2    0    0 -0.87565224106E+01  0.26841583813E+01  0.49963899540E+03  0.49972293035E+03  0.00000000000E+00 0.  1.
         11    1    1    2    0    0  0.79291220289E+01  0.17505748313E+00 -0.45885929154E+03  0.45892782772E+03  0.00000000000E+00 0. -1.
        -15    1    1    2    0    0  0.21715371306E+01  0.35931442121E+00 -0.20605019321E+02  0.20798298743E+02  0.17770000000E+01 0. -1.
         15    1    1    2    0    0 -0.13441367489E+01 -0.32185302857E+01 -0.20174684538E+02  0.20550943190E+02  0.17770000000E+01 0.  1.
</event>
<event>
 6    1  0.1823098E-004  0.5003992E+03  0.7546771E-02  0.9398917E-01
        -11   -1    0    0    0    0  0.00000000000E+00  0.00000000000E+00  0.50000000000E+03  0.50000000000E+03  0.00000000000E+00 0. -1.
         11   -1    0    0    0    0 -0.00000000000E+00 -0.00000000000E+00 -0.50000000000E+03  0.50000000000E+03  0.00000000000E+00 0.  1.
        -11    1    1    2    0    0 -0.23753666520E+01  0.68594807817E+01  0.49954809378E+03  0.49960083351E+03  0.00000000000E+00 0. -1.
         11    1    1    2    0    0 -0.87161137286E+01 -0.79029797560E+01 -0.11075821832E+03  0.11138137480E+03  0.00000000000E+00 0.  1.
        -15    1    1    2    0    0  0.40640073423E+01  0.27698298682E+01 -0.22195975410E+03  0.22202134646E+03  0.17770000000E+01 0.  1.
         15    1    1    2    0    0  0.70274730383E+01 -0.17263308939E+01 -0.16683012136E+03  0.16699644522E+03  0.17770000000E+01 0.  1.
</event>
<event>
 6    1  0.3153480E-004  0.5000610E+03  0.7546771E-02  0.9399673E-01
        -11   -1    0    0    0    0  0.00000000000E+00  0.00000000000E+00  0.50000000000E+03  0.50000000000E+03  0.00000000000E+00 0.  1.
         11   -1    0    0    0    0 -0.00000000000E+00 -0.00000000000E+00 -0.50000000000E+03  0.50000000000E+03  0.00000000000E+00 0. -1.
        -11    1    1    2    0    0 -0.56545020008E+01  0.53054411649E+01  0.15696767260E+03  0.15715906382E+03  0.00000000000E+00 0.  1.
         11    1    1    2    0    0  0.84078758169E+01 -0.93733020815E+01 -0.49978044563E+03  0.49993904129E+03  0.00000000000E+00 0. -1.
        -15    1    1    2    0    0 -0.11681287591E+01  0.46368826461E+01  0.26943213659E+03  0.26948042445E+03  0.17770000000E+01 0.  1.
         15    1    1    2    0    0 -0.15852450570E+01 -0.56902172955E+00  0.73380636439E+02  0.73421470435E+02  0.17770000000E+01 0.  1.
</event>
<event>
 6    1  0.1823098E-004  0.5022877E+03  0.7546771E-02  0.9394705E-01
        -11   -1    0    0    0    0  0.00000000000E+00  0.00000000000E+00  0.50000000000E+03  0.50000000000E+03  0.00000000000E+00 0. -1.
         11   -1    0    0    0    0 -0.00000000000E+00 -0.00000000000E+00 -0.50000000000E+03  0.50000000000E+03  0.00000000000E+00 0.  1.
        -11    1    1    2    0    0 -0.19007315547E+01  0.61593718323E+01  0.47628266464E+03  0.47632628237E+03  0.00000000000E+00 0. -1.
         11    1    1    2    0    0  0.10061085489E+02 -0.24996641428E+01 -0.49760432957E+03  0.49771230904E+03  0.00000000000E+00 0.  1.
        -15    1    1    2    0    0  0.92910724608E-01 -0.68203116866E+00  0.14708688785E+02  0.14831623434E+02  0.17770000000E+01 0. -1.
         15    1    1    2    0    0 -0.82532646585E+01 -0.29776765209E+01  0.66129761506E+01  0.11129785153E+02  0.17770000000E+01 0.  1.
</event>
<event>
 6    1  0.1823098E-004  0.5038443E+03  0.7546771E-02  0.9391249E-01
        -11   -1    0    0    0    0  0.00000000000E+00  0.00000000000E+00  0.50000000000E+03  0.50000000000E+03  0.00000000000E+00 0. -1.
         11   -1    0    0    0    0 -0.00000000000E+00 -0.00000000000E+00 -0.50000000000E+03  0.50000000000E+03  0.00000000000E+00 0.  1.
        -11    1    1    2    0    0 -0.34669138025E+01 -0.79565459247E+01  0.49607978746E+03  0.49615570302E+03  0.00000000000E+00 0. -1.
         11    1    1    2    0    0 -0.15868851402E+02  0.10966951477E+02 -0.46255513132E+03  0.46295717295E+03  0.00000000000E+00 0.  1.
        -15    1    1    2    0    0  0.19588623868E+02 -0.51804339116E+00 -0.24923778015E+02  0.31754290947E+02  0.17770000000E+01 0.  1.
         15    1    1    2    0    0 -0.25285866349E+00 -0.24923621616E+01 -0.86008781217E+01  0.91328330825E+01  0.17770000000E+01 0. -1.
</event>
<event>
 6    1  0.1823098E-004  0.5022503E+03  0.7546771E-02  0.9394788E-01
        -11   -1    0    0    0    0  0.00000000000E+00  0.00000000000E+00  0.50000000000E+03  0.50000000000E+03  0.00000000000E+00 0. -1.
         11   -1    0    0    0    0 -0.00000000000E+00 -0.00000000000E+00 -0.50000000000E+03  0.50000000000E+03  0.00000000000E+00 0. -1.
        -11    1    1    2    0    0  0.79176103787E+01  0.10677003032E+01  0.49768553920E+03  0.49774966044E+03  0.00000000000E+00 0. -1.
         11    1    1    2    0    0  0.23402631177E+01  0.10779296169E+02 -0.46763174631E+03  0.46776181997E+03  0.00000000000E+00 0. -1.
        -15    1    1    2    0    0 -0.64597481961E+01 -0.34740540623E+01 -0.13910772873E+02  0.15826077508E+02  0.17770000000E+01 0.  1.
         15    1    1    2    0    0 -0.37981253004E+01 -0.83729424103E+01 -0.16143020014E+02  0.18662442085E+02  0.17770000000E+01 0. -1.
</event>
<event>
 6    1  0.1823098E-004  0.4854719E+03  0.7546771E-02  0.9432917E-01
        -11   -1    0    0    0    0  0.00000000000E+00  0.00000000000E+00  0.50000000000E+03  0.50000000000E+03  0.00000000000E+00 0. -1.
         11   -1    0    0    0    0 -0.00000000000E+00 -0.00000000000E+00 -0.50000000000E+03  0.50000000000E+03  0.00000000000E+00 0.  1.
        -11    1    1    2    0    0 -0.22898180393E+01  0.78073007475E+01  0.48615416592E+03  0.48622224369E+03  0.00000000000E+00 0. -1.
         11    1    1    2    0    0  0.19406060486E+02  0.13134624753E+02 -0.48453329492E+03  0.48509960568E+03  0.00000000000E+00 0.  1.
        -15    1    1    2    0    0  0.32189345104E+00 -0.25421228643E+01 -0.93833464656E+00  0.32564098268E+01  0.17770000000E+01 0. -1.
         15    1    1    2    0    0 -0.17438135897E+02 -0.18399802636E+02 -0.68253636150E+00  0.25421740804E+02  0.17770000000E+01 0.  1.
</event>
<event>
 6    1  0.1823098E-004  0.5017005E+03  0.7546771E-02  0.9396013E-01
        -11   -1    0    0    0    0  0.00000000000E+00  0.00000000000E+00  0.50000000000E+03  0.50000000000E+03  0.00000000000E+00 0.  1.
         11   -1    0    0    0    0 -0.00000000000E+00 -0.00000000000E+00 -0.50000000000E+03  0.50000000000E+03  0.00000000000E+00 0. -1.
        -11    1    1    2    0    0  0.10050142772E+02 -0.19388623203E+01  0.49819434351E+03  0.49829947668E+03  0.00000000000E+00 0.  1.
         11    1    1    2    0    0 -0.13464433298E+02  0.78108875131E+01 -0.44291026713E+03  0.44318371546E+03  0.00000000000E+00 0. -1.
        -15    1    1    2    0    0 -0.40422522562E+01  0.15753458210E+01 -0.40976725210E+01  0.62265694285E+01  0.17770000000E+01 0.  1.
         15    1    1    2    0    0  0.74565427824E+01 -0.74473710138E+01 -0.51186403862E+02  0.52290238426E+02  0.17770000000E+01 0. -1.
</event>
<event>
 6    1  0.1823098E-004  0.5036082E+03  0.7546771E-02  0.9391772E-01
        -11   -1    0    0    0    0  0.00000000000E+00  0.00000000000E+00  0.50000000000E+03  0.50000000000E+03  0.00000000000E+00 0. -1.
         11   -1    0    0    0    0 -0.00000000000E+00 -0.00000000000E+00 -0.50000000000E+03  0.50000000000E+03  0.00000000000E+00 0. -1.
        -11    1    1    2    0    0 -0.65839645531E+01  0.26731062992E+01  0.49634094450E+03  0.49639180822E+03  0.00000000000E+00 0. -1.
         11    1    1    2    0    0  0.16617288321E+02  0.82764047313E+01 -0.46097300655E+03  0.46134666566E+03  0.00000000000E+00 0. -1.
        -15    1    1    2    0    0  0.24217319769E+01 -0.97823896615E+01 -0.12697682346E+02  0.16307936694E+02  0.17770000000E+01 0.  1.
         15    1    1    2    0    0 -0.12455055744E+02 -0.11671213689E+01 -0.22670255601E+02  0.25953589423E+02  0.17770000000E+01 0. -1.
</event>
<event>
 6    1  0.1823098E-004  0.5013709E+03  0.7546771E-02  0.9396748E-01
        -11   -1    0    0    0    0  0.00000000000E+00  0.00000000000E+00  0.50000000000E+03  0.50000000000E+03  0.00000000000E+00 0.  1.
         11   -1    0    0    0    0 -0.00000000000E+00 -0.00000000000E+00 -0.50000000000E+03  0.50000000000E+03  0.00000000000E+00 0.  1.
        -11    1    1    2    0    0 -0.95882112282E+01  0.15808879211E+01  0.36823971286E+03  0.36836791273E+03  0.00000000000E+00 0.  1.
         11    1    1    2    0    0 -0.15823248721E+02  0.60522201579E+01 -0.49834126445E+03  0.49862914117E+03  0.00000000000E+00 0.  1.
        -15    1    1    2    0    0  0.74815201151E+01 -0.51418282080E+01  0.36790516062E+02  0.37935621013E+02  0.17770000000E+01 0. -1.
         15    1    1    2    0    0  0.17929939834E+02 -0.24912798709E+01  0.93311035532E+02  0.95067325086E+02  0.17770000000E+01 0.  1.
</event>
<event>
 6    1  0.1823098E-004  0.5021890E+03  0.7546771E-02  0.9394925E-01
        -11   -1    0    0    0    0  0.00000000000E+00  0.00000000000E+00  0.50000000000E+03  0.50000000000E+03  0.00000000000E+00 0.  1.
         11   -1    0    0    0    0 -0.00000000000E+00 -0.00000000000E+00 -0.50000000000E+03  0.50000000000E+03  0.00000000000E+00 0. -1.
        -11    1    1    2    0    0  0.87697855873E+01  0.23988715891E+01  0.49772792663E+03  0.49781096078E+03  0.00000000000E+00 0.  1.
         11    1    1    2    0    0 -0.77307476724E+01  0.49170643332E+01 -0.48629769203E+03  0.48638399157E+03  0.00000000000E+00 0. -1.
        -15    1    1    2    0    0 -0.17060032400E+00 -0.28152907834E+01  0.31281418186E-01  0.33337177734E+01  0.17770000000E+01 0.  1.
         15    1    1    2    0    0 -0.86843759096E+00 -0.45006451389E+01 -0.11461516013E+02  0.12471329874E+02  0.17770000000E+01 0. -1.
</event>
<event>
 6    1  0.1823098E-004  0.4794945E+03  0.7546771E-02  0.9446899E-01
        -11   -1    0    0    0    0  0.00000000000E+00  0.00000000000E+00  0.50000000000E+03  0.50000000000E+03  0.00000000000E+00 0. -1.
         11   -1    0    0    0    0 -0.00000000000E+00 -0.00000000000E+00 -0.50000000000E+03  0.50000000000E+03  0.00000000000E+00 0. -1.
        -11    1    1    2    0    0  0.61753679973E+01 -0.45501454273E+01  0.48299178248E+03  0.48305268961E+03  0.00000000000E+00 0. -1.
         11    1    1    2    0    0  0.99807590425E+01 -0.15659478545E+02 -0.47594898580E+03  0.47631110831E+03  0.00000000000E+00 0. -1.
        -15    1    1    2    0    0 -0.13959548647E+02  0.24376972807E+01 -0.15218996006E+02  0.20870719558E+02  0.17770000000E+01 0.  1.
         15    1    1    2    0    0 -0.21965783925E+01  0.17771926692E+02  0.81761993166E+01  0.19765482520E+02  0.17770000000E+01 0. -1.
</event>
<event>
 6    1  0.1823098E-004  0.4888302E+03  0.7546771E-02  0.9425156E-01
        -11   -1    0    0    0    0  0.00000000000E+00  0.00000000000E+00  0.50000000000E+03  0.50000000000E+03  0.00000000000E+00 0.  1.
         11   -1    0    0    0    0 -0.00000000000E+00 -0.00000000000E+00 -0.50000000000E+03  0.50000000000E+03  0.00000000000E+00 0. -1.
        -11    1    1    2    0    0  0.68238024803E+01 -0.46903302723E+01  0.49177292507E+03  0.49184263063E+03  0.00000000000E+00 0.  1.
         11    1    1    2    0    0 -0.10134264415E+01 -0.14236090930E+02 -0.48582678271E+03  0.48603637324E+03  0.00000000000E+00 0. -1.
        -15    1    1    2    0    0 -0.17537879529E+01  0.14211723505E+02 -0.20621613483E+01  0.14575976660E+02  0.17770000000E+01 0.  1.
         15    1    1    2    0    0 -0.40565880859E+01  0.47146976976E+01 -0.38839810079E+01  0.75450194664E+01  0.17770000000E+01 0. -1.
</event>
<event>
 6    1  0.1823098E-004  0.5107088E+03  0.7546771E-02  0.9376162E-01
        -11   -1    0    0    0    0  0.00000000000E+00  0.00000000000E+00  0.50000000000E+03  0.50000000000E+03  0.00000000000E+00 0. -1.
         11   -1    0    0    0    0 -0.00000000000E+00 -0.00000000000E+00 -0.50000000000E+03  0.50000000000E+03  0.00000000000E+00 0.  1.
        -11    1    1    2    0    0  0.18004323909E+01  0.19582787805E+02  0.48889588414E+03  0.48929123501E+03  0.00000000000E+00 0. -1.
         11    1    1    2    0    0 -0.52711829648E+02 -0.56970022228E-01 -0.39927593415E+03  0.40274037769E+03  0.00000000000E+00 0.  1.
        -15    1    1    2    0    0  0.39938799712E+02 -0.10721207769E+02 -0.44960829360E+02  0.61112076746E+02  0.17770000000E+01 0.  1.
         15    1    1    2    0    0  0.10972597546E+02 -0.88046100131E+01 -0.44659120622E+02  0.46856310547E+02  0.17770000000E+01 0. -1.
</event>
<event>
 6    1  0.1823098E-004  0.5026583E+03  0.7546771E-02  0.9393881E-01
        -11   -1    0    0    0    0  0.00000000000E+00  0.00000000000E+00  0.50000000000E+03  0.50000000000E+03  0.00000000000E+00 0. -1.
         11   -1    0    0    0    0 -0.00000000000E+00 -0.00000000000E+00 -0.50000000000E+03  0.50000000000E+03  0.00000000000E+00 0. -1.
        -11    1    1    2    0    0  0.71022352788E+01 -0.19927634323E+01  0.48737289135E+03  0.48742871077E+03  0.00000000000E+00 0. -1.
         11    1    1    2    0    0 -0.15679472472E+02  0.60196754989E+01 -0.49705798024E+03  0.49734165125E+03  0.00000000000E+00 0. -1.
        -15    1    1    2    0    0  0.29128055276E+01 -0.14138952560E+01  0.14861830710E+00  0.36963971969E+01  0.17770000000E+01 0.  1.
         15    1    1    2    0    0  0.56644316655E+01 -0.26130168107E+01  0.95364705776E+01  0.11533240786E+02  0.17770000000E+01 0. -1.
</event>
<event>
 6    1  0.1823098E-004  0.5003495E+03  0.7546771E-02  0.9399028E-01
        -11   -1    0    0    0    0  0.00000000000E+00  0.00000000000E+00  0.50000000000E+03  0.50000000000E+03  0.00000000000E+00 0. -1.
         11   -1    0    0    0    0 -0.00000000000E+00 -0.00000000000E+00 -0.50000000000E+03  0.50000000000E+03  0.00000000000E+00 0. -1.
        -11    1    1    2    0    0  0.15191787070E+01 -0.11207842288E+01  0.93686579477E+02  0.93705598740E+02  0.00000000000E+00 0. -1.
         11    1    1    2    0    0  0.22219181517E+02  0.20231567735E+02 -0.49874604976E+03  0.49965050837E+03  0.00000000000E+00 0. -1.
        -15    1    1    2    0    0 -0.84881175120E+01 -0.14266314180E+02  0.12334531415E+03  0.12447007717E+03  0.17770000000E+01 0.  1.
         15    1    1    2    0    0 -0.15250242712E+02 -0.48444693267E+01  0.28171415613E+03  0.28217381572E+03  0.17770000000E+01 0. -1.
</event>
<event>
 6    1  0.1823098E-004  0.5015639E+03  0.7546771E-02  0.9396317E-01
        -11   -1    0    0    0    0  0.00000000000E+00  0.00000000000E+00  0.50000000000E+03  0.50000000000E+03  0.00000000000E+00 0.  1.
         11   -1    0    0    0    0 -0.00000000000E+00 -0.00000000000E+00 -0.50000000000E+03  0.50000000000E+03  0.00000000000E+00 0.  1.
        -11    1    1    2    0    0  0.12313854815E+02  0.75767411233E+01  0.41478956228E+03  0.41504146661E+03  0.00000000000E+00 0.  1.
         11    1    1    2    0    0 -0.67890406071E+01  0.91160400018E+01 -0.49830649770E+03  0.49843611316E+03  0.00000000000E+00 0.  1.
        -15    1    1    2    0    0  0.15814029325E+01 -0.13326802354E+02  0.63814319845E+02  0.65234420688E+02  0.17770000000E+01 0. -1.
         15    1    1    2    0    0 -0.71062171401E+01 -0.33659787707E+01  0.19702615572E+02  0.21287999542E+02  0.17770000000E+01 0.  1.
</event>
<event>
 6    1  0.1823098E-004  0.5010201E+03  0.7546771E-02  0.9397530E-01
        -11   -1    0    0    0    0  0.00000000000E+00  0.00000000000E+00  0.50000000000E+03  0.50000000000E+03  0.00000000000E+00 0.  1.
         11   -1    0    0    0    0 -0.00000000000E+00 -0.00000000000E+00 -0.50000000000E+03  0.50000000000E+03  0.00000000000E+00 0. -1.
        -11    1    1    2    0    0  0.45590530188E+00 -0.99189309405E+01  0.40907219002E+03  0.40919268039E+03  0.00000000000E+00 0.  1.
         11    1    1    2    0    0 -0.69903590896E+01 -0.64946874027E+01 -0.49888869569E+03  0.49897993624E+03  0.00000000000E+00 0. -1.
        -15    1    1    2    0    0  0.90924419947E+00  0.54921539012E+01  0.42917597375E+02  0.43313604941E+02  0.17770000000E+01 0.  1.
         15    1    1    2    0    0  0.56252095883E+01  0.10921464442E+02  0.46898908300E+02  0.48513778426E+02  0.17770000000E+01 0. -1.
</event>
<event>
 6    1  0.1823098E-004  0.5001436E+03  0.7546771E-02  0.9399488E-01
        -11   -1    0    0    0    0  0.00000000000E+00  0.00000000000E+00  0.50000000000E+03  0.50000000000E+03  0.00000000000E+00 0.  1.
         11   -1    0    0    0    0 -0.00000000000E+00 -0.00000000000E+00 -0.50000000000E+03  0.50000000000E+03  0.00000000000E+00 0. -1.
        -11    1    1    2    0    0 -0.45550028267E+01 -0.41949185237E+01  0.68483485610E+02  0.68762876565E+02  0.00000000000E+00 0.  1.
         11    1    1    2    0    0  0.47646898916E+01  0.54696014366E+01 -0.49980373238E+03  0.49985636908E+03  0.00000000000E+00 0. -1.
        -15    1    1    2    0    0  0.25004154924E+01 -0.22039334734E+01  0.25888818002E+03  0.25891573317E+03  0.17770000000E+01 0.  1.
         15    1    1    2    0    0 -0.27101025573E+01  0.92925056048E+00  0.17243206675E+03  0.17246502119E+03  0.17770000000E+01 0.  1.
</event>
<event>
 6    1  0.1823098E-004  0.5035467E+03  0.7546771E-02  0.9391908E-01
        -11   -1    0    0    0    0  0.00000000000E+00  0.00000000000E+00  0.50000000000E+03  0.50000000000E+03  0.00000000000E+00 0.  1.
         11   -1    0    0    0    0 -0.00000000000E+00 -0.00000000000E+00 -0.50000000000E+03  0.50000000000E+03  0.00000000000E+00 0. -1.
        -11    1    1    2    0    0  0.16986368021E+01 -0.10782872958E+02  0.45680353235E+03  0.45693393711E+03  0.00000000000E+00 0.  1.
         11    1    1    2    0    0 -0.10555019509E+02 -0.45124927560E+01 -0.49632054377E+03  0.49645327393E+03  0.00000000000E+00 0. -1.
        -15    1    1    2    0    0 -0.19673115426E+01  0.71729112662E+01  0.27109579701E+02  0.28167499202E+02  0.17770000000E+01 0.  1.
         15    1    1    2    0    0  0.10823694249E+02  0.81224544477E+01  0.12407431713E+02  0.18445289756E+02  0.17770000000E+01 0. -1.
</event>
<event>
 6    1  0.1823098E-004  0.5013472E+03  0.7546771E-02  0.9396800E-01
        -11   -1    0    0    0    0  0.00000000000E+00  0.00000000000E+00  0.50000000000E+03  0.50000000000E+03  0.00000000000E+00 0. -1.
         11   -1    0    0    0    0 -0.00000000000E+00 -0.00000000000E+00 -0.50000000000E+03  0.50000000000E+03  0.00000000000E+00 0. -1.
        -11    1    1    2    0    0 -0.70532924039E+01  0.62276569415E+01  0.32075587536E+03  0.32089385195E+03  0.00000000000E+00 0. -1.
         11    1    1    2    0    0 -0.16522912781E+02 -0.13597780455E+02 -0.49819344070E+03  0.49865279567E+03  0.00000000000E+00 0. -1.
        -15    1    1    2    0    0  0.44690478442E+01 -0.70457506501E+01  0.36247388206E+02  0.37237694231E+02  0.17770000000E+01 0.  1.
         15    1    1    2    0    0  0.19107157340E+02  0.14415874163E+02  0.14119017713E+03  0.14321565815E+03  0.17770000000E+01 0. -1.
</event>
<event>
 6    1  0.1823098E-004  0.5025089E+03  0.7546771E-02  0.9394213E-01
        -11   -1    0    0    0    0  0.00000000000E+00  0.00000000000E+00  0.50000000000E+03  0.50000000000E+03  0.00000000000E+00 0.  1.
         11   -1    0    0    0    0 -0.00000000000E+00 -0.00000000000E+00 -0.50000000000E+03  0.50000000000E+03  0.00000000000E+00 0. -1.
        -11    1    1    2    0    0 -0.25684450634E+01 -0.12809048225E+02  0.41832208368E+03  0.41852602586E+03  0.00000000000E+00 0.  1.
         11    1    1    2    0    0 -0.24459898193E+01 -0.12273063174E+02 -0.49733368704E+03  0.49749111270E+03  0.00000000000E+00 0. -1.
        -15    1    1    2    0    0 -0.22900340408E+01  0.41195891650E+01  0.26001768508E+02  0.26485183884E+02  0.17770000000E+01 0.  1.
         15    1    1    2    0    0  0.73044689234E+01  0.20962522234E+02  0.53009834856E+02  0.57497677563E+02  0.17770000000E+01 0. -1.
</event>
<event>
 6    1  0.1823098E-004  0.5173699E+03  0.7546771E-02  0.9361761E-01
        -11   -1    0    0    0    0  0.00000000000E+00  0.00000000000E+00  0.50000000000E+03  0.50000000000E+03  0.00000000000E+00 0.  1.
         11   -1    0    0    0    0 -0.00000000000E+00 -0.00000000000E+00 -0.50000000000E+03  0.50000000000E+03  0.00000000000E+00 0. -1.
        -11    1    1    2    0    0  0.34450271414E+01  0.27278884634E+01  0.29322608091E+03  0.29325900517E+03  0.00000000000E+00 0.  1.
         11    1    1    2    0    0  0.70056154231E+02 -0.22657930633E+02 -0.47698067298E+03  0.48263009538E+03  0.00000000000E+00 0. -1.
        -15    1    1    2    0    0 -0.83735356593E+01  0.24332261967E+01  0.14703569899E+03  0.14730475619E+03  0.17770000000E+01 0.  1.
         15    1    1    2    0    0 -0.65127645713E+02  0.17496815973E+02  0.36718893076E+02  0.76806143264E+02  0.17770000000E+01 0. -1.
</event>
<event>
 6    1  0.1823098E-004  0.5010195E+03  0.7546771E-02  0.9397531E-01
        -11   -1    0    0    0    0  0.00000000000E+00  0.00000000000E+00  0.50000000000E+03  0.50000000000E+03  0.00000000000E+00 0. -1.
         11   -1    0    0    0    0 -0.00000000000E+00 -0.00000000000E+00 -0.50000000000E+03  0.50000000000E+03  0.00000000000E+00 0. -1.
        -11    1    1    2    0    0 -0.23422186971E+00  0.85359673299E+01  0.49890739213E+03  0.49898046406E+03  0.00000000000E+00 0. -1.
         11    1    1    2    0    0  0.22033926431E+01  0.12642948726E+02 -0.35524462213E+03  0.35547635736E+03  0.00000000000E+00 0. -1.
        -15    1    1    2    0    0 -0.90828402906E+00 -0.28161944892E+00 -0.20934929385E+02  0.21031720965E+02  0.17770000000E+01 0. -1.
         15    1    1    2    0    0 -0.10608867443E+01 -0.20897296607E+02 -0.12272784061E+03  0.12451145761E+03  0.17770000000E+01 0. -1.
</event>
<event>
 6    1  0.1823098E-004  0.5002683E+03  0.7546771E-02  0.9399210E-01
        -11   -1    0    0    0    0  0.00000000000E+00  0.00000000000E+00  0.50000000000E+03  0.50000000000E+03  0.00000000000E+00 0. -1.
         11   -1    0    0    0    0 -0.00000000000E+00 -0.00000000000E+00 -0.50000000000E+03  0.50000000000E+03  0.00000000000E+00 0.  1.
        -11    1    1    2    0    0  0.77493694474E+01 -0.98517147119E+01  0.37273040746E+03  0.37294110212E+03  0.00000000000E+00 0. -1.
         11    1    1    2    0    0 -0.54909880898E+01  0.71887581500E+01 -0.49964981001E+03  0.49973168985E+03  0.00000000000E+00 0.  1.
        -15    1    1    2    0    0  0.14763024354E+01 -0.10446776455E+00  0.94482361844E+02  0.94510659775E+02  0.17770000000E+01 0. -1.
         15    1    1    2    0    0 -0.37346837931E+01  0.27674243264E+01  0.32437040707E+02  0.32816548253E+02  0.17770000000E+01 0.  1.
</event>
<event>
 6    1  0.1823098E-004  0.5007283E+03  0.7546771E-02  0.9398182E-01
        -11   -1    0    0    0    0  0.00000000000E+00  0.00000000000E+00  0.50000000000E+03  0.50000000000E+03  0.00000000000E+00 0. -1.
         11   -1    0    0    0    0 -0.00000000000E+00 -0.00000000000E+00 -0.50000000000E+03  0.50000000000E+03  0.00000000000E+00 0.  1.
        -11    1    1    2    0    0  0.60979893632E-01 -0.68403495308E+01  0.49922485805E+03  0.49927172260E+03  0.00000000000E+00 0. -1.
         11    1    1    2    0    0 -0.92062574316E+01 -0.12183187404E+02 -0.25666465991E+03  0.25711851913E+03  0.00000000000E+00 0.  1.
        -15    1    1    2    0    0  0.36588506681E+01  0.55555021522E+01 -0.47018011987E+02  0.47519490450E+02  0.17770000000E+01 0.  1.
         15    1    1    2    0    0  0.54864268699E+01  0.13468034783E+02 -0.19554218615E+03  0.19609026782E+03  0.17770000000E+01 0.  1.
</event>
<event>
 6    1  0.1823098E-004  0.5035958E+03  0.7546771E-02  0.9391800E-01
        -11   -1    0    0    0    0  0.00000000000E+00  0.00000000000E+00  0.50000000000E+03  0.50000000000E+03  0.00000000000E+00 0. -1.
         11   -1    0    0    0    0 -0.00000000000E+00 -0.00000000000E+00 -0.50000000000E+03  0.50000000000E+03  0.00000000000E+00 0.  1.
        -11    1    1    2    0    0 -0.11083805913E+02 -0.37455340719E+03  0.32558254733E+03  0.49640417073E+03  0.00000000000E+00 0. -1.
         11    1    1    2    0    0 -0.17554388258E+02  0.29939281417E+03 -0.23825561737E+03  0.38302735272E+03  0.00000000000E+00 0.  1.
        -15    1    1    2    0    0  0.58446016719E+01  0.19722781006E+02 -0.10666024597E+02  0.23239390461E+02  0.17770000000E+01 0.  1.
         15    1    1    2    0    0  0.22793592499E+02  0.55437812009E+02 -0.76660905362E+02  0.97329086091E+02  0.17770000000E+01 0. -1.
</event>
<event>
 6    1  0.1823098E-004  0.5035540E+03  0.7546771E-02  0.9391892E-01
        -11   -1    0    0    0    0  0.00000000000E+00  0.00000000000E+00  0.50000000000E+03  0.50000000000E+03  0.00000000000E+00 0. -1.
         11   -1    0    0    0    0 -0.00000000000E+00 -0.00000000000E+00 -0.50000000000E+03  0.50000000000E+03  0.00000000000E+00 0. -1.
        -11    1    1    2    0    0 -0.58300055955E+01 -0.54182802754E+01  0.49638219370E+03  0.49644599801E+03  0.00000000000E+00 0. -1.
         11    1    1    2    0    0  0.39949180367E+01  0.80409269508E+01 -0.48762720359E+03  0.48770985796E+03  0.00000000000E+00 0. -1.
        -15    1    1    2    0    0  0.51315280566E+01  0.21117556671E+01 -0.83529921211E+00  0.58862166089E+01  0.17770000000E+01 0.  1.
         15    1    1    2    0    0 -0.32964404978E+01 -0.47344023425E+01 -0.79196908964E+01  0.99579274144E+01  0.17770000000E+01 0. -1.
</event>
<event>
 6    1  0.1823098E-004  0.5085286E+03  0.7546771E-02  0.9380926E-01
        -11   -1    0    0    0    0  0.00000000000E+00  0.00000000000E+00  0.50000000000E+03  0.50000000000E+03  0.00000000000E+00 0. -1.
         11   -1    0    0    0    0 -0.00000000000E+00 -0.00000000000E+00 -0.50000000000E+03  0.50000000000E+03  0.00000000000E+00 0. -1.
        -11    1    1    2    0    0  0.78370165784E-01 -0.86704486072E+01  0.49139487478E+03  0.49147136822E+03  0.00000000000E+00 0. -1.
         11    1    1    2    0    0  0.15410642176E+02 -0.55050084126E+01 -0.47543658727E+03  0.47571813243E+03  0.00000000000E+00 0. -1.
        -15    1    1    2    0    0 -0.35474123129E+01  0.89627010153E+01 -0.16995429681E+02  0.19619289046E+02  0.17770000000E+01 0. -1.
         15    1    1    2    0    0 -0.11941600029E+02  0.52127560045E+01  0.10371421675E+01  0.13191210304E+02  0.17770000000E+01 0.  1.
</event>
<event>
 6    1  0.1823098E-004  0.5046681E+03  0.7546771E-02  0.9389425E-01
        -11   -1    0    0    0    0  0.00000000000E+00  0.00000000000E+00  0.50000000000E+03  0.50000000000E+03  0.00000000000E+00 0.  1.
         11   -1    0    0    0    0 -0.00000000000E+00 -0.00000000000E+00 -0.50000000000E+03  0.50000000000E+03  0.00000000000E+00 0. -1.
        -11    1    1    2    0    0 -0.56589132401E+01 -0.43564398938E+01  0.49528041610E+03  0.49533190130E+03  0.00000000000E+00 0.  1.
         11    1    1    2    0    0 -0.10488070979E+02  0.19529466656E+01 -0.47488141201E+03  0.47500123064E+03  0.00000000000E+00 0. -1.
        -15    1    1    2    0    0  0.10581704493E+02 -0.19335692988E+01 -0.19492757046E+02  0.22334647220E+02  0.17770000000E+01 0. -1.
         15    1    1    2    0    0  0.55652797262E+01  0.43370625270E+01 -0.90624704806E+00  0.73322208441E+01  0.17770000000E+01 0.  1.
</event>
<event>
 6    1  0.1823098E-004  0.4769862E+03  0.7546771E-02  0.9452830E-01
        -11   -1    0    0    0    0  0.00000000000E+00  0.00000000000E+00  0.50000000000E+03  0.50000000000E+03  0.00000000000E+00 0.  1.
         11   -1    0    0    0    0 -0.00000000000E+00 -0.00000000000E+00 -0.50000000000E+03  0.50000000000E+03  0.00000000000E+00 0. -1.
        -11    1    1    2    0    0 -0.56588615084E+01 -0.29943224673E+01  0.45538308522E+03  0.45542808761E+03  0.00000000000E+00 0.  1.
         11    1    1    2    0    0  0.42883391829E+02 -0.33785789518E+02  0.16697565483E+02  0.57090047830E+02  0.00000000000E+00 0. -1.
        -15    1    1    2    0    0 -0.56592586821E+02  0.23522602138E+02 -0.12132473128E+03  0.13593705103E+03  0.17770000000E+01 0.  1.
         15    1    1    2    0    0  0.19368056500E+02  0.13257509847E+02 -0.35075591942E+03  0.35154481353E+03  0.17770000000E+01 0. -1.
</event>
<event>
 6    1  0.1823098E-004  0.5034077E+03  0.7546771E-02  0.9392217E-01
        -11   -1    0    0    0    0  0.00000000000E+00  0.00000000000E+00  0.50000000000E+03  0.50000000000E+03  0.00000000000E+00 0. -1.
         11   -1    0    0    0    0 -0.00000000000E+00 -0.00000000000E+00 -0.50000000000E+03  0.50000000000E+03  0.00000000000E+00 0.  1.
        -11    1    1    2    0    0 -0.10089783675E+03  0.28236234951E+02  0.48541344214E+03  0.49659225551E+03  0.00000000000E+00 0. -1.
         11    1    1    2    0    0  0.39369706898E+02 -0.24396556517E+02 -0.74747086134E+02  0.87933455957E+02  0.00000000000E+00 0.  1.
        -15    1    1    2    0    0  0.13085282754E+02 -0.48131749939E+01 -0.11553464189E+03  0.11638643600E+03  0.17770000000E+01 0. -1.
         15    1    1    2    0    0  0.48442847102E+02  0.97349655971E+00 -0.29513171411E+03  0.29908785253E+03  0.17770000000E+01 0.  1.
</event>
<event>
 6    1  0.1823098E-004  0.5004623E+03  0.7546771E-02  0.9398776E-01
        -11   -1    0    0    0    0  0.00000000000E+00  0.00000000000E+00  0.50000000000E+03  0.50000000000E+03  0.00000000000E+00 0. -1.
         11   -1    0    0    0    0 -0.00000000000E+00 -0.00000000000E+00 -0.50000000000E+03  0.50000000000E+03  0.00000000000E+00 0.  1.
        -11    1    1    2    0    0  0.78122347566E+01 -0.27778637833E+01  0.26052117915E+03  0.26065308808E+03  0.00000000000E+00 0. -1.
         11    1    1    2    0    0 -0.48428121330E+01 -0.15986000614E+02 -0.49925834146E+03  0.49953768282E+03  0.00000000000E+00 0.  1.
        -15    1    1    2    0    0 -0.93827139692E+00  0.16491063333E+01  0.94411901527E+02  0.94447682787E+02  0.17770000000E+01 0.  1.
         15    1    1    2    0    0 -0.20311512266E+01  0.17114758064E+02  0.14432526078E+03  0.14536154631E+03  0.17770000000E+01 0. -1.
</event>
<event>
 6    1  0.1823098E-004  0.4797957E+03  0.7546771E-02  0.9446189E-01
        -11   -1    0    0    0    0  0.00000000000E+00  0.00000000000E+00  0.50000000000E+03  0.50000000000E+03  0.00000000000E+00 0.  1.
         11   -1    0    0    0    0 -0.00000000000E+00 -0.00000000000E+00 -0.50000000000E+03  0.50000000000E+03  0.00000000000E+00 0.  1.
        -11    1    1    2    0    0 -0.31034435949E+00 -0.15509161564E+01  0.45652951055E+02  0.45680341445E+02  0.00000000000E+00 0.  1.
         11    1    1    2    0    0  0.21264154727E+02 -0.36078177117E+02 -0.49473354777E+03  0.49650285239E+03  0.00000000000E+00 0.  1.
        -15    1    1    2    0    0 -0.32850490116E+02  0.34534421015E+02  0.12965398596E+03  0.13814881375E+03  0.17770000000E+01 0. -1.
         15    1    1    2    0    0  0.11896679749E+02  0.30946722580E+01  0.31942661076E+03  0.31966799241E+03  0.17770000000E+01 0.  1.
</event>
<event>
 6    1  0.1823098E-004  0.4878998E+03  0.7546771E-02  0.9427299E-01
        -11   -1    0    0    0    0  0.00000000000E+00  0.00000000000E+00  0.50000000000E+03  0.50000000000E+03  0.00000000000E+00 0.  1.
         11   -1    0    0    0    0 -0.00000000000E+00 -0.00000000000E+00 -0.50000000000E+03  0.50000000000E+03  0.00000000000E+00 0.  1.
        -11    1    1    2    0    0 -0.43250924316E+00 -0.39132986280E+00  0.25760396331E+02  0.25766998708E+02  0.00000000000E+00 0.  1.
         11    1    1    2    0    0  0.10412565464E+02  0.21051613997E+02 -0.49846265590E+03  0.49901564234E+03  0.00000000000E+00 0.  1.
        -15    1    1    2    0    0 -0.14431195905E+02 -0.32242308241E+02  0.30413582517E+03  0.30618553809E+03  0.17770000000E+01 0.  1.
         15    1    1    2    0    0  0.44511396840E+01  0.11582024107E+02  0.16856643440E+03  0.16903182086E+03  0.17770000000E+01 0. -1.
</event>
<event>
 6    1  0.1823098E-004  0.5010324E+03  0.7546771E-02  0.9397503E-01
        -11   -1    0    0    0    0  0.00000000000E+00  0.00000000000E+00  0.50000000000E+03  0.50000000000E+03  0.00000000000E+00 0.  1.
         11   -1    0    0    0    0 -0.00000000000E+00 -0.00000000000E+00 -0.50000000000E+03  0.50000000000E+03  0.00000000000E+00 0.  1.
        -11    1    1    2    0    0  0.21764247554E+01  0.13738213170E+02  0.49877370388E+03  0.49896761719E+03  0.00000000000E+00 0.  1.
         11    1    1    2    0    0 -0.92927596646E+01 -0.53112874873E-01 -0.38023437390E+03  0.38034791612E+03  0.00000000000E+00 0.  1.
        -15    1    1    2    0    0  0.35578750888E+01 -0.18545239784E+01 -0.58853426840E+01  0.73411662454E+01  0.17770000000E+01 0. -1.
         15    1    1    2    0    0  0.35584598204E+01 -0.11830576317E+02 -0.11265398730E+03  0.11334330044E+03  0.17770000000E+01 0.  1.
</event>
<event>
 6    1  0.1823098E-004  0.5021136E+03  0.7546771E-02  0.9395093E-01
        -11   -1    0    0    0    0  0.00000000000E+00  0.00000000000E+00  0.50000000000E+03  0.50000000000E+03  0.00000000000E+00 0.  1.
         11   -1    0    0    0    0 -0.00000000000E+00 -0.00000000000E+00 -0.50000000000E+03  0.50000000000E+03  0.00000000000E+00 0. -1.
        -11    1    1    2    0    0 -0.11692728008E+02  0.55206266417E+01  0.37441372210E+03  0.37463693425E+03  0.00000000000E+00 0.  1.
         11    1    1    2    0    0 -0.13526380209E+02  0.70864337887E+01 -0.49765215787E+03  0.49788638336E+03  0.00000000000E+00 0. -1.
        -15    1    1    2    0    0  0.10785018176E+02 -0.39617699490E+01  0.22488366761E+02  0.25315935827E+02  0.17770000000E+01 0.  1.
         15    1    1    2    0    0  0.14434090041E+02 -0.86452904814E+01  0.10075006901E+03  0.10216074655E+03  0.17770000000E+01 0. -1.
</event>
<event>
 6    1  0.1823098E-004  0.5091100E+03  0.7546771E-02  0.9379653E-01
        -11   -1    0    0    0    0  0.00000000000E+00  0.00000000000E+00  0.50000000000E+03  0.50000000000E+03  0.00000000000E+00 0.  1.
         11   -1    0    0    0    0 -0.00000000000E+00 -0.00000000000E+00 -0.50000000000E+03  0.50000000000E+03  0.00000000000E+00 0. -1.
        -11    1    1    2    0    0  0.56544707339E+01 -0.14914504324E+02  0.49063082586E+03  0.49089003123E+03  0.00000000000E+00 0.  1.
         11    1    1    2    0    0 -0.44445542248E+02 -0.11204095778E+02 -0.40289395969E+03  0.40549288618E+03  0.00000000000E+00 0. -1.
        -15    1    1    2    0    0 -0.80824959371E+00  0.89754978041E+00  0.16002420556E+01  0.26790607777E+01  0.17770000000E+01 0. -1.
         15    1    1    2    0    0  0.39599321108E+02  0.25221050322E+02 -0.89337108228E+02  0.10093802181E+03  0.17770000000E+01 0.  1.
</event>
<event>
 6    1  0.1823098E-004  0.5002181E+03  0.7546771E-02  0.9399322E-01
        -11   -1    0    0    0    0  0.00000000000E+00  0.00000000000E+00  0.50000000000E+03  0.50000000000E+03  0.00000000000E+00 0. -1.
         11   -1    0    0    0    0 -0.00000000000E+00 -0.00000000000E+00 -0.50000000000E+03  0.50000000000E+03  0.00000000000E+00 0. -1.
        -11    1    1    2    0    0 -0.27064266956E+00 -0.55103627520E+01  0.37784508823E+03  0.37788536363E+03  0.00000000000E+00 0. -1.
         11    1    1    2    0    0 -0.76928881539E+01  0.60348197368E+01 -0.49968627734E+03  0.49978192779E+03  0.00000000000E+00 0. -1.
        -15    1    1    2    0    0 -0.23882104661E+00 -0.10094499592E+01  0.12441564021E+02  0.12610561803E+02  0.17770000000E+01 0.  1.
         15    1    1    2    0    0  0.82023518701E+01  0.48499297439E+00  0.10939962509E+03  0.10972214678E+03  0.17770000000E+01 0.  1.
</event>
<event>
 6    1  0.1823098E-004  0.5006675E+03  0.7546771E-02  0.9398317E-01
        -11   -1    0    0    0    0  0.00000000000E+00  0.00000000000E+00  0.50000000000E+03  0.50000000000E+03  0.00000000000E+00 0. -1.
         11   -1    0    0    0    0 -0.00000000000E+00 -0.00000000000E+00 -0.50000000000E+03  0.50000000000E+03  0.00000000000E+00 0. -1.
        -11    1    1    2    0    0 -0.78682876514E+00 -0.57547589985E+01  0.28556075448E+03  0.28561981873E+03  0.00000000000E+00 0. -1.
         11    1    1    2    0    0 -0.47789294816E+01 -0.11859255389E+02 -0.49916880585E+03  0.49933253133E+03  0.00000000000E+00 0. -1.
        -15    1    1    2    0    0  0.70792525614E+01  0.18502368286E+02  0.14092499263E+03  0.14232169450E+03  0.17770000000E+01 0. -1.
         15    1    1    2    0    0 -0.15134943147E+01 -0.88835389822E+00  0.72683058739E+02  0.72725955437E+02  0.17770000000E+01 0.  1.
</event>
<event>
 6    1  0.1823098E-004  0.3698600E+03  0.7546771E-02  0.9749902E-01
        -11   -1    0    0    0    0  0.00000000000E+00  0.00000000000E+00  0.50000000000E+03  0.50000000000E+03  0.00000000000E+00 0. -1.
         11   -1    0    0    0    0 -0.00000000000E+00 -0.00000000000E+00 -0.50000000000E+03  0.50000000000E+03  0.00000000000E+00 0. -1.
        -11    1    1    2    0    0 -0.47858215430E+02 -0.35632232704E+03  0.24209312739E+03  0.43343406864E+03  0.00000000000E+00 0. -1.
         11    1    1    2    0    0  0.32616799470E+02  0.33814516523E+03 -0.16998168237E+02  0.34013959796E+03  0.00000000000E+00 0. -1.
        -15    1    1    2    0    0  0.13192713990E+02  0.15523091751E+02 -0.17574748279E+03  0.17693317811E+03  0.17770000000E+01 0. -1.
         15    1    1    2    0    0  0.20487019695E+01  0.26540700540E+01 -0.49347476364E+02  0.49493155286E+02  0.17770000000E+01 0.  1.
</event>
<event>
 6    1  0.1823098E-004  0.5012968E+03  0.7546771E-02  0.9396913E-01
        -11   -1    0    0    0    0  0.00000000000E+00  0.00000000000E+00  0.50000000000E+03  0.50000000000E+03  0.00000000000E+00 0.  1.
         11   -1    0    0    0    0 -0.00000000000E+00 -0.00000000000E+00 -0.50000000000E+03  0.50000000000E+03  0.00000000000E+00 0.  1.
        -11    1    1    2    0    0 -0.30340910535E+01  0.38209440355E+02  0.49722800652E+03  0.49870317576E+03  0.00000000000E+00 0.  1.
         11    1    1    2    0    0  0.39775715238E+01  0.59651235268E+01 -0.12369173812E+02  0.14296861009E+02  0.00000000000E+00 0.  1.
        -15    1    1    2    0    0 -0.70188674186E+00 -0.37772540347E+02 -0.36430727868E+03  0.36626521603E+03  0.17770000000E+01 0.  1.
         15    1    1    2    0    0 -0.24159372852E+00 -0.64020235354E+01 -0.12055155403E+03  0.12073474720E+03  0.17770000000E+01 0. -1.
</event>
<event>
 6    1  0.1823098E-004  0.4704280E+03  0.7546771E-02  0.9468525E-01
        -11   -1    0    0    0    0  0.00000000000E+00  0.00000000000E+00  0.50000000000E+03  0.50000000000E+03  0.00000000000E+00 0. -1.
         11   -1    0    0    0    0 -0.00000000000E+00 -0.00000000000E+00 -0.50000000000E+03  0.50000000000E+03  0.00000000000E+00 0. -1.
        -11    1    1    2    0    0  0.42664430976E+01 -0.55367687486E+01  0.48013950867E+03  0.48019038529E+03  0.00000000000E+00 0. -1.
         11    1    1    2    0    0 -0.41437793432E+01  0.44686457730E+02 -0.45951920288E+03  0.46170547779E+03  0.00000000000E+00 0. -1.
        -15    1    1    2    0    0  0.52850457031E+01 -0.40934660049E+02 -0.27013053139E+02  0.49360316756E+02  0.17770000000E+01 0.  1.
         15    1    1    2    0    0 -0.54077094575E+01  0.17849710676E+01  0.63927473498E+01  0.87438201587E+01  0.17770000000E+01 0.  1.
</event>
<event>
 6    1  0.1823098E-004  0.4826848E+03  0.7546771E-02  0.9439410E-01
        -11   -1    0    0    0    0  0.00000000000E+00  0.00000000000E+00  0.50000000000E+03  0.50000000000E+03  0.00000000000E+00 0. -1.
         11   -1    0    0    0    0 -0.00000000000E+00 -0.00000000000E+00 -0.50000000000E+03  0.50000000000E+03  0.00000000000E+00 0.  1.
        -11    1    1    2    0    0  0.19641112917E+02 -0.10737126446E+02  0.48698681596E+03  0.48750099294E+03  0.00000000000E+00 0. -1.
         11    1    1    2    0    0 -0.13613780746E+02 -0.16944020627E+02 -0.47783347247E+03  0.47832756797E+03  0.00000000000E+00 0.  1.
        -15    1    1    2    0    0 -0.92225802746E+01  0.68648705929E+01 -0.16806475891E+01  0.11754349854E+02  0.17770000000E+01 0.  1.
         15    1    1    2    0    0  0.31952481045E+01  0.20816276480E+02 -0.74726958950E+01  0.22417089237E+02  0.17770000000E+01 0. -1.
</event>
<event>
 6    1  0.1823098E-004  0.5000268E+03  0.7546771E-02  0.9399750E-01
        -11   -1    0    0    0    0  0.00000000000E+00  0.00000000000E+00  0.50000000000E+03  0.50000000000E+03  0.00000000000E+00 0.  1.
         11   -1    0    0    0    0 -0.00000000000E+00 -0.00000000000E+00 -0.50000000000E+03  0.50000000000E+03  0.00000000000E+00 0.  1.
        -11    1    1    2    0    0  0.61199245061E+01 -0.38251587071E+01  0.49992111131E+03  0.49997320213E+03  0.00000000000E+00 0.  1.
         11    1    1    2    0    0 -0.81779348167E+00  0.15013230782E+01 -0.86018273078E+02  0.86035260565E+02  0.00000000000E+00 0.  1.
        -15    1    1    2    0    0 -0.60691192620E+00 -0.12776265491E+01 -0.14458798034E+03  0.14460581751E+03  0.17770000000E+01 0.  1.
         15    1    1    2    0    0 -0.46952190982E+01  0.36014621779E+01 -0.26931485790E+03  0.26938571979E+03  0.17770000000E+01 0.  1.
</event>
<event>
 6    1  0.1823098E-004  0.5019093E+03  0.7546771E-02  0.9395548E-01
        -11   -1    0    0    0    0  0.00000000000E+00  0.00000000000E+00  0.50000000000E+03  0.50000000000E+03  0.00000000000E+00 0. -1.
         11   -1    0    0    0    0 -0.00000000000E+00 -0.00000000000E+00 -0.50000000000E+03  0.50000000000E+03  0.00000000000E+00 0. -1.
        -11    1    1    2    0    0  0.18007675681E+02  0.17035438699E+02  0.49747343059E+03  0.49809065109E+03  0.00000000000E+00 0. -1.
         11    1    1    2    0    0  0.98574729001E+01  0.88594452009E+01 -0.11424709895E+03  0.11501329992E+03  0.00000000000E+00 0. -1.
        -15    1    1    2    0    0 -0.26646395392E+02 -0.84093070724E+01 -0.32114767330E+03  0.32236583664E+03  0.17770000000E+01 0. -1.
         15    1    1    2    0    0 -0.12187531895E+01 -0.17485576828E+02 -0.62078658338E+02  0.64530212353E+02  0.17770000000E+01 0.  1.
</event>
<event>
 6    1  0.1823098E-004  0.5054911E+03  0.7546771E-02  0.9387606E-01
        -11   -1    0    0    0    0  0.00000000000E+00  0.00000000000E+00  0.50000000000E+03  0.50000000000E+03  0.00000000000E+00 0.  1.
         11   -1    0    0    0    0 -0.00000000000E+00 -0.00000000000E+00 -0.50000000000E+03  0.50000000000E+03  0.00000000000E+00 0. -1.
        -11    1    1    2    0    0  0.91620666538E+01 -0.20949496079E+01  0.46364671649E+03  0.46374196488E+03  0.00000000000E+00 0.  1.
         11    1    1    2    0    0  0.15757579807E+02  0.50490995832E+01 -0.49423202876E+03  0.49450894126E+03  0.00000000000E+00 0. -1.
        -15    1    1    2    0    0 -0.24279306402E+02 -0.49923011965E+01  0.23768262603E+02  0.34387437049E+02  0.17770000000E+01 0. -1.
         15    1    1    2    0    0 -0.64034005820E+00  0.20381512212E+01  0.68170496703E+01  0.73616568106E+01  0.17770000000E+01 0.  1.
</event>
<event>
 6    1  0.1823098E-004  0.4967031E+03  0.7546771E-02  0.9407217E-01
        -11   -1    0    0    0    0  0.00000000000E+00  0.00000000000E+00  0.50000000000E+03  0.50000000000E+03  0.00000000000E+00 0.  1.
         11   -1    0    0    0    0 -0.00000000000E+00 -0.00000000000E+00 -0.50000000000E+03  0.50000000000E+03  0.00000000000E+00 0.  1.
        -11    1    1    2    0    0  0.69645884865E+01  0.88725443392E+01  0.49633076562E+03  0.49645891716E+03  0.00000000000E+00 0.  1.
         11    1    1    2    0    0 -0.69015674634E+01 -0.75867317784E+01 -0.49684246238E+03  0.49694830974E+03  0.00000000000E+00 0.  1.
        -15    1    1    2    0    0 -0.10092113801E+01  0.11870724041E+01  0.19791154537E+01  0.30825761112E+01  0.17770000000E+01 0.  1.
         15    1    1    2    0    0  0.94619035709E+00 -0.24728849650E+01 -0.14674186885E+01  0.35101969815E+01  0.17770000000E+01 0. -1.
</event>
<event>
 6    1  0.1823098E-004  0.5058413E+03  0.7546771E-02  0.9386833E-01
        -11   -1    0    0    0    0  0.00000000000E+00  0.00000000000E+00  0.50000000000E+03  0.50000000000E+03  0.00000000000E+00 0. -1.
         11   -1    0    0    0    0 -0.00000000000E+00 -0.00000000000E+00 -0.50000000000E+03  0.50000000000E+03  0.00000000000E+00 0. -1.
        -11    1    1    2    0    0  0.62095809645E+00 -0.60747648216E+01  0.40386551551E+03  0.40391167720E+03  0.00000000000E+00 0. -1.
         11    1    1    2    0    0  0.32584410194E+02 -0.20717207929E+02 -0.49264778566E+03  0.49415866603E+03  0.00000000000E+00 0. -1.
        -15    1    1    2    0    0 -0.12029197665E+02  0.63811092676E+00  0.45355248644E+02  0.46961314830E+02  0.17770000000E+01 0.  1.
         15    1    1    2    0    0 -0.21176170626E+02  0.26153861823E+02  0.43427021504E+02  0.54968341946E+02  0.17770000000E+01 0. -1.
</event>
<event>
 6    1  0.1823098E-004  0.5097664E+03  0.7546771E-02  0.9378218E-01
        -11   -1    0    0    0    0  0.00000000000E+00  0.00000000000E+00  0.50000000000E+03  0.50000000000E+03  0.00000000000E+00 0.  1.
         11   -1    0    0    0    0 -0.00000000000E+00 -0.00000000000E+00 -0.50000000000E+03  0.50000000000E+03  0.00000000000E+00 0.  1.
        -11    1    1    2    0    0 -0.88521488932E+01  0.11510552176E+02  0.43970866637E+03  0.43994836588E+03  0.00000000000E+00 0.  1.
         11    1    1    2    0    0 -0.22907587887E+02 -0.86698292171E+01 -0.48962133599E+03  0.49023359349E+03  0.00000000000E+00 0.  1.
        -15    1    1    2    0    0  0.33549829210E+02 -0.52218401134E+01  0.19473875610E+02  0.39182243612E+02  0.17770000000E+01 0.  1.
         15    1    1    2    0    0 -0.17900924295E+01  0.23811171540E+01  0.30438794009E+02  0.30635797027E+02  0.17770000000E+01 0. -1.
</event>
<event>
 6    1  0.1823098E-004  0.5004792E+03  0.7546771E-02  0.9398738E-01
        -11   -1    0    0    0    0  0.00000000000E+00  0.00000000000E+00  0.50000000000E+03  0.50000000000E+03  0.00000000000E+00 0. -1.
         11   -1    0    0    0    0 -0.00000000000E+00 -0.00000000000E+00 -0.50000000000E+03  0.50000000000E+03  0.00000000000E+00 0.  1.
        -11    1    1    2    0    0 -0.72724670150E+01 -0.17717394012E+01  0.48157153303E+03  0.48162970139E+03  0.00000000000E+00 0. -1.
         11    1    1    2    0    0  0.84451491166E+01  0.48403552163E+01 -0.49942593282E+03  0.49952078230E+03  0.00000000000E+00 0.  1.
        -15    1    1    2    0    0  0.62910028685E+00  0.20350613930E+00  0.61516341580E+01  0.64371976615E+01  0.17770000000E+01 0. -1.
         15    1    1    2    0    0 -0.18017823885E+01 -0.32721219543E+01  0.11702765628E+02  0.12412318647E+02  0.17770000000E+01 0.  1.
</event>
<event>
 6    1  0.2965016E-004  0.5019277E+03  0.7546771E-02  0.9395507E-01
        -11   -1    0    0    0    0  0.00000000000E+00  0.00000000000E+00  0.50000000000E+03  0.50000000000E+03  0.00000000000E+00 0.  1.
         11   -1    0    0    0    0 -0.00000000000E+00 -0.00000000000E+00 -0.50000000000E+03  0.50000000000E+03  0.00000000000E+00 0. -1.
        -11    1    1    2    0    0 -0.54807382116E+01 -0.49305365095E+01  0.45788711282E+03  0.45794645623E+03  0.00000000000E+00 0.  1.
         11    1    1    2    0    0 -0.29002418769E+01 -0.73237316151E+01 -0.49800996480E+03  0.49807225729E+03  0.00000000000E+00 0. -1.
        -15    1    1    2    0    0  0.78776744606E+01  0.88095269573E+01  0.18614302563E+02  0.22120477143E+02  0.17770000000E+01 0.  1.
         15    1    1    2    0    0  0.50330562796E+00  0.34447411673E+01  0.21508549409E+02  0.21860809339E+02  0.17770000000E+01 0.  1.
</event>
<event>
 6    1  0.1823098E-004  0.5021073E+03  0.7546771E-02  0.9395107E-01
        -11   -1    0    0    0    0  0.00000000000E+00  0.00000000000E+00  0.50000000000E+03  0.50000000000E+03  0.00000000000E+00 0. -1.
         11   -1    0    0    0    0 -0.00000000000E+00 -0.00000000000E+00 -0.50000000000E+03  0.50000000000E+03  0.00000000000E+00 0.  1.
        -11    1    1    2    0    0 -0.13318955909E+02  0.58378147113E+01  0.49768026965E+03  0.49789268469E+03  0.00000000000E+00 0. -1.
         11    1    1    2    0    0  0.46699009052E+01 -0.15314636406E+02 -0.47542735210E+03  0.47569687112E+03  0.00000000000E+00 0.  1.
        -15    1    1    2    0    0  0.16378230630E+01  0.35914972597E+01 -0.39094561800E+01  0.58329146724E+01  0.17770000000E+01 0.  1.
         15    1    1    2    0    0  0.70112319412E+01  0.58853244353E+01 -0.18343461371E+02  0.20577529519E+02  0.17770000000E+01 0. -1.
</event>
<event>
 6    1  0.1823098E-004  0.5006458E+03  0.7546771E-02  0.9398366E-01
        -11   -1    0    0    0    0  0.00000000000E+00  0.00000000000E+00  0.50000000000E+03  0.50000000000E+03  0.00000000000E+00 0. -1.
         11   -1    0    0    0    0 -0.00000000000E+00 -0.00000000000E+00 -0.50000000000E+03  0.50000000000E+03  0.00000000000E+00 0.  1.
        -11    1    1    2    0    0 -0.17908778277E+02 -0.72522639900E+01  0.49898030378E+03  0.49935424624E+03  0.00000000000E+00 0. -1.
         11    1    1    2    0    0 -0.75735215389E+01  0.20309415659E+01 -0.79156142354E+02  0.79543559290E+02  0.00000000000E+00 0.  1.
        -15    1    1    2    0    0  0.12257592247E+02  0.73944904860E+00 -0.77347455171E+02  0.78336338330E+02  0.17770000000E+01 0. -1.
         15    1    1    2    0    0  0.13224707569E+02  0.44818733755E+01 -0.34247670626E+03  0.34276585614E+03  0.17770000000E+01 0.  1.
</event>
<event>
 6    1  0.1823098E-004  0.5076043E+03  0.7546771E-02  0.9382953E-01
        -11   -1    0    0    0    0  0.00000000000E+00  0.00000000000E+00  0.50000000000E+03  0.50000000000E+03  0.00000000000E+00 0.  1.
         11   -1    0    0    0    0 -0.00000000000E+00 -0.00000000000E+00 -0.50000000000E+03  0.50000000000E+03  0.00000000000E+00 0. -1.
        -11    1    1    2    0    0 -0.77020133313E+01 -0.64000353001E+01  0.49229383169E+03  0.49239567238E+03  0.00000000000E+00 0.  1.
         11    1    1    2    0    0  0.11125106336E+02 -0.11387639567E+02 -0.47459241443E+03  0.47485935408E+03  0.00000000000E+00 0. -1.
        -15    1    1    2    0    0 -0.73308231644E+01  0.15584541609E+02 -0.20759726706E+02  0.27032256423E+02  0.17770000000E+01 0.  1.
         15    1    1    2    0    0  0.39077301591E+01  0.22031332584E+01  0.30583094498E+01  0.57127171155E+01  0.17770000000E+01 0. -1.
</event>
<event>
 6    1  0.1823098E-004  0.5027134E+03  0.7546771E-02  0.9393759E-01
        -11   -1    0    0    0    0  0.00000000000E+00  0.00000000000E+00  0.50000000000E+03  0.50000000000E+03  0.00000000000E+00 0. -1.
         11   -1    0    0    0    0 -0.00000000000E+00 -0.00000000000E+00 -0.50000000000E+03  0.50000000000E+03  0.00000000000E+00 0. -1.
        -11    1    1    2    0    0 -0.79348385256E+01  0.23869298854E+01  0.48025384515E+03  0.48032532192E+03  0.00000000000E+00 0. -1.
         11    1    1    2    0    0 -0.42175948170E+01 -0.73857378908E+01 -0.49721389725E+03  0.49728663450E+03  0.00000000000E+00 0. -1.
        -15    1    1    2    0    0  0.63072728526E+01  0.52056230982E+01  0.82899512913E+01  0.11779695416E+02  0.17770000000E+01 0.  1.
         15    1    1    2    0    0  0.58451604901E+01 -0.20681509278E+00  0.86701008160E+01  0.10608348165E+02  0.17770000000E+01 0. -1.
</event>
<event>
 6    1  0.1823098E-004  0.5011854E+03  0.7546771E-02  0.9397161E-01
        -11   -1    0    0    0    0  0.00000000000E+00  0.00000000000E+00  0.50000000000E+03  0.50000000000E+03  0.00000000000E+00 0.  1.
         11   -1    0    0    0    0 -0.00000000000E+00 -0.00000000000E+00 -0.50000000000E+03  0.50000000000E+03  0.00000000000E+00 0. -1.
        -11    1    1    2    0    0 -0.81219214069E+01  0.77759212340E+01  0.41229489466E+03  0.41244819156E+03  0.00000000000E+00 0.  1.
         11    1    1    2    0    0  0.26814737849E+00  0.92986536724E+01 -0.49872780939E+03  0.49881455945E+03  0.00000000000E+00 0. -1.
        -15    1    1    2    0    0  0.72158425287E+01 -0.15065581968E+02  0.79892685002E+02  0.81639690037E+02  0.17770000000E+01 0.  1.
         15    1    1    2    0    0  0.63793149964E+00 -0.20089929388E+01  0.65402297253E+01  0.70975589527E+01  0.17770000000E+01 0. -1.
</event>
<event>
 6    1  0.1823098E-004  0.5007188E+03  0.7546771E-02  0.9398203E-01
        -11   -1    0    0    0    0  0.00000000000E+00  0.00000000000E+00  0.50000000000E+03  0.50000000000E+03  0.00000000000E+00 0.  1.
         11   -1    0    0    0    0 -0.00000000000E+00 -0.00000000000E+00 -0.50000000000E+03  0.50000000000E+03  0.00000000000E+00 0. -1.
        -11    1    1    2    0    0  0.48560377041E+01 -0.75514032064E+01  0.49920043569E+03  0.49928116306E+03  0.00000000000E+00 0.  1.
         11    1    1    2    0    0 -0.44639240654E+01 -0.11208959750E+02 -0.31828693088E+03  0.31851552201E+03  0.00000000000E+00 0. -1.
        -15    1    1    2    0    0 -0.31827911059E+01  0.45326110571E+01 -0.28251638202E+02  0.28844193737E+02  0.17770000000E+01 0.  1.
         15    1    1    2    0    0  0.27906774671E+01  0.14227751899E+02 -0.15266186661E+03  0.15335912119E+03  0.17770000000E+01 0. -1.
</event>
<event>
 6    1  0.1823098E-004  0.5006393E+03  0.7546771E-02  0.9398380E-01
        -11   -1    0    0    0    0  0.00000000000E+00  0.00000000000E+00  0.50000000000E+03  0.50000000000E+03  0.00000000000E+00 0.  1.
         11   -1    0    0    0    0 -0.00000000000E+00 -0.00000000000E+00 -0.50000000000E+03  0.50000000000E+03  0.00000000000E+00 0. -1.
        -11    1    1    2    0    0  0.92260674591E+01 -0.61089482794E+00  0.49927511923E+03  0.49936072953E+03  0.00000000000E+00 0.  1.
         11    1    1    2    0    0  0.99564924928E+01 -0.88178526971E+00 -0.29709948587E+03  0.29726757945E+03  0.00000000000E+00 0. -1.
        -15    1    1    2    0    0 -0.66429690036E+01 -0.13304097816E+01 -0.35041826375E+02  0.35734945811E+02  0.17770000000E+01 0.  1.
         15    1    1    2    0    0 -0.12539590948E+02  0.28230898793E+01 -0.16713380699E+03  0.16763674521E+03  0.17770000000E+01 0. -1.
</event>
<event>
 6    1  0.1823098E-004  0.5056932E+03  0.7546771E-02  0.9387160E-01
        -11   -1    0    0    0    0  0.00000000000E+00  0.00000000000E+00  0.50000000000E+03  0.50000000000E+03  0.00000000000E+00 0.  1.
         11   -1    0    0    0    0 -0.00000000000E+00 -0.00000000000E+00 -0.50000000000E+03  0.50000000000E+03  0.00000000000E+00 0. -1.
        -11    1    1    2    0    0 -0.17117416537E+01  0.11796092225E+02  0.49416304052E+03  0.49430677566E+03  0.00000000000E+00 0.  1.
         11    1    1    2    0    0  0.16999444837E+02 -0.17268420092E+02 -0.47381260759E+03  0.47443183553E+03  0.00000000000E+00 0. -1.
        -15    1    1    2    0    0 -0.94969448939E+01  0.83545363985E+01 -0.36808488213E+01  0.13292728004E+02  0.17770000000E+01 0.  1.
         15    1    1    2    0    0 -0.57907582891E+01 -0.28822085313E+01 -0.16669584111E+02  0.17968660802E+02  0.17770000000E+01 0. -1.
</event>
<event>
 6    1  0.1823098E-004  0.4689608E+03  0.7546771E-02  0.9472073E-01
        -11   -1    0    0    0    0  0.00000000000E+00  0.00000000000E+00  0.50000000000E+03  0.50000000000E+03  0.00000000000E+00 0.  1.
         11   -1    0    0    0    0 -0.00000000000E+00 -0.00000000000E+00 -0.50000000000E+03  0.50000000000E+03  0.00000000000E+00 0.  1.
        -11    1    1    2    0    0  0.78160870646E+01 -0.18924166699E+01  0.46945198723E+03  0.46952086297E+03  0.00000000000E+00 0.  1.
         11    1    1    2    0    0  0.45101725052E+02 -0.49970858601E+01 -0.46772305360E+03  0.46991913276E+03  0.00000000000E+00 0.  1.
        -15    1    1    2    0    0 -0.47303934359E+02  0.61515291167E+01 -0.11524715645E+02  0.49106825555E+02  0.17770000000E+01 0.  1.
         15    1    1    2    0    0 -0.56138777577E+01  0.73797341317E+00  0.97957820155E+01  0.11453178709E+02  0.17770000000E+01 0.  1.
</event>
<event>
 6    1  0.1823098E-004  0.4852715E+03  0.7546771E-02  0.9433383E-01
        -11   -1    0    0    0    0  0.00000000000E+00  0.00000000000E+00  0.50000000000E+03  0.50000000000E+03  0.00000000000E+00 0.  1.
         11   -1    0    0    0    0 -0.00000000000E+00 -0.00000000000E+00 -0.50000000000E+03  0.50000000000E+03  0.00000000000E+00 0. -1.
        -11    1    1    2    0    0  0.21201102129E+01  0.70050281377E+01  0.49015319848E+03  0.49020783681E+03  0.00000000000E+00 0.  1.
         11    1    1    2    0    0  0.11789675982E+02  0.98183962811E+01 -0.48038473858E+03  0.48062968533E+03  0.00000000000E+00 0. -1.
        -15    1    1    2    0    0 -0.81375486991E+01 -0.12016711201E+01  0.20527851416E+01  0.86622957782E+01  0.17770000000E+01 0.  1.
         15    1    1    2    0    0 -0.57722374962E+01 -0.15621753299E+02 -0.11821245047E+02  0.20500182080E+02  0.17770000000E+01 0. -1.
</event>
<event>
 6    1  0.1823098E-004  0.5011713E+03  0.7546771E-02  0.9397193E-01
        -11   -1    0    0    0    0  0.00000000000E+00  0.00000000000E+00  0.50000000000E+03  0.50000000000E+03  0.00000000000E+00 0. -1.
         11   -1    0    0    0    0 -0.00000000000E+00 -0.00000000000E+00 -0.50000000000E+03  0.50000000000E+03  0.00000000000E+00 0.  1.
        -11    1    1    2    0    0  0.63348576987E+00 -0.13461504838E+02  0.49864665399E+03  0.49882872707E+03  0.00000000000E+00 0. -1.
         11    1    1    2    0    0 -0.16211423755E+02 -0.45967013278E+01 -0.29359736921E+03  0.29408052491E+03  0.00000000000E+00 0.  1.
        -15    1    1    2    0    0  0.12857828113E+02  0.15607461402E+02 -0.10417342182E+03  0.10613282309E+03  0.17770000000E+01 0. -1.
         15    1    1    2    0    0  0.27201098725E+01  0.24507447637E+01 -0.10087586297E+03  0.10095792493E+03  0.17770000000E+01 0.  1.
</event>
<event>
 6    1  0.1823098E-004  0.5020811E+03  0.7546771E-02  0.9395165E-01
        -11   -1    0    0    0    0  0.00000000000E+00  0.00000000000E+00  0.50000000000E+03  0.50000000000E+03  0.00000000000E+00 0. -1.
         11   -1    0    0    0    0 -0.00000000000E+00 -0.00000000000E+00 -0.50000000000E+03  0.50000000000E+03  0.00000000000E+00 0. -1.
        -11    1    1    2    0    0 -0.92340576695E+01  0.41740180438E+01  0.44955484950E+03  0.44966904825E+03  0.00000000000E+00 0. -1.
         11    1    1    2    0    0 -0.56087694489E+01  0.65544675042E+01 -0.49784417964E+03  0.49791891563E+03  0.00000000000E+00 0. -1.
        -15    1    1    2    0    0  0.15433309719E+01 -0.32959437166E+01  0.47086442279E+01  0.62108111336E+01  0.17770000000E+01 0. -1.
         15    1    1    2    0    0  0.13299496147E+02 -0.74325418313E+01  0.43580685919E+02  0.46201224984E+02  0.17770000000E+01 0.  1.
</event>
<event>
 6    1  0.1823098E-004  0.4839688E+03  0.7546771E-02  0.9436413E-01
        -11   -1    0    0    0    0  0.00000000000E+00  0.00000000000E+00  0.50000000000E+03  0.50000000000E+03  0.00000000000E+00 0.  1.
         11   -1    0    0    0    0 -0.00000000000E+00 -0.00000000000E+00 -0.50000000000E+03  0.50000000000E+03  0.00000000000E+00 0.  1.
        -11    1    1    2    0    0 -0.82601295671E+01 -0.21543826869E+01  0.47986549680E+03  0.47994141947E+03  0.00000000000E+00 0.  1.
         11    1    1    2    0    0 -0.94843788465E+01  0.23480294811E+02 -0.48776891953E+03  0.48842583526E+03  0.00000000000E+00 0.  1.
        -15    1    1    2    0    0  0.37367661401E+01  0.92009142826E-01  0.38659063669E+01  0.56634660682E+01  0.17770000000E+01 0. -1.
         15    1    1    2    0    0  0.14007742274E+02 -0.21417921267E+02  0.40375163692E+01  0.25969279205E+02  0.17770000000E+01 0.  1.
</event>
<event>
 6    1  0.1823098E-004  0.5010582E+03  0.7546771E-02  0.9397445E-01
        -11   -1    0    0    0    0  0.00000000000E+00  0.00000000000E+00  0.50000000000E+03  0.50000000000E+03  0.00000000000E+00 0.  1.
         11   -1    0    0    0    0 -0.00000000000E+00 -0.00000000000E+00 -0.50000000000E+03  0.50000000000E+03  0.00000000000E+00 0. -1.
        -11    1    1    2    0    0 -0.98034428101E+01 -0.55085191548E+01  0.49881508175E+03  0.49894181731E+03  0.00000000000E+00 0.  1.
         11    1    1    2    0    0 -0.65067809552E+01 -0.61340310240E+01 -0.39680909090E+03  0.39690983757E+03  0.00000000000E+00 0. -1.
        -15    1    1    2    0    0  0.15150467811E+02  0.94987266134E+01 -0.85315011602E+02  0.87186991092E+02  0.17770000000E+01 0. -1.
         15    1    1    2    0    0  0.11597559542E+01  0.21438235654E+01 -0.16690979250E+02  0.16961354034E+02  0.17770000000E+01 0.  1.
</event>
<event>
 6    1  0.1823098E-004  0.5005233E+03  0.7546771E-02  0.9398640E-01
        -11   -1    0    0    0    0  0.00000000000E+00  0.00000000000E+00  0.50000000000E+03  0.50000000000E+03  0.00000000000E+00 0.  1.
         11   -1    0    0    0    0 -0.00000000000E+00 -0.00000000000E+00 -0.50000000000E+03  0.50000000000E+03  0.00000000000E+00 0. -1.
        -11    1    1    2    0    0  0.49663051604E+01  0.76701761116E+01  0.25714425317E+03  0.25730655399E+03  0.00000000000E+00 0.  1.
         11    1    1    2    0    0 -0.10231362649E+02 -0.13215931194E+02 -0.49919703182E+03  0.49947674440E+03  0.00000000000E+00 0. -1.
        -15    1    1    2    0    0  0.98396083688E+01  0.91085005719E+01  0.86975920846E+02  0.88021311121E+02  0.17770000000E+01 0.  1.
         15    1    1    2    0    0 -0.45745508807E+01 -0.35627454891E+01  0.15507685780E+03  0.15519539048E+03  0.17770000000E+01 0. -1.
</event>
<event>
 6    1  0.1823098E-004  0.5008928E+03  0.7546771E-02  0.9397814E-01
        -11   -1    0    0    0    0  0.00000000000E+00  0.00000000000E+00  0.50000000000E+03  0.50000000000E+03  0.00000000000E+00 0.  1.
         11   -1    0    0    0    0 -0.00000000000E+00 -0.00000000000E+00 -0.50000000000E+03  0.50000000000E+03  0.00000000000E+00 0. -1.
        -11    1    1    2    0    0  0.82801087892E+01 -0.78605350977E+00  0.49903792423E+03  0.49910723086E+03  0.00000000000E+00 0.  1.
         11    1    1    2    0    0 -0.66296127457E+01 -0.45108953225E+01 -0.46886354411E+03  0.46893210909E+03  0.00000000000E+00 0. -1.
        -15    1    1    2    0    0  0.18413470336E+01  0.50660644974E+01 -0.23861273310E+02  0.24526998621E+02  0.17770000000E+01 0. -1.
         15    1    1    2    0    0 -0.34918430771E+01  0.23088433483E+00 -0.63131068099E+01  0.74336614292E+01  0.17770000000E+01 0.  1.
</event>
<event>
 6    1  0.2717311E-004  0.5001393E+03  0.7546771E-02  0.9399498E-01
        -11   -1    0    0    0    0  0.00000000000E+00  0.00000000000E+00  0.50000000000E+03  0.50000000000E+03  0.00000000000E+00 0. -1.
         11   -1    0    0    0    0 -0.00000000000E+00 -0.00000000000E+00 -0.50000000000E+03  0.50000000000E+03  0.00000000000E+00 0. -1.
        -11    1    1    2    0    0 -0.14940406135E+01  0.18912869109E+01  0.17342470768E+03  0.17344145513E+03  0.00000000000E+00 0. -1.
         11    1    1    2    0    0 -0.10577562249E+02 -0.30444350451E+01 -0.49973946727E+03  0.49986066914E+03  0.00000000000E+00 0. -1.
        -15    1    1    2    0    0 -0.90982988678E+00 -0.28073998476E+00  0.84593946324E+02  0.84617965522E+02  0.17770000000E+01 0. -1.
         15    1    1    2    0    0  0.12981432750E+02  0.14338881189E+01  0.24172081327E+03  0.24207991021E+03  0.17770000000E+01 0. -1.
</event>
<event>
 6    1  0.1823098E-004  0.5011228E+03  0.7546771E-02  0.9397301E-01
        -11   -1    0    0    0    0  0.00000000000E+00  0.00000000000E+00  0.50000000000E+03  0.50000000000E+03  0.00000000000E+00 0. -1.
         11   -1    0    0    0    0 -0.00000000000E+00 -0.00000000000E+00 -0.50000000000E+03  0.50000000000E+03  0.00000000000E+00 0.  1.
        -11    1    1    2    0    0 -0.62238282176E+01  0.31124508249E+01  0.49882865940E+03  0.49887719414E+03  0.00000000000E+00 0. -1.
         11    1    1    2    0    0  0.67651979801E+01  0.43507102434E+01 -0.14567824309E+02  0.16640856001E+02  0.00000000000E+00 0.  1.
        -15    1    1    2    0    0  0.55676784039E+01 -0.20213229562E+01 -0.23106746458E+03  0.23115020161E+03  0.17770000000E+01 0.  1.
         15    1    1    2    0    0 -0.61090481664E+01 -0.54418381122E+01 -0.25319337052E+03  0.25333174826E+03  0.17770000000E+01 0. -1.
</event>
<event>
 6    1  0.1823098E-004  0.5009291E+03  0.7546771E-02  0.9397733E-01
        -11   -1    0    0    0    0  0.00000000000E+00  0.00000000000E+00  0.50000000000E+03  0.50000000000E+03  0.00000000000E+00 0.  1.
         11   -1    0    0    0    0 -0.00000000000E+00 -0.00000000000E+00 -0.50000000000E+03  0.50000000000E+03  0.00000000000E+00 0. -1.
        -11    1    1    2    0    0 -0.63497283214E+01 -0.10339791823E+01  0.19731599136E+03  0.19742084137E+03  0.00000000000E+00 0.  1.
         11    1    1    2    0    0 -0.94563780752E+01  0.21102819395E+02 -0.49853481456E+03  0.49907085008E+03  0.00000000000E+00 0. -1.
        -15    1    1    2    0    0  0.10015425309E+02  0.35797108488E+01  0.14425534964E+03  0.14465782628E+03  0.17770000000E+01 0. -1.
         15    1    1    2    0    0  0.57906810880E+01 -0.23648551061E+02  0.15696347356E+03  0.15885048227E+03  0.17770000000E+01 0.  1.
</event>
<event>
 6    1  0.1823098E-004  0.4750572E+03  0.7546771E-02  0.9457419E-01
        -11   -1    0    0    0    0  0.00000000000E+00  0.00000000000E+00  0.50000000000E+03  0.50000000000E+03  0.00000000000E+00 0. -1.
         11   -1    0    0    0    0 -0.00000000000E+00 -0.00000000000E+00 -0.50000000000E+03  0.50000000000E+03  0.00000000000E+00 0.  1.
        -11    1    1    2    0    0  0.29422888811E+01 -0.17039623426E+02  0.48445350064E+03  0.48476200358E+03  0.00000000000E+00 0. -1.
         11    1    1    2    0    0  0.50873352470E+01 -0.18638062045E+02 -0.46583770251E+03  0.46623816169E+03  0.00000000000E+00 0.  1.
        -15    1    1    2    0    0 -0.34559339633E+01  0.85058174366E+01 -0.19228274353E+02  0.21381690144E+02  0.17770000000E+01 0.  1.
         15    1    1    2    0    0 -0.45736901648E+01  0.27171868035E+02  0.61247622406E+00  0.27618144586E+02  0.17770000000E+01 0. -1.
</event>
<event>
 6    1  0.1823098E-004  0.5001208E+03  0.7546771E-02  0.9399539E-01
        -11   -1    0    0    0    0  0.00000000000E+00  0.00000000000E+00  0.50000000000E+03  0.50000000000E+03  0.00000000000E+00 0.  1.
         11   -1    0    0    0    0 -0.00000000000E+00 -0.00000000000E+00 -0.50000000000E+03  0.50000000000E+03  0.00000000000E+00 0.  1.
        -11    1    1    2    0    0  0.66345907326E+01  0.96343264131E+01  0.49974227270E+03  0.49987916256E+03  0.00000000000E+00 0.  1.
         11    1    1    2    0    0 -0.17212618647E+01  0.22433175462E+01 -0.45411440115E+02  0.45499385813E+02  0.00000000000E+00 0.  1.
        -15    1    1    2    0    0 -0.33493807209E+01 -0.61559778872E+00 -0.60064922422E+02  0.60187622868E+02  0.17770000000E+01 0. -1.
         15    1    1    2    0    0 -0.15639481470E+01 -0.11262046171E+02 -0.39426591017E+03  0.39443382875E+03  0.17770000000E+01 0.  1.
</event>
<event>
 6    1  0.1823098E-004  0.5017378E+03  0.7546771E-02  0.9395930E-01
        -11   -1    0    0    0    0  0.00000000000E+00  0.00000000000E+00  0.50000000000E+03  0.50000000000E+03  0.00000000000E+00 0.  1.
         11   -1    0    0    0    0 -0.00000000000E+00 -0.00000000000E+00 -0.50000000000E+03  0.50000000000E+03  0.00000000000E+00 0. -1.
        -11    1    1    2    0    0  0.27891306113E+02  0.16246651183E+02  0.34308612475E+03  0.34460117183E+03  0.00000000000E+00 0.  1.
         11    1    1    2    0    0 -0.28944020016E+02 -0.39696671797E+02 -0.49583427858E+03  0.49826219389E+03  0.00000000000E+00 0. -1.
        -15    1    1    2    0    0  0.49094904563E+01  0.24768758636E+01  0.10064001946E+03  0.10080579972E+03  0.17770000000E+01 0.  1.
         15    1    1    2    0    0 -0.38567765526E+01  0.20973144750E+02  0.52108134367E+02  0.56330834560E+02  0.17770000000E+01 0. -1.
</event>
<event>
 6    1  0.1823098E-004  0.5010179E+03  0.7546771E-02  0.9397535E-01
        -11   -1    0    0    0    0  0.00000000000E+00  0.00000000000E+00  0.50000000000E+03  0.50000000000E+03  0.00000000000E+00 0.  1.
         11   -1    0    0    0    0 -0.00000000000E+00 -0.00000000000E+00 -0.50000000000E+03  0.50000000000E+03  0.00000000000E+00 0. -1.
        -11    1    1    2    0    0 -0.26695830617E+01  0.61465183488E+01  0.19903061449E+03  0.19914339523E+03  0.00000000000E+00 0.  1.
         11    1    1    2    0    0  0.32620347747E+01  0.35061072114E+02 -0.49773810493E+03  0.49898210464E+03  0.00000000000E+00 0. -1.
        -15    1    1    2    0    0  0.30795251496E+00 -0.34133078753E+02  0.20052368694E+03  0.20341599901E+03  0.17770000000E+01 0.  1.
         15    1    1    2    0    0 -0.90040422795E+00 -0.70745117103E+01  0.98183803498E+02  0.98458501116E+02  0.17770000000E+01 0. -1.
</event>
<event>
 6    1  0.1823098E-004  0.5004604E+03  0.7546771E-02  0.9398780E-01
        -11   -1    0    0    0    0  0.00000000000E+00  0.00000000000E+00  0.50000000000E+03  0.50000000000E+03  0.00000000000E+00 0. -1.
         11   -1    0    0    0    0 -0.00000000000E+00 -0.00000000000E+00 -0.50000000000E+03  0.50000000000E+03  0.00000000000E+00 0. -1.
        -11    1    1    2    0    0 -0.42868007413E+01  0.36035707932E+01  0.73853828246E+02  0.74065851305E+02  0.00000000000E+00 0. -1.
         11    1    1    2    0    0  0.74935605356E+01  0.21845332710E+02 -0.49900547117E+03  0.49953962031E+03  0.00000000000E+00 0. -1.
        -15    1    1    2    0    0 -0.10763527901E+02 -0.85795586023E+01  0.16684240655E+03  0.16741866298E+03  0.17770000000E+01 0.  1.
         15    1    1    2    0    0  0.75567681070E+01 -0.16869344901E+02  0.25830923637E+03  0.25897586541E+03  0.17770000000E+01 0. -1.
</event>
<event>
 6    1  0.1823098E-004  0.5025341E+03  0.7546771E-02  0.9394157E-01
        -11   -1    0    0    0    0  0.00000000000E+00  0.00000000000E+00  0.50000000000E+03  0.50000000000E+03  0.00000000000E+00 0.  1.
         11   -1    0    0    0    0 -0.00000000000E+00 -0.00000000000E+00 -0.50000000000E+03  0.50000000000E+03  0.00000000000E+00 0.  1.
        -11    1    1    2    0    0 -0.36727863982E+01 -0.75318823458E+01  0.45185942326E+03  0.45193711620E+03  0.00000000000E+00 0.  1.
         11    1    1    2    0    0 -0.16350898060E+02  0.99546459598E+01 -0.49709741198E+03  0.49746586198E+03  0.00000000000E+00 0.  1.
        -15    1    1    2    0    0  0.19117320020E+02  0.26647223014E+00  0.40162270658E+02  0.44516386259E+02  0.17770000000E+01 0.  1.
         15    1    1    2    0    0  0.90636443898E+00 -0.26892358441E+01  0.50757180588E+01  0.60806355535E+01  0.17770000000E+01 0. -1.
</event>
<event>
 6    1  0.1823098E-004  0.5006795E+03  0.7546771E-02  0.9398291E-01
        -11   -1    0    0    0    0  0.00000000000E+00  0.00000000000E+00  0.50000000000E+03  0.50000000000E+03  0.00000000000E+00 0. -1.
         11   -1    0    0    0    0 -0.00000000000E+00 -0.00000000000E+00 -0.50000000000E+03  0.50000000000E+03  0.00000000000E+00 0. -1.
        -11    1    1    2    0    0  0.94616382591E+01  0.26168674643E+00  0.66261985058E+02  0.66934607957E+02  0.00000000000E+00 0. -1.
         11    1    1    2    0    0  0.14437740288E+01 -0.31734787783E+02 -0.49830891175E+03  0.49932049103E+03  0.00000000000E+00 0. -1.
        -15    1    1    2    0    0 -0.15452283515E+02  0.19588039521E+02  0.31616402053E+03  0.31715187208E+03  0.17770000000E+01 0. -1.
         15    1    1    2    0    0  0.45468712271E+01  0.11885061515E+02  0.11588290616E+03  0.11659302893E+03  0.17770000000E+01 0.  1.
</event>
<event>
 6    1  0.1823098E-004  0.4791463E+03  0.7546771E-02  0.9447720E-01
        -11   -1    0    0    0    0  0.00000000000E+00  0.00000000000E+00  0.50000000000E+03  0.50000000000E+03  0.00000000000E+00 0.  1.
         11   -1    0    0    0    0 -0.00000000000E+00 -0.00000000000E+00 -0.50000000000E+03  0.50000000000E+03  0.00000000000E+00 0.  1.
        -11    1    1    2    0    0  0.89723749725E+01  0.96192941576E+00  0.48415493624E+03  0.48423902271E+03  0.00000000000E+00 0.  1.
         11    1    1    2    0    0 -0.20175908129E+02 -0.34857531279E+02 -0.47307098471E+03  0.47478234101E+03  0.00000000000E+00 0.  1.
        -15    1    1    2    0    0  0.29894712001E+00  0.63363085937E+01 -0.90822754664E+01  0.11219787548E+02  0.17770000000E+01 0. -1.
         15    1    1    2    0    0  0.10904586036E+02  0.27559293270E+02 -0.20016760648E+01  0.29758848738E+02  0.17770000000E+01 0.  1.
</event>
<event>
 6    1  0.1886543E-004  0.5024599E+03  0.7546771E-02  0.9394322E-01
        -11   -1    0    0    0    0  0.00000000000E+00  0.00000000000E+00  0.50000000000E+03  0.50000000000E+03  0.00000000000E+00 0. -1.
         11   -1    0    0    0    0 -0.00000000000E+00 -0.00000000000E+00 -0.50000000000E+03  0.50000000000E+03  0.00000000000E+00 0.  1.
        -11    1    1    2    0    0 -0.43132798164E+02  0.11010125559E+02  0.49554468015E+03  0.49754014026E+03  0.00000000000E+00 0. -1.
         11    1    1    2    0    0  0.47505634038E+02 -0.80123974191E+01 -0.16604916019E+03  0.17289681136E+03  0.00000000000E+00 0.  1.
        -15    1    1    2    0    0 -0.34175677412E+01 -0.14356372350E+01 -0.19493438731E+03  0.19497772670E+03  0.17770000000E+01 0.  1.
         15    1    1    2    0    0 -0.95526813312E+00 -0.15620909051E+01 -0.13456113265E+03  0.13458532169E+03  0.17770000000E+01 0.  1.
</event>
<event>
 6    1  0.1823098E-004  0.5016802E+03  0.7546771E-02  0.9396058E-01
        -11   -1    0    0    0    0  0.00000000000E+00  0.00000000000E+00  0.50000000000E+03  0.50000000000E+03  0.00000000000E+00 0.  1.
         11   -1    0    0    0    0 -0.00000000000E+00 -0.00000000000E+00 -0.50000000000E+03  0.50000000000E+03  0.00000000000E+00 0.  1.
        -11    1    1    2    0    0 -0.29720697245E+01 -0.67036001682E+01  0.47722586265E+03  0.47728219685E+03  0.00000000000E+00 0.  1.
         11    1    1    2    0    0  0.90538308045E+01  0.14729194618E+01 -0.49823533875E+03  0.49831977096E+03  0.00000000000E+00 0.  1.
        -15    1    1    2    0    0 -0.20966181264E+01  0.14928161189E+00  0.15450933916E+02  0.15694176641E+02  0.17770000000E+01 0.  1.
         15    1    1    2    0    0 -0.39851429536E+01  0.50813990945E+01  0.55585421916E+01  0.87038555488E+01  0.17770000000E+01 0. -1.
</event>
<event>
 6    1  0.1823098E-004  0.4589005E+03  0.7546771E-02  0.9496781E-01
        -11   -1    0    0    0    0  0.00000000000E+00  0.00000000000E+00  0.50000000000E+03  0.50000000000E+03  0.00000000000E+00 0. -1.
         11   -1    0    0    0    0 -0.00000000000E+00 -0.00000000000E+00 -0.50000000000E+03  0.50000000000E+03  0.00000000000E+00 0. -1.
        -11    1    1    2    0    0  0.90561978360E+01 -0.79536373627E+01  0.44889218097E+03  0.44905396691E+03  0.00000000000E+00 0. -1.
         11    1    1    2    0    0  0.45836175051E+02  0.57899331665E+02 -0.46608949433E+03  0.47190327852E+03  0.00000000000E+00 0. -1.
        -15    1    1    2    0    0 -0.34758852480E+01 -0.12825515523E+02  0.57036258110E+01  0.14569306884E+02  0.17770000000E+01 0.  1.
         15    1    1    2    0    0 -0.51416487639E+02 -0.37120178779E+02  0.11493687556E+02  0.64473447685E+02  0.17770000000E+01 0. -1.
</event>
<event>
 6    1  0.1823098E-004  0.5011026E+03  0.7546771E-02  0.9397346E-01
        -11   -1    0    0    0    0  0.00000000000E+00  0.00000000000E+00  0.50000000000E+03  0.50000000000E+03  0.00000000000E+00 0.  1.
         11   -1    0    0    0    0 -0.00000000000E+00 -0.00000000000E+00 -0.50000000000E+03  0.50000000000E+03  0.00000000000E+00 0.  1.
        -11    1    1    2    0    0 -0.54400878676E+01 -0.51491754671E+01  0.49884115529E+03  0.49889739103E+03  0.00000000000E+00 0.  1.
         11    1    1    2    0    0  0.60799300100E+01  0.12891673404E+02 -0.44808727263E+03  0.44831391311E+03  0.00000000000E+00 0.  1.
        -15    1    1    2    0    0  0.18313625792E+01 -0.28287488519E+00 -0.17037665674E+01  0.30813076143E+01  0.17770000000E+01 0. -1.
         15    1    1    2    0    0 -0.24712047216E+01 -0.74596230517E+01 -0.49050116093E+02  0.49707388249E+02  0.17770000000E+01 0.  1.
</event>
<event>
 6    1  0.1823098E-004  0.4966412E+03  0.7546771E-02  0.9407357E-01
        -11   -1    0    0    0    0  0.00000000000E+00  0.00000000000E+00  0.50000000000E+03  0.50000000000E+03  0.00000000000E+00 0.  1.
         11   -1    0    0    0    0 -0.00000000000E+00 -0.00000000000E+00 -0.50000000000E+03  0.50000000000E+03  0.00000000000E+00 0. -1.
        -11    1    1    2    0    0  0.83436725412E+01 -0.32190500308E+01  0.48191398620E+01  0.10158900708E+02  0.00000000000E+00 0.  1.
         11    1    1    2    0    0  0.17148565321E+03 -0.33249839776E+02 -0.46188992018E+03  0.49381694935E+03  0.00000000000E+00 0. -1.
        -15    1    1    2    0    0 -0.10784685861E+03  0.48525767119E+02  0.25282410898E+03  0.27912162725E+03  0.17770000000E+01 0.  1.
         15    1    1    2    0    0 -0.71982467139E+02 -0.12056877313E+02  0.20424667134E+03  0.21690252269E+03  0.17770000000E+01 0. -1.
</event>
<event>
 6    1  0.1823098E-004  0.5167101E+03  0.7546771E-02  0.9363177E-01
        -11   -1    0    0    0    0  0.00000000000E+00  0.00000000000E+00  0.50000000000E+03  0.50000000000E+03  0.00000000000E+00 0. -1.
         11   -1    0    0    0    0 -0.00000000000E+00 -0.00000000000E+00 -0.50000000000E+03  0.50000000000E+03  0.00000000000E+00 0.  1.
        -11    1    1    2    0    0  0.17732166757E+01  0.74333967442E+01  0.33729546147E+03  0.33738202088E+03  0.00000000000E+00 0. -1.
         11    1    1    2    0    0 -0.83521307345E+02  0.40184922636E+02 -0.47431900489E+03  0.48328992870E+03  0.00000000000E+00 0.  1.
        -15    1    1    2    0    0  0.26871772157E+00 -0.27039372307E+01  0.55553102511E+02  0.55647896756E+02  0.17770000000E+01 0.  1.
         15    1    1    2    0    0  0.81479372948E+02 -0.44914382150E+02  0.81470440900E+02  0.12368015366E+03  0.17770000000E+01 0.  1.
</event>
<event>
 6    1  0.1823098E-004  0.4766151E+03  0.7546771E-02  0.9453711E-01
        -11   -1    0    0    0    0  0.00000000000E+00  0.00000000000E+00  0.50000000000E+03  0.50000000000E+03  0.00000000000E+00 0.  1.
         11   -1    0    0    0    0 -0.00000000000E+00 -0.00000000000E+00 -0.50000000000E+03  0.50000000000E+03  0.00000000000E+00 0. -1.
        -11    1    1    2    0    0 -0.63985020842E+01 -0.22548097085E+02  0.47683228792E+03  0.47740798937E+03  0.00000000000E+00 0.  1.
         11    1    1    2    0    0  0.27553473671E+02 -0.13629142542E+02 -0.47575156346E+03  0.47674363926E+03  0.00000000000E+00 0. -1.
        -15    1    1    2    0    0 -0.19277941473E+02  0.19538664994E+02 -0.63039228311E+01  0.28218710624E+02  0.17770000000E+01 0. -1.
         15    1    1    2    0    0 -0.18770301133E+01  0.16638574633E+02  0.52231983743E+01  0.17629660749E+02  0.17770000000E+01 0.  1.
</event>
<event>
 6    1  0.1823098E-004  0.5010953E+03  0.7546771E-02  0.9397362E-01
        -11   -1    0    0    0    0  0.00000000000E+00  0.00000000000E+00  0.50000000000E+03  0.50000000000E+03  0.00000000000E+00 0. -1.
         11   -1    0    0    0    0 -0.00000000000E+00 -0.00000000000E+00 -0.50000000000E+03  0.50000000000E+03  0.00000000000E+00 0.  1.
        -11    1    1    2    0    0 -0.98293940053E+01 -0.11564323814E+02  0.32349310594E+03  0.32384894652E+03  0.00000000000E+00 0. -1.
         11    1    1    2    0    0  0.41274268689E+01 -0.91904961141E+01 -0.49880298034E+03  0.49890471442E+03  0.00000000000E+00 0.  1.
        -15    1    1    2    0    0  0.39834672006E+01 -0.47894305795E+00  0.42646624101E+02  0.42871781787E+02  0.17770000000E+01 0. -1.
         15    1    1    2    0    0  0.17184999358E+01  0.21233762986E+02  0.13266325030E+03  0.13437455727E+03  0.17770000000E+01 0.  1.
</event>
<event>
 6    1  0.1823098E-004  0.4842147E+03  0.7546771E-02  0.9435840E-01
        -11   -1    0    0    0    0  0.00000000000E+00  0.00000000000E+00  0.50000000000E+03  0.50000000000E+03  0.00000000000E+00 0. -1.
         11   -1    0    0    0    0 -0.00000000000E+00 -0.00000000000E+00 -0.50000000000E+03  0.50000000000E+03  0.00000000000E+00 0. -1.
        -11    1    1    2    0    0 -0.47772920204E+01 -0.11369762307E+02  0.49072293120E+03  0.49087787608E+03  0.00000000000E+00 0. -1.
         11    1    1    2    0    0 -0.43107336185E+01 -0.13089190567E+02 -0.47779064214E+03  0.47798933780E+03  0.00000000000E+00 0. -1.
        -15    1    1    2    0    0  0.45508475916E+01  0.22213566751E+02 -0.11898995028E+02  0.25668980761E+02  0.17770000000E+01 0.  1.
         15    1    1    2    0    0  0.45371780473E+01  0.22453861230E+01 -0.10332940299E+01  0.54638053613E+01  0.17770000000E+01 0. -1.
</event>
<event>
 6    1  0.1823098E-004  0.5040272E+03  0.7546771E-02  0.9390843E-01
        -11   -1    0    0    0    0  0.00000000000E+00  0.00000000000E+00  0.50000000000E+03  0.50000000000E+03  0.00000000000E+00 0.  1.
         11   -1    0    0    0    0 -0.00000000000E+00 -0.00000000000E+00 -0.50000000000E+03  0.50000000000E+03  0.00000000000E+00 0.  1.
        -11    1    1    2    0    0  0.92977238970E+01  0.87706683016E+01  0.49580803929E+03  0.49597276550E+03  0.00000000000E+00 0.  1.
         11    1    1    2    0    0 -0.11885876343E+02  0.12417132893E+01 -0.47195000729E+03  0.47210128711E+03  0.00000000000E+00 0.  1.
        -15    1    1    2    0    0  0.94834162594E+01 -0.17258297247E+01 -0.79141968599E+01  0.12597853513E+02  0.17770000000E+01 0.  1.
         15    1    1    2    0    0 -0.68952638135E+01 -0.82865518662E+01 -0.15943835138E+02  0.19328093874E+02  0.17770000000E+01 0. -1.
</event>
<event>
 6    1  0.1823098E-004  0.5001705E+03  0.7546771E-02  0.9399428E-01
        -11   -1    0    0    0    0  0.00000000000E+00  0.00000000000E+00  0.50000000000E+03  0.50000000000E+03  0.00000000000E+00 0.  1.
         11   -1    0    0    0    0 -0.00000000000E+00 -0.00000000000E+00 -0.50000000000E+03  0.50000000000E+03  0.00000000000E+00 0. -1.
        -11    1    1    2    0    0 -0.31582864943E+01  0.18322183085E+01  0.22205602474E+03  0.22208604171E+03  0.00000000000E+00 0.  1.
         11    1    1    2    0    0 -0.83239432505E+01  0.34279914170E+01 -0.49974844911E+03  0.49982952248E+03  0.00000000000E+00 0. -1.
        -15    1    1    2    0    0  0.10076069830E+02 -0.46749043927E+01  0.25927341914E+03  0.25951733182E+03  0.17770000000E+01 0.  1.
         15    1    1    2    0    0  0.14061599149E+01 -0.58530533271E+00  0.18419005221E+02  0.18567103984E+02  0.17770000000E+01 0.  1.
</event>
<event>
 6    1  0.1823098E-004  0.4772688E+03  0.7546771E-02  0.9452160E-01
        -11   -1    0    0    0    0  0.00000000000E+00  0.00000000000E+00  0.50000000000E+03  0.50000000000E+03  0.00000000000E+00 0.  1.
         11   -1    0    0    0    0 -0.00000000000E+00 -0.00000000000E+00 -0.50000000000E+03  0.50000000000E+03  0.00000000000E+00 0. -1.
        -11    1    1    2    0    0  0.12877459141E+01  0.11029464520E+02  0.48452157195E+03  0.48464880178E+03  0.00000000000E+00 0.  1.
         11    1    1    2    0    0 -0.85891473156E+01 -0.19050428767E+01 -0.23938323807E+02  0.25503842586E+02  0.00000000000E+00 0. -1.
        -15    1    1    2    0    0  0.13745351655E+02 -0.10434450997E+02  0.94563807041E+01  0.19758373535E+02  0.17770000000E+01 0.  1.
         15    1    1    2    0    0 -0.64439502539E+01  0.13100293533E+01 -0.47003962885E+03  0.47008898210E+03  0.17770000000E+01 0. -1.
</event>
<event>
 6    1  0.1823098E-004  0.5038934E+03  0.7546771E-02  0.9391140E-01
        -11   -1    0    0    0    0  0.00000000000E+00  0.00000000000E+00  0.50000000000E+03  0.50000000000E+03  0.00000000000E+00 0. -1.
         11   -1    0    0    0    0 -0.00000000000E+00 -0.00000000000E+00 -0.50000000000E+03  0.50000000000E+03  0.00000000000E+00 0. -1.
        -11    1    1    2    0    0 -0.77318458340E+00 -0.82529305442E+01  0.49603732807E+03  0.49610658080E+03  0.00000000000E+00 0. -1.
         11    1    1    2    0    0 -0.17234709330E+02 -0.75572561014E+00 -0.46878943589E+03  0.46910674854E+03  0.00000000000E+00 0. -1.
        -15    1    1    2    0    0  0.11548005149E+02  0.79008087980E+01 -0.22293611725E+02  0.26380713700E+02  0.17770000000E+01 0.  1.
         15    1    1    2    0    0  0.64598887642E+01  0.11078473564E+01 -0.49542804517E+01  0.84059569595E+01  0.17770000000E+01 0. -1.
</event>
<event>
 6    1  0.1823098E-004  0.4865997E+03  0.7546771E-02  0.9430303E-01
        -11   -1    0    0    0    0  0.00000000000E+00  0.00000000000E+00  0.50000000000E+03  0.50000000000E+03  0.00000000000E+00 0.  1.
         11   -1    0    0    0    0 -0.00000000000E+00 -0.00000000000E+00 -0.50000000000E+03  0.50000000000E+03  0.00000000000E+00 0. -1.
        -11    1    1    2    0    0  0.94023441048E+01  0.44338273274E+01  0.48700728973E+03  0.48711822297E+03  0.00000000000E+00 0.  1.
         11    1    1    2    0    0  0.14331838363E+02 -0.10264640410E+02 -0.48606889283E+03  0.48638845896E+03  0.00000000000E+00 0. -1.
        -15    1    1    2    0    0 -0.58419623214E+01 -0.63858803788E+00  0.32268945412E+01  0.69359134818E+01  0.17770000000E+01 0. -1.
         15    1    1    2    0    0 -0.17892220146E+02  0.64694011202E+01 -0.41652914372E+01  0.19557404592E+02  0.17770000000E+01 0.  1.
</event>
<event>
 6    1  0.1823098E-004  0.5040276E+03  0.7546771E-02  0.9390843E-01
        -11   -1    0    0    0    0  0.00000000000E+00  0.00000000000E+00  0.50000000000E+03  0.50000000000E+03  0.00000000000E+00 0. -1.
         11   -1    0    0    0    0 -0.00000000000E+00 -0.00000000000E+00 -0.50000000000E+03  0.50000000000E+03  0.00000000000E+00 0. -1.
        -11    1    1    2    0    0  0.76642381472E+00  0.86074228384E+01  0.46303303168E+03  0.46311366160E+03  0.00000000000E+00 0. -1.
         11    1    1    2    0    0  0.12969015244E+02  0.74598373094E+01 -0.49574673120E+03  0.49597244482E+03  0.00000000000E+00 0. -1.
        -15    1    1    2    0    0 -0.13846647563E+02 -0.11311481550E+02  0.30445928150E+02  0.35352390775E+02  0.17770000000E+01 0.  1.
         15    1    1    2    0    0  0.11120850425E+00 -0.47557785980E+01  0.22677713665E+01  0.55615027983E+01  0.17770000000E+01 0. -1.
</event>
<event>
 6    1  0.1823098E-004  0.5004425E+03  0.7546771E-02  0.9398820E-01
        -11   -1    0    0    0    0  0.00000000000E+00  0.00000000000E+00  0.50000000000E+03  0.50000000000E+03  0.00000000000E+00 0. -1.
         11   -1    0    0    0    0 -0.00000000000E+00 -0.00000000000E+00 -0.50000000000E+03  0.50000000000E+03  0.00000000000E+00 0.  1.
        -11    1    1    2    0    0 -0.94072598900E+01 -0.18033628510E+02  0.29952923058E+03  0.30021903382E+03  0.00000000000E+00 0. -1.
         11    1    1    2    0    0  0.25027970768E+02  0.23335019659E+02 -0.49838414190E+03  0.49955747953E+03  0.00000000000E+00 0.  1.
        -15    1    1    2    0    0 -0.41687784705E+01 -0.97973326940E+01  0.81399929980E+02  0.82112561595E+02  0.17770000000E+01 0. -1.
         15    1    1    2    0    0 -0.11451932408E+02  0.44959415455E+01  0.11745498134E+03  0.11811092505E+03  0.17770000000E+01 0.  1.
</event>
<event>
 6    1  0.1823098E-004  0.5066766E+03  0.7546771E-02  0.9384993E-01
        -11   -1    0    0    0    0  0.00000000000E+00  0.00000000000E+00  0.50000000000E+03  0.50000000000E+03  0.00000000000E+00 0.  1.
         11   -1    0    0    0    0 -0.00000000000E+00 -0.00000000000E+00 -0.50000000000E+03  0.50000000000E+03  0.00000000000E+00 0. -1.
        -11    1    1    2    0    0  0.16054753251E+01  0.83792213028E+01  0.39707880034E+03  0.39717044525E+03  0.00000000000E+00 0.  1.
         11    1    1    2    0    0  0.25866056010E+01  0.30002765005E+02 -0.49240338251E+03  0.49332337016E+03  0.00000000000E+00 0. -1.
        -15    1    1    2    0    0  0.43410641202E+00 -0.42111425763E+02  0.58163820736E+02  0.71831388681E+02  0.17770000000E+01 0. -1.
         15    1    1    2    0    0 -0.46261873382E+01  0.37294394552E+01  0.37160761433E+02  0.37674795915E+02  0.17770000000E+01 0.  1.
</event>
<event>
 6    1  0.1823098E-004  0.5001789E+03  0.7546771E-02  0.9399409E-01
        -11   -1    0    0    0    0  0.00000000000E+00  0.00000000000E+00  0.50000000000E+03  0.50000000000E+03  0.00000000000E+00 0.  1.
         11   -1    0    0    0    0 -0.00000000000E+00 -0.00000000000E+00 -0.50000000000E+03  0.50000000000E+03  0.00000000000E+00 0. -1.
        -11    1    1    2    0    0 -0.34045455350E+01  0.13849971623E+02  0.49961752474E+03  0.49982105165E+03  0.00000000000E+00 0.  1.
         11    1    1    2    0    0 -0.60942581120E+01 -0.64151679353E+01 -0.11945644042E+03  0.11978370306E+03  0.00000000000E+00 0. -1.
        -15    1    1    2    0    0  0.46321566369E+01 -0.61898353497E+01 -0.24783490913E+03  0.24796183345E+03  0.17770000000E+01 0. -1.
         15    1    1    2    0    0  0.48666470101E+01 -0.12449683385E+01 -0.13232617520E+03  0.13243341183E+03  0.17770000000E+01 0. -1.
</event>
<event>
 6    1  0.1823098E-004  0.5005879E+03  0.7546771E-02  0.9398495E-01
        -11   -1    0    0    0    0  0.00000000000E+00  0.00000000000E+00  0.50000000000E+03  0.50000000000E+03  0.00000000000E+00 0.  1.
         11   -1    0    0    0    0 -0.00000000000E+00 -0.00000000000E+00 -0.50000000000E+03  0.50000000000E+03  0.00000000000E+00 0.  1.
        -11    1    1    2    0    0 -0.10906925084E+02 -0.35591969807E+01  0.49928029104E+03  0.49941209229E+03  0.00000000000E+00 0.  1.
         11    1    1    2    0    0  0.47914526973E+01 -0.14419652121E+02 -0.27731888824E+03  0.27773485586E+03  0.00000000000E+00 0.  1.
        -15    1    1    2    0    0  0.16306914162E+01  0.35346040000E+01 -0.32475575004E+02  0.32756270862E+02  0.17770000000E+01 0. -1.
         15    1    1    2    0    0  0.44847809709E+01  0.14444245101E+02 -0.18948582780E+03  0.19009678099E+03  0.17770000000E+01 0.  1.
</event>
<event>
 6    1  0.1823098E-004  0.5010819E+03  0.7546771E-02  0.9397392E-01
        -11   -1    0    0    0    0  0.00000000000E+00  0.00000000000E+00  0.50000000000E+03  0.50000000000E+03  0.00000000000E+00 0. -1.
         11   -1    0    0    0    0 -0.00000000000E+00 -0.00000000000E+00 -0.50000000000E+03  0.50000000000E+03  0.00000000000E+00 0. -1.
        -11    1    1    2    0    0  0.86493826213E+01  0.22989462645E+01  0.19573672177E+03  0.19594121880E+03  0.00000000000E+00 0. -1.
         11    1    1    2    0    0 -0.27756480132E+02 -0.23480315034E+02 -0.49759174481E+03  0.49891812143E+03  0.00000000000E+00 0. -1.
        -15    1    1    2    0    0  0.26033512818E+02  0.78135715447E+01  0.14355528845E+03  0.14611664608E+03  0.17770000000E+01 0.  1.
         15    1    1    2    0    0 -0.69264153070E+01  0.13367797224E+02  0.15829973459E+03  0.15902401370E+03  0.17770000000E+01 0. -1.
</event>
<event>
 6    1  0.1823098E-004  0.4820384E+03  0.7546771E-02  0.9440922E-01
        -11   -1    0    0    0    0  0.00000000000E+00  0.00000000000E+00  0.50000000000E+03  0.50000000000E+03  0.00000000000E+00 0.  1.
         11   -1    0    0    0    0 -0.00000000000E+00 -0.00000000000E+00 -0.50000000000E+03  0.50000000000E+03  0.00000000000E+00 0. -1.
        -11    1    1    2    0    0 -0.71446835713E+01 -0.72611431058E+01  0.47429585030E+03  0.47440523218E+03  0.00000000000E+00 0.  1.
         11    1    1    2    0    0 -0.50453614100E+01 -0.16004417501E+02 -0.48986775651E+03  0.49015509374E+03  0.00000000000E+00 0. -1.
        -15    1    1    2    0    0  0.48670696929E+01  0.16744385283E+01  0.10776375684E+02  0.12073943584E+02  0.17770000000E+01 0. -1.
         15    1    1    2    0    0  0.73229752884E+01  0.21591122078E+02  0.47955305256E+01  0.23365730498E+02  0.17770000000E+01 0.  1.
</event>
<event>
 6    1  0.1823098E-004  0.5110409E+03  0.7546771E-02  0.9375438E-01
        -11   -1    0    0    0    0  0.00000000000E+00  0.00000000000E+00  0.50000000000E+03  0.50000000000E+03  0.00000000000E+00 0. -1.
         11   -1    0    0    0    0 -0.00000000000E+00 -0.00000000000E+00 -0.50000000000E+03  0.50000000000E+03  0.00000000000E+00 0. -1.
        -11    1    1    2    0    0  0.50146142633E+01  0.23281005828E+02  0.48837881813E+03  0.48895912057E+03  0.00000000000E+00 0. -1.
         11    1    1    2    0    0 -0.16780139073E+02 -0.42620404242E+02 -0.41427249187E+03  0.41679703627E+03  0.00000000000E+00 0. -1.
        -15    1    1    2    0    0  0.12241646430E+02  0.33306786331E+02 -0.71605423674E+02  0.79935563747E+02  0.17770000000E+01 0.  1.
         15    1    1    2    0    0 -0.47612162009E+00 -0.13967387917E+02 -0.25009025932E+01  0.14308279414E+02  0.17770000000E+01 0. -1.
</event>
<event>
 6    1  0.1823098E-004  0.5031427E+03  0.7546771E-02  0.9392805E-01
        -11   -1    0    0    0    0  0.00000000000E+00  0.00000000000E+00  0.50000000000E+03  0.50000000000E+03  0.00000000000E+00 0.  1.
         11   -1    0    0    0    0 -0.00000000000E+00 -0.00000000000E+00 -0.50000000000E+03  0.50000000000E+03  0.00000000000E+00 0.  1.
        -11    1    1    2    0    0 -0.22210973413E+01 -0.60384276931E+01  0.39031249017E+03  0.39036551572E+03  0.00000000000E+00 0.  1.
         11    1    1    2    0    0 -0.28065412212E+02  0.22364177450E+02 -0.49555962612E+03  0.49685729021E+03  0.00000000000E+00 0.  1.
        -15    1    1    2    0    0  0.26981618105E+02 -0.21099049674E+02  0.92613787742E+02  0.98760564101E+02  0.17770000000E+01 0.  1.
         15    1    1    2    0    0  0.33048914479E+01  0.47732999165E+01  0.12633348207E+02  0.14016629962E+02  0.17770000000E+01 0. -1.
</event>
<event>
 6    1  0.1823098E-004  0.5100676E+03  0.7546771E-02  0.9377560E-01
        -11   -1    0    0    0    0  0.00000000000E+00  0.00000000000E+00  0.50000000000E+03  0.50000000000E+03  0.00000000000E+00 0. -1.
         11   -1    0    0    0    0 -0.00000000000E+00 -0.00000000000E+00 -0.50000000000E+03  0.50000000000E+03  0.00000000000E+00 0.  1.
        -11    1    1    2    0    0 -0.62129939993E+01  0.80325558907E+01  0.44838652479E+03  0.44850150374E+03  0.00000000000E+00 0. -1.
         11    1    1    2    0    0 -0.65204041098E+01 -0.24237197064E+02 -0.48928911717E+03  0.48993244185E+03  0.00000000000E+00 0.  1.
        -15    1    1    2    0    0  0.90807095822E+01 -0.64311887786E+01  0.36436293762E+02  0.38138965740E+02  0.17770000000E+01 0.  1.
         15    1    1    2    0    0  0.36526885269E+01  0.22635829951E+02  0.44662986223E+01  0.23427088668E+02  0.17770000000E+01 0. -1.
</event>
<event>
 6    1  0.1823098E-004  0.4876070E+03  0.7546771E-02  0.9427975E-01
        -11   -1    0    0    0    0  0.00000000000E+00  0.00000000000E+00  0.50000000000E+03  0.50000000000E+03  0.00000000000E+00 0. -1.
         11   -1    0    0    0    0 -0.00000000000E+00 -0.00000000000E+00 -0.50000000000E+03  0.50000000000E+03  0.00000000000E+00 0.  1.
        -11    1    1    2    0    0 -0.73408311055E+01 -0.16277204867E+01  0.48448808307E+03  0.48454642699E+03  0.00000000000E+00 0. -1.
         11    1    1    2    0    0  0.21008251125E+01 -0.16088347979E+02 -0.49059337071E+03  0.49086159331E+03  0.00000000000E+00 0.  1.
        -15    1    1    2    0    0  0.40508901588E+01  0.95384306288E+00 -0.29683935324E+01  0.54118958629E+01  0.17770000000E+01 0.  1.
         15    1    1    2    0    0  0.11891158342E+01  0.16762225403E+02  0.90736811698E+01  0.19180083834E+02  0.17770000000E+01 0. -1.
</event>
<event>
 6    1  0.2241673E-004  0.5003984E+03  0.7546771E-02  0.9398919E-01
        -11   -1    0    0    0    0  0.00000000000E+00  0.00000000000E+00  0.50000000000E+03  0.50000000000E+03  0.00000000000E+00 0.  1.
         11   -1    0    0    0    0 -0.00000000000E+00 -0.00000000000E+00 -0.50000000000E+03  0.50000000000E+03  0.00000000000E+00 0.  1.
        -11    1    1    2    0    0  0.20457596451E+01 -0.82878323891E-01  0.11378134274E+03  0.11379976255E+03  0.00000000000E+00 0.  1.
         11    1    1    2    0    0 -0.19506800573E+02  0.92530918649E+01 -0.49913489321E+03  0.49960161789E+03  0.00000000000E+00 0.  1.
        -15    1    1    2    0    0  0.20128978175E+02 -0.46003284649E+01  0.18327814913E+03  0.18444613431E+03  0.17770000000E+01 0. -1.
         15    1    1    2    0    0 -0.26679372473E+01 -0.45698850760E+01  0.20207540134E+03  0.20215248525E+03  0.17770000000E+01 0.  1.
</event>
<event>
 6    1  0.1823098E-004  0.5018827E+03  0.7546771E-02  0.9395607E-01
        -11   -1    0    0    0    0  0.00000000000E+00  0.00000000000E+00  0.50000000000E+03  0.50000000000E+03  0.00000000000E+00 0.  1.
         11   -1    0    0    0    0 -0.00000000000E+00 -0.00000000000E+00 -0.50000000000E+03  0.50000000000E+03  0.00000000000E+00 0.  1.
        -11    1    1    2    0    0 -0.18203869952E+02 -0.42695897812E+02  0.49595013495E+03  0.49811731242E+03  0.00000000000E+00 0.  1.
         11    1    1    2    0    0  0.24821945655E+02  0.55539635338E+02 -0.38327476836E+03  0.38807258102E+03  0.00000000000E+00 0.  1.
        -15    1    1    2    0    0 -0.41046008334E+01 -0.12048633047E+02 -0.90266205713E+02  0.91176548132E+02  0.17770000000E+01 0.  1.
         15    1    1    2    0    0 -0.25134748704E+01 -0.79510447892E+00 -0.22409160882E+02  0.22633558436E+02  0.17770000000E+01 0. -1.
</event>
<event>
 6    1  0.1823098E-004  0.5004610E+03  0.7546771E-02  0.9398779E-01
        -11   -1    0    0    0    0  0.00000000000E+00  0.00000000000E+00  0.50000000000E+03  0.50000000000E+03  0.00000000000E+00 0. -1.
         11   -1    0    0    0    0 -0.00000000000E+00 -0.00000000000E+00 -0.50000000000E+03  0.50000000000E+03  0.00000000000E+00 0.  1.
        -11    1    1    2    0    0  0.84370195282E+01  0.26160009454E+01  0.49946089933E+03  0.49953900420E+03  0.00000000000E+00 0. -1.
         11    1    1    2    0    0 -0.48423849542E+01  0.10359581336E+02 -0.29285060952E+03  0.29307379466E+03  0.00000000000E+00 0.  1.
        -15    1    1    2    0    0  0.27998934024E+01 -0.41205748690E+01 -0.11323470709E+03  0.11335817200E+03  0.17770000000E+01 0. -1.
         15    1    1    2    0    0 -0.63945279765E+01 -0.88550074125E+01 -0.93375582711E+02  0.94029029135E+02  0.17770000000E+01 0.  1.
</event>
<event>
 6    1  0.1823098E-004  0.5015429E+03  0.7546771E-02  0.9396364E-01
        -11   -1    0    0    0    0  0.00000000000E+00  0.00000000000E+00  0.50000000000E+03  0.50000000000E+03  0.00000000000E+00 0. -1.
         11   -1    0    0    0    0 -0.00000000000E+00 -0.00000000000E+00 -0.50000000000E+03  0.50000000000E+03  0.00000000000E+00 0.  1.
        -11    1    1    2    0    0 -0.34504138466E+01 -0.50733758339E+01  0.44300069980E+03  0.44304318584E+03  0.00000000000E+00 0. -1.
         11    1    1    2    0    0  0.61819772023E+01 -0.11570712358E+02 -0.49828442919E+03  0.49845709003E+03  0.00000000000E+00 0.  1.
        -15    1    1    2    0    0 -0.23233420677E+00  0.91857276534E+01  0.41393263563E+02  0.42438091016E+02  0.17770000000E+01 0. -1.
         15    1    1    2    0    0 -0.24992291489E+01  0.74583605382E+01  0.13890465833E+02  0.16061633115E+02  0.17770000000E+01 0.  1.
</event>
<event>
 6    1  0.1823098E-004  0.5014158E+03  0.7546771E-02  0.9396647E-01
        -11   -1    0    0    0    0  0.00000000000E+00  0.00000000000E+00  0.50000000000E+03  0.50000000000E+03  0.00000000000E+00 0.  1.
         11   -1    0    0    0    0 -0.00000000000E+00 -0.00000000000E+00 -0.50000000000E+03  0.50000000000E+03  0.00000000000E+00 0. -1.
        -11    1    1    2    0    0  0.87866583073E+01 -0.13867152767E+02  0.49831383127E+03  0.49858417316E+03  0.00000000000E+00 0.  1.
         11    1    1    2    0    0 -0.24137353135E+02  0.21071995716E+02 -0.25997791994E+03  0.26194495543E+03  0.00000000000E+00 0. -1.
        -15    1    1    2    0    0  0.53916715973E+01 -0.93379389326E+01 -0.73157250301E+02  0.73968967998E+02  0.17770000000E+01 0.  1.
         15    1    1    2    0    0  0.99590232306E+01  0.21330959841E+01 -0.16517866103E+03  0.16550190341E+03  0.17770000000E+01 0. -1.
</event>
<event>
 6    1  0.1823098E-004  0.5041147E+03  0.7546771E-02  0.9390649E-01
        -11   -1    0    0    0    0  0.00000000000E+00  0.00000000000E+00  0.50000000000E+03  0.50000000000E+03  0.00000000000E+00 0.  1.
         11   -1    0    0    0    0 -0.00000000000E+00 -0.00000000000E+00 -0.50000000000E+03  0.50000000000E+03  0.00000000000E+00 0.  1.
        -11    1    1    2    0    0  0.51426121823E+01 -0.73204068714E+01  0.49580454518E+03  0.49588525068E+03  0.00000000000E+00 0.  1.
         11    1    1    2    0    0  0.17558665950E+02 -0.18206207315E+02 -0.37853074142E+03  0.37937487389E+03  0.00000000000E+00 0.  1.
        -15    1    1    2    0    0 -0.12961449943E+02  0.28678948546E+02 -0.78354620374E+02  0.84457596090E+02  0.17770000000E+01 0.  1.
         15    1    1    2    0    0 -0.97398281895E+01 -0.31523343594E+01 -0.38919183383E+02  0.40282279346E+02  0.17770000000E+01 0. -1.
</event>
<event>
 6    1  0.1823098E-004  0.5003056E+03  0.7546771E-02  0.9399126E-01
        -11   -1    0    0    0    0  0.00000000000E+00  0.00000000000E+00  0.50000000000E+03  0.50000000000E+03  0.00000000000E+00 0.  1.
         11   -1    0    0    0    0 -0.00000000000E+00 -0.00000000000E+00 -0.50000000000E+03  0.50000000000E+03  0.00000000000E+00 0. -1.
        -11    1    1    2    0    0  0.11293026161E+02 -0.79044014570E+00  0.49956619093E+03  0.49969444299E+03  0.00000000000E+00 0.  1.
         11    1    1    2    0    0 -0.15074728558E+01 -0.91022742806E+00 -0.22072052988E+01  0.28236047196E+01  0.00000000000E+00 0. -1.
        -15    1    1    2    0    0 -0.49485776531E+01  0.19105109422E+01 -0.31654673065E+03  0.31659616057E+03  0.17770000000E+01 0. -1.
         15    1    1    2    0    0 -0.48369756523E+01 -0.20984336849E+00 -0.18081225498E+03  0.18088579173E+03  0.17770000000E+01 0. -1.
</event>
<event>
 6    1  0.1823098E-004  0.4577815E+03  0.7546771E-02  0.9499571E-01
        -11   -1    0    0    0    0  0.00000000000E+00  0.00000000000E+00  0.50000000000E+03  0.50000000000E+03  0.00000000000E+00 0.  1.
         11   -1    0    0    0    0 -0.00000000000E+00 -0.00000000000E+00 -0.50000000000E+03  0.50000000000E+03  0.00000000000E+00 0. -1.
        -11    1    1    2    0    0 -0.15539995052E+02 -0.29747472231E+02  0.44957205510E+03  0.45082306538E+03  0.00000000000E+00 0.  1.
         11    1    1    2    0    0 -0.42374823588E+02  0.66852454666E+01 -0.46501495588E+03  0.46698953669E+03  0.00000000000E+00 0. -1.
        -15    1    1    2    0    0  0.54823723977E+02  0.20101000349E+02 -0.73933385057E+01  0.58885567918E+02  0.17770000000E+01 0. -1.
         15    1    1    2    0    0  0.30910946620E+01  0.29612264155E+01  0.22836239288E+02  0.23301830012E+02  0.17770000000E+01 0.  1.
</event>
<event>
 6    1  0.1823098E-004  0.5031153E+03  0.7546771E-02  0.9392866E-01
        -11   -1    0    0    0    0  0.00000000000E+00  0.00000000000E+00  0.50000000000E+03  0.50000000000E+03  0.00000000000E+00 0.  1.
         11   -1    0    0    0    0 -0.00000000000E+00 -0.00000000000E+00 -0.50000000000E+03  0.50000000000E+03  0.00000000000E+00 0. -1.
        -11    1    1    2    0    0  0.48789561677E+00  0.85534831424E+01  0.49681087445E+03  0.49688474025E+03  0.00000000000E+00 0.  1.
         11    1    1    2    0    0  0.75186000998E+00 -0.19970227336E+02 -0.42588910418E+03  0.42635771874E+03  0.00000000000E+00 0. -1.
        -15    1    1    2    0    0 -0.79301932211E+01  0.17757964907E+02 -0.41316762727E+02  0.45699736251E+02  0.17770000000E+01 0. -1.
         15    1    1    2    0    0  0.66904375943E+01 -0.63412207138E+01 -0.29605007549E+02  0.31057804757E+02  0.17770000000E+01 0.  1.
</event>
<event>
 6    1  0.1823098E-004  0.4828591E+03  0.7546771E-02  0.9439002E-01
        -11   -1    0    0    0    0  0.00000000000E+00  0.00000000000E+00  0.50000000000E+03  0.50000000000E+03  0.00000000000E+00 0. -1.
         11   -1    0    0    0    0 -0.00000000000E+00 -0.00000000000E+00 -0.50000000000E+03  0.50000000000E+03  0.00000000000E+00 0.  1.
        -11    1    1    2    0    0  0.92146684813E+01  0.60113236934E+01  0.48771853166E+03  0.48784261012E+03  0.00000000000E+00 0. -1.
         11    1    1    2    0    0 -0.10693043417E+02  0.20936385967E+02 -0.47772625311E+03  0.47830434490E+03  0.00000000000E+00 0.  1.
        -15    1    1    2    0    0  0.40512914792E+01  0.28081238389E+00  0.59340714353E+00  0.44723237005E+01  0.17770000000E+01 0. -1.
         15    1    1    2    0    0 -0.25729165431E+01 -0.27228522044E+02 -0.10585685693E+02  0.29380721278E+02  0.17770000000E+01 0.  1.
</event>
<event>
 6    1  0.1823098E-004  0.5001610E+03  0.7546771E-02  0.9399449E-01
        -11   -1    0    0    0    0  0.00000000000E+00  0.00000000000E+00  0.50000000000E+03  0.50000000000E+03  0.00000000000E+00 0. -1.
         11   -1    0    0    0    0 -0.00000000000E+00 -0.00000000000E+00 -0.50000000000E+03  0.50000000000E+03  0.00000000000E+00 0. -1.
        -11    1    1    2    0    0  0.10524474093E+02 -0.21471697361E+01  0.49972354468E+03  0.49983897007E+03  0.00000000000E+00 0. -1.
         11    1    1    2    0    0 -0.21957113529E+01  0.45425936073E+01 -0.41204165745E+02  0.41511920936E+02  0.00000000000E+00 0. -1.
        -15    1    1    2    0    0 -0.57911767389E+00 -0.69573807111E+00 -0.39003078095E+02  0.39054029992E+02  0.17770000000E+01 0. -1.
         15    1    1    2    0    0 -0.77496450664E+01 -0.16996858001E+01 -0.41951630084E+03  0.41959507901E+03  0.17770000000E+01 0. -1.
</event>
<event>
 6    1  0.1823098E-004  0.4798733E+03  0.7546771E-02  0.9446006E-01
        -11   -1    0    0    0    0  0.00000000000E+00  0.00000000000E+00  0.50000000000E+03  0.50000000000E+03  0.00000000000E+00 0.  1.
         11   -1    0    0    0    0 -0.00000000000E+00 -0.00000000000E+00 -0.50000000000E+03  0.50000000000E+03  0.00000000000E+00 0. -1.
        -11    1    1    2    0    0  0.44493173757E+01 -0.73020712078E+01  0.47237971396E+03  0.47245709946E+03  0.00000000000E+00 0.  1.
         11    1    1    2    0    0  0.60169335705E+00 -0.20921025004E+02 -0.48738577990E+03  0.48783496162E+03  0.00000000000E+00 0. -1.
        -15    1    1    2    0    0 -0.11263472463E+02  0.22865068361E+02  0.39932336602E+01  0.25860796723E+02  0.17770000000E+01 0.  1.
         15    1    1    2    0    0  0.62124617305E+01  0.53580278504E+01  0.11012832285E+02  0.13847142201E+02  0.17770000000E+01 0. -1.
</event>
<event>
 6    1  0.1823098E-004  0.5094678E+03  0.7546771E-02  0.9378871E-01
        -11   -1    0    0    0    0  0.00000000000E+00  0.00000000000E+00  0.50000000000E+03  0.50000000000E+03  0.00000000000E+00 0.  1.
         11   -1    0    0    0    0 -0.00000000000E+00 -0.00000000000E+00 -0.50000000000E+03  0.50000000000E+03  0.00000000000E+00 0. -1.
        -11    1    1    2    0    0  0.10500835236E+02 -0.43059935342E+01  0.41214932242E+03  0.41230555792E+03  0.00000000000E+00 0.  1.
         11    1    1    2    0    0  0.20933088106E+02  0.46963330197E+02 -0.48783001561E+03  0.49053223410E+03  0.00000000000E+00 0. -1.
        -15    1    1    2    0    0 -0.21344865288E+02 -0.43546698044E+02  0.50871288738E+02  0.70306215455E+02  0.17770000000E+01 0.  1.
         15    1    1    2    0    0 -0.10089058054E+02  0.88936138090E+00  0.24809404457E+02  0.26855992526E+02  0.17770000000E+01 0. -1.
</event>
<event>
 6    1  0.1823098E-004  0.5005728E+03  0.7546771E-02  0.9398529E-01
        -11   -1    0    0    0    0  0.00000000000E+00  0.00000000000E+00  0.50000000000E+03  0.50000000000E+03  0.00000000000E+00 0.  1.
         11   -1    0    0    0    0 -0.00000000000E+00 -0.00000000000E+00 -0.50000000000E+03  0.50000000000E+03  0.00000000000E+00 0. -1.
        -11    1    1    2    0    0  0.21945125708E+00  0.37771142821E+01  0.20656024205E+03  0.20659488945E+03  0.00000000000E+00 0.  1.
         11    1    1    2    0    0 -0.10204027289E+02  0.15871181753E+02 -0.49907062065E+03  0.49942717285E+03  0.00000000000E+00 0. -1.
        -15    1    1    2    0    0  0.13006741335E+02 -0.12139620844E+02  0.12609937120E+03  0.12736072731E+03  0.17770000000E+01 0.  1.
         15    1    1    2    0    0 -0.30221653022E+01 -0.75086751909E+01  0.16641100740E+03  0.16661721039E+03  0.17770000000E+01 0. -1.
</event>
<event>
 6    1  0.1823098E-004  0.5013381E+03  0.7546771E-02  0.9396821E-01
        -11   -1    0    0    0    0  0.00000000000E+00  0.00000000000E+00  0.50000000000E+03  0.50000000000E+03  0.00000000000E+00 0.  1.
         11   -1    0    0    0    0 -0.00000000000E+00 -0.00000000000E+00 -0.50000000000E+03  0.50000000000E+03  0.00000000000E+00 0. -1.
        -11    1    1    2    0    0 -0.14702788186E+02  0.60968375441E+01  0.33113307997E+03  0.33151539943E+03  0.00000000000E+00 0.  1.
         11    1    1    2    0    0 -0.58388941721E+01  0.12734280844E+02 -0.49846510486E+03  0.49866192491E+03  0.00000000000E+00 0. -1.
        -15    1    1    2    0    0  0.52489991929E+01 -0.90146034471E+01  0.69573520662E+02  0.70373628399E+02  0.17770000000E+01 0. -1.
         15    1    1    2    0    0  0.15292683166E+02 -0.98165149414E+01  0.97758504224E+02  0.99449047261E+02  0.17770000000E+01 0.  1.
</event>
<event>
 6    1  0.1823098E-004  0.4836723E+03  0.7546771E-02  0.9437104E-01
        -11   -1    0    0    0    0  0.00000000000E+00  0.00000000000E+00  0.50000000000E+03  0.50000000000E+03  0.00000000000E+00 0.  1.
         11   -1    0    0    0    0 -0.00000000000E+00 -0.00000000000E+00 -0.50000000000E+03  0.50000000000E+03  0.00000000000E+00 0. -1.
        -11    1    1    2    0    0 -0.14207117022E+02 -0.57344567426E+01  0.48091285031E+03  0.48115683073E+03  0.00000000000E+00 0.  1.
         11    1    1    2    0    0 -0.11192099946E+02 -0.10820284039E+02 -0.48642947193E+03  0.48667851073E+03  0.00000000000E+00 0. -1.
        -15    1    1    2    0    0  0.88898511511E+00  0.28533681393E+01 -0.77461100442E-01  0.34778921052E+01  0.17770000000E+01 0.  1.
         15    1    1    2    0    0  0.24510231852E+02  0.13701372642E+02  0.55940827169E+01  0.28686766429E+02  0.17770000000E+01 0. -1.
</event>
<event>
 6    1  0.1823098E-004  0.5001011E+03  0.7546771E-02  0.9399584E-01
        -11   -1    0    0    0    0  0.00000000000E+00  0.00000000000E+00  0.50000000000E+03  0.50000000000E+03  0.00000000000E+00 0.  1.
         11   -1    0    0    0    0 -0.00000000000E+00 -0.00000000000E+00 -0.50000000000E+03  0.50000000000E+03  0.00000000000E+00 0.  1.
        -11    1    1    2    0    0  0.42278897995E-01  0.78769243803E+00  0.56393190872E+02  0.56398707641E+02  0.00000000000E+00 0.  1.
         11    1    1    2    0    0  0.99358034900E+01 -0.17271640621E+02 -0.49950166520E+03  0.49989893308E+03  0.00000000000E+00 0.  1.
        -15    1    1    2    0    0 -0.11176353001E+01  0.39133101191E+01  0.32485039817E+02  0.32787171968E+02  0.17770000000E+01 0. -1.
         15    1    1    2    0    0 -0.88604470879E+01  0.12570638064E+02  0.41062343451E+03  0.41091518731E+03  0.17770000000E+01 0.  1.
</event>
<event>
 6    1  0.1823098E-004  0.5108281E+03  0.7546771E-02  0.9375902E-01
        -11   -1    0    0    0    0  0.00000000000E+00  0.00000000000E+00  0.50000000000E+03  0.50000000000E+03  0.00000000000E+00 0.  1.
         11   -1    0    0    0    0 -0.00000000000E+00 -0.00000000000E+00 -0.50000000000E+03  0.50000000000E+03  0.00000000000E+00 0.  1.
        -11    1    1    2    0    0  0.19811237343E+02 -0.51511939727E+02  0.48604851383E+03  0.48917187455E+03  0.00000000000E+00 0.  1.
         11    1    1    2    0    0 -0.30247183096E+02  0.94371111250E+02 -0.22423587354E+03  0.24515816467E+03  0.00000000000E+00 0.  1.
        -15    1    1    2    0    0  0.40570192567E+01 -0.53016323366E+01 -0.35370641968E+02  0.36038961596E+02  0.17770000000E+01 0.  1.
         15    1    1    2    0    0  0.63789264969E+01 -0.37557539186E+02 -0.22644199832E+03  0.22963099918E+03  0.17770000000E+01 0. -1.
</event>
<event>
 6    1  0.1823098E-004  0.5067626E+03  0.7546771E-02  0.9384804E-01
        -11   -1    0    0    0    0  0.00000000000E+00  0.00000000000E+00  0.50000000000E+03  0.50000000000E+03  0.00000000000E+00 0. -1.
         11   -1    0    0    0    0 -0.00000000000E+00 -0.00000000000E+00 -0.50000000000E+03  0.50000000000E+03  0.00000000000E+00 0.  1.
        -11    1    1    2    0    0 -0.90553885763E+01 -0.49589060301E+00  0.47678853548E+03  0.47687477763E+03  0.00000000000E+00 0. -1.
         11    1    1    2    0    0  0.80475930212E+01 -0.21090652981E+02 -0.49272060190E+03  0.49323743870E+03  0.00000000000E+00 0.  1.
        -15    1    1    2    0    0 -0.20361367838E+01  0.19777177650E+02  0.16484095235E+02  0.25887559435E+02  0.17770000000E+01 0. -1.
         15    1    1    2    0    0  0.30439323390E+01  0.18093659340E+01 -0.55202881946E+00  0.40002242419E+01  0.17770000000E+01 0.  1.
</event>
<event>
 6    1  0.1823098E-004  0.5021192E+03  0.7546771E-02  0.9395080E-01
        -11   -1    0    0    0    0  0.00000000000E+00  0.00000000000E+00  0.50000000000E+03  0.50000000000E+03  0.00000000000E+00 0. -1.
         11   -1    0    0    0    0 -0.00000000000E+00 -0.00000000000E+00 -0.50000000000E+03  0.50000000000E+03  0.00000000000E+00 0.  1.
        -11    1    1    2    0    0  0.90677845908E+01 -0.29180942240E+01  0.47387059741E+03  0.47396633117E+03  0.00000000000E+00 0. -1.
         11    1    1    2    0    0 -0.12513427923E+02 -0.83200277390E+01 -0.49765400746E+03  0.49788082899E+03  0.00000000000E+00 0.  1.
        -15    1    1    2    0    0 -0.22040523922E+01  0.75746607189E+01  0.13376568615E+02  0.15630855667E+02  0.17770000000E+01 0. -1.
         15    1    1    2    0    0  0.56496957243E+01  0.36634612441E+01  0.10406841427E+02  0.12521984170E+02  0.17770000000E+01 0.  1.
</event>
<event>
 6    1  0.1823098E-004  0.5014462E+03  0.7546771E-02  0.9396579E-01
        -11   -1    0    0    0    0  0.00000000000E+00  0.00000000000E+00  0.50000000000E+03  0.50000000000E+03  0.00000000000E+00 0. -1.
         11   -1    0    0    0    0 -0.00000000000E+00 -0.00000000000E+00 -0.50000000000E+03  0.50000000000E+03  0.00000000000E+00 0.  1.
        -11    1    1    2    0    0  0.31320061164E+00  0.69139768307E+01  0.44027593411E+03  0.44033032978E+03  0.00000000000E+00 0. -1.
         11    1    1    2    0    0 -0.32806261158E+01  0.92659253201E+01 -0.49845687236E+03  0.49855378194E+03  0.00000000000E+00 0.  1.
        -15    1    1    2    0    0  0.33473786945E+00 -0.30012584405E+01  0.25430678993E+02  0.25670932291E+02  0.17770000000E+01 0. -1.
         15    1    1    2    0    0  0.26326876347E+01 -0.13178643710E+02  0.32750259259E+02  0.35444955985E+02  0.17770000000E+01 0.  1.
</event>
<event>
 6    1  0.1823098E-004  0.3786193E+03  0.7546771E-02  0.9721773E-01
        -11   -1    0    0    0    0  0.00000000000E+00  0.00000000000E+00  0.50000000000E+03  0.50000000000E+03  0.00000000000E+00 0.  1.
         11   -1    0    0    0    0 -0.00000000000E+00 -0.00000000000E+00 -0.50000000000E+03  0.50000000000E+03  0.00000000000E+00 0.  1.
        -11    1    1    2    0    0 -0.11842011739E+02  0.13383485309E+02  0.46047225173E+03  0.46081888583E+03  0.00000000000E+00 0.  1.
         11    1    1    2    0    0 -0.11595780523E+03  0.16326378169E+02 -0.30196741640E+03  0.32387819282E+03  0.00000000000E+00 0.  1.
        -15    1    1    2    0    0 -0.69004068888E+01 -0.50909216740E+01 -0.10141342000E+02  0.13399165843E+02  0.17770000000E+01 0. -1.
         15    1    1    2    0    0  0.13470022386E+03 -0.24618941805E+02 -0.14836349334E+03  0.20190375551E+03  0.17770000000E+01 0.  1.
</event>
<event>
 6    1  0.1823098E-004  0.4550428E+03  0.7546771E-02  0.9506436E-01
        -11   -1    0    0    0    0  0.00000000000E+00  0.00000000000E+00  0.50000000000E+03  0.50000000000E+03  0.00000000000E+00 0. -1.
         11   -1    0    0    0    0 -0.00000000000E+00 -0.00000000000E+00 -0.50000000000E+03  0.50000000000E+03  0.00000000000E+00 0. -1.
        -11    1    1    2    0    0  0.20877504673E+02 -0.16379081286E+02  0.44909264131E+03  0.44987592177E+03  0.00000000000E+00 0. -1.
         11    1    1    2    0    0 -0.88026870378E+02  0.19312884620E+02 -0.45383932583E+03  0.46270060632E+03  0.00000000000E+00 0. -1.
        -15    1    1    2    0    0 -0.74683456766E+01  0.59357281587E+01  0.74141463729E+01  0.12212139508E+02  0.17770000000E+01 0. -1.
         15    1    1    2    0    0  0.74617711381E+02 -0.88695314933E+01 -0.26674618583E+01  0.75211332407E+02  0.17770000000E+01 0. -1.
</event>
<event>
 6    1  0.1823098E-004  0.5001480E+03  0.7546771E-02  0.9399479E-01
        -11   -1    0    0    0    0  0.00000000000E+00  0.00000000000E+00  0.50000000000E+03  0.50000000000E+03  0.00000000000E+00 0.  1.
         11   -1    0    0    0    0 -0.00000000000E+00 -0.00000000000E+00 -0.50000000000E+03  0.50000000000E+03  0.00000000000E+00 0. -1.
        -11    1    1    2    0    0  0.73338053860E+00 -0.16672561063E+01  0.29227923117E+02  0.29284621898E+02  0.00000000000E+00 0.  1.
         11    1    1    2    0    0  0.15341606082E+02 -0.39381592296E+01 -0.49960098737E+03  0.49985199866E+03  0.00000000000E+00 0. -1.
        -15    1    1    2    0    0 -0.99998103496E+01  0.51215619159E+00  0.37711525805E+03  0.37725234803E+03  0.17770000000E+01 0.  1.
         15    1    1    2    0    0 -0.60751762715E+01  0.50932591443E+01  0.93257806210E+02  0.93611031420E+02  0.17770000000E+01 0. -1.
</event>
<event>
 6    1  0.1823098E-004  0.5002647E+03  0.7546771E-02  0.9399218E-01
        -11   -1    0    0    0    0  0.00000000000E+00  0.00000000000E+00  0.50000000000E+03  0.50000000000E+03  0.00000000000E+00 0.  1.
         11   -1    0    0    0    0 -0.00000000000E+00 -0.00000000000E+00 -0.50000000000E+03  0.50000000000E+03  0.00000000000E+00 0. -1.
        -11    1    1    2    0    0  0.53313549139E+01  0.48642086030E+01  0.13942767639E+03  0.13961432882E+03  0.00000000000E+00 0.  1.
         11    1    1    2    0    0  0.46940754600E+01  0.71433732430E+01 -0.49966222261E+03  0.49973532877E+03  0.00000000000E+00 0. -1.
        -15    1    1    2    0    0 -0.77094797195E+01 -0.59263927162E+01  0.16219717239E+03  0.16249811897E+03  0.17770000000E+01 0. -1.
         15    1    1    2    0    0 -0.23159506543E+01 -0.60811891298E+01  0.19803737383E+03  0.19815222343E+03  0.17770000000E+01 0.  1.
</event>
<event>
 6    1  0.1823098E-004  0.5001276E+03  0.7546771E-02  0.9399524E-01
        -11   -1    0    0    0    0  0.00000000000E+00  0.00000000000E+00  0.50000000000E+03  0.50000000000E+03  0.00000000000E+00 0.  1.
         11   -1    0    0    0    0 -0.00000000000E+00 -0.00000000000E+00 -0.50000000000E+03  0.50000000000E+03  0.00000000000E+00 0. -1.
        -11    1    1    2    0    0 -0.45828910020E+00  0.87910603400E+01  0.49979489314E+03  0.49987241170E+03  0.00000000000E+00 0.  1.
         11    1    1    2    0    0 -0.65374031086E+01 -0.46987282445E+01 -0.30812116166E+03  0.30822632261E+03  0.00000000000E+00 0. -1.
        -15    1    1    2    0    0  0.39796515520E+01 -0.77592774456E+00 -0.78317315799E+02  0.78442331513E+02  0.17770000000E+01 0. -1.
         15    1    1    2    0    0  0.30160406568E+01 -0.33164043509E+01 -0.11335641568E+03  0.11345893417E+03  0.17770000000E+01 0. -1.
</event>
<event>
 6    1  0.1823098E-004  0.5005303E+03  0.7546771E-02  0.9398624E-01
        -11   -1    0    0    0    0  0.00000000000E+00  0.00000000000E+00  0.50000000000E+03  0.50000000000E+03  0.00000000000E+00 0. -1.
         11   -1    0    0    0    0 -0.00000000000E+00 -0.00000000000E+00 -0.50000000000E+03  0.50000000000E+03  0.00000000000E+00 0.  1.
        -11    1    1    2    0    0 -0.30974692381E+01 -0.70506336832E+01  0.49941029145E+03  0.49946966371E+03  0.00000000000E+00 0. -1.
         11    1    1    2    0    0  0.18787125423E+01 -0.60387980853E+01 -0.34316476564E+03  0.34322303685E+03  0.00000000000E+00 0.  1.
        -15    1    1    2    0    0 -0.12888231236E+01 -0.12539625905E+01 -0.48751368527E+02  0.48816873614E+02  0.17770000000E+01 0.  1.
         15    1    1    2    0    0  0.25075798194E+01  0.14343394359E+02 -0.10749415728E+03  0.10849042583E+03  0.17770000000E+01 0. -1.
</event>
<event>
 6    1  0.1823098E-004  0.5003670E+03  0.7546771E-02  0.9398989E-01
        -11   -1    0    0    0    0  0.00000000000E+00  0.00000000000E+00  0.50000000000E+03  0.50000000000E+03  0.00000000000E+00 0. -1.
         11   -1    0    0    0    0 -0.00000000000E+00 -0.00000000000E+00 -0.50000000000E+03  0.50000000000E+03  0.00000000000E+00 0. -1.
        -11    1    1    2    0    0 -0.70203152987E+01 -0.18523604875E+01  0.49958024392E+03  0.49963300149E+03  0.00000000000E+00 0. -1.
         11    1    1    2    0    0 -0.22843541561E+00  0.91385619172E+01 -0.36751314254E+03  0.36762681545E+03  0.00000000000E+00 0. -1.
        -15    1    1    2    0    0  0.31346419606E+01  0.73273705926E+00 -0.23594897701E+02  0.23879694519E+02  0.17770000000E+01 0.  1.
         15    1    1    2    0    0  0.41141087538E+01 -0.80189384890E+01 -0.10847220367E+03  0.10886048854E+03  0.17770000000E+01 0. -1.
</event>
<event>
 6    1  0.1823098E-004  0.5176042E+03  0.7546771E-02  0.9361258E-01
        -11   -1    0    0    0    0  0.00000000000E+00  0.00000000000E+00  0.50000000000E+03  0.50000000000E+03  0.00000000000E+00 0.  1.
         11   -1    0    0    0    0 -0.00000000000E+00 -0.00000000000E+00 -0.50000000000E+03  0.50000000000E+03  0.00000000000E+00 0.  1.
        -11    1    1    2    0    0  0.60436236892E+00  0.22620802148E+02  0.21311736194E+03  0.21431536553E+03  0.00000000000E+00 0.  1.
         11    1    1    2    0    0  0.10203026309E+03 -0.33821844562E+02 -0.47026762887E+03  0.48239582764E+03  0.00000000000E+00 0.  1.
        -15    1    1    2    0    0 -0.72021224203E+02  0.51441920766E+02  0.22872272062E+03  0.24525612857E+03  0.17770000000E+01 0. -1.
         15    1    1    2    0    0 -0.30613401256E+02 -0.40240878351E+02  0.28427546318E+02  0.58032678256E+02  0.17770000000E+01 0.  1.
</event>
<event>
 6    1  0.1823098E-004  0.4795264E+03  0.7546771E-02  0.9446823E-01
        -11   -1    0    0    0    0  0.00000000000E+00  0.00000000000E+00  0.50000000000E+03  0.50000000000E+03  0.00000000000E+00 0. -1.
         11   -1    0    0    0    0 -0.00000000000E+00 -0.00000000000E+00 -0.50000000000E+03  0.50000000000E+03  0.00000000000E+00 0.  1.
        -11    1    1    2    0    0 -0.24595966977E+01 -0.70703663295E+01  0.48812136363E+03  0.48817876370E+03  0.00000000000E+00 0. -1.
         11    1    1    2    0    0 -0.29180380871E+01 -0.25294765641E+02 -0.47090163091E+03  0.47158953138E+03  0.00000000000E+00 0.  1.
        -15    1    1    2    0    0  0.64227356979E+01  0.27328339035E+02 -0.19607583745E+02  0.34288550823E+02  0.17770000000E+01 0.  1.
         15    1    1    2    0    0 -0.10451009131E+01  0.50367929353E+01  0.23878510236E+01  0.59431540871E+01  0.17770000000E+01 0. -1.
</event>
<event>
 6    1  0.1823098E-004  0.5033659E+03  0.7546771E-02  0.9392310E-01
        -11   -1    0    0    0    0  0.00000000000E+00  0.00000000000E+00  0.50000000000E+03  0.50000000000E+03  0.00000000000E+00 0.  1.
         11   -1    0    0    0    0 -0.00000000000E+00 -0.00000000000E+00 -0.50000000000E+03  0.50000000000E+03  0.00000000000E+00 0. -1.
        -11    1    1    2    0    0  0.55191768001E+00  0.10546081694E+02  0.45853697284E+03  0.45865856572E+03  0.00000000000E+00 0.  1.
         11    1    1    2    0    0 -0.83134791560E+01  0.63479965335E+01 -0.49652393904E+03  0.49663410377E+03  0.00000000000E+00 0. -1.
        -15    1    1    2    0    0  0.10089596027E+02 -0.64431415551E+01  0.14895949437E+02  0.19192734556E+02  0.17770000000E+01 0. -1.
         15    1    1    2    0    0 -0.23280345508E+01 -0.10450936673E+02  0.23091016762E+02  0.25514595946E+02  0.17770000000E+01 0.  1.
</event>
<event>
 6    1  0.1823098E-004  0.5000780E+03  0.7546771E-02  0.9399635E-01
        -11   -1    0    0    0    0  0.00000000000E+00  0.00000000000E+00  0.50000000000E+03  0.50000000000E+03  0.00000000000E+00 0.  1.
         11   -1    0    0    0    0 -0.00000000000E+00 -0.00000000000E+00 -0.50000000000E+03  0.50000000000E+03  0.00000000000E+00 0. -1.
        -11    1    1    2    0    0  0.15298683050E+01  0.25274135895E+01  0.15965995110E+03  0.15968728285E+03  0.00000000000E+00 0.  1.
         11    1    1    2    0    0 -0.14944455180E+02 -0.71941101866E+01 -0.49964683684E+03  0.49992204745E+03  0.00000000000E+00 0. -1.
        -15    1    1    2    0    0  0.10388200586E+02  0.46842472814E+01  0.30721306312E+03  0.30742947283E+03  0.17770000000E+01 0. -1.
         15    1    1    2    0    0  0.30263862898E+01 -0.17550684215E-01  0.32773822609E+02  0.32961196875E+02  0.17770000000E+01 0.  1.
</event>
<event>
 6    1  0.1823098E-004  0.5091628E+03  0.7546771E-02  0.9379537E-01
        -11   -1    0    0    0    0  0.00000000000E+00  0.00000000000E+00  0.50000000000E+03  0.50000000000E+03  0.00000000000E+00 0. -1.
         11   -1    0    0    0    0 -0.00000000000E+00 -0.00000000000E+00 -0.50000000000E+03  0.50000000000E+03  0.00000000000E+00 0. -1.
        -11    1    1    2    0    0  0.11103928072E+02 -0.12195831663E+01  0.49071005029E+03  0.49083718080E+03  0.00000000000E+00 0. -1.
         11    1    1    2    0    0  0.49335406508E+00 -0.46967768702E+02 -0.38716233532E+03  0.39000113921E+03  0.00000000000E+00 0. -1.
        -15    1    1    2    0    0 -0.15911867580E+02  0.18491169584E+02 -0.69828516018E+02  0.73988446806E+02  0.17770000000E+01 0.  1.
         15    1    1    2    0    0  0.43145854431E+01  0.29696182285E+02 -0.33719198944E+02  0.45173233184E+02  0.17770000000E+01 0. -1.
</event>
<event>
 6    1  0.1823098E-004  0.5004982E+03  0.7546771E-02  0.9398696E-01
        -11   -1    0    0    0    0  0.00000000000E+00  0.00000000000E+00  0.50000000000E+03  0.50000000000E+03  0.00000000000E+00 0. -1.
         11   -1    0    0    0    0 -0.00000000000E+00 -0.00000000000E+00 -0.50000000000E+03  0.50000000000E+03  0.00000000000E+00 0. -1.
        -11    1    1    2    0    0 -0.34745543269E+02 -0.10338607004E+02  0.49818464118E+03  0.49950182811E+03  0.00000000000E+00 0. -1.
         11    1    1    2    0    0  0.24783920987E+02  0.12727441615E+02 -0.36549904009E+03  0.36655937966E+03  0.00000000000E+00 0. -1.
        -15    1    1    2    0    0  0.82862974966E+01  0.53637460277E+01 -0.80868528075E+02  0.81488091520E+02  0.17770000000E+01 0. -1.
         15    1    1    2    0    0  0.16753247855E+01 -0.77525806384E+01 -0.51817073020E+02  0.52450700711E+02  0.17770000000E+01 0.  1.
</event>
<event>
 6    1  0.1823098E-004  0.5007721E+03  0.7546771E-02  0.9398084E-01
        -11   -1    0    0    0    0  0.00000000000E+00  0.00000000000E+00  0.50000000000E+03  0.50000000000E+03  0.00000000000E+00 0. -1.
         11   -1    0    0    0    0 -0.00000000000E+00 -0.00000000000E+00 -0.50000000000E+03  0.50000000000E+03  0.00000000000E+00 0.  1.
        -11    1    1    2    0    0  0.29169198284E+01  0.61393909012E+01  0.24386718232E+03  0.24396188873E+03  0.00000000000E+00 0. -1.
         11    1    1    2    0    0 -0.20601979203E+02  0.14151119307E+02 -0.49860188538E+03  0.49922793975E+03  0.00000000000E+00 0.  1.
        -15    1    1    2    0    0  0.11001576316E+02 -0.17154350306E+02  0.23068275865E+03  0.23158799469E+03  0.17770000000E+01 0. -1.
         15    1    1    2    0    0  0.66834830585E+01 -0.31361599030E+01  0.24051944412E+02  0.25222176823E+02  0.17770000000E+01 0.  1.
</event>
<event>
 6    1  0.1823098E-004  0.5000955E+03  0.7546771E-02  0.9399596E-01
        -11   -1    0    0    0    0  0.00000000000E+00  0.00000000000E+00  0.50000000000E+03  0.50000000000E+03  0.00000000000E+00 0.  1.
         11   -1    0    0    0    0 -0.00000000000E+00 -0.00000000000E+00 -0.50000000000E+03  0.50000000000E+03  0.00000000000E+00 0.  1.
        -11    1    1    2    0    0  0.10773083775E+02 -0.31843068934E+01  0.49977825924E+03  0.49990449844E+03  0.00000000000E+00 0.  1.
         11    1    1    2    0    0 -0.85127956559E+00 -0.10304327152E+01 -0.50058165476E+01  0.51811840141E+01  0.00000000000E+00 0.  1.
        -15    1    1    2    0    0 -0.78084454186E+01  0.40629589053E+01 -0.34807916829E+03  0.34819498070E+03  0.17770000000E+01 0.  1.
         15    1    1    2    0    0 -0.21133587907E+01  0.15178070324E+00 -0.14669327440E+03  0.14671933685E+03  0.17770000000E+01 0.  1.
</event>
<event>
 6    1  0.1823098E-004  0.5007773E+03  0.7546771E-02  0.9398072E-01
        -11   -1    0    0    0    0  0.00000000000E+00  0.00000000000E+00  0.50000000000E+03  0.50000000000E+03  0.00000000000E+00 0.  1.
         11   -1    0    0    0    0 -0.00000000000E+00 -0.00000000000E+00 -0.50000000000E+03  0.50000000000E+03  0.00000000000E+00 0. -1.
        -11    1    1    2    0    0  0.70892988520E+01  0.50516673685E+00  0.24328277301E+03  0.24338656700E+03  0.00000000000E+00 0.  1.
         11    1    1    2    0    0  0.52163378047E+01  0.14570065615E+02 -0.49898276973E+03  0.49922269728E+03  0.00000000000E+00 0. -1.
        -15    1    1    2    0    0 -0.12790843618E+02  0.42350083769E+00  0.14841713366E+03  0.14897848276E+03  0.17770000000E+01 0.  1.
         15    1    1    2    0    0  0.48520696122E+00 -0.15498733190E+02  0.10728286306E+03  0.10841225296E+03  0.17770000000E+01 0. -1.
</event>
<event>
 6    1  0.1823098E-004  0.4838905E+03  0.7546771E-02  0.9436595E-01
        -11   -1    0    0    0    0  0.00000000000E+00  0.00000000000E+00  0.50000000000E+03  0.50000000000E+03  0.00000000000E+00 0. -1.
         11   -1    0    0    0    0 -0.00000000000E+00 -0.00000000000E+00 -0.50000000000E+03  0.50000000000E+03  0.00000000000E+00 0.  1.
        -11    1    1    2    0    0  0.23933186687E+00  0.55163366686E+00  0.34283286135E+02  0.34288559137E+02  0.00000000000E+00 0. -1.
         11    1    1    2    0    0  0.24958942808E+02 -0.31379622815E+02 -0.49694740732E+03  0.49856228818E+03  0.00000000000E+00 0.  1.
        -15    1    1    2    0    0 -0.47327289537E+01  0.41224499103E+02  0.30326280665E+03  0.30609368774E+03  0.17770000000E+01 0. -1.
         15    1    1    2    0    0 -0.20465545721E+02 -0.10396509954E+02  0.15940131454E+03  0.16105546494E+03  0.17770000000E+01 0.  1.
</event>
<event>
 6    1  0.1823098E-004  0.5058278E+03  0.7546771E-02  0.9386863E-01
        -11   -1    0    0    0    0  0.00000000000E+00  0.00000000000E+00  0.50000000000E+03  0.50000000000E+03  0.00000000000E+00 0. -1.
         11   -1    0    0    0    0 -0.00000000000E+00 -0.00000000000E+00 -0.50000000000E+03  0.50000000000E+03  0.00000000000E+00 0.  1.
        -11    1    1    2    0    0  0.12062094877E+01  0.74934999821E+01  0.49411394744E+03  0.49417223773E+03  0.00000000000E+00 0. -1.
         11    1    1    2    0    0 -0.15997119623E+02  0.14034131978E+02 -0.46357615816E+03  0.46406434803E+03  0.00000000000E+00 0.  1.
        -15    1    1    2    0    0  0.64134853323E+01 -0.25881249050E+01 -0.11725596557E+02  0.13728748240E+02  0.17770000000E+01 0. -1.
         15    1    1    2    0    0  0.83774248032E+01 -0.18939507055E+02 -0.18812192723E+02  0.28034666003E+02  0.17770000000E+01 0.  1.
</event>
<event>
 6    1  0.1823098E-004  0.4887419E+03  0.7546771E-02  0.9425359E-01
        -11   -1    0    0    0    0  0.00000000000E+00  0.00000000000E+00  0.50000000000E+03  0.50000000000E+03  0.00000000000E+00 0.  1.
         11   -1    0    0    0    0 -0.00000000000E+00 -0.00000000000E+00 -0.50000000000E+03  0.50000000000E+03  0.00000000000E+00 0.  1.
        -11    1    1    2    0    0  0.59691023342E+01 -0.36168283628E+01  0.49049679940E+03  0.49054645229E+03  0.00000000000E+00 0.  1.
         11    1    1    2    0    0  0.10665261682E+02 -0.54397879387E+01 -0.48698008789E+03  0.48712723708E+03  0.00000000000E+00 0.  1.
        -15    1    1    2    0    0 -0.69921098756E+01 -0.15312800532E+01 -0.27651228284E+01  0.78764238313E+01  0.17770000000E+01 0.  1.
         15    1    1    2    0    0 -0.96422541406E+01  0.10587896355E+02 -0.75158868312E+00  0.14449886805E+02  0.17770000000E+01 0. -1.
</event>
<event>
 6    1  0.1823098E-004  0.5081346E+03  0.7546771E-02  0.9381790E-01
        -11   -1    0    0    0    0  0.00000000000E+00  0.00000000000E+00  0.50000000000E+03  0.50000000000E+03  0.00000000000E+00 0.  1.
         11   -1    0    0    0    0 -0.00000000000E+00 -0.00000000000E+00 -0.50000000000E+03  0.50000000000E+03  0.00000000000E+00 0.  1.
        -11    1    1    2    0    0 -0.48669937127E+01  0.12483198773E+02  0.49168287039E+03  0.49186539105E+03  0.00000000000E+00 0.  1.
         11    1    1    2    0    0  0.18826950896E+02  0.14276917473E+02 -0.39366895931E+03  0.39437740044E+03  0.00000000000E+00 0.  1.
        -15    1    1    2    0    0  0.46314397811E+01 -0.11158121991E+02  0.55982650710E+00  0.12223954169E+02  0.17770000000E+01 0. -1.
         15    1    1    2    0    0 -0.18591396964E+02 -0.15601994255E+02 -0.98573737586E+02  0.10153325434E+03  0.17770000000E+01 0.  1.
</event>
<event>
 6    1  0.1823098E-004  0.5047662E+03  0.7546771E-02  0.9389208E-01
        -11   -1    0    0    0    0  0.00000000000E+00  0.00000000000E+00  0.50000000000E+03  0.50000000000E+03  0.00000000000E+00 0. -1.
         11   -1    0    0    0    0 -0.00000000000E+00 -0.00000000000E+00 -0.50000000000E+03  0.50000000000E+03  0.00000000000E+00 0.  1.
        -11    1    1    2    0    0  0.15947427292E+02 -0.11678318437E+02  0.49483920512E+03  0.49523382607E+03  0.00000000000E+00 0. -1.
         11    1    1    2    0    0 -0.30482687668E+01  0.13075974789E+02 -0.46271471216E+03  0.46290947053E+03  0.00000000000E+00 0.  1.
        -15    1    1    2    0    0  0.46191368906E+01 -0.34912192018E+01 -0.11487991726E+01  0.61646172361E+01  0.17770000000E+01 0.  1.
         15    1    1    2    0    0 -0.17518295416E+02  0.20935628494E+01 -0.30975693792E+02  0.35692086161E+02  0.17770000000E+01 0. -1.
</event>
<event>
 6    1  0.1823098E-004  0.5000280E+03  0.7546771E-02  0.9399747E-01
        -11   -1    0    0    0    0  0.00000000000E+00  0.00000000000E+00  0.50000000000E+03  0.50000000000E+03  0.00000000000E+00 0. -1.
         11   -1    0    0    0    0 -0.00000000000E+00 -0.00000000000E+00 -0.50000000000E+03  0.50000000000E+03  0.00000000000E+00 0. -1.
        -11    1    1    2    0    0  0.56086211737E+01 -0.49416536985E+01  0.49991613161E+03  0.49997201443E+03  0.00000000000E+00 0. -1.
         11    1    1    2    0    0 -0.41087778829E+01  0.16886290277E+01 -0.31945821692E+03  0.31948910135E+03  0.00000000000E+00 0. -1.
        -15    1    1    2    0    0 -0.50101526907E+00  0.19763639227E+01 -0.12439403936E+03  0.12442343745E+03  0.17770000000E+01 0. -1.
         15    1    1    2    0    0 -0.99882802178E+00  0.12766607481E+01 -0.56063875334E+02  0.56115446773E+02  0.17770000000E+01 0.  1.
</event>
<event>
 6    1  0.1823098E-004  0.5040969E+03  0.7546771E-02  0.9390689E-01
        -11   -1    0    0    0    0  0.00000000000E+00  0.00000000000E+00  0.50000000000E+03  0.50000000000E+03  0.00000000000E+00 0. -1.
         11   -1    0    0    0    0 -0.00000000000E+00 -0.00000000000E+00 -0.50000000000E+03  0.50000000000E+03  0.00000000000E+00 0. -1.
        -11    1    1    2    0    0 -0.10550469681E+02 -0.33493844335E+01  0.49577955196E+03  0.49590311043E+03  0.00000000000E+00 0. -1.
         11    1    1    2    0    0  0.87369130440E+01 -0.16530994746E+02 -0.46895130854E+03  0.46932391503E+03  0.00000000000E+00 0. -1.
        -15    1    1    2    0    0 -0.24209997253E+01  0.12001473253E+02 -0.19409190398E+02  0.23016754785E+02  0.17770000000E+01 0.  1.
         15    1    1    2    0    0  0.42345563626E+01  0.78789059265E+01 -0.74190530208E+01  0.11756219754E+02  0.17770000000E+01 0. -1.
</event>
<event>
 6    1  0.1823098E-004  0.5001533E+03  0.7546771E-02  0.9399467E-01
        -11   -1    0    0    0    0  0.00000000000E+00  0.00000000000E+00  0.50000000000E+03  0.50000000000E+03  0.00000000000E+00 0.  1.
         11   -1    0    0    0    0 -0.00000000000E+00 -0.00000000000E+00 -0.50000000000E+03  0.50000000000E+03  0.00000000000E+00 0. -1.
        -11    1    1    2    0    0 -0.11447193307E+02 -0.12054702048E+01  0.49971413147E+03  0.49984668108E+03  0.00000000000E+00 0.  1.
         11    1    1    2    0    0  0.49120352110E+01 -0.61026851853E+01 -0.15577376311E+03  0.15597062586E+03  0.00000000000E+00 0. -1.
        -15    1    1    2    0    0  0.24122549685E+01  0.73809802096E+01 -0.17291256617E+03  0.17309595926E+03  0.17770000000E+01 0. -1.
         15    1    1    2    0    0  0.41229031277E+01 -0.72824819472E-01 -0.17102780219E+03  0.17108673380E+03  0.17770000000E+01 0.  1.
</event>
<event>
 6    1  0.1823098E-004  0.5003317E+03  0.7546771E-02  0.9399068E-01
        -11   -1    0    0    0    0  0.00000000000E+00  0.00000000000E+00  0.50000000000E+03  0.50000000000E+03  0.00000000000E+00 0. -1.
         11   -1    0    0    0    0 -0.00000000000E+00 -0.00000000000E+00 -0.50000000000E+03  0.50000000000E+03  0.00000000000E+00 0.  1.
        -11    1    1    2    0    0  0.73354273027E+01  0.54047806795E+01  0.49958524438E+03  0.49966832654E+03  0.00000000000E+00 0. -1.
         11    1    1    2    0    0 -0.94479270734E+01  0.31878848852E+01 -0.82233057525E+02  0.82835389092E+02  0.00000000000E+00 0.  1.
        -15    1    1    2    0    0  0.19532026874E+00 -0.30502356411E+01 -0.69275238672E+02  0.69365398503E+02  0.17770000000E+01 0.  1.
         15    1    1    2    0    0  0.19171795019E+01 -0.55424299235E+01 -0.34807694818E+03  0.34813088586E+03  0.17770000000E+01 0.  1.
</event>
<event>
 6    1  0.1823098E-004  0.5000403E+03  0.7546771E-02  0.9399720E-01
        -11   -1    0    0    0    0  0.00000000000E+00  0.00000000000E+00  0.50000000000E+03  0.50000000000E+03  0.00000000000E+00 0. -1.
         11   -1    0    0    0    0 -0.00000000000E+00 -0.00000000000E+00 -0.50000000000E+03  0.50000000000E+03  0.00000000000E+00 0. -1.
        -11    1    1    2    0    0  0.90259836992E+01  0.33316079149E+01  0.49986711189E+03  0.49995969591E+03  0.00000000000E+00 0. -1.
         11    1    1    2    0    0 -0.70525496182E-01 -0.24350307160E+01 -0.17703749231E+03  0.17705425167E+03  0.00000000000E+00 0. -1.
        -15    1    1    2    0    0 -0.21113807173E+01  0.55374330430E+00 -0.82060027585E+02  0.82108284700E+02  0.17770000000E+01 0. -1.
         15    1    1    2    0    0 -0.68440774858E+01 -0.14503205032E+01 -0.24076959199E+03  0.24087776772E+03  0.17770000000E+01 0. -1.
</event>
<event>
 6    1  0.1823098E-004  0.5009641E+03  0.7546771E-02  0.9397655E-01
        -11   -1    0    0    0    0  0.00000000000E+00  0.00000000000E+00  0.50000000000E+03  0.50000000000E+03  0.00000000000E+00 0.  1.
         11   -1    0    0    0    0 -0.00000000000E+00 -0.00000000000E+00 -0.50000000000E+03  0.50000000000E+03  0.00000000000E+00 0. -1.
        -11    1    1    2    0    0 -0.49616130875E+00  0.11342616287E+02  0.49890669480E+03  0.49903586167E+03  0.00000000000E+00 0.  1.
         11    1    1    2    0    0 -0.13713666893E+02 -0.22333544299E+01 -0.39453085045E+03  0.39477543552E+03  0.00000000000E+00 0. -1.
        -15    1    1    2    0    0  0.60894172150E+01 -0.14555809906E+01 -0.19346807289E+02  0.20412163024E+02  0.17770000000E+01 0.  1.
         15    1    1    2    0    0  0.81204109871E+01 -0.76536808660E+01 -0.85029037059E+02  0.85776539785E+02  0.17770000000E+01 0. -1.
</event>
<event>
 6    1  0.1823098E-004  0.5001896E+03  0.7546771E-02  0.9399385E-01
        -11   -1    0    0    0    0  0.00000000000E+00  0.00000000000E+00  0.50000000000E+03  0.50000000000E+03  0.00000000000E+00 0. -1.
         11   -1    0    0    0    0 -0.00000000000E+00 -0.00000000000E+00 -0.50000000000E+03  0.50000000000E+03  0.00000000000E+00 0.  1.
        -11    1    1    2    0    0 -0.48321906577E+01 -0.43113195226E+01  0.31890720633E+03  0.31897295150E+03  0.00000000000E+00 0. -1.
         11    1    1    2    0    0  0.15310551136E+01  0.72367519383E+01 -0.49975562591E+03  0.49981036438E+03  0.00000000000E+00 0.  1.
        -15    1    1    2    0    0  0.64160486064E+01  0.38212207265E+00  0.10431544544E+03  0.10452837693E+03  0.17770000000E+01 0. -1.
         15    1    1    2    0    0 -0.31149130624E+01 -0.33075544884E+01  0.76532974145E+02  0.76688307196E+02  0.17770000000E+01 0.  1.
</event>
<event>
 6    1  0.1823098E-004  0.5005092E+03  0.7546771E-02  0.9398671E-01
        -11   -1    0    0    0    0  0.00000000000E+00  0.00000000000E+00  0.50000000000E+03  0.50000000000E+03  0.00000000000E+00 0.  1.
         11   -1    0    0    0    0 -0.00000000000E+00 -0.00000000000E+00 -0.50000000000E+03  0.50000000000E+03  0.00000000000E+00 0.  1.
        -11    1    1    2    0    0  0.55524814387E+02 -0.21062170721E+02  0.49594805031E+03  0.49949082940E+03  0.00000000000E+00 0.  1.
         11    1    1    2    0    0 -0.56368432724E+02  0.17077447239E+02 -0.45640180939E+03  0.46018653938E+03  0.00000000000E+00 0.  1.
        -15    1    1    2    0    0  0.10807527647E+01 -0.76048704291E+00 -0.20252333280E+02  0.20373048357E+02  0.17770000000E+01 0.  1.
         15    1    1    2    0    0 -0.23713442768E+00  0.47452105242E+01 -0.19293907641E+02  0.19949582871E+02  0.17770000000E+01 0. -1.
</event>
<event>
 6    1  0.1823098E-004  0.5001640E+03  0.7546771E-02  0.9399443E-01
        -11   -1    0    0    0    0  0.00000000000E+00  0.00000000000E+00  0.50000000000E+03  0.50000000000E+03  0.00000000000E+00 0.  1.
         11   -1    0    0    0    0 -0.00000000000E+00 -0.00000000000E+00 -0.50000000000E+03  0.50000000000E+03  0.00000000000E+00 0. -1.
        -11    1    1    2    0    0  0.38487008574E+01 -0.65384092081E+01  0.41189713770E+03  0.41196700758E+03  0.00000000000E+00 0.  1.
         11    1    1    2    0    0  0.47994427878E+00  0.12632821572E+02 -0.49967607611E+03  0.49983597266E+03  0.00000000000E+00 0. -1.
        -15    1    1    2    0    0 -0.36228617697E+01 -0.34829465271E+01  0.56692214833E+02  0.56942260190E+02  0.17770000000E+01 0.  1.
         15    1    1    2    0    0 -0.70578336649E+00 -0.26114658368E+01  0.31086723576E+02  0.31254759569E+02  0.17770000000E+01 0.  1.
</event>
<event>
 6    1  0.1823098E-004  0.5126781E+03  0.7546771E-02  0.9371880E-01
        -11   -1    0    0    0    0  0.00000000000E+00  0.00000000000E+00  0.50000000000E+03  0.50000000000E+03  0.00000000000E+00 0. -1.
         11   -1    0    0    0    0 -0.00000000000E+00 -0.00000000000E+00 -0.50000000000E+03  0.50000000000E+03  0.00000000000E+00 0.  1.
        -11    1    1    2    0    0  0.32322486502E+02 -0.43352373749E+01  0.38739238524E+03  0.38876264939E+03  0.00000000000E+00 0. -1.
         11    1    1    2    0    0 -0.56720310100E+01 -0.44473711212E+02 -0.48525510160E+03  0.48732186135E+03  0.00000000000E+00 0.  1.
        -15    1    1    2    0    0 -0.10344161451E+02  0.70095155368E-01  0.57750329720E+02  0.58696378945E+02  0.17770000000E+01 0. -1.
         15    1    1    2    0    0 -0.16306294041E+02  0.48738853431E+02  0.40112386635E+02  0.65219110311E+02  0.17770000000E+01 0.  1.
</event>
<event>
 6    1  0.1823098E-004  0.5029897E+03  0.7546771E-02  0.9393145E-01
        -11   -1    0    0    0    0  0.00000000000E+00  0.00000000000E+00  0.50000000000E+03  0.50000000000E+03  0.00000000000E+00 0.  1.
         11   -1    0    0    0    0 -0.00000000000E+00 -0.00000000000E+00 -0.50000000000E+03  0.50000000000E+03  0.00000000000E+00 0. -1.
        -11    1    1    2    0    0 -0.18118747236E+02 -0.43944961487E+01  0.30586211925E+03  0.30642982327E+03  0.00000000000E+00 0.  1.
         11    1    1    2    0    0  0.49414533451E+01 -0.80855474169E+01 -0.49691991642E+03  0.49701025882E+03  0.00000000000E+00 0. -1.
        -15    1    1    2    0    0 -0.81623989433E+01  0.45174796840E+01  0.14334769795E+03  0.14366193865E+03  0.17770000000E+01 0.  1.
         15    1    1    2    0    0  0.21339692834E+02  0.79625638816E+01  0.47710099216E+02  0.52897979262E+02  0.17770000000E+01 0. -1.
</event>
<event>
 6    1  0.1823098E-004  0.5081117E+03  0.7546771E-02  0.9381840E-01
        -11   -1    0    0    0    0  0.00000000000E+00  0.00000000000E+00  0.50000000000E+03  0.50000000000E+03  0.00000000000E+00 0.  1.
         11   -1    0    0    0    0 -0.00000000000E+00 -0.00000000000E+00 -0.50000000000E+03  0.50000000000E+03  0.00000000000E+00 0. -1.
        -11    1    1    2    0    0 -0.18710087785E+01  0.82853266121E+01  0.49181498268E+03  0.49188832523E+03  0.00000000000E+00 0.  1.
         11    1    1    2    0    0  0.67566853957E+01  0.15884981014E+02 -0.47559750890E+03  0.47591068058E+03  0.00000000000E+00 0. -1.
        -15    1    1    2    0    0  0.20804798545E+01 -0.14656151306E+01  0.44425932027E+00  0.31355253913E+01  0.17770000000E+01 0.  1.
         15    1    1    2    0    0 -0.69661564717E+01 -0.22704692495E+02 -0.16661733101E+02  0.29065468794E+02  0.17770000000E+01 0. -1.
</event>
<event>
 6    1  0.1823098E-004  0.4783981E+03  0.7546771E-02  0.9449487E-01
        -11   -1    0    0    0    0  0.00000000000E+00  0.00000000000E+00  0.50000000000E+03  0.50000000000E+03  0.00000000000E+00 0.  1.
         11   -1    0    0    0    0 -0.00000000000E+00 -0.00000000000E+00 -0.50000000000E+03  0.50000000000E+03  0.00000000000E+00 0. -1.
        -11    1    1    2    0    0 -0.24564450722E+01  0.10465757959E+02  0.47641654805E+03  0.47653781955E+03  0.00000000000E+00 0.  1.
         11    1    1    2    0    0  0.20650316195E+02  0.24680773346E+02 -0.48000585370E+03  0.48108335631E+03  0.00000000000E+00 0. -1.
        -15    1    1    2    0    0 -0.80895161691E+01 -0.20010842346E+02 -0.49226987072E+01  0.22209564939E+02  0.17770000000E+01 0. -1.
         15    1    1    2    0    0 -0.10104354953E+02 -0.15135688959E+02  0.85120043617E+01  0.20169259196E+02  0.17770000000E+01 0.  1.
</event>
<event>
 6    1  0.1823098E-004  0.5029135E+03  0.7546771E-02  0.9393314E-01
        -11   -1    0    0    0    0  0.00000000000E+00  0.00000000000E+00  0.50000000000E+03  0.50000000000E+03  0.00000000000E+00 0.  1.
         11   -1    0    0    0    0 -0.00000000000E+00 -0.00000000000E+00 -0.50000000000E+03  0.50000000000E+03  0.00000000000E+00 0.  1.
        -11    1    1    2    0    0  0.39310256111E+01 -0.65148621064E+01  0.48037429451E+03  0.48043455248E+03  0.00000000000E+00 0.  1.
         11    1    1    2    0    0 -0.14813312404E+02  0.51208313622E+00 -0.49686543592E+03  0.49708646920E+03  0.00000000000E+00 0.  1.
        -15    1    1    2    0    0  0.19058217794E+01  0.37492968519E+01  0.10123009619E+02  0.11105063542E+02  0.17770000000E+01 0. -1.
         15    1    1    2    0    0  0.89764650138E+01  0.22534821183E+01  0.63681317918E+01  0.11373914775E+02  0.17770000000E+01 0.  1.
</event>
<event>
 6    1  0.1823098E-004  0.5004394E+03  0.7546771E-02  0.9398827E-01
        -11   -1    0    0    0    0  0.00000000000E+00  0.00000000000E+00  0.50000000000E+03  0.50000000000E+03  0.00000000000E+00 0.  1.
         11   -1    0    0    0    0 -0.00000000000E+00 -0.00000000000E+00 -0.50000000000E+03  0.50000000000E+03  0.00000000000E+00 0. -1.
        -11    1    1    2    0    0 -0.71863179782E+01  0.45805249810E+01  0.49948791477E+03  0.49956060831E+03  0.00000000000E+00 0.  1.
         11    1    1    2    0    0  0.80076993983E+01 -0.37779864732E+01 -0.42346764209E+03  0.42356019682E+03  0.00000000000E+00 0. -1.
        -15    1    1    2    0    0  0.31742320537E+01 -0.18829544587E+01 -0.11606565295E+02  0.12308182382E+02  0.17770000000E+01 0.  1.
         15    1    1    2    0    0 -0.39956134738E+01  0.10804159509E+01 -0.64413707387E+02  0.64571012490E+02  0.17770000000E+01 0. -1.
</event>
<event>
 6    1  0.1823098E-004  0.5002496E+03  0.7546771E-02  0.9399251E-01
        -11   -1    0    0    0    0  0.00000000000E+00  0.00000000000E+00  0.50000000000E+03  0.50000000000E+03  0.00000000000E+00 0. -1.
         11   -1    0    0    0    0 -0.00000000000E+00 -0.00000000000E+00 -0.50000000000E+03  0.50000000000E+03  0.00000000000E+00 0.  1.
        -11    1    1    2    0    0  0.13720718239E+02 -0.69596413638E+01  0.49951354390E+03  0.49975041297E+03  0.00000000000E+00 0. -1.
         11    1    1    2    0    0 -0.16193897794E+02  0.27101928489E+00 -0.25692121250E+03  0.25743120481E+03  0.00000000000E+00 0.  1.
        -15    1    1    2    0    0 -0.11168034188E+01  0.11404879049E+01 -0.23912277302E+02  0.24031285803E+02  0.17770000000E+01 0.  1.
         15    1    1    2    0    0  0.35899829739E+01  0.55481341741E+01 -0.21868005410E+03  0.21878709643E+03  0.17770000000E+01 0.  1.
</event>
<event>
 6    1  0.1823098E-004  0.5005576E+03  0.7546771E-02  0.9398563E-01
        -11   -1    0    0    0    0  0.00000000000E+00  0.00000000000E+00  0.50000000000E+03  0.50000000000E+03  0.00000000000E+00 0.  1.
         11   -1    0    0    0    0 -0.00000000000E+00 -0.00000000000E+00 -0.50000000000E+03  0.50000000000E+03  0.00000000000E+00 0. -1.
        -11    1    1    2    0    0 -0.27124010902E+02 -0.13949249971E+02  0.49851023436E+03  0.49944243642E+03  0.00000000000E+00 0.  1.
         11    1    1    2    0    0  0.23408096137E+02 -0.29482316300E+01 -0.20455244759E+03  0.20590855944E+03  0.00000000000E+00 0. -1.
        -15    1    1    2    0    0 -0.22741841562E+01  0.99036004790E+00 -0.50511621359E+02  0.50603698955E+02  0.17770000000E+01 0.  1.
         15    1    1    2    0    0  0.59900989212E+01  0.15907121553E+02 -0.24344616541E+03  0.24404530518E+03  0.17770000000E+01 0. -1.
</event>
<event>
 6    1  0.1823098E-004  0.5018908E+03  0.7546771E-02  0.9395589E-01
        -11   -1    0    0    0    0  0.00000000000E+00  0.00000000000E+00  0.50000000000E+03  0.50000000000E+03  0.00000000000E+00 0. -1.
         11   -1    0    0    0    0 -0.00000000000E+00 -0.00000000000E+00 -0.50000000000E+03  0.50000000000E+03  0.00000000000E+00 0. -1.
        -11    1    1    2    0    0  0.19694042205E+02 -0.60624947410E+01  0.49768279635E+03  0.49810919980E+03  0.00000000000E+00 0. -1.
         11    1    1    2    0    0 -0.18813743382E+02 -0.19680622096E+02 -0.11751622503E+03  0.12062896407E+03  0.00000000000E+00 0. -1.
        -15    1    1    2    0    0  0.42867329645E+01  0.15497264176E+02 -0.16778195603E+03  0.16856003018E+03  0.17770000000E+01 0.  1.
         15    1    1    2    0    0 -0.51670317871E+01  0.10245852660E+02 -0.21238461529E+03  0.21270180595E+03  0.17770000000E+01 0. -1.
</event>
<event>
 6    1  0.1823098E-004  0.5006251E+03  0.7546771E-02  0.9398412E-01
        -11   -1    0    0    0    0  0.00000000000E+00  0.00000000000E+00  0.50000000000E+03  0.50000000000E+03  0.00000000000E+00 0.  1.
         11   -1    0    0    0    0 -0.00000000000E+00 -0.00000000000E+00 -0.50000000000E+03  0.50000000000E+03  0.00000000000E+00 0. -1.
        -11    1    1    2    0    0 -0.70253846232E+01  0.29540519292E+01  0.45467854567E+03  0.45474241318E+03  0.00000000000E+00 0.  1.
         11    1    1    2    0    0  0.28164183885E+01 -0.88111840329E+01 -0.49928921381E+03  0.49937489745E+03  0.00000000000E+00 0. -1.
        -15    1    1    2    0    0 -0.60712722552E-02  0.49635120033E+01  0.14823625515E+02  0.15733216158E+02  0.17770000000E+01 0.  1.
         15    1    1    2    0    0  0.42150375070E+01  0.89362010044E+00  0.29787042617E+02  0.30149473212E+02  0.17770000000E+01 0. -1.
</event>
<event>
 6    1  0.1823098E-004  0.4731875E+03  0.7546771E-02  0.9461888E-01
        -11   -1    0    0    0    0  0.00000000000E+00  0.00000000000E+00  0.50000000000E+03  0.50000000000E+03  0.00000000000E+00 0. -1.
         11   -1    0    0    0    0 -0.00000000000E+00 -0.00000000000E+00 -0.50000000000E+03  0.50000000000E+03  0.00000000000E+00 0. -1.
        -11    1    1    2    0    0 -0.13140229592E+02 -0.13021532020E+02  0.47850744448E+03  0.47886490825E+03  0.00000000000E+00 0. -1.
         11    1    1    2    0    0 -0.14685169318E+01 -0.34221044155E+02 -0.46761099063E+03  0.46886381281E+03  0.00000000000E+00 0. -1.
        -15    1    1    2    0    0  0.16592390499E+02  0.42559880392E+02 -0.10209580753E+02  0.46840624565E+02  0.17770000000E+01 0. -1.
         15    1    1    2    0    0 -0.19836439755E+01  0.46826957826E+01 -0.68687309793E+00  0.54306543682E+01  0.17770000000E+01 0.  1.
</event>
<event>
 6    1  0.1823098E-004  0.5002663E+03  0.7546771E-02  0.9399214E-01
        -11   -1    0    0    0    0  0.00000000000E+00  0.00000000000E+00  0.50000000000E+03  0.50000000000E+03  0.00000000000E+00 0.  1.
         11   -1    0    0    0    0 -0.00000000000E+00 -0.00000000000E+00 -0.50000000000E+03  0.50000000000E+03  0.00000000000E+00 0. -1.
        -11    1    1    2    0    0  0.56996362074E+00  0.13639888034E+01  0.93850504033E+02  0.93862145891E+02  0.00000000000E+00 0.  1.
         11    1    1    2    0    0 -0.27381929854E+02  0.37028415101E+01 -0.49896920677E+03  0.49973367949E+03  0.00000000000E+00 0. -1.
        -15    1    1    2    0    0  0.26954731858E+02 -0.62223556566E+01  0.30351423963E+03  0.30477750355E+03  0.17770000000E+01 0.  1.
         15    1    1    2    0    0 -0.14276562479E+00  0.11555253431E+01  0.10160446310E+03  0.10162667107E+03  0.17770000000E+01 0. -1.
</event>
<event>
 6    1  0.1823098E-004  0.5003970E+03  0.7546771E-02  0.9398922E-01
        -11   -1    0    0    0    0  0.00000000000E+00  0.00000000000E+00  0.50000000000E+03  0.50000000000E+03  0.00000000000E+00 0. -1.
         11   -1    0    0    0    0 -0.00000000000E+00 -0.00000000000E+00 -0.50000000000E+03  0.50000000000E+03  0.00000000000E+00 0. -1.
        -11    1    1    2    0    0 -0.44274602325E+00  0.67924937470E+01  0.49955667278E+03  0.49960304574E+03  0.00000000000E+00 0. -1.
         11    1    1    2    0    0 -0.68452689372E+00  0.77515881052E+01 -0.30973331129E+03  0.30983105045E+03  0.00000000000E+00 0. -1.
        -15    1    1    2    0    0 -0.84531393476E+00 -0.13493783021E+02 -0.14057830001E+03  0.14123814251E+03  0.17770000000E+01 0. -1.
         15    1    1    2    0    0  0.19725868517E+01 -0.10502988310E+01 -0.49245061475E+02  0.49327761303E+02  0.17770000000E+01 0.  1.
</event>
<event>
 6    1  0.1823098E-004  0.4904780E+03  0.7546771E-02  0.9421372E-01
        -11   -1    0    0    0    0  0.00000000000E+00  0.00000000000E+00  0.50000000000E+03  0.50000000000E+03  0.00000000000E+00 0. -1.
         11   -1    0    0    0    0 -0.00000000000E+00 -0.00000000000E+00 -0.50000000000E+03  0.50000000000E+03  0.00000000000E+00 0. -1.
        -11    1    1    2    0    0 -0.68677447159E+01  0.50519610685E+01  0.49335690805E+03  0.49343056953E+03  0.00000000000E+00 0. -1.
         11    1    1    2    0    0  0.10517217057E+02  0.74105533923E+01 -0.48745940140E+03  0.48762915845E+03  0.00000000000E+00 0. -1.
        -15    1    1    2    0    0  0.42751399852E+01 -0.52291903276E+01 -0.34627504576E+01  0.77954873553E+01  0.17770000000E+01 0.  1.
         15    1    1    2    0    0 -0.79246123267E+01 -0.72333241332E+01 -0.24347561905E+01  0.11144784666E+02  0.17770000000E+01 0. -1.
</event>
<event>
 6    1  0.1823098E-004  0.5001316E+03  0.7546771E-02  0.9399515E-01
        -11   -1    0    0    0    0  0.00000000000E+00  0.00000000000E+00  0.50000000000E+03  0.50000000000E+03  0.00000000000E+00 0.  1.
         11   -1    0    0    0    0 -0.00000000000E+00 -0.00000000000E+00 -0.50000000000E+03  0.50000000000E+03  0.00000000000E+00 0. -1.
        -11    1    1    2    0    0 -0.43286217492E+01  0.12472260511E+02  0.49969406908E+03  0.49986843962E+03  0.00000000000E+00 0.  1.
         11    1    1    2    0    0  0.36432764095E+01 -0.12488888260E+02 -0.27007744459E+03  0.27039059131E+03  0.00000000000E+00 0. -1.
        -15    1    1    2    0    0 -0.17204239594E+01  0.94526750358E+00 -0.18305183722E+03  0.18307098686E+03  0.17770000000E+01 0.  1.
         15    1    1    2    0    0  0.24057692991E+01 -0.92863975444E+00 -0.46564787264E+02  0.46669982212E+02  0.17770000000E+01 0. -1.
</event>
<event>
 6    1  0.1823098E-004  0.5001187E+03  0.7546771E-02  0.9399544E-01
        -11   -1    0    0    0    0  0.00000000000E+00  0.00000000000E+00  0.50000000000E+03  0.50000000000E+03  0.00000000000E+00 0.  1.
         11   -1    0    0    0    0 -0.00000000000E+00 -0.00000000000E+00 -0.50000000000E+03  0.50000000000E+03  0.00000000000E+00 0.  1.
        -11    1    1    2    0    0 -0.41863827648E+00  0.40690337462E+01  0.36070585124E+02  0.36301782392E+02  0.00000000000E+00 0.  1.
         11    1    1    2    0    0 -0.20257373015E+02 -0.14457062527E+02 -0.49926142472E+03  0.49988132394E+03  0.00000000000E+00 0.  1.
        -15    1    1    2    0    0  0.54232361599E+01  0.55802149088E+01  0.16210650940E+03  0.16230289094E+03  0.17770000000E+01 0.  1.
         15    1    1    2    0    0  0.15252775131E+02  0.48078138718E+01  0.30108433019E+03  0.30151400272E+03  0.17770000000E+01 0.  1.
</event>
<event>
 6    1  0.1823098E-004  0.5002420E+03  0.7546771E-02  0.9399268E-01
        -11   -1    0    0    0    0  0.00000000000E+00  0.00000000000E+00  0.50000000000E+03  0.50000000000E+03  0.00000000000E+00 0. -1.
         11   -1    0    0    0    0 -0.00000000000E+00 -0.00000000000E+00 -0.50000000000E+03  0.50000000000E+03  0.00000000000E+00 0.  1.
        -11    1    1    2    0    0  0.13423341984E+02 -0.91956912798E+01  0.49949303303E+03  0.49975797832E+03  0.00000000000E+00 0. -1.
         11    1    1    2    0    0 -0.55517163024E+01  0.26810159602E+01 -0.31518165829E+02  0.32115481901E+02  0.00000000000E+00 0.  1.
        -15    1    1    2    0    0 -0.41799216994E+01  0.63553864079E+01 -0.30122640485E+03  0.30132767445E+03  0.17770000000E+01 0.  1.
         15    1    1    2    0    0 -0.36917039818E+01  0.15928891171E+00 -0.16674846235E+03  0.16679886533E+03  0.17770000000E+01 0. -1.
</event>
<event>
 6    1  0.1823098E-004  0.5001395E+03  0.7546771E-02  0.9399498E-01
        -11   -1    0    0    0    0  0.00000000000E+00  0.00000000000E+00  0.50000000000E+03  0.50000000000E+03  0.00000000000E+00 0.  1.
         11   -1    0    0    0    0 -0.00000000000E+00 -0.00000000000E+00 -0.50000000000E+03  0.50000000000E+03  0.00000000000E+00 0.  1.
        -11    1    1    2    0    0 -0.18741931909E+00 -0.62095889592E+01  0.30614585350E+03  0.30620887926E+03  0.00000000000E+00 0.  1.
         11    1    1    2    0    0 -0.78059806153E+01  0.98983043846E+01 -0.49970153151E+03  0.49986051090E+03  0.00000000000E+00 0.  1.
        -15    1    1    2    0    0  0.23250070476E+01 -0.33825700182E+01  0.38176466732E+02  0.38437582895E+02  0.17770000000E+01 0. -1.
         15    1    1    2    0    0  0.56683928868E+01 -0.30614540719E+00  0.15537921128E+03  0.15549302695E+03  0.17770000000E+01 0.  1.
</event>
<event>
 6    1  0.1823098E-004  0.5021153E+03  0.7546771E-02  0.9395089E-01
        -11   -1    0    0    0    0  0.00000000000E+00  0.00000000000E+00  0.50000000000E+03  0.50000000000E+03  0.00000000000E+00 0. -1.
         11   -1    0    0    0    0 -0.00000000000E+00 -0.00000000000E+00 -0.50000000000E+03  0.50000000000E+03  0.00000000000E+00 0.  1.
        -11    1    1    2    0    0  0.32197290042E-01  0.76751390083E+01  0.44604359175E+03  0.44610962166E+03  0.00000000000E+00 0. -1.
         11    1    1    2    0    0  0.13867192001E+02 -0.37893352810E+01 -0.49767707707E+03  0.49788465643E+03  0.00000000000E+00 0.  1.
        -15    1    1    2    0    0 -0.64075724166E+01 -0.83779747037E+00  0.44716384794E+02  0.45215834471E+02  0.17770000000E+01 0. -1.
         15    1    1    2    0    0 -0.74918168741E+01 -0.30480062570E+01  0.69171005169E+01  0.10789887431E+02  0.17770000000E+01 0.  1.
</event>
<event>
 6    1  0.1823098E-004  0.5318242E+03  0.7546771E-02  0.9331287E-01
        -11   -1    0    0    0    0  0.00000000000E+00  0.00000000000E+00  0.50000000000E+03  0.50000000000E+03  0.00000000000E+00 0.  1.
         11   -1    0    0    0    0 -0.00000000000E+00 -0.00000000000E+00 -0.50000000000E+03  0.50000000000E+03  0.00000000000E+00 0.  1.
        -11    1    1    2    0    0 -0.93970786320E+01  0.13048104118E+02  0.32520960951E+03  0.32560689216E+03  0.00000000000E+00 0.  1.
         11    1    1    2    0    0 -0.70331416750E+02  0.83760068631E+01 -0.46278708605E+03  0.46817577115E+03  0.00000000000E+00 0.  1.
        -15    1    1    2    0    0 -0.12109395790E+02 -0.23172005054E+02  0.10581235850E+03  0.10900913826E+03  0.17770000000E+01 0.  1.
         15    1    1    2    0    0  0.91837891173E+02  0.17478940730E+01  0.31765118049E+02  0.97208198432E+02  0.17770000000E+01 0. -1.
</event>
<event>
 6    1  0.1823098E-004  0.5000872E+03  0.7546771E-02  0.9399615E-01
        -11   -1    0    0    0    0  0.00000000000E+00  0.00000000000E+00  0.50000000000E+03  0.50000000000E+03  0.00000000000E+00 0. -1.
         11   -1    0    0    0    0 -0.00000000000E+00 -0.00000000000E+00 -0.50000000000E+03  0.50000000000E+03  0.00000000000E+00 0.  1.
        -11    1    1    2    0    0  0.11759264625E+02  0.71983700588E+01  0.11958867601E+03  0.12038084676E+03  0.00000000000E+00 0. -1.
         11    1    1    2    0    0 -0.38326800596E+02 -0.14443346432E+02 -0.49823207949E+03  0.49991275132E+03  0.00000000000E+00 0.  1.
        -15    1    1    2    0    0  0.23822111427E+02  0.74918396729E+01  0.34298400855E+03  0.34389650842E+03  0.17770000000E+01 0. -1.
         15    1    1    2    0    0  0.27454245440E+01 -0.24686329998E+00  0.35659394926E+02  0.35809893505E+02  0.17770000000E+01 0.  1.
</event>
<event>
 6    1  0.1823098E-004  0.5001894E+03  0.7546771E-02  0.9399386E-01
        -11   -1    0    0    0    0  0.00000000000E+00  0.00000000000E+00  0.50000000000E+03  0.50000000000E+03  0.00000000000E+00 0. -1.
         11   -1    0    0    0    0 -0.00000000000E+00 -0.00000000000E+00 -0.50000000000E+03  0.50000000000E+03  0.00000000000E+00 0.  1.
        -11    1    1    2    0    0  0.10514406256E+00  0.17252338080E+02  0.49951273869E+03  0.49981059447E+03  0.00000000000E+00 0. -1.
         11    1    1    2    0    0 -0.36843594323E+01 -0.10481084889E+02 -0.15208885757E+03  0.15249409248E+03  0.00000000000E+00 0.  1.
        -15    1    1    2    0    0  0.23494715844E+01  0.33897831365E+00 -0.23518450986E+02  0.23704644878E+02  0.17770000000E+01 0.  1.
         15    1    1    2    0    0  0.12297437853E+01 -0.71102315054E+01 -0.32390543014E+03  0.32399066817E+03  0.17770000000E+01 0.  1.
</event>
<event>
 6    1  0.1823098E-004  0.5007715E+03  0.7546771E-02  0.9398085E-01
        -11   -1    0    0    0    0  0.00000000000E+00  0.00000000000E+00  0.50000000000E+03  0.50000000000E+03  0.00000000000E+00 0.  1.
         11   -1    0    0    0    0 -0.00000000000E+00 -0.00000000000E+00 -0.50000000000E+03  0.50000000000E+03  0.00000000000E+00 0.  1.
        -11    1    1    2    0    0  0.51421496488E+01  0.36512526895E+01  0.44011395405E+03  0.44015913701E+03  0.00000000000E+00 0.  1.
         11    1    1    2    0    0 -0.10198959211E+02  0.16866357443E+01 -0.49912147943E+03  0.49922851955E+03  0.00000000000E+00 0.  1.
        -15    1    1    2    0    0 -0.31329464659E+01 -0.15989436557E+01  0.99134869883E+01  0.10668032979E+02  0.17770000000E+01 0. -1.
         15    1    1    2    0    0  0.81897560279E+01 -0.37389447780E+01  0.49094038395E+02  0.49944310454E+02  0.17770000000E+01 0.  1.
</event>
<event>
 6    1  0.1823098E-004  0.5001983E+03  0.7546771E-02  0.9399366E-01
        -11   -1    0    0    0    0  0.00000000000E+00  0.00000000000E+00  0.50000000000E+03  0.50000000000E+03  0.00000000000E+00 0. -1.
         11   -1    0    0    0    0 -0.00000000000E+00 -0.00000000000E+00 -0.50000000000E+03  0.50000000000E+03  0.00000000000E+00 0. -1.
        -11    1    1    2    0    0 -0.77756707496E+01 -0.24089948077E+01  0.49973536145E+03  0.49980165645E+03  0.00000000000E+00 0. -1.
         11    1    1    2    0    0  0.12615572299E+01  0.57279217539E+01 -0.41005966895E+03  0.41010161267E+03  0.00000000000E+00 0. -1.
        -15    1    1    2    0    0  0.31325387540E+01 -0.30198395616E+01 -0.40451469053E+02  0.40723596447E+02  0.17770000000E+01 0. -1.
         15    1    1    2    0    0  0.33815747657E+01 -0.29908738464E+00 -0.49224223440E+02  0.49373134430E+02  0.17770000000E+01 0.  1.
</event>
<event>
 6    1  0.1823098E-004  0.5013311E+03  0.7546771E-02  0.9396836E-01
        -11   -1    0    0    0    0  0.00000000000E+00  0.00000000000E+00  0.50000000000E+03  0.50000000000E+03  0.00000000000E+00 0.  1.
         11   -1    0    0    0    0 -0.00000000000E+00 -0.00000000000E+00 -0.50000000000E+03  0.50000000000E+03  0.00000000000E+00 0. -1.
        -11    1    1    2    0    0  0.18083631158E+01 -0.65636698313E+01  0.45801407927E+03  0.45806467747E+03  0.00000000000E+00 0.  1.
         11    1    1    2    0    0  0.74776701903E+01 -0.94805039229E+00 -0.49861188360E+03  0.49866885287E+03  0.00000000000E+00 0. -1.
        -15    1    1    2    0    0 -0.33656577019E+01  0.23150835573E+01  0.27651309859E+02  0.28007854784E+02  0.17770000000E+01 0.  1.
         15    1    1    2    0    0 -0.59203756042E+01  0.51966366663E+01  0.12946494475E+02  0.15258614882E+02  0.17770000000E+01 0. -1.
</event>
<event>
 6    1  0.1823098E-004  0.5014441E+03  0.7546771E-02  0.9396584E-01
        -11   -1    0    0    0    0  0.00000000000E+00  0.00000000000E+00  0.50000000000E+03  0.50000000000E+03  0.00000000000E+00 0.  1.
         11   -1    0    0    0    0 -0.00000000000E+00 -0.00000000000E+00 -0.50000000000E+03  0.50000000000E+03  0.00000000000E+00 0. -1.
        -11    1    1    2    0    0  0.98369899140E+01 -0.45250700846E+01  0.30753794483E+03  0.30772850070E+03  0.00000000000E+00 0.  1.
         11    1    1    2    0    0  0.11722839046E+02 -0.40457084420E+01 -0.49840164111E+03  0.49855590315E+03  0.00000000000E+00 0. -1.
        -15    1    1    2    0    0 -0.18692879473E+02  0.21112856593E+01  0.66330349884E+02  0.68969227304E+02  0.17770000000E+01 0.  1.
         15    1    1    2    0    0 -0.28669494874E+01  0.64594928673E+01  0.12453334639E+03  0.12474636884E+03  0.17770000000E+01 0. -1.
</event>
<event>
 6    1  0.1823098E-004  0.5014763E+03  0.7546771E-02  0.9396512E-01
        -11   -1    0    0    0    0  0.00000000000E+00  0.00000000000E+00  0.50000000000E+03  0.50000000000E+03  0.00000000000E+00 0.  1.
         11   -1    0    0    0    0 -0.00000000000E+00 -0.00000000000E+00 -0.50000000000E+03  0.50000000000E+03  0.00000000000E+00 0.  1.
        -11    1    1    2    0    0  0.34958212109E+01 -0.13302953029E+02  0.49833388907E+03  0.49852367478E+03  0.00000000000E+00 0.  1.
         11    1    1    2    0    0  0.42508560710E+01  0.27094937076E+02 -0.13510286976E+03  0.13785858990E+03  0.00000000000E+00 0.  1.
        -15    1    1    2    0    0 -0.65262905881E+00 -0.47785066076E+01 -0.10373913299E+03  0.10386638288E+03  0.17770000000E+01 0.  1.
         15    1    1    2    0    0 -0.70940482231E+01 -0.90134774389E+01 -0.25949188632E+03  0.25975135243E+03  0.17770000000E+01 0.  1.
</event>
<event>
 6    1  0.1823098E-004  0.5187281E+03  0.7546771E-02  0.9358852E-01
        -11   -1    0    0    0    0  0.00000000000E+00  0.00000000000E+00  0.50000000000E+03  0.50000000000E+03  0.00000000000E+00 0. -1.
         11   -1    0    0    0    0 -0.00000000000E+00 -0.00000000000E+00 -0.50000000000E+03  0.50000000000E+03  0.00000000000E+00 0. -1.
        -11    1    1    2    0    0 -0.64461382400E+01 -0.11772792505E+02  0.42574769939E+03  0.42595921739E+03  0.00000000000E+00 0. -1.
         11    1    1    2    0    0  0.39398576157E+02 -0.37326769441E+01 -0.47964198040E+03  0.48127186708E+03  0.00000000000E+00 0. -1.
        -15    1    1    2    0    0 -0.42045877668E+02  0.74049380107E+01  0.63925439920E+02  0.76891537466E+02  0.17770000000E+01 0.  1.
         15    1    1    2    0    0  0.90934397513E+01  0.81005314380E+01 -0.10031158911E+02  0.15877378064E+02  0.17770000000E+01 0. -1.
</event>
<event>
 6    1  0.1823098E-004  0.5015469E+03  0.7546771E-02  0.9396355E-01
        -11   -1    0    0    0    0  0.00000000000E+00  0.00000000000E+00  0.50000000000E+03  0.50000000000E+03  0.00000000000E+00 0. -1.
         11   -1    0    0    0    0 -0.00000000000E+00 -0.00000000000E+00 -0.50000000000E+03  0.50000000000E+03  0.00000000000E+00 0.  1.
        -11    1    1    2    0    0 -0.93970507349E+01  0.45545908491E+01  0.49834373206E+03  0.49845313135E+03  0.00000000000E+00 0. -1.
         11    1    1    2    0    0  0.90068239724E+01 -0.15789319917E+02 -0.30124266039E+03  0.30179059949E+03  0.00000000000E+00 0.  1.
        -15    1    1    2    0    0  0.53644590715E+01  0.22782875632E+01 -0.66414549176E+01  0.90130276696E+01  0.17770000000E+01 0. -1.
         15    1    1    2    0    0 -0.49742323089E+01  0.89564415046E+01 -0.19045961676E+03  0.19074324149E+03  0.17770000000E+01 0.  1.
</event>
<event>
 6    1  0.1823098E-004  0.5006247E+03  0.7546771E-02  0.9398413E-01
        -11   -1    0    0    0    0  0.00000000000E+00  0.00000000000E+00  0.50000000000E+03  0.50000000000E+03  0.00000000000E+00 0. -1.
         11   -1    0    0    0    0 -0.00000000000E+00 -0.00000000000E+00 -0.50000000000E+03  0.50000000000E+03  0.00000000000E+00 0.  1.
        -11    1    1    2    0    0  0.55449623249E+02  0.19610246472E+02  0.49589965686E+03  0.49937530191E+03  0.00000000000E+00 0. -1.
         11    1    1    2    0    0 -0.40499842969E+01 -0.98959004983E+01 -0.33286040975E+02  0.34961289211E+02  0.00000000000E+00 0.  1.
        -15    1    1    2    0    0 -0.69440793130E+01 -0.42858008945E+01 -0.66702593575E+02  0.67223374249E+02  0.17770000000E+01 0. -1.
         15    1    1    2    0    0 -0.44455559639E+02 -0.54285450789E+01 -0.39591102231E+03  0.39844003463E+03  0.17770000000E+01 0.  1.
</event>
<event>
 6    1  0.1823098E-004  0.5030919E+03  0.7546771E-02  0.9392918E-01
        -11   -1    0    0    0    0  0.00000000000E+00  0.00000000000E+00  0.50000000000E+03  0.50000000000E+03  0.00000000000E+00 0. -1.
         11   -1    0    0    0    0 -0.00000000000E+00 -0.00000000000E+00 -0.50000000000E+03  0.50000000000E+03  0.00000000000E+00 0. -1.
        -11    1    1    2    0    0  0.68992935328E+01  0.68997966655E+01  0.40944874913E+03  0.40956499558E+03  0.00000000000E+00 0. -1.
         11    1    1    2    0    0  0.74030390059E+01 -0.30894185543E+02 -0.49589154600E+03  0.49690812137E+03  0.00000000000E+00 0. -1.
        -15    1    1    2    0    0  0.26216275061E+00 -0.37900065702E+01  0.81863569479E+01  0.91982089663E+01  0.17770000000E+01 0. -1.
         15    1    1    2    0    0 -0.14564495289E+02  0.27784395447E+02  0.78256439928E+02  0.84328674083E+02  0.17770000000E+01 0. -1.
</event>
<event>
 6    1  0.1823098E-004  0.4815159E+03  0.7546771E-02  0.9442146E-01
        -11   -1    0    0    0    0  0.00000000000E+00  0.00000000000E+00  0.50000000000E+03  0.50000000000E+03  0.00000000000E+00 0.  1.
         11   -1    0    0    0    0 -0.00000000000E+00 -0.00000000000E+00 -0.50000000000E+03  0.50000000000E+03  0.00000000000E+00 0.  1.
        -11    1    1    2    0    0  0.17479644226E+01 -0.69689988758E+01  0.47538226955E+03  0.47543656205E+03  0.00000000000E+00 0.  1.
         11    1    1    2    0    0  0.23441696414E+02  0.96542527557E+01 -0.48734365987E+03  0.48800262350E+03  0.00000000000E+00 0.  1.
        -15    1    1    2    0    0 -0.22849811186E+02 -0.51643834183E+01 -0.52163275836E+00  0.23499245883E+02  0.17770000000E+01 0.  1.
         15    1    1    2    0    0 -0.23398496500E+01  0.24791295384E+01  0.12483023071E+02  0.13061568575E+02  0.17770000000E+01 0.  1.
</event>
<event>
 6    1  0.1823098E-004  0.5009174E+03  0.7546771E-02  0.9397759E-01
        -11   -1    0    0    0    0  0.00000000000E+00  0.00000000000E+00  0.50000000000E+03  0.50000000000E+03  0.00000000000E+00 0.  1.
         11   -1    0    0    0    0 -0.00000000000E+00 -0.00000000000E+00 -0.50000000000E+03  0.50000000000E+03  0.00000000000E+00 0.  1.
        -11    1    1    2    0    0  0.88923194946E+01 -0.16962315054E+01  0.49900049542E+03  0.49908260336E+03  0.00000000000E+00 0.  1.
         11    1    1    2    0    0  0.55394303813E+01 -0.96707333590E+01 -0.38569817606E+03  0.38585916004E+03  0.00000000000E+00 0.  1.
        -15    1    1    2    0    0 -0.43394842549E+01  0.41859370993E+01 -0.21276759049E+02  0.22185837772E+02  0.17770000000E+01 0. -1.
         15    1    1    2    0    0 -0.10092265621E+02  0.71810277650E+01 -0.92025560306E+02  0.92872398826E+02  0.17770000000E+01 0.  1.
</event>
<event>
 6    1  0.1823098E-004  0.5002317E+03  0.7546771E-02  0.9399291E-01
        -11   -1    0    0    0    0  0.00000000000E+00  0.00000000000E+00  0.50000000000E+03  0.50000000000E+03  0.00000000000E+00 0. -1.
         11   -1    0    0    0    0 -0.00000000000E+00 -0.00000000000E+00 -0.50000000000E+03  0.50000000000E+03  0.00000000000E+00 0. -1.
        -11    1    1    2    0    0  0.87009592370E+00  0.72694982745E+01  0.49971468911E+03  0.49976831951E+03  0.00000000000E+00 0. -1.
         11    1    1    2    0    0 -0.14404331627E+01 -0.24041128666E+01 -0.92137956730E+01  0.96306093824E+01  0.00000000000E+00 0. -1.
        -15    1    1    2    0    0  0.30807479264E+01 -0.54074267153E+01 -0.38349832610E+03  0.38355293653E+03  0.17770000000E+01 0. -1.
         15    1    1    2    0    0 -0.25104106874E+01  0.54204130736E+00 -0.10700256734E+03  0.10704813458E+03  0.17770000000E+01 0. -1.
</event>
<event>
 6    1  0.1823098E-004  0.5046321E+03  0.7546771E-02  0.9389504E-01
        -11   -1    0    0    0    0  0.00000000000E+00  0.00000000000E+00  0.50000000000E+03  0.50000000000E+03  0.00000000000E+00 0.  1.
         11   -1    0    0    0    0 -0.00000000000E+00 -0.00000000000E+00 -0.50000000000E+03  0.50000000000E+03  0.00000000000E+00 0.  1.
        -11    1    1    2    0    0  0.69793695077E+01 -0.16856979260E+02  0.38907429339E+03  0.38950182942E+03  0.00000000000E+00 0.  1.
         11    1    1    2    0    0 -0.23106844200E+02  0.24580389954E+01 -0.49482253456E+03  0.49536785212E+03  0.00000000000E+00 0.  1.
        -15    1    1    2    0    0  0.13889989459E+02 -0.11554275029E+02  0.30657436851E+02  0.35629611868E+02  0.17770000000E+01 0.  1.
         15    1    1    2    0    0  0.22374852337E+01  0.25953215293E+02  0.75090804325E+02  0.79500706584E+02  0.17770000000E+01 0. -1.
</event>
<event>
 6    1  0.1823098E-004  0.5019816E+03  0.7546771E-02  0.9395387E-01
        -11   -1    0    0    0    0  0.00000000000E+00  0.00000000000E+00  0.50000000000E+03  0.50000000000E+03  0.00000000000E+00 0.  1.
         11   -1    0    0    0    0 -0.00000000000E+00 -0.00000000000E+00 -0.50000000000E+03  0.50000000000E+03  0.00000000000E+00 0. -1.
        -11    1    1    2    0    0 -0.12998403423E+01 -0.99834159579E+01  0.34686701224E+03  0.34701308672E+03  0.00000000000E+00 0.  1.
         11    1    1    2    0    0 -0.29360060064E+02 -0.43243573828E+01 -0.49713344334E+03  0.49801844713E+03  0.00000000000E+00 0. -1.
        -15    1    1    2    0    0  0.29258470346E+01  0.89357526438E+01  0.39530507958E+02  0.40672190064E+02  0.17770000000E+01 0. -1.
         15    1    1    2    0    0  0.27734053372E+02  0.53720206969E+01  0.11073592314E+03  0.11429627608E+03  0.17770000000E+01 0.  1.
</event>
<event>
 6    1  0.1823098E-004  0.5175901E+03  0.7546771E-02  0.9361289E-01
        -11   -1    0    0    0    0  0.00000000000E+00  0.00000000000E+00  0.50000000000E+03  0.50000000000E+03  0.00000000000E+00 0.  1.
         11   -1    0    0    0    0 -0.00000000000E+00 -0.00000000000E+00 -0.50000000000E+03  0.50000000000E+03  0.00000000000E+00 0.  1.
        -11    1    1    2    0    0  0.97656950813E+01  0.62141307826E+01  0.36260899891E+03  0.36279370214E+03  0.00000000000E+00 0.  1.
         11    1    1    2    0    0 -0.36518279528E+02 -0.81474472729E+02 -0.47407560947E+03  0.48240994801E+03  0.00000000000E+00 0.  1.
        -15    1    1    2    0    0  0.50285911711E+01 -0.13338838048E+02  0.26380886793E+02  0.30038645885E+02  0.17770000000E+01 0.  1.
         15    1    1    2    0    0  0.21723993276E+02  0.88599179993E+02  0.85085723764E+02  0.12475770396E+03  0.17770000000E+01 0. -1.
</event>
<event>
 6    1  0.1823098E-004  0.4930330E+03  0.7546771E-02  0.9415535E-01
        -11   -1    0    0    0    0  0.00000000000E+00  0.00000000000E+00  0.50000000000E+03  0.50000000000E+03  0.00000000000E+00 0. -1.
         11   -1    0    0    0    0 -0.00000000000E+00 -0.00000000000E+00 -0.50000000000E+03  0.50000000000E+03  0.00000000000E+00 0.  1.
        -11    1    1    2    0    0 -0.70479313734E+01  0.47385959486E+01  0.49382632686E+03  0.49389935081E+03  0.00000000000E+00 0. -1.
         11    1    1    2    0    0  0.51421522517E+01 -0.99042559130E+01 -0.49205708492E+03  0.49218361496E+03  0.00000000000E+00 0.  1.
        -15    1    1    2    0    0  0.68849265106E+01  0.17379387139E+01 -0.20769527572E+01  0.76088176339E+01  0.17770000000E+01 0.  1.
         15    1    1    2    0    0 -0.49791473889E+01  0.34277212506E+01  0.30771081199E+00  0.63082165971E+01  0.17770000000E+01 0. -1.
</event>
<event>
 6    1  0.1823098E-004  0.5010923E+03  0.7546771E-02  0.9397369E-01
        -11   -1    0    0    0    0  0.00000000000E+00  0.00000000000E+00  0.50000000000E+03  0.50000000000E+03  0.00000000000E+00 0. -1.
         11   -1    0    0    0    0 -0.00000000000E+00 -0.00000000000E+00 -0.50000000000E+03  0.50000000000E+03  0.00000000000E+00 0.  1.
        -11    1    1    2    0    0  0.58039815009E+01  0.22674320565E+00  0.41645671119E+03  0.41649721477E+03  0.00000000000E+00 0. -1.
         11    1    1    2    0    0 -0.12897920329E+02  0.23798759569E+01 -0.49873525320E+03  0.49890767978E+03  0.00000000000E+00 0.  1.
        -15    1    1    2    0    0  0.26693058502E+01 -0.41444809620E+01  0.52981208364E+01  0.74518272634E+01  0.17770000000E+01 0.  1.
         15    1    1    2    0    0  0.44246329777E+01  0.15378617994E+01  0.76980421173E+02  0.77143278183E+02  0.17770000000E+01 0. -1.
</event>
<event>
 6    1  0.1823098E-004  0.5004893E+03  0.7546771E-02  0.9398716E-01
        -11   -1    0    0    0    0  0.00000000000E+00  0.00000000000E+00  0.50000000000E+03  0.50000000000E+03  0.00000000000E+00 0. -1.
         11   -1    0    0    0    0 -0.00000000000E+00 -0.00000000000E+00 -0.50000000000E+03  0.50000000000E+03  0.00000000000E+00 0.  1.
        -11    1    1    2    0    0 -0.21571519782E+01  0.28366729985E+01  0.25671628883E+03  0.25674102315E+03  0.00000000000E+00 0. -1.
         11    1    1    2    0    0 -0.14477419834E+02 -0.22776418444E+02 -0.49878113598E+03  0.49951074316E+03  0.00000000000E+00 0.  1.
        -15    1    1    2    0    0  0.41412953108E+00 -0.60857676940E+00  0.85426932978E+01  0.87565522172E+01  0.17770000000E+01 0. -1.
         15    1    1    2    0    0  0.16220442282E+02  0.20548322215E+02  0.23352215385E+03  0.23499168148E+03  0.17770000000E+01 0. -1.
</event>
<event>
 6    1  0.1823098E-004  0.5004486E+03  0.7546771E-02  0.9398807E-01
        -11   -1    0    0    0    0  0.00000000000E+00  0.00000000000E+00  0.50000000000E+03  0.50000000000E+03  0.00000000000E+00 0. -1.
         11   -1    0    0    0    0 -0.00000000000E+00 -0.00000000000E+00 -0.50000000000E+03  0.50000000000E+03  0.00000000000E+00 0. -1.
        -11    1    1    2    0    0  0.14738033743E+02 -0.15627889638E+02  0.49908937561E+03  0.49955144422E+03  0.00000000000E+00 0. -1.
         11    1    1    2    0    0 -0.32832153023E+01 -0.60735533468E+01 -0.45311933339E+02  0.45834908704E+02  0.00000000000E+00 0. -1.
        -15    1    1    2    0    0 -0.28342716443E+01  0.24994591028E+01 -0.27707275401E+02  0.28020193267E+02  0.17770000000E+01 0.  1.
         15    1    1    2    0    0 -0.86205467964E+01  0.19201983882E+02 -0.42607016687E+03  0.42659345381E+03  0.17770000000E+01 0. -1.
</event>
<event>
 6    1  0.1823098E-004  0.5002676E+03  0.7546771E-02  0.9399211E-01
        -11   -1    0    0    0    0  0.00000000000E+00  0.00000000000E+00  0.50000000000E+03  0.50000000000E+03  0.00000000000E+00 0. -1.
         11   -1    0    0    0    0 -0.00000000000E+00 -0.00000000000E+00 -0.50000000000E+03  0.50000000000E+03  0.00000000000E+00 0.  1.
        -11    1    1    2    0    0  0.15778708508E+01 -0.98153050286E+00  0.11612877833E+03  0.11614364483E+03  0.00000000000E+00 0. -1.
         11    1    1    2    0    0 -0.13410330966E+02  0.67571774237E+01 -0.49950677656E+03  0.49973244467E+03  0.00000000000E+00 0.  1.
        -15    1    1    2    0    0 -0.46792547230E+01 -0.96260660167E+00  0.41972013930E+02  0.42280370370E+02  0.17770000000E+01 0.  1.
         15    1    1    2    0    0  0.16511714838E+02 -0.48130403192E+01  0.34140598430E+03  0.34184354013E+03  0.17770000000E+01 0. -1.
</event>
<event>
 6    1  0.1823098E-004  0.5002330E+03  0.7546771E-02  0.9399288E-01
        -11   -1    0    0    0    0  0.00000000000E+00  0.00000000000E+00  0.50000000000E+03  0.50000000000E+03  0.00000000000E+00 0. -1.
         11   -1    0    0    0    0 -0.00000000000E+00 -0.00000000000E+00 -0.50000000000E+03  0.50000000000E+03  0.00000000000E+00 0.  1.
        -11    1    1    2    0    0  0.53303410957E+01  0.93751917667E+00  0.37282992240E+03  0.37286920296E+03  0.00000000000E+00 0. -1.
         11    1    1    2    0    0  0.21819143018E+01 -0.75134748825E+01 -0.49970573904E+03  0.49976698439E+03  0.00000000000E+00 0.  1.
        -15    1    1    2    0    0 -0.31565469776E+01  0.35035695106E+01  0.41805901192E+02  0.42108548913E+02  0.17770000000E+01 0. -1.
         15    1    1    2    0    0 -0.43557084200E+01  0.30723861952E+01  0.85069915446E+02  0.85255263742E+02  0.17770000000E+01 0.  1.
</event>
<event>
 6    1  0.1823098E-004  0.5007756E+03  0.7546771E-02  0.9398076E-01
        -11   -1    0    0    0    0  0.00000000000E+00  0.00000000000E+00  0.50000000000E+03  0.50000000000E+03  0.00000000000E+00 0.  1.
         11   -1    0    0    0    0 -0.00000000000E+00 -0.00000000000E+00 -0.50000000000E+03  0.50000000000E+03  0.00000000000E+00 0. -1.
        -11    1    1    2    0    0 -0.53026318590E+01  0.34394810044E+01  0.41584093967E+03  0.41588896961E+03  0.00000000000E+00 0.  1.
         11    1    1    2    0    0  0.59508047602E+01  0.11033090996E+02 -0.49906702666E+03  0.49922443677E+03  0.00000000000E+00 0. -1.
        -15    1    1    2    0    0 -0.31486454545E+01 -0.31196894788E+01  0.29921983881E+02  0.30300648162E+02  0.17770000000E+01 0. -1.
         15    1    1    2    0    0  0.25004725534E+01 -0.11352882521E+02  0.53304103106E+02  0.54585945457E+02  0.17770000000E+01 0.  1.
</event>
<event>
 6    1  0.1823098E-004  0.5035298E+03  0.7546771E-02  0.9391946E-01
        -11   -1    0    0    0    0  0.00000000000E+00  0.00000000000E+00  0.50000000000E+03  0.50000000000E+03  0.00000000000E+00 0.  1.
         11   -1    0    0    0    0 -0.00000000000E+00 -0.00000000000E+00 -0.50000000000E+03  0.50000000000E+03  0.00000000000E+00 0.  1.
        -11    1    1    2    0    0 -0.59779278868E+01  0.71587474484E+01  0.49638256773E+03  0.49647017719E+03  0.00000000000E+00 0.  1.
         11    1    1    2    0    0  0.37696614421E+01  0.54701196571E+01 -0.45913173670E+03  0.45917979507E+03  0.00000000000E+00 0.  1.
        -15    1    1    2    0    0  0.72458689379E+01 -0.13637487391E+02 -0.15583188704E+02  0.22010842288E+02  0.17770000000E+01 0.  1.
         15    1    1    2    0    0 -0.50376024932E+01  0.10086202858E+01 -0.21667642326E+02  0.22339185454E+02  0.17770000000E+01 0.  1.
</event>
<event>
 6    1  0.1823098E-004  0.5038866E+03  0.7546771E-02  0.9391155E-01
        -11   -1    0    0    0    0  0.00000000000E+00  0.00000000000E+00  0.50000000000E+03  0.50000000000E+03  0.00000000000E+00 0. -1.
         11   -1    0    0    0    0 -0.00000000000E+00 -0.00000000000E+00 -0.50000000000E+03  0.50000000000E+03  0.00000000000E+00 0.  1.
        -11    1    1    2    0    0 -0.52115305288E+02 -0.73601175654E+02  0.20443274676E+03  0.22344101247E+03  0.00000000000E+00 0. -1.
         11    1    1    2    0    0  0.10880892444E+03  0.73388067283E+02 -0.47843843073E+03  0.49611341693E+03  0.00000000000E+00 0.  1.
        -15    1    1    2    0    0 -0.28782790893E+02  0.51479337804E+01  0.10247053657E+03  0.10657541399E+03  0.17770000000E+01 0.  1.
         15    1    1    2    0    0 -0.27910828257E+02 -0.49348254100E+01  0.17153514740E+03  0.17387015660E+03  0.17770000000E+01 0. -1.
</event>
<event>
 6    1  0.1823098E-004  0.5373653E+03  0.7546771E-02  0.9319877E-01
        -11   -1    0    0    0    0  0.00000000000E+00  0.00000000000E+00  0.50000000000E+03  0.50000000000E+03  0.00000000000E+00 0. -1.
         11   -1    0    0    0    0 -0.00000000000E+00 -0.00000000000E+00 -0.50000000000E+03  0.50000000000E+03  0.00000000000E+00 0.  1.
        -11    1    1    2    0    0  0.10532926172E+01  0.64882461636E+01  0.46258798948E+03  0.46263468826E+03  0.00000000000E+00 0. -1.
         11    1    1    2    0    0 -0.12765181934E+03 -0.98307259897E+01 -0.25609551054E+03  0.28631545657E+03  0.00000000000E+00 0.  1.
        -15    1    1    2    0    0 -0.48366483298E+01 -0.50043975122E+01 -0.14183351565E+01  0.73216504384E+01  0.17770000000E+01 0.  1.
         15    1    1    2    0    0  0.13143517505E+03  0.83468773383E+01 -0.20507414379E+03  0.24372820474E+03  0.17770000000E+01 0. -1.
</event>
<event>
 6    1  0.1823098E-004  0.5000297E+03  0.7546771E-02  0.9399743E-01
        -11   -1    0    0    0    0  0.00000000000E+00  0.00000000000E+00  0.50000000000E+03  0.50000000000E+03  0.00000000000E+00 0. -1.
         11   -1    0    0    0    0 -0.00000000000E+00 -0.00000000000E+00 -0.50000000000E+03  0.50000000000E+03  0.00000000000E+00 0.  1.
        -11    1    1    2    0    0 -0.36868294513E+01 -0.13824795135E+01  0.13214120969E+03  0.13219986105E+03  0.00000000000E+00 0. -1.
         11    1    1    2    0    0  0.83788185256E+01  0.93622354399E+01 -0.49981239345E+03  0.49997028382E+03  0.00000000000E+00 0.  1.
        -15    1    1    2    0    0 -0.40009700320E+01 -0.64616186667E+01  0.32119086358E+03  0.32128568106E+03  0.17770000000E+01 0.  1.
         15    1    1    2    0    0 -0.69101904234E+00 -0.15181372596E+01  0.46480320180E+02  0.46544174083E+02  0.17770000000E+01 0. -1.
</event>
<event>
 6    1  0.1823098E-004  0.5006668E+03  0.7546771E-02  0.9398319E-01
        -11   -1    0    0    0    0  0.00000000000E+00  0.00000000000E+00  0.50000000000E+03  0.50000000000E+03  0.00000000000E+00 0.  1.
         11   -1    0    0    0    0 -0.00000000000E+00 -0.00000000000E+00 -0.50000000000E+03  0.50000000000E+03  0.00000000000E+00 0.  1.
        -11    1    1    2    0    0  0.27210728127E+02 -0.25395501205E+02  0.49794408940E+03  0.49933322679E+03  0.00000000000E+00 0.  1.
         11    1    1    2    0    0  0.42144260924E+01  0.11269616377E+02 -0.78313615652E+02  0.79232493569E+02  0.00000000000E+00 0.  1.
        -15    1    1    2    0    0 -0.12787662788E+02 -0.32586861162E+01 -0.13077425359E+03  0.13145039554E+03  0.17770000000E+01 0. -1.
         15    1    1    2    0    0 -0.18637491431E+02  0.17384570944E+02 -0.28885622015E+03  0.28998388411E+03  0.17770000000E+01 0.  1.
</event>
<event>
 6    1  0.1823098E-004  0.4764566E+03  0.7546771E-02  0.9454088E-01
        -11   -1    0    0    0    0  0.00000000000E+00  0.00000000000E+00  0.50000000000E+03  0.50000000000E+03  0.00000000000E+00 0. -1.
         11   -1    0    0    0    0 -0.00000000000E+00 -0.00000000000E+00 -0.50000000000E+03  0.50000000000E+03  0.00000000000E+00 0. -1.
        -11    1    1    2    0    0 -0.10019890215E+02 -0.94428402864E+01  0.47128898870E+03  0.47149005960E+03  0.00000000000E+00 0. -1.
         11    1    1    2    0    0 -0.16267329163E+02 -0.71521019123E+01 -0.48165871024E+03  0.48198640200E+03  0.00000000000E+00 0. -1.
        -15    1    1    2    0    0  0.25168596668E+02  0.44585257664E+01  0.18642376714E+02  0.31686474225E+02  0.17770000000E+01 0. -1.
         15    1    1    2    0    0  0.11186227101E+01  0.12136416432E+02 -0.82726551749E+01  0.14837064171E+02  0.17770000000E+01 0.  1.
</event>
<event>
 6    1  0.1823098E-004  0.5069776E+03  0.7546771E-02  0.9384331E-01
        -11   -1    0    0    0    0  0.00000000000E+00  0.00000000000E+00  0.50000000000E+03  0.50000000000E+03  0.00000000000E+00 0. -1.
         11   -1    0    0    0    0 -0.00000000000E+00 -0.00000000000E+00 -0.50000000000E+03  0.50000000000E+03  0.00000000000E+00 0.  1.
        -11    1    1    2    0    0 -0.74321178691E+01  0.14489773867E+02  0.49275340700E+03  0.49302242346E+03  0.00000000000E+00 0. -1.
         11    1    1    2    0    0  0.48085160209E+01 -0.25399735927E+02 -0.45125041213E+03  0.45199026854E+03  0.00000000000E+00 0.  1.
        -15    1    1    2    0    0  0.36740901095E+01 -0.92789787136E+00  0.52503345911E+01  0.67144377956E+01  0.17770000000E+01 0. -1.
         15    1    1    2    0    0 -0.10504882613E+01  0.11837859932E+02 -0.46753329460E+02  0.48272870206E+02  0.17770000000E+01 0.  1.
</event>
<event>
 6    1  0.1823098E-004  0.5049060E+03  0.7546771E-02  0.9388899E-01
        -11   -1    0    0    0    0  0.00000000000E+00  0.00000000000E+00  0.50000000000E+03  0.50000000000E+03  0.00000000000E+00 0.  1.
         11   -1    0    0    0    0 -0.00000000000E+00 -0.00000000000E+00 -0.50000000000E+03  0.50000000000E+03  0.00000000000E+00 0. -1.
        -11    1    1    2    0    0  0.80941900698E+01  0.74741490738E+01  0.40810215962E+03  0.40825084385E+03  0.00000000000E+00 0.  1.
         11    1    1    2    0    0  0.18952410951E+02 -0.35068158324E+01 -0.49471866649E+03  0.49509398160E+03  0.00000000000E+00 0. -1.
        -15    1    1    2    0    0 -0.25495618742E+02  0.35395017402E+01  0.30323605842E+02  0.39814990240E+02  0.17770000000E+01 0. -1.
         15    1    1    2    0    0 -0.15509822790E+01 -0.75068349815E+01  0.56292901026E+02  0.56840184310E+02  0.17770000000E+01 0.  1.
</event>
<event>
 6    1  0.1823098E-004  0.5091576E+03  0.7546771E-02  0.9379549E-01
        -11   -1    0    0    0    0  0.00000000000E+00  0.00000000000E+00  0.50000000000E+03  0.50000000000E+03  0.00000000000E+00 0. -1.
         11   -1    0    0    0    0 -0.00000000000E+00 -0.00000000000E+00 -0.50000000000E+03  0.50000000000E+03  0.00000000000E+00 0. -1.
        -11    1    1    2    0    0 -0.71869984936E+01  0.90837202928E+00  0.49078894283E+03  0.49084240291E+03  0.00000000000E+00 0. -1.
         11    1    1    2    0    0  0.51157557796E+02 -0.40383232353E+02 -0.24878973071E+03  0.25718520813E+03  0.00000000000E+00 0. -1.
        -15    1    1    2    0    0  0.59791687476E+01  0.10511862734E+02 -0.35497536716E+02  0.37543076046E+02  0.17770000000E+01 0.  1.
         15    1    1    2    0    0 -0.49949728050E+02  0.28962997589E+02 -0.20650167541E+03  0.21442931292E+03  0.17770000000E+01 0. -1.
</event>
<event>
 6    1  0.1823098E-004  0.5002835E+03  0.7546771E-02  0.9399176E-01
        -11   -1    0    0    0    0  0.00000000000E+00  0.00000000000E+00  0.50000000000E+03  0.50000000000E+03  0.00000000000E+00 0.  1.
         11   -1    0    0    0    0 -0.00000000000E+00 -0.00000000000E+00 -0.50000000000E+03  0.50000000000E+03  0.00000000000E+00 0.  1.
        -11    1    1    2    0    0 -0.75091326735E+01  0.80805893045E+01  0.49959474324E+03  0.49971651011E+03  0.00000000000E+00 0.  1.
         11    1    1    2    0    0  0.53309205455E+01  0.59271444622E+01 -0.11422457485E+03  0.11450241593E+03  0.00000000000E+00 0.  1.
        -15    1    1    2    0    0 -0.17491886233E+01  0.24469491994E+00 -0.91079957625E+02  0.91114411299E+02  0.17770000000E+01 0.  1.
         15    1    1    2    0    0  0.39274007513E+01 -0.14252428687E+02 -0.29429021077E+03  0.29466666266E+03  0.17770000000E+01 0.  1.
</event>
<event>
 6    1  0.1823098E-004  0.5080154E+03  0.7546771E-02  0.9382051E-01
        -11   -1    0    0    0    0  0.00000000000E+00  0.00000000000E+00  0.50000000000E+03  0.50000000000E+03  0.00000000000E+00 0.  1.
         11   -1    0    0    0    0 -0.00000000000E+00 -0.00000000000E+00 -0.50000000000E+03  0.50000000000E+03  0.00000000000E+00 0.  1.
        -11    1    1    2    0    0 -0.97787824223E+01  0.35855759150E+01  0.32414142327E+03  0.32430871592E+03  0.00000000000E+00 0.  1.
         11    1    1    2    0    0  0.64867123493E+02  0.19200533169E+01 -0.48768573216E+03  0.49198455633E+03  0.00000000000E+00 0.  1.
        -15    1    1    2    0    0  0.40085519926E+01  0.15674512023E+02  0.13848245724E+02  0.21370317145E+02  0.17770000000E+01 0. -1.
         15    1    1    2    0    0 -0.59096893063E+02 -0.21180141255E+02  0.14969606316E+03  0.16233641061E+03  0.17770000000E+01 0.  1.
</event>
<event>
 6    1  0.1823098E-004  0.5002231E+03  0.7546771E-02  0.9399311E-01
        -11   -1    0    0    0    0  0.00000000000E+00  0.00000000000E+00  0.50000000000E+03  0.50000000000E+03  0.00000000000E+00 0. -1.
         11   -1    0    0    0    0 -0.00000000000E+00 -0.00000000000E+00 -0.50000000000E+03  0.50000000000E+03  0.00000000000E+00 0. -1.
        -11    1    1    2    0    0  0.88850978641E+01  0.14576114002E+01  0.49969580704E+03  0.49977691941E+03  0.00000000000E+00 0. -1.
         11    1    1    2    0    0 -0.47475997114E+01  0.21671232530E+00 -0.27841658285E+02  0.28244372949E+02  0.00000000000E+00 0. -1.
        -15    1    1    2    0    0  0.14513576079E+01 -0.32917615497E+01 -0.10949216394E+03  0.10956565988E+03  0.17770000000E+01 0.  1.
         15    1    1    2    0    0 -0.55888557605E+01  0.16174378242E+01 -0.36236198482E+03  0.36241304776E+03  0.17770000000E+01 0. -1.
</event>
<event>
 6    1  0.1823098E-004  0.5031618E+03  0.7546771E-02  0.9392763E-01
        -11   -1    0    0    0    0  0.00000000000E+00  0.00000000000E+00  0.50000000000E+03  0.50000000000E+03  0.00000000000E+00 0. -1.
         11   -1    0    0    0    0 -0.00000000000E+00 -0.00000000000E+00 -0.50000000000E+03  0.50000000000E+03  0.00000000000E+00 0.  1.
        -11    1    1    2    0    0  0.48328026778E+01  0.86734678720E+01  0.49673893357E+03  0.49683815590E+03  0.00000000000E+00 0. -1.
         11    1    1    2    0    0 -0.13418709592E+02 -0.18589601633E+02 -0.39566862576E+02  0.45729330523E+02  0.00000000000E+00 0.  1.
        -15    1    1    2    0    0  0.82715338916E+01  0.10418713123E+02 -0.41842384887E+03  0.41863903651E+03  0.17770000000E+01 0.  1.
         15    1    1    2    0    0  0.31437302273E+00 -0.50257936175E+00 -0.38748222129E+02  0.38793477075E+02  0.17770000000E+01 0. -1.
</event>
<event>
 6    1  0.1823098E-004  0.5012749E+03  0.7546771E-02  0.9396962E-01
        -11   -1    0    0    0    0  0.00000000000E+00  0.00000000000E+00  0.50000000000E+03  0.50000000000E+03  0.00000000000E+00 0.  1.
         11   -1    0    0    0    0 -0.00000000000E+00 -0.00000000000E+00 -0.50000000000E+03  0.50000000000E+03  0.00000000000E+00 0. -1.
        -11    1    1    2    0    0  0.74204514480E+00 -0.12402895644E+02  0.49857031686E+03  0.49872511798E+03  0.00000000000E+00 0.  1.
         11    1    1    2    0    0  0.13597604347E+02 -0.15223084429E+01 -0.33923587706E+03  0.33951169723E+03  0.00000000000E+00 0. -1.
        -15    1    1    2    0    0 -0.12728393706E+02  0.30008133513E+01 -0.45349938070E+02  0.47231255532E+02  0.17770000000E+01 0.  1.
         15    1    1    2    0    0 -0.16112557850E+01  0.10924390736E+02 -0.11398450173E+03  0.11453192926E+03  0.17770000000E+01 0. -1.
</event>
<event>
 6    1  0.2667696E-004  0.5000934E+03  0.7546771E-02  0.9399601E-01
        -11   -1    0    0    0    0  0.00000000000E+00  0.00000000000E+00  0.50000000000E+03  0.50000000000E+03  0.00000000000E+00 0.  1.
         11   -1    0    0    0    0 -0.00000000000E+00 -0.00000000000E+00 -0.50000000000E+03  0.50000000000E+03  0.00000000000E+00 0. -1.
        -11    1    1    2    0    0  0.63891463759E+00 -0.13219076828E+01  0.10209408115E+03  0.10210463779E+03  0.00000000000E+00 0.  1.
         11    1    1    2    0    0  0.12426891388E+02 -0.11795839734E+00 -0.49975210134E+03  0.49990659561E+03  0.00000000000E+00 0. -1.
        -15    1    1    2    0    0 -0.39000701091E+01 -0.89138873711E+00  0.48227020242E+02  0.48425286072E+02  0.17770000000E+01 0.  1.
         15    1    1    2    0    0 -0.91657359161E+01  0.23312548173E+01  0.34943099995E+03  0.34956348052E+03  0.17770000000E+01 0. -1.
</event>
<event>
 6    1  0.1823098E-004  0.5039502E+03  0.7546771E-02  0.9391014E-01
        -11   -1    0    0    0    0  0.00000000000E+00  0.00000000000E+00  0.50000000000E+03  0.50000000000E+03  0.00000000000E+00 0. -1.
         11   -1    0    0    0    0 -0.00000000000E+00 -0.00000000000E+00 -0.50000000000E+03  0.50000000000E+03  0.00000000000E+00 0.  1.
        -11    1    1    2    0    0  0.37860301864E+01 -0.11130703198E+02  0.49591048956E+03  0.49604983644E+03  0.00000000000E+00 0. -1.
         11    1    1    2    0    0 -0.13847919426E+00  0.19290608996E+02 -0.48111238582E+03  0.48149898708E+03  0.00000000000E+00 0.  1.
        -15    1    1    2    0    0  0.10126245454E+01  0.15417778110E+00  0.21213346492E+01  0.29507573523E+01  0.17770000000E+01 0. -1.
         15    1    1    2    0    0 -0.46601755376E+01 -0.83140835790E+01 -0.16919438389E+02  0.19500419129E+02  0.17770000000E+01 0.  1.
</event>
<event>
 6    1  0.1823098E-004  0.5001625E+03  0.7546771E-02  0.9399446E-01
        -11   -1    0    0    0    0  0.00000000000E+00  0.00000000000E+00  0.50000000000E+03  0.50000000000E+03  0.00000000000E+00 0.  1.
         11   -1    0    0    0    0 -0.00000000000E+00 -0.00000000000E+00 -0.50000000000E+03  0.50000000000E+03  0.00000000000E+00 0.  1.
        -11    1    1    2    0    0  0.35945436854E+01  0.64219234056E+01  0.49978330233E+03  0.49983748472E+03  0.00000000000E+00 0.  1.
         11    1    1    2    0    0 -0.88454009460E+01 -0.85785782039E+01 -0.34218043413E+03  0.34240222345E+03  0.00000000000E+00 0.  1.
        -15    1    1    2    0    0  0.36296297872E+01  0.14691957046E+01 -0.11812039127E+03  0.11819863498E+03  0.17770000000E+01 0.  1.
         15    1    1    2    0    0  0.16212274734E+01  0.68745909375E+00 -0.39482476928E+02  0.39561656840E+02  0.17770000000E+01 0.  1.
</event>
<event>
 6    1  0.1823098E-004  0.5143913E+03  0.7546771E-02  0.9368172E-01
        -11   -1    0    0    0    0  0.00000000000E+00  0.00000000000E+00  0.50000000000E+03  0.50000000000E+03  0.00000000000E+00 0.  1.
         11   -1    0    0    0    0 -0.00000000000E+00 -0.00000000000E+00 -0.50000000000E+03  0.50000000000E+03  0.00000000000E+00 0. -1.
        -11    1    1    2    0    0  0.65016003762E+01  0.82989998906E+02  0.47842050125E+03  0.48560867655E+03  0.00000000000E+00 0.  1.
         11    1    1    2    0    0 -0.39053324742E+02 -0.36838367490E+02 -0.32937768861E+02  0.62985110227E+02  0.00000000000E+00 0. -1.
        -15    1    1    2    0    0 -0.40933426176E+01  0.64555209066E+01 -0.30348778003E+02  0.31347013561E+02  0.17770000000E+01 0.  1.
         15    1    1    2    0    0  0.36645066983E+02 -0.52607152322E+02 -0.41513395438E+03  0.42005919966E+03  0.17770000000E+01 0. -1.
</event>
<event>
 6    1  0.1823098E-004  0.4983290E+03  0.7546771E-02  0.9403557E-01
        -11   -1    0    0    0    0  0.00000000000E+00  0.00000000000E+00  0.50000000000E+03  0.50000000000E+03  0.00000000000E+00 0.  1.
         11   -1    0    0    0    0 -0.00000000000E+00 -0.00000000000E+00 -0.50000000000E+03  0.50000000000E+03  0.00000000000E+00 0.  1.
        -11    1    1    2    0    0 -0.81597053984E+00  0.97776743931E+01  0.49856742508E+03  0.49866396107E+03  0.00000000000E+00 0.  1.
         11    1    1    2    0    0 -0.32683233844E+01  0.67328710025E+00 -0.97493564921E+00  0.34764569297E+01  0.00000000000E+00 0.  1.
        -15    1    1    2    0    0  0.77766701476E+01 -0.47534859162E+01 -0.27980383223E+03  0.27995787984E+03  0.17770000000E+01 0.  1.
         15    1    1    2    0    0 -0.36923762234E+01 -0.56974755771E+01 -0.21778865720E+03  0.21790170216E+03  0.17770000000E+01 0. -1.
</event>
<event>
 6    1  0.1823098E-004  0.4815004E+03  0.7546771E-02  0.9442183E-01
        -11   -1    0    0    0    0  0.00000000000E+00  0.00000000000E+00  0.50000000000E+03  0.50000000000E+03  0.00000000000E+00 0. -1.
         11   -1    0    0    0    0 -0.00000000000E+00 -0.00000000000E+00 -0.50000000000E+03  0.50000000000E+03  0.00000000000E+00 0. -1.
        -11    1    1    2    0    0 -0.14074762976E+01 -0.79716073913E+01  0.48936576367E+03  0.48943271056E+03  0.00000000000E+00 0. -1.
         11    1    1    2    0    0  0.24445310166E+02 -0.76923489987E+01 -0.47341003546E+03  0.47410316082E+03  0.00000000000E+00 0. -1.
        -15    1    1    2    0    0  0.85095292158E-01  0.78347807910E+01 -0.19659190911E+01  0.82712513034E+01  0.17770000000E+01 0. -1.
         15    1    1    2    0    0 -0.23122929161E+02  0.78291755991E+01 -0.13989809114E+02  0.28192877320E+02  0.17770000000E+01 0.  1.
</event>
<event>
 6    1  0.1823098E-004  0.5088032E+03  0.7546771E-02  0.9380325E-01
        -11   -1    0    0    0    0  0.00000000000E+00  0.00000000000E+00  0.50000000000E+03  0.50000000000E+03  0.00000000000E+00 0.  1.
         11   -1    0    0    0    0 -0.00000000000E+00 -0.00000000000E+00 -0.50000000000E+03  0.50000000000E+03  0.00000000000E+00 0.  1.
        -11    1    1    2    0    0  0.57204031613E+01  0.36130392874E+01  0.46990476782E+03  0.46995347417E+03  0.00000000000E+00 0.  1.
         11    1    1    2    0    0  0.44127406984E+01 -0.34099601658E+02 -0.48999192290E+03  0.49119684406E+03  0.00000000000E+00 0.  1.
        -15    1    1    2    0    0 -0.12394965114E+01  0.13589658234E+02  0.57904839143E+01  0.14929922823E+02  0.17770000000E+01 0. -1.
         15    1    1    2    0    0 -0.88936473483E+01  0.16896904137E+02  0.14296671159E+02  0.23919758941E+02  0.17770000000E+01 0.  1.
</event>
<event>
 6    1  0.1823098E-004  0.5057696E+03  0.7546771E-02  0.9386992E-01
        -11   -1    0    0    0    0  0.00000000000E+00  0.00000000000E+00  0.50000000000E+03  0.50000000000E+03  0.00000000000E+00 0.  1.
         11   -1    0    0    0    0 -0.00000000000E+00 -0.00000000000E+00 -0.50000000000E+03  0.50000000000E+03  0.00000000000E+00 0.  1.
        -11    1    1    2    0    0 -0.35404673504E+01 -0.63428525587E+01  0.49417706314E+03  0.49423044870E+03  0.00000000000E+00 0.  1.
         11    1    1    2    0    0  0.77629926788E+01  0.66161765193E+01 -0.48850784244E+03  0.48861431618E+03  0.00000000000E+00 0.  1.
        -15    1    1    2    0    0 -0.14257889704E+01  0.73292126020E+01 -0.41456041169E+01  0.87231871496E+01  0.17770000000E+01 0.  1.
         15    1    1    2    0    0 -0.27967363580E+01 -0.76025365626E+01 -0.15236165858E+01  0.84320479684E+01  0.17770000000E+01 0. -1.
</event>
<event>
 6    1  0.1823098E-004  0.5023563E+03  0.7546771E-02  0.9394553E-01
        -11   -1    0    0    0    0  0.00000000000E+00  0.00000000000E+00  0.50000000000E+03  0.50000000000E+03  0.00000000000E+00 0.  1.
         11   -1    0    0    0    0 -0.00000000000E+00 -0.00000000000E+00 -0.50000000000E+03  0.50000000000E+03  0.00000000000E+00 0.  1.
        -11    1    1    2    0    0 -0.57354713711E+01 -0.14537360984E+02  0.49739822680E+03  0.49764367425E+03  0.00000000000E+00 0.  1.
         11    1    1    2    0    0  0.12954841370E+02 -0.53066548208E+01 -0.42937526133E+03  0.42960342590E+03  0.00000000000E+00 0.  1.
        -15    1    1    2    0    0 -0.79056183201E+01  0.12632544037E+02 -0.59784901695E+02  0.61639858611E+02  0.17770000000E+01 0.  1.
         15    1    1    2    0    0  0.68624832123E+00  0.72114717673E+01 -0.82380637735E+01  0.11113041237E+02  0.17770000000E+01 0. -1.
</event>
<event>
 6    1  0.1823098E-004  0.5137625E+03  0.7546771E-02  0.9369531E-01
        -11   -1    0    0    0    0  0.00000000000E+00  0.00000000000E+00  0.50000000000E+03  0.50000000000E+03  0.00000000000E+00 0.  1.
         11   -1    0    0    0    0 -0.00000000000E+00 -0.00000000000E+00 -0.50000000000E+03  0.50000000000E+03  0.00000000000E+00 0. -1.
        -11    1    1    2    0    0  0.25551629618E+02 -0.22792410166E+02  0.48503045616E+03  0.48623751721E+03  0.00000000000E+00 0.  1.
         11    1    1    2    0    0 -0.50461642748E+02  0.50496416669E+02 -0.33050225533E+03  0.33812424679E+03  0.00000000000E+00 0. -1.
        -15    1    1    2    0    0  0.24601220297E+02 -0.43536010136E+02 -0.15132740961E+03  0.15938552898E+03  0.17770000000E+01 0.  1.
         15    1    1    2    0    0  0.30879283332E+00  0.15832003633E+02 -0.32007912158E+01  0.16252707020E+02  0.17770000000E+01 0. -1.
</event>
<event>
 6    1  0.1823098E-004  0.5007368E+03  0.7546771E-02  0.9398162E-01
        -11   -1    0    0    0    0  0.00000000000E+00  0.00000000000E+00  0.50000000000E+03  0.50000000000E+03  0.00000000000E+00 0.  1.
         11   -1    0    0    0    0 -0.00000000000E+00 -0.00000000000E+00 -0.50000000000E+03  0.50000000000E+03  0.00000000000E+00 0.  1.
        -11    1    1    2    0    0  0.41536444770E+01  0.27376119253E+01  0.35040420327E+03  0.35043951397E+03  0.00000000000E+00 0.  1.
         11    1    1    2    0    0 -0.17388486648E+02 -0.66854222636E+01 -0.49891547078E+03  0.49926315839E+03  0.00000000000E+00 0.  1.
        -15    1    1    2    0    0  0.14897911041E+01 -0.61452762781E+01  0.66045813481E+02  0.66371613702E+02  0.17770000000E+01 0. -1.
         15    1    1    2    0    0  0.11745051067E+02  0.10093086616E+02  0.82465454030E+02  0.83925713934E+02  0.17770000000E+01 0.  1.
</event>
<event>
 6    1  0.1823098E-004  0.5023531E+03  0.7546771E-02  0.9394560E-01
        -11   -1    0    0    0    0  0.00000000000E+00  0.00000000000E+00  0.50000000000E+03  0.50000000000E+03  0.00000000000E+00 0. -1.
         11   -1    0    0    0    0 -0.00000000000E+00 -0.00000000000E+00 -0.50000000000E+03  0.50000000000E+03  0.00000000000E+00 0.  1.
        -11    1    1    2    0    0  0.21860777247E+01  0.74317073614E+01  0.43769328186E+03  0.43776182817E+03  0.00000000000E+00 0. -1.
         11    1    1    2    0    0 -0.24348656580E+02  0.11477307174E+01 -0.49704958559E+03  0.49764692795E+03  0.00000000000E+00 0.  1.
        -15    1    1    2    0    0  0.18331429397E+02 -0.34135308526E+01  0.41594115263E+02  0.45617120143E+02  0.17770000000E+01 0. -1.
         15    1    1    2    0    0  0.38311494584E+01 -0.51659072262E+01  0.17762188463E+02  0.18974123739E+02  0.17770000000E+01 0.  1.
</event>
<event>
 6    1  0.1823098E-004  0.4732471E+03  0.7546771E-02  0.9461745E-01
        -11   -1    0    0    0    0  0.00000000000E+00  0.00000000000E+00  0.50000000000E+03  0.50000000000E+03  0.00000000000E+00 0. -1.
         11   -1    0    0    0    0 -0.00000000000E+00 -0.00000000000E+00 -0.50000000000E+03  0.50000000000E+03  0.00000000000E+00 0. -1.
        -11    1    1    2    0    0  0.10849898752E+02  0.28458368077E+01  0.47517086425E+03  0.47530323933E+03  0.00000000000E+00 0. -1.
         11    1    1    2    0    0 -0.25664902840E+02 -0.21953172096E+02 -0.47030105215E+03  0.47151215112E+03  0.00000000000E+00 0. -1.
        -15    1    1    2    0    0  0.28994479949E+02  0.95921526852E+01 -0.14108544306E+02  0.33688247388E+02  0.17770000000E+01 0.  1.
         15    1    1    2    0    0 -0.14179475860E+02  0.95151826035E+01  0.92387322048E+01  0.19496362158E+02  0.17770000000E+01 0. -1.
</event>
<event>
 6    1  0.2068900E-004  0.5004725E+03  0.7546771E-02  0.9398753E-01
        -11   -1    0    0    0    0  0.00000000000E+00  0.00000000000E+00  0.50000000000E+03  0.50000000000E+03  0.00000000000E+00 0. -1.
         11   -1    0    0    0    0 -0.00000000000E+00 -0.00000000000E+00 -0.50000000000E+03  0.50000000000E+03  0.00000000000E+00 0.  1.
        -11    1    1    2    0    0  0.13404176441E+02 -0.47435205388E+02  0.35008797527E+03  0.35354117311E+03  0.00000000000E+00 0. -1.
         11    1    1    2    0    0 -0.14792544367E+02  0.49047809916E+02 -0.49689352368E+03  0.49952745761E+03  0.00000000000E+00 0.  1.
        -15    1    1    2    0    0 -0.14488998702E+01 -0.10171453505E+01  0.80032665402E+02  0.80071962358E+02  0.17770000000E+01 0.  1.
         15    1    1    2    0    0  0.28372677965E+01 -0.59545917727E+00  0.66772883007E+02  0.66859406924E+02  0.17770000000E+01 0.  1.
</event>
<event>
 6    1  0.1823098E-004  0.5091349E+03  0.7546771E-02  0.9379598E-01
        -11   -1    0    0    0    0  0.00000000000E+00  0.00000000000E+00  0.50000000000E+03  0.50000000000E+03  0.00000000000E+00 0. -1.
         11   -1    0    0    0    0 -0.00000000000E+00 -0.00000000000E+00 -0.50000000000E+03  0.50000000000E+03  0.00000000000E+00 0. -1.
        -11    1    1    2    0    0  0.54306868799E+01  0.10168272382E+02  0.49072970861E+03  0.49086508639E+03  0.00000000000E+00 0. -1.
         11    1    1    2    0    0  0.22006703240E+00 -0.15310604777E+02 -0.48416290539E+03  0.48440497727E+03  0.00000000000E+00 0. -1.
        -15    1    1    2    0    0  0.19190862015E+01  0.96857940558E+01 -0.10832725443E+02  0.14764930337E+02  0.17770000000E+01 0.  1.
         15    1    1    2    0    0 -0.75698401137E+01 -0.45434616606E+01  0.42659222190E+01  0.99650060004E+01  0.17770000000E+01 0. -1.
</event>
<event>
 6    1  0.1823098E-004  0.5011191E+03  0.7546771E-02  0.9397309E-01
        -11   -1    0    0    0    0  0.00000000000E+00  0.00000000000E+00  0.50000000000E+03  0.50000000000E+03  0.00000000000E+00 0. -1.
         11   -1    0    0    0    0 -0.00000000000E+00 -0.00000000000E+00 -0.50000000000E+03  0.50000000000E+03  0.00000000000E+00 0.  1.
        -11    1    1    2    0    0 -0.80588819229E+01  0.79855611934E+01  0.44541290045E+03  0.44555736629E+03  0.00000000000E+00 0. -1.
         11    1    1    2    0    0  0.12908518968E+02  0.27610337237E+01 -0.49870620344E+03  0.49888087808E+03  0.00000000000E+00 0.  1.
        -15    1    1    2    0    0 -0.53401358061E+01 -0.42988109393E+01  0.40528326594E+02  0.41142433222E+02  0.17770000000E+01 0. -1.
         15    1    1    2    0    0  0.49049876097E+00 -0.64477839778E+01  0.12764976397E+02  0.14419322407E+02  0.17770000000E+01 0.  1.
</event>
<event>
 6    1  0.1823098E-004  0.4860692E+03  0.7546771E-02  0.9431532E-01
        -11   -1    0    0    0    0  0.00000000000E+00  0.00000000000E+00  0.50000000000E+03  0.50000000000E+03  0.00000000000E+00 0.  1.
         11   -1    0    0    0    0 -0.00000000000E+00 -0.00000000000E+00 -0.50000000000E+03  0.50000000000E+03  0.00000000000E+00 0. -1.
        -11    1    1    2    0    0  0.78585735173E+01  0.33103464747E+01  0.48092957216E+03  0.48100516520E+03  0.00000000000E+00 0.  1.
         11    1    1    2    0    0 -0.64951319892E+01  0.16854701913E+02 -0.49106393181E+03  0.49139602444E+03  0.00000000000E+00 0. -1.
        -15    1    1    2    0    0 -0.62151362772E+01 -0.66602591909E+01  0.92633543666E+01  0.13113139767E+02  0.17770000000E+01 0. -1.
         15    1    1    2    0    0  0.48516947491E+01 -0.13504789197E+02  0.87100528002E+00  0.14485670588E+02  0.17770000000E+01 0.  1.
</event>
<event>
 6    1  0.1823098E-004  0.5052280E+03  0.7546771E-02  0.9388187E-01
        -11   -1    0    0    0    0  0.00000000000E+00  0.00000000000E+00  0.50000000000E+03  0.50000000000E+03  0.00000000000E+00 0.  1.
         11   -1    0    0    0    0 -0.00000000000E+00 -0.00000000000E+00 -0.50000000000E+03  0.50000000000E+03  0.00000000000E+00 0. -1.
        -11    1    1    2    0    0 -0.52637812237E+01  0.77969959172E+01  0.49468259742E+03  0.49477204117E+03  0.00000000000E+00 0.  1.
         11    1    1    2    0    0  0.71292939936E+01 -0.24936902941E+01 -0.48656265289E+03  0.48662127010E+03  0.00000000000E+00 0. -1.
        -15    1    1    2    0    0  0.62000233934E+01 -0.37739869919E+01 -0.68013973985E+01  0.10104454635E+02  0.17770000000E+01 0.  1.
         15    1    1    2    0    0 -0.80655361633E+01 -0.15293186312E+01 -0.13185471289E+01  0.85022340951E+01  0.17770000000E+01 0. -1.
</event>
<event>
 6    1  0.1823098E-004  0.5058469E+03  0.7546771E-02  0.9386821E-01
        -11   -1    0    0    0    0  0.00000000000E+00  0.00000000000E+00  0.50000000000E+03  0.50000000000E+03  0.00000000000E+00 0.  1.
         11   -1    0    0    0    0 -0.00000000000E+00 -0.00000000000E+00 -0.50000000000E+03  0.50000000000E+03  0.00000000000E+00 0. -1.
        -11    1    1    2    0    0  0.16952258298E+02  0.15317060031E+02  0.49362462459E+03  0.49415307485E+03  0.00000000000E+00 0.  1.
         11    1    1    2    0    0 -0.52917603503E+01 -0.27415866127E+02 -0.40045916515E+02  0.48819134288E+02  0.00000000000E+00 0. -1.
        -15    1    1    2    0    0  0.48303402363E+01  0.29718047774E+02 -0.19491086531E+03  0.19723056988E+03  0.17770000000E+01 0. -1.
         15    1    1    2    0    0 -0.16490838184E+02 -0.17619241678E+02 -0.25866784276E+03  0.25979722098E+03  0.17770000000E+01 0.  1.
</event>
<event>
 6    1  0.1823098E-004  0.4907171E+03  0.7546771E-02  0.9420824E-01
        -11   -1    0    0    0    0  0.00000000000E+00  0.00000000000E+00  0.50000000000E+03  0.50000000000E+03  0.00000000000E+00 0.  1.
         11   -1    0    0    0    0 -0.00000000000E+00 -0.00000000000E+00 -0.50000000000E+03  0.50000000000E+03  0.00000000000E+00 0.  1.
        -11    1    1    2    0    0 -0.96281801687E+01 -0.78168616914E+00  0.49357943020E+03  0.49367394787E+03  0.00000000000E+00 0.  1.
         11    1    1    2    0    0  0.27204738081E+00 -0.10145250138E+02 -0.48777729846E+03  0.48788286812E+03  0.00000000000E+00 0.  1.
        -15    1    1    2    0    0  0.35514125945E+01  0.68602341966E+01  0.15508767065E+01  0.80770224840E+01  0.17770000000E+01 0.  1.
         15    1    1    2    0    0  0.58047201934E+01  0.40667021104E+01 -0.73530084522E+01  0.10366161531E+02  0.17770000000E+01 0. -1.
</event>
<event>
 6    1  0.1823098E-004  0.5004073E+03  0.7546771E-02  0.9398899E-01
        -11   -1    0    0    0    0  0.00000000000E+00  0.00000000000E+00  0.50000000000E+03  0.50000000000E+03  0.00000000000E+00 0.  1.
         11   -1    0    0    0    0 -0.00000000000E+00 -0.00000000000E+00 -0.50000000000E+03  0.50000000000E+03  0.00000000000E+00 0. -1.
        -11    1    1    2    0    0 -0.16789247035E+01 -0.17261750868E+02  0.49929158358E+03  0.49959270638E+03  0.00000000000E+00 0.  1.
         11    1    1    2    0    0 -0.23685699076E+01  0.13637994926E+02 -0.11288325818E+03  0.11372877827E+03  0.00000000000E+00 0. -1.
        -15    1    1    2    0    0 -0.11943221798E+01  0.45820507488E+01 -0.31791951634E+03  0.31795974304E+03  0.17770000000E+01 0.  1.
         15    1    1    2    0    0  0.52418167909E+01 -0.95829480614E+00 -0.68488809061E+02  0.68718772310E+02  0.17770000000E+01 0. -1.
</event>
<event>
 6    1  0.1823098E-004  0.5010674E+03  0.7546771E-02  0.9397425E-01
        -11   -1    0    0    0    0  0.00000000000E+00  0.00000000000E+00  0.50000000000E+03  0.50000000000E+03  0.00000000000E+00 0. -1.
         11   -1    0    0    0    0 -0.00000000000E+00 -0.00000000000E+00 -0.50000000000E+03  0.50000000000E+03  0.00000000000E+00 0. -1.
        -11    1    1    2    0    0 -0.43375217740E+01  0.62050307477E+01  0.49887518771E+03  0.49893263013E+03  0.00000000000E+00 0. -1.
         11    1    1    2    0    0  0.76001269125E+01  0.47255081334E+01 -0.45864531911E+03  0.45873262485E+03  0.00000000000E+00 0. -1.
        -15    1    1    2    0    0  0.71712594233E+00 -0.14627772114E+01 -0.12057901190E+02  0.12296531906E+02  0.17770000000E+01 0. -1.
         15    1    1    2    0    0 -0.39797310808E+01 -0.94677616697E+01 -0.28171967405E+02  0.30038213112E+02  0.17770000000E+01 0.  1.
</event>
<event>
 6    1  0.1823098E-004  0.5001054E+03  0.7546771E-02  0.9399574E-01
        -11   -1    0    0    0    0  0.00000000000E+00  0.00000000000E+00  0.50000000000E+03  0.50000000000E+03  0.00000000000E+00 0. -1.
         11   -1    0    0    0    0 -0.00000000000E+00 -0.00000000000E+00 -0.50000000000E+03  0.50000000000E+03  0.00000000000E+00 0. -1.
        -11    1    1    2    0    0 -0.79330509366E-01  0.75276829148E+01  0.49983788569E+03  0.49989457316E+03  0.00000000000E+00 0. -1.
         11    1    1    2    0    0 -0.36674971595E+01  0.42294276272E+00 -0.81163953178E+02  0.81247872043E+02  0.00000000000E+00 0. -1.
        -15    1    1    2    0    0 -0.15867073434E+01 -0.24964499824E+01 -0.60749704336E+02  0.60847631085E+02  0.17770000000E+01 0.  1.
         15    1    1    2    0    0  0.53335350122E+01 -0.54541756950E+01 -0.35792422818E+03  0.35800992371E+03  0.17770000000E+01 0. -1.
</event>
<event>
 6    1  0.1823098E-004  0.4894661E+03  0.7546771E-02  0.9423694E-01
        -11   -1    0    0    0    0  0.00000000000E+00  0.00000000000E+00  0.50000000000E+03  0.50000000000E+03  0.00000000000E+00 0.  1.
         11   -1    0    0    0    0 -0.00000000000E+00 -0.00000000000E+00 -0.50000000000E+03  0.50000000000E+03  0.00000000000E+00 0.  1.
        -11    1    1    2    0    0 -0.25986366948E+01  0.65366203513E+01  0.49912617316E+03  0.49917573765E+03  0.00000000000E+00 0.  1.
         11    1    1    2    0    0  0.46934892535E+01 -0.51148316944E+01 -0.20195816877E+02  0.21355593271E+02  0.00000000000E+00 0.  1.
        -15    1    1    2    0    0 -0.12104622422E+02 -0.21647050991E+01 -0.24096855959E+03  0.24128864928E+03  0.17770000000E+01 0. -1.
         15    1    1    2    0    0  0.10009769863E+02  0.74291644222E+00 -0.23796179669E+03  0.23818001980E+03  0.17770000000E+01 0.  1.
</event>
<event>
 6    1  0.1823098E-004  0.5002358E+03  0.7546771E-02  0.9399282E-01
        -11   -1    0    0    0    0  0.00000000000E+00  0.00000000000E+00  0.50000000000E+03  0.50000000000E+03  0.00000000000E+00 0. -1.
         11   -1    0    0    0    0 -0.00000000000E+00 -0.00000000000E+00 -0.50000000000E+03  0.50000000000E+03  0.00000000000E+00 0. -1.
        -11    1    1    2    0    0 -0.66498586489E+01 -0.26283025056E+01  0.37783897569E+03  0.37790662887E+03  0.00000000000E+00 0. -1.
         11    1    1    2    0    0  0.66945730287E+01  0.54033053542E+01 -0.49969014188E+03  0.49976419530E+03  0.00000000000E+00 0. -1.
        -15    1    1    2    0    0  0.38056618129E+01 -0.28061969460E+01  0.95972705499E+02  0.96105544756E+02  0.17770000000E+01 0. -1.
         15    1    1    2    0    0 -0.38503761927E+01  0.31194097497E-01  0.25878460688E+02  0.26223631070E+02  0.17770000000E+01 0.  1.
</event>
<event>
 6    1  0.1823098E-004  0.5040598E+03  0.7546771E-02  0.9390771E-01
        -11   -1    0    0    0    0  0.00000000000E+00  0.00000000000E+00  0.50000000000E+03  0.50000000000E+03  0.00000000000E+00 0.  1.
         11   -1    0    0    0    0 -0.00000000000E+00 -0.00000000000E+00 -0.50000000000E+03  0.50000000000E+03  0.00000000000E+00 0.  1.
        -11    1    1    2    0    0  0.46605813614E+01  0.85836195132E+01  0.46696172111E+03  0.46706385915E+03  0.00000000000E+00 0.  1.
         11    1    1    2    0    0  0.13936370113E+02 -0.40300230464E+01 -0.49572798731E+03  0.49594021907E+03  0.00000000000E+00 0.  1.
        -15    1    1    2    0    0 -0.33619766014E+01  0.22546177144E+01  0.13867689084E+02  0.14555298597E+02  0.17770000000E+01 0. -1.
         15    1    1    2    0    0 -0.15234974873E+02 -0.68082141812E+01  0.14898577116E+02  0.22440623182E+02  0.17770000000E+01 0.  1.
</event>
<event>
 6    1  0.1823098E-004  0.5009976E+03  0.7546771E-02  0.9397580E-01
        -11   -1    0    0    0    0  0.00000000000E+00  0.00000000000E+00  0.50000000000E+03  0.50000000000E+03  0.00000000000E+00 0. -1.
         11   -1    0    0    0    0 -0.00000000000E+00 -0.00000000000E+00 -0.50000000000E+03  0.50000000000E+03  0.00000000000E+00 0.  1.
        -11    1    1    2    0    0  0.16752634132E+01  0.52614448572E+01  0.40125385318E+03  0.40129184393E+03  0.00000000000E+00 0. -1.
         11    1    1    2    0    0 -0.16080302346E+01 -0.81345492335E+01 -0.49893347844E+03  0.49900237731E+03  0.00000000000E+00 0.  1.
        -15    1    1    2    0    0  0.48262170193E+01  0.97668018348E+01  0.45766443993E+02  0.47078741631E+02  0.17770000000E+01 0. -1.
         15    1    1    2    0    0 -0.48934501978E+01 -0.68936974585E+01  0.51913181262E+02  0.52627037131E+02  0.17770000000E+01 0.  1.
</event>
<event>
 6    1  0.1823098E-004  0.5016922E+03  0.7546771E-02  0.9396031E-01
        -11   -1    0    0    0    0  0.00000000000E+00  0.00000000000E+00  0.50000000000E+03  0.50000000000E+03  0.00000000000E+00 0.  1.
         11   -1    0    0    0    0 -0.00000000000E+00 -0.00000000000E+00 -0.50000000000E+03  0.50000000000E+03  0.00000000000E+00 0.  1.
        -11    1    1    2    0    0 -0.50917048264E+02  0.19745419989E+02  0.49530621170E+03  0.49830780725E+03  0.00000000000E+00 0.  1.
         11    1    1    2    0    0  0.61399523464E+02 -0.77609264721E+01 -0.41798837374E+03  0.42254516214E+03  0.00000000000E+00 0.  1.
        -15    1    1    2    0    0 -0.82563019579E+01 -0.65843090843E+01 -0.53318780410E+02  0.54383542745E+02  0.17770000000E+01 0.  1.
         15    1    1    2    0    0 -0.22261732418E+01 -0.54001844321E+01 -0.23999057548E+02  0.24763487868E+02  0.17770000000E+01 0.  1.
</event>
<event>
 6    1  0.1872509E-004  0.5001711E+03  0.7546771E-02  0.9399427E-01
        -11   -1    0    0    0    0  0.00000000000E+00  0.00000000000E+00  0.50000000000E+03  0.50000000000E+03  0.00000000000E+00 0.  1.
         11   -1    0    0    0    0 -0.00000000000E+00 -0.00000000000E+00 -0.50000000000E+03  0.50000000000E+03  0.00000000000E+00 0.  1.
        -11    1    1    2    0    0 -0.15197410844E+01  0.28255296491E+01  0.21636340211E+03  0.21638718771E+03  0.00000000000E+00 0.  1.
         11    1    1    2    0    0 -0.10134813160E+02 -0.27467195148E+01 -0.49971863559E+03  0.49982894440E+03  0.00000000000E+00 0.  1.
        -15    1    1    2    0    0  0.74082540972E+01  0.26923180912E+00  0.24937678578E+03  0.24949327392E+03  0.17770000000E+01 0.  1.
         15    1    1    2    0    0  0.42463001470E+01 -0.34804194338E+00  0.33978447691E+02  0.34290593967E+02  0.17770000000E+01 0. -1.
</event>
<event>
 6    1  0.1823098E-004  0.5006960E+03  0.7546771E-02  0.9398254E-01
        -11   -1    0    0    0    0  0.00000000000E+00  0.00000000000E+00  0.50000000000E+03  0.50000000000E+03  0.00000000000E+00 0.  1.
         11   -1    0    0    0    0 -0.00000000000E+00 -0.00000000000E+00 -0.50000000000E+03  0.50000000000E+03  0.00000000000E+00 0.  1.
        -11    1    1    2    0    0  0.57143914597E+01  0.13619750298E+02  0.49908549364E+03  0.49930399741E+03  0.00000000000E+00 0.  1.
         11    1    1    2    0    0  0.12216482572E+02 -0.87984162248E+01 -0.26974674594E+03  0.27016654404E+03  0.00000000000E+00 0.  1.
        -15    1    1    2    0    0 -0.16399634730E+02  0.13759281741E+01 -0.14854359389E+03  0.14946303293E+03  0.17770000000E+01 0.  1.
         15    1    1    2    0    0 -0.15312393016E+01 -0.61972622476E+01 -0.80795153819E+02  0.81066425620E+02  0.17770000000E+01 0. -1.
</event>
<event>
 6    1  0.1823098E-004  0.5026289E+03  0.7546771E-02  0.9393947E-01
        -11   -1    0    0    0    0  0.00000000000E+00  0.00000000000E+00  0.50000000000E+03  0.50000000000E+03  0.00000000000E+00 0.  1.
         11   -1    0    0    0    0 -0.00000000000E+00 -0.00000000000E+00 -0.50000000000E+03  0.50000000000E+03  0.00000000000E+00 0.  1.
        -11    1    1    2    0    0 -0.11121746829E+02  0.22567096159E+01  0.49724164748E+03  0.49737113103E+03  0.00000000000E+00 0.  1.
         11    1    1    2    0    0  0.17905806205E+02  0.20281570652E+02 -0.77857113654E+02  0.82423844550E+02  0.00000000000E+00 0.  1.
        -15    1    1    2    0    0 -0.30553955964E+01 -0.10493773366E+01 -0.10224700200E+03  0.10231345846E+03  0.17770000000E+01 0. -1.
         15    1    1    2    0    0 -0.37286637788E+01 -0.21488902931E+02 -0.31713753183E+03  0.31789156596E+03  0.17770000000E+01 0.  1.
</event>
<event>
 6    1  0.1823098E-004  0.5000533E+03  0.7546771E-02  0.9399690E-01
        -11   -1    0    0    0    0  0.00000000000E+00  0.00000000000E+00  0.50000000000E+03  0.50000000000E+03  0.00000000000E+00 0. -1.
         11   -1    0    0    0    0 -0.00000000000E+00 -0.00000000000E+00 -0.50000000000E+03  0.50000000000E+03  0.00000000000E+00 0. -1.
        -11    1    1    2    0    0  0.10116940462E+01  0.11114888101E+02  0.49982206647E+03  0.49994665954E+03  0.00000000000E+00 0. -1.
         11    1    1    2    0    0 -0.28787320687E-01 -0.85644926225E+01 -0.23916268317E+03  0.23931598439E+03  0.00000000000E+00 0. -1.
        -15    1    1    2    0    0 -0.21283764565E+01 -0.10570539167E+01 -0.20093483790E+03  0.20095674698E+03  0.17770000000E+01 0. -1.
         15    1    1    2    0    0  0.11454697310E+01 -0.14933415618E+01 -0.59724545400E+02  0.59780609082E+02  0.17770000000E+01 0.  1.
</event>
<event>
 6    1  0.1823098E-004  0.5022512E+03  0.7546771E-02  0.9394786E-01
        -11   -1    0    0    0    0  0.00000000000E+00  0.00000000000E+00  0.50000000000E+03  0.50000000000E+03  0.00000000000E+00 0. -1.
         11   -1    0    0    0    0 -0.00000000000E+00 -0.00000000000E+00 -0.50000000000E+03  0.50000000000E+03  0.00000000000E+00 0.  1.
        -11    1    1    2    0    0 -0.10560215856E+02  0.10740231875E+01  0.48218729249E+03  0.48230411228E+03  0.00000000000E+00 0. -1.
         11    1    1    2    0    0  0.10995490195E+01 -0.13009310396E+02  0.15081018322E+02  0.19947137104E+02  0.00000000000E+00 0.  1.
        -15    1    1    2    0    0  0.30580811791E+00  0.64080185494E+01 -0.35703341427E+03  0.35709546743E+03  0.17770000000E+01 0.  1.
         15    1    1    2    0    0  0.91548587186E+01  0.55272686593E+01 -0.14023489653E+03  0.14065328319E+03  0.17770000000E+01 0. -1.
</event>
<event>
 6    1  0.1823098E-004  0.5002582E+03  0.7546771E-02  0.9399232E-01
        -11   -1    0    0    0    0  0.00000000000E+00  0.00000000000E+00  0.50000000000E+03  0.50000000000E+03  0.00000000000E+00 0.  1.
         11   -1    0    0    0    0 -0.00000000000E+00 -0.00000000000E+00 -0.50000000000E+03  0.50000000000E+03  0.00000000000E+00 0. -1.
        -11    1    1    2    0    0 -0.13322493951E+02 -0.10004126292E+02  0.49946404916E+03  0.49974184115E+03  0.00000000000E+00 0.  1.
         11    1    1    2    0    0  0.11545839532E+02  0.72886019962E+00 -0.10755315342E+03  0.10817355712E+03  0.00000000000E+00 0. -1.
        -15    1    1    2    0    0 -0.20939536212E+00  0.76010992956E+01 -0.33133331265E+03  0.33142531943E+03  0.17770000000E+01 0. -1.
         15    1    1    2    0    0  0.19860497811E+01  0.16741667968E+01 -0.60577583085E+02  0.60659282304E+02  0.17770000000E+01 0. -1.
</event>
<event>
 6    1  0.1823098E-004  0.5006834E+03  0.7546771E-02  0.9398282E-01
        -11   -1    0    0    0    0  0.00000000000E+00  0.00000000000E+00  0.50000000000E+03  0.50000000000E+03  0.00000000000E+00 0. -1.
         11   -1    0    0    0    0 -0.00000000000E+00 -0.00000000000E+00 -0.50000000000E+03  0.50000000000E+03  0.00000000000E+00 0.  1.
        -11    1    1    2    0    0  0.29526018823E+02  0.79832705713E+01  0.49837892946E+03  0.49931660870E+03  0.00000000000E+00 0. -1.
         11    1    1    2    0    0 -0.16095715051E+02 -0.13653370370E+02 -0.11172147359E+03  0.11369773184E+03  0.00000000000E+00 0.  1.
        -15    1    1    2    0    0 -0.11080308113E+02  0.63453067270E+01 -0.32059877877E+03  0.32085786701E+03  0.17770000000E+01 0.  1.
         15    1    1    2    0    0 -0.23499956581E+01 -0.67520692873E+00 -0.66058677099E+02  0.66127792440E+02  0.17770000000E+01 0.  1.
</event>
<event>
 6    1  0.1823098E-004  0.5080183E+03  0.7546771E-02  0.9382045E-01
        -11   -1    0    0    0    0  0.00000000000E+00  0.00000000000E+00  0.50000000000E+03  0.50000000000E+03  0.00000000000E+00 0.  1.
         11   -1    0    0    0    0 -0.00000000000E+00 -0.00000000000E+00 -0.50000000000E+03  0.50000000000E+03  0.00000000000E+00 0. -1.
        -11    1    1    2    0    0  0.23863865040E+01  0.73806332080E+01  0.41786659283E+03  0.41793858160E+03  0.00000000000E+00 0.  1.
         11    1    1    2    0    0  0.31381310358E+02  0.95793045749E+01 -0.49088637790E+03  0.49198169247E+03  0.00000000000E+00 0. -1.
        -15    1    1    2    0    0 -0.31818738929E+02 -0.12716202206E+02  0.26660539499E+02  0.43451996974E+02  0.17770000000E+01 0. -1.
         15    1    1    2    0    0 -0.19489579329E+01 -0.42437355768E+01  0.46359245570E+02  0.46627728955E+02  0.17770000000E+01 0. -1.
</event>
<event>
 6    1  0.1823098E-004  0.5059492E+03  0.7546771E-02  0.9386595E-01
        -11   -1    0    0    0    0  0.00000000000E+00  0.00000000000E+00  0.50000000000E+03  0.50000000000E+03  0.00000000000E+00 0. -1.
         11   -1    0    0    0    0 -0.00000000000E+00 -0.00000000000E+00 -0.50000000000E+03  0.50000000000E+03  0.00000000000E+00 0.  1.
        -11    1    1    2    0    0 -0.11218409546E+02  0.62486653173E+01  0.49388385466E+03  0.49405076705E+03  0.00000000000E+00 0. -1.
         11    1    1    2    0    0  0.21192163769E+02 -0.26364146803E+02 -0.42876144539E+03  0.43009365619E+03  0.00000000000E+00 0.  1.
        -15    1    1    2    0    0  0.81931345514E+01 -0.34604276918E+01 -0.16029998559E+02  0.18417942241E+02  0.17770000000E+01 0. -1.
         15    1    1    2    0    0 -0.18166888775E+02  0.23575909177E+02 -0.49092410710E+02  0.57437634523E+02  0.17770000000E+01 0.  1.
</event>
<event>
 6    1  0.1823098E-004  0.5000967E+03  0.7546771E-02  0.9399593E-01
        -11   -1    0    0    0    0  0.00000000000E+00  0.00000000000E+00  0.50000000000E+03  0.50000000000E+03  0.00000000000E+00 0. -1.
         11   -1    0    0    0    0 -0.00000000000E+00 -0.00000000000E+00 -0.50000000000E+03  0.50000000000E+03  0.00000000000E+00 0. -1.
        -11    1    1    2    0    0 -0.39537425056E+01 -0.66746366691E+01  0.49984307251E+03  0.49990327063E+03  0.00000000000E+00 0. -1.
         11    1    1    2    0    0  0.46147643170E+01  0.85768973344E+01 -0.34753427064E+03  0.34767071848E+03  0.00000000000E+00 0. -1.
        -15    1    1    2    0    0 -0.23283612343E+01 -0.12169100125E+00 -0.67831395527E+02  0.67894712775E+02  0.17770000000E+01 0.  1.
         15    1    1    2    0    0  0.16673394229E+01 -0.17805696641E+01 -0.84477406340E+02  0.84531298109E+02  0.17770000000E+01 0. -1.
</event>
<event>
 6    1  0.1823098E-004  0.5006502E+03  0.7546771E-02  0.9398356E-01
        -11   -1    0    0    0    0  0.00000000000E+00  0.00000000000E+00  0.50000000000E+03  0.50000000000E+03  0.00000000000E+00 0. -1.
         11   -1    0    0    0    0 -0.00000000000E+00 -0.00000000000E+00 -0.50000000000E+03  0.50000000000E+03  0.00000000000E+00 0. -1.
        -11    1    1    2    0    0 -0.26433967837E+01  0.37938884296E+01  0.26641990127E+03  0.26646002501E+03  0.00000000000E+00 0. -1.
         11    1    1    2    0    0 -0.91509443561E+01 -0.68652037849E+00 -0.49926543408E+03  0.49934976195E+03  0.00000000000E+00 0. -1.
        -15    1    1    2    0    0  0.11227077393E+02 -0.51939231495E+01  0.58398893968E+02  0.59721123986E+02  0.17770000000E+01 0.  1.
         15    1    1    2    0    0  0.56726374703E+00  0.20865550984E+01  0.17444663885E+03  0.17446908905E+03  0.17770000000E+01 0. -1.
</event>
<event>
 6    1  0.1823098E-004  0.5022030E+03  0.7546771E-02  0.9394894E-01
        -11   -1    0    0    0    0  0.00000000000E+00  0.00000000000E+00  0.50000000000E+03  0.50000000000E+03  0.00000000000E+00 0.  1.
         11   -1    0    0    0    0 -0.00000000000E+00 -0.00000000000E+00 -0.50000000000E+03  0.50000000000E+03  0.00000000000E+00 0.  1.
        -11    1    1    2    0    0 -0.11648069423E+01 -0.72244734093E+01  0.41925278002E+03  0.41931663853E+03  0.00000000000E+00 0.  1.
         11    1    1    2    0    0 -0.24125703559E+02  0.99219890534E+00 -0.49721107303E+03  0.49779703211E+03  0.00000000000E+00 0.  1.
        -15    1    1    2    0    0  0.56315022760E+01  0.55243151013E+01  0.28642803123E+02  0.29762388596E+02  0.17770000000E+01 0. -1.
         15    1    1    2    0    0  0.19659008226E+02  0.70795940263E+00  0.49315489890E+02  0.53123940771E+02  0.17770000000E+01 0.  1.
</event>
<event>
 6    1  0.1823098E-004  0.5001039E+03  0.7546771E-02  0.9399577E-01
        -11   -1    0    0    0    0  0.00000000000E+00  0.00000000000E+00  0.50000000000E+03  0.50000000000E+03  0.00000000000E+00 0. -1.
         11   -1    0    0    0    0 -0.00000000000E+00 -0.00000000000E+00 -0.50000000000E+03  0.50000000000E+03  0.00000000000E+00 0. -1.
        -11    1    1    2    0    0 -0.69435732182E+01  0.51794662766E+01  0.49982104257E+03  0.49989610388E+03  0.00000000000E+00 0. -1.
         11    1    1    2    0    0  0.96599589178E+01 -0.69009551492E+00 -0.25712359620E+03  0.25730591669E+03  0.00000000000E+00 0. -1.
        -15    1    1    2    0    0 -0.11550016707E+01 -0.27781320375E+01 -0.82547775605E+02  0.82621698317E+02  0.17770000000E+01 0. -1.
         15    1    1    2    0    0 -0.15613840289E+01 -0.17112387241E+01 -0.16014967076E+03  0.16017628111E+03  0.17770000000E+01 0. -1.
</event>
<event>
 6    1  0.1823098E-004  0.4731256E+03  0.7546771E-02  0.9462036E-01
        -11   -1    0    0    0    0  0.00000000000E+00  0.00000000000E+00  0.50000000000E+03  0.50000000000E+03  0.00000000000E+00 0. -1.
         11   -1    0    0    0    0 -0.00000000000E+00 -0.00000000000E+00 -0.50000000000E+03  0.50000000000E+03  0.00000000000E+00 0. -1.
        -11    1    1    2    0    0 -0.76197913352E+01  0.39360991675E+01  0.46287215635E+03  0.46295160354E+03  0.00000000000E+00 0. -1.
         11    1    1    2    0    0 -0.89713175015E+01  0.31879579065E+02 -0.48320712224E+03  0.48434070145E+03  0.00000000000E+00 0. -1.
        -15    1    1    2    0    0  0.73121280314E+01  0.34014727600E+01  0.41586136532E+01  0.92460277850E+01  0.17770000000E+01 0.  1.
         15    1    1    2    0    0  0.92789808053E+01 -0.39217150993E+02  0.16176352239E+02  0.43461667220E+02  0.17770000000E+01 0. -1.
</event>
<event>
 6    1  0.1823098E-004  0.5009499E+03  0.7546771E-02  0.9397687E-01
        -11   -1    0    0    0    0  0.00000000000E+00  0.00000000000E+00  0.50000000000E+03  0.50000000000E+03  0.00000000000E+00 0.  1.
         11   -1    0    0    0    0 -0.00000000000E+00 -0.00000000000E+00 -0.50000000000E+03  0.50000000000E+03  0.00000000000E+00 0.  1.
        -11    1    1    2    0    0 -0.60872114448E+01  0.35351284837E+01  0.49900047636E+03  0.49905012442E+03  0.00000000000E+00 0.  1.
         11    1    1    2    0    0  0.58472250606E+01  0.66929988356E+01 -0.45651531375E+03  0.45660181555E+03  0.00000000000E+00 0.  1.
        -15    1    1    2    0    0 -0.24369915863E+01 -0.85729877912E+01 -0.31381612225E+02  0.32671063076E+02  0.17770000000E+01 0. -1.
         15    1    1    2    0    0  0.26769779705E+01 -0.16551395281E+01 -0.11103550382E+02  0.11676996960E+02  0.17770000000E+01 0.  1.
</event>
<event>
 6    1  0.1823098E-004  0.5033235E+03  0.7546771E-02  0.9392404E-01
        -11   -1    0    0    0    0  0.00000000000E+00  0.00000000000E+00  0.50000000000E+03  0.50000000000E+03  0.00000000000E+00 0.  1.
         11   -1    0    0    0    0 -0.00000000000E+00 -0.00000000000E+00 -0.50000000000E+03  0.50000000000E+03  0.00000000000E+00 0.  1.
        -11    1    1    2    0    0 -0.35992098137E+01  0.60607105374E+01  0.49002302096E+03  0.49007371649E+03  0.00000000000E+00 0.  1.
         11    1    1    2    0    0  0.96318258253E+01 -0.16519218793E+01 -0.49658038502E+03  0.49667653428E+03  0.00000000000E+00 0.  1.
        -15    1    1    2    0    0 -0.24528995066E+01 -0.54432949508E+01  0.66614004019E+01  0.91202061503E+01  0.17770000000E+01 0.  1.
         15    1    1    2    0    0 -0.35797165050E+01  0.10345062927E+01 -0.10403634178E+00  0.41295430845E+01  0.17770000000E+01 0. -1.
</event>
<event>
 6    1  0.1823098E-004  0.4900431E+03  0.7546771E-02  0.9422369E-01
        -11   -1    0    0    0    0  0.00000000000E+00  0.00000000000E+00  0.50000000000E+03  0.50000000000E+03  0.00000000000E+00 0. -1.
         11   -1    0    0    0    0 -0.00000000000E+00 -0.00000000000E+00 -0.50000000000E+03  0.50000000000E+03  0.00000000000E+00 0.  1.
        -11    1    1    2    0    0 -0.93249673574E+01 -0.91277476342E+01  0.49361359026E+03  0.49378603391E+03  0.00000000000E+00 0. -1.
         11    1    1    2    0    0  0.21745682453E+02  0.14819889626E+02 -0.48571486936E+03  0.48642721773E+03  0.00000000000E+00 0.  1.
        -15    1    1    2    0    0  0.68611846634E+00  0.18194703591E+01 -0.25406166457E+01  0.36597394549E+01  0.17770000000E+01 0. -1.
         15    1    1    2    0    0 -0.13106833562E+02 -0.75116123513E+01 -0.53581042573E+01  0.16127008910E+02  0.17770000000E+01 0.  1.
</event>
<event>
 6    1  0.1823098E-004  0.5012548E+03  0.7546771E-02  0.9397006E-01
        -11   -1    0    0    0    0  0.00000000000E+00  0.00000000000E+00  0.50000000000E+03  0.50000000000E+03  0.00000000000E+00 0.  1.
         11   -1    0    0    0    0 -0.00000000000E+00 -0.00000000000E+00 -0.50000000000E+03  0.50000000000E+03  0.00000000000E+00 0.  1.
        -11    1    1    2    0    0  0.47086967804E+01 -0.89057664547E+00  0.28982575722E+03  0.28986537306E+03  0.00000000000E+00 0.  1.
         11    1    1    2    0    0  0.11714707230E+02 -0.30357751465E+01 -0.49859836530E+03  0.49874520567E+03  0.00000000000E+00 0.  1.
        -15    1    1    2    0    0  0.14271347673E+01  0.90268355145E+00  0.14633691825E+03  0.14635744916E+03  0.17770000000E+01 0.  1.
         15    1    1    2    0    0 -0.17850538778E+02  0.30236682405E+01  0.62435689831E+02  0.65031972121E+02  0.17770000000E+01 0. -1.
</event>
<event>
 6    1  0.1823098E-004  0.5037556E+03  0.7546771E-02  0.9391445E-01
        -11   -1    0    0    0    0  0.00000000000E+00  0.00000000000E+00  0.50000000000E+03  0.50000000000E+03  0.00000000000E+00 0.  1.
         11   -1    0    0    0    0 -0.00000000000E+00 -0.00000000000E+00 -0.50000000000E+03  0.50000000000E+03  0.00000000000E+00 0. -1.
        -11    1    1    2    0    0 -0.10222495355E+02 -0.77566057054E+01  0.40568543954E+03  0.40588833465E+03  0.00000000000E+00 0.  1.
         11    1    1    2    0    0 -0.23358521183E+02  0.93353762817E+01 -0.49560639024E+03  0.49624435897E+03  0.00000000000E+00 0. -1.
        -15    1    1    2    0    0  0.18850597870E+02  0.19530899797E+01  0.71302108108E+02  0.73799105348E+02  0.17770000000E+01 0. -1.
         15    1    1    2    0    0  0.14730418668E+02 -0.35318605560E+01  0.18618842586E+02  0.24068201041E+02  0.17770000000E+01 0.  1.
</event>
<event>
 6    1  0.1823098E-004  0.5074543E+03  0.7546771E-02  0.9383283E-01
        -11   -1    0    0    0    0  0.00000000000E+00  0.00000000000E+00  0.50000000000E+03  0.50000000000E+03  0.00000000000E+00 0.  1.
         11   -1    0    0    0    0 -0.00000000000E+00 -0.00000000000E+00 -0.50000000000E+03  0.50000000000E+03  0.00000000000E+00 0.  1.
        -11    1    1    2    0    0 -0.95860320308E+01 -0.64907534400E+01  0.45425335266E+03  0.45440084760E+03  0.00000000000E+00 0.  1.
         11    1    1    2    0    0 -0.19277650835E+02  0.23802397380E+01 -0.49216259584E+03  0.49254574824E+03  0.00000000000E+00 0.  1.
        -15    1    1    2    0    0  0.26934852181E+02 -0.45287547224E+01  0.32649429807E+02  0.42604446682E+02  0.17770000000E+01 0. -1.
         15    1    1    2    0    0  0.19288306844E+01  0.86392684244E+01  0.52598133705E+01  0.10448957480E+02  0.17770000000E+01 0.  1.
</event>
<event>
 6    1  0.1823098E-004  0.5097099E+03  0.7546771E-02  0.9378341E-01
        -11   -1    0    0    0    0  0.00000000000E+00  0.00000000000E+00  0.50000000000E+03  0.50000000000E+03  0.00000000000E+00 0.  1.
         11   -1    0    0    0    0 -0.00000000000E+00 -0.00000000000E+00 -0.50000000000E+03  0.50000000000E+03  0.00000000000E+00 0. -1.
        -11    1    1    2    0    0 -0.66216381564E+01 -0.39837367024E-01  0.49024537547E+03  0.49029009357E+03  0.00000000000E+00 0.  1.
         11    1    1    2    0    0 -0.13890101737E+02  0.27158863554E+02 -0.23782977875E+02  0.38680341679E+02  0.00000000000E+00 0. -1.
        -15    1    1    2    0    0 -0.32698171656E+01 -0.36486788617E+02 -0.34175244488E+03  0.34371480730E+03  0.17770000000E+01 0. -1.
         15    1    1    2    0    0  0.23781557059E+02  0.93677624300E+01 -0.12470995272E+03  0.12731475745E+03  0.17770000000E+01 0.  1.
</event>
<event>
 6    1  0.1823098E-004  0.5008769E+03  0.7546771E-02  0.9397850E-01
        -11   -1    0    0    0    0  0.00000000000E+00  0.00000000000E+00  0.50000000000E+03  0.50000000000E+03  0.00000000000E+00 0.  1.
         11   -1    0    0    0    0 -0.00000000000E+00 -0.00000000000E+00 -0.50000000000E+03  0.50000000000E+03  0.00000000000E+00 0.  1.
        -11    1    1    2    0    0 -0.11987416293E+02  0.17662920452E+02  0.22795685804E+03  0.22895415706E+03  0.00000000000E+00 0.  1.
         11    1    1    2    0    0  0.23409480713E+02 -0.33075556945E+02 -0.49747545364E+03  0.49912305419E+03  0.00000000000E+00 0.  1.
        -15    1    1    2    0    0 -0.35674580702E+01 -0.66877607764E+01  0.14456783843E+03  0.14477731361E+03  0.17770000000E+01 0.  1.
         15    1    1    2    0    0 -0.78546063507E+01  0.22100397269E+02  0.12495075717E+03  0.12714547514E+03  0.17770000000E+01 0. -1.
</event>
<event>
 6    1  0.1823098E-004  0.4822363E+03  0.7546771E-02  0.9440459E-01
        -11   -1    0    0    0    0  0.00000000000E+00  0.00000000000E+00  0.50000000000E+03  0.50000000000E+03  0.00000000000E+00 0. -1.
         11   -1    0    0    0    0 -0.00000000000E+00 -0.00000000000E+00 -0.50000000000E+03  0.50000000000E+03  0.00000000000E+00 0.  1.
        -11    1    1    2    0    0 -0.16808225598E+02  0.18842645535E+02  0.47915349156E+03  0.47981833043E+03  0.00000000000E+00 0. -1.
         11    1    1    2    0    0 -0.11713530836E+02 -0.25718144737E+02 -0.48429015821E+03  0.48511399394E+03  0.00000000000E+00 0.  1.
        -15    1    1    2    0    0  0.14825044683E+02 -0.52194561765E+01  0.53805170514E+01  0.16707254872E+02  0.17770000000E+01 0. -1.
         15    1    1    2    0    0  0.13696711751E+02  0.12094955378E+02 -0.24385040095E+00  0.18360420758E+02  0.17770000000E+01 0.  1.
</event>
<event>
 6    1  0.1823098E-004  0.5002225E+03  0.7546771E-02  0.9399312E-01
        -11   -1    0    0    0    0  0.00000000000E+00  0.00000000000E+00  0.50000000000E+03  0.50000000000E+03  0.00000000000E+00 0.  1.
         11   -1    0    0    0    0 -0.00000000000E+00 -0.00000000000E+00 -0.50000000000E+03  0.50000000000E+03  0.00000000000E+00 0. -1.
        -11    1    1    2    0    0 -0.52992675348E+01  0.41772083397E+01  0.49973192506E+03  0.49977747871E+03  0.00000000000E+00 0.  1.
         11    1    1    2    0    0 -0.57267558027E+01 -0.62754084167E+00 -0.27213539684E+03  0.27219636983E+03  0.00000000000E+00 0. -1.
        -15    1    1    2    0    0  0.10053302206E+02 -0.38780114486E+01 -0.21370367882E+03  0.21398254118E+03  0.17770000000E+01 0. -1.
         15    1    1    2    0    0  0.97272113155E+00  0.32834395062E+00 -0.13892849396E+02  0.14043610273E+02  0.17770000000E+01 0. -1.
</event>
<event>
 6    1  0.1823098E-004  0.5002044E+03  0.7546771E-02  0.9399353E-01
        -11   -1    0    0    0    0  0.00000000000E+00  0.00000000000E+00  0.50000000000E+03  0.50000000000E+03  0.00000000000E+00 0.  1.
         11   -1    0    0    0    0 -0.00000000000E+00 -0.00000000000E+00 -0.50000000000E+03  0.50000000000E+03  0.00000000000E+00 0. -1.
        -11    1    1    2    0    0 -0.40199725653E+01  0.22434556424E+01  0.25716677646E+03  0.25720797847E+03  0.00000000000E+00 0.  1.
         11    1    1    2    0    0 -0.19598406963E+01  0.99654960191E+01 -0.49969242773E+03  0.49979563265E+03  0.00000000000E+00 0. -1.
        -15    1    1    2    0    0  0.42124060124E+01 -0.34073273776E+01  0.72044534493E+02  0.72269820282E+02  0.17770000000E+01 0.  1.
         15    1    1    2    0    0  0.17674072493E+01 -0.88016242839E+01  0.17048111678E+03  0.17072656860E+03  0.17770000000E+01 0. -1.
</event>
<event>
 6    1  0.1823098E-004  0.5001014E+03  0.7546771E-02  0.9399583E-01
        -11   -1    0    0    0    0  0.00000000000E+00  0.00000000000E+00  0.50000000000E+03  0.50000000000E+03  0.00000000000E+00 0. -1.
         11   -1    0    0    0    0 -0.00000000000E+00 -0.00000000000E+00 -0.50000000000E+03  0.50000000000E+03  0.00000000000E+00 0.  1.
        -11    1    1    2    0    0 -0.18122118630E+02 -0.18645853631E+01  0.49956653378E+03  0.49989859925E+03  0.00000000000E+00 0. -1.
         11    1    1    2    0    0  0.14343873177E+02  0.52696279554E+01 -0.30586091063E+03  0.30624240779E+03  0.00000000000E+00 0.  1.
        -15    1    1    2    0    0  0.14903049652E+01  0.22384845204E+00 -0.11000214297E+03  0.11002681630E+03  0.17770000000E+01 0.  1.
         15    1    1    2    0    0  0.22879404879E+01 -0.36288910443E+01 -0.83703480168E+02  0.83832176658E+02  0.17770000000E+01 0.  1.
</event>
<event>
 6    1  0.1823098E-004  0.4612608E+03  0.7546771E-02  0.9490924E-01
        -11   -1    0    0    0    0  0.00000000000E+00  0.00000000000E+00  0.50000000000E+03  0.50000000000E+03  0.00000000000E+00 0. -1.
         11   -1    0    0    0    0 -0.00000000000E+00 -0.00000000000E+00 -0.50000000000E+03  0.50000000000E+03  0.00000000000E+00 0. -1.
        -11    1    1    2    0    0  0.86654713273E+01  0.98152893177E+01  0.46980332672E+03  0.46998574031E+03  0.00000000000E+00 0. -1.
         11    1    1    2    0    0  0.46890999993E+02  0.18277181907E+02 -0.45201204692E+03  0.45480513610E+03  0.00000000000E+00 0. -1.
        -15    1    1    2    0    0  0.26851948822E+01 -0.30175964321E+01  0.60097922896E+01  0.74559702351E+01  0.17770000000E+01 0.  1.
         15    1    1    2    0    0 -0.58241666202E+02 -0.25074874792E+02 -0.23801072088E+02  0.67753153354E+02  0.17770000000E+01 0. -1.
</event>
<event>
 6    1  0.1823098E-004  0.5004111E+03  0.7546771E-02  0.9398890E-01
        -11   -1    0    0    0    0  0.00000000000E+00  0.00000000000E+00  0.50000000000E+03  0.50000000000E+03  0.00000000000E+00 0.  1.
         11   -1    0    0    0    0 -0.00000000000E+00 -0.00000000000E+00 -0.50000000000E+03  0.50000000000E+03  0.00000000000E+00 0.  1.
        -11    1    1    2    0    0  0.11756282666E+02 -0.94213998551E+01  0.41269182970E+03  0.41296672900E+03  0.00000000000E+00 0.  1.
         11    1    1    2    0    0 -0.14115988144E+02 -0.16892541512E+00 -0.49938942671E+03  0.49958892018E+03  0.00000000000E+00 0.  1.
        -15    1    1    2    0    0  0.33147439531E+01  0.78139605405E+01  0.69260076699E+02  0.69800870053E+02  0.17770000000E+01 0.  1.
         15    1    1    2    0    0 -0.95503847518E+00  0.17763647297E+01  0.17437520308E+02  0.17643480769E+02  0.17770000000E+01 0.  1.
</event>
<event>
 6    1  0.1823098E-004  0.5006711E+03  0.7546771E-02  0.9398309E-01
        -11   -1    0    0    0    0  0.00000000000E+00  0.00000000000E+00  0.50000000000E+03  0.50000000000E+03  0.00000000000E+00 0. -1.
         11   -1    0    0    0    0 -0.00000000000E+00 -0.00000000000E+00 -0.50000000000E+03  0.50000000000E+03  0.00000000000E+00 0. -1.
        -11    1    1    2    0    0  0.20062485724E+02  0.13470989840E+02  0.49874377263E+03  0.49932887123E+03  0.00000000000E+00 0. -1.
         11    1    1    2    0    0 -0.83049023156E+01 -0.95490025428E+01 -0.20292014332E+03  0.20331438566E+03  0.00000000000E+00 0. -1.
        -15    1    1    2    0    0 -0.14610252110E+02 -0.12128843841E+02 -0.14163110128E+03  0.14290939402E+03  0.17770000000E+01 0.  1.
         15    1    1    2    0    0  0.28526687020E+01  0.82068565445E+01 -0.15419252803E+03  0.15444734910E+03  0.17770000000E+01 0. -1.
</event>
<event>
 6    1  0.1823098E-004  0.5004906E+03  0.7546771E-02  0.9398713E-01
        -11   -1    0    0    0    0  0.00000000000E+00  0.00000000000E+00  0.50000000000E+03  0.50000000000E+03  0.00000000000E+00 0. -1.
         11   -1    0    0    0    0 -0.00000000000E+00 -0.00000000000E+00 -0.50000000000E+03  0.50000000000E+03  0.00000000000E+00 0.  1.
        -11    1    1    2    0    0 -0.39135149245E+01 -0.29814120643E+01  0.31598566227E+03  0.31602395981E+03  0.00000000000E+00 0. -1.
         11    1    1    2    0    0 -0.42102236603E+01  0.11141452147E+02 -0.49936738993E+03  0.49950940739E+03  0.00000000000E+00 0.  1.
        -15    1    1    2    0    0  0.10132077800E+02 -0.92110902584E+01  0.91148890418E+02  0.92188834127E+02  0.17770000000E+01 0. -1.
         15    1    1    2    0    0 -0.20083392155E+01  0.10510501753E+01  0.92232837246E+02  0.92277798675E+02  0.17770000000E+01 0. -1.
</event>
<event>
 6    1  0.1823098E-004  0.5015097E+03  0.7546771E-02  0.9396438E-01
        -11   -1    0    0    0    0  0.00000000000E+00  0.00000000000E+00  0.50000000000E+03  0.50000000000E+03  0.00000000000E+00 0. -1.
         11   -1    0    0    0    0 -0.00000000000E+00 -0.00000000000E+00 -0.50000000000E+03  0.50000000000E+03  0.00000000000E+00 0. -1.
        -11    1    1    2    0    0  0.15348334864E+02 -0.27026728873E+00  0.49825392643E+03  0.49849034056E+03  0.00000000000E+00 0. -1.
         11    1    1    2    0    0  0.33929027748E+00  0.97414913624E+01 -0.41364182072E+03  0.41375665266E+03  0.00000000000E+00 0. -1.
        -15    1    1    2    0    0 -0.13655456510E+02 -0.10306302723E+02 -0.82367540421E+02  0.84144285678E+02  0.17770000000E+01 0. -1.
         15    1    1    2    0    0 -0.20321686314E+01  0.83507864922E+00 -0.22445652838E+01  0.36087211045E+01  0.17770000000E+01 0.  1.
</event>
<event>
 6    1  0.1823098E-004  0.5156889E+03  0.7546771E-02  0.9365373E-01
        -11   -1    0    0    0    0  0.00000000000E+00  0.00000000000E+00  0.50000000000E+03  0.50000000000E+03  0.00000000000E+00 0. -1.
         11   -1    0    0    0    0 -0.00000000000E+00 -0.00000000000E+00 -0.50000000000E+03  0.50000000000E+03  0.00000000000E+00 0. -1.
        -11    1    1    2    0    0  0.96554587202E+01  0.17703414039E+02  0.45699751778E+03  0.45744220401E+03  0.00000000000E+00 0. -1.
         11    1    1    2    0    0  0.31742352135E+02 -0.14838228386E+02 -0.48304193334E+03  0.48431111830E+03  0.00000000000E+00 0. -1.
        -15    1    1    2    0    0 -0.12487035350E+01  0.14458909951E+01  0.16514605255E+02  0.16719443084E+02  0.17770000000E+01 0.  1.
         15    1    1    2    0    0 -0.40149107320E+02 -0.43110766485E+01  0.95298103034E+01  0.41527234604E+02  0.17770000000E+01 0.  1.
</event>
<event>
 6    1  0.1823098E-004  0.5029765E+03  0.7546771E-02  0.9393174E-01
        -11   -1    0    0    0    0  0.00000000000E+00  0.00000000000E+00  0.50000000000E+03  0.50000000000E+03  0.00000000000E+00 0.  1.
         11   -1    0    0    0    0 -0.00000000000E+00 -0.00000000000E+00 -0.50000000000E+03  0.50000000000E+03  0.00000000000E+00 0. -1.
        -11    1    1    2    0    0  0.18087411760E+02 -0.41655351100E+01  0.49667682304E+03  0.49702351322E+03  0.00000000000E+00 0.  1.
         11    1    1    2    0    0 -0.24134791117E+02 -0.47691539325E+00 -0.44048240450E+02  0.50229105878E+02  0.00000000000E+00 0. -1.
        -15    1    1    2    0    0  0.36485835945E+01 -0.68400434050E+00 -0.14592621248E+03  0.14598423628E+03  0.17770000000E+01 0.  1.
         15    1    1    2    0    0  0.23987957630E+01  0.53264548438E+01 -0.30670237011E+03  0.30676314463E+03  0.17770000000E+01 0. -1.
</event>
<event>
 6    1  0.1823098E-004  0.5004728E+03  0.7546771E-02  0.9398752E-01
        -11   -1    0    0    0    0  0.00000000000E+00  0.00000000000E+00  0.50000000000E+03  0.50000000000E+03  0.00000000000E+00 0. -1.
         11   -1    0    0    0    0 -0.00000000000E+00 -0.00000000000E+00 -0.50000000000E+03  0.50000000000E+03  0.00000000000E+00 0.  1.
        -11    1    1    2    0    0  0.35814525732E+01  0.19224570225E+02  0.49914426367E+03  0.49952718330E+03  0.00000000000E+00 0. -1.
         11    1    1    2    0    0 -0.74413249092E+01  0.16011767230E+01 -0.16828401527E+03  0.16845606810E+03  0.00000000000E+00 0.  1.
        -15    1    1    2    0    0  0.47361992598E+00 -0.77094678838E+01 -0.37014249812E+02  0.37853304071E+02  0.17770000000E+01 0. -1.
         15    1    1    2    0    0  0.33862524100E+01 -0.13116279064E+02 -0.29384599859E+03  0.29416344453E+03  0.17770000000E+01 0.  1.
</event>
<event>
 6    1  0.1823098E-004  0.5018679E+03  0.7546771E-02  0.9395640E-01
        -11   -1    0    0    0    0  0.00000000000E+00  0.00000000000E+00  0.50000000000E+03  0.50000000000E+03  0.00000000000E+00 0.  1.
         11   -1    0    0    0    0 -0.00000000000E+00 -0.00000000000E+00 -0.50000000000E+03  0.50000000000E+03  0.00000000000E+00 0.  1.
        -11    1    1    2    0    0  0.79005455285E+01 -0.64741779848E+01  0.49802737390E+03  0.49813210974E+03  0.00000000000E+00 0.  1.
         11    1    1    2    0    0  0.14879377308E+02 -0.16673338576E+02 -0.24287859236E+03  0.24390450327E+03  0.00000000000E+00 0.  1.
        -15    1    1    2    0    0  0.13651890171E+01  0.14489812255E+01 -0.46308845934E+01  0.53447271924E+01  0.17770000000E+01 0. -1.
         15    1    1    2    0    0 -0.24145111854E+02  0.21698535336E+02 -0.25051789694E+03  0.25261865980E+03  0.17770000000E+01 0.  1.
</event>
<event>
 6    1  0.1823098E-004  0.5009508E+03  0.7546771E-02  0.9397685E-01
        -11   -1    0    0    0    0  0.00000000000E+00  0.00000000000E+00  0.50000000000E+03  0.50000000000E+03  0.00000000000E+00 0. -1.
         11   -1    0    0    0    0 -0.00000000000E+00 -0.00000000000E+00 -0.50000000000E+03  0.50000000000E+03  0.00000000000E+00 0. -1.
        -11    1    1    2    0    0 -0.37220660327E+01 -0.10838962411E+02  0.49891759762E+03  0.49904920208E+03  0.00000000000E+00 0. -1.
         11    1    1    2    0    0 -0.48854834048E+01  0.12490186405E+02 -0.37137569905E+03  0.37161779095E+03  0.00000000000E+00 0. -1.
        -15    1    1    2    0    0  0.49420798456E+01  0.61848353540E+01 -0.22460341970E+02  0.23880976361E+02  0.17770000000E+01 0.  1.
         15    1    1    2    0    0  0.36654695919E+01 -0.78360593482E+01 -0.10508155660E+03  0.10545203061E+03  0.17770000000E+01 0. -1.
</event>
<event>
 6    1  0.1823098E-004  0.4867236E+03  0.7546771E-02  0.9430017E-01
        -11   -1    0    0    0    0  0.00000000000E+00  0.00000000000E+00  0.50000000000E+03  0.50000000000E+03  0.00000000000E+00 0. -1.
         11   -1    0    0    0    0 -0.00000000000E+00 -0.00000000000E+00 -0.50000000000E+03  0.50000000000E+03  0.00000000000E+00 0. -1.
        -11    1    1    2    0    0 -0.66625870606E+01  0.34681624103E+01  0.55548710870E+02  0.56054237094E+02  0.00000000000E+00 0. -1.
         11    1    1    2    0    0 -0.11135110433E+03  0.99183793671E+02 -0.45675532480E+03  0.48048092584E+03  0.00000000000E+00 0. -1.
        -15    1    1    2    0    0  0.63491965103E+02 -0.69025847678E+02  0.49682668660E+02  0.10614764517E+03  0.17770000000E+01 0.  1.
         15    1    1    2    0    0  0.54521726292E+02 -0.33626108403E+02  0.35152394527E+03  0.35731719190E+03  0.17770000000E+01 0. -1.
</event>
<event>
 6    1  0.1823098E-004  0.5008431E+03  0.7546771E-02  0.9397925E-01
        -11   -1    0    0    0    0  0.00000000000E+00  0.00000000000E+00  0.50000000000E+03  0.50000000000E+03  0.00000000000E+00 0. -1.
         11   -1    0    0    0    0 -0.00000000000E+00 -0.00000000000E+00 -0.50000000000E+03  0.50000000000E+03  0.00000000000E+00 0.  1.
        -11    1    1    2    0    0 -0.80350856605E+01  0.52389416675E+00  0.49909196402E+03  0.49915691482E+03  0.00000000000E+00 0. -1.
         11    1    1    2    0    0 -0.98722143646E+01  0.63401590691E+01 -0.35416367359E+03  0.35435796298E+03  0.00000000000E+00 0.  1.
        -15    1    1    2    0    0  0.18018755437E+02 -0.51448092323E+01 -0.12746311090E+03  0.12884543833E+03  0.17770000000E+01 0.  1.
         15    1    1    2    0    0 -0.11145541231E+00 -0.17192440035E+01 -0.17465179528E+02  0.17639683875E+02  0.17770000000E+01 0. -1.
</event>
<event>
 6    1  0.1823098E-004  0.5007872E+03  0.7546771E-02  0.9398050E-01
        -11   -1    0    0    0    0  0.00000000000E+00  0.00000000000E+00  0.50000000000E+03  0.50000000000E+03  0.00000000000E+00 0. -1.
         11   -1    0    0    0    0 -0.00000000000E+00 -0.00000000000E+00 -0.50000000000E+03  0.50000000000E+03  0.00000000000E+00 0.  1.
        -11    1    1    2    0    0 -0.59294587231E+01  0.52754097214E+01  0.49914969751E+03  0.49921278925E+03  0.00000000000E+00 0. -1.
         11    1    1    2    0    0  0.78560590066E+01  0.34088239721E+01 -0.38028600602E+02  0.38980921073E+02  0.00000000000E+00 0.  1.
        -15    1    1    2    0    0  0.59257337665E+01  0.18376658388E+01 -0.43599515948E+02  0.44074560194E+02  0.17770000000E+01 0. -1.
         15    1    1    2    0    0 -0.78523340500E+01 -0.10521899532E+02 -0.41752158096E+03  0.41773172948E+03  0.17770000000E+01 0.  1.
</event>
<event>
 6    1  0.1823098E-004  0.5006382E+03  0.7546771E-02  0.9398383E-01
        -11   -1    0    0    0    0  0.00000000000E+00  0.00000000000E+00  0.50000000000E+03  0.50000000000E+03  0.00000000000E+00 0. -1.
         11   -1    0    0    0    0 -0.00000000000E+00 -0.00000000000E+00 -0.50000000000E+03  0.50000000000E+03  0.00000000000E+00 0. -1.
        -11    1    1    2    0    0  0.98662182437E+00 -0.76765225247E+01  0.17830144141E+03  0.17846934311E+03  0.00000000000E+00 0. -1.
         11    1    1    2    0    0 -0.11771812119E+02 -0.15673043224E+02 -0.49897697098E+03  0.49936183015E+03  0.00000000000E+00 0. -1.
        -15    1    1    2    0    0  0.15220486801E+02  0.17899219827E+02  0.25871735690E+03  0.25978813248E+03  0.17770000000E+01 0. -1.
         15    1    1    2    0    0 -0.44352965069E+01  0.54503459221E+01  0.61958172674E+02  0.62380694256E+02  0.17770000000E+01 0.  1.
</event>
<event>
 6    1  0.1823098E-004  0.5001459E+03  0.7546771E-02  0.9399483E-01
        -11   -1    0    0    0    0  0.00000000000E+00  0.00000000000E+00  0.50000000000E+03  0.50000000000E+03  0.00000000000E+00 0.  1.
         11   -1    0    0    0    0 -0.00000000000E+00 -0.00000000000E+00 -0.50000000000E+03  0.50000000000E+03  0.00000000000E+00 0.  1.
        -11    1    1    2    0    0  0.28475407316E+01 -0.25940825216E+01  0.10752775256E+03  0.10759672542E+03  0.00000000000E+00 0.  1.
         11    1    1    2    0    0 -0.67111845963E+00 -0.15427368475E+02 -0.49961547842E+03  0.49985405907E+03  0.00000000000E+00 0.  1.
        -15    1    1    2    0    0 -0.75662709813E+00  0.60890192829E+01  0.18058455122E+03  0.18069750001E+03  0.17770000000E+01 0.  1.
         15    1    1    2    0    0 -0.14197951738E+01  0.11932431714E+02  0.21150317464E+03  0.21185171549E+03  0.17770000000E+01 0.  1.
</event>
<event>
 6    1  0.1823098E-004  0.5042812E+03  0.7546771E-02  0.9390281E-01
        -11   -1    0    0    0    0  0.00000000000E+00  0.00000000000E+00  0.50000000000E+03  0.50000000000E+03  0.00000000000E+00 0.  1.
         11   -1    0    0    0    0 -0.00000000000E+00 -0.00000000000E+00 -0.50000000000E+03  0.50000000000E+03  0.00000000000E+00 0.  1.
        -11    1    1    2    0    0 -0.50194123061E+01 -0.57571280030E+01  0.49565992455E+03  0.49571877091E+03  0.00000000000E+00 0.  1.
         11    1    1    2    0    0  0.14692042070E+02  0.69071261856E+01 -0.48473495814E+03  0.48500674648E+03  0.00000000000E+00 0.  1.
        -15    1    1    2    0    0  0.26851711919E+01  0.31817240315E+00 -0.30110520632E+01  0.44199028875E+01  0.17770000000E+01 0. -1.
         15    1    1    2    0    0 -0.12357800956E+02 -0.14681705857E+01 -0.79139143492E+01  0.14854579720E+02  0.17770000000E+01 0.  1.
</event>
<event>
 6    1  0.1823098E-004  0.4427673E+03  0.7546771E-02  0.9537848E-01
        -11   -1    0    0    0    0  0.00000000000E+00  0.00000000000E+00  0.50000000000E+03  0.50000000000E+03  0.00000000000E+00 0.  1.
         11   -1    0    0    0    0 -0.00000000000E+00 -0.00000000000E+00 -0.50000000000E+03  0.50000000000E+03  0.00000000000E+00 0.  1.
        -11    1    1    2    0    0  0.15779690312E+02  0.53349277058E+01  0.45281904056E+03  0.45312530670E+03  0.00000000000E+00 0.  1.
         11    1    1    2    0    0  0.53812782380E+02  0.63214108800E+02 -0.43013148725E+03  0.43806955546E+03  0.00000000000E+00 0.  1.
        -15    1    1    2    0    0 -0.70585679013E+02 -0.49196758424E+02 -0.12884418818E+02  0.87016234683E+02  0.17770000000E+01 0.  1.
         15    1    1    2    0    0  0.99320632155E+00 -0.19352278083E+02 -0.98031344935E+01  0.21788903155E+02  0.17770000000E+01 0. -1.
</event>
<event>
 6    1  0.1823098E-004  0.5038458E+03  0.7546771E-02  0.9391245E-01
        -11   -1    0    0    0    0  0.00000000000E+00  0.00000000000E+00  0.50000000000E+03  0.50000000000E+03  0.00000000000E+00 0.  1.
         11   -1    0    0    0    0 -0.00000000000E+00 -0.00000000000E+00 -0.50000000000E+03  0.50000000000E+03  0.00000000000E+00 0.  1.
        -11    1    1    2    0    0 -0.67040096464E+01 -0.44315103088E+01  0.49608909690E+03  0.49615418379E+03  0.00000000000E+00 0.  1.
         11    1    1    2    0    0  0.37746719639E+02  0.13983760102E+02 -0.37467825315E+03  0.37683438507E+03  0.00000000000E+00 0.  1.
        -15    1    1    2    0    0 -0.25845463415E+02 -0.63568334283E+00 -0.72506084956E+02  0.76997936057E+02  0.17770000000E+01 0.  1.
         15    1    1    2    0    0 -0.51972465775E+01 -0.89165664505E+01 -0.48904758790E+02  0.50013495085E+02  0.17770000000E+01 0. -1.
</event>
<event>
 6    1  0.1823098E-004  0.4935597E+03  0.7546771E-02  0.9414337E-01
        -11   -1    0    0    0    0  0.00000000000E+00  0.00000000000E+00  0.50000000000E+03  0.50000000000E+03  0.00000000000E+00 0.  1.
         11   -1    0    0    0    0 -0.00000000000E+00 -0.00000000000E+00 -0.50000000000E+03  0.50000000000E+03  0.00000000000E+00 0. -1.
        -11    1    1    2    0    0 -0.75021577018E+01 -0.24610073784E+01  0.49433167541E+03  0.49439472514E+03  0.00000000000E+00 0.  1.
         11    1    1    2    0    0  0.15333715269E+02 -0.71770441288E+00 -0.49252336129E+03  0.49276251819E+03  0.00000000000E+00 0. -1.
        -15    1    1    2    0    0 -0.25356792222E+01 -0.20790032710E+00  0.33149617879E+01  0.45408801260E+01  0.17770000000E+01 0. -1.
         15    1    1    2    0    0 -0.52958783445E+01  0.33866121184E+01 -0.51232759120E+01  0.83018765440E+01  0.17770000000E+01 0.  1.
</event>
<event>
 6    1  0.1823098E-004  0.4740049E+03  0.7546771E-02  0.9459931E-01
        -11   -1    0    0    0    0  0.00000000000E+00  0.00000000000E+00  0.50000000000E+03  0.50000000000E+03  0.00000000000E+00 0.  1.
         11   -1    0    0    0    0 -0.00000000000E+00 -0.00000000000E+00 -0.50000000000E+03  0.50000000000E+03  0.00000000000E+00 0. -1.
        -11    1    1    2    0    0 -0.80368070831E+01  0.15789190376E+02  0.46430403804E+03  0.46464193584E+03  0.00000000000E+00 0.  1.
         11    1    1    2    0    0  0.86029648742E+01  0.22228756529E+02 -0.48374223922E+03  0.48432910570E+03  0.00000000000E+00 0. -1.
        -15    1    1    2    0    0  0.75907083693E+01 -0.12565461909E+01 -0.13014581383E+01  0.80030796674E+01  0.17770000000E+01 0.  1.
         15    1    1    2    0    0 -0.81568661604E+01 -0.36761400714E+02  0.20739659317E+02  0.43025878790E+02  0.17770000000E+01 0. -1.
</event>
<event>
 6    1  0.1823098E-004  0.4853499E+03  0.7546771E-02  0.9433200E-01
        -11   -1    0    0    0    0  0.00000000000E+00  0.00000000000E+00  0.50000000000E+03  0.50000000000E+03  0.00000000000E+00 0. -1.
         11   -1    0    0    0    0 -0.00000000000E+00 -0.00000000000E+00 -0.50000000000E+03  0.50000000000E+03  0.00000000000E+00 0.  1.
        -11    1    1    2    0    0 -0.19124319497E+02  0.95200655582E+01  0.48041493121E+03  0.48088967276E+03  0.00000000000E+00 0. -1.
         11    1    1    2    0    0  0.11794699691E+02  0.13467123061E+02 -0.48982862616E+03  0.49015565012E+03  0.00000000000E+00 0.  1.
        -15    1    1    2    0    0 -0.19734120972E+01 -0.95926711065E+01  0.74499925602E+01  0.12432771711E+02  0.17770000000E+01 0. -1.
         15    1    1    2    0    0  0.93030319037E+01 -0.13394517513E+02  0.19637023915E+01  0.16521905401E+02  0.17770000000E+01 0.  1.
</event>
<event>
 6    1  0.1823098E-004  0.5012286E+03  0.7546771E-02  0.9397065E-01
        -11   -1    0    0    0    0  0.00000000000E+00  0.00000000000E+00  0.50000000000E+03  0.50000000000E+03  0.00000000000E+00 0. -1.
         11   -1    0    0    0    0 -0.00000000000E+00 -0.00000000000E+00 -0.50000000000E+03  0.50000000000E+03  0.00000000000E+00 0.  1.
        -11    1    1    2    0    0  0.28080805689E+01 -0.84686091519E+01  0.49869159263E+03  0.49877139775E+03  0.00000000000E+00 0. -1.
         11    1    1    2    0    0  0.17837622395E+02  0.78718591260E+01 -0.31202958104E+03  0.31263813968E+03  0.00000000000E+00 0.  1.
        -15    1    1    2    0    0 -0.16681753668E+02 -0.64092428772E+01 -0.10625272013E+03  0.10775972143E+03  0.17770000000E+01 0. -1.
         15    1    1    2    0    0 -0.39639492954E+01  0.70059929030E+01 -0.80409291456E+02  0.80830741132E+02  0.17770000000E+01 0.  1.
</event>
<event>
 6    1  0.1823098E-004  0.4886039E+03  0.7546771E-02  0.9425677E-01
        -11   -1    0    0    0    0  0.00000000000E+00  0.00000000000E+00  0.50000000000E+03  0.50000000000E+03  0.00000000000E+00 0.  1.
         11   -1    0    0    0    0 -0.00000000000E+00 -0.00000000000E+00 -0.50000000000E+03  0.50000000000E+03  0.00000000000E+00 0. -1.
        -11    1    1    2    0    0 -0.12497500888E+02 -0.45627267545E+01  0.48400351151E+03  0.48418633309E+03  0.00000000000E+00 0.  1.
         11    1    1    2    0    0 -0.23700358650E+01 -0.79292085379E+01 -0.49318816451E+03  0.49325759500E+03  0.00000000000E+00 0. -1.
        -15    1    1    2    0    0  0.20990526246E+01  0.12879127696E+01  0.33150441080E+01  0.44957744228E+01  0.17770000000E+01 0. -1.
         15    1    1    2    0    0  0.12768484129E+02  0.11204022523E+02  0.58696088915E+01  0.18060297483E+02  0.17770000000E+01 0.  1.
</event>
<event>
 6    1  0.1823098E-004  0.5019200E+03  0.7546771E-02  0.9395524E-01
        -11   -1    0    0    0    0  0.00000000000E+00  0.00000000000E+00  0.50000000000E+03  0.50000000000E+03  0.00000000000E+00 0.  1.
         11   -1    0    0    0    0 -0.00000000000E+00 -0.00000000000E+00 -0.50000000000E+03  0.50000000000E+03  0.00000000000E+00 0. -1.
        -11    1    1    2    0    0  0.37467239179E+01 -0.95250979724E+01  0.49797477760E+03  0.49807995800E+03  0.00000000000E+00 0.  1.
         11    1    1    2    0    0  0.22425968914E+02  0.22952595720E+02 -0.25183705220E+03  0.25387328846E+03  0.00000000000E+00 0. -1.
        -15    1    1    2    0    0 -0.15516321866E+02 -0.97913488790E+01 -0.12170787773E+03  0.12309586503E+03  0.17770000000E+01 0. -1.
         15    1    1    2    0    0 -0.10656370966E+02 -0.36361488686E+01 -0.12442984767E+03  0.12495088852E+03  0.17770000000E+01 0. -1.
</event>
<event>
 6    1  0.1823098E-004  0.5163227E+03  0.7546771E-02  0.9364009E-01
        -11   -1    0    0    0    0  0.00000000000E+00  0.00000000000E+00  0.50000000000E+03  0.50000000000E+03  0.00000000000E+00 0.  1.
         11   -1    0    0    0    0 -0.00000000000E+00 -0.00000000000E+00 -0.50000000000E+03  0.50000000000E+03  0.00000000000E+00 0. -1.
        -11    1    1    2    0    0 -0.28668832856E+02 -0.43386991027E+02  0.48087353755E+03  0.48367726025E+03  0.00000000000E+00 0.  1.
         11    1    1    2    0    0  0.19936405140E+02 -0.24958702062E+02 -0.41759499773E+03  0.41881497011E+03  0.00000000000E+00 0. -1.
        -15    1    1    2    0    0  0.78509175823E+01  0.66024663713E+02 -0.65790177606E+02  0.93554253371E+02  0.17770000000E+01 0.  1.
         15    1    1    2    0    0  0.88151013379E+00  0.23210293757E+01  0.25116377917E+01  0.39535162673E+01  0.17770000000E+01 0. -1.
</event>
<event>
 6    1  0.1823098E-004  0.5046701E+03  0.7546771E-02  0.9389420E-01
        -11   -1    0    0    0    0  0.00000000000E+00  0.00000000000E+00  0.50000000000E+03  0.50000000000E+03  0.00000000000E+00 0. -1.
         11   -1    0    0    0    0 -0.00000000000E+00 -0.00000000000E+00 -0.50000000000E+03  0.50000000000E+03  0.00000000000E+00 0.  1.
        -11    1    1    2    0    0 -0.18119671511E+02  0.11074095038E+02  0.49487448703E+03  0.49532990621E+03  0.00000000000E+00 0. -1.
         11    1    1    2    0    0 -0.31723618246E+00 -0.18849103264E+02 -0.47319665015E+03  0.47357202097E+03  0.00000000000E+00 0.  1.
        -15    1    1    2    0    0  0.10451304632E+02  0.16898973956E+01 -0.57276395031E+01  0.12167543096E+02  0.17770000000E+01 0. -1.
         15    1    1    2    0    0  0.79856030609E+01  0.60851108306E+01 -0.15950197381E+02  0.18930529722E+02  0.17770000000E+01 0.  1.
</event>
<event>
 6    1  0.1823098E-004  0.5001410E+03  0.7546771E-02  0.9399494E-01
        -11   -1    0    0    0    0  0.00000000000E+00  0.00000000000E+00  0.50000000000E+03  0.50000000000E+03  0.00000000000E+00 0.  1.
         11   -1    0    0    0    0 -0.00000000000E+00 -0.00000000000E+00 -0.50000000000E+03  0.50000000000E+03  0.00000000000E+00 0. -1.
        -11    1    1    2    0    0 -0.41323683006E+01 -0.40636651480E+01  0.24534876853E+03  0.24541721224E+03  0.00000000000E+00 0.  1.
         11    1    1    2    0    0 -0.60910697445E+01  0.56496395350E+01 -0.49978997639E+03  0.49985902018E+03  0.00000000000E+00 0. -1.
        -15    1    1    2    0    0  0.48914644129E+00 -0.81171084884E+00  0.52870421612E+02  0.52908764389E+02  0.17770000000E+01 0. -1.
         15    1    1    2    0    0  0.97342916038E+01 -0.77426353813E+00  0.20157078625E+03  0.20181500319E+03  0.17770000000E+01 0.  1.
</event>
<event>
 6    1  0.1823098E-004  0.5015912E+03  0.7546771E-02  0.9396256E-01
        -11   -1    0    0    0    0  0.00000000000E+00  0.00000000000E+00  0.50000000000E+03  0.50000000000E+03  0.00000000000E+00 0.  1.
         11   -1    0    0    0    0 -0.00000000000E+00 -0.00000000000E+00 -0.50000000000E+03  0.50000000000E+03  0.00000000000E+00 0. -1.
        -11    1    1    2    0    0 -0.99340446049E+01  0.17284026706E+01  0.49830676402E+03  0.49840877168E+03  0.00000000000E+00 0.  1.
         11    1    1    2    0    0 -0.73170898201E+01 -0.23858998372E+01 -0.40191219736E+03  0.40198587874E+03  0.00000000000E+00 0. -1.
        -15    1    1    2    0    0  0.19315644844E+02 -0.38804200048E+01 -0.77271948402E+02  0.79763798393E+02  0.17770000000E+01 0. -1.
         15    1    1    2    0    0 -0.20645104193E+01  0.45379171714E+01 -0.19122618256E+02  0.19841551186E+02  0.17770000000E+01 0.  1.
</event>
<event>
 6    1  0.1823098E-004  0.4910973E+03  0.7546771E-02  0.9419953E-01
        -11   -1    0    0    0    0  0.00000000000E+00  0.00000000000E+00  0.50000000000E+03  0.50000000000E+03  0.00000000000E+00 0.  1.
         11   -1    0    0    0    0 -0.00000000000E+00 -0.00000000000E+00 -0.50000000000E+03  0.50000000000E+03  0.00000000000E+00 0. -1.
        -11    1    1    2    0    0 -0.15930266377E+01 -0.65427984290E+01  0.48922422972E+03  0.48927057227E+03  0.00000000000E+00 0.  1.
         11    1    1    2    0    0  0.10107771631E+02 -0.26334972403E+01 -0.49290008843E+03  0.49301074992E+03  0.00000000000E+00 0. -1.
        -15    1    1    2    0    0 -0.41297268272E+01  0.20388198529E+01  0.69721905903E+01  0.85428684110E+01  0.17770000000E+01 0. -1.
         15    1    1    2    0    0 -0.43850181666E+01  0.71374758164E+01 -0.32963318748E+01  0.91758094019E+01  0.17770000000E+01 0.  1.
</event>
<event>
 6    1  0.1823098E-004  0.5003283E+03  0.7546771E-02  0.9399075E-01
        -11   -1    0    0    0    0  0.00000000000E+00  0.00000000000E+00  0.50000000000E+03  0.50000000000E+03  0.00000000000E+00 0.  1.
         11   -1    0    0    0    0 -0.00000000000E+00 -0.00000000000E+00 -0.50000000000E+03  0.50000000000E+03  0.00000000000E+00 0.  1.
        -11    1    1    2    0    0  0.14362831415E+02 -0.73281747262E+01  0.49941148734E+03  0.49967171899E+03  0.00000000000E+00 0.  1.
         11    1    1    2    0    0 -0.13635840149E+02 -0.23958209026E+01 -0.12712291728E+03  0.12787459557E+03  0.00000000000E+00 0.  1.
        -15    1    1    2    0    0  0.14869156137E+01  0.31050366854E+01 -0.13887575144E+03  0.13892978168E+03  0.17770000000E+01 0.  1.
         15    1    1    2    0    0 -0.22139068793E+01  0.66189589433E+01 -0.23341281862E+03  0.23352390376E+03  0.17770000000E+01 0.  1.
</event>
<event>
 6    1  0.1823098E-004  0.5000908E+03  0.7546771E-02  0.9399607E-01
        -11   -1    0    0    0    0  0.00000000000E+00  0.00000000000E+00  0.50000000000E+03  0.50000000000E+03  0.00000000000E+00 0.  1.
         11   -1    0    0    0    0 -0.00000000000E+00 -0.00000000000E+00 -0.50000000000E+03  0.50000000000E+03  0.00000000000E+00 0. -1.
        -11    1    1    2    0    0  0.93149547182E+01  0.56733193068E+01  0.49979025702E+03  0.49990924771E+03  0.00000000000E+00 0.  1.
         11    1    1    2    0    0 -0.59203594273E+01 -0.53142775571E+01 -0.15145071326E+03  0.15165952244E+03  0.00000000000E+00 0. -1.
        -15    1    1    2    0    0 -0.44761812586E+01  0.13942570898E+01 -0.18043213819E+03  0.18050178495E+03  0.17770000000E+01 0. -1.
         15    1    1    2    0    0  0.10815859677E+01 -0.17532988395E+01 -0.16790740558E+03  0.16792944489E+03  0.17770000000E+01 0. -1.
</event>
<event>
 6    1  0.1823098E-004  0.5001999E+03  0.7546771E-02  0.9399362E-01
        -11   -1    0    0    0    0  0.00000000000E+00  0.00000000000E+00  0.50000000000E+03  0.50000000000E+03  0.00000000000E+00 0. -1.
         11   -1    0    0    0    0 -0.00000000000E+00 -0.00000000000E+00 -0.50000000000E+03  0.50000000000E+03  0.00000000000E+00 0. -1.
        -11    1    1    2    0    0 -0.26878506564E+01 -0.28391562173E+01  0.94853438048E+02  0.94933977367E+02  0.00000000000E+00 0. -1.
         11    1    1    2    0    0 -0.11781974093E+02  0.15352047937E+02 -0.49942528522E+03  0.49980007584E+03  0.00000000000E+00 0. -1.
        -15    1    1    2    0    0  0.76490267866E+01 -0.49490954743E+01  0.81191358645E+02  0.81720227633E+02  0.17770000000E+01 0.  1.
         15    1    1    2    0    0  0.68207979629E+01 -0.75637962459E+01  0.32338048853E+03  0.32354571916E+03  0.17770000000E+01 0. -1.
</event>
<event>
 6    1  0.1823098E-004  0.5042323E+03  0.7546771E-02  0.9390389E-01
        -11   -1    0    0    0    0  0.00000000000E+00  0.00000000000E+00  0.50000000000E+03  0.50000000000E+03  0.00000000000E+00 0. -1.
         11   -1    0    0    0    0 -0.00000000000E+00 -0.00000000000E+00 -0.50000000000E+03  0.50000000000E+03  0.00000000000E+00 0.  1.
        -11    1    1    2    0    0  0.14088726567E+02  0.93182119447E+00  0.49556664211E+03  0.49576774530E+03  0.00000000000E+00 0. -1.
         11    1    1    2    0    0  0.79905416021E+01 -0.10199245948E+01 -0.45554402024E+03  0.45561523612E+03  0.00000000000E+00 0.  1.
        -15    1    1    2    0    0 -0.23576844737E+02  0.29227580466E+01 -0.33075484573E+02  0.40762182610E+02  0.17770000000E+01 0.  1.
         15    1    1    2    0    0  0.14975765680E+01 -0.28346546463E+01 -0.69471372954E+01  0.78548359716E+01  0.17770000000E+01 0. -1.
</event>
<event>
 6    1  0.1823098E-004  0.4834950E+03  0.7546771E-02  0.9437518E-01
        -11   -1    0    0    0    0  0.00000000000E+00  0.00000000000E+00  0.50000000000E+03  0.50000000000E+03  0.00000000000E+00 0.  1.
         11   -1    0    0    0    0 -0.00000000000E+00 -0.00000000000E+00 -0.50000000000E+03  0.50000000000E+03  0.00000000000E+00 0. -1.
        -11    1    1    2    0    0 -0.39030723667E+01 -0.12724243858E+02  0.47859187102E+03  0.47877689937E+03  0.00000000000E+00 0.  1.
         11    1    1    2    0    0  0.76682883147E+01 -0.10430068197E+02 -0.48837550523E+03  0.48854705308E+03  0.00000000000E+00 0. -1.
        -15    1    1    2    0    0 -0.38476020547E+01  0.12947275775E+02  0.15666641515E+02  0.20761439664E+02  0.17770000000E+01 0. -1.
         15    1    1    2    0    0  0.82386106688E-01  0.10207036280E+02 -0.58830073117E+01  0.11914607888E+02  0.17770000000E+01 0.  1.
</event>
<event>
 6    1  0.1823098E-004  0.5002768E+03  0.7546771E-02  0.9399190E-01
        -11   -1    0    0    0    0  0.00000000000E+00  0.00000000000E+00  0.50000000000E+03  0.50000000000E+03  0.00000000000E+00 0. -1.
         11   -1    0    0    0    0 -0.00000000000E+00 -0.00000000000E+00 -0.50000000000E+03  0.50000000000E+03  0.00000000000E+00 0.  1.
        -11    1    1    2    0    0 -0.22225764357E+01  0.53814987378E+01  0.37007870256E+03  0.37012450130E+03  0.00000000000E+00 0. -1.
         11    1    1    2    0    0  0.11316490837E+02 -0.81789864271E+01 -0.49952805836E+03  0.49972316324E+03  0.00000000000E+00 0.  1.
        -15    1    1    2    0    0  0.73719685499E+00 -0.16364458291E+01  0.29133412730E+02  0.29242689351E+02  0.17770000000E+01 0. -1.
         15    1    1    2    0    0 -0.98311112561E+01  0.44339335184E+01  0.10031594307E+03  0.10090964611E+03  0.17770000000E+01 0. -1.
</event>
<event>
 6    1  0.1823098E-004  0.5004192E+03  0.7546771E-02  0.9398872E-01
        -11   -1    0    0    0    0  0.00000000000E+00  0.00000000000E+00  0.50000000000E+03  0.50000000000E+03  0.00000000000E+00 0. -1.
         11   -1    0    0    0    0 -0.00000000000E+00 -0.00000000000E+00 -0.50000000000E+03  0.50000000000E+03  0.00000000000E+00 0.  1.
        -11    1    1    2    0    0  0.27464979279E+01  0.30743930928E+01  0.27935784746E+03  0.27938826403E+03  0.00000000000E+00 0. -1.
         11    1    1    2    0    0  0.13784107252E+02 -0.45024267189E+01 -0.49937029610E+03  0.49958079035E+03  0.00000000000E+00 0.  1.
        -15    1    1    2    0    0 -0.88671112057E+01 -0.44625611009E+01  0.73407333469E+02  0.74096791082E+02  0.17770000000E+01 0.  1.
         15    1    1    2    0    0 -0.76634939745E+01  0.58905947271E+01  0.14660511517E+03  0.14693415454E+03  0.17770000000E+01 0. -1.
</event>
<event>
 6    1  0.1823098E-004  0.5051860E+03  0.7546771E-02  0.9388280E-01
        -11   -1    0    0    0    0  0.00000000000E+00  0.00000000000E+00  0.50000000000E+03  0.50000000000E+03  0.00000000000E+00 0.  1.
         11   -1    0    0    0    0 -0.00000000000E+00 -0.00000000000E+00 -0.50000000000E+03  0.50000000000E+03  0.00000000000E+00 0.  1.
        -11    1    1    2    0    0  0.95788442411E+01  0.27635146239E+01  0.45863736501E+03  0.45874570718E+03  0.00000000000E+00 0.  1.
         11    1    1    2    0    0  0.12913207697E+02  0.13454125017E+02 -0.49446250522E+03  0.49481403929E+03  0.00000000000E+00 0.  1.
        -15    1    1    2    0    0 -0.27693652031E+01 -0.56033508519E+01  0.12292152622E+02  0.13904016308E+02  0.17770000000E+01 0. -1.
         15    1    1    2    0    0 -0.19722686735E+02 -0.10614288789E+02  0.23532987584E+02  0.32536237216E+02  0.17770000000E+01 0.  1.
</event>
<event>
 6    1  0.1823098E-004  0.5024825E+03  0.7546771E-02  0.9394272E-01
        -11   -1    0    0    0    0  0.00000000000E+00  0.00000000000E+00  0.50000000000E+03  0.50000000000E+03  0.00000000000E+00 0.  1.
         11   -1    0    0    0    0 -0.00000000000E+00 -0.00000000000E+00 -0.50000000000E+03  0.50000000000E+03  0.00000000000E+00 0. -1.
        -11    1    1    2    0    0 -0.16871654720E+00 -0.92158095962E+01  0.46038721608E+03  0.46047947657E+03  0.00000000000E+00 0.  1.
         11    1    1    2    0    0 -0.10631298640E+02 -0.58710491041E+01 -0.49736928886E+03  0.49751754063E+03  0.00000000000E+00 0. -1.
        -15    1    1    2    0    0  0.38066640925E+01  0.29277660457E+01  0.15154584136E+02  0.15996301287E+02  0.17770000000E+01 0.  1.
         15    1    1    2    0    0  0.69933510946E+01  0.12159092655E+02  0.21827488644E+02  0.26006681511E+02  0.17770000000E+01 0. -1.
</event>
<event>
 6    1  0.1823098E-004  0.5010856E+03  0.7546771E-02  0.9397384E-01
        -11   -1    0    0    0    0  0.00000000000E+00  0.00000000000E+00  0.50000000000E+03  0.50000000000E+03  0.00000000000E+00 0.  1.
         11   -1    0    0    0    0 -0.00000000000E+00 -0.00000000000E+00 -0.50000000000E+03  0.50000000000E+03  0.00000000000E+00 0. -1.
        -11    1    1    2    0    0  0.27701975015E+01 -0.10068728049E+02  0.49880508492E+03  0.49891438746E+03  0.00000000000E+00 0.  1.
         11    1    1    2    0    0 -0.80606551122E+01  0.18651511895E+01 -0.15728095084E+02  0.17771491912E+02  0.00000000000E+00 0. -1.
        -15    1    1    2    0    0  0.71321793108E+01  0.14417072783E+01 -0.30195260188E+03  0.30204548997E+03  0.17770000000E+01 0. -1.
         15    1    1    2    0    0 -0.18417217001E+01  0.67618695813E+01 -0.18112438796E+03  0.18126863066E+03  0.17770000000E+01 0.  1.
</event>
<event>
 6    1  0.1823098E-004  0.5024392E+03  0.7546771E-02  0.9394368E-01
        -11   -1    0    0    0    0  0.00000000000E+00  0.00000000000E+00  0.50000000000E+03  0.50000000000E+03  0.00000000000E+00 0. -1.
         11   -1    0    0    0    0 -0.00000000000E+00 -0.00000000000E+00 -0.50000000000E+03  0.50000000000E+03  0.00000000000E+00 0.  1.
        -11    1    1    2    0    0 -0.95822473270E+01 -0.16235310734E+01  0.49746591033E+03  0.49756083775E+03  0.00000000000E+00 0. -1.
         11    1    1    2    0    0  0.33178737576E+02 -0.17753286763E+02 -0.22387722496E+03  0.22701766379E+03  0.00000000000E+00 0.  1.
        -15    1    1    2    0    0 -0.12133897415E+02  0.78450180162E+01 -0.98423367580E+02  0.99494184699E+02  0.17770000000E+01 0.  1.
         15    1    1    2    0    0 -0.11462592833E+02  0.11531799821E+02 -0.17516531779E+03  0.17592731376E+03  0.17770000000E+01 0. -1.
</event>
<event>
 6    1  0.1823098E-004  0.5031143E+03  0.7546771E-02  0.9392868E-01
        -11   -1    0    0    0    0  0.00000000000E+00  0.00000000000E+00  0.50000000000E+03  0.50000000000E+03  0.00000000000E+00 0.  1.
         11   -1    0    0    0    0 -0.00000000000E+00 -0.00000000000E+00 -0.50000000000E+03  0.50000000000E+03  0.00000000000E+00 0. -1.
        -11    1    1    2    0    0  0.66965080750E+01  0.63071641604E+01  0.49680058458E+03  0.49688574580E+03  0.00000000000E+00 0.  1.
         11    1    1    2    0    0 -0.10618068939E+02  0.24138760131E+01 -0.45300811274E+03  0.45313896367E+03  0.00000000000E+00 0. -1.
        -15    1    1    2    0    0  0.67864519716E+01  0.13640463908E+01 -0.28827141956E+01  0.77061224395E+01  0.17770000000E+01 0.  1.
         15    1    1    2    0    0 -0.28648911078E+01 -0.10085086564E+02 -0.40909757643E+02  0.42269168096E+02  0.17770000000E+01 0. -1.
</event>
<event>
 6    1  0.1823098E-004  0.5001057E+03  0.7546771E-02  0.9399573E-01
        -11   -1    0    0    0    0  0.00000000000E+00  0.00000000000E+00  0.50000000000E+03  0.50000000000E+03  0.00000000000E+00 0. -1.
         11   -1    0    0    0    0 -0.00000000000E+00 -0.00000000000E+00 -0.50000000000E+03  0.50000000000E+03  0.00000000000E+00 0.  1.
        -11    1    1    2    0    0 -0.12124310041E+02  0.19135831235E+02  0.45719276026E+03  0.45775364441E+03  0.00000000000E+00 0. -1.
         11    1    1    2    0    0  0.12957208928E+02 -0.21658668122E+02 -0.49925681602E+03  0.49989434434E+03  0.00000000000E+00 0.  1.
        -15    1    1    2    0    0 -0.80930644743E+00  0.21410884847E+00  0.14001708042E+02  0.14138825150E+02  0.17770000000E+01 0.  1.
         15    1    1    2    0    0 -0.23592440288E-01  0.23087280384E+01  0.28062347712E+02  0.28213186100E+02  0.17770000000E+01 0.  1.
</event>
<event>
 6    1  0.1823098E-004  0.4252053E+03  0.7546771E-02  0.9584726E-01
        -11   -1    0    0    0    0  0.00000000000E+00  0.00000000000E+00  0.50000000000E+03  0.50000000000E+03  0.00000000000E+00 0.  1.
         11   -1    0    0    0    0 -0.00000000000E+00 -0.00000000000E+00 -0.50000000000E+03  0.50000000000E+03  0.00000000000E+00 0. -1.
        -11    1    1    2    0    0  0.34467592294E+02 -0.19720050183E+02  0.44038853863E+03  0.44217525965E+03  0.00000000000E+00 0.  1.
         11    1    1    2    0    0  0.38715026110E+02 -0.80289575953E+02 -0.40820121552E+03  0.41781993921E+03  0.00000000000E+00 0. -1.
        -15    1    1    2    0    0 -0.40727225207E+02  0.76206051298E+02 -0.45376638963E+02  0.97612838398E+02  0.17770000000E+01 0.  1.
         15    1    1    2    0    0 -0.32455393198E+02  0.23803574837E+02  0.13189315856E+02  0.42391962734E+02  0.17770000000E+01 0. -1.
</event>
<event>
 6    1  0.1823098E-004  0.5029647E+03  0.7546771E-02  0.9393200E-01
        -11   -1    0    0    0    0  0.00000000000E+00  0.00000000000E+00  0.50000000000E+03  0.50000000000E+03  0.00000000000E+00 0. -1.
         11   -1    0    0    0    0 -0.00000000000E+00 -0.00000000000E+00 -0.50000000000E+03  0.50000000000E+03  0.00000000000E+00 0. -1.
        -11    1    1    2    0    0  0.70365744968E+01  0.49527896102E+01  0.49696082522E+03  0.49703531596E+03  0.00000000000E+00 0. -1.
         11    1    1    2    0    0 -0.19210546198E+01 -0.25251738536E+02 -0.27245447725E+03  0.27362891463E+03  0.00000000000E+00 0. -1.
        -15    1    1    2    0    0 -0.16262392744E+01 -0.66017197740E+01 -0.62856151584E+01  0.94283638597E+01  0.17770000000E+01 0.  1.
         15    1    1    2    0    0 -0.34892806026E+01  0.26900668700E+02 -0.21822073281E+03  0.21990740555E+03  0.17770000000E+01 0. -1.
</event>
<event>
 6    1  0.1823098E-004  0.5040223E+03  0.7546771E-02  0.9390854E-01
        -11   -1    0    0    0    0  0.00000000000E+00  0.00000000000E+00  0.50000000000E+03  0.50000000000E+03  0.00000000000E+00 0.  1.
         11   -1    0    0    0    0 -0.00000000000E+00 -0.00000000000E+00 -0.50000000000E+03  0.50000000000E+03  0.00000000000E+00 0.  1.
        -11    1    1    2    0    0  0.32334059649E+01  0.60557667815E+01  0.46458794195E+03  0.46463865857E+03  0.00000000000E+00 0.  1.
         11    1    1    2    0    0 -0.82998138510E+01  0.93652724065E+01 -0.49581984820E+03  0.49597773851E+03  0.00000000000E+00 0.  1.
        -15    1    1    2    0    0  0.60146388006E+01 -0.15882438399E+02  0.14148793720E+02  0.22175973984E+02  0.17770000000E+01 0.  1.
         15    1    1    2    0    0 -0.94823091452E+00  0.46139921135E+00  0.17083112524E+02  0.17207628936E+02  0.17770000000E+01 0.  1.
</event>
<event>
 6    1  0.1823098E-004  0.5008774E+03  0.7546771E-02  0.9397849E-01
        -11   -1    0    0    0    0  0.00000000000E+00  0.00000000000E+00  0.50000000000E+03  0.50000000000E+03  0.00000000000E+00 0. -1.
         11   -1    0    0    0    0 -0.00000000000E+00 -0.00000000000E+00 -0.50000000000E+03  0.50000000000E+03  0.00000000000E+00 0.  1.
        -11    1    1    2    0    0 -0.48434113742E+01  0.37176697375E+01  0.43743932222E+03  0.43748193142E+03  0.00000000000E+00 0. -1.
         11    1    1    2    0    0 -0.41931381096E+01 -0.58219499499E+01 -0.49907104820E+03  0.49912261886E+03  0.00000000000E+00 0.  1.
        -15    1    1    2    0    0  0.66341376894E+01  0.61883726531E+01  0.31021103028E+02  0.32369341993E+02  0.17770000000E+01 0.  1.
         15    1    1    2    0    0  0.24024117944E+01 -0.40840924407E+01  0.30610622956E+02  0.31026107720E+02  0.17770000000E+01 0. -1.
</event>
<event>
 6    1  0.1823098E-004  0.4974448E+03  0.7546771E-02  0.9405545E-01
        -11   -1    0    0    0    0  0.00000000000E+00  0.00000000000E+00  0.50000000000E+03  0.50000000000E+03  0.00000000000E+00 0. -1.
         11   -1    0    0    0    0 -0.00000000000E+00 -0.00000000000E+00 -0.50000000000E+03  0.50000000000E+03  0.00000000000E+00 0. -1.
        -11    1    1    2    0    0 -0.19219531072E+01 -0.67091597571E+01  0.49750271654E+03  0.49755166535E+03  0.00000000000E+00 0. -1.
         11    1    1    2    0    0  0.47516188375E+01 -0.19635456133E+01 -0.34703574651E+00  0.51530405356E+01  0.00000000000E+00 0. -1.
        -15    1    1    2    0    0 -0.42430337927E+01  0.55294114936E+01 -0.39600730465E+03  0.39607262060E+03  0.17770000000E+01 0. -1.
         15    1    1    2    0    0  0.14133680624E+01  0.31432938768E+01 -0.10114837615E+03  0.10122267351E+03  0.17770000000E+01 0. -1.
</event>
<event>
 6    1  0.1823098E-004  0.5009168E+03  0.7546771E-02  0.9397761E-01
        -11   -1    0    0    0    0  0.00000000000E+00  0.00000000000E+00  0.50000000000E+03  0.50000000000E+03  0.00000000000E+00 0.  1.
         11   -1    0    0    0    0 -0.00000000000E+00 -0.00000000000E+00 -0.50000000000E+03  0.50000000000E+03  0.00000000000E+00 0. -1.
        -11    1    1    2    0    0  0.68522891215E+01 -0.81356839882E+01  0.49896982414E+03  0.49908318808E+03  0.00000000000E+00 0.  1.
         11    1    1    2    0    0 -0.99078488802E+01 -0.27460389641E+01 -0.43693636125E+03  0.43705730743E+03  0.00000000000E+00 0. -1.
        -15    1    1    2    0    0  0.43556608847E+01  0.11083238062E+02 -0.58215334324E+02  0.59447395461E+02  0.17770000000E+01 0. -1.
         15    1    1    2    0    0 -0.13001011261E+01 -0.20151510936E+00 -0.38181285689E+01  0.44121090247E+01  0.17770000000E+01 0.  1.
</event>
<event>
 6    1  0.1823098E-004  0.5025241E+03  0.7546771E-02  0.9394179E-01
        -11   -1    0    0    0    0  0.00000000000E+00  0.00000000000E+00  0.50000000000E+03  0.50000000000E+03  0.00000000000E+00 0. -1.
         11   -1    0    0    0    0 -0.00000000000E+00 -0.00000000000E+00 -0.50000000000E+03  0.50000000000E+03  0.00000000000E+00 0. -1.
        -11    1    1    2    0    0  0.88348864525E+00 -0.72063692182E+01  0.46335464792E+03  0.46341152560E+03  0.00000000000E+00 0. -1.
         11    1    1    2    0    0 -0.12634219861E+02 -0.20237304887E+01 -0.49731129131E+03  0.49747586822E+03  0.00000000000E+00 0. -1.
        -15    1    1    2    0    0  0.13575483260E+02  0.53120502258E+01  0.26927120579E+02  0.30671471680E+02  0.17770000000E+01 0.  1.
         15    1    1    2    0    0 -0.18247520443E+01  0.39180494812E+01  0.70295228055E+01  0.84411344992E+01  0.17770000000E+01 0. -1.
</event>
<event>
 6    1  0.1823098E-004  0.5060745E+03  0.7546771E-02  0.9386319E-01
        -11   -1    0    0    0    0  0.00000000000E+00  0.00000000000E+00  0.50000000000E+03  0.50000000000E+03  0.00000000000E+00 0.  1.
         11   -1    0    0    0    0 -0.00000000000E+00 -0.00000000000E+00 -0.50000000000E+03  0.50000000000E+03  0.00000000000E+00 0.  1.
        -11    1    1    2    0    0  0.11563288219E+02 -0.27990998898E+00  0.49379005058E+03  0.49392550252E+03  0.00000000000E+00 0.  1.
         11    1    1    2    0    0 -0.13327526627E+02  0.28026687547E+02 -0.30097629176E+03  0.30257205156E+03  0.00000000000E+00 0.  1.
        -15    1    1    2    0    0 -0.11850990711E+02 -0.50533639095E+01 -0.51732062191E+01  0.13996508822E+02  0.17770000000E+01 0. -1.
         15    1    1    2    0    0  0.13615229119E+02 -0.22693413649E+02 -0.18764055260E+03  0.18950593710E+03  0.17770000000E+01 0.  1.
</event>
<event>
 6    1  0.1823098E-004  0.5002695E+03  0.7546771E-02  0.9399207E-01
        -11   -1    0    0    0    0  0.00000000000E+00  0.00000000000E+00  0.50000000000E+03  0.50000000000E+03  0.00000000000E+00 0. -1.
         11   -1    0    0    0    0 -0.00000000000E+00 -0.00000000000E+00 -0.50000000000E+03  0.50000000000E+03  0.00000000000E+00 0.  1.
        -11    1    1    2    0    0 -0.60091597270E+01 -0.83960992138E+01  0.49962383953E+03  0.49973051288E+03  0.00000000000E+00 0. -1.
         11    1    1    2    0    0  0.27818904072E+01  0.82943479624E+01 -0.80086001769E+02  0.80562415566E+02  0.00000000000E+00 0.  1.
        -15    1    1    2    0    0  0.23857420186E+01  0.50071033554E+01 -0.29452790103E+03  0.29458548006E+03  0.17770000000E+01 0.  1.
         15    1    1    2    0    0  0.84152730118E+00 -0.49053521041E+01 -0.12500993673E+03  0.12512159149E+03  0.17770000000E+01 0. -1.
</event>
<event>
 6    1  0.1823098E-004  0.5000799E+03  0.7546771E-02  0.9399631E-01
        -11   -1    0    0    0    0  0.00000000000E+00  0.00000000000E+00  0.50000000000E+03  0.50000000000E+03  0.00000000000E+00 0.  1.
         11   -1    0    0    0    0 -0.00000000000E+00 -0.00000000000E+00 -0.50000000000E+03  0.50000000000E+03  0.00000000000E+00 0.  1.
        -11    1    1    2    0    0  0.14844759144E+00 -0.83979351681E+01  0.49984953893E+03  0.49992010254E+03  0.00000000000E+00 0.  1.
         11    1    1    2    0    0 -0.42134431448E+01  0.25748169648E+01 -0.13259567428E+03  0.13268758655E+03  0.00000000000E+00 0.  1.
        -15    1    1    2    0    0  0.11881615700E+01  0.42103158527E+01 -0.99246964865E+02  0.99359228315E+02  0.17770000000E+01 0. -1.
         15    1    1    2    0    0  0.28768339833E+01  0.16128023506E+01 -0.26800689978E+03  0.26803308260E+03  0.17770000000E+01 0.  1.
</event>
<event>
 6    1  0.1823098E-004  0.5019915E+03  0.7546771E-02  0.9395365E-01
        -11   -1    0    0    0    0  0.00000000000E+00  0.00000000000E+00  0.50000000000E+03  0.50000000000E+03  0.00000000000E+00 0. -1.
         11   -1    0    0    0    0 -0.00000000000E+00 -0.00000000000E+00 -0.50000000000E+03  0.50000000000E+03  0.00000000000E+00 0. -1.
        -11    1    1    2    0    0  0.88018122775E+01  0.43790731659E+01  0.49791143445E+03  0.49800847858E+03  0.00000000000E+00 0. -1.
         11    1    1    2    0    0  0.46467650304E+01 -0.86504252439E+01 -0.45657696631E+03  0.45668254668E+03  0.00000000000E+00 0. -1.
        -15    1    1    2    0    0 -0.94986274532E+01 -0.12877600390E+01 -0.13860686222E+02  0.16945754659E+02  0.17770000000E+01 0. -1.
         15    1    1    2    0    0 -0.39499498546E+01  0.55591121169E+01 -0.27473781921E+02  0.28363220082E+02  0.17770000000E+01 0.  1.
</event>
<event>
 6    1  0.1823098E-004  0.5033364E+03  0.7546771E-02  0.9392375E-01
        -11   -1    0    0    0    0  0.00000000000E+00  0.00000000000E+00  0.50000000000E+03  0.50000000000E+03  0.00000000000E+00 0.  1.
         11   -1    0    0    0    0 -0.00000000000E+00 -0.00000000000E+00 -0.50000000000E+03  0.50000000000E+03  0.00000000000E+00 0. -1.
        -11    1    1    2    0    0  0.79923253041E+01  0.62901402682E+00  0.49659888075E+03  0.49666358965E+03  0.00000000000E+00 0.  1.
         11    1    1    2    0    0  0.71461734413E+01 -0.10860243634E+02 -0.41333133874E+03  0.41353574002E+03  0.00000000000E+00 0. -1.
        -15    1    1    2    0    0 -0.20112354953E+02  0.14044192109E+01 -0.70807121905E+02  0.73642959314E+02  0.17770000000E+01 0.  1.
         15    1    1    2    0    0  0.49738562079E+01  0.88268103959E+01 -0.12460420098E+02  0.16157711019E+02  0.17770000000E+01 0. -1.
</event>
<event>
 6    1  0.1823098E-004  0.3434318E+03  0.7546771E-02  0.9840101E-01
        -11   -1    0    0    0    0  0.00000000000E+00  0.00000000000E+00  0.50000000000E+03  0.50000000000E+03  0.00000000000E+00 0.  1.
         11   -1    0    0    0    0 -0.00000000000E+00 -0.00000000000E+00 -0.50000000000E+03  0.50000000000E+03  0.00000000000E+00 0. -1.
        -11    1    1    2    0    0  0.13272802844E+02 -0.10235004063E+02  0.46122923653E+03  0.46153367291E+03  0.00000000000E+00 0.  1.
         11    1    1    2    0    0 -0.10507587953E+03  0.10145559504E+03 -0.23190974302E+03  0.27407354328E+03  0.00000000000E+00 0. -1.
        -15    1    1    2    0    0  0.86622341866E+02 -0.81992421991E+02 -0.19660018419E+03  0.22995864308E+03  0.17770000000E+01 0.  1.
         15    1    1    2    0    0  0.51807348194E+01 -0.92281689816E+01 -0.32719309320E+02  0.34434140724E+02  0.17770000000E+01 0. -1.
</event>
<event>
 6    1  0.1823098E-004  0.4889204E+03  0.7546771E-02  0.9424948E-01
        -11   -1    0    0    0    0  0.00000000000E+00  0.00000000000E+00  0.50000000000E+03  0.50000000000E+03  0.00000000000E+00 0.  1.
         11   -1    0    0    0    0 -0.00000000000E+00 -0.00000000000E+00 -0.50000000000E+03  0.50000000000E+03  0.00000000000E+00 0. -1.
        -11    1    1    2    0    0  0.53612781418E+01 -0.56102211961E+01  0.48670023334E+03  0.48676209283E+03  0.00000000000E+00 0.  1.
         11    1    1    2    0    0 -0.17410869166E+02 -0.77356570365E+01 -0.49088330692E+03  0.49125288779E+03  0.00000000000E+00 0. -1.
        -15    1    1    2    0    0 -0.18488408821E+01  0.38898383771E+01  0.13002502894E+01  0.48370895198E+01  0.17770000000E+01 0.  1.
         15    1    1    2    0    0  0.13898431906E+02  0.94560398555E+01  0.28828232890E+01  0.17147929855E+02  0.17770000000E+01 0. -1.
</event>
<event>
 6    1  0.1823098E-004  0.4861056E+03  0.7546771E-02  0.9431448E-01
        -11   -1    0    0    0    0  0.00000000000E+00  0.00000000000E+00  0.50000000000E+03  0.50000000000E+03  0.00000000000E+00 0.  1.
         11   -1    0    0    0    0 -0.00000000000E+00 -0.00000000000E+00 -0.50000000000E+03  0.50000000000E+03  0.00000000000E+00 0.  1.
        -11    1    1    2    0    0  0.65469791076E+01 -0.19214893128E+01  0.48921700566E+03  0.48926458454E+03  0.00000000000E+00 0.  1.
         11    1    1    2    0    0  0.54655003713E+01 -0.19316653815E+02 -0.48285650547E+03  0.48327363852E+03  0.00000000000E+00 0.  1.
        -15    1    1    2    0    0 -0.11542438737E+00  0.34776030345E+01  0.20607925854E+01  0.44171982901E+01  0.17770000000E+01 0. -1.
         15    1    1    2    0    0 -0.11897055092E+02  0.17760540093E+02 -0.84212927724E+01  0.23044578651E+02  0.17770000000E+01 0.  1.
</event>
<event>
 6    1  0.1823098E-004  0.5014834E+03  0.7546771E-02  0.9396497E-01
        -11   -1    0    0    0    0  0.00000000000E+00  0.00000000000E+00  0.50000000000E+03  0.50000000000E+03  0.00000000000E+00 0.  1.
         11   -1    0    0    0    0 -0.00000000000E+00 -0.00000000000E+00 -0.50000000000E+03  0.50000000000E+03  0.00000000000E+00 0.  1.
        -11    1    1    2    0    0  0.28183881541E+00  0.72211396113E+01  0.49846421659E+03  0.49851659903E+03  0.00000000000E+00 0.  1.
         11    1    1    2    0    0  0.13910791974E+02 -0.15731625926E+02 -0.15242560167E+03  0.15386538997E+03  0.00000000000E+00 0.  1.
        -15    1    1    2    0    0 -0.10015062474E+02 -0.49178005303E+01 -0.50882324338E+02  0.52121539669E+02  0.17770000000E+01 0. -1.
         15    1    1    2    0    0 -0.41775683150E+01  0.13428286845E+02 -0.29515629058E+03  0.29549647132E+03  0.17770000000E+01 0.  1.
</event>
<event>
 6    1  0.1823098E-004  0.5001525E+03  0.7546771E-02  0.9399468E-01
        -11   -1    0    0    0    0  0.00000000000E+00  0.00000000000E+00  0.50000000000E+03  0.50000000000E+03  0.00000000000E+00 0.  1.
         11   -1    0    0    0    0 -0.00000000000E+00 -0.00000000000E+00 -0.50000000000E+03  0.50000000000E+03  0.00000000000E+00 0.  1.
        -11    1    1    2    0    0 -0.27017742593E+01 -0.41478752965E+01  0.21555472986E+03  0.21561156282E+03  0.00000000000E+00 0.  1.
         11    1    1    2    0    0 -0.92495345223E+01  0.66109613879E+01 -0.49971814337E+03  0.49984745824E+03  0.00000000000E+00 0.  1.
        -15    1    1    2    0    0  0.10824461014E+02 -0.25078093927E+00  0.18090503196E+03  0.18123746899E+03  0.17770000000E+01 0.  1.
         15    1    1    2    0    0  0.11268477680E+01 -0.22123051522E+01  0.10325838154E+03  0.10330350995E+03  0.17770000000E+01 0. -1.
</event>
<event>
 6    1  0.1823098E-004  0.5000268E+03  0.7546771E-02  0.9399750E-01
        -11   -1    0    0    0    0  0.00000000000E+00  0.00000000000E+00  0.50000000000E+03  0.50000000000E+03  0.00000000000E+00 0. -1.
         11   -1    0    0    0    0 -0.00000000000E+00 -0.00000000000E+00 -0.50000000000E+03  0.50000000000E+03  0.00000000000E+00 0.  1.
        -11    1    1    2    0    0 -0.57726732262E+01 -0.93273075618E+01  0.49985289979E+03  0.49997324314E+03  0.00000000000E+00 0. -1.
         11    1    1    2    0    0  0.44945109873E+00  0.28357676198E+01 -0.69876505259E+02  0.69935467192E+02  0.00000000000E+00 0.  1.
        -15    1    1    2    0    0  0.19544622964E+01  0.10465159623E+01 -0.77096865809E+02  0.77149203269E+02  0.17770000000E+01 0.  1.
         15    1    1    2    0    0  0.33687598311E+01  0.54450239797E+01 -0.35287952873E+03  0.35294208640E+03  0.17770000000E+01 0.  1.
</event>
<event>
 6    1  0.1823098E-004  0.5017049E+03  0.7546771E-02  0.9396003E-01
        -11   -1    0    0    0    0  0.00000000000E+00  0.00000000000E+00  0.50000000000E+03  0.50000000000E+03  0.00000000000E+00 0.  1.
         11   -1    0    0    0    0 -0.00000000000E+00 -0.00000000000E+00 -0.50000000000E+03  0.50000000000E+03  0.00000000000E+00 0. -1.
        -11    1    1    2    0    0  0.20899816750E+01 -0.92514764518E+01  0.49820480916E+03  0.49829508297E+03  0.00000000000E+00 0.  1.
         11    1    1    2    0    0 -0.14986158001E+02 -0.11670695222E+01 -0.38551594822E+03  0.38580888185E+03  0.00000000000E+00 0. -1.
        -15    1    1    2    0    0  0.12155491629E+02  0.48441140753E+00 -0.92497737619E+02  0.93311198818E+02  0.17770000000E+01 0.  1.
         15    1    1    2    0    0  0.74068469720E+00  0.99341345665E+01 -0.20191123324E+02  0.22584836362E+02  0.17770000000E+01 0. -1.
</event>
<event>
 6    1  0.1823098E-004  0.5037406E+03  0.7546771E-02  0.9391478E-01
        -11   -1    0    0    0    0  0.00000000000E+00  0.00000000000E+00  0.50000000000E+03  0.50000000000E+03  0.00000000000E+00 0. -1.
         11   -1    0    0    0    0 -0.00000000000E+00 -0.00000000000E+00 -0.50000000000E+03  0.50000000000E+03  0.00000000000E+00 0.  1.
        -11    1    1    2    0    0 -0.17013336410E+02 -0.14969823806E+02  0.49574168818E+03  0.49625937839E+03  0.00000000000E+00 0. -1.
         11    1    1    2    0    0  0.25694055698E+02  0.26458300816E+02 -0.47489871176E+03  0.47632868128E+03  0.00000000000E+00 0.  1.
        -15    1    1    2    0    0 -0.31511052605E+01  0.67937414056E+00 -0.18495183925E+01  0.41194005474E+01  0.17770000000E+01 0. -1.
         15    1    1    2    0    0 -0.55296140272E+01 -0.12167851151E+02 -0.18993458022E+02  0.23292539783E+02  0.17770000000E+01 0.  1.
</event>
<event>
 6    1  0.1823098E-004  0.5010316E+03  0.7546771E-02  0.9397504E-01
        -11   -1    0    0    0    0  0.00000000000E+00  0.00000000000E+00  0.50000000000E+03  0.50000000000E+03  0.00000000000E+00 0.  1.
         11   -1    0    0    0    0 -0.00000000000E+00 -0.00000000000E+00 -0.50000000000E+03  0.50000000000E+03  0.00000000000E+00 0. -1.
        -11    1    1    2    0    0 -0.73640403620E+01 -0.40926277656E+01  0.37773631778E+03  0.37783025879E+03  0.00000000000E+00 0.  1.
         11    1    1    2    0    0 -0.78396241831E+01 -0.27923672964E+01 -0.49889901031E+03  0.49896841535E+03  0.00000000000E+00 0. -1.
        -15    1    1    2    0    0  0.88477036056E+00  0.54143861579E+00  0.60164363108E+02  0.60199537304E+02  0.17770000000E+01 0. -1.
         15    1    1    2    0    0  0.14318894185E+02  0.63435564462E+01  0.60998329429E+02  0.63001788555E+02  0.17770000000E+01 0.  1.
</event>
<event>
 6    1  0.1823098E-004  0.5003947E+03  0.7546771E-02  0.9398927E-01
        -11   -1    0    0    0    0  0.00000000000E+00  0.00000000000E+00  0.50000000000E+03  0.50000000000E+03  0.00000000000E+00 0.  1.
         11   -1    0    0    0    0 -0.00000000000E+00 -0.00000000000E+00 -0.50000000000E+03  0.50000000000E+03  0.00000000000E+00 0.  1.
        -11    1    1    2    0    0  0.60179909608E+01 -0.10329480950E+02  0.49946229828E+03  0.49960534604E+03  0.00000000000E+00 0.  1.
         11    1    1    2    0    0  0.23620568385E+01  0.10457272424E+02 -0.94581560353E+02  0.95187212470E+02  0.00000000000E+00 0.  1.
        -15    1    1    2    0    0 -0.10901204075E+02 -0.52909755034E+00 -0.37544799492E+03  0.37561079699E+03  0.17770000000E+01 0.  1.
         15    1    1    2    0    0  0.25211562761E+01  0.40130607673E+00 -0.29432743006E+02  0.29596644496E+02  0.17770000000E+01 0. -1.
</event>
<event>
 6    1  0.1823098E-004  0.5041778E+03  0.7546771E-02  0.9390510E-01
        -11   -1    0    0    0    0  0.00000000000E+00  0.00000000000E+00  0.50000000000E+03  0.50000000000E+03  0.00000000000E+00 0.  1.
         11   -1    0    0    0    0 -0.00000000000E+00 -0.00000000000E+00 -0.50000000000E+03  0.50000000000E+03  0.00000000000E+00 0. -1.
        -11    1    1    2    0    0 -0.10476007268E+02 -0.52414886253E+01  0.48466115407E+03  0.48480269616E+03  0.00000000000E+00 0.  1.
         11    1    1    2    0    0  0.60150075317E+01 -0.55335893191E+01 -0.49575482375E+03  0.49582219212E+03  0.00000000000E+00 0. -1.
        -15    1    1    2    0    0 -0.58697512237E+00  0.75454070130E+01  0.10544408769E+02  0.13100381371E+02  0.17770000000E+01 0.  1.
         15    1    1    2    0    0  0.50479748582E+01  0.32296709314E+01  0.54926090585E+00  0.62747303558E+01  0.17770000000E+01 0. -1.
</event>
<event>
 6    1  0.1823098E-004  0.5001972E+03  0.7546771E-02  0.9399369E-01
        -11   -1    0    0    0    0  0.00000000000E+00  0.00000000000E+00  0.50000000000E+03  0.50000000000E+03  0.00000000000E+00 0. -1.
         11   -1    0    0    0    0 -0.00000000000E+00 -0.00000000000E+00 -0.50000000000E+03  0.50000000000E+03  0.00000000000E+00 0.  1.
        -11    1    1    2    0    0 -0.22849256406E+01 -0.31875939887E+02  0.26960521444E+03  0.27149266672E+03  0.00000000000E+00 0. -1.
         11    1    1    2    0    0  0.19619229111E+02  0.58938482081E+02 -0.49592757643E+03  0.49980278099E+03  0.00000000000E+00 0.  1.
        -15    1    1    2    0    0 -0.13990607422E+02 -0.19009198626E+02  0.17834735994E+03  0.17991115934E+03  0.17770000000E+01 0. -1.
         15    1    1    2    0    0 -0.33436960480E+01 -0.80533435681E+01  0.47975002045E+02  0.48793392955E+02  0.17770000000E+01 0. -1.
</event>
<event>
 6    1  0.1823098E-004  0.5012362E+03  0.7546771E-02  0.9397048E-01
        -11   -1    0    0    0    0  0.00000000000E+00  0.00000000000E+00  0.50000000000E+03  0.50000000000E+03  0.00000000000E+00 0.  1.
         11   -1    0    0    0    0 -0.00000000000E+00 -0.00000000000E+00 -0.50000000000E+03  0.50000000000E+03  0.00000000000E+00 0.  1.
        -11    1    1    2    0    0  0.11734623178E+02  0.11416113729E+01  0.38270204705E+03  0.38288361348E+03  0.00000000000E+00 0.  1.
         11    1    1    2    0    0  0.55489373181E+01  0.64998322347E+01 -0.49869058742E+03  0.49876381235E+03  0.00000000000E+00 0.  1.
        -15    1    1    2    0    0 -0.59500488601E+01 -0.66182077694E+01  0.81232646366E+02  0.81738022487E+02  0.17770000000E+01 0.  1.
         15    1    1    2    0    0 -0.11333511636E+02 -0.10232358381E+01  0.34755894011E+02  0.36614551685E+02  0.17770000000E+01 0. -1.
</event>
<event>
 6    1  0.1823098E-004  0.5000657E+03  0.7546771E-02  0.9399663E-01
        -11   -1    0    0    0    0  0.00000000000E+00  0.00000000000E+00  0.50000000000E+03  0.50000000000E+03  0.00000000000E+00 0. -1.
         11   -1    0    0    0    0 -0.00000000000E+00 -0.00000000000E+00 -0.50000000000E+03  0.50000000000E+03  0.00000000000E+00 0.  1.
        -11    1    1    2    0    0 -0.11497494400E+01 -0.10111524073E+02  0.49983071003E+03  0.49993429921E+03  0.00000000000E+00 0. -1.
         11    1    1    2    0    0  0.28593018748E+01  0.37744870781E+00 -0.41451402875E+02  0.41551616996E+02  0.00000000000E+00 0.  1.
        -15    1    1    2    0    0 -0.99877231381E+00  0.51846714238E+01 -0.16680200002E+03  0.16689500683E+03  0.17770000000E+01 0.  1.
         15    1    1    2    0    0 -0.71078012096E+00  0.45494039414E+01 -0.29157730713E+03  0.29161907696E+03  0.17770000000E+01 0. -1.
</event>
<event>
 6    1  0.1823098E-004  0.4839501E+03  0.7546771E-02  0.9436456E-01
        -11   -1    0    0    0    0  0.00000000000E+00  0.00000000000E+00  0.50000000000E+03  0.50000000000E+03  0.00000000000E+00 0. -1.
         11   -1    0    0    0    0 -0.00000000000E+00 -0.00000000000E+00 -0.50000000000E+03  0.50000000000E+03  0.00000000000E+00 0.  1.
        -11    1    1    2    0    0 -0.92220241690E+01 -0.34381518526E+00  0.49174127380E+03  0.49182786043E+03  0.00000000000E+00 0. -1.
         11    1    1    2    0    0 -0.24254875773E+01  0.22765615977E+02 -0.47598015210E+03  0.47653044127E+03  0.00000000000E+00 0.  1.
        -15    1    1    2    0    0  0.70796712918E+01 -0.18359942636E+02 -0.15764240067E+02  0.25276040693E+02  0.17770000000E+01 0.  1.
         15    1    1    2    0    0  0.45678404545E+01 -0.40618581553E+01  0.31183714297E-02  0.63656576106E+01  0.17770000000E+01 0. -1.
</event>
<event>
 6    1  0.1823098E-004  0.4561544E+03  0.7546771E-02  0.9503643E-01
        -11   -1    0    0    0    0  0.00000000000E+00  0.00000000000E+00  0.50000000000E+03  0.50000000000E+03  0.00000000000E+00 0. -1.
         11   -1    0    0    0    0 -0.00000000000E+00 -0.00000000000E+00 -0.50000000000E+03  0.50000000000E+03  0.00000000000E+00 0. -1.
        -11    1    1    2    0    0  0.45114191366E+01  0.62032238527E+01  0.48135501718E+03  0.48141612504E+03  0.00000000000E+00 0. -1.
         11    1    1    2    0    0 -0.49924165219E+02  0.40744793814E+02 -0.42987260103E+03  0.43467575687E+03  0.00000000000E+00 0. -1.
        -15    1    1    2    0    0  0.34446126949E+01 -0.67577887566E+01 -0.35526205726E+01  0.85622372911E+01  0.17770000000E+01 0.  1.
         15    1    1    2    0    0  0.41968133387E+02 -0.40190228910E+02 -0.47929795579E+02  0.75345880797E+02  0.17770000000E+01 0. -1.
</event>
<event>
 6    1  0.1823098E-004  0.5007769E+03  0.7546771E-02  0.9398073E-01
        -11   -1    0    0    0    0  0.00000000000E+00  0.00000000000E+00  0.50000000000E+03  0.50000000000E+03  0.00000000000E+00 0.  1.
         11   -1    0    0    0    0 -0.00000000000E+00 -0.00000000000E+00 -0.50000000000E+03  0.50000000000E+03  0.00000000000E+00 0.  1.
        -11    1    1    2    0    0  0.67114006627E+01 -0.29740917189E+01  0.49916915138E+03  0.49922312628E+03  0.00000000000E+00 0.  1.
         11    1    1    2    0    0 -0.13163083837E+02 -0.56594261375E+01 -0.40157784411E+03  0.40183337438E+03  0.00000000000E+00 0.  1.
        -15    1    1    2    0    0  0.85344372866E+01  0.96771697125E+01 -0.70392493377E+02  0.71587324899E+02  0.17770000000E+01 0. -1.
         15    1    1    2    0    0 -0.20827541119E+01 -0.10436518560E+01 -0.27198813895E+02  0.27356174444E+02  0.17770000000E+01 0.  1.
</event>
<event>
 6    1  0.1823098E-004  0.5015642E+03  0.7546771E-02  0.9396316E-01
        -11   -1    0    0    0    0  0.00000000000E+00  0.00000000000E+00  0.50000000000E+03  0.50000000000E+03  0.00000000000E+00 0. -1.
         11   -1    0    0    0    0 -0.00000000000E+00 -0.00000000000E+00 -0.50000000000E+03  0.50000000000E+03  0.00000000000E+00 0. -1.
        -11    1    1    2    0    0  0.10953845178E+01  0.93470058540E+01  0.49834693304E+03  0.49843578529E+03  0.00000000000E+00 0. -1.
         11    1    1    2    0    0  0.89009841080E+01 -0.63116230176E+01 -0.47692788330E+03  0.47705269098E+03  0.00000000000E+00 0. -1.
        -15    1    1    2    0    0 -0.13197285997E+01 -0.18649085649E+01 -0.40280814261E+01  0.49601145660E+01  0.17770000000E+01 0. -1.
         15    1    1    2    0    0 -0.86766400261E+01 -0.11704742715E+01 -0.17390968322E+02  0.19551409165E+02  0.17770000000E+01 0.  1.
</event>
<event>
 6    1  0.1823098E-004  0.5033982E+03  0.7546771E-02  0.9392238E-01
        -11   -1    0    0    0    0  0.00000000000E+00  0.00000000000E+00  0.50000000000E+03  0.50000000000E+03  0.00000000000E+00 0. -1.
         11   -1    0    0    0    0 -0.00000000000E+00 -0.00000000000E+00 -0.50000000000E+03  0.50000000000E+03  0.00000000000E+00 0. -1.
        -11    1    1    2    0    0  0.77445236551E+01  0.54870420132E+01  0.45347177782E+03  0.45357109537E+03  0.00000000000E+00 0. -1.
         11    1    1    2    0    0 -0.13678406510E+02  0.11931951008E+02 -0.49626998530E+03  0.49660182094E+03  0.00000000000E+00 0. -1.
        -15    1    1    2    0    0  0.23533270040E+01 -0.74664470299E+00 -0.65692281628E+00  0.31120576613E+01  0.17770000000E+01 0. -1.
         15    1    1    2    0    0  0.35805558514E+01 -0.16672348318E+02  0.43455130292E+02  0.46715026023E+02  0.17770000000E+01 0.  1.
</event>
<event>
 6    1  0.1823098E-004  0.5017962E+03  0.7546771E-02  0.9395799E-01
        -11   -1    0    0    0    0  0.00000000000E+00  0.00000000000E+00  0.50000000000E+03  0.50000000000E+03  0.00000000000E+00 0. -1.
         11   -1    0    0    0    0 -0.00000000000E+00 -0.00000000000E+00 -0.50000000000E+03  0.50000000000E+03  0.00000000000E+00 0. -1.
        -11    1    1    2    0    0 -0.31585128040E+01  0.77414451046E+01  0.45984981412E+03  0.45992581763E+03  0.00000000000E+00 0. -1.
         11    1    1    2    0    0 -0.33515735371E+01  0.60023523406E+01 -0.49815633021E+03  0.49820376415E+03  0.00000000000E+00 0. -1.
        -15    1    1    2    0    0  0.71744230487E+01 -0.12581531071E+02  0.34540989702E+02  0.37496732775E+02  0.17770000000E+01 0. -1.
         15    1    1    2    0    0 -0.66433670766E+00 -0.11622663744E+01  0.37655263935E+01  0.43736854489E+01  0.17770000000E+01 0.  1.
</event>
<event>
 6    1  0.1823098E-004  0.5087863E+03  0.7546771E-02  0.9380361E-01
        -11   -1    0    0    0    0  0.00000000000E+00  0.00000000000E+00  0.50000000000E+03  0.50000000000E+03  0.00000000000E+00 0. -1.
         11   -1    0    0    0    0 -0.00000000000E+00 -0.00000000000E+00 -0.50000000000E+03  0.50000000000E+03  0.00000000000E+00 0. -1.
        -11    1    1    2    0    0  0.60188520873E+01  0.34075576333E+01  0.49116497583E+03  0.49121367195E+03  0.00000000000E+00 0. -1.
         11    1    1    2    0    0 -0.50868116304E+02 -0.37133721478E+02 -0.31378754522E+03  0.32004546874E+03  0.00000000000E+00 0. -1.
        -15    1    1    2    0    0  0.40801848849E+02  0.18048545941E+02 -0.97760160737E+02  0.10747440456E+03  0.17770000000E+01 0.  1.
         15    1    1    2    0    0  0.40474153680E+01  0.15677617904E+02 -0.79617269880E+02  0.81266454743E+02  0.17770000000E+01 0. -1.
</event>
<event>
 6    1  0.1823098E-004  0.5002125E+03  0.7546771E-02  0.9399334E-01
        -11   -1    0    0    0    0  0.00000000000E+00  0.00000000000E+00  0.50000000000E+03  0.50000000000E+03  0.00000000000E+00 0.  1.
         11   -1    0    0    0    0 -0.00000000000E+00 -0.00000000000E+00 -0.50000000000E+03  0.50000000000E+03  0.00000000000E+00 0.  1.
        -11    1    1    2    0    0  0.42747277432E+01  0.29708163786E+01  0.23822346550E+03  0.23828033608E+03  0.00000000000E+00 0.  1.
         11    1    1    2    0    0 -0.62902811149E+00  0.95108118799E+01 -0.49969656468E+03  0.49978746280E+03  0.00000000000E+00 0.  1.
        -15    1    1    2    0    0 -0.19314867089E+01 -0.37721842861E+01  0.15711675387E+03  0.15718394349E+03  0.17770000000E+01 0.  1.
         15    1    1    2    0    0 -0.17142129228E+01 -0.87094439724E+01  0.10435634532E+03  0.10474825763E+03  0.17770000000E+01 0. -1.
</event>
<event>
 6    1  0.1823098E-004  0.5044308E+03  0.7546771E-02  0.9389950E-01
        -11   -1    0    0    0    0  0.00000000000E+00  0.00000000000E+00  0.50000000000E+03  0.50000000000E+03  0.00000000000E+00 0. -1.
         11   -1    0    0    0    0 -0.00000000000E+00 -0.00000000000E+00 -0.50000000000E+03  0.50000000000E+03  0.00000000000E+00 0.  1.
        -11    1    1    2    0    0  0.84837180833E+01  0.86122802619E+00  0.49549582987E+03  0.49556920062E+03  0.00000000000E+00 0. -1.
         11    1    1    2    0    0  0.10181156985E+02 -0.87438876501E+01 -0.46787611956E+03  0.46806855778E+03  0.00000000000E+00 0.  1.
        -15    1    1    2    0    0 -0.18494171349E+02  0.90342147800E+01 -0.27265681578E+02  0.34208573947E+02  0.17770000000E+01 0.  1.
         15    1    1    2    0    0 -0.17070371916E+00 -0.11515551560E+01 -0.35402873079E+00  0.21536676576E+01  0.17770000000E+01 0. -1.
</event>
<event>
 6    1  0.1823098E-004  0.5000850E+03  0.7546771E-02  0.9399620E-01
        -11   -1    0    0    0    0  0.00000000000E+00  0.00000000000E+00  0.50000000000E+03  0.50000000000E+03  0.00000000000E+00 0.  1.
         11   -1    0    0    0    0 -0.00000000000E+00 -0.00000000000E+00 -0.50000000000E+03  0.50000000000E+03  0.00000000000E+00 0. -1.
        -11    1    1    2    0    0  0.27919336306E+01 -0.74319299830E+01  0.49985198720E+03  0.49991503036E+03  0.00000000000E+00 0.  1.
         11    1    1    2    0    0  0.23856146209E+01  0.80948783305E+01 -0.30419346596E+03  0.30431050417E+03  0.00000000000E+00 0. -1.
        -15    1    1    2    0    0 -0.40817580446E+01 -0.11321166497E+01 -0.13639568405E+03  0.13647301122E+03  0.17770000000E+01 0. -1.
         15    1    1    2    0    0 -0.10957902069E+01  0.46916830233E+00 -0.59262837188E+02  0.59301454246E+02  0.17770000000E+01 0.  1.
</event>
<event>
 6    1  0.1823098E-004  0.5000437E+03  0.7546771E-02  0.9399712E-01
        -11   -1    0    0    0    0  0.00000000000E+00  0.00000000000E+00  0.50000000000E+03  0.50000000000E+03  0.00000000000E+00 0.  1.
         11   -1    0    0    0    0 -0.00000000000E+00 -0.00000000000E+00 -0.50000000000E+03  0.50000000000E+03  0.00000000000E+00 0. -1.
        -11    1    1    2    0    0 -0.41462587085E+01 -0.64668954567E+01  0.49989731869E+03  0.49995633953E+03  0.00000000000E+00 0.  1.
         11    1    1    2    0    0 -0.83608813346E+00  0.51290217889E+00 -0.22259383583E+02  0.22280984483E+02  0.00000000000E+00 0. -1.
        -15    1    1    2    0    0  0.32748868746E+00  0.20677617587E+01 -0.48136766768E+02  0.48215028066E+02  0.17770000000E+01 0.  1.
         15    1    1    2    0    0  0.46548581545E+01  0.38862315191E+01 -0.42950116834E+03  0.42954764792E+03  0.17770000000E+01 0. -1.
</event>
<event>
 6    1  0.1823098E-004  0.5006855E+03  0.7546771E-02  0.9398277E-01
        -11   -1    0    0    0    0  0.00000000000E+00  0.00000000000E+00  0.50000000000E+03  0.50000000000E+03  0.00000000000E+00 0. -1.
         11   -1    0    0    0    0 -0.00000000000E+00 -0.00000000000E+00 -0.50000000000E+03  0.50000000000E+03  0.00000000000E+00 0. -1.
        -11    1    1    2    0    0  0.48116083534E+01  0.47408909678E+01  0.49926877576E+03  0.49931446812E+03  0.00000000000E+00 0. -1.
         11    1    1    2    0    0 -0.34174769209E+01  0.75538201331E+01 -0.43026075535E+03  0.43034062897E+03  0.00000000000E+00 0. -1.
        -15    1    1    2    0    0 -0.13340820378E+01 -0.28940433839E+01 -0.27937313917E+02  0.28174571867E+02  0.17770000000E+01 0. -1.
         15    1    1    2    0    0 -0.60049394729E-01 -0.94006677169E+01 -0.41070706493E+02  0.42170331044E+02  0.17770000000E+01 0.  1.
</event>
<event>
 6    1  0.1823098E-004  0.5055098E+03  0.7546771E-02  0.9387565E-01
        -11   -1    0    0    0    0  0.00000000000E+00  0.00000000000E+00  0.50000000000E+03  0.50000000000E+03  0.00000000000E+00 0.  1.
         11   -1    0    0    0    0 -0.00000000000E+00 -0.00000000000E+00 -0.50000000000E+03  0.50000000000E+03  0.00000000000E+00 0. -1.
        -11    1    1    2    0    0 -0.50987362212E+01 -0.17774042649E+02  0.49414434549E+03  0.49449018987E+03  0.00000000000E+00 0.  1.
         11    1    1    2    0    0  0.23556438303E+02  0.84015168123E+01 -0.46661734197E+03  0.46728710136E+03  0.00000000000E+00 0. -1.
        -15    1    1    2    0    0 -0.14766184674E+01  0.90816933945E+01 -0.84341285426E+01  0.12607529904E+02  0.17770000000E+01 0. -1.
         15    1    1    2    0    0 -0.16981083614E+02  0.29083244262E+00 -0.19092874979E+02  0.25615178863E+02  0.17770000000E+01 0.  1.
</event>
<event>
 6    1  0.1823098E-004  0.4744256E+03  0.7546771E-02  0.9458926E-01
        -11   -1    0    0    0    0  0.00000000000E+00  0.00000000000E+00  0.50000000000E+03  0.50000000000E+03  0.00000000000E+00 0.  1.
         11   -1    0    0    0    0 -0.00000000000E+00 -0.00000000000E+00 -0.50000000000E+03  0.50000000000E+03  0.00000000000E+00 0. -1.
        -11    1    1    2    0    0  0.10093075959E+02  0.57440100177E+01  0.46910867620E+03  0.46925239895E+03  0.00000000000E+00 0.  1.
         11    1    1    2    0    0 -0.30357815651E+02  0.32247541562E+02 -0.47857753227E+03  0.48062246649E+03  0.00000000000E+00 0. -1.
        -15    1    1    2    0    0  0.81860829428E+01 -0.20114659390E+02  0.16535337847E+02  0.27352999891E+02  0.17770000000E+01 0. -1.
         15    1    1    2    0    0  0.12078656749E+02 -0.17876892190E+02 -0.70664817858E+01  0.22772134662E+02  0.17770000000E+01 0.  1.
</event>
<event>
 6    1  0.1823098E-004  0.5070611E+03  0.7546771E-02  0.9384147E-01
        -11   -1    0    0    0    0  0.00000000000E+00  0.00000000000E+00  0.50000000000E+03  0.50000000000E+03  0.00000000000E+00 0. -1.
         11   -1    0    0    0    0 -0.00000000000E+00 -0.00000000000E+00 -0.50000000000E+03  0.50000000000E+03  0.00000000000E+00 0. -1.
        -11    1    1    2    0    0  0.14395940774E+02  0.62923333565E+00  0.49272825115E+03  0.49293890953E+03  0.00000000000E+00 0. -1.
         11    1    1    2    0    0  0.75012689462E+01  0.97339436814E+01 -0.46891405970E+03  0.46907506231E+03  0.00000000000E+00 0. -1.
        -15    1    1    2    0    0 -0.14641297460E+02 -0.23241869309E+01 -0.41994920243E+01  0.15510090215E+02  0.17770000000E+01 0.  1.
         15    1    1    2    0    0 -0.72559122595E+01 -0.80389900861E+01 -0.19614699422E+02  0.22475937950E+02  0.17770000000E+01 0. -1.
</event>
<event>
 6    1  0.1823098E-004  0.5041461E+03  0.7546771E-02  0.9390580E-01
        -11   -1    0    0    0    0  0.00000000000E+00  0.00000000000E+00  0.50000000000E+03  0.50000000000E+03  0.00000000000E+00 0.  1.
         11   -1    0    0    0    0 -0.00000000000E+00 -0.00000000000E+00 -0.50000000000E+03  0.50000000000E+03  0.00000000000E+00 0. -1.
        -11    1    1    2    0    0 -0.46294690641E+01  0.82549371081E+01  0.47894624941E+03  0.47903975388E+03  0.00000000000E+00 0.  1.
         11    1    1    2    0    0 -0.47319464531E+01  0.56444941764E+01 -0.49579916642E+03  0.49585387470E+03  0.00000000000E+00 0. -1.
        -15    1    1    2    0    0  0.59148362636E+01 -0.11848973386E+02  0.89964117693E+01  0.16108277749E+02  0.17770000000E+01 0. -1.
         15    1    1    2    0    0  0.34465792536E+01 -0.20504578989E+01  0.78565052407E+01  0.89980936728E+01  0.17770000000E+01 0.  1.
</event>
<event>
 6    1  0.1823098E-004  0.4960452E+03  0.7546771E-02  0.9408703E-01
        -11   -1    0    0    0    0  0.00000000000E+00  0.00000000000E+00  0.50000000000E+03  0.50000000000E+03  0.00000000000E+00 0.  1.
         11   -1    0    0    0    0 -0.00000000000E+00 -0.00000000000E+00 -0.50000000000E+03  0.50000000000E+03  0.00000000000E+00 0.  1.
        -11    1    1    2    0    0 -0.69248039912E+01  0.11536717826E+01  0.49743018277E+03  0.49747971878E+03  0.00000000000E+00 0.  1.
         11    1    1    2    0    0  0.44434013583E+01 -0.54381565381E+01 -0.49457733538E+03  0.49462719095E+03  0.00000000000E+00 0.  1.
        -15    1    1    2    0    0  0.23705902611E+01  0.18732602156E+01  0.33043688448E+00  0.35207555377E+01  0.17770000000E+01 0.  1.
         15    1    1    2    0    0  0.11081237174E+00  0.24112245399E+01 -0.31832842770E+01  0.43723347255E+01  0.17770000000E+01 0. -1.
</event>
<event>
 6    1  0.1823098E-004  0.5070713E+03  0.7546771E-02  0.9384125E-01
        -11   -1    0    0    0    0  0.00000000000E+00  0.00000000000E+00  0.50000000000E+03  0.50000000000E+03  0.00000000000E+00 0. -1.
         11   -1    0    0    0    0 -0.00000000000E+00 -0.00000000000E+00 -0.50000000000E+03  0.50000000000E+03  0.00000000000E+00 0.  1.
        -11    1    1    2    0    0 -0.26682212197E+02  0.11964087361E+02  0.49206062070E+03  0.49292873144E+03  0.00000000000E+00 0. -1.
         11    1    1    2    0    0  0.52815263430E+02  0.16232408929E+01 -0.45212214675E+03  0.45519943162E+03  0.00000000000E+00 0.  1.
        -15    1    1    2    0    0 -0.14025741456E+02  0.81249992834E-01 -0.12538397488E+02  0.18897014725E+02  0.17770000000E+01 0. -1.
         15    1    1    2    0    0 -0.12107309776E+02 -0.13668578247E+02 -0.27400076461E+02  0.32974822219E+02  0.17770000000E+01 0.  1.
</event>
<event>
 6    1  0.1823098E-004  0.5006018E+03  0.7546771E-02  0.9398464E-01
        -11   -1    0    0    0    0  0.00000000000E+00  0.00000000000E+00  0.50000000000E+03  0.50000000000E+03  0.00000000000E+00 0.  1.
         11   -1    0    0    0    0 -0.00000000000E+00 -0.00000000000E+00 -0.50000000000E+03  0.50000000000E+03  0.00000000000E+00 0.  1.
        -11    1    1    2    0    0 -0.14086311633E+01 -0.61120739811E+01  0.45567261230E+03  0.45571577906E+03  0.00000000000E+00 0.  1.
         11    1    1    2    0    0  0.44880188615E+01  0.68025522529E+01 -0.49933173432E+03  0.49939823581E+03  0.00000000000E+00 0.  1.
        -15    1    1    2    0    0 -0.38946612811E+01 -0.17325106697E+00  0.42138444328E+02  0.42355691728E+02  0.17770000000E+01 0.  1.
         15    1    1    2    0    0  0.81527358293E+00 -0.51722720482E+00  0.15206776986E+01  0.25302933940E+01  0.17770000000E+01 0. -1.
</event>
<event>
 6    1  0.1823098E-004  0.4875678E+03  0.7546771E-02  0.9428065E-01
        -11   -1    0    0    0    0  0.00000000000E+00  0.00000000000E+00  0.50000000000E+03  0.50000000000E+03  0.00000000000E+00 0.  1.
         11   -1    0    0    0    0 -0.00000000000E+00 -0.00000000000E+00 -0.50000000000E+03  0.50000000000E+03  0.00000000000E+00 0. -1.
        -11    1    1    2    0    0  0.23827045685E+01 -0.82493166211E+01  0.48268355993E+03  0.48275992743E+03  0.00000000000E+00 0.  1.
         11    1    1    2    0    0 -0.47339389542E+01 -0.87388280985E+01 -0.49247544286E+03  0.49257571917E+03  0.00000000000E+00 0. -1.
        -15    1    1    2    0    0 -0.18313436972E+00 -0.73308336395E+00  0.59684121344E+01  0.62730073985E+01  0.17770000000E+01 0.  1.
         15    1    1    2    0    0  0.25343687554E+01  0.17721228084E+02  0.38234707959E+01  0.18391346000E+02  0.17770000000E+01 0. -1.
</event>
<event>
 6    1  0.1823098E-004  0.5018986E+03  0.7546771E-02  0.9395571E-01
        -11   -1    0    0    0    0  0.00000000000E+00  0.00000000000E+00  0.50000000000E+03  0.50000000000E+03  0.00000000000E+00 0. -1.
         11   -1    0    0    0    0 -0.00000000000E+00 -0.00000000000E+00 -0.50000000000E+03  0.50000000000E+03  0.00000000000E+00 0.  1.
        -11    1    1    2    0    0  0.22892722482E+02 -0.27606817727E+02  0.49680855846E+03  0.49810135202E+03  0.00000000000E+00 0. -1.
         11    1    1    2    0    0 -0.51647111095E+01  0.42337104764E+02 -0.26618715129E+03  0.26958246269E+03  0.00000000000E+00 0.  1.
        -15    1    1    2    0    0 -0.33979993919E+01 -0.63195583322E+01 -0.13810712487E+03  0.13830480428E+03  0.17770000000E+01 0. -1.
         15    1    1    2    0    0 -0.14330011981E+02 -0.84107287043E+01 -0.92514282302E+02  0.94011381011E+02  0.17770000000E+01 0.  1.
</event>
<event>
 6    1  0.1823098E-004  0.5034310E+03  0.7546771E-02  0.9392165E-01
        -11   -1    0    0    0    0  0.00000000000E+00  0.00000000000E+00  0.50000000000E+03  0.50000000000E+03  0.00000000000E+00 0.  1.
         11   -1    0    0    0    0 -0.00000000000E+00 -0.00000000000E+00 -0.50000000000E+03  0.50000000000E+03  0.00000000000E+00 0.  1.
        -11    1    1    2    0    0  0.72336791785E+01 -0.50650671537E+01  0.47423958425E+03  0.47432179403E+03  0.00000000000E+00 0.  1.
         11    1    1    2    0    0 -0.72913836562E+01  0.70413512957E+01 -0.49646555275E+03  0.49656901833E+03  0.00000000000E+00 0.  1.
        -15    1    1    2    0    0  0.33210629218E+01 -0.72406150327E+01  0.27780097921E+01  0.86215446637E+01  0.17770000000E+01 0. -1.
         15    1    1    2    0    0 -0.32633584440E+01  0.52643308907E+01  0.19447958702E+02  0.20487642976E+02  0.17770000000E+01 0.  1.
</event>
<event>
 6    1  0.1823098E-004  0.5040880E+03  0.7546771E-02  0.9390709E-01
        -11   -1    0    0    0    0  0.00000000000E+00  0.00000000000E+00  0.50000000000E+03  0.50000000000E+03  0.00000000000E+00 0. -1.
         11   -1    0    0    0    0 -0.00000000000E+00 -0.00000000000E+00 -0.50000000000E+03  0.50000000000E+03  0.00000000000E+00 0. -1.
        -11    1    1    2    0    0 -0.14565846310E+02 -0.90204989800E+01  0.42373034041E+03  0.42407656699E+03  0.00000000000E+00 0. -1.
         11    1    1    2    0    0  0.11496955195E+02 -0.19888751772E+02 -0.49537960325E+03  0.49591198185E+03  0.00000000000E+00 0. -1.
        -15    1    1    2    0    0  0.11495186072E+02  0.19680378131E+02  0.49339580913E+02  0.54378383204E+02  0.17770000000E+01 0. -1.
         15    1    1    2    0    0 -0.84262949568E+01  0.92288726210E+01  0.22309681922E+02  0.25633067959E+02  0.17770000000E+01 0.  1.
</event>
<event>
 6    1  0.1823098E-004  0.4681202E+03  0.7546771E-02  0.9474112E-01
        -11   -1    0    0    0    0  0.00000000000E+00  0.00000000000E+00  0.50000000000E+03  0.50000000000E+03  0.00000000000E+00 0.  1.
         11   -1    0    0    0    0 -0.00000000000E+00 -0.00000000000E+00 -0.50000000000E+03  0.50000000000E+03  0.00000000000E+00 0. -1.
        -11    1    1    2    0    0 -0.68411360255E+01 -0.86379367328E+01  0.45806837191E+03  0.45820088219E+03  0.00000000000E+00 0.  1.
         11    1    1    2    0    0 -0.35641659297E+02  0.31442583323E+02 -0.47711229595E+03  0.47947378121E+03  0.00000000000E+00 0. -1.
        -15    1    1    2    0    0  0.41290487638E+01 -0.12400220264E+02  0.18275717577E+02  0.22538280508E+02  0.17770000000E+01 0. -1.
         15    1    1    2    0    0  0.38353746558E+02 -0.10404426326E+02  0.76820646701E+00  0.39787056091E+02  0.17770000000E+01 0.  1.
</event>
<event>
 6    1  0.1823098E-004  0.5003066E+03  0.7546771E-02  0.9399124E-01
        -11   -1    0    0    0    0  0.00000000000E+00  0.00000000000E+00  0.50000000000E+03  0.50000000000E+03  0.00000000000E+00 0.  1.
         11   -1    0    0    0    0 -0.00000000000E+00 -0.00000000000E+00 -0.50000000000E+03  0.50000000000E+03  0.00000000000E+00 0.  1.
        -11    1    1    2    0    0  0.53729855001E+01  0.62662780262E+01  0.49962520458E+03  0.49969338626E+03  0.00000000000E+00 0.  1.
         11    1    1    2    0    0  0.22181285862E+01 -0.13568906355E+02 -0.21913431358E+03  0.21956521287E+03  0.00000000000E+00 0.  1.
        -15    1    1    2    0    0 -0.54868208165E+01  0.38270073156E+01 -0.20789313513E+03  0.20800832808E+03  0.17770000000E+01 0.  1.
         15    1    1    2    0    0 -0.21042932698E+01  0.34756210136E+01 -0.72597755875E+02  0.72733072798E+02  0.17770000000E+01 0. -1.
</event>
<event>
 6    1  0.1823098E-004  0.5011543E+03  0.7546771E-02  0.9397231E-01
        -11   -1    0    0    0    0  0.00000000000E+00  0.00000000000E+00  0.50000000000E+03  0.50000000000E+03  0.00000000000E+00 0. -1.
         11   -1    0    0    0    0 -0.00000000000E+00 -0.00000000000E+00 -0.50000000000E+03  0.50000000000E+03  0.00000000000E+00 0.  1.
        -11    1    1    2    0    0 -0.49170790865E+01 -0.50859454365E+01  0.44337342882E+03  0.44342986130E+03  0.00000000000E+00 0. -1.
         11    1    1    2    0    0  0.37880869948E+01 -0.70788161928E+01 -0.49878108804E+03  0.49884570062E+03  0.00000000000E+00 0.  1.
        -15    1    1    2    0    0 -0.27197396556E+01  0.87971363522E+00  0.20956150171E+02  0.21224722351E+02  0.17770000000E+01 0. -1.
         15    1    1    2    0    0  0.38487317474E+01  0.11285047994E+02  0.34451509043E+02  0.36499715734E+02  0.17770000000E+01 0.  1.
</event>
<event>
 6    1  0.1823098E-004  0.5002256E+03  0.7546771E-02  0.9399305E-01
        -11   -1    0    0    0    0  0.00000000000E+00  0.00000000000E+00  0.50000000000E+03  0.50000000000E+03  0.00000000000E+00 0.  1.
         11   -1    0    0    0    0 -0.00000000000E+00 -0.00000000000E+00 -0.50000000000E+03  0.50000000000E+03  0.00000000000E+00 0.  1.
        -11    1    1    2    0    0  0.74264788203E+01 -0.61843112677E+01  0.49968093067E+03  0.49977437987E+03  0.00000000000E+00 0.  1.
         11    1    1    2    0    0 -0.70998664602E+01 -0.55224858223E+01 -0.16873129137E+03  0.16897086921E+03  0.00000000000E+00 0.  1.
        -15    1    1    2    0    0 -0.15329181728E+01  0.12169138179E+00 -0.69573220204E+02  0.69612896402E+02  0.17770000000E+01 0.  1.
         15    1    1    2    0    0  0.12063058127E+01  0.11585105708E+02 -0.26137641910E+03  0.26164185452E+03  0.17770000000E+01 0.  1.
</event>
<event>
 6    1  0.1823098E-004  0.5006555E+03  0.7546771E-02  0.9398344E-01
        -11   -1    0    0    0    0  0.00000000000E+00  0.00000000000E+00  0.50000000000E+03  0.50000000000E+03  0.00000000000E+00 0. -1.
         11   -1    0    0    0    0 -0.00000000000E+00 -0.00000000000E+00 -0.50000000000E+03  0.50000000000E+03  0.00000000000E+00 0.  1.
        -11    1    1    2    0    0  0.22430651852E+01 -0.86390183085E+01  0.49926475096E+03  0.49934452589E+03  0.00000000000E+00 0. -1.
         11    1    1    2    0    0 -0.10253964073E+02 -0.66845206825E+01 -0.35593301316E+03  0.35614342118E+03  0.00000000000E+00 0.  1.
        -15    1    1    2    0    0  0.64014012532E+01  0.84341024587E+01 -0.70027360025E+02  0.70845613155E+02  0.17770000000E+01 0. -1.
         15    1    1    2    0    0  0.16094976345E+01  0.68894365323E+01 -0.73304377782E+02  0.73666439777E+02  0.17770000000E+01 0.  1.
</event>
<event>
 6    1  0.1823098E-004  0.5013009E+03  0.7546771E-02  0.9396904E-01
        -11   -1    0    0    0    0  0.00000000000E+00  0.00000000000E+00  0.50000000000E+03  0.50000000000E+03  0.00000000000E+00 0. -1.
         11   -1    0    0    0    0 -0.00000000000E+00 -0.00000000000E+00 -0.50000000000E+03  0.50000000000E+03  0.00000000000E+00 0.  1.
        -11    1    1    2    0    0  0.28407450429E+01 -0.23296845991E+02  0.49814652584E+03  0.49869908168E+03  0.00000000000E+00 0. -1.
         11    1    1    2    0    0  0.14468476430E+02 -0.55586101418E+01 -0.14138596348E+03  0.14223299767E+03  0.00000000000E+00 0.  1.
        -15    1    1    2    0    0 -0.46772020856E+01  0.25096044842E+02 -0.18029924104E+03  0.18210618258E+03  0.17770000000E+01 0.  1.
         15    1    1    2    0    0 -0.12632019387E+02  0.37594112911E+01 -0.17646132132E+03  0.17696173806E+03  0.17770000000E+01 0. -1.
</event>
<event>
 6    1  0.1823098E-004  0.5020889E+03  0.7546771E-02  0.9395148E-01
        -11   -1    0    0    0    0  0.00000000000E+00  0.00000000000E+00  0.50000000000E+03  0.50000000000E+03  0.00000000000E+00 0.  1.
         11   -1    0    0    0    0 -0.00000000000E+00 -0.00000000000E+00 -0.50000000000E+03  0.50000000000E+03  0.00000000000E+00 0. -1.
        -11    1    1    2    0    0 -0.66625990334E+01  0.15523905387E+01  0.49786405522E+03  0.49791105393E+03  0.00000000000E+00 0.  1.
         11    1    1    2    0    0  0.65293669268E+01 -0.16128966182E+02 -0.46335037209E+03  0.46367698185E+03  0.00000000000E+00 0. -1.
        -15    1    1    2    0    0 -0.17742024874E+01  0.11330736797E+02 -0.18279725612E+02  0.21652701639E+02  0.17770000000E+01 0.  1.
         15    1    1    2    0    0  0.19074345940E+01  0.32458388467E+01 -0.16233957524E+02  0.16759262586E+02  0.17770000000E+01 0. -1.
</event>
<event>
 6    1  0.1823098E-004  0.5104089E+03  0.7546771E-02  0.9376815E-01
        -11   -1    0    0    0    0  0.00000000000E+00  0.00000000000E+00  0.50000000000E+03  0.50000000000E+03  0.00000000000E+00 0. -1.
         11   -1    0    0    0    0 -0.00000000000E+00 -0.00000000000E+00 -0.50000000000E+03  0.50000000000E+03  0.00000000000E+00 0.  1.
        -11    1    1    2    0    0 -0.26612133478E+02 -0.14455285029E+01  0.40699458190E+03  0.40786625859E+03  0.00000000000E+00 0. -1.
         11    1    1    2    0    0 -0.23064287892E+02  0.27777908431E+02 -0.48825796211E+03  0.48959106521E+03  0.00000000000E+00 0.  1.
        -15    1    1    2    0    0  0.46626930185E+01 -0.59331091983E+01  0.31294274385E+02  0.32240220676E+02  0.17770000000E+01 0. -1.
         15    1    1    2    0    0  0.45013728352E+02 -0.20399270730E+02  0.49969105828E+02  0.70302455524E+02  0.17770000000E+01 0.  1.
</event>
<event>
 6    1  0.1823098E-004  0.5001386E+03  0.7546771E-02  0.9399500E-01
        -11   -1    0    0    0    0  0.00000000000E+00  0.00000000000E+00  0.50000000000E+03  0.50000000000E+03  0.00000000000E+00 0. -1.
         11   -1    0    0    0    0 -0.00000000000E+00 -0.00000000000E+00 -0.50000000000E+03  0.50000000000E+03  0.00000000000E+00 0. -1.
        -11    1    1    2    0    0 -0.47518785272E+01  0.14328519932E+01  0.26389344414E+03  0.26394011305E+03  0.00000000000E+00 0. -1.
         11    1    1    2    0    0  0.13119188569E+02 -0.10699399149E+01 -0.49968808584E+03  0.49986142181E+03  0.00000000000E+00 0. -1.
        -15    1    1    2    0    0 -0.83940118875E+01 -0.41920527664E+01  0.15552404462E+03  0.15581694043E+03  0.17770000000E+01 0. -1.
         15    1    1    2    0    0  0.26701845949E-01  0.38291406881E+01  0.80270597075E+02  0.80381524713E+02  0.17770000000E+01 0.  1.
</event>
<event>
 6    1  0.1823098E-004  0.5004227E+03  0.7546771E-02  0.9398864E-01
        -11   -1    0    0    0    0  0.00000000000E+00  0.00000000000E+00  0.50000000000E+03  0.50000000000E+03  0.00000000000E+00 0. -1.
         11   -1    0    0    0    0 -0.00000000000E+00 -0.00000000000E+00 -0.50000000000E+03  0.50000000000E+03  0.00000000000E+00 0.  1.
        -11    1    1    2    0    0 -0.90056162692E+01  0.33558625571E+00  0.25722830580E+03  0.25738612054E+03  0.00000000000E+00 0. -1.
         11    1    1    2    0    0 -0.44530660881E+01 -0.80170842081E+01 -0.49949308590E+03  0.49957726759E+03  0.00000000000E+00 0.  1.
        -15    1    1    2    0    0  0.11540308899E+02  0.98851408263E+01  0.16866004483E+03  0.16935248209E+03  0.17770000000E+01 0. -1.
         15    1    1    2    0    0  0.19183734584E+01 -0.22036428740E+01  0.73604735269E+02  0.73684129781E+02  0.17770000000E+01 0.  1.
</event>
<event>
 6    1  0.1823098E-004  0.5015601E+03  0.7546771E-02  0.9396326E-01
        -11   -1    0    0    0    0  0.00000000000E+00  0.00000000000E+00  0.50000000000E+03  0.50000000000E+03  0.00000000000E+00 0.  1.
         11   -1    0    0    0    0 -0.00000000000E+00 -0.00000000000E+00 -0.50000000000E+03  0.50000000000E+03  0.00000000000E+00 0. -1.
        -11    1    1    2    0    0 -0.36787297664E+01  0.77595830455E+01  0.49836594790E+03  0.49843992838E+03  0.00000000000E+00 0.  1.
         11    1    1    2    0    0 -0.13237173878E+02 -0.10223024194E+02 -0.40604648716E+03  0.40639080050E+03  0.00000000000E+00 0. -1.
        -15    1    1    2    0    0  0.47229130910E+01 -0.41996172864E+01 -0.12392386422E+02  0.14023967471E+02  0.17770000000E+01 0. -1.
         15    1    1    2    0    0  0.12192990553E+02  0.66630584354E+01 -0.79927074316E+02  0.81145303648E+02  0.17770000000E+01 0.  1.
</event>
<event>
 6    1  0.1823098E-004  0.5001070E+03  0.7546771E-02  0.9399570E-01
        -11   -1    0    0    0    0  0.00000000000E+00  0.00000000000E+00  0.50000000000E+03  0.50000000000E+03  0.00000000000E+00 0. -1.
         11   -1    0    0    0    0 -0.00000000000E+00 -0.00000000000E+00 -0.50000000000E+03  0.50000000000E+03  0.00000000000E+00 0.  1.
        -11    1    1    2    0    0  0.10554783778E+02  0.10849444201E+02  0.32667030674E+03  0.32702079935E+03  0.00000000000E+00 0. -1.
         11    1    1    2    0    0 -0.10242588856E+02 -0.17792462266E+02 -0.49947126359E+03  0.49989301405E+03  0.00000000000E+00 0.  1.
        -15    1    1    2    0    0 -0.10572532595E+01  0.65693037882E+01  0.15869002513E+03  0.15883940110E+03  0.17770000000E+01 0. -1.
         15    1    1    2    0    0  0.74505833753E+00  0.37371427692E+00  0.14110931718E+02  0.14246785506E+02  0.17770000000E+01 0. -1.
</event>
<event>
 6    1  0.1823098E-004  0.5032637E+03  0.7546771E-02  0.9392536E-01
        -11   -1    0    0    0    0  0.00000000000E+00  0.00000000000E+00  0.50000000000E+03  0.50000000000E+03  0.00000000000E+00 0.  1.
         11   -1    0    0    0    0 -0.00000000000E+00 -0.00000000000E+00 -0.50000000000E+03  0.50000000000E+03  0.00000000000E+00 0. -1.
        -11    1    1    2    0    0 -0.96914812484E+01 -0.13164430962E+01  0.49663999137E+03  0.49673628704E+03  0.00000000000E+00 0.  1.
         11    1    1    2    0    0  0.14461763071E+02  0.14372248206E+02 -0.48191998065E+03  0.48235108775E+03  0.00000000000E+00 0. -1.
        -15    1    1    2    0    0 -0.17668137107E+00 -0.54692804609E+01 -0.66201261587E+01  0.87708633796E+01  0.17770000000E+01 0.  1.
         15    1    1    2    0    0 -0.45936004510E+01 -0.75865246491E+01 -0.80998845672E+01  0.12141761831E+02  0.17770000000E+01 0. -1.
</event>
<event>
 6    1  0.1823098E-004  0.5015656E+03  0.7546771E-02  0.9396313E-01
        -11   -1    0    0    0    0  0.00000000000E+00  0.00000000000E+00  0.50000000000E+03  0.50000000000E+03  0.00000000000E+00 0. -1.
         11   -1    0    0    0    0 -0.00000000000E+00 -0.00000000000E+00 -0.50000000000E+03  0.50000000000E+03  0.00000000000E+00 0. -1.
        -11    1    1    2    0    0 -0.30590185347E+01 -0.65630396417E+01  0.47222270160E+03  0.47227821355E+03  0.00000000000E+00 0. -1.
         11    1    1    2    0    0  0.71042136068E+01  0.14923146608E+01 -0.49838150007E+03  0.49843436525E+03  0.00000000000E+00 0. -1.
        -15    1    1    2    0    0 -0.22926456726E+01  0.50164654882E+01  0.41257955792E+01  0.71134427906E+01  0.17770000000E+01 0.  1.
         15    1    1    2    0    0 -0.17525493995E+01  0.54259492665E-01  0.22033002887E+02  0.22173978414E+02  0.17770000000E+01 0. -1.
</event>
<event>
 6    1  0.1823098E-004  0.5034835E+03  0.7546771E-02  0.9392049E-01
        -11   -1    0    0    0    0  0.00000000000E+00  0.00000000000E+00  0.50000000000E+03  0.50000000000E+03  0.00000000000E+00 0. -1.
         11   -1    0    0    0    0 -0.00000000000E+00 -0.00000000000E+00 -0.50000000000E+03  0.50000000000E+03  0.00000000000E+00 0. -1.
        -11    1    1    2    0    0 -0.60069133815E+01 -0.76902002237E+01  0.49642063629E+03  0.49651653579E+03  0.00000000000E+00 0. -1.
         11    1    1    2    0    0  0.60263226742E+01 -0.18424566754E+02 -0.43865131137E+03  0.43907943950E+03  0.00000000000E+00 0. -1.
        -15    1    1    2    0    0 -0.50913056607E+00  0.18412289830E+02 -0.49979234474E+02  0.53294964474E+02  0.17770000000E+01 0. -1.
         15    1    1    2    0    0  0.48972127335E+00  0.77024771472E+01 -0.77900904411E+01  0.11109060231E+02  0.17770000000E+01 0.  1.
</event>
<event>
 6    1  0.1823098E-004  0.5033463E+03  0.7546771E-02  0.9392353E-01
        -11   -1    0    0    0    0  0.00000000000E+00  0.00000000000E+00  0.50000000000E+03  0.50000000000E+03  0.00000000000E+00 0. -1.
         11   -1    0    0    0    0 -0.00000000000E+00 -0.00000000000E+00 -0.50000000000E+03  0.50000000000E+03  0.00000000000E+00 0.  1.
        -11    1    1    2    0    0  0.60704389272E+01  0.36322214678E+01  0.49660332874E+03  0.49665371173E+03  0.00000000000E+00 0. -1.
         11    1    1    2    0    0  0.99951171898E+01  0.14608503064E+02 -0.41698923466E+03  0.41736474761E+03  0.00000000000E+00 0.  1.
        -15    1    1    2    0    0 -0.19325997955E+02 -0.17054579072E+02 -0.51695985364E+02  0.57792607624E+02  0.17770000000E+01 0. -1.
         15    1    1    2    0    0  0.32604418377E+01 -0.11861454600E+01 -0.27918108717E+02  0.28188933030E+02  0.17770000000E+01 0.  1.
</event>
<event>
 6    1  0.1823098E-004  0.5007703E+03  0.7546771E-02  0.9398088E-01
        -11   -1    0    0    0    0  0.00000000000E+00  0.00000000000E+00  0.50000000000E+03  0.50000000000E+03  0.00000000000E+00 0.  1.
         11   -1    0    0    0    0 -0.00000000000E+00 -0.00000000000E+00 -0.50000000000E+03  0.50000000000E+03  0.00000000000E+00 0.  1.
        -11    1    1    2    0    0 -0.39618375049E+01 -0.53076186546E+01  0.43166799464E+02  0.43671953793E+02  0.00000000000E+00 0.  1.
         11    1    1    2    0    0  0.97001213311E+01 -0.37642903819E+02 -0.49771397025E+03  0.49922968336E+03  0.00000000000E+00 0.  1.
        -15    1    1    2    0    0 -0.29372550307E+01  0.21031258023E+02  0.32249514660E+03  0.32319841984E+03  0.17770000000E+01 0.  1.
         15    1    1    2    0    0 -0.28010287955E+01  0.21919264451E+02  0.13205202419E+03  0.13389994301E+03  0.17770000000E+01 0. -1.
</event>
<event>
 6    1  0.1823098E-004  0.5008522E+03  0.7546771E-02  0.9397905E-01
        -11   -1    0    0    0    0  0.00000000000E+00  0.00000000000E+00  0.50000000000E+03  0.50000000000E+03  0.00000000000E+00 0.  1.
         11   -1    0    0    0    0 -0.00000000000E+00 -0.00000000000E+00 -0.50000000000E+03  0.50000000000E+03  0.00000000000E+00 0.  1.
        -11    1    1    2    0    0  0.10090157671E+02 -0.45031477569E+01  0.27921546808E+03  0.27943401231E+03  0.00000000000E+00 0.  1.
         11    1    1    2    0    0  0.16210636918E+01 -0.14946108656E+02 -0.49892132543E+03  0.49914777670E+03  0.00000000000E+00 0.  1.
        -15    1    1    2    0    0 -0.14888707500E+02  0.18121458085E+02  0.19431547976E+03  0.19573380969E+03  0.17770000000E+01 0. -1.
         15    1    1    2    0    0  0.31774861372E+01  0.13277983284E+01  0.25390377598E+02  0.25684401299E+02  0.17770000000E+01 0.  1.
</event>
<event>
 6    1  0.1823098E-004  0.5012144E+03  0.7546771E-02  0.9397096E-01
        -11   -1    0    0    0    0  0.00000000000E+00  0.00000000000E+00  0.50000000000E+03  0.50000000000E+03  0.00000000000E+00 0.  1.
         11   -1    0    0    0    0 -0.00000000000E+00 -0.00000000000E+00 -0.50000000000E+03  0.50000000000E+03  0.00000000000E+00 0.  1.
        -11    1    1    2    0    0 -0.62204761113E+01 -0.54595007643E+01  0.49871691254E+03  0.49878558452E+03  0.00000000000E+00 0.  1.
         11    1    1    2    0    0 -0.48900781038E+01  0.10289453825E+02 -0.44085146659E+03  0.44099864095E+03  0.00000000000E+00 0.  1.
        -15    1    1    2    0    0  0.41405364639E+01  0.25927065853E+01 -0.10267514739E+02  0.11508508051E+02  0.17770000000E+01 0. -1.
         15    1    1    2    0    0  0.69700177512E+01 -0.74226596457E+01 -0.47597931208E+02  0.48707266480E+02  0.17770000000E+01 0.  1.
</event>
<event>
 6    1  0.1823098E-004  0.5004956E+03  0.7546771E-02  0.9398701E-01
        -11   -1    0    0    0    0  0.00000000000E+00  0.00000000000E+00  0.50000000000E+03  0.50000000000E+03  0.00000000000E+00 0.  1.
         11   -1    0    0    0    0 -0.00000000000E+00 -0.00000000000E+00 -0.50000000000E+03  0.50000000000E+03  0.00000000000E+00 0.  1.
        -11    1    1    2    0    0 -0.21323898012E+02 -0.28301058207E+02  0.21913952518E+03  0.22198601312E+03  0.00000000000E+00 0.  1.
         11    1    1    2    0    0  0.23416432130E+02  0.39900196115E+02 -0.49735731311E+03  0.49950440623E+03  0.00000000000E+00 0.  1.
        -15    1    1    2    0    0 -0.12845158790E+01 -0.94307789253E+01  0.22988756160E+03  0.23009136941E+03  0.17770000000E+01 0.  1.
         15    1    1    2    0    0 -0.80801823925E+00 -0.21683589830E+01  0.48330226324E+02  0.48418211240E+02  0.17770000000E+01 0.  1.
</event>
<event>
 6    1  0.1823098E-004  0.5088268E+03  0.7546771E-02  0.9380273E-01
        -11   -1    0    0    0    0  0.00000000000E+00  0.00000000000E+00  0.50000000000E+03  0.50000000000E+03  0.00000000000E+00 0. -1.
         11   -1    0    0    0    0 -0.00000000000E+00 -0.00000000000E+00 -0.50000000000E+03  0.50000000000E+03  0.00000000000E+00 0.  1.
        -11    1    1    2    0    0 -0.47730479488E+01 -0.74905714417E+01  0.39543104051E+03  0.39553078066E+03  0.00000000000E+00 0. -1.
         11    1    1    2    0    0  0.20231218454E+02  0.37890665191E+02 -0.48929138460E+03  0.49117315048E+03  0.00000000000E+00 0.  1.
        -15    1    1    2    0    0 -0.18740610974E+02 -0.42026480676E+02  0.50925497666E+02  0.68658572802E+02  0.17770000000E+01 0. -1.
         15    1    1    2    0    0  0.32824404682E+01  0.11626386927E+02  0.42934846422E+02  0.44637496062E+02  0.17770000000E+01 0.  1.
</event>
<event>
 6    1  0.1823098E-004  0.5117984E+03  0.7546771E-02  0.9373790E-01
        -11   -1    0    0    0    0  0.00000000000E+00  0.00000000000E+00  0.50000000000E+03  0.50000000000E+03  0.00000000000E+00 0. -1.
         11   -1    0    0    0    0 -0.00000000000E+00 -0.00000000000E+00 -0.50000000000E+03  0.50000000000E+03  0.00000000000E+00 0.  1.
        -11    1    1    2    0    0  0.36678405104E+01 -0.84633171237E+01  0.48811441645E+03  0.48820156118E+03  0.00000000000E+00 0. -1.
         11    1    1    2    0    0  0.27366806763E+02  0.60664027610E+00 -0.44854321011E+03  0.44937770468E+03  0.00000000000E+00 0.  1.
        -15    1    1    2    0    0 -0.13047926194E+02  0.21785570193E+02 -0.20892942242E+02  0.32932236655E+02  0.17770000000E+01 0.  1.
         15    1    1    2    0    0 -0.17986721079E+02 -0.13928893345E+02 -0.18678264101E+02  0.29488497483E+02  0.17770000000E+01 0. -1.
</event>
<event>
 6    1  0.1823098E-004  0.5023581E+03  0.7546771E-02  0.9394549E-01
        -11   -1    0    0    0    0  0.00000000000E+00  0.00000000000E+00  0.50000000000E+03  0.50000000000E+03  0.00000000000E+00 0.  1.
         11   -1    0    0    0    0 -0.00000000000E+00 -0.00000000000E+00 -0.50000000000E+03  0.50000000000E+03  0.00000000000E+00 0.  1.
        -11    1    1    2    0    0  0.11268097975E+02 -0.31315121033E+02  0.46939959277E+03  0.47057792609E+03  0.00000000000E+00 0.  1.
         11    1    1    2    0    0 -0.23534375715E+02  0.35324016005E+02 -0.49582845039E+03  0.49764194474E+03  0.00000000000E+00 0.  1.
        -15    1    1    2    0    0  0.13159179078E+02 -0.29841614755E+01  0.26209196393E+02  0.29532167517E+02  0.17770000000E+01 0. -1.
         15    1    1    2    0    0 -0.89290133751E+00 -0.10247334970E+01  0.21966122927E+00  0.22479616531E+01  0.17770000000E+01 0.  1.
</event>
<event>
 6    1  0.1823098E-004  0.5000576E+03  0.7546771E-02  0.9399681E-01
        -11   -1    0    0    0    0  0.00000000000E+00  0.00000000000E+00  0.50000000000E+03  0.50000000000E+03  0.00000000000E+00 0. -1.
         11   -1    0    0    0    0 -0.00000000000E+00 -0.00000000000E+00 -0.50000000000E+03  0.50000000000E+03  0.00000000000E+00 0. -1.
        -11    1    1    2    0    0  0.63652326116E+00  0.84337097842E+01  0.49987085929E+03  0.49994240527E+03  0.00000000000E+00 0. -1.
         11    1    1    2    0    0 -0.95880635323E+00  0.15732222568E+01 -0.30742086655E+02  0.30797243867E+02  0.00000000000E+00 0. -1.
        -15    1    1    2    0    0  0.47085791778E+00 -0.57027675101E+01 -0.32793774547E+03  0.32799247841E+03  0.17770000000E+01 0. -1.
         15    1    1    2    0    0 -0.14857482572E+00 -0.43041645308E+01 -0.14119102716E+03  0.14126787245E+03  0.17770000000E+01 0. -1.
</event>
<event>
 6    1  0.1823098E-004  0.5004295E+03  0.7546771E-02  0.9398849E-01
        -11   -1    0    0    0    0  0.00000000000E+00  0.00000000000E+00  0.50000000000E+03  0.50000000000E+03  0.00000000000E+00 0. -1.
         11   -1    0    0    0    0 -0.00000000000E+00 -0.00000000000E+00 -0.50000000000E+03  0.50000000000E+03  0.00000000000E+00 0.  1.
        -11    1    1    2    0    0  0.27424748129E+01 -0.47620870353E+01  0.37079371628E+03  0.37083443566E+03  0.00000000000E+00 0. -1.
         11    1    1    2    0    0  0.56076377235E+01  0.74150256035E+01 -0.49948403382E+03  0.49957054381E+03  0.00000000000E+00 0.  1.
        -15    1    1    2    0    0 -0.55265357667E+01  0.45249245459E+01  0.59596553570E+02  0.60049350256E+02  0.17770000000E+01 0. -1.
         15    1    1    2    0    0 -0.28235767697E+01 -0.71778631142E+01  0.69093763968E+02  0.69545670267E+02  0.17770000000E+01 0.  1.
</event>
<event>
 6    1  0.1823098E-004  0.4815202E+03  0.7546771E-02  0.9442136E-01
        -11   -1    0    0    0    0  0.00000000000E+00  0.00000000000E+00  0.50000000000E+03  0.50000000000E+03  0.00000000000E+00 0. -1.
         11   -1    0    0    0    0 -0.00000000000E+00 -0.00000000000E+00 -0.50000000000E+03  0.50000000000E+03  0.00000000000E+00 0. -1.
        -11    1    1    2    0    0 -0.85728243732E+01 -0.64490242904E+01  0.47878426817E+03  0.47890443585E+03  0.00000000000E+00 0. -1.
         11    1    1    2    0    0  0.10442742434E+02 -0.24520908010E+02 -0.48391596875E+03  0.48464934810E+03  0.00000000000E+00 0. -1.
        -15    1    1    2    0    0  0.28462660859E+01  0.13032033703E+02 -0.60083609657E+01  0.14737478196E+02  0.17770000000E+01 0.  1.
         15    1    1    2    0    0 -0.47161841470E+01  0.17937898597E+02  0.11140061543E+02  0.21708737853E+02  0.17770000000E+01 0. -1.
</event>
<event>
 6    1  0.1823098E-004  0.5009560E+03  0.7546771E-02  0.9397673E-01
        -11   -1    0    0    0    0  0.00000000000E+00  0.00000000000E+00  0.50000000000E+03  0.50000000000E+03  0.00000000000E+00 0. -1.
         11   -1    0    0    0    0 -0.00000000000E+00 -0.00000000000E+00 -0.50000000000E+03  0.50000000000E+03  0.00000000000E+00 0. -1.
        -11    1    1    2    0    0 -0.40753240215E+01 -0.46990382048E+01  0.30432758290E+03  0.30439114136E+03  0.00000000000E+00 0. -1.
         11    1    1    2    0    0  0.16985024794E+02 -0.18026118650E+02 -0.49842901775E+03  0.49904400382E+03  0.00000000000E+00 0. -1.
        -15    1    1    2    0    0 -0.11345445899E+02  0.25036372751E+02  0.17885636350E+03  0.18096490156E+03  0.17770000000E+01 0.  1.
         15    1    1    2    0    0 -0.15642548739E+01 -0.23112158965E+01  0.15245071347E+02  0.15599953256E+02  0.17770000000E+01 0. -1.
</event>
<event>
 6    1  0.1823098E-004  0.5015515E+03  0.7546771E-02  0.9396345E-01
        -11   -1    0    0    0    0  0.00000000000E+00  0.00000000000E+00  0.50000000000E+03  0.50000000000E+03  0.00000000000E+00 0. -1.
         11   -1    0    0    0    0 -0.00000000000E+00 -0.00000000000E+00 -0.50000000000E+03  0.50000000000E+03  0.00000000000E+00 0.  1.
        -11    1    1    2    0    0  0.65833701361E+01 -0.49166576583E+01  0.48002115319E+03  0.48009147232E+03  0.00000000000E+00 0. -1.
         11    1    1    2    0    0  0.10507033668E+00  0.78916905520E+01 -0.49838604223E+03  0.49844852985E+03  0.00000000000E+00 0.  1.
        -15    1    1    2    0    0 -0.62535661747E+01 -0.11864453074E+01  0.17584258013E+02  0.18785063248E+02  0.17770000000E+01 0. -1.
         15    1    1    2    0    0 -0.43487429815E+00 -0.17885875863E+01  0.78063102512E+00  0.26749345798E+01  0.17770000000E+01 0.  1.
</event>
<event>
 6    1  0.1823098E-004  0.5010713E+03  0.7546771E-02  0.9397416E-01
        -11   -1    0    0    0    0  0.00000000000E+00  0.00000000000E+00  0.50000000000E+03  0.50000000000E+03  0.00000000000E+00 0. -1.
         11   -1    0    0    0    0 -0.00000000000E+00 -0.00000000000E+00 -0.50000000000E+03  0.50000000000E+03  0.00000000000E+00 0. -1.
        -11    1    1    2    0    0 -0.29294080885E+01  0.36392663893E+01  0.31353330177E+03  0.31356810585E+03  0.00000000000E+00 0. -1.
         11    1    1    2    0    0 -0.14083164628E+02 -0.15138491912E+02 -0.49850007347E+03  0.49892868500E+03  0.00000000000E+00 0. -1.
        -15    1    1    2    0    0  0.73290578672E+01 -0.26265978157E+01  0.18521521324E+02  0.20169744333E+02  0.17770000000E+01 0. -1.
         15    1    1    2    0    0  0.96835148496E+01  0.14125823338E+02  0.16644525038E+03  0.16733346482E+03  0.17770000000E+01 0.  1.
</event>
<event>
 6    1  0.1823098E-004  0.5011898E+03  0.7546771E-02  0.9397151E-01
        -11   -1    0    0    0    0  0.00000000000E+00  0.00000000000E+00  0.50000000000E+03  0.50000000000E+03  0.00000000000E+00 0. -1.
         11   -1    0    0    0    0 -0.00000000000E+00 -0.00000000000E+00 -0.50000000000E+03  0.50000000000E+03  0.00000000000E+00 0. -1.
        -11    1    1    2    0    0  0.10888370573E+02 -0.12124725888E+01  0.49868986168E+03  0.49881018920E+03  0.00000000000E+00 0. -1.
         11    1    1    2    0    0 -0.12254825528E+02 -0.18307862490E+01 -0.45355028598E+03  0.45371951075E+03  0.00000000000E+00 0. -1.
        -15    1    1    2    0    0  0.51336014077E+01  0.54059030089E+01 -0.38665239637E+02  0.39417459786E+02  0.17770000000E+01 0. -1.
         15    1    1    2    0    0 -0.37671464528E+01 -0.23626441710E+01 -0.64743360648E+01  0.80528402664E+01  0.17770000000E+01 0.  1.
</event>
<event>
 6    1  0.1823098E-004  0.5007164E+03  0.7546771E-02  0.9398208E-01
        -11   -1    0    0    0    0  0.00000000000E+00  0.00000000000E+00  0.50000000000E+03  0.50000000000E+03  0.00000000000E+00 0.  1.
         11   -1    0    0    0    0 -0.00000000000E+00 -0.00000000000E+00 -0.50000000000E+03  0.50000000000E+03  0.00000000000E+00 0. -1.
        -11    1    1    2    0    0 -0.19033097385E+01 -0.84249116431E+01  0.34608408694E+03  0.34619184993E+03  0.00000000000E+00 0.  1.
         11    1    1    2    0    0 -0.95030483023E+01 -0.75848728406E+01 -0.49913556793E+03  0.49928364022E+03  0.00000000000E+00 0. -1.
        -15    1    1    2    0    0  0.96805982203E+01  0.11689423528E+02  0.91058774370E+02  0.92332089347E+02  0.17770000000E+01 0. -1.
         15    1    1    2    0    0  0.17257598205E+01  0.43203609560E+01  0.61992706613E+02  0.62192420502E+02  0.17770000000E+01 0.  1.
</event>
<event>
 6    1  0.1823098E-004  0.4870274E+03  0.7546771E-02  0.9429314E-01
        -11   -1    0    0    0    0  0.00000000000E+00  0.00000000000E+00  0.50000000000E+03  0.50000000000E+03  0.00000000000E+00 0.  1.
         11   -1    0    0    0    0 -0.00000000000E+00 -0.00000000000E+00 -0.50000000000E+03  0.50000000000E+03  0.00000000000E+00 0.  1.
        -11    1    1    2    0    0 -0.85505729671E+01 -0.63329675791E+01  0.48273873195E+03  0.48285598485E+03  0.00000000000E+00 0.  1.
         11    1    1    2    0    0  0.73328597685E+01 -0.16063087505E+02 -0.49117623193E+03  0.49149352430E+03  0.00000000000E+00 0.  1.
        -15    1    1    2    0    0  0.46963099811E+00  0.72968559706E+01  0.71405878405E+01  0.10373542502E+02  0.17770000000E+01 0. -1.
         15    1    1    2    0    0  0.74808220054E+00  0.15099199114E+02  0.12969121345E+01  0.15276948352E+02  0.17770000000E+01 0.  1.
</event>
<event>
 6    1  0.1823098E-004  0.5022306E+03  0.7546771E-02  0.9394832E-01
        -11   -1    0    0    0    0  0.00000000000E+00  0.00000000000E+00  0.50000000000E+03  0.50000000000E+03  0.00000000000E+00 0. -1.
         11   -1    0    0    0    0 -0.00000000000E+00 -0.00000000000E+00 -0.50000000000E+03  0.50000000000E+03  0.00000000000E+00 0. -1.
        -11    1    1    2    0    0 -0.69454373359E+00  0.20042743281E+01  0.11595058961E+03  0.11596999068E+03  0.00000000000E+00 0. -1.
         11    1    1    2    0    0 -0.89261450590E+02 -0.26629353765E+02 -0.48897607070E+03  0.49776935097E+03  0.00000000000E+00 0. -1.
        -15    1    1    2    0    0  0.66594005228E+02  0.18350702960E+01  0.27364830385E+03  0.28164637570E+03  0.17770000000E+01 0.  1.
         15    1    1    2    0    0  0.23361989095E+02  0.22790009141E+02  0.99377177237E+02  0.10461428266E+03  0.17770000000E+01 0. -1.
</event>
<event>
 6    1  0.1823098E-004  0.5045374E+03  0.7546771E-02  0.9389714E-01
        -11   -1    0    0    0    0  0.00000000000E+00  0.00000000000E+00  0.50000000000E+03  0.50000000000E+03  0.00000000000E+00 0.  1.
         11   -1    0    0    0    0 -0.00000000000E+00 -0.00000000000E+00 -0.50000000000E+03  0.50000000000E+03  0.00000000000E+00 0.  1.
        -11    1    1    2    0    0 -0.17386206718E+01 -0.11541645018E+02  0.45880560166E+03  0.45895404181E+03  0.00000000000E+00 0.  1.
         11    1    1    2    0    0 -0.13144010828E+02 -0.64318974941E+01 -0.49524642868E+03  0.49546257119E+03  0.00000000000E+00 0.  1.
        -15    1    1    2    0    0 -0.54838444917E+00  0.92291164775E+01  0.10427456796E+02  0.14048733063E+02  0.17770000000E+01 0. -1.
         15    1    1    2    0    0  0.15431015949E+02  0.87444260349E+01  0.26013370223E+02  0.31534653942E+02  0.17770000000E+01 0.  1.
</event>
<event>
 6    1  0.1823098E-004  0.5092870E+03  0.7546771E-02  0.9379266E-01
        -11   -1    0    0    0    0  0.00000000000E+00  0.00000000000E+00  0.50000000000E+03  0.50000000000E+03  0.00000000000E+00 0.  1.
         11   -1    0    0    0    0 -0.00000000000E+00 -0.00000000000E+00 -0.50000000000E+03  0.50000000000E+03  0.00000000000E+00 0. -1.
        -11    1    1    2    0    0  0.78839489071E+00  0.79119434164E+01  0.49064861153E+03  0.49071303264E+03  0.00000000000E+00 0.  1.
         11    1    1    2    0    0  0.26611212532E+02 -0.10346524834E+01 -0.25083921504E+03  0.25224896222E+03  0.00000000000E+00 0. -1.
        -15    1    1    2    0    0 -0.11886550552E+02  0.28852151437E+01 -0.23823524024E+03  0.23855565801E+03  0.17770000000E+01 0. -1.
         15    1    1    2    0    0 -0.15513056871E+02 -0.97625060766E+01 -0.15741562494E+01  0.18482347125E+02  0.17770000000E+01 0.  1.
</event>
<event>
 6    1  0.1823098E-004  0.5026945E+03  0.7546771E-02  0.9393801E-01
        -11   -1    0    0    0    0  0.00000000000E+00  0.00000000000E+00  0.50000000000E+03  0.50000000000E+03  0.00000000000E+00 0. -1.
         11   -1    0    0    0    0 -0.00000000000E+00 -0.00000000000E+00 -0.50000000000E+03  0.50000000000E+03  0.00000000000E+00 0.  1.
        -11    1    1    2    0    0 -0.14481915523E+02 -0.11201728623E+02  0.38586364221E+03  0.38629775431E+03  0.00000000000E+00 0. -1.
         11    1    1    2    0    0  0.17382171326E+02  0.16162544865E+02 -0.49673875775E+03  0.49730550086E+03  0.00000000000E+00 0.  1.
        -15    1    1    2    0    0 -0.69333989963E+01 -0.11960845819E+02  0.16243438355E+02  0.21404225586E+02  0.17770000000E+01 0.  1.
         15    1    1    2    0    0  0.40331431933E+01  0.70000295773E+01  0.94631677182E+02  0.94992519250E+02  0.17770000000E+01 0. -1.
</event>
<event>
 6    1  0.1823098E-004  0.5000934E+03  0.7546771E-02  0.9399601E-01
        -11   -1    0    0    0    0  0.00000000000E+00  0.00000000000E+00  0.50000000000E+03  0.50000000000E+03  0.00000000000E+00 0. -1.
         11   -1    0    0    0    0 -0.00000000000E+00 -0.00000000000E+00 -0.50000000000E+03  0.50000000000E+03  0.00000000000E+00 0. -1.
        -11    1    1    2    0    0 -0.63525792462E+01  0.77411897921E+01  0.49980625926E+03  0.49990656934E+03  0.00000000000E+00 0. -1.
         11    1    1    2    0    0  0.57337431990E+01 -0.70115851994E+01 -0.30706513727E+03  0.30719869249E+03  0.00000000000E+00 0. -1.
        -15    1    1    2    0    0  0.20925817406E+01  0.28903683366E+00 -0.28312229106E+02  0.28446484608E+02  0.17770000000E+01 0.  1.
         15    1    1    2    0    0 -0.14737456934E+01 -0.10186414264E+01 -0.16442889288E+03  0.16444825356E+03  0.17770000000E+01 0. -1.
</event>
<event>
 6    1  0.1823098E-004  0.5056835E+03  0.7546771E-02  0.9387181E-01
        -11   -1    0    0    0    0  0.00000000000E+00  0.00000000000E+00  0.50000000000E+03  0.50000000000E+03  0.00000000000E+00 0. -1.
         11   -1    0    0    0    0 -0.00000000000E+00 -0.00000000000E+00 -0.50000000000E+03  0.50000000000E+03  0.00000000000E+00 0.  1.
        -11    1    1    2    0    0  0.23189744322E+01 -0.97075965000E+01  0.49421568556E+03  0.49431645625E+03  0.00000000000E+00 0. -1.
         11    1    1    2    0    0 -0.23451437816E+02 -0.15115577750E+01 -0.46553742207E+03  0.46613018148E+03  0.00000000000E+00 0.  1.
        -15    1    1    2    0    0  0.12477068896E+02  0.22692394026E+01 -0.21629501996E+02  0.25136025567E+02  0.17770000000E+01 0.  1.
         15    1    1    2    0    0  0.86553944879E+01  0.89499148724E+01 -0.70487614949E+01  0.14417336702E+02  0.17770000000E+01 0. -1.
</event>
<event>
 6    1  0.1823098E-004  0.5170764E+03  0.7546771E-02  0.9362390E-01
        -11   -1    0    0    0    0  0.00000000000E+00  0.00000000000E+00  0.50000000000E+03  0.50000000000E+03  0.00000000000E+00 0. -1.
         11   -1    0    0    0    0 -0.00000000000E+00 -0.00000000000E+00 -0.50000000000E+03  0.50000000000E+03  0.00000000000E+00 0. -1.
        -11    1    1    2    0    0  0.13332299356E+01  0.78120954255E+01  0.48285858162E+03  0.48292361319E+03  0.00000000000E+00 0. -1.
         11    1    1    2    0    0  0.41919027682E+02  0.59382853241E+02 -0.88648037607E+02  0.11463857428E+03  0.00000000000E+00 0. -1.
        -15    1    1    2    0    0 -0.41149614006E+02 -0.61708172642E+02 -0.34795128135E+03  0.35577301924E+03  0.17770000000E+01 0. -1.
         15    1    1    2    0    0 -0.21026436120E+01 -0.54867760249E+01 -0.46259262664E+02  0.46664793287E+02  0.17770000000E+01 0. -1.
</event>
<event>
 6    1  0.1823098E-004  0.4917559E+03  0.7546771E-02  0.9418448E-01
        -11   -1    0    0    0    0  0.00000000000E+00  0.00000000000E+00  0.50000000000E+03  0.50000000000E+03  0.00000000000E+00 0. -1.
         11   -1    0    0    0    0 -0.00000000000E+00 -0.00000000000E+00 -0.50000000000E+03  0.50000000000E+03  0.00000000000E+00 0. -1.
        -11    1    1    2    0    0  0.24205682296E+01 -0.63766468392E+01  0.49225352483E+03  0.49230077542E+03  0.00000000000E+00 0. -1.
         11    1    1    2    0    0 -0.13566308689E+02  0.12036398955E+02 -0.49095641004E+03  0.49129127429E+03  0.00000000000E+00 0. -1.
        -15    1    1    2    0    0  0.20898843126E+00 -0.10209140448E+01  0.30096785150E+01  0.36471681363E+01  0.17770000000E+01 0.  1.
         15    1    1    2    0    0  0.10936752028E+02 -0.46388380714E+01 -0.43067933006E+01  0.12760782151E+02  0.17770000000E+01 0. -1.
</event>
<event>
 6    1  0.1823098E-004  0.5009522E+03  0.7546771E-02  0.9397682E-01
        -11   -1    0    0    0    0  0.00000000000E+00  0.00000000000E+00  0.50000000000E+03  0.50000000000E+03  0.00000000000E+00 0.  1.
         11   -1    0    0    0    0 -0.00000000000E+00 -0.00000000000E+00 -0.50000000000E+03  0.50000000000E+03  0.00000000000E+00 0.  1.
        -11    1    1    2    0    0  0.10933229904E+02  0.34323043045E+01  0.35767265171E+03  0.35785617503E+03  0.00000000000E+00 0.  1.
         11    1    1    2    0    0  0.96790797442E+01 -0.11710923107E+02 -0.49881647241E+03  0.49904779676E+03  0.00000000000E+00 0.  1.
        -15    1    1    2    0    0 -0.59844929204E+01 -0.72760111980E+00  0.36950327100E+02  0.37481034680E+02  0.17770000000E+01 0.  1.
         15    1    1    2    0    0 -0.14627816728E+02  0.90062199221E+01  0.10419349360E+03  0.10561499353E+03  0.17770000000E+01 0. -1.
</event>
<event>
 6    1  0.1823098E-004  0.5005554E+03  0.7546771E-02  0.9398568E-01
        -11   -1    0    0    0    0  0.00000000000E+00  0.00000000000E+00  0.50000000000E+03  0.50000000000E+03  0.00000000000E+00 0.  1.
         11   -1    0    0    0    0 -0.00000000000E+00 -0.00000000000E+00 -0.50000000000E+03  0.50000000000E+03  0.00000000000E+00 0.  1.
        -11    1    1    2    0    0  0.32903210210E+01 -0.14205927273E+01  0.20246451104E+03  0.20249622842E+03  0.00000000000E+00 0.  1.
         11    1    1    2    0    0 -0.26942799871E+02 -0.22459258634E+02 -0.49821133970E+03  0.49944456326E+03  0.00000000000E+00 0.  1.
        -15    1    1    2    0    0  0.24762847917E+02  0.17868712846E+02  0.23594216664E+03  0.23791669396E+03  0.17770000000E+01 0.  1.
         15    1    1    2    0    0 -0.11103690670E+01  0.60111385149E+01  0.59804662018E+02  0.60142514362E+02  0.17770000000E+01 0. -1.
</event>
<event>
 6    1  0.1823098E-004  0.5023963E+03  0.7546771E-02  0.9394464E-01
        -11   -1    0    0    0    0  0.00000000000E+00  0.00000000000E+00  0.50000000000E+03  0.50000000000E+03  0.00000000000E+00 0. -1.
         11   -1    0    0    0    0 -0.00000000000E+00 -0.00000000000E+00 -0.50000000000E+03  0.50000000000E+03  0.00000000000E+00 0.  1.
        -11    1    1    2    0    0  0.20573521526E+01 -0.64639184477E+01  0.48523884744E+03  0.48528625985E+03  0.00000000000E+00 0. -1.
         11    1    1    2    0    0 -0.11427376050E+02  0.52219405766E+01 -0.49744508018E+03  0.49760371922E+03  0.00000000000E+00 0.  1.
        -15    1    1    2    0    0  0.65970441217E+01 -0.83149854076E+00  0.11105852981E+02  0.13065606775E+02  0.17770000000E+01 0.  1.
         15    1    1    2    0    0  0.27729797753E+01  0.20734764118E+01  0.11003797576E+01  0.40444141573E+01  0.17770000000E+01 0. -1.
</event>
<event>
 6    1  0.1823098E-004  0.5039827E+03  0.7546771E-02  0.9390942E-01
        -11   -1    0    0    0    0  0.00000000000E+00  0.00000000000E+00  0.50000000000E+03  0.50000000000E+03  0.00000000000E+00 0. -1.
         11   -1    0    0    0    0 -0.00000000000E+00 -0.00000000000E+00 -0.50000000000E+03  0.50000000000E+03  0.00000000000E+00 0.  1.
        -11    1    1    2    0    0 -0.38959945989E+01 -0.62489781571E+01  0.49596261463E+03  0.49601728157E+03  0.00000000000E+00 0. -1.
         11    1    1    2    0    0 -0.14563596738E+02 -0.14391720381E-01 -0.43565270145E+03  0.43589605967E+03  0.00000000000E+00 0.  1.
        -15    1    1    2    0    0  0.14815977795E+02  0.21870304006E+00 -0.11776746502E+02  0.19010799988E+02  0.17770000000E+01 0. -1.
         15    1    1    2    0    0  0.36436135425E+01  0.60446668374E+01 -0.48533166684E+02  0.49075858772E+02  0.17770000000E+01 0.  1.
</event>
<event>
 6    1  0.1823098E-004  0.5030663E+03  0.7546771E-02  0.9392975E-01
        -11   -1    0    0    0    0  0.00000000000E+00  0.00000000000E+00  0.50000000000E+03  0.50000000000E+03  0.00000000000E+00 0. -1.
         11   -1    0    0    0    0 -0.00000000000E+00 -0.00000000000E+00 -0.50000000000E+03  0.50000000000E+03  0.00000000000E+00 0. -1.
        -11    1    1    2    0    0  0.71943956138E+01  0.40790440753E+01  0.42042143866E+03  0.42050277527E+03  0.00000000000E+00 0. -1.
         11    1    1    2    0    0 -0.24718572617E+02  0.16493175461E+02 -0.49604440920E+03  0.49693368629E+03  0.00000000000E+00 0. -1.
        -15    1    1    2    0    0  0.15210451360E+02 -0.23969836610E+02  0.68206269487E+02  0.73899687577E+02  0.17770000000E+01 0.  1.
         15    1    1    2    0    0  0.23137256432E+01  0.33976170731E+01  0.74167010582E+01  0.86638508594E+01  0.17770000000E+01 0. -1.
</event>
<event>
 6    1  0.1823098E-004  0.5002548E+03  0.7546771E-02  0.9399240E-01
        -11   -1    0    0    0    0  0.00000000000E+00  0.00000000000E+00  0.50000000000E+03  0.50000000000E+03  0.00000000000E+00 0. -1.
         11   -1    0    0    0    0 -0.00000000000E+00 -0.00000000000E+00 -0.50000000000E+03  0.50000000000E+03  0.00000000000E+00 0.  1.
        -11    1    1    2    0    0 -0.44676981387E+01 -0.51832686997E+01  0.49969837672E+03  0.49974522939E+03  0.00000000000E+00 0. -1.
         11    1    1    2    0    0  0.75089863813E+01 -0.34873304255E+01 -0.92998586689E+02  0.93366393720E+02  0.00000000000E+00 0.  1.
        -15    1    1    2    0    0 -0.14488234015E+01  0.36378635308E+01 -0.64461016985E+02  0.64604284533E+02  0.17770000000E+01 0. -1.
         15    1    1    2    0    0 -0.15924648411E+01  0.50327355943E+01 -0.34223877305E+03  0.34228409235E+03  0.17770000000E+01 0.  1.
</event>
<event>
 6    1  0.1823098E-004  0.5000714E+03  0.7546771E-02  0.9399650E-01
        -11   -1    0    0    0    0  0.00000000000E+00  0.00000000000E+00  0.50000000000E+03  0.50000000000E+03  0.00000000000E+00 0. -1.
         11   -1    0    0    0    0 -0.00000000000E+00 -0.00000000000E+00 -0.50000000000E+03  0.50000000000E+03  0.00000000000E+00 0. -1.
        -11    1    1    2    0    0  0.80929731854E+01 -0.84069073847E+01  0.49979242812E+03  0.49992863842E+03  0.00000000000E+00 0. -1.
         11    1    1    2    0    0 -0.61033522857E+01  0.23611441146E+01 -0.13651166771E+03  0.13666843576E+03  0.00000000000E+00 0. -1.
        -15    1    1    2    0    0 -0.50213105366E+00  0.72271014436E+00 -0.27265120196E+02  0.27337135070E+02  0.17770000000E+01 0.  1.
         15    1    1    2    0    0 -0.14874898460E+01  0.53230531257E+01 -0.33601564021E+03  0.33606579075E+03  0.17770000000E+01 0. -1.
</event>
<event>
 6    1  0.1823098E-004  0.4923459E+03  0.7546771E-02  0.9417101E-01
        -11   -1    0    0    0    0  0.00000000000E+00  0.00000000000E+00  0.50000000000E+03  0.50000000000E+03  0.00000000000E+00 0.  1.
         11   -1    0    0    0    0 -0.00000000000E+00 -0.00000000000E+00 -0.50000000000E+03  0.50000000000E+03  0.00000000000E+00 0. -1.
        -11    1    1    2    0    0 -0.46577701573E+01 -0.12376621155E+02  0.48947342644E+03  0.48965203029E+03  0.00000000000E+00 0.  1.
         11    1    1    2    0    0 -0.47233258842E+01  0.63656431414E+01 -0.49505508821E+03  0.49511854296E+03  0.00000000000E+00 0. -1.
        -15    1    1    2    0    0  0.18187416591E+01 -0.19733743726E+00  0.45703386460E+01  0.52337832995E+01  0.17770000000E+01 0.  1.
         15    1    1    2    0    0  0.75623543825E+01  0.62083154511E+01  0.10113231304E+01  0.99956434520E+01  0.17770000000E+01 0. -1.
</event>
<event>
 6    1  0.1823098E-004  0.5003778E+03  0.7546771E-02  0.9398965E-01
        -11   -1    0    0    0    0  0.00000000000E+00  0.00000000000E+00  0.50000000000E+03  0.50000000000E+03  0.00000000000E+00 0.  1.
         11   -1    0    0    0    0 -0.00000000000E+00 -0.00000000000E+00 -0.50000000000E+03  0.50000000000E+03  0.00000000000E+00 0.  1.
        -11    1    1    2    0    0 -0.71784189487E+01  0.43960643120E+01  0.49955130275E+03  0.49962221644E+03  0.00000000000E+00 0.  1.
         11    1    1    2    0    0  0.82748912006E+01  0.63714190257E+01 -0.30330242063E+03  0.30348216944E+03  0.00000000000E+00 0.  1.
        -15    1    1    2    0    0  0.45652042866E+01 -0.75640296340E+01 -0.12692251659E+03  0.12724204722E+03  0.17770000000E+01 0.  1.
         15    1    1    2    0    0 -0.56616765384E+01 -0.32034537037E+01 -0.69326365529E+02  0.69653566910E+02  0.17770000000E+01 0. -1.
</event>
<event>
 6    1  0.1823098E-004  0.5007516E+03  0.7546771E-02  0.9398130E-01
        -11   -1    0    0    0    0  0.00000000000E+00  0.00000000000E+00  0.50000000000E+03  0.50000000000E+03  0.00000000000E+00 0. -1.
         11   -1    0    0    0    0 -0.00000000000E+00 -0.00000000000E+00 -0.50000000000E+03  0.50000000000E+03  0.00000000000E+00 0.  1.
        -11    1    1    2    0    0 -0.83043295851E+01  0.17035312633E+01  0.33784738401E+03  0.33795372285E+03  0.00000000000E+00 0. -1.
         11    1    1    2    0    0 -0.43141050303E+00  0.12896502129E+02 -0.49908163217E+03  0.49924841657E+03  0.00000000000E+00 0.  1.
        -15    1    1    2    0    0  0.47234387950E+01 -0.16742954690E+02  0.13295284051E+03  0.13409792293E+03  0.17770000000E+01 0. -1.
         15    1    1    2    0    0  0.40123012932E+01  0.21429212977E+01  0.28281407648E+02  0.28699937646E+02  0.17770000000E+01 0.  1.
</event>
<event>
 6    1  0.1823098E-004  0.5037607E+03  0.7546771E-02  0.9391434E-01
        -11   -1    0    0    0    0  0.00000000000E+00  0.00000000000E+00  0.50000000000E+03  0.50000000000E+03  0.00000000000E+00 0. -1.
         11   -1    0    0    0    0 -0.00000000000E+00 -0.00000000000E+00 -0.50000000000E+03  0.50000000000E+03  0.00000000000E+00 0.  1.
        -11    1    1    2    0    0 -0.23383925520E+01  0.88548888494E+01  0.49615476685E+03  0.49623928684E+03  0.00000000000E+00 0. -1.
         11    1    1    2    0    0 -0.79651165317E+01  0.12814961289E+02 -0.25822867919E+02  0.29907972545E+02  0.00000000000E+00 0.  1.
        -15    1    1    2    0    0  0.28332064439E+02 -0.17293689197E+02 -0.38877783998E+03  0.39019628925E+03  0.17770000000E+01 0. -1.
         15    1    1    2    0    0 -0.18028555355E+02 -0.43761609417E+01 -0.81554058956E+02  0.83656451359E+02  0.17770000000E+01 0.  1.
</event>
<event>
 6    1  0.1823098E-004  0.5000799E+03  0.7546771E-02  0.9399631E-01
        -11   -1    0    0    0    0  0.00000000000E+00  0.00000000000E+00  0.50000000000E+03  0.50000000000E+03  0.00000000000E+00 0. -1.
         11   -1    0    0    0    0 -0.00000000000E+00 -0.00000000000E+00 -0.50000000000E+03  0.50000000000E+03  0.00000000000E+00 0.  1.
        -11    1    1    2    0    0  0.10236567297E+02 -0.66638110798E+01  0.49977081035E+03  0.49992005018E+03  0.00000000000E+00 0. -1.
         11    1    1    2    0    0 -0.10021725495E+02  0.25232396775E+01 -0.29809773826E+03  0.29827682323E+03  0.00000000000E+00 0.  1.
        -15    1    1    2    0    0  0.76105210864E+00  0.45143110900E+01 -0.11384856753E+03  0.11395443064E+03  0.17770000000E+01 0.  1.
         15    1    1    2    0    0 -0.97589391127E+00 -0.37373968781E+00 -0.87824504564E+02  0.87848695957E+02  0.17770000000E+01 0. -1.
</event>
<event>
 6    1  0.1823098E-004  0.5005315E+03  0.7546771E-02  0.9398621E-01
        -11   -1    0    0    0    0  0.00000000000E+00  0.00000000000E+00  0.50000000000E+03  0.50000000000E+03  0.00000000000E+00 0.  1.
         11   -1    0    0    0    0 -0.00000000000E+00 -0.00000000000E+00 -0.50000000000E+03  0.50000000000E+03  0.00000000000E+00 0. -1.
        -11    1    1    2    0    0  0.79525142628E+01 -0.48618962788E+01  0.41428458156E+03  0.41438942438E+03  0.00000000000E+00 0.  1.
         11    1    1    2    0    0 -0.15481636580E+02 -0.29114184264E+01 -0.49922003911E+03  0.49946852241E+03  0.00000000000E+00 0. -1.
        -15    1    1    2    0    0  0.66259129160E+01  0.13407064093E+01  0.30448711874E+02  0.31240710610E+02  0.17770000000E+01 0. -1.
         15    1    1    2    0    0  0.90320940136E+00  0.64326082959E+01  0.54486745673E+02  0.54901342604E+02  0.17770000000E+01 0.  1.
</event>
<event>
 6    1  0.1823098E-004  0.5039277E+03  0.7546771E-02  0.9391064E-01
        -11   -1    0    0    0    0  0.00000000000E+00  0.00000000000E+00  0.50000000000E+03  0.50000000000E+03  0.00000000000E+00 0.  1.
         11   -1    0    0    0    0 -0.00000000000E+00 -0.00000000000E+00 -0.50000000000E+03  0.50000000000E+03  0.00000000000E+00 0. -1.
        -11    1    1    2    0    0  0.66797871722E+01  0.98257457713E+00  0.49602630762E+03  0.49607225568E+03  0.00000000000E+00 0.  1.
         11    1    1    2    0    0  0.91928075811E+01 -0.73024225751E+01 -0.44448161150E+03  0.44463663372E+03  0.00000000000E+00 0. -1.
        -15    1    1    2    0    0  0.82905804291E+00 -0.25738499713E+01  0.10227974118E+01  0.33935062191E+01  0.17770000000E+01 0.  1.
         15    1    1    2    0    0 -0.16701652796E+02  0.88936979693E+01 -0.52567493533E+02  0.55897604376E+02  0.17770000000E+01 0. -1.
</event>
<event>
 6    1  0.1823098E-004  0.5004157E+03  0.7546771E-02  0.9398880E-01
        -11   -1    0    0    0    0  0.00000000000E+00  0.00000000000E+00  0.50000000000E+03  0.50000000000E+03  0.00000000000E+00 0.  1.
         11   -1    0    0    0    0 -0.00000000000E+00 -0.00000000000E+00 -0.50000000000E+03  0.50000000000E+03  0.00000000000E+00 0.  1.
        -11    1    1    2    0    0 -0.62490959762E+01 -0.23885614154E+01  0.39512075103E+03  0.39517738336E+03  0.00000000000E+00 0.  1.
         11    1    1    2    0    0 -0.19398233872E+01  0.84729117465E+01 -0.49950868272E+03  0.49958430446E+03  0.00000000000E+00 0.  1.
        -15    1    1    2    0    0  0.13552863851E+01 -0.35274683072E+01  0.65435233129E+02  0.65568340664E+02  0.17770000000E+01 0.  1.
         15    1    1    2    0    0  0.68336329783E+01 -0.25568820239E+01  0.38952698569E+02  0.39669971518E+02  0.17770000000E+01 0. -1.
</event>
<event>
 6    1  0.1823098E-004  0.5004656E+03  0.7546771E-02  0.9398769E-01
        -11   -1    0    0    0    0  0.00000000000E+00  0.00000000000E+00  0.50000000000E+03  0.50000000000E+03  0.00000000000E+00 0.  1.
         11   -1    0    0    0    0 -0.00000000000E+00 -0.00000000000E+00 -0.50000000000E+03  0.50000000000E+03  0.00000000000E+00 0. -1.
        -11    1    1    2    0    0  0.20944886635E+02  0.20927623138E+01  0.49909073182E+03  0.49953440975E+03  0.00000000000E+00 0.  1.
         11    1    1    2    0    0 -0.94982727026E+01 -0.10588258860E+02 -0.39670028160E+03  0.39695521389E+03  0.00000000000E+00 0. -1.
        -15    1    1    2    0    0 -0.60675710513E+01  0.29263151946E+01 -0.38184859947E+02  0.38815203172E+02  0.17770000000E+01 0. -1.
         15    1    1    2    0    0 -0.53790428807E+01  0.55691813515E+01 -0.64205590272E+02  0.64695173192E+02  0.17770000000E+01 0.  1.
</event>
<event>
 6    1  0.1823098E-004  0.5001194E+03  0.7546771E-02  0.9399543E-01
        -11   -1    0    0    0    0  0.00000000000E+00  0.00000000000E+00  0.50000000000E+03  0.50000000000E+03  0.00000000000E+00 0. -1.
         11   -1    0    0    0    0 -0.00000000000E+00 -0.00000000000E+00 -0.50000000000E+03  0.50000000000E+03  0.00000000000E+00 0.  1.
        -11    1    1    2    0    0 -0.46156929072E+00 -0.11947632072E+02  0.49973757262E+03  0.49988058618E+03  0.00000000000E+00 0. -1.
         11    1    1    2    0    0 -0.41246383032E+01 -0.22130178745E+00 -0.17601228764E+03  0.17606074809E+03  0.00000000000E+00 0.  1.
        -15    1    1    2    0    0  0.20863532251E+01  0.92206062412E+01 -0.26738919473E+03  0.26756216406E+03  0.17770000000E+01 0.  1.
         15    1    1    2    0    0  0.24998543688E+01  0.29483276181E+01 -0.56336090246E+02  0.56496501669E+02  0.17770000000E+01 0. -1.
</event>
<event>
 6    1  0.1823098E-004  0.5029387E+03  0.7546771E-02  0.9393258E-01
        -11   -1    0    0    0    0  0.00000000000E+00  0.00000000000E+00  0.50000000000E+03  0.50000000000E+03  0.00000000000E+00 0. -1.
         11   -1    0    0    0    0 -0.00000000000E+00 -0.00000000000E+00 -0.50000000000E+03  0.50000000000E+03  0.00000000000E+00 0. -1.
        -11    1    1    2    0    0  0.10785061609E+02  0.85285178234E+01  0.49687110919E+03  0.49706131645E+03  0.00000000000E+00 0. -1.
         11    1    1    2    0    0 -0.22845654524E+02 -0.91647371564E+01 -0.17502920676E+03  0.17675163240E+03  0.00000000000E+00 0. -1.
        -15    1    1    2    0    0 -0.46876196240E+01 -0.66617543336E+00 -0.13284792916E+01  0.52287812802E+01  0.17770000000E+01 0.  1.
         15    1    1    2    0    0  0.16748212539E+02  0.13023947664E+01 -0.32051342314E+03  0.32095826987E+03  0.17770000000E+01 0. -1.
</event>
<event>
 6    1  0.1823098E-004  0.5037456E+03  0.7546771E-02  0.9391467E-01
        -11   -1    0    0    0    0  0.00000000000E+00  0.00000000000E+00  0.50000000000E+03  0.50000000000E+03  0.00000000000E+00 0. -1.
         11   -1    0    0    0    0 -0.00000000000E+00 -0.00000000000E+00 -0.50000000000E+03  0.50000000000E+03  0.00000000000E+00 0.  1.
        -11    1    1    2    0    0  0.71800288683E+01  0.14500458041E+01  0.49620030402E+03  0.49625436739E+03  0.00000000000E+00 0. -1.
         11    1    1    2    0    0  0.70197896123E+01 -0.52604328867E+01 -0.47941024201E+03  0.47949048973E+03  0.00000000000E+00 0.  1.
        -15    1    1    2    0    0 -0.10503767121E+02 -0.13918524570E+01 -0.11824597514E+02  0.15976395475E+02  0.17770000000E+01 0.  1.
         15    1    1    2    0    0 -0.36960513595E+01  0.52022395396E+01 -0.49654644924E+01  0.82787473995E+01  0.17770000000E+01 0. -1.
</event>
<event>
 6    1  0.1823098E-004  0.5025073E+03  0.7546771E-02  0.9394217E-01
        -11   -1    0    0    0    0  0.00000000000E+00  0.00000000000E+00  0.50000000000E+03  0.50000000000E+03  0.00000000000E+00 0. -1.
         11   -1    0    0    0    0 -0.00000000000E+00 -0.00000000000E+00 -0.50000000000E+03  0.50000000000E+03  0.00000000000E+00 0. -1.
        -11    1    1    2    0    0  0.44085606165E+01 -0.10163764830E+02  0.49736931554E+03  0.49749268694E+03  0.00000000000E+00 0. -1.
         11    1    1    2    0    0  0.14226482365E+02  0.15466419108E+01 -0.41895958621E+03  0.41920391193E+03  0.00000000000E+00 0. -1.
        -15    1    1    2    0    0 -0.55510145778E+01  0.43881431932E+01 -0.56317387609E+01  0.92164946697E+01  0.17770000000E+01 0.  1.
         15    1    1    2    0    0 -0.13084028404E+02  0.42289797259E+01 -0.72777990566E+02  0.74086906459E+02  0.17770000000E+01 0. -1.
</event>
<event>
 6    1  0.1823098E-004  0.5042951E+03  0.7546771E-02  0.9390250E-01
        -11   -1    0    0    0    0  0.00000000000E+00  0.00000000000E+00  0.50000000000E+03  0.50000000000E+03  0.00000000000E+00 0. -1.
         11   -1    0    0    0    0 -0.00000000000E+00 -0.00000000000E+00 -0.50000000000E+03  0.50000000000E+03  0.00000000000E+00 0. -1.
        -11    1    1    2    0    0  0.17798609051E+01 -0.99225115670E+01  0.43789022668E+03  0.43800624969E+03  0.00000000000E+00 0. -1.
         11    1    1    2    0    0 -0.25213784900E+02  0.23527785619E+01 -0.49505763712E+03  0.49570488658E+03  0.00000000000E+00 0. -1.
        -15    1    1    2    0    0  0.48186136433E+01  0.12598446923E+02  0.17677849378E+02  0.22307039022E+02  0.17770000000E+01 0. -1.
         15    1    1    2    0    0  0.18615310352E+02 -0.50287139180E+01  0.39489561057E+02  0.43981824708E+02  0.17770000000E+01 0.  1.
</event>
<event>
 6    1  0.1823098E-004  0.5009197E+03  0.7546771E-02  0.9397754E-01
        -11   -1    0    0    0    0  0.00000000000E+00  0.00000000000E+00  0.50000000000E+03  0.50000000000E+03  0.00000000000E+00 0.  1.
         11   -1    0    0    0    0 -0.00000000000E+00 -0.00000000000E+00 -0.50000000000E+03  0.50000000000E+03  0.00000000000E+00 0. -1.
        -11    1    1    2    0    0 -0.17387845298E+02  0.40083171944E+01  0.49876115839E+03  0.49908025096E+03  0.00000000000E+00 0.  1.
         11    1    1    2    0    0 -0.33059928279E+01 -0.10027026801E+02 -0.30575638983E+03  0.30593862256E+03  0.00000000000E+00 0. -1.
        -15    1    1    2    0    0  0.23389671319E+02  0.59517303965E+01 -0.16017030683E+03  0.16198822407E+03  0.17770000000E+01 0.  1.
         15    1    1    2    0    0 -0.26958331939E+01  0.66979209924E-01 -0.32834461738E+02  0.32992902410E+02  0.17770000000E+01 0. -1.
</event>
<event>
 6    1  0.1823098E-004  0.4477908E+03  0.7546771E-02  0.9524863E-01
        -11   -1    0    0    0    0  0.00000000000E+00  0.00000000000E+00  0.50000000000E+03  0.50000000000E+03  0.00000000000E+00 0. -1.
         11   -1    0    0    0    0 -0.00000000000E+00 -0.00000000000E+00 -0.50000000000E+03  0.50000000000E+03  0.00000000000E+00 0. -1.
        -11    1    1    2    0    0 -0.67096808656E+01 -0.12011591607E+01  0.42934913853E+03  0.42940324330E+03  0.00000000000E+00 0. -1.
         11    1    1    2    0    0 -0.66313304355E+02 -0.54289195400E+02 -0.46366205960E+03  0.47151593460E+03  0.00000000000E+00 0. -1.
        -15    1    1    2    0    0  0.18384635435E+01 -0.17603185581E+00  0.80879498326E+00  0.26875293003E+01  0.17770000000E+01 0.  1.
         15    1    1    2    0    0  0.71184521677E+02  0.55666386417E+02  0.33504126083E+02  0.96393292799E+02  0.17770000000E+01 0. -1.
</event>
<event>
 6    1  0.2278924E-004  0.5006105E+03  0.7546771E-02  0.9398445E-01
        -11   -1    0    0    0    0  0.00000000000E+00  0.00000000000E+00  0.50000000000E+03  0.50000000000E+03  0.00000000000E+00 0. -1.
         11   -1    0    0    0    0 -0.00000000000E+00 -0.00000000000E+00 -0.50000000000E+03  0.50000000000E+03  0.00000000000E+00 0.  1.
        -11    1    1    2    0    0 -0.40810765710E+02 -0.22837917101E+02  0.49719491463E+03  0.49938949948E+03  0.00000000000E+00 0. -1.
         11    1    1    2    0    0  0.40775844301E+02  0.19460163124E+02 -0.30511500984E+03  0.30844211233E+03  0.00000000000E+00 0.  1.
        -15    1    1    2    0    0 -0.59792252093E+00  0.32982212290E+01 -0.10622932001E+03  0.10629704574E+03  0.17770000000E+01 0.  1.
         15    1    1    2    0    0  0.63284393035E+00  0.79532747414E-01 -0.85850584782E+02  0.85871342445E+02  0.17770000000E+01 0. -1.
</event>
<event>
 6    1  0.1823098E-004  0.5001426E+03  0.7546771E-02  0.9399491E-01
        -11   -1    0    0    0    0  0.00000000000E+00  0.00000000000E+00  0.50000000000E+03  0.50000000000E+03  0.00000000000E+00 0.  1.
         11   -1    0    0    0    0 -0.00000000000E+00 -0.00000000000E+00 -0.50000000000E+03  0.50000000000E+03  0.00000000000E+00 0.  1.
        -11    1    1    2    0    0 -0.52787733516E+01 -0.99498576998E+00  0.39453624552E+03  0.39457281264E+03  0.00000000000E+00 0.  1.
         11    1    1    2    0    0  0.30529299351E+01  0.63795638967E+01 -0.49980731826E+03  0.49985735426E+03  0.00000000000E+00 0.  1.
        -15    1    1    2    0    0  0.12420544099E+01 -0.60772919655E+00  0.51391178731E+02  0.51440480308E+02  0.17770000000E+01 0. -1.
         15    1    1    2    0    0  0.98378900656E+00 -0.47768489302E+01  0.53879894015E+02  0.54129352800E+02  0.17770000000E+01 0.  1.
</event>
<event>
 6    1  0.1823098E-004  0.5001734E+03  0.7546771E-02  0.9399422E-01
        -11   -1    0    0    0    0  0.00000000000E+00  0.00000000000E+00  0.50000000000E+03  0.50000000000E+03  0.00000000000E+00 0.  1.
         11   -1    0    0    0    0 -0.00000000000E+00 -0.00000000000E+00 -0.50000000000E+03  0.50000000000E+03  0.00000000000E+00 0. -1.
        -11    1    1    2    0    0  0.22071888610E+01 -0.75499932159E+01  0.49976469667E+03  0.49982659605E+03  0.00000000000E+00 0.  1.
         11    1    1    2    0    0 -0.56197962763E+01 -0.18815486557E+01 -0.24909078069E+03  0.24916127179E+03  0.00000000000E+00 0. -1.
        -15    1    1    2    0    0  0.49279154291E+01  0.59080123859E+01 -0.11413772065E+03  0.11441051510E+03  0.17770000000E+01 0.  1.
         15    1    1    2    0    0 -0.15153080138E+01  0.35235294857E+01 -0.13653619533E+03  0.13660161706E+03  0.17770000000E+01 0. -1.
</event>
<event>
 6    1  0.1823098E-004  0.5029352E+03  0.7546771E-02  0.9393266E-01
        -11   -1    0    0    0    0  0.00000000000E+00  0.00000000000E+00  0.50000000000E+03  0.50000000000E+03  0.00000000000E+00 0.  1.
         11   -1    0    0    0    0 -0.00000000000E+00 -0.00000000000E+00 -0.50000000000E+03  0.50000000000E+03  0.00000000000E+00 0.  1.
        -11    1    1    2    0    0 -0.94197413741E+01 -0.35217264783E+01  0.49696302496E+03  0.49706476667E+03  0.00000000000E+00 0.  1.
         11    1    1    2    0    0 -0.70004298975E+00  0.15078571626E+02 -0.42685566498E+03  0.42712247905E+03  0.00000000000E+00 0.  1.
        -15    1    1    2    0    0  0.12338022408E+02 -0.15401250135E+02 -0.67539440757E+02  0.70385787553E+02  0.17770000000E+01 0. -1.
         15    1    1    2    0    0 -0.22182380441E+01  0.38444049879E+01 -0.25679192221E+01  0.54269667276E+01  0.17770000000E+01 0.  1.
</event>
<event>
 6    1  0.1823098E-004  0.5002392E+03  0.7546771E-02  0.9399275E-01
        -11   -1    0    0    0    0  0.00000000000E+00  0.00000000000E+00  0.50000000000E+03  0.50000000000E+03  0.00000000000E+00 0.  1.
         11   -1    0    0    0    0 -0.00000000000E+00 -0.00000000000E+00 -0.50000000000E+03  0.50000000000E+03  0.00000000000E+00 0. -1.
        -11    1    1    2    0    0 -0.21424323427E+02  0.18112192728E+02  0.49897279509E+03  0.49976084620E+03  0.00000000000E+00 0.  1.
         11    1    1    2    0    0  0.18239583717E+02 -0.22372832326E+01 -0.27132791021E+03  0.27194948558E+03  0.00000000000E+00 0. -1.
        -15    1    1    2    0    0  0.24035976091E+00 -0.10902137908E+02 -0.15535315751E+03  0.15574554780E+03  0.17770000000E+01 0. -1.
         15    1    1    2    0    0  0.29443799491E+01 -0.49727715876E+01 -0.72291727369E+02  0.72544120406E+02  0.17770000000E+01 0.  1.
</event>
<event>
 6    1  0.1823098E-004  0.5007748E+03  0.7546771E-02  0.9398078E-01
        -11   -1    0    0    0    0  0.00000000000E+00  0.00000000000E+00  0.50000000000E+03  0.50000000000E+03  0.00000000000E+00 0.  1.
         11   -1    0    0    0    0 -0.00000000000E+00 -0.00000000000E+00 -0.50000000000E+03  0.50000000000E+03  0.00000000000E+00 0. -1.
        -11    1    1    2    0    0  0.10192380077E+01  0.22331825706E+02  0.14917026301E+03  0.15083605886E+03  0.00000000000E+00 0.  1.
         11    1    1    2    0    0 -0.64045869892E+01 -0.24086760407E+02 -0.49860264474E+03  0.49922518777E+03  0.00000000000E+00 0. -1.
        -15    1    1    2    0    0  0.12612232717E+01 -0.53433133524E+01  0.27034664600E+03  0.27040822549E+03  0.17770000000E+01 0.  1.
         15    1    1    2    0    0  0.41241257098E+01  0.70982480534E+01  0.79085735736E+02  0.79530527876E+02  0.17770000000E+01 0. -1.
</event>
<event>
 6    1  0.1823098E-004  0.5017550E+03  0.7546771E-02  0.9395891E-01
        -11   -1    0    0    0    0  0.00000000000E+00  0.00000000000E+00  0.50000000000E+03  0.50000000000E+03  0.00000000000E+00 0.  1.
         11   -1    0    0    0    0 -0.00000000000E+00 -0.00000000000E+00 -0.50000000000E+03  0.50000000000E+03  0.00000000000E+00 0. -1.
        -11    1    1    2    0    0  0.29800939908E+00 -0.10195264822E+02  0.41514044832E+03  0.41526572705E+03  0.00000000000E+00 0.  1.
         11    1    1    2    0    0 -0.76067811432E+01  0.28104915836E+02 -0.49739354860E+03  0.49824501161E+03  0.00000000000E+00 0. -1.
        -15    1    1    2    0    0  0.34413989450E+01 -0.17624048422E+02  0.79235340293E+02  0.81264058413E+02  0.17770000000E+01 0. -1.
         15    1    1    2    0    0  0.38673727991E+01 -0.28560259302E+00  0.30177599831E+01  0.52252029170E+01  0.17770000000E+01 0.  1.
</event>
<event>
 6    1  0.1823098E-004  0.5061244E+03  0.7546771E-02  0.9386209E-01
        -11   -1    0    0    0    0  0.00000000000E+00  0.00000000000E+00  0.50000000000E+03  0.50000000000E+03  0.00000000000E+00 0.  1.
         11   -1    0    0    0    0 -0.00000000000E+00 -0.00000000000E+00 -0.50000000000E+03  0.50000000000E+03  0.00000000000E+00 0. -1.
        -11    1    1    2    0    0 -0.31771431928E+01 -0.10385382091E+02  0.49375617001E+03  0.49387559752E+03  0.00000000000E+00 0.  1.
         11    1    1    2    0    0 -0.20919085678E+02  0.24932998822E+02 -0.43011183507E+03  0.43134145783E+03  0.00000000000E+00 0. -1.
        -15    1    1    2    0    0  0.23423044202E+02 -0.17421717236E+02 -0.64844404207E+02  0.71134448174E+02  0.17770000000E+01 0.  1.
         15    1    1    2    0    0  0.67318466882E+00  0.28741005045E+01  0.12000692653E+01  0.36484964780E+01  0.17770000000E+01 0. -1.
</event>
<event>
 6    1  0.1823098E-004  0.4913705E+03  0.7546771E-02  0.9419329E-01
        -11   -1    0    0    0    0  0.00000000000E+00  0.00000000000E+00  0.50000000000E+03  0.50000000000E+03  0.00000000000E+00 0.  1.
         11   -1    0    0    0    0 -0.00000000000E+00 -0.00000000000E+00 -0.50000000000E+03  0.50000000000E+03  0.00000000000E+00 0.  1.
        -11    1    1    2    0    0 -0.60181758423E+01 -0.47367716679E+01  0.49414312384E+03  0.49420247095E+03  0.00000000000E+00 0.  1.
         11    1    1    2    0    0 -0.29974016039E+01  0.10896162433E+02 -0.48848470060E+03  0.48861540448E+03  0.00000000000E+00 0.  1.
        -15    1    1    2    0    0  0.36934105117E+01 -0.69808895798E+01  0.13071967735E+01  0.82000361547E+01  0.17770000000E+01 0.  1.
         15    1    1    2    0    0  0.53221669345E+01  0.82149881448E+00 -0.69656200194E+01  0.89820884228E+01  0.17770000000E+01 0. -1.
</event>
<event>
 6    1  0.1823098E-004  0.5002100E+03  0.7546771E-02  0.9399340E-01
        -11   -1    0    0    0    0  0.00000000000E+00  0.00000000000E+00  0.50000000000E+03  0.50000000000E+03  0.00000000000E+00 0. -1.
         11   -1    0    0    0    0 -0.00000000000E+00 -0.00000000000E+00 -0.50000000000E+03  0.50000000000E+03  0.00000000000E+00 0.  1.
        -11    1    1    2    0    0  0.13263366763E+01  0.11362099406E+02  0.49965902172E+03  0.49978995033E+03  0.00000000000E+00 0. -1.
         11    1    1    2    0    0 -0.51083873712E+01  0.52438521191E+00 -0.42086004725E+02  0.42398141411E+02  0.00000000000E+00 0.  1.
        -15    1    1    2    0    0 -0.22764760647E+00 -0.66721284124E+01 -0.14482664766E+03  0.14499132637E+03  0.17770000000E+01 0. -1.
         15    1    1    2    0    0  0.40096983013E+01 -0.52143562056E+01 -0.31274636934E+03  0.31282058189E+03  0.17770000000E+01 0.  1.
</event>
<event>
 6    1  0.1823098E-004  0.5006008E+03  0.7546771E-02  0.9398466E-01
        -11   -1    0    0    0    0  0.00000000000E+00  0.00000000000E+00  0.50000000000E+03  0.50000000000E+03  0.00000000000E+00 0. -1.
         11   -1    0    0    0    0 -0.00000000000E+00 -0.00000000000E+00 -0.50000000000E+03  0.50000000000E+03  0.00000000000E+00 0. -1.
        -11    1    1    2    0    0 -0.13667298575E+02 -0.77297937733E+01  0.49915233519E+03  0.49939923757E+03  0.00000000000E+00 0. -1.
         11    1    1    2    0    0  0.11156729661E+02 -0.75034621294E+01 -0.85867092918E+02  0.86913360347E+02  0.00000000000E+00 0. -1.
        -15    1    1    2    0    0 -0.24263747660E+01  0.85737089449E+01 -0.15765189128E+03  0.15791349636E+03  0.17770000000E+01 0. -1.
         15    1    1    2    0    0  0.49369436805E+01  0.66595469579E+01 -0.25563335100E+03  0.25577390572E+03  0.17770000000E+01 0. -1.
</event>
<event>
 6    1  0.1823098E-004  0.5046858E+03  0.7546771E-02  0.9389385E-01
        -11   -1    0    0    0    0  0.00000000000E+00  0.00000000000E+00  0.50000000000E+03  0.50000000000E+03  0.00000000000E+00 0. -1.
         11   -1    0    0    0    0 -0.00000000000E+00 -0.00000000000E+00 -0.50000000000E+03  0.50000000000E+03  0.00000000000E+00 0.  1.
        -11    1    1    2    0    0 -0.46330961386E+01  0.86235709555E+01  0.43459023653E+03  0.43470047762E+03  0.00000000000E+00 0. -1.
         11    1    1    2    0    0 -0.78002543009E+01 -0.12139328258E+02 -0.49510396701E+03  0.49531418858E+03  0.00000000000E+00 0.  1.
        -15    1    1    2    0    0  0.93045529567E-01  0.11785983936E+02  0.50724416834E+02  0.52106067468E+02  0.17770000000E+01 0.  1.
         15    1    1    2    0    0  0.12340304910E+02 -0.82702266336E+01  0.97893136527E+01  0.17879266334E+02  0.17770000000E+01 0. -1.
</event>
<event>
 6    1  0.1823098E-004  0.5040863E+03  0.7546771E-02  0.9390713E-01
        -11   -1    0    0    0    0  0.00000000000E+00  0.00000000000E+00  0.50000000000E+03  0.50000000000E+03  0.00000000000E+00 0.  1.
         11   -1    0    0    0    0 -0.00000000000E+00 -0.00000000000E+00 -0.50000000000E+03  0.50000000000E+03  0.00000000000E+00 0. -1.
        -11    1    1    2    0    0  0.81481339430E+01 -0.36260432443E+01  0.46637704165E+03  0.46646230851E+03  0.00000000000E+00 0.  1.
         11    1    1    2    0    0  0.87657248101E+01  0.10368215945E+02 -0.49572784557E+03  0.49591373716E+03  0.00000000000E+00 0. -1.
        -15    1    1    2    0    0 -0.15714926909E+02  0.63600768058E+00  0.20608138233E+02  0.25984928785E+02  0.17770000000E+01 0.  1.
         15    1    1    2    0    0 -0.11989318437E+01 -0.73781803808E+01  0.87426656855E+01  0.11639025543E+02  0.17770000000E+01 0. -1.
</event>
<event>
 6    1  0.1823098E-004  0.5003227E+03  0.7546771E-02  0.9399088E-01
        -11   -1    0    0    0    0  0.00000000000E+00  0.00000000000E+00  0.50000000000E+03  0.50000000000E+03  0.00000000000E+00 0. -1.
         11   -1    0    0    0    0 -0.00000000000E+00 -0.00000000000E+00 -0.50000000000E+03  0.50000000000E+03  0.00000000000E+00 0.  1.
        -11    1    1    2    0    0  0.90261050718E+01 -0.56671061705E+00  0.49959549840E+03  0.49967734965E+03  0.00000000000E+00 0. -1.
         11    1    1    2    0    0  0.70251805248E+01  0.13204712036E+01 -0.21720519049E+03  0.21732278202E+03  0.00000000000E+00 0.  1.
        -15    1    1    2    0    0 -0.15837280218E+02 -0.16898518001E+01 -0.26654408938E+03  0.26702543766E+03  0.17770000000E+01 0.  1.
         15    1    1    2    0    0 -0.21400537894E+00  0.93609121348E+00 -0.15846218520E+02  0.15974430677E+02  0.17770000000E+01 0.  1.
</event>
<event>
 6    1  0.1823098E-004  0.5309076E+03  0.7546771E-02  0.9333189E-01
        -11   -1    0    0    0    0  0.00000000000E+00  0.00000000000E+00  0.50000000000E+03  0.50000000000E+03  0.00000000000E+00 0.  1.
         11   -1    0    0    0    0 -0.00000000000E+00 -0.00000000000E+00 -0.50000000000E+03  0.50000000000E+03  0.00000000000E+00 0. -1.
        -11    1    1    2    0    0  0.52400243267E+01 -0.37316874541E+01  0.27304245509E+03  0.27311822647E+03  0.00000000000E+00 0.  1.
         11    1    1    2    0    0 -0.87161111656E+02 -0.87815839099E+02 -0.45248097853E+03  0.46909243962E+03  0.00000000000E+00 0. -1.
        -15    1    1    2    0    0  0.46647879741E+02  0.78721669685E+02  0.19604663253E+02  0.93598218533E+02  0.17770000000E+01 0.  1.
         15    1    1    2    0    0  0.35273207588E+02  0.12825856868E+02  0.15983386018E+03  0.16419111537E+03  0.17770000000E+01 0. -1.
</event>
<event>
 6    1  0.1823098E-004  0.4872244E+03  0.7546771E-02  0.9428859E-01
        -11   -1    0    0    0    0  0.00000000000E+00  0.00000000000E+00  0.50000000000E+03  0.50000000000E+03  0.00000000000E+00 0. -1.
         11   -1    0    0    0    0 -0.00000000000E+00 -0.00000000000E+00 -0.50000000000E+03  0.50000000000E+03  0.00000000000E+00 0. -1.
        -11    1    1    2    0    0  0.24472342541E+01  0.11154535304E+02  0.48464285686E+03  0.48477738326E+03  0.00000000000E+00 0. -1.
         11    1    1    2    0    0  0.11501817938E+02  0.59178018985E+01 -0.48976335147E+03  0.48993413092E+03  0.00000000000E+00 0. -1.
        -15    1    1    2    0    0 -0.79740570955E+01 -0.59144202217E+01 -0.25224652973E+01  0.10396466385E+02  0.17770000000E+01 0.  1.
         15    1    1    2    0    0 -0.59749950966E+01 -0.11157916981E+02  0.76429599042E+01  0.14892019435E+02  0.17770000000E+01 0. -1.
</event>
<event>
 6    1  0.1823098E-004  0.5013659E+03  0.7546771E-02  0.9396759E-01
        -11   -1    0    0    0    0  0.00000000000E+00  0.00000000000E+00  0.50000000000E+03  0.50000000000E+03  0.00000000000E+00 0. -1.
         11   -1    0    0    0    0 -0.00000000000E+00 -0.00000000000E+00 -0.50000000000E+03  0.50000000000E+03  0.00000000000E+00 0. -1.
        -11    1    1    2    0    0 -0.60148867743E+01 -0.36867079018E+01  0.45544100159E+03  0.45549563841E+03  0.00000000000E+00 0. -1.
         11    1    1    2    0    0  0.11287016732E+02  0.16322330680E+00 -0.49850631370E+03  0.49863410251E+03  0.00000000000E+00 0. -1.
        -15    1    1    2    0    0 -0.46788769210E+01 -0.46987909047E+01  0.13786136813E+02  0.15400838368E+02  0.17770000000E+01 0.  1.
         15    1    1    2    0    0 -0.59325303647E+00  0.82222754998E+01  0.29279175296E+02  0.30469420713E+02  0.17770000000E+01 0. -1.
</event>
<event>
 6    1  0.1823098E-004  0.5003562E+03  0.7546771E-02  0.9399013E-01
        -11   -1    0    0    0    0  0.00000000000E+00  0.00000000000E+00  0.50000000000E+03  0.50000000000E+03  0.00000000000E+00 0.  1.
         11   -1    0    0    0    0 -0.00000000000E+00 -0.00000000000E+00 -0.50000000000E+03  0.50000000000E+03  0.00000000000E+00 0. -1.
        -11    1    1    2    0    0  0.39359205346E+01  0.41393621887E+01  0.28677461560E+03  0.28683149399E+03  0.00000000000E+00 0.  1.
         11    1    1    2    0    0  0.50911738689E+01  0.63557605155E+01 -0.49957744979E+03  0.49964381722E+03  0.00000000000E+00 0. -1.
        -15    1    1    2    0    0 -0.79539222142E+01 -0.98427147970E+01  0.11676282660E+03  0.11746003286E+03  0.17770000000E+01 0.  1.
         15    1    1    2    0    0 -0.10731721894E+01 -0.65240790725E+00  0.96040007585E+02  0.96064655938E+02  0.17770000000E+01 0. -1.
</event>
<event>
 6    1  0.1823098E-004  0.5001070E+03  0.7546771E-02  0.9399570E-01
        -11   -1    0    0    0    0  0.00000000000E+00  0.00000000000E+00  0.50000000000E+03  0.50000000000E+03  0.00000000000E+00 0. -1.
         11   -1    0    0    0    0 -0.00000000000E+00 -0.00000000000E+00 -0.50000000000E+03  0.50000000000E+03  0.00000000000E+00 0. -1.
        -11    1    1    2    0    0  0.67058550119E+01 -0.77833077518E+01  0.49978740657E+03  0.49989298869E+03  0.00000000000E+00 0. -1.
         11    1    1    2    0    0 -0.62042316210E+01  0.18447593871E+01 -0.18708945159E+03  0.18720138494E+03  0.00000000000E+00 0. -1.
        -15    1    1    2    0    0 -0.37595514224E+01  0.47683382680E+01 -0.11857146635E+03  0.11874014333E+03  0.17770000000E+01 0.  1.
         15    1    1    2    0    0  0.32579280315E+01  0.11702100967E+01 -0.19412648864E+03  0.19416548304E+03  0.17770000000E+01 0. -1.
</event>
<event>
 6    1  0.1823098E-004  0.5024194E+03  0.7546771E-02  0.9394412E-01
        -11   -1    0    0    0    0  0.00000000000E+00  0.00000000000E+00  0.50000000000E+03  0.50000000000E+03  0.00000000000E+00 0.  1.
         11   -1    0    0    0    0 -0.00000000000E+00 -0.00000000000E+00 -0.50000000000E+03  0.50000000000E+03  0.00000000000E+00 0. -1.
        -11    1    1    2    0    0  0.71914974137E+00  0.11231066637E+02  0.42430020828E+03  0.42444943253E+03  0.00000000000E+00 0.  1.
         11    1    1    2    0    0 -0.74762660515E+01  0.14324788532E+02 -0.49731817744E+03  0.49758061029E+03  0.00000000000E+00 0. -1.
        -15    1    1    2    0    0  0.72068522803E+01 -0.21235442255E+02  0.63293271783E+02  0.67172008378E+02  0.17770000000E+01 0.  1.
         15    1    1    2    0    0 -0.44973597021E+00 -0.43204129144E+01  0.97246973811E+01  0.10797948803E+02  0.17770000000E+01 0. -1.
</event>
<event>
 6    1  0.1823098E-004  0.4543116E+03  0.7546771E-02  0.9508277E-01
        -11   -1    0    0    0    0  0.00000000000E+00  0.00000000000E+00  0.50000000000E+03  0.50000000000E+03  0.00000000000E+00 0.  1.
         11   -1    0    0    0    0 -0.00000000000E+00 -0.00000000000E+00 -0.50000000000E+03  0.50000000000E+03  0.00000000000E+00 0.  1.
        -11    1    1    2    0    0  0.27896903446E+01  0.82797702847E+01  0.47053376800E+03  0.47061487843E+03  0.00000000000E+00 0.  1.
         11    1    1    2    0    0 -0.94441278592E+01  0.64661482052E+02 -0.43672052106E+03  0.44158250908E+03  0.00000000000E+00 0.  1.
        -15    1    1    2    0    0  0.71811450170E+01 -0.69708506272E+02 -0.39904396559E+02  0.80662031242E+02  0.17770000000E+01 0.  1.
         15    1    1    2    0    0 -0.52670750239E+00 -0.32327460650E+01  0.60911496177E+01  0.71405812494E+01  0.17770000000E+01 0.  1.
</event>
<event>
 6    1  0.1823098E-004  0.5032730E+03  0.7546771E-02  0.9392516E-01
        -11   -1    0    0    0    0  0.00000000000E+00  0.00000000000E+00  0.50000000000E+03  0.50000000000E+03  0.00000000000E+00 0.  1.
         11   -1    0    0    0    0 -0.00000000000E+00 -0.00000000000E+00 -0.50000000000E+03  0.50000000000E+03  0.00000000000E+00 0. -1.
        -11    1    1    2    0    0  0.10245554099E+02 -0.59941211075E+01  0.27607342908E+03  0.27632849855E+03  0.00000000000E+00 0.  1.
         11    1    1    2    0    0  0.27764310969E+02  0.25770973881E+02 -0.49528042503E+03  0.49672698686E+03  0.00000000000E+00 0. -1.
        -15    1    1    2    0    0 -0.10878453412E+02 -0.24436014264E+02  0.65358087143E+02  0.70642032995E+02  0.17770000000E+01 0.  1.
         15    1    1    2    0    0 -0.27131411656E+02  0.46591614899E+01  0.15384890880E+03  0.15630248160E+03  0.17770000000E+01 0. -1.
</event>
<event>
 6    1  0.1823098E-004  0.5016072E+03  0.7546771E-02  0.9396221E-01
        -11   -1    0    0    0    0  0.00000000000E+00  0.00000000000E+00  0.50000000000E+03  0.50000000000E+03  0.00000000000E+00 0.  1.
         11   -1    0    0    0    0 -0.00000000000E+00 -0.00000000000E+00 -0.50000000000E+03  0.50000000000E+03  0.00000000000E+00 0. -1.
        -11    1    1    2    0    0  0.12921784309E+02 -0.53742732193E+01  0.24295480250E+03  0.24335753816E+03  0.00000000000E+00 0.  1.
         11    1    1    2    0    0  0.18111801844E+02  0.26307944774E+01 -0.49805662575E+03  0.49839277773E+03  0.00000000000E+00 0. -1.
        -15    1    1    2    0    0 -0.21845954189E+02 -0.24019698491E+01  0.22883656685E+03  0.22989638368E+03  0.17770000000E+01 0.  1.
         15    1    1    2    0    0 -0.91876319643E+01  0.51454485910E+01  0.26265256399E+02  0.28353300426E+02  0.17770000000E+01 0. -1.
</event>
<event>
 6    1  0.1823098E-004  0.5003921E+03  0.7546771E-02  0.9398933E-01
        -11   -1    0    0    0    0  0.00000000000E+00  0.00000000000E+00  0.50000000000E+03  0.50000000000E+03  0.00000000000E+00 0. -1.
         11   -1    0    0    0    0 -0.00000000000E+00 -0.00000000000E+00 -0.50000000000E+03  0.50000000000E+03  0.00000000000E+00 0.  1.
        -11    1    1    2    0    0  0.25745097711E+02 -0.15644348116E+01  0.23956264542E+03  0.24094712822E+03  0.00000000000E+00 0. -1.
         11    1    1    2    0    0 -0.29031179184E+02 -0.61741428067E+01 -0.49872545994E+03  0.49960786002E+03  0.00000000000E+00 0.  1.
        -15    1    1    2    0    0  0.42245809793E+01  0.86625542869E+01  0.19830470727E+03  0.19854672393E+03  0.17770000000E+01 0. -1.
         15    1    1    2    0    0 -0.93849950678E+00 -0.92397666858E+00  0.60858107245E+02  0.60898287830E+02  0.17770000000E+01 0.  1.
</event>
<event>
 6    1  0.1823098E-004  0.4932158E+03  0.7546771E-02  0.9415119E-01
        -11   -1    0    0    0    0  0.00000000000E+00  0.00000000000E+00  0.50000000000E+03  0.50000000000E+03  0.00000000000E+00 0.  1.
         11   -1    0    0    0    0 -0.00000000000E+00 -0.00000000000E+00 -0.50000000000E+03  0.50000000000E+03  0.00000000000E+00 0. -1.
        -11    1    1    2    0    0  0.80196408517E+01 -0.42127612475E+01  0.49503755089E+03  0.49512042857E+03  0.00000000000E+00 0.  1.
         11    1    1    2    0    0 -0.12478162030E+02 -0.24708022661E+01 -0.49118662389E+03  0.49135130902E+03  0.00000000000E+00 0. -1.
        -15    1    1    2    0    0  0.65935947365E+01  0.52542874691E+01 -0.60662668129E-01  0.86165211842E+01  0.17770000000E+01 0. -1.
         15    1    1    2    0    0 -0.21350735583E+01  0.14292760444E+01 -0.37902643354E+01  0.49117412231E+01  0.17770000000E+01 0.  1.
</event>
<event>
 6    1  0.1823098E-004  0.5006609E+03  0.7546771E-02  0.9398332E-01
        -11   -1    0    0    0    0  0.00000000000E+00  0.00000000000E+00  0.50000000000E+03  0.50000000000E+03  0.00000000000E+00 0. -1.
         11   -1    0    0    0    0 -0.00000000000E+00 -0.00000000000E+00 -0.50000000000E+03  0.50000000000E+03  0.00000000000E+00 0. -1.
        -11    1    1    2    0    0  0.17096089969E+02 -0.11685882190E+02  0.23341201041E+03  0.23432883463E+03  0.00000000000E+00 0. -1.
         11    1    1    2    0    0 -0.34569879298E+02 -0.20358602365E+01 -0.49813684903E+03  0.49933910486E+03  0.00000000000E+00 0. -1.
        -15    1    1    2    0    0  0.16750641715E+02  0.33267684262E+01  0.12005958636E+03  0.12128113370E+03  0.17770000000E+01 0. -1.
         15    1    1    2    0    0  0.72314761405E+00  0.10394974000E+02  0.14466525226E+03  0.14505092681E+03  0.17770000000E+01 0.  1.
</event>
<event>
 6    1  0.1823098E-004  0.5088247E+03  0.7546771E-02  0.9380277E-01
        -11   -1    0    0    0    0  0.00000000000E+00  0.00000000000E+00  0.50000000000E+03  0.50000000000E+03  0.00000000000E+00 0.  1.
         11   -1    0    0    0    0 -0.00000000000E+00 -0.00000000000E+00 -0.50000000000E+03  0.50000000000E+03  0.00000000000E+00 0. -1.
        -11    1    1    2    0    0  0.55731783901E+01  0.17360544102E+02  0.49083675673E+03  0.49117529515E+03  0.00000000000E+00 0.  1.
         11    1    1    2    0    0 -0.27956338649E+01 -0.27099219040E+02 -0.47098756376E+03  0.47177480693E+03  0.00000000000E+00 0. -1.
        -15    1    1    2    0    0 -0.14125818146E+01 -0.59148403684E+01  0.46721927437E+01  0.78719653201E+01  0.17770000000E+01 0.  1.
         15    1    1    2    0    0 -0.13649627106E+01  0.15653515307E+02 -0.24521385712E+02  0.29177932601E+02  0.17770000000E+01 0. -1.
</event>
<event>
 6    1  0.1823098E-004  0.5012163E+03  0.7546771E-02  0.9397092E-01
        -11   -1    0    0    0    0  0.00000000000E+00  0.00000000000E+00  0.50000000000E+03  0.50000000000E+03  0.00000000000E+00 0.  1.
         11   -1    0    0    0    0 -0.00000000000E+00 -0.00000000000E+00 -0.50000000000E+03  0.50000000000E+03  0.00000000000E+00 0.  1.
        -11    1    1    2    0    0  0.81180980654E+01  0.66085747773E+01  0.49867386659E+03  0.49878372266E+03  0.00000000000E+00 0.  1.
         11    1    1    2    0    0 -0.16103578419E+02 -0.18287640917E+02 -0.14118146819E+03  0.14326887313E+03  0.00000000000E+00 0.  1.
        -15    1    1    2    0    0  0.37958553658E+01  0.11581003213E+02 -0.30799222341E+03  0.30823837458E+03  0.17770000000E+01 0.  1.
         15    1    1    2    0    0  0.41896249884E+01  0.98062926107E-01 -0.49500174983E+02  0.49709029625E+02  0.17770000000E+01 0. -1.
</event>
<event>
 6    1  0.1823098E-004  0.5025912E+03  0.7546771E-02  0.9394030E-01
        -11   -1    0    0    0    0  0.00000000000E+00  0.00000000000E+00  0.50000000000E+03  0.50000000000E+03  0.00000000000E+00 0. -1.
         11   -1    0    0    0    0 -0.00000000000E+00 -0.00000000000E+00 -0.50000000000E+03  0.50000000000E+03  0.00000000000E+00 0. -1.
        -11    1    1    2    0    0 -0.51901118682E+01  0.44104457810E+01  0.49736213595E+03  0.49740876909E+03  0.00000000000E+00 0. -1.
         11    1    1    2    0    0 -0.13904798002E+02  0.14534954351E+02 -0.35823275556E+03  0.35879703937E+03  0.00000000000E+00 0. -1.
        -15    1    1    2    0    0  0.15181444753E+02 -0.16798986028E+02 -0.13638138290E+03  0.13825961640E+03  0.17770000000E+01 0. -1.
         15    1    1    2    0    0  0.39134651173E+01 -0.21464141031E+01 -0.27479974930E+01  0.55345751370E+01  0.17770000000E+01 0.  1.
</event>
<event>
 6    1  0.1823098E-004  0.5028939E+03  0.7546771E-02  0.9393358E-01
        -11   -1    0    0    0    0  0.00000000000E+00  0.00000000000E+00  0.50000000000E+03  0.50000000000E+03  0.00000000000E+00 0. -1.
         11   -1    0    0    0    0 -0.00000000000E+00 -0.00000000000E+00 -0.50000000000E+03  0.50000000000E+03  0.00000000000E+00 0. -1.
        -11    1    1    2    0    0 -0.60742768126E+01  0.77027146340E+01  0.49700934775E+03  0.49710614601E+03  0.00000000000E+00 0. -1.
         11    1    1    2    0    0 -0.93635074621E+01  0.62867407318E+01 -0.45793506497E+03  0.45807392647E+03  0.00000000000E+00 0. -1.
        -15    1    1    2    0    0  0.19838583680E+01 -0.19535485947E+01 -0.30934471547E+01  0.45253939536E+01  0.17770000000E+01 0.  1.
         15    1    1    2    0    0  0.13453925907E+02 -0.12035906771E+02 -0.35980835622E+02  0.40294533565E+02  0.17770000000E+01 0. -1.
</event>
<event>
 6    1  0.1823098E-004  0.5001668E+03  0.7546771E-02  0.9399436E-01
        -11   -1    0    0    0    0  0.00000000000E+00  0.00000000000E+00  0.50000000000E+03  0.50000000000E+03  0.00000000000E+00 0. -1.
         11   -1    0    0    0    0 -0.00000000000E+00 -0.00000000000E+00 -0.50000000000E+03  0.50000000000E+03  0.00000000000E+00 0.  1.
        -11    1    1    2    0    0  0.11523988773E+01 -0.43038077911E+01  0.16116408351E+03  0.16122565738E+03  0.00000000000E+00 0. -1.
         11    1    1    2    0    0 -0.13413567245E+02  0.32157518729E+01 -0.49964280007E+03  0.49983316467E+03  0.00000000000E+00 0.  1.
        -15    1    1    2    0    0  0.13243760858E+02 -0.22174854006E+00  0.20226439249E+03  0.20270542314E+03  0.17770000000E+01 0. -1.
         15    1    1    2    0    0 -0.98259249061E+00  0.13098044583E+01  0.13621432407E+03  0.13623575480E+03  0.17770000000E+01 0. -1.
</event>
<event>
 6    1  0.1823098E-004  0.5022278E+03  0.7546771E-02  0.9394838E-01
        -11   -1    0    0    0    0  0.00000000000E+00  0.00000000000E+00  0.50000000000E+03  0.50000000000E+03  0.00000000000E+00 0. -1.
         11   -1    0    0    0    0 -0.00000000000E+00 -0.00000000000E+00 -0.50000000000E+03  0.50000000000E+03  0.00000000000E+00 0. -1.
        -11    1    1    2    0    0  0.29956023669E+01  0.82420924465E+01  0.49769489497E+03  0.49777215089E+03  0.00000000000E+00 0. -1.
         11    1    1    2    0    0  0.77237875637E+01 -0.13339283011E+01 -0.46425296161E+03  0.46431912369E+03  0.00000000000E+00 0. -1.
        -15    1    1    2    0    0 -0.91569183055E+01  0.66302693357E+00 -0.22739026513E+02  0.24586781272E+02  0.17770000000E+01 0. -1.
         15    1    1    2    0    0 -0.15624716251E+01 -0.75711910790E+01 -0.10702906843E+02  0.13321944146E+02  0.17770000000E+01 0.  1.
</event>
<event>
 6    1  0.1823098E-004  0.5002689E+03  0.7546771E-02  0.9399208E-01
        -11   -1    0    0    0    0  0.00000000000E+00  0.00000000000E+00  0.50000000000E+03  0.50000000000E+03  0.00000000000E+00 0. -1.
         11   -1    0    0    0    0 -0.00000000000E+00 -0.00000000000E+00 -0.50000000000E+03  0.50000000000E+03  0.00000000000E+00 0. -1.
        -11    1    1    2    0    0 -0.61574401820E+01 -0.27271351456E+00  0.26213631186E+03  0.26220876117E+03  0.00000000000E+00 0. -1.
         11    1    1    2    0    0 -0.66715344065E+01  0.97000249770E+01 -0.49959244500E+03  0.49973113867E+03  0.00000000000E+00 0. -1.
        -15    1    1    2    0    0  0.16650138669E+01 -0.29701256707E+01  0.64906737267E+02  0.65020275217E+02  0.17770000000E+01 0. -1.
         15    1    1    2    0    0  0.11163960722E+02 -0.64571857917E+01  0.17254939588E+03  0.17303982494E+03  0.17770000000E+01 0.  1.
</event>
<event>
 6    1  0.1823098E-004  0.5003437E+03  0.7546771E-02  0.9399041E-01
        -11   -1    0    0    0    0  0.00000000000E+00  0.00000000000E+00  0.50000000000E+03  0.50000000000E+03  0.00000000000E+00 0.  1.
         11   -1    0    0    0    0 -0.00000000000E+00 -0.00000000000E+00 -0.50000000000E+03  0.50000000000E+03  0.00000000000E+00 0.  1.
        -11    1    1    2    0    0  0.29732250840E+01  0.37980446667E+00  0.13576339895E+03  0.13579648306E+03  0.00000000000E+00 0.  1.
         11    1    1    2    0    0 -0.85425550516E+01  0.29232101772E+02 -0.49872731386E+03  0.49965630648E+03  0.00000000000E+00 0.  1.
        -15    1    1    2    0    0  0.18972745229E+01 -0.10547029274E+02  0.61382328153E+02  0.62336084378E+02  0.17770000000E+01 0. -1.
         15    1    1    2    0    0  0.36720554447E+01 -0.19064876965E+02  0.30158158676E+03  0.30221112608E+03  0.17770000000E+01 0.  1.
</event>
<event>
 6    1  0.1823098E-004  0.5017517E+03  0.7546771E-02  0.9395899E-01
        -11   -1    0    0    0    0  0.00000000000E+00  0.00000000000E+00  0.50000000000E+03  0.50000000000E+03  0.00000000000E+00 0.  1.
         11   -1    0    0    0    0 -0.00000000000E+00 -0.00000000000E+00 -0.50000000000E+03  0.50000000000E+03  0.00000000000E+00 0. -1.
        -11    1    1    2    0    0  0.56716448997E+01 -0.41458818122E+01  0.45023710812E+03  0.45029191578E+03  0.00000000000E+00 0.  1.
         11    1    1    2    0    0  0.78426975852E+00 -0.11038978493E+02 -0.49812537710E+03  0.49824829698E+03  0.00000000000E+00 0. -1.
        -15    1    1    2    0    0 -0.11077372871E+01  0.17206344788E+01  0.17944285339E+02  0.18147803455E+02  0.17770000000E+01 0.  1.
         15    1    1    2    0    0 -0.53481773711E+01  0.13464225826E+02  0.29943983646E+02  0.33311983788E+02  0.17770000000E+01 0. -1.
</event>
<event>
 6    1  0.1823098E-004  0.4652743E+03  0.7546771E-02  0.9481050E-01
        -11   -1    0    0    0    0  0.00000000000E+00  0.00000000000E+00  0.50000000000E+03  0.50000000000E+03  0.00000000000E+00 0. -1.
         11   -1    0    0    0    0 -0.00000000000E+00 -0.00000000000E+00 -0.50000000000E+03  0.50000000000E+03  0.00000000000E+00 0.  1.
        -11    1    1    2    0    0  0.29685579839E+01  0.75253042430E+01  0.47519215783E+03  0.47526101187E+03  0.00000000000E+00 0. -1.
         11    1    1    2    0    0 -0.10219426564E+02  0.34655410636E+02 -0.45505686767E+03  0.45648897794E+03  0.00000000000E+00 0.  1.
        -15    1    1    2    0    0 -0.15607156908E+02 -0.37914861286E+02 -0.18058188996E+02  0.44837216371E+02  0.17770000000E+01 0.  1.
         15    1    1    2    0    0  0.22858025488E+02 -0.42658535930E+01 -0.20771011621E+01  0.23412793817E+02  0.17770000000E+01 0. -1.
</event>
<event>
 6    1  0.1823098E-004  0.5034810E+03  0.7546771E-02  0.9392054E-01
        -11   -1    0    0    0    0  0.00000000000E+00  0.00000000000E+00  0.50000000000E+03  0.50000000000E+03  0.00000000000E+00 0. -1.
         11   -1    0    0    0    0 -0.00000000000E+00 -0.00000000000E+00 -0.50000000000E+03  0.50000000000E+03  0.00000000000E+00 0.  1.
        -11    1    1    2    0    0  0.71174927595E+00 -0.63982518603E+01  0.45835369087E+03  0.45839889850E+03  0.00000000000E+00 0. -1.
         11    1    1    2    0    0 -0.17189668260E+02  0.88848058392E+01 -0.49614182286E+03  0.49651901561E+03  0.00000000000E+00 0.  1.
        -15    1    1    2    0    0  0.55210226338E+01  0.10056200856E+01  0.31117255498E+02  0.31669137680E+02  0.17770000000E+01 0.  1.
         15    1    1    2    0    0  0.10956896351E+02 -0.34921740644E+01  0.66708764932E+01  0.13412948204E+02  0.17770000000E+01 0. -1.
</event>
<event>
 6    1  0.1823098E-004  0.4592201E+03  0.7546771E-02  0.9495986E-01
        -11   -1    0    0    0    0  0.00000000000E+00  0.00000000000E+00  0.50000000000E+03  0.50000000000E+03  0.00000000000E+00 0. -1.
         11   -1    0    0    0    0 -0.00000000000E+00 -0.00000000000E+00 -0.50000000000E+03  0.50000000000E+03  0.00000000000E+00 0. -1.
        -11    1    1    2    0    0  0.48889655086E+01 -0.19637730359E+02  0.44856032437E+03  0.44901659996E+03  0.00000000000E+00 0. -1.
         11    1    1    2    0    0  0.42974400758E+02  0.72013697116E+01 -0.46896024476E+03  0.47098022253E+03  0.00000000000E+00 0. -1.
        -15    1    1    2    0    0 -0.57444144153E+01  0.81440178028E+01  0.34019559652E+02  0.35493823278E+02  0.17770000000E+01 0. -1.
         15    1    1    2    0    0 -0.42118951851E+02  0.42923428442E+01 -0.13619639262E+02  0.44509354239E+02  0.17770000000E+01 0.  1.
</event>
<event>
 6    1  0.1823098E-004  0.5002825E+03  0.7546771E-02  0.9399178E-01
        -11   -1    0    0    0    0  0.00000000000E+00  0.00000000000E+00  0.50000000000E+03  0.50000000000E+03  0.00000000000E+00 0.  1.
         11   -1    0    0    0    0 -0.00000000000E+00 -0.00000000000E+00 -0.50000000000E+03  0.50000000000E+03  0.00000000000E+00 0. -1.
        -11    1    1    2    0    0 -0.12986090810E+02  0.61219752891E+01  0.49951126178E+03  0.49971753800E+03  0.00000000000E+00 0.  1.
         11    1    1    2    0    0 -0.52393329933E+01 -0.32223289105E+01 -0.55535234387E+02  0.55874826821E+02  0.00000000000E+00 0. -1.
        -15    1    1    2    0    0  0.29140775827E+01 -0.11783937713E+01 -0.52211955882E+02  0.52336665217E+02  0.17770000000E+01 0. -1.
         15    1    1    2    0    0  0.15311346221E+02 -0.17212526074E+01 -0.39176407151E+03  0.39207096997E+03  0.17770000000E+01 0. -1.
</event>
<event>
 6    1  0.1823098E-004  0.5000663E+03  0.7546771E-02  0.9399661E-01
        -11   -1    0    0    0    0  0.00000000000E+00  0.00000000000E+00  0.50000000000E+03  0.50000000000E+03  0.00000000000E+00 0.  1.
         11   -1    0    0    0    0 -0.00000000000E+00 -0.00000000000E+00 -0.50000000000E+03  0.50000000000E+03  0.00000000000E+00 0. -1.
        -11    1    1    2    0    0  0.10953279309E+01 -0.77920168161E+01  0.49987182105E+03  0.49993374836E+03  0.00000000000E+00 0.  1.
         11    1    1    2    0    0  0.26669980154E+01  0.38396893739E+01 -0.25201556934E+03  0.25205892819E+03  0.00000000000E+00 0. -1.
        -15    1    1    2    0    0  0.94863999287E+00  0.81605374232E+00 -0.34352203736E+02  0.34420887439E+02  0.17770000000E+01 0. -1.
         15    1    1    2    0    0 -0.47109659391E+01  0.31362736998E+01 -0.21350404798E+03  0.21358643601E+03  0.17770000000E+01 0. -1.
</event>
<event>
 6    1  0.1823098E-004  0.5013070E+03  0.7546771E-02  0.9396890E-01
        -11   -1    0    0    0    0  0.00000000000E+00  0.00000000000E+00  0.50000000000E+03  0.50000000000E+03  0.00000000000E+00 0.  1.
         11   -1    0    0    0    0 -0.00000000000E+00 -0.00000000000E+00 -0.50000000000E+03  0.50000000000E+03  0.00000000000E+00 0. -1.
        -11    1    1    2    0    0 -0.91539540996E+00  0.77792085268E+01  0.49863146235E+03  0.49869298098E+03  0.00000000000E+00 0.  1.
         11    1    1    2    0    0  0.16474708041E+02  0.41832289611E+01 -0.40486515164E+03  0.40522179905E+03  0.00000000000E+00 0. -1.
        -15    1    1    2    0    0 -0.11615101037E+02 -0.86783939773E+01 -0.53657698783E+02  0.55610533731E+02  0.17770000000E+01 0.  1.
         15    1    1    2    0    0 -0.39442115941E+01 -0.32840435106E+01 -0.40108611923E+02  0.40474686240E+02  0.17770000000E+01 0. -1.
</event>
<event>
 6    1  0.1823098E-004  0.5116963E+03  0.7546771E-02  0.9374012E-01
        -11   -1    0    0    0    0  0.00000000000E+00  0.00000000000E+00  0.50000000000E+03  0.50000000000E+03  0.00000000000E+00 0. -1.
         11   -1    0    0    0    0 -0.00000000000E+00 -0.00000000000E+00 -0.50000000000E+03  0.50000000000E+03  0.00000000000E+00 0.  1.
        -11    1    1    2    0    0 -0.57412818349E+01  0.34741649012E+01  0.48825756727E+03  0.48830368023E+03  0.00000000000E+00 0. -1.
         11    1    1    2    0    0 -0.22175515304E+02 -0.11625597831E+02 -0.46460931982E+03  0.46528349216E+03  0.00000000000E+00 0.  1.
        -15    1    1    2    0    0  0.25091973923E+02  0.54487926912E+01 -0.29502976840E+02  0.39152009764E+02  0.17770000000E+01 0. -1.
         15    1    1    2    0    0  0.28248232150E+01  0.27026402388E+01  0.58547293994E+01  0.72608178462E+01  0.17770000000E+01 0.  1.
</event>
<event>
 6    1  0.1823098E-004  0.5004457E+03  0.7546771E-02  0.9398813E-01
        -11   -1    0    0    0    0  0.00000000000E+00  0.00000000000E+00  0.50000000000E+03  0.50000000000E+03  0.00000000000E+00 0.  1.
         11   -1    0    0    0    0 -0.00000000000E+00 -0.00000000000E+00 -0.50000000000E+03  0.50000000000E+03  0.00000000000E+00 0. -1.
        -11    1    1    2    0    0  0.60930769936E+00  0.45256743056E+01  0.28526149058E+03  0.28529803889E+03  0.00000000000E+00 0.  1.
         11    1    1    2    0    0  0.17249983981E+02 -0.22266182858E+02 -0.49875961684E+03  0.49955430159E+03  0.00000000000E+00 0. -1.
        -15    1    1    2    0    0 -0.17157947295E+02  0.16854331403E+02  0.20389570395E+03  0.20531702185E+03  0.17770000000E+01 0.  1.
         15    1    1    2    0    0 -0.70134438470E+00  0.88617714898E+00  0.96024223082E+01  0.98306376736E+01  0.17770000000E+01 0. -1.
</event>
<event>
 6    1  0.1823098E-004  0.5072581E+03  0.7546771E-02  0.9383714E-01
        -11   -1    0    0    0    0  0.00000000000E+00  0.00000000000E+00  0.50000000000E+03  0.50000000000E+03  0.00000000000E+00 0.  1.
         11   -1    0    0    0    0 -0.00000000000E+00 -0.00000000000E+00 -0.50000000000E+03  0.50000000000E+03  0.00000000000E+00 0. -1.
        -11    1    1    2    0    0  0.83612553258E+01  0.14808068368E+02  0.48128667773E+03  0.48158701772E+03  0.00000000000E+00 0.  1.
         11    1    1    2    0    0  0.66130577762E+01 -0.72075176044E+01 -0.49264476481E+03  0.49274186461E+03  0.00000000000E+00 0. -1.
        -15    1    1    2    0    0 -0.35432533942E+01  0.41234881824E+01  0.10010242809E+00  0.57206248699E+01  0.17770000000E+01 0. -1.
         15    1    1    2    0    0 -0.11431059708E+02 -0.11724038946E+02  0.11257984654E+02  0.19950492794E+02  0.17770000000E+01 0.  1.
</event>
<event>
 6    1  0.1823098E-004  0.5008144E+03  0.7546771E-02  0.9397989E-01
        -11   -1    0    0    0    0  0.00000000000E+00  0.00000000000E+00  0.50000000000E+03  0.50000000000E+03  0.00000000000E+00 0.  1.
         11   -1    0    0    0    0 -0.00000000000E+00 -0.00000000000E+00 -0.50000000000E+03  0.50000000000E+03  0.00000000000E+00 0.  1.
        -11    1    1    2    0    0  0.76669691233E+01  0.13878798252E+01  0.43672748158E+03  0.43679698007E+03  0.00000000000E+00 0.  1.
         11    1    1    2    0    0 -0.24181108800E+01  0.88305959186E+01 -0.49910167494E+03  0.49918564544E+03  0.00000000000E+00 0.  1.
        -15    1    1    2    0    0  0.17021771513E+01 -0.44396617762E+01  0.26306056254E+02  0.26791310688E+02  0.17770000000E+01 0. -1.
         15    1    1    2    0    0 -0.69510353945E+01 -0.57788139676E+01  0.36068137098E+02  0.37226063809E+02  0.17770000000E+01 0.  1.
</event>
<event>
 6    1  0.1823098E-004  0.5029847E+03  0.7546771E-02  0.9393156E-01
        -11   -1    0    0    0    0  0.00000000000E+00  0.00000000000E+00  0.50000000000E+03  0.50000000000E+03  0.00000000000E+00 0. -1.
         11   -1    0    0    0    0 -0.00000000000E+00 -0.00000000000E+00 -0.50000000000E+03  0.50000000000E+03  0.00000000000E+00 0. -1.
        -11    1    1    2    0    0  0.43319868113E+01 -0.95189972611E+01  0.49690526055E+03  0.49701530699E+03  0.00000000000E+00 0. -1.
         11    1    1    2    0    0 -0.21547177467E+02  0.19038933956E+02 -0.42081545162E+03  0.42179664079E+03  0.00000000000E+00 0. -1.
        -15    1    1    2    0    0  0.82211373025E+01  0.14346123280E+01 -0.82784733629E+01  0.11888484399E+02  0.17770000000E+01 0.  1.
         15    1    1    2    0    0  0.89940533537E+01 -0.10954549023E+02 -0.67811335567E+02  0.69299567823E+02  0.17770000000E+01 0. -1.
</event>
<event>
 6    1  0.1823098E-004  0.5012682E+03  0.7546771E-02  0.9396976E-01
        -11   -1    0    0    0    0  0.00000000000E+00  0.00000000000E+00  0.50000000000E+03  0.50000000000E+03  0.00000000000E+00 0.  1.
         11   -1    0    0    0    0 -0.00000000000E+00 -0.00000000000E+00 -0.50000000000E+03  0.50000000000E+03  0.00000000000E+00 0.  1.
        -11    1    1    2    0    0  0.77468699500E+01  0.38556474986E+01  0.28463185872E+03  0.28476336669E+03  0.00000000000E+00 0.  1.
         11    1    1    2    0    0  0.71354637232E+01 -0.14598198214E+02 -0.49846701052E+03  0.49873177442E+03  0.00000000000E+00 0.  1.
        -15    1    1    2    0    0  0.37161835405E+01  0.81717642023E+01  0.23207976917E+02  0.24947057379E+02  0.17770000000E+01 0. -1.
         15    1    1    2    0    0 -0.18598517214E+02  0.25707865129E+01  0.19062717488E+03  0.19155780151E+03  0.17770000000E+01 0.  1.
</event>
<event>
 6    1  0.1823098E-004  0.5027386E+03  0.7546771E-02  0.9393703E-01
        -11   -1    0    0    0    0  0.00000000000E+00  0.00000000000E+00  0.50000000000E+03  0.50000000000E+03  0.00000000000E+00 0. -1.
         11   -1    0    0    0    0 -0.00000000000E+00 -0.00000000000E+00 -0.50000000000E+03  0.50000000000E+03  0.00000000000E+00 0. -1.
        -11    1    1    2    0    0 -0.71381784168E+01 -0.81575111651E+01  0.49714325721E+03  0.49726141693E+03  0.00000000000E+00 0. -1.
         11    1    1    2    0    0  0.22221078738E+02 -0.57791787827E+01 -0.44996090580E+03  0.45054632614E+03  0.00000000000E+00 0. -1.
        -15    1    1    2    0    0 -0.12914590869E+02  0.14175517407E+02 -0.38207516195E+02  0.42786726608E+02  0.17770000000E+01 0. -1.
         15    1    1    2    0    0 -0.21683094522E+01 -0.23882745935E+00 -0.89748352175E+01  0.94055303209E+01  0.17770000000E+01 0.  1.
</event>
<event>
 6    1  0.1823098E-004  0.5036348E+03  0.7546771E-02  0.9391713E-01
        -11   -1    0    0    0    0  0.00000000000E+00  0.00000000000E+00  0.50000000000E+03  0.50000000000E+03  0.00000000000E+00 0.  1.
         11   -1    0    0    0    0 -0.00000000000E+00 -0.00000000000E+00 -0.50000000000E+03  0.50000000000E+03  0.00000000000E+00 0. -1.
        -11    1    1    2    0    0  0.37964640787E+01 -0.24230027067E+02  0.49575896379E+03  0.49636524609E+03  0.00000000000E+00 0.  1.
         11    1    1    2    0    0 -0.29126824283E+02 -0.86429804829E+01 -0.31978398255E+03  0.32122401607E+03  0.00000000000E+00 0. -1.
        -15    1    1    2    0    0  0.66104673385E+01  0.13923455896E+02 -0.27677265714E+02  0.31729318759E+02  0.17770000000E+01 0.  1.
         15    1    1    2    0    0  0.18719892866E+02  0.18949551654E+02 -0.14829771553E+03  0.15068141908E+03  0.17770000000E+01 0. -1.
</event>
<event>
 6    1  0.1823098E-004  0.5021809E+03  0.7546771E-02  0.9394943E-01
        -11   -1    0    0    0    0  0.00000000000E+00  0.00000000000E+00  0.50000000000E+03  0.50000000000E+03  0.00000000000E+00 0.  1.
         11   -1    0    0    0    0 -0.00000000000E+00 -0.00000000000E+00 -0.50000000000E+03  0.50000000000E+03  0.00000000000E+00 0. -1.
        -11    1    1    2    0    0 -0.17389444502E+02 -0.16250899858E+02  0.49724981290E+03  0.49781910465E+03  0.00000000000E+00 0.  1.
         11    1    1    2    0    0  0.18446625628E+02  0.22114537231E+02 -0.83976946857E+02  0.88777578010E+02  0.00000000000E+00 0. -1.
        -15    1    1    2    0    0 -0.34797570539E+01 -0.60658558455E+01 -0.32187108746E+03  0.32195194981E+03  0.17770000000E+01 0. -1.
         15    1    1    2    0    0  0.24225759278E+01  0.20221847220E+00 -0.91401778583E+02  0.91451367533E+02  0.17770000000E+01 0.  1.
</event>
<event>
 6    1  0.1823098E-004  0.5078517E+03  0.7546771E-02  0.9382410E-01
        -11   -1    0    0    0    0  0.00000000000E+00  0.00000000000E+00  0.50000000000E+03  0.50000000000E+03  0.00000000000E+00 0. -1.
         11   -1    0    0    0    0 -0.00000000000E+00 -0.00000000000E+00 -0.50000000000E+03  0.50000000000E+03  0.00000000000E+00 0. -1.
        -11    1    1    2    0    0 -0.60013291519E+01  0.29782975758E+01  0.49210271763E+03  0.49214832206E+03  0.00000000000E+00 0. -1.
         11    1    1    2    0    0  0.64836965443E+01 -0.39407403080E+02 -0.42809072526E+03  0.42994959099E+03  0.00000000000E+00 0. -1.
        -15    1    1    2    0    0 -0.41550550234E+01  0.34719996088E+02 -0.64561626084E+02  0.73444563462E+02  0.17770000000E+01 0.  1.
         15    1    1    2    0    0  0.36726876311E+01  0.17091094162E+01  0.54963371755E+00  0.44575234890E+01  0.17770000000E+01 0. -1.
</event>
<event>
 6    1  0.1823098E-004  0.5034534E+03  0.7546771E-02  0.9392115E-01
        -11   -1    0    0    0    0  0.00000000000E+00  0.00000000000E+00  0.50000000000E+03  0.50000000000E+03  0.00000000000E+00 0.  1.
         11   -1    0    0    0    0 -0.00000000000E+00 -0.00000000000E+00 -0.50000000000E+03  0.50000000000E+03  0.00000000000E+00 0. -1.
        -11    1    1    2    0    0 -0.36053899817E+01 -0.10870458269E+02  0.49641449592E+03  0.49654659143E+03  0.00000000000E+00 0.  1.
         11    1    1    2    0    0  0.23633438485E+02  0.13658427903E+02 -0.44130663129E+03  0.44215001401E+03  0.00000000000E+00 0. -1.
        -15    1    1    2    0    0 -0.40150397916E+01  0.29852049341E+01 -0.32591092883E+02  0.33020736778E+02  0.17770000000E+01 0.  1.
         15    1    1    2    0    0 -0.16013008711E+02 -0.57731745678E+01 -0.22516771746E+02  0.28282657786E+02  0.17770000000E+01 0. -1.
</event>
<event>
 6    1  0.1823098E-004  0.5020982E+03  0.7546771E-02  0.9395127E-01
        -11   -1    0    0    0    0  0.00000000000E+00  0.00000000000E+00  0.50000000000E+03  0.50000000000E+03  0.00000000000E+00 0. -1.
         11   -1    0    0    0    0 -0.00000000000E+00 -0.00000000000E+00 -0.50000000000E+03  0.50000000000E+03  0.00000000000E+00 0. -1.
        -11    1    1    2    0    0  0.45498617550E+01 -0.81093969860E+00  0.18307943085E+03  0.18313775380E+03  0.00000000000E+00 0. -1.
         11    1    1    2    0    0  0.54923360937E+02 -0.28423789157E+02 -0.49404627499E+03  0.49790180678E+03  0.00000000000E+00 0. -1.
        -15    1    1    2    0    0 -0.30864888110E+00  0.38280207059E+01  0.49327580933E+02  0.49508756563E+02  0.17770000000E+01 0.  1.
         15    1    1    2    0    0 -0.59164573811E+02  0.25406708149E+02  0.26163926321E+03  0.26945168286E+03  0.17770000000E+01 0. -1.
</event>
<event>
 6    1  0.1823098E-004  0.4791695E+03  0.7546771E-02  0.9447665E-01
        -11   -1    0    0    0    0  0.00000000000E+00  0.00000000000E+00  0.50000000000E+03  0.50000000000E+03  0.00000000000E+00 0.  1.
         11   -1    0    0    0    0 -0.00000000000E+00 -0.00000000000E+00 -0.50000000000E+03  0.50000000000E+03  0.00000000000E+00 0. -1.
        -11    1    1    2    0    0 -0.35481776198E+01 -0.15651961596E+02  0.48408326191E+03  0.48434923137E+03  0.00000000000E+00 0.  1.
         11    1    1    2    0    0  0.16973796626E+02 -0.57907378854E+01 -0.47403711106E+03  0.47437624843E+03  0.00000000000E+00 0. -1.
        -15    1    1    2    0    0 -0.14837447397E+02  0.24358838916E+01 -0.15196727657E+02  0.21451844585E+02  0.17770000000E+01 0. -1.
         15    1    1    2    0    0  0.14118283911E+01  0.19006815590E+02  0.51505768045E+01  0.19822675619E+02  0.17770000000E+01 0.  1.
</event>
<event>
 6    1  0.1823098E-004  0.4709799E+03  0.7546771E-02  0.9467193E-01
        -11   -1    0    0    0    0  0.00000000000E+00  0.00000000000E+00  0.50000000000E+03  0.50000000000E+03  0.00000000000E+00 0.  1.
         11   -1    0    0    0    0 -0.00000000000E+00 -0.00000000000E+00 -0.50000000000E+03  0.50000000000E+03  0.00000000000E+00 0.  1.
        -11    1    1    2    0    0  0.84863349173E+01 -0.25774224091E+00  0.46318365840E+03  0.46326146583E+03  0.00000000000E+00 0.  1.
         11    1    1    2    0    0 -0.15195531751E+01 -0.37056435466E+02 -0.47814534076E+03  0.47958154191E+03  0.00000000000E+00 0.  1.
        -15    1    1    2    0    0 -0.81910777128E+01  0.70972770157E+01 -0.12238357751E+02  0.16443850661E+02  0.17770000000E+01 0.  1.
         15    1    1    2    0    0  0.12242959707E+01  0.30216900691E+02  0.27200040112E+02  0.40713141602E+02  0.17770000000E+01 0. -1.
</event>
<event>
 6    1  0.1823098E-004  0.4685519E+03  0.7546771E-02  0.9473064E-01
        -11   -1    0    0    0    0  0.00000000000E+00  0.00000000000E+00  0.50000000000E+03  0.50000000000E+03  0.00000000000E+00 0.  1.
         11   -1    0    0    0    0 -0.00000000000E+00 -0.00000000000E+00 -0.50000000000E+03  0.50000000000E+03  0.00000000000E+00 0. -1.
        -11    1    1    2    0    0  0.23675735975E+02 -0.31939604100E+01  0.47071206981E+03  0.47131793359E+03  0.00000000000E+00 0.  1.
         11    1    1    2    0    0 -0.24136053489E+02  0.35466486927E+02 -0.46438554532E+03  0.46636290105E+03  0.00000000000E+00 0. -1.
        -15    1    1    2    0    0  0.18190779444E+02 -0.54418042788E+01  0.14505866532E+02  0.23960291806E+02  0.17770000000E+01 0.  1.
         15    1    1    2    0    0 -0.17730461930E+02 -0.26830722238E+02 -0.20832391025E+02  0.38358873561E+02  0.17770000000E+01 0. -1.
</event>
<event>
 6    1  0.1823098E-004  0.5050468E+03  0.7546771E-02  0.9388587E-01
        -11   -1    0    0    0    0  0.00000000000E+00  0.00000000000E+00  0.50000000000E+03  0.50000000000E+03  0.00000000000E+00 0. -1.
         11   -1    0    0    0    0 -0.00000000000E+00 -0.00000000000E+00 -0.50000000000E+03  0.50000000000E+03  0.00000000000E+00 0. -1.
        -11    1    1    2    0    0  0.39474068090E+01  0.10301472080E+02  0.40183615973E+03  0.40198756400E+03  0.00000000000E+00 0. -1.
         11    1    1    2    0    0 -0.10468708363E+02  0.27725205591E+02 -0.49406514024E+03  0.49495317322E+03  0.00000000000E+00 0. -1.
        -15    1    1    2    0    0  0.69392889553E+01 -0.23828075511E+02  0.28913009040E+02  0.38145127271E+02  0.17770000000E+01 0.  1.
         15    1    1    2    0    0 -0.41798740097E+00 -0.14198602160E+02  0.63315971469E+02  0.64914135509E+02  0.17770000000E+01 0. -1.
</event>
<event>
 6    1  0.1823098E-004  0.5025727E+03  0.7546771E-02  0.9394071E-01
        -11   -1    0    0    0    0  0.00000000000E+00  0.00000000000E+00  0.50000000000E+03  0.50000000000E+03  0.00000000000E+00 0. -1.
         11   -1    0    0    0    0 -0.00000000000E+00 -0.00000000000E+00 -0.50000000000E+03  0.50000000000E+03  0.00000000000E+00 0. -1.
        -11    1    1    2    0    0  0.58760345455E+01  0.47192770651E+01  0.49737016732E+03  0.49742726372E+03  0.00000000000E+00 0. -1.
         11    1    1    2    0    0 -0.31895495115E+02  0.80303120200E+01 -0.34972054275E+03  0.35126381331E+03  0.00000000000E+00 0. -1.
        -15    1    1    2    0    0  0.23462931029E+02 -0.93440310134E+01 -0.14074781999E+03  0.14300673624E+03  0.17770000000E+01 0. -1.
         15    1    1    2    0    0  0.25565295404E+01 -0.34055580716E+01 -0.69018045733E+01  0.83021867263E+01  0.17770000000E+01 0.  1.
</event>
<event>
 6    1  0.1823098E-004  0.5039701E+03  0.7546771E-02  0.9390970E-01
        -11   -1    0    0    0    0  0.00000000000E+00  0.00000000000E+00  0.50000000000E+03  0.50000000000E+03  0.00000000000E+00 0. -1.
         11   -1    0    0    0    0 -0.00000000000E+00 -0.00000000000E+00 -0.50000000000E+03  0.50000000000E+03  0.00000000000E+00 0. -1.
        -11    1    1    2    0    0  0.92917497423E+01  0.17033730852E+01  0.49593998655E+03  0.49602994704E+03  0.00000000000E+00 0. -1.
         11    1    1    2    0    0 -0.28080142444E+02  0.73264769552E+01 -0.19964380707E+03  0.20174196729E+03  0.00000000000E+00 0. -1.
        -15    1    1    2    0    0  0.31162920844E+02 -0.19815342743E+02 -0.25637591315E+03  0.25902807187E+03  0.17770000000E+01 0. -1.
         15    1    1    2    0    0 -0.12374528142E+02  0.10785492702E+02 -0.39920266340E+02  0.43200013810E+02  0.17770000000E+01 0.  1.
</event>
<event>
 6    1  0.1823098E-004  0.5000250E+03  0.7546771E-02  0.9399754E-01
        -11   -1    0    0    0    0  0.00000000000E+00  0.00000000000E+00  0.50000000000E+03  0.50000000000E+03  0.00000000000E+00 0. -1.
         11   -1    0    0    0    0 -0.00000000000E+00 -0.00000000000E+00 -0.50000000000E+03  0.50000000000E+03  0.00000000000E+00 0.  1.
        -11    1    1    2    0    0 -0.47820696983E+01 -0.26762602623E+00  0.27577626381E+03  0.27581785203E+03  0.00000000000E+00 0. -1.
         11    1    1    2    0    0  0.96864686532E+01  0.31460579039E+01 -0.49987125089E+03  0.49997499220E+03  0.00000000000E+00 0.  1.
        -15    1    1    2    0    0 -0.21812817880E+01 -0.25271543995E+01  0.10839431858E+03  0.10846027166E+03  0.17770000000E+01 0. -1.
         15    1    1    2    0    0 -0.27231171669E+01 -0.35127747812E+00  0.11570066850E+03  0.11574688412E+03  0.17770000000E+01 0.  1.
</event>
<event>
 6    1  0.1823098E-004  0.5063908E+03  0.7546771E-02  0.9385622E-01
        -11   -1    0    0    0    0  0.00000000000E+00  0.00000000000E+00  0.50000000000E+03  0.50000000000E+03  0.00000000000E+00 0.  1.
         11   -1    0    0    0    0 -0.00000000000E+00 -0.00000000000E+00 -0.50000000000E+03  0.50000000000E+03  0.00000000000E+00 0. -1.
        -11    1    1    2    0    0 -0.12142539624E+02 -0.58914814646E+01  0.49342467008E+03  0.49360921372E+03  0.00000000000E+00 0.  1.
         11    1    1    2    0    0 -0.13493539307E+02 -0.20288816683E+02 -0.43813149926E+03  0.43880852581E+03  0.00000000000E+00 0. -1.
        -15    1    1    2    0    0  0.97612461071E+01  0.92491040948E+01 -0.31500545990E+02  0.34296792544E+02  0.17770000000E+01 0. -1.
         15    1    1    2    0    0  0.15874832824E+02  0.16931194053E+02 -0.23792624835E+02  0.33285467923E+02  0.17770000000E+01 0.  1.
</event>
<event>
 6    1  0.1823098E-004  0.5325777E+03  0.7546771E-02  0.9329727E-01
        -11   -1    0    0    0    0  0.00000000000E+00  0.00000000000E+00  0.50000000000E+03  0.50000000000E+03  0.00000000000E+00 0.  1.
         11   -1    0    0    0    0 -0.00000000000E+00 -0.00000000000E+00 -0.50000000000E+03  0.50000000000E+03  0.00000000000E+00 0. -1.
        -11    1    1    2    0    0 -0.26525716971E+01 -0.64708011215E+02  0.46291405308E+03  0.46742227524E+03  0.00000000000E+00 0.  1.
         11    1    1    2    0    0  0.30154365914E+02 -0.58005265071E+02 -0.33954521174E+03  0.34578150237E+03  0.00000000000E+00 0. -1.
        -15    1    1    2    0    0 -0.22117747110E+02  0.10621384964E+03 -0.12890359101E+03  0.16849293783E+03  0.17770000000E+01 0. -1.
         15    1    1    2    0    0 -0.53840471071E+01  0.16499426650E+02  0.55347496775E+01  0.18303284569E+02  0.17770000000E+01 0.  1.
</event>
<event>
 6    1  0.1823098E-004  0.5003085E+03  0.7546771E-02  0.9399120E-01
        -11   -1    0    0    0    0  0.00000000000E+00  0.00000000000E+00  0.50000000000E+03  0.50000000000E+03  0.00000000000E+00 0. -1.
         11   -1    0    0    0    0 -0.00000000000E+00 -0.00000000000E+00 -0.50000000000E+03  0.50000000000E+03  0.00000000000E+00 0. -1.
        -11    1    1    2    0    0  0.54933475238E+01 -0.59198736318E+01  0.49962626204E+03  0.49969152833E+03  0.00000000000E+00 0. -1.
         11    1    1    2    0    0  0.45973190047E+01  0.11123509574E+02 -0.27299508207E+03  0.27326028368E+03  0.00000000000E+00 0. -1.
        -15    1    1    2    0    0 -0.79778795249E+01 -0.57096669217E+01 -0.13225178858E+03  0.13262707178E+03  0.17770000000E+01 0. -1.
         15    1    1    2    0    0 -0.21127870037E+01  0.50603097961E+00 -0.94379391396E+02  0.94421116205E+02  0.17770000000E+01 0.  1.
</event>
<event>
 6    1  0.1823098E-004  0.5073968E+03  0.7546771E-02  0.9383409E-01
        -11   -1    0    0    0    0  0.00000000000E+00  0.00000000000E+00  0.50000000000E+03  0.50000000000E+03  0.00000000000E+00 0.  1.
         11   -1    0    0    0    0 -0.00000000000E+00 -0.00000000000E+00 -0.50000000000E+03  0.50000000000E+03  0.00000000000E+00 0. -1.
        -11    1    1    2    0    0 -0.62599223960E+01 -0.11709523618E+02  0.49242424137E+03  0.49260322072E+03  0.00000000000E+00 0.  1.
         11    1    1    2    0    0 -0.13918291150E+02 -0.23956897465E+01 -0.47011769078E+03  0.47032977935E+03  0.00000000000E+00 0. -1.
        -15    1    1    2    0    0  0.19820962237E+02  0.14903814637E+02 -0.23928551485E+02  0.34506920174E+02  0.17770000000E+01 0.  1.
         15    1    1    2    0    0  0.35725130888E+00 -0.79860127305E+00  0.16220008874E+01  0.25600797585E+01  0.17770000000E+01 0. -1.
</event>
<event>
 6    1  0.1823098E-004  0.5009105E+03  0.7546771E-02  0.9397775E-01
        -11   -1    0    0    0    0  0.00000000000E+00  0.00000000000E+00  0.50000000000E+03  0.50000000000E+03  0.00000000000E+00 0. -1.
         11   -1    0    0    0    0 -0.00000000000E+00 -0.00000000000E+00 -0.50000000000E+03  0.50000000000E+03  0.00000000000E+00 0.  1.
        -11    1    1    2    0    0 -0.98050184717E+01 -0.22469909469E+01  0.49898811091E+03  0.49908949316E+03  0.00000000000E+00 0. -1.
         11    1    1    2    0    0 -0.57745866513E+01  0.15530510861E+02 -0.18406866930E+03  0.18481292605E+03  0.00000000000E+00 0.  1.
        -15    1    1    2    0    0  0.12811253480E+02 -0.14660238264E+02 -0.16781810312E+03  0.16895302385E+03  0.17770000000E+01 0. -1.
         15    1    1    2    0    0  0.27683516430E+01  0.13767183498E+01 -0.14710133849E+03  0.14714455694E+03  0.17770000000E+01 0.  1.
</event>
<event>
 6    1  0.1823098E-004  0.5000457E+03  0.7546771E-02  0.9399707E-01
        -11   -1    0    0    0    0  0.00000000000E+00  0.00000000000E+00  0.50000000000E+03  0.50000000000E+03  0.00000000000E+00 0.  1.
         11   -1    0    0    0    0 -0.00000000000E+00 -0.00000000000E+00 -0.50000000000E+03  0.50000000000E+03  0.00000000000E+00 0.  1.
        -11    1    1    2    0    0 -0.10913817239E+02 -0.77753246843E+01  0.49977464114E+03  0.49995425691E+03  0.00000000000E+00 0.  1.
         11    1    1    2    0    0 -0.53658303693E+00  0.46413405776E+00 -0.27348591858E+02  0.27357792645E+02  0.00000000000E+00 0.  1.
        -15    1    1    2    0    0  0.82124492218E+01  0.63721977937E+01 -0.24110371727E+03  0.24133422765E+03  0.17770000000E+01 0. -1.
         15    1    1    2    0    0  0.32379510541E+01  0.93899283291E+00 -0.23132233201E+03  0.23135372279E+03  0.17770000000E+01 0.  1.
</event>
<event>
 6    1  0.1823098E-004  0.4945513E+03  0.7546771E-02  0.9412085E-01
        -11   -1    0    0    0    0  0.00000000000E+00  0.00000000000E+00  0.50000000000E+03  0.50000000000E+03  0.00000000000E+00 0.  1.
         11   -1    0    0    0    0 -0.00000000000E+00 -0.00000000000E+00 -0.50000000000E+03  0.50000000000E+03  0.00000000000E+00 0.  1.
        -11    1    1    2    0    0 -0.13255558052E+01 -0.12161743899E+02  0.49363989411E+03  0.49379146425E+03  0.00000000000E+00 0.  1.
         11    1    1    2    0    0  0.95957830140E+01  0.82631212008E+01 -0.49519281442E+03  0.49535470289E+03  0.00000000000E+00 0.  1.
        -15    1    1    2    0    0 -0.26783301500E+01  0.28281850522E+01  0.22711632815E+01  0.48464414505E+01  0.17770000000E+01 0.  1.
         15    1    1    2    0    0 -0.55918970589E+01  0.10704376459E+01 -0.71824296937E+00  0.60073914001E+01  0.17770000000E+01 0. -1.
</event>
<event>
 6    1  0.1823098E-004  0.5073848E+03  0.7546771E-02  0.9383436E-01
        -11   -1    0    0    0    0  0.00000000000E+00  0.00000000000E+00  0.50000000000E+03  0.50000000000E+03  0.00000000000E+00 0.  1.
         11   -1    0    0    0    0 -0.00000000000E+00 -0.00000000000E+00 -0.50000000000E+03  0.50000000000E+03  0.00000000000E+00 0.  1.
        -11    1    1    2    0    0 -0.10614761579E+02  0.17556484830E+01  0.43460643556E+03  0.43473958791E+03  0.00000000000E+00 0.  1.
         11    1    1    2    0    0 -0.20627104774E+02  0.59761919956E+01 -0.49214686450E+03  0.49261519319E+03  0.00000000000E+00 0.  1.
        -15    1    1    2    0    0  0.72504595201E+01 -0.53401206838E+01  0.43977002493E+02  0.44924609396E+02  0.17770000000E+01 0.  1.
         15    1    1    2    0    0  0.23991406833E+02 -0.23917197948E+01  0.13563426448E+02  0.27720609506E+02  0.17770000000E+01 0. -1.
</event>
<event>
 6    1  0.1823098E-004  0.5009667E+03  0.7546771E-02  0.9397649E-01
        -11   -1    0    0    0    0  0.00000000000E+00  0.00000000000E+00  0.50000000000E+03  0.50000000000E+03  0.00000000000E+00 0.  1.
         11   -1    0    0    0    0 -0.00000000000E+00 -0.00000000000E+00 -0.50000000000E+03  0.50000000000E+03  0.00000000000E+00 0.  1.
        -11    1    1    2    0    0 -0.75466907515E+01  0.35753772499E+01  0.49896345521E+03  0.49903333105E+03  0.00000000000E+00 0.  1.
         11    1    1    2    0    0 -0.63260062067E+01  0.15853149819E+02 -0.27442219187E+03  0.27495250518E+03  0.00000000000E+00 0.  1.
        -15    1    1    2    0    0  0.13521738060E+02 -0.12844164421E+02 -0.15136238209E+03  0.15251733804E+03  0.17770000000E+01 0. -1.
         15    1    1    2    0    0  0.35095889787E+00 -0.65843626477E+01 -0.73178881243E+02  0.73496825731E+02  0.17770000000E+01 0.  1.
</event>
<event>
 6    1  0.1823098E-004  0.5049942E+03  0.7546771E-02  0.9388704E-01
        -11   -1    0    0    0    0  0.00000000000E+00  0.00000000000E+00  0.50000000000E+03  0.50000000000E+03  0.00000000000E+00 0. -1.
         11   -1    0    0    0    0 -0.00000000000E+00 -0.00000000000E+00 -0.50000000000E+03  0.50000000000E+03  0.00000000000E+00 0. -1.
        -11    1    1    2    0    0 -0.76049975798E+01  0.10824611645E+02  0.48089665500E+03  0.48107858090E+03  0.00000000000E+00 0. -1.
         11    1    1    2    0    0 -0.10672293753E+02 -0.10384617001E+02 -0.49478182268E+03  0.49500584863E+03  0.00000000000E+00 0. -1.
        -15    1    1    2    0    0  0.45895926077E+01  0.21999884313E+01  0.44354530462E+01  0.69810659736E+01  0.17770000000E+01 0. -1.
         15    1    1    2    0    0  0.13687698725E+02 -0.26399830757E+01  0.94497146304E+01  0.16934504499E+02  0.17770000000E+01 0.  1.
</event>
<event>
 6    1  0.1823098E-004  0.5001031E+03  0.7546771E-02  0.9399579E-01
        -11   -1    0    0    0    0  0.00000000000E+00  0.00000000000E+00  0.50000000000E+03  0.50000000000E+03  0.00000000000E+00 0. -1.
         11   -1    0    0    0    0 -0.00000000000E+00 -0.00000000000E+00 -0.50000000000E+03  0.50000000000E+03  0.00000000000E+00 0.  1.
        -11    1    1    2    0    0  0.52058856909E+01 -0.13951177195E+01  0.22880359300E+03  0.22886706134E+03  0.00000000000E+00 0. -1.
         11    1    1    2    0    0 -0.14299958544E+02 -0.87687393141E+01 -0.49961537500E+03  0.49989689191E+03  0.00000000000E+00 0.  1.
        -15    1    1    2    0    0  0.36228465180E+01  0.56230319021E+01  0.17836245165E+03  0.17849668174E+03  0.17770000000E+01 0. -1.
         15    1    1    2    0    0  0.54712263353E+01  0.45408251315E+01  0.92449330354E+02  0.92739365010E+02  0.17770000000E+01 0.  1.
</event>
<event>
 6    1  0.1823098E-004  0.5024702E+03  0.7546771E-02  0.9394299E-01
        -11   -1    0    0    0    0  0.00000000000E+00  0.00000000000E+00  0.50000000000E+03  0.50000000000E+03  0.00000000000E+00 0. -1.
         11   -1    0    0    0    0 -0.00000000000E+00 -0.00000000000E+00 -0.50000000000E+03  0.50000000000E+03  0.00000000000E+00 0. -1.
        -11    1    1    2    0    0  0.65361465611E+01 -0.47906796852E+01  0.48737260228E+03  0.48743997095E+03  0.00000000000E+00 0. -1.
         11    1    1    2    0    0  0.10125583274E+01  0.84604059664E+01 -0.49745684808E+03  0.49752981765E+03  0.00000000000E+00 0. -1.
        -15    1    1    2    0    0 -0.30767731851E+01 -0.49716987704E+01  0.48467396376E+01  0.77995471670E+01  0.17770000000E+01 0. -1.
         15    1    1    2    0    0 -0.44719317035E+01  0.13019724892E+01  0.52375061642E+01  0.72306642394E+01  0.17770000000E+01 0. -1.
</event>
<event>
 6    1  0.1823098E-004  0.5055686E+03  0.7546771E-02  0.9387435E-01
        -11   -1    0    0    0    0  0.00000000000E+00  0.00000000000E+00  0.50000000000E+03  0.50000000000E+03  0.00000000000E+00 0.  1.
         11   -1    0    0    0    0 -0.00000000000E+00 -0.00000000000E+00 -0.50000000000E+03  0.50000000000E+03  0.00000000000E+00 0.  1.
        -11    1    1    2    0    0 -0.29329640799E+01  0.11373981670E+02  0.49429184414E+03  0.49443138747E+03  0.00000000000E+00 0.  1.
         11    1    1    2    0    0  0.15788527778E+02 -0.14746350779E+02 -0.15626655451E+02  0.26663173691E+02  0.00000000000E+00 0.  1.
        -15    1    1    2    0    0 -0.70747941158E+01  0.49026404110E+01 -0.24717734432E+03  0.24733355184E+03  0.17770000000E+01 0.  1.
         15    1    1    2    0    0 -0.57807695819E+01 -0.15302713016E+01 -0.23148784437E+03  0.23157188699E+03  0.17770000000E+01 0.  1.
</event>
<event>
 6    1  0.1823098E-004  0.5000709E+03  0.7546771E-02  0.9399651E-01
        -11   -1    0    0    0    0  0.00000000000E+00  0.00000000000E+00  0.50000000000E+03  0.50000000000E+03  0.00000000000E+00 0. -1.
         11   -1    0    0    0    0 -0.00000000000E+00 -0.00000000000E+00 -0.50000000000E+03  0.50000000000E+03  0.00000000000E+00 0. -1.
        -11    1    1    2    0    0 -0.68485700987E+01  0.22832389279E+01  0.49987696119E+03  0.49992908739E+03  0.00000000000E+00 0. -1.
         11    1    1    2    0    0  0.33837733450E+01  0.35852471469E+01 -0.23752701540E+03  0.23757817022E+03  0.00000000000E+00 0. -1.
        -15    1    1    2    0    0 -0.57526621376E+00 -0.17576110958E+01 -0.93251954548E+02  0.93287217153E+02  0.17770000000E+01 0. -1.
         15    1    1    2    0    0  0.40400629674E+01 -0.41108749791E+01 -0.16909799124E+03  0.16920552524E+03  0.17770000000E+01 0. -1.
</event>
<event>
 6    1  0.1823098E-004  0.5001911E+03  0.7546771E-02  0.9399382E-01
        -11   -1    0    0    0    0  0.00000000000E+00  0.00000000000E+00  0.50000000000E+03  0.50000000000E+03  0.00000000000E+00 0.  1.
         11   -1    0    0    0    0 -0.00000000000E+00 -0.00000000000E+00 -0.50000000000E+03  0.50000000000E+03  0.00000000000E+00 0. -1.
        -11    1    1    2    0    0 -0.12382096241E+02 -0.67632807676E+01  0.11526287007E+03  0.11612315656E+03  0.00000000000E+00 0.  1.
         11    1    1    2    0    0  0.36216275350E+02  0.39409858482E+02 -0.49693476576E+03  0.49980888044E+03  0.00000000000E+00 0. -1.
        -15    1    1    2    0    0 -0.22347657030E+02 -0.33503916359E+02  0.36363665100E+03  0.36586432167E+03  0.17770000000E+01 0.  1.
         15    1    1    2    0    0 -0.14865220778E+01  0.85733864420E+00  0.18035244693E+02  0.18203641327E+02  0.17770000000E+01 0.  1.
</event>
<event>
 6    1  0.1823098E-004  0.5053647E+03  0.7546771E-02  0.9387885E-01
        -11   -1    0    0    0    0  0.00000000000E+00  0.00000000000E+00  0.50000000000E+03  0.50000000000E+03  0.00000000000E+00 0.  1.
         11   -1    0    0    0    0 -0.00000000000E+00 -0.00000000000E+00 -0.50000000000E+03  0.50000000000E+03  0.00000000000E+00 0.  1.
        -11    1    1    2    0    0  0.63345392390E+01 -0.15091114429E+01  0.45594979798E+03  0.45599629612E+03  0.00000000000E+00 0.  1.
         11    1    1    2    0    0 -0.27895677726E+02  0.19254802922E+02 -0.49347251860E+03  0.49463526248E+03  0.00000000000E+00 0.  1.
        -15    1    1    2    0    0  0.23597706604E+01 -0.58263939861E+01  0.19006618140E+02  0.20097876668E+02  0.17770000000E+01 0. -1.
         15    1    1    2    0    0  0.19201367827E+02 -0.11919297493E+02  0.18516102487E+02  0.29270564728E+02  0.17770000000E+01 0.  1.
</event>
<event>
 6    1  0.1823098E-004  0.4980976E+03  0.7546771E-02  0.9404077E-01
        -11   -1    0    0    0    0  0.00000000000E+00  0.00000000000E+00  0.50000000000E+03  0.50000000000E+03  0.00000000000E+00 0. -1.
         11   -1    0    0    0    0 -0.00000000000E+00 -0.00000000000E+00 -0.50000000000E+03  0.50000000000E+03  0.00000000000E+00 0.  1.
        -11    1    1    2    0    0  0.25246657428E+01  0.11541572372E+02  0.49751418424E+03  0.49765444372E+03  0.00000000000E+00 0. -1.
         11    1    1    2    0    0 -0.24596202595E+01 -0.31850852218E+01  0.45763958154E+00  0.40501769934E+01  0.00000000000E+00 0.  1.
        -15    1    1    2    0    0  0.45688067459E+01  0.23156886519E+00 -0.56672916590E+02  0.56885014046E+02  0.17770000000E+01 0. -1.
         15    1    1    2    0    0 -0.46338522292E+01 -0.85880560156E+01 -0.44129890723E+03  0.44141036524E+03  0.17770000000E+01 0.  1.
</event>
<event>
 6    1  0.1823098E-004  0.5068007E+03  0.7546771E-02  0.9384720E-01
        -11   -1    0    0    0    0  0.00000000000E+00  0.00000000000E+00  0.50000000000E+03  0.50000000000E+03  0.00000000000E+00 0.  1.
         11   -1    0    0    0    0 -0.00000000000E+00 -0.00000000000E+00 -0.50000000000E+03  0.50000000000E+03  0.00000000000E+00 0.  1.
        -11    1    1    2    0    0 -0.31936179231E+01  0.13491188034E+02  0.49300442497E+03  0.49319932522E+03  0.00000000000E+00 0.  1.
         11    1    1    2    0    0 -0.32869494728E+02 -0.31655626245E+02 -0.98472786381E+02  0.10853281538E+03  0.00000000000E+00 0.  1.
        -15    1    1    2    0    0  0.35520234620E+02  0.24789008918E+01 -0.20479699395E+03  0.20787688298E+03  0.17770000000E+01 0.  1.
         15    1    1    2    0    0  0.54287803038E+00  0.15685537319E+02 -0.18973464464E+03  0.19039097643E+03  0.17770000000E+01 0. -1.
</event>
<event>
 6    1  0.1823098E-004  0.5014111E+03  0.7546771E-02  0.9396658E-01
        -11   -1    0    0    0    0  0.00000000000E+00  0.00000000000E+00  0.50000000000E+03  0.50000000000E+03  0.00000000000E+00 0. -1.
         11   -1    0    0    0    0 -0.00000000000E+00 -0.00000000000E+00 -0.50000000000E+03  0.50000000000E+03  0.00000000000E+00 0.  1.
        -11    1    1    2    0    0 -0.42909188338E+01 -0.58124638120E+01  0.44956863587E+03  0.44962668413E+03  0.00000000000E+00 0. -1.
         11    1    1    2    0    0  0.74448085741E+01 -0.41672061171E+01 -0.49851587833E+03  0.49858888047E+03  0.00000000000E+00 0.  1.
        -15    1    1    2    0    0  0.23024925096E+00  0.67590965310E+01  0.83969082216E+01  0.10927222763E+02  0.17770000000E+01 0.  1.
         15    1    1    2    0    0 -0.33841389912E+01  0.32205733980E+01  0.40550334231E+02  0.40857212643E+02  0.17770000000E+01 0. -1.
</event>
<event>
 6    1  0.1823098E-004  0.5024401E+03  0.7546771E-02  0.9394366E-01
        -11   -1    0    0    0    0  0.00000000000E+00  0.00000000000E+00  0.50000000000E+03  0.50000000000E+03  0.00000000000E+00 0. -1.
         11   -1    0    0    0    0 -0.00000000000E+00 -0.00000000000E+00 -0.50000000000E+03  0.50000000000E+03  0.00000000000E+00 0. -1.
        -11    1    1    2    0    0 -0.89548874071E+00 -0.12297325512E+02  0.40521116706E+03  0.40539871241E+03  0.00000000000E+00 0. -1.
         11    1    1    2    0    0  0.85335429232E+01  0.29864369074E+02 -0.49658947176E+03  0.49755985103E+03  0.00000000000E+00 0. -1.
        -15    1    1    2    0    0  0.16462090830E+01 -0.21279262973E+02  0.72598202252E+02  0.75691305552E+02  0.17770000000E+01 0.  1.
         15    1    1    2    0    0 -0.92842632655E+01  0.37122194101E+01  0.18780102448E+02  0.21350131013E+02  0.17770000000E+01 0. -1.
</event>
<event>
 6    1  0.1823098E-004  0.5000548E+03  0.7546771E-02  0.9399687E-01
        -11   -1    0    0    0    0  0.00000000000E+00  0.00000000000E+00  0.50000000000E+03  0.50000000000E+03  0.00000000000E+00 0. -1.
         11   -1    0    0    0    0 -0.00000000000E+00 -0.00000000000E+00 -0.50000000000E+03  0.50000000000E+03  0.00000000000E+00 0. -1.
        -11    1    1    2    0    0 -0.26233306165E+01 -0.80176471809E+01  0.49987399408E+03  0.49994517148E+03  0.00000000000E+00 0. -1.
         11    1    1    2    0    0  0.19965161684E+01  0.71439817027E+01 -0.20417463618E+03  0.20430933560E+03  0.00000000000E+00 0. -1.
        -15    1    1    2    0    0  0.10412437878E+01 -0.12289906366E+01 -0.11853002462E+03  0.11855428744E+03  0.17770000000E+01 0. -1.
         15    1    1    2    0    0 -0.41442933975E+00  0.21026561148E+01 -0.17716933328E+03  0.17719120548E+03  0.17770000000E+01 0.  1.
</event>
<event>
 6    1  0.1823098E-004  0.5074515E+03  0.7546771E-02  0.9383289E-01
        -11   -1    0    0    0    0  0.00000000000E+00  0.00000000000E+00  0.50000000000E+03  0.50000000000E+03  0.00000000000E+00 0. -1.
         11   -1    0    0    0    0 -0.00000000000E+00 -0.00000000000E+00 -0.50000000000E+03  0.50000000000E+03  0.00000000000E+00 0. -1.
        -11    1    1    2    0    0  0.73293127627E+01  0.26849213449E+01  0.47756597537E+03  0.47762976086E+03  0.00000000000E+00 0. -1.
         11    1    1    2    0    0  0.73248210214E-01  0.16166649606E+02 -0.49228310862E+03  0.49254850011E+03  0.00000000000E+00 0. -1.
        -15    1    1    2    0    0 -0.23175817202E+01 -0.12326714984E+02 -0.20293448205E+00  0.12669569792E+02  0.17770000000E+01 0.  1.
         15    1    1    2    0    0 -0.50849792528E+01 -0.65248559675E+01  0.14920067730E+02  0.17152169235E+02  0.17770000000E+01 0. -1.
</event>
<event>
 6    1  0.1823098E-004  0.4854923E+03  0.7546771E-02  0.9432870E-01
        -11   -1    0    0    0    0  0.00000000000E+00  0.00000000000E+00  0.50000000000E+03  0.50000000000E+03  0.00000000000E+00 0.  1.
         11   -1    0    0    0    0 -0.00000000000E+00 -0.00000000000E+00 -0.50000000000E+03  0.50000000000E+03  0.00000000000E+00 0.  1.
        -11    1    1    2    0    0  0.54462274420E+01  0.97871730461E+01  0.48354600717E+03  0.48367570871E+03  0.00000000000E+00 0.  1.
         11    1    1    2    0    0  0.10127067439E+02 -0.32881796215E+01 -0.48734672709E+03  0.48746302632E+03  0.00000000000E+00 0.  1.
        -15    1    1    2    0    0 -0.15644752821E+02 -0.69968163376E+01 -0.64858249778E+01  0.18410252153E+02  0.17770000000E+01 0.  1.
         15    1    1    2    0    0  0.71457940130E-01  0.49782291303E+00  0.10286544900E+02  0.10451012815E+02  0.17770000000E+01 0. -1.
</event>
<event>
 6    1  0.1823098E-004  0.5123587E+03  0.7546771E-02  0.9372573E-01
        -11   -1    0    0    0    0  0.00000000000E+00  0.00000000000E+00  0.50000000000E+03  0.50000000000E+03  0.00000000000E+00 0. -1.
         11   -1    0    0    0    0 -0.00000000000E+00 -0.00000000000E+00 -0.50000000000E+03  0.50000000000E+03  0.00000000000E+00 0.  1.
        -11    1    1    2    0    0 -0.60460953196E+01 -0.33754350399E+01  0.46830705182E+03  0.46835824282E+03  0.00000000000E+00 0. -1.
         11    1    1    2    0    0  0.36451459071E+02  0.10776196779E+02 -0.48615756291E+03  0.48764127313E+03  0.00000000000E+00 0.  1.
        -15    1    1    2    0    0 -0.28734562708E+02 -0.14346926075E+02  0.11144555645E+02  0.34042153741E+02  0.17770000000E+01 0. -1.
         15    1    1    2    0    0 -0.16708010436E+01  0.69461643360E+01  0.67059554470E+01  0.99583303102E+01  0.17770000000E+01 0.  1.
</event>
<event>
 6    1  0.1823098E-004  0.5010954E+03  0.7546771E-02  0.9397362E-01
        -11   -1    0    0    0    0  0.00000000000E+00  0.00000000000E+00  0.50000000000E+03  0.50000000000E+03  0.00000000000E+00 0.  1.
         11   -1    0    0    0    0 -0.00000000000E+00 -0.00000000000E+00 -0.50000000000E+03  0.50000000000E+03  0.00000000000E+00 0. -1.
        -11    1    1    2    0    0  0.63833082452E+01  0.52082200797E+01  0.49883662132E+03  0.49890464715E+03  0.00000000000E+00 0.  1.
         11    1    1    2    0    0 -0.69808067548E+01 -0.31015526414E+01 -0.12244201810E+02  0.14431623945E+02  0.00000000000E+00 0. -1.
        -15    1    1    2    0    0 -0.31822213913E+01 -0.12594805205E+01 -0.17716259596E+03  0.17720455965E+03  0.17770000000E+01 0. -1.
         15    1    1    2    0    0  0.37797199009E+01 -0.84718691781E+00 -0.30942982355E+03  0.30945916926E+03  0.17770000000E+01 0. -1.
</event>
<event>
 6    1  0.1823098E-004  0.5000908E+03  0.7546771E-02  0.9399607E-01
        -11   -1    0    0    0    0  0.00000000000E+00  0.00000000000E+00  0.50000000000E+03  0.50000000000E+03  0.00000000000E+00 0.  1.
         11   -1    0    0    0    0 -0.00000000000E+00 -0.00000000000E+00 -0.50000000000E+03  0.50000000000E+03  0.00000000000E+00 0.  1.
        -11    1    1    2    0    0 -0.64695264932E+01 -0.17953392320E+02  0.49954482302E+03  0.49990920103E+03  0.00000000000E+00 0.  1.
         11    1    1    2    0    0  0.74896218817E+01  0.17727817283E+02 -0.41934182246E+03  0.41978319881E+03  0.00000000000E+00 0.  1.
        -15    1    1    2    0    0 -0.90293142418E+00 -0.33893429924E+00 -0.54134622335E+02  0.54172365888E+02  0.17770000000E+01 0.  1.
         15    1    1    2    0    0 -0.11716396431E+00  0.56450933644E+00 -0.26068378224E+02  0.26135234271E+02  0.17770000000E+01 0.  1.
</event>
<event>
 6    1  0.1823098E-004  0.5021486E+03  0.7546771E-02  0.9395015E-01
        -11   -1    0    0    0    0  0.00000000000E+00  0.00000000000E+00  0.50000000000E+03  0.50000000000E+03  0.00000000000E+00 0. -1.
         11   -1    0    0    0    0 -0.00000000000E+00 -0.00000000000E+00 -0.50000000000E+03  0.50000000000E+03  0.00000000000E+00 0.  1.
        -11    1    1    2    0    0 -0.93012537884E+02 -0.55101010349E+02  0.31053009743E+03  0.32881057610E+03  0.00000000000E+00 0. -1.
         11    1    1    2    0    0  0.10627143362E+03  0.79848589595E+02 -0.47977764111E+03  0.49785138322E+03  0.00000000000E+00 0.  1.
        -15    1    1    2    0    0 -0.18076501898E+01 -0.23241660963E+02  0.80559829382E+02  0.83883766264E+02  0.17770000000E+01 0. -1.
         15    1    1    2    0    0 -0.11451245547E+02 -0.15059182833E+01  0.88687714302E+02  0.89454274418E+02  0.17770000000E+01 0.  1.
</event>
<event>
 6    1  0.1823098E-004  0.4915888E+03  0.7546771E-02  0.9418830E-01
        -11   -1    0    0    0    0  0.00000000000E+00  0.00000000000E+00  0.50000000000E+03  0.50000000000E+03  0.00000000000E+00 0. -1.
         11   -1    0    0    0    0 -0.00000000000E+00 -0.00000000000E+00 -0.50000000000E+03  0.50000000000E+03  0.00000000000E+00 0.  1.
        -11    1    1    2    0    0  0.15506277295E+01  0.13544884558E+02  0.48922407990E+03  0.48941400542E+03  0.00000000000E+00 0. -1.
         11    1    1    2    0    0  0.96784350037E+01 -0.78963461891E+01 -0.49369617904E+03  0.49385417036E+03  0.00000000000E+00 0.  1.
        -15    1    1    2    0    0 -0.33438903333E+01 -0.69246265532E+01  0.28386257478E+01  0.83873464575E+01  0.17770000000E+01 0. -1.
         15    1    1    2    0    0 -0.78851723998E+01  0.12760881842E+01  0.16334733861E+01  0.83444777627E+01  0.17770000000E+01 0.  1.
</event>
<event>
 6    1  0.1823098E-004  0.5057054E+03  0.7546771E-02  0.9387133E-01
        -11   -1    0    0    0    0  0.00000000000E+00  0.00000000000E+00  0.50000000000E+03  0.50000000000E+03  0.00000000000E+00 0. -1.
         11   -1    0    0    0    0 -0.00000000000E+00 -0.00000000000E+00 -0.50000000000E+03  0.50000000000E+03  0.00000000000E+00 0. -1.
        -11    1    1    2    0    0  0.79153621610E+01  0.59001442978E+00  0.49423082912E+03  0.49429456150E+03  0.00000000000E+00 0. -1.
         11    1    1    2    0    0  0.92921124692E+01 -0.76315350244E+01 -0.48215345601E+03  0.48230336804E+03  0.00000000000E+00 0. -1.
        -15    1    1    2    0    0 -0.30747500461E+01  0.42277025418E+01 -0.35420769480E+01  0.65598471578E+01  0.17770000000E+01 0.  1.
         15    1    1    2    0    0 -0.14132724584E+02  0.28138180528E+01 -0.85352961591E+01  0.16842223301E+02  0.17770000000E+01 0. -1.
</event>
<event>
 6    1  0.1823098E-004  0.5008068E+03  0.7546771E-02  0.9398006E-01
        -11   -1    0    0    0    0  0.00000000000E+00  0.00000000000E+00  0.50000000000E+03  0.50000000000E+03  0.00000000000E+00 0.  1.
         11   -1    0    0    0    0 -0.00000000000E+00 -0.00000000000E+00 -0.50000000000E+03  0.50000000000E+03  0.00000000000E+00 0. -1.
        -11    1    1    2    0    0  0.20571937136E+01 -0.11530035814E+02  0.49905574220E+03  0.49919315659E+03  0.00000000000E+00 0.  1.
         11    1    1    2    0    0 -0.69295377571E+01 -0.36827722894E+01 -0.41143957870E+03  0.41151440829E+03  0.00000000000E+00 0. -1.
        -15    1    1    2    0    0  0.48826310302E+00  0.48498296862E+01 -0.17358632629E+02  0.18117370245E+02  0.17770000000E+01 0.  1.
         15    1    1    2    0    0  0.43840809405E+01  0.10362978417E+02 -0.70257530863E+02  0.71175064871E+02  0.17770000000E+01 0. -1.
</event>
<event>
 6    1  0.1823098E-004  0.5000948E+03  0.7546771E-02  0.9399598E-01
        -11   -1    0    0    0    0  0.00000000000E+00  0.00000000000E+00  0.50000000000E+03  0.50000000000E+03  0.00000000000E+00 0. -1.
         11   -1    0    0    0    0 -0.00000000000E+00 -0.00000000000E+00 -0.50000000000E+03  0.50000000000E+03  0.00000000000E+00 0.  1.
        -11    1    1    2    0    0 -0.14316649036E+02 -0.10164800387E+02  0.49959673524E+03  0.49990517847E+03  0.00000000000E+00 0. -1.
         11    1    1    2    0    0  0.75048850775E+01  0.91518431163E+01 -0.17708905665E+03  0.17748412188E+03  0.00000000000E+00 0.  1.
        -15    1    1    2    0    0  0.51446343615E+01  0.14111624497E+01 -0.20507598598E+03  0.20515305602E+03  0.17770000000E+01 0.  1.
         15    1    1    2    0    0  0.16671295967E+01 -0.39820517878E+00 -0.11743169261E+03  0.11745764362E+03  0.17770000000E+01 0.  1.
</event>
<event>
 6    1  0.1823098E-004  0.5069579E+03  0.7546771E-02  0.9384374E-01
        -11   -1    0    0    0    0  0.00000000000E+00  0.00000000000E+00  0.50000000000E+03  0.50000000000E+03  0.00000000000E+00 0.  1.
         11   -1    0    0    0    0 -0.00000000000E+00 -0.00000000000E+00 -0.50000000000E+03  0.50000000000E+03  0.00000000000E+00 0.  1.
        -11    1    1    2    0    0 -0.49172830270E+01 -0.72582866980E+01  0.49296419408E+03  0.49304214733E+03  0.00000000000E+00 0.  1.
         11    1    1    2    0    0 -0.17803211969E+01 -0.19842197082E+02 -0.46500631043E+03  0.46543286419E+03  0.00000000000E+00 0.  1.
        -15    1    1    2    0    0  0.84023197924E+00  0.76981693057E+00  0.60704772510E+00  0.21965527142E+01  0.17770000000E+01 0. -1.
         15    1    1    2    0    0  0.58573722446E+01  0.26330666849E+02 -0.28564931375E+02  0.39328435766E+02  0.17770000000E+01 0.  1.
</event>
<event>
 6    1  0.1823098E-004  0.5025613E+03  0.7546771E-02  0.9394097E-01
        -11   -1    0    0    0    0  0.00000000000E+00  0.00000000000E+00  0.50000000000E+03  0.50000000000E+03  0.00000000000E+00 0.  1.
         11   -1    0    0    0    0 -0.00000000000E+00 -0.00000000000E+00 -0.50000000000E+03  0.50000000000E+03  0.00000000000E+00 0.  1.
        -11    1    1    2    0    0  0.67069937631E+01 -0.23263240415E+01  0.43751792342E+03  0.43757551219E+03  0.00000000000E+00 0.  1.
         11    1    1    2    0    0  0.12686124736E+02  0.11380918055E+02 -0.49714669166E+03  0.49743873601E+03  0.00000000000E+00 0.  1.
        -15    1    1    2    0    0 -0.34809246158E+01  0.26179384502E+01  0.49549806394E+01  0.68322763444E+01  0.17770000000E+01 0. -1.
         15    1    1    2    0    0 -0.15912193883E+02 -0.11672532464E+02  0.54673787597E+02  0.58153475455E+02  0.17770000000E+01 0.  1.
</event>
<event>
 6    1  0.1823098E-004  0.5035405E+03  0.7546771E-02  0.9391922E-01
        -11   -1    0    0    0    0  0.00000000000E+00  0.00000000000E+00  0.50000000000E+03  0.50000000000E+03  0.00000000000E+00 0.  1.
         11   -1    0    0    0    0 -0.00000000000E+00 -0.00000000000E+00 -0.50000000000E+03  0.50000000000E+03  0.00000000000E+00 0. -1.
        -11    1    1    2    0    0  0.52605675212E+01  0.49427308948E+01  0.48393668329E+03  0.48399051395E+03  0.00000000000E+00 0.  1.
         11    1    1    2    0    0 -0.30443336638E+01  0.72086174909E+01 -0.49639782150E+03  0.49645949414E+03  0.00000000000E+00 0. -1.
        -15    1    1    2    0    0  0.20252328514E+01 -0.92313332785E+01  0.79324980882E+01  0.12466007265E+02  0.17770000000E+01 0. -1.
         15    1    1    2    0    0 -0.42414667088E+01 -0.29200151072E+01  0.45286401212E+01  0.70839846425E+01  0.17770000000E+01 0.  1.
</event>
<event>
 6    1  0.1823098E-004  0.5211836E+03  0.7546771E-02  0.9353619E-01
        -11   -1    0    0    0    0  0.00000000000E+00  0.00000000000E+00  0.50000000000E+03  0.50000000000E+03  0.00000000000E+00 0. -1.
         11   -1    0    0    0    0 -0.00000000000E+00 -0.00000000000E+00 -0.50000000000E+03  0.50000000000E+03  0.00000000000E+00 0. -1.
        -11    1    1    2    0    0  0.46828825985E+02  0.12325414298E+02  0.37300177096E+03  0.37613185975E+03  0.00000000000E+00 0. -1.
         11    1    1    2    0    0  0.28714639157E+02 -0.49274215689E+02 -0.47540789625E+03  0.47881640182E+03  0.00000000000E+00 0. -1.
        -15    1    1    2    0    0 -0.79967235627E+01  0.16946639932E+02  0.59827481793E+02  0.62718589744E+02  0.17770000000E+01 0. -1.
         15    1    1    2    0    0 -0.67546741579E+02  0.20002161459E+02  0.42578643495E+02  0.82333148681E+02  0.17770000000E+01 0.  1.
</event>
<event>
 6    1  0.1823098E-004  0.3287884E+03  0.7546771E-02  0.9893914E-01
        -11   -1    0    0    0    0  0.00000000000E+00  0.00000000000E+00  0.50000000000E+03  0.50000000000E+03  0.00000000000E+00 0.  1.
         11   -1    0    0    0    0 -0.00000000000E+00 -0.00000000000E+00 -0.50000000000E+03  0.50000000000E+03  0.00000000000E+00 0. -1.
        -11    1    1    2    0    0 -0.94703242374E+01  0.18955002411E+02  0.31401559207E+03  0.31472967960E+03  0.00000000000E+00 0.  1.
         11    1    1    2    0    0 -0.54964243931E+02  0.26121469641E+03 -0.19075181532E+03  0.32808602649E+03  0.00000000000E+00 0. -1.
        -15    1    1    2    0    0  0.20335511479E+02  0.70525579269E-01  0.28803884423E+02  0.35303816902E+02  0.17770000000E+01 0.  1.
         15    1    1    2    0    0  0.44099056689E+02 -0.28024022440E+03 -0.15206766117E+03  0.32188047701E+03  0.17770000000E+01 0. -1.
</event>
<event>
 6    1  0.1823098E-004  0.5013355E+03  0.7546771E-02  0.9396826E-01
        -11   -1    0    0    0    0  0.00000000000E+00  0.00000000000E+00  0.50000000000E+03  0.50000000000E+03  0.00000000000E+00 0. -1.
         11   -1    0    0    0    0 -0.00000000000E+00 -0.00000000000E+00 -0.50000000000E+03  0.50000000000E+03  0.00000000000E+00 0. -1.
        -11    1    1    2    0    0  0.44796524315E+01  0.73360947829E+01  0.46504886178E+03  0.46512829350E+03  0.00000000000E+00 0. -1.
         11    1    1    2    0    0 -0.10240991397E+02  0.94742517519E+00 -0.49855845423E+03  0.49866452431E+03  0.00000000000E+00 0. -1.
        -15    1    1    2    0    0  0.87766198759E+00 -0.61224466586E+01  0.26216861853E+02  0.26995114707E+02  0.17770000000E+01 0. -1.
         15    1    1    2    0    0  0.48836769775E+01 -0.21610732995E+01  0.72927306005E+01  0.92120674790E+01  0.17770000000E+01 0.  1.
</event>
<event>
 6    1  0.1823098E-004  0.5010265E+03  0.7546771E-02  0.9397516E-01
        -11   -1    0    0    0    0  0.00000000000E+00  0.00000000000E+00  0.50000000000E+03  0.50000000000E+03  0.00000000000E+00 0. -1.
         11   -1    0    0    0    0 -0.00000000000E+00 -0.00000000000E+00 -0.50000000000E+03  0.50000000000E+03  0.00000000000E+00 0.  1.
        -11    1    1    2    0    0  0.63476530759E+01 -0.47170965848E+00  0.38886494465E+03  0.38891703535E+03  0.00000000000E+00 0. -1.
         11    1    1    2    0    0  0.20244596083E+01  0.13048020576E+02 -0.49879879895E+03  0.49897353749E+03  0.00000000000E+00 0.  1.
        -15    1    1    2    0    0 -0.78042855718E+01  0.70015801328E+00  0.53805821595E+02  0.54402401244E+02  0.17770000000E+01 0. -1.
         15    1    1    2    0    0 -0.56782711242E+00 -0.13276468930E+02  0.56128032710E+02  0.57707025913E+02  0.17770000000E+01 0.  1.
</event>
<event>
 6    1  0.1823098E-004  0.5045963E+03  0.7546771E-02  0.9389583E-01
        -11   -1    0    0    0    0  0.00000000000E+00  0.00000000000E+00  0.50000000000E+03  0.50000000000E+03  0.00000000000E+00 0. -1.
         11   -1    0    0    0    0 -0.00000000000E+00 -0.00000000000E+00 -0.50000000000E+03  0.50000000000E+03  0.00000000000E+00 0.  1.
        -11    1    1    2    0    0  0.37520975787E+01 -0.11369269220E+02  0.48464469732E+03  0.48479255477E+03  0.00000000000E+00 0. -1.
         11    1    1    2    0    0  0.11168412393E+02  0.14144978890E+02 -0.49507573860E+03  0.49540367460E+03  0.00000000000E+00 0.  1.
        -15    1    1    2    0    0 -0.12433308583E+02 -0.40138010666E+01  0.98420017914E+01  0.16453585919E+02  0.17770000000E+01 0.  1.
         15    1    1    2    0    0 -0.24872013882E+01  0.12380913970E+01  0.58903948401E+00  0.33501847063E+01  0.17770000000E+01 0. -1.
</event>
<event>
 6    1  0.1823098E-004  0.5008577E+03  0.7546771E-02  0.9397893E-01
        -11   -1    0    0    0    0  0.00000000000E+00  0.00000000000E+00  0.50000000000E+03  0.50000000000E+03  0.00000000000E+00 0.  1.
         11   -1    0    0    0    0 -0.00000000000E+00 -0.00000000000E+00 -0.50000000000E+03  0.50000000000E+03  0.00000000000E+00 0. -1.
        -11    1    1    2    0    0 -0.76264453700E+02  0.62924513489E+02  0.48925178813E+03  0.49914233790E+03  0.00000000000E+00 0.  1.
         11    1    1    2    0    0  0.67250328604E+02 -0.67162068727E+02 -0.41712637252E+03  0.42781743866E+03  0.00000000000E+00 0. -1.
        -15    1    1    2    0    0  0.86663328346E+01  0.30482818489E+01 -0.58328013216E+02  0.59073786079E+02  0.17770000000E+01 0.  1.
         15    1    1    2    0    0  0.34779226151E+00  0.11892733896E+01 -0.13797402398E+02  0.13966437362E+02  0.17770000000E+01 0.  1.
</event>
<event>
 6    1  0.1823098E-004  0.4461846E+03  0.7546771E-02  0.9528995E-01
        -11   -1    0    0    0    0  0.00000000000E+00  0.00000000000E+00  0.50000000000E+03  0.50000000000E+03  0.00000000000E+00 0. -1.
         11   -1    0    0    0    0 -0.00000000000E+00 -0.00000000000E+00 -0.50000000000E+03  0.50000000000E+03  0.00000000000E+00 0.  1.
        -11    1    1    2    0    0  0.39358794047E+02 -0.36617332544E+02  0.46224739155E+03  0.46536286348E+03  0.00000000000E+00 0. -1.
         11    1    1    2    0    0 -0.66288920196E+01  0.95770233492E+02 -0.37209487196E+02  0.10295836911E+03  0.00000000000E+00 0.  1.
        -15    1    1    2    0    0 -0.15018205353E+02 -0.47266591050E+02 -0.22006470083E+03  0.22559101800E+03  0.17770000000E+01 0. -1.
         15    1    1    2    0    0 -0.17711696675E+02 -0.11886309898E+02 -0.20497320353E+03  0.20608774941E+03  0.17770000000E+01 0.  1.
</event>
<event>
 6    1  0.1823098E-004  0.4865556E+03  0.7546771E-02  0.9430405E-01
        -11   -1    0    0    0    0  0.00000000000E+00  0.00000000000E+00  0.50000000000E+03  0.50000000000E+03  0.00000000000E+00 0. -1.
         11   -1    0    0    0    0 -0.00000000000E+00 -0.00000000000E+00 -0.50000000000E+03  0.50000000000E+03  0.00000000000E+00 0. -1.
        -11    1    1    2    0    0 -0.64550479566E+01 -0.73470448676E+01  0.48809633784E+03  0.48819430734E+03  0.00000000000E+00 0. -1.
         11    1    1    2    0    0 -0.12308458414E+02 -0.85512924795E+01 -0.48500105550E+03  0.48523256959E+03  0.00000000000E+00 0. -1.
        -15    1    1    2    0    0  0.16554721936E+02  0.16163121502E+02 -0.13726788234E+01  0.23245371393E+02  0.17770000000E+01 0. -1.
         15    1    1    2    0    0  0.22087844349E+01 -0.26478415500E+00 -0.17226035107E+01  0.33277516710E+01  0.17770000000E+01 0.  1.
</event>
<event>
 6    1  0.1823098E-004  0.5023447E+03  0.7546771E-02  0.9394578E-01
        -11   -1    0    0    0    0  0.00000000000E+00  0.00000000000E+00  0.50000000000E+03  0.50000000000E+03  0.00000000000E+00 0. -1.
         11   -1    0    0    0    0 -0.00000000000E+00 -0.00000000000E+00 -0.50000000000E+03  0.50000000000E+03  0.00000000000E+00 0.  1.
        -11    1    1    2    0    0  0.19552416933E+01 -0.94516283279E+01  0.40540584767E+03  0.40552072398E+03  0.00000000000E+00 0. -1.
         11    1    1    2    0    0  0.64080685080E+01 -0.15132457869E+02 -0.49738388958E+03  0.49765529058E+03  0.00000000000E+00 0.  1.
        -15    1    1    2    0    0 -0.58874680129E+01  0.72573277486E+00  0.19390993091E+02  0.20355768463E+02  0.17770000000E+01 0. -1.
         15    1    1    2    0    0 -0.24758421883E+01  0.23858353422E+02  0.72587048819E+02  0.76468216978E+02  0.17770000000E+01 0.  1.
</event>
<event>
 6    1  0.1823098E-004  0.5000799E+03  0.7546771E-02  0.9399631E-01
        -11   -1    0    0    0    0  0.00000000000E+00  0.00000000000E+00  0.50000000000E+03  0.50000000000E+03  0.00000000000E+00 0. -1.
         11   -1    0    0    0    0 -0.00000000000E+00 -0.00000000000E+00 -0.50000000000E+03  0.50000000000E+03  0.00000000000E+00 0. -1.
        -11    1    1    2    0    0 -0.37646769597E+01  0.87386404346E+00  0.23818799475E+03  0.23821934698E+03  0.00000000000E+00 0. -1.
         11    1    1    2    0    0  0.15549683018E+02  0.15095792060E+01 -0.49967592129E+03  0.49992009140E+03  0.00000000000E+00 0. -1.
        -15    1    1    2    0    0 -0.62653402838E+01 -0.40735648885E+01  0.12167578614E+03  0.12191801787E+03  0.17770000000E+01 0. -1.
         15    1    1    2    0    0 -0.55196657747E+01  0.16901216390E+01  0.13981214039E+03  0.13994254375E+03  0.17770000000E+01 0.  1.
</event>
<event>
 6    1  0.1823098E-004  0.5008418E+03  0.7546771E-02  0.9397928E-01
        -11   -1    0    0    0    0  0.00000000000E+00  0.00000000000E+00  0.50000000000E+03  0.50000000000E+03  0.00000000000E+00 0.  1.
         11   -1    0    0    0    0 -0.00000000000E+00 -0.00000000000E+00 -0.50000000000E+03  0.50000000000E+03  0.00000000000E+00 0.  1.
        -11    1    1    2    0    0  0.88545869847E+01 -0.69260217050E+00  0.49907917668E+03  0.49915819937E+03  0.00000000000E+00 0.  1.
         11    1    1    2    0    0 -0.11962099807E+02 -0.91170734861E+01 -0.41881187786E+03  0.41908185584E+03  0.00000000000E+00 0.  1.
        -15    1    1    2    0    0  0.23249283475E+01 -0.71128166677E-01 -0.47877565449E+01  0.56116568650E+01  0.17770000000E+01 0.  1.
         15    1    1    2    0    0  0.78258447492E+00  0.98808038233E+01 -0.75479542272E+02  0.76148287921E+02  0.17770000000E+01 0.  1.
</event>
<event>
 6    1  0.1823098E-004  0.5003503E+03  0.7546771E-02  0.9399026E-01
        -11   -1    0    0    0    0  0.00000000000E+00  0.00000000000E+00  0.50000000000E+03  0.50000000000E+03  0.00000000000E+00 0.  1.
         11   -1    0    0    0    0 -0.00000000000E+00 -0.00000000000E+00 -0.50000000000E+03  0.50000000000E+03  0.00000000000E+00 0. -1.
        -11    1    1    2    0    0 -0.47815464961E+02  0.16769901733E+02  0.49707371113E+03  0.49964969988E+03  0.00000000000E+00 0.  1.
         11    1    1    2    0    0  0.46993650885E+02 -0.11460712179E+02 -0.37735027809E+03  0.38043788392E+03  0.00000000000E+00 0. -1.
        -15    1    1    2    0    0  0.12768850511E+01 -0.36380813920E+01 -0.77189542601E+02  0.77306204716E+02  0.17770000000E+01 0. -1.
         15    1    1    2    0    0 -0.45507097477E+00 -0.16711081621E+01 -0.42533890436E+02  0.42606211480E+02  0.17770000000E+01 0. -1.
</event>
<event>
 6    1  0.1823098E-004  0.5056466E+03  0.7546771E-02  0.9387263E-01
        -11   -1    0    0    0    0  0.00000000000E+00  0.00000000000E+00  0.50000000000E+03  0.50000000000E+03  0.00000000000E+00 0. -1.
         11   -1    0    0    0    0 -0.00000000000E+00 -0.00000000000E+00 -0.50000000000E+03  0.50000000000E+03  0.00000000000E+00 0.  1.
        -11    1    1    2    0    0  0.10791160834E+02  0.34999845514E+01  0.49422319759E+03  0.49435338381E+03  0.00000000000E+00 0. -1.
         11    1    1    2    0    0 -0.31324565931E+02 -0.16102471407E+02 -0.44535463629E+03  0.44674519592E+03  0.00000000000E+00 0.  1.
        -15    1    1    2    0    0  0.18236173649E+02 -0.15726395354E+01 -0.26258614437E+02  0.32057819415E+02  0.17770000000E+01 0. -1.
         15    1    1    2    0    0  0.22972314472E+01  0.14175126391E+02 -0.22609946865E+02  0.26843600853E+02  0.17770000000E+01 0.  1.
</event>
<event>
 6    1  0.1823098E-004  0.5002830E+03  0.7546771E-02  0.9399177E-01
        -11   -1    0    0    0    0  0.00000000000E+00  0.00000000000E+00  0.50000000000E+03  0.50000000000E+03  0.00000000000E+00 0.  1.
         11   -1    0    0    0    0 -0.00000000000E+00 -0.00000000000E+00 -0.50000000000E+03  0.50000000000E+03  0.00000000000E+00 0.  1.
        -11    1    1    2    0    0  0.19295747991E+01 -0.95174658085E+01  0.49962259619E+03  0.49971696393E+03  0.00000000000E+00 0.  1.
         11    1    1    2    0    0  0.59639567818E+01 -0.36166408582E+01 -0.76349430536E+02  0.76667362122E+02  0.00000000000E+00 0.  1.
        -15    1    1    2    0    0 -0.56617577901E+01  0.66452386788E+01 -0.30514724977E+03  0.30527727801E+03  0.17770000000E+01 0.  1.
         15    1    1    2    0    0 -0.22317737908E+01  0.64888679879E+01 -0.11812591588E+03  0.11833839594E+03  0.17770000000E+01 0.  1.
</event>
<event>
 6    1  0.1823098E-004  0.5026603E+03  0.7546771E-02  0.9393877E-01
        -11   -1    0    0    0    0  0.00000000000E+00  0.00000000000E+00  0.50000000000E+03  0.50000000000E+03  0.00000000000E+00 0.  1.
         11   -1    0    0    0    0 -0.00000000000E+00 -0.00000000000E+00 -0.50000000000E+03  0.50000000000E+03  0.00000000000E+00 0. -1.
        -11    1    1    2    0    0  0.37786810145E+01  0.66086110657E+01  0.35612210127E+03  0.35620345757E+03  0.00000000000E+00 0.  1.
         11    1    1    2    0    0  0.41825886232E+01  0.25803613323E+02 -0.49665223792E+03  0.49733968868E+03  0.00000000000E+00 0. -1.
        -15    1    1    2    0    0 -0.27300651787E+01 -0.31228183989E+00  0.52368875408E+02  0.52471016917E+02  0.17770000000E+01 0. -1.
         15    1    1    2    0    0 -0.52312044589E+01 -0.32099942549E+02  0.88161261245E+02  0.93985836832E+02  0.17770000000E+01 0.  1.
</event>
<event>
 6    1  0.1823098E-004  0.5083732E+03  0.7546771E-02  0.9381267E-01
        -11   -1    0    0    0    0  0.00000000000E+00  0.00000000000E+00  0.50000000000E+03  0.50000000000E+03  0.00000000000E+00 0.  1.
         11   -1    0    0    0    0 -0.00000000000E+00 -0.00000000000E+00 -0.50000000000E+03  0.50000000000E+03  0.00000000000E+00 0.  1.
        -11    1    1    2    0    0 -0.25242433099E+01  0.11505788683E+02  0.49148570542E+03  0.49162684387E+03  0.00000000000E+00 0.  1.
         11    1    1    2    0    0 -0.14359595189E+02  0.24033208034E+01 -0.46973939834E+03  0.46996497346E+03  0.00000000000E+00 0.  1.
        -15    1    1    2    0    0  0.10320175697E+02 -0.27707138654E+01 -0.22874226495E+02  0.25309501151E+02  0.17770000000E+01 0.  1.
         15    1    1    2    0    0  0.65636628012E+01 -0.11138395621E+02  0.11279194126E+01  0.13098681521E+02  0.17770000000E+01 0. -1.
</event>
<event>
 6    1  0.1823098E-004  0.5024417E+03  0.7546771E-02  0.9394363E-01
        -11   -1    0    0    0    0  0.00000000000E+00  0.00000000000E+00  0.50000000000E+03  0.50000000000E+03  0.00000000000E+00 0.  1.
         11   -1    0    0    0    0 -0.00000000000E+00 -0.00000000000E+00 -0.50000000000E+03  0.50000000000E+03  0.00000000000E+00 0. -1.
        -11    1    1    2    0    0  0.67872140705E+01 -0.28350463795E+01  0.49750389702E+03  0.49755826926E+03  0.00000000000E+00 0.  1.
         11    1    1    2    0    0  0.16126526675E+02  0.62672684395E+01 -0.42973567000E+03  0.43008381693E+03  0.00000000000E+00 0. -1.
        -15    1    1    2    0    0 -0.15981008311E+02  0.42217609319E+00 -0.54245413918E+02  0.56579974544E+02  0.17770000000E+01 0. -1.
         15    1    1    2    0    0 -0.69327324344E+01 -0.38543981532E+01 -0.13522813102E+02  0.15777939261E+02  0.17770000000E+01 0.  1.
</event>
<event>
 6    1  0.1823098E-004  0.4492981E+03  0.7546771E-02  0.9521003E-01
        -11   -1    0    0    0    0  0.00000000000E+00  0.00000000000E+00  0.50000000000E+03  0.50000000000E+03  0.00000000000E+00 0.  1.
         11   -1    0    0    0    0 -0.00000000000E+00 -0.00000000000E+00 -0.50000000000E+03  0.50000000000E+03  0.00000000000E+00 0. -1.
        -11    1    1    2    0    0 -0.19868702411E+02 -0.62512072362E+01  0.44075165893E+03  0.44124354701E+03  0.00000000000E+00 0.  1.
         11    1    1    2    0    0 -0.94510772467E+02 -0.40683964842E+02 -0.10823591928E+02  0.10346313957E+03  0.00000000000E+00 0. -1.
        -15    1    1    2    0    0  0.88532699842E+02 -0.80798572621E+01 -0.26411395067E+03  0.27868021046E+03  0.17770000000E+01 0. -1.
         15    1    1    2    0    0  0.25846775037E+02  0.55015029341E+02 -0.16581411634E+03  0.17661310296E+03  0.17770000000E+01 0.  1.
</event>
<event>
 6    1  0.1823098E-004  0.5034635E+03  0.7546771E-02  0.9392093E-01
        -11   -1    0    0    0    0  0.00000000000E+00  0.00000000000E+00  0.50000000000E+03  0.50000000000E+03  0.00000000000E+00 0. -1.
         11   -1    0    0    0    0 -0.00000000000E+00 -0.00000000000E+00 -0.50000000000E+03  0.50000000000E+03  0.00000000000E+00 0.  1.
        -11    1    1    2    0    0 -0.21243001967E+02  0.16455586978E+01  0.49607914020E+03  0.49653649043E+03  0.00000000000E+00 0. -1.
         11    1    1    2    0    0  0.48115301018E+01 -0.29656004695E+02 -0.72504763825E+02  0.78482929441E+02  0.00000000000E+00 0.  1.
        -15    1    1    2    0    0  0.34098767461E+00  0.56189657580E+01 -0.42819841848E+02  0.43224826589E+02  0.17770000000E+01 0.  1.
         15    1    1    2    0    0  0.16090484191E+02  0.22391480239E+02 -0.38075453452E+03  0.38175575354E+03  0.17770000000E+01 0.  1.
</event>
<event>
 6    1  0.1823098E-004  0.5005656E+03  0.7546771E-02  0.9398545E-01
        -11   -1    0    0    0    0  0.00000000000E+00  0.00000000000E+00  0.50000000000E+03  0.50000000000E+03  0.00000000000E+00 0.  1.
         11   -1    0    0    0    0 -0.00000000000E+00 -0.00000000000E+00 -0.50000000000E+03  0.50000000000E+03  0.00000000000E+00 0. -1.
        -11    1    1    2    0    0  0.16749431596E+01  0.68041125178E+01  0.39121673990E+03  0.39127948957E+03  0.00000000000E+00 0.  1.
         11    1    1    2    0    0 -0.13205351029E+02  0.27975163110E+01 -0.49925197704E+03  0.49943442410E+03  0.00000000000E+00 0. -1.
        -15    1    1    2    0    0  0.90998470810E+01 -0.56802446354E+01  0.58265740614E+02  0.59271634484E+02  0.17770000000E+01 0. -1.
         15    1    1    2    0    0  0.24305607883E+01 -0.39213841934E+01  0.49769496527E+02  0.50014451844E+02  0.17770000000E+01 0.  1.
</event>
<event>
 6    1  0.1823098E-004  0.5008207E+03  0.7546771E-02  0.9397975E-01
        -11   -1    0    0    0    0  0.00000000000E+00  0.00000000000E+00  0.50000000000E+03  0.50000000000E+03  0.00000000000E+00 0. -1.
         11   -1    0    0    0    0 -0.00000000000E+00 -0.00000000000E+00 -0.50000000000E+03  0.50000000000E+03  0.00000000000E+00 0. -1.
        -11    1    1    2    0    0  0.91724298488E+01  0.24354127126E+01  0.49908912365E+03  0.49917934458E+03  0.00000000000E+00 0. -1.
         11    1    1    2    0    0 -0.37219959177E+01  0.17035814428E+02 -0.14142479735E+03  0.14249577374E+03  0.00000000000E+00 0. -1.
        -15    1    1    2    0    0 -0.68763909312E+01 -0.16478787570E+02 -0.30369007021E+03  0.30421974240E+03  0.17770000000E+01 0. -1.
         15    1    1    2    0    0  0.14259570002E+01 -0.29924395711E+01 -0.53974256089E+02  0.54105139287E+02  0.17770000000E+01 0.  1.
</event>
<event>
 6    1  0.1823098E-004  0.5008901E+03  0.7546771E-02  0.9397820E-01
        -11   -1    0    0    0    0  0.00000000000E+00  0.00000000000E+00  0.50000000000E+03  0.50000000000E+03  0.00000000000E+00 0.  1.
         11   -1    0    0    0    0 -0.00000000000E+00 -0.00000000000E+00 -0.50000000000E+03  0.50000000000E+03  0.00000000000E+00 0. -1.
        -11    1    1    2    0    0 -0.49015169021E+00 -0.64109153110E+01  0.36543035591E+03  0.36548691509E+03  0.00000000000E+00 0.  1.
         11    1    1    2    0    0 -0.64594710812E+01 -0.12189079963E+02 -0.49891920212E+03  0.49910987636E+03  0.00000000000E+00 0. -1.
        -15    1    1    2    0    0  0.49898941904E+01  0.17880689406E+02  0.94769119842E+02  0.96586551353E+02  0.17770000000E+01 0. -1.
         15    1    1    2    0    0  0.19597285809E+01  0.71930586750E+00  0.38719726364E+02  0.38816657195E+02  0.17770000000E+01 0.  1.
</event>
<event>
 6    1  0.1823098E-004  0.4542965E+03  0.7546771E-02  0.9508315E-01
        -11   -1    0    0    0    0  0.00000000000E+00  0.00000000000E+00  0.50000000000E+03  0.50000000000E+03  0.00000000000E+00 0. -1.
         11   -1    0    0    0    0 -0.00000000000E+00 -0.00000000000E+00 -0.50000000000E+03  0.50000000000E+03  0.00000000000E+00 0. -1.
        -11    1    1    2    0    0 -0.58021053376E+01 -0.71655366865E+01  0.46059076348E+03  0.46068303718E+03  0.00000000000E+00 0. -1.
         11    1    1    2    0    0  0.82591856333E+02  0.10638148627E+02 -0.44356550153E+03  0.45131467856E+03  0.00000000000E+00 0. -1.
        -15    1    1    2    0    0 -0.52900851445E+02 -0.20521747628E+02 -0.13803321449E+02  0.58423724816E+02  0.17770000000E+01 0.  1.
         15    1    1    2    0    0 -0.23888899551E+02  0.17049135688E+02 -0.32219405018E+01  0.29578559448E+02  0.17770000000E+01 0. -1.
</event>
<event>
 6    1  0.1823098E-004  0.5201303E+03  0.7546771E-02  0.9355860E-01
        -11   -1    0    0    0    0  0.00000000000E+00  0.00000000000E+00  0.50000000000E+03  0.50000000000E+03  0.00000000000E+00 0.  1.
         11   -1    0    0    0    0 -0.00000000000E+00 -0.00000000000E+00 -0.50000000000E+03  0.50000000000E+03  0.00000000000E+00 0. -1.
        -11    1    1    2    0    0  0.28971521124E+01 -0.89748089224E+01  0.45234598495E+03  0.45244428473E+03  0.00000000000E+00 0.  1.
         11    1    1    2    0    0 -0.22709305548E+02  0.40150653157E+02 -0.47764754541E+03  0.47986973768E+03  0.00000000000E+00 0. -1.
        -15    1    1    2    0    0  0.85150580178E+01  0.75994674551E+01  0.24686120472E+02  0.27254731545E+02  0.17770000000E+01 0. -1.
         15    1    1    2    0    0  0.11297095418E+02 -0.38775311690E+02  0.61543999029E+00  0.40431246047E+02  0.17770000000E+01 0.  1.
</event>
<event>
 6    1  0.1823098E-004  0.5025908E+03  0.7546771E-02  0.9394031E-01
        -11   -1    0    0    0    0  0.00000000000E+00  0.00000000000E+00  0.50000000000E+03  0.50000000000E+03  0.00000000000E+00 0.  1.
         11   -1    0    0    0    0 -0.00000000000E+00 -0.00000000000E+00 -0.50000000000E+03  0.50000000000E+03  0.00000000000E+00 0. -1.
        -11    1    1    2    0    0  0.60330024469E+00 -0.13017226130E+02  0.32178813793E+03  0.32205188690E+03  0.00000000000E+00 0.  1.
         11    1    1    2    0    0 -0.39325737382E+02 -0.12161330412E+01 -0.49585072088E+03  0.49740921784E+03  0.00000000000E+00 0. -1.
        -15    1    1    2    0    0  0.24739737986E+02  0.11261845692E+02  0.15031915642E+03  0.15276743867E+03  0.17770000000E+01 0. -1.
         15    1    1    2    0    0  0.13982699151E+02  0.29715134789E+01  0.23743426537E+02  0.27771456581E+02  0.17770000000E+01 0.  1.
</event>
<event>
 6    1  0.1823098E-004  0.5002728E+03  0.7546771E-02  0.9399200E-01
        -11   -1    0    0    0    0  0.00000000000E+00  0.00000000000E+00  0.50000000000E+03  0.50000000000E+03  0.00000000000E+00 0. -1.
         11   -1    0    0    0    0 -0.00000000000E+00 -0.00000000000E+00 -0.50000000000E+03  0.50000000000E+03  0.00000000000E+00 0. -1.
        -11    1    1    2    0    0 -0.40995761055E+01 -0.77883515559E+01  0.49964972047E+03  0.49972723371E+03  0.00000000000E+00 0. -1.
         11    1    1    2    0    0  0.12696024076E+01 -0.76290433850E+01 -0.14109909190E+03  0.14131089105E+03  0.00000000000E+00 0. -1.
        -15    1    1    2    0    0 -0.16233508866E+01  0.36769882130E+01 -0.76249244287E+02  0.76375784734E+02  0.17770000000E+01 0.  1.
         15    1    1    2    0    0  0.44533245845E+01  0.11740406728E+02 -0.28230138428E+03  0.28258609050E+03  0.17770000000E+01 0. -1.
</event>
<event>
 6    1  0.1823098E-004  0.5008631E+03  0.7546771E-02  0.9397881E-01
        -11   -1    0    0    0    0  0.00000000000E+00  0.00000000000E+00  0.50000000000E+03  0.50000000000E+03  0.00000000000E+00 0.  1.
         11   -1    0    0    0    0 -0.00000000000E+00 -0.00000000000E+00 -0.50000000000E+03  0.50000000000E+03  0.00000000000E+00 0.  1.
        -11    1    1    2    0    0  0.53481169658E+01  0.60936651856E+01  0.49907106514E+03  0.49913691826E+03  0.00000000000E+00 0.  1.
         11    1    1    2    0    0  0.32201472724E+01  0.76742086044E+01 -0.40502315412E+03  0.40510864987E+03  0.00000000000E+00 0.  1.
        -15    1    1    2    0    0 -0.82759205934E+01 -0.76053749536E+01 -0.66641034060E+02  0.67605604350E+02  0.17770000000E+01 0. -1.
         15    1    1    2    0    0 -0.29234364480E+00 -0.61624988364E+01 -0.27406876965E+02  0.28148827519E+02  0.17770000000E+01 0.  1.
</event>
<event>
 6    1  0.1823098E-004  0.5036563E+03  0.7546771E-02  0.9391665E-01
        -11   -1    0    0    0    0  0.00000000000E+00  0.00000000000E+00  0.50000000000E+03  0.50000000000E+03  0.00000000000E+00 0.  1.
         11   -1    0    0    0    0 -0.00000000000E+00 -0.00000000000E+00 -0.50000000000E+03  0.50000000000E+03  0.00000000000E+00 0.  1.
        -11    1    1    2    0    0 -0.65110156802E+01  0.34113683517E+01  0.49628923104E+03  0.49634366281E+03  0.00000000000E+00 0.  1.
         11    1    1    2    0    0  0.76551584248E+01 -0.26208735891E+02 -0.45474793016E+03  0.45556687683E+03  0.00000000000E+00 0.  1.
        -15    1    1    2    0    0 -0.26586858286E+01  0.20581141840E+02 -0.37760287592E+02  0.43123648475E+02  0.17770000000E+01 0.  1.
         15    1    1    2    0    0  0.15145430840E+01  0.22162256993E+01 -0.37810132967E+01  0.49658118826E+01  0.17770000000E+01 0. -1.
</event>
<event>
 6    1  0.1823098E-004  0.5150409E+03  0.7546771E-02  0.9366770E-01
        -11   -1    0    0    0    0  0.00000000000E+00  0.00000000000E+00  0.50000000000E+03  0.50000000000E+03  0.00000000000E+00 0. -1.
         11   -1    0    0    0    0 -0.00000000000E+00 -0.00000000000E+00 -0.50000000000E+03  0.50000000000E+03  0.00000000000E+00 0. -1.
        -11    1    1    2    0    0  0.10144065914E+02  0.10777671496E+02  0.48473321989E+03  0.48495912688E+03  0.00000000000E+00 0. -1.
         11    1    1    2    0    0 -0.26701071138E+02 -0.31033393293E+02 -0.43564606043E+03  0.43756543358E+03  0.00000000000E+00 0. -1.
        -15    1    1    2    0    0 -0.18949484763E+02  0.14435313686E+02 -0.18398853047E+02  0.30151895072E+02  0.17770000000E+01 0.  1.
         15    1    1    2    0    0  0.35506489987E+02  0.58204081111E+01 -0.30688306413E+02  0.47323544471E+02  0.17770000000E+01 0. -1.
</event>
<event>
 6    1  0.1823098E-004  0.5001462E+03  0.7546771E-02  0.9399483E-01
        -11   -1    0    0    0    0  0.00000000000E+00  0.00000000000E+00  0.50000000000E+03  0.50000000000E+03  0.00000000000E+00 0. -1.
         11   -1    0    0    0    0 -0.00000000000E+00 -0.00000000000E+00 -0.50000000000E+03  0.50000000000E+03  0.00000000000E+00 0.  1.
        -11    1    1    2    0    0  0.76549402930E+00 -0.57274294574E+01  0.27462773325E+03  0.27468851687E+03  0.00000000000E+00 0. -1.
         11    1    1    2    0    0 -0.84098389949E+01  0.10428273575E+02 -0.49967421552E+03  0.49985377456E+03  0.00000000000E+00 0.  1.
        -15    1    1    2    0    0  0.40120495153E+01  0.19018954561E+01  0.13307235781E+03  0.13315826632E+03  0.17770000000E+01 0. -1.
         15    1    1    2    0    0  0.36322954503E+01 -0.66027395737E+01  0.91974124460E+02  0.92299442248E+02  0.17770000000E+01 0.  1.
</event>
<event>
 6    1  0.1823098E-004  0.5022645E+03  0.7546771E-02  0.9394757E-01
        -11   -1    0    0    0    0  0.00000000000E+00  0.00000000000E+00  0.50000000000E+03  0.50000000000E+03  0.00000000000E+00 0.  1.
         11   -1    0    0    0    0 -0.00000000000E+00 -0.00000000000E+00 -0.50000000000E+03  0.50000000000E+03  0.00000000000E+00 0. -1.
        -11    1    1    2    0    0  0.95587080779E+01  0.25518697461E+01  0.49763711549E+03  0.49773545147E+03  0.00000000000E+00 0.  1.
         11    1    1    2    0    0 -0.41565884317E+01 -0.12293527360E+02 -0.45892132624E+03  0.45910477205E+03  0.00000000000E+00 0. -1.
        -15    1    1    2    0    0 -0.79903610801E+01  0.10154255981E+00 -0.23415968739E+02  0.24805674795E+02  0.17770000000E+01 0. -1.
         15    1    1    2    0    0  0.25882414339E+01  0.96401150545E+01 -0.15299820509E+02  0.18354101683E+02  0.17770000000E+01 0.  1.
</event>
<event>
 6    1  0.1823098E-004  0.5001950E+03  0.7546771E-02  0.9399373E-01
        -11   -1    0    0    0    0  0.00000000000E+00  0.00000000000E+00  0.50000000000E+03  0.50000000000E+03  0.00000000000E+00 0. -1.
         11   -1    0    0    0    0 -0.00000000000E+00 -0.00000000000E+00 -0.50000000000E+03  0.50000000000E+03  0.00000000000E+00 0. -1.
        -11    1    1    2    0    0 -0.57616975151E+01  0.45627904444E+01  0.49975091746E+03  0.49980495768E+03  0.00000000000E+00 0. -1.
         11    1    1    2    0    0 -0.45843619304E+01  0.31882717310E+01 -0.20806750961E+03  0.20814242721E+03  0.00000000000E+00 0. -1.
        -15    1    1    2    0    0  0.83656096915E+01 -0.61293578342E+01 -0.26085626586E+03  0.26106838495E+03  0.17770000000E+01 0. -1.
         15    1    1    2    0    0  0.19804497540E+01 -0.16217043413E+01 -0.30827141999E+02  0.30984230167E+02  0.17770000000E+01 0.  1.
</event>
<event>
 6    1  0.1823098E-004  0.5031257E+03  0.7546771E-02  0.9392843E-01
        -11   -1    0    0    0    0  0.00000000000E+00  0.00000000000E+00  0.50000000000E+03  0.50000000000E+03  0.00000000000E+00 0. -1.
         11   -1    0    0    0    0 -0.00000000000E+00 -0.00000000000E+00 -0.50000000000E+03  0.50000000000E+03  0.00000000000E+00 0. -1.
        -11    1    1    2    0    0 -0.94015614607E+01  0.19992668598E+00  0.48077197307E+03  0.48086393026E+03  0.00000000000E+00 0. -1.
         11    1    1    2    0    0  0.24428266577E+01  0.88980999042E+01  0.13083892352E+02  0.16010366113E+02  0.00000000000E+00 0. -1.
        -15    1    1    2    0    0 -0.87309040944E+01  0.31572355235E+02 -0.73218197968E+02  0.80231568251E+02  0.17770000000E+01 0.  1.
         15    1    1    2    0    0  0.15689638897E+02 -0.40670381825E+02 -0.42063766746E+03  0.42289413538E+03  0.17770000000E+01 0. -1.
</event>
<event>
 6    1  0.1823098E-004  0.5030599E+03  0.7546771E-02  0.9392989E-01
        -11   -1    0    0    0    0  0.00000000000E+00  0.00000000000E+00  0.50000000000E+03  0.50000000000E+03  0.00000000000E+00 0.  1.
         11   -1    0    0    0    0 -0.00000000000E+00 -0.00000000000E+00 -0.50000000000E+03  0.50000000000E+03  0.00000000000E+00 0. -1.
        -11    1    1    2    0    0  0.10017367794E+02  0.15422547767E+01  0.49683671723E+03  0.49694008673E+03  0.00000000000E+00 0.  1.
         11    1    1    2    0    0  0.25683355789E+01 -0.60184512660E+01 -0.48292759999E+03  0.48297192976E+03  0.00000000000E+00 0. -1.
        -15    1    1    2    0    0 -0.31910609501E+01 -0.13383035991E-01 -0.54240304140E+01  0.65391806845E+01  0.17770000000E+01 0. -1.
         15    1    1    2    0    0 -0.93946424223E+01  0.44895795252E+01 -0.84850868276E+01  0.13548802826E+02  0.17770000000E+01 0.  1.
</event>
<event>
 6    1  0.1823098E-004  0.5009630E+03  0.7546771E-02  0.9397658E-01
        -11   -1    0    0    0    0  0.00000000000E+00  0.00000000000E+00  0.50000000000E+03  0.50000000000E+03  0.00000000000E+00 0. -1.
         11   -1    0    0    0    0 -0.00000000000E+00 -0.00000000000E+00 -0.50000000000E+03  0.50000000000E+03  0.00000000000E+00 0.  1.
        -11    1    1    2    0    0 -0.98040819663E+01 -0.10157332715E+01  0.38414100319E+03  0.38426743561E+03  0.00000000000E+00 0. -1.
         11    1    1    2    0    0  0.19995443168E+02 -0.13718462237E+02 -0.49844754359E+03  0.49903704037E+03  0.00000000000E+00 0.  1.
        -15    1    1    2    0    0  0.33466256529E+01  0.41206901645E+01  0.18063582461E+02  0.18911127175E+02  0.17770000000E+01 0. -1.
         15    1    1    2    0    0 -0.13537986855E+02  0.10613505344E+02  0.96242957943E+02  0.97784396846E+02  0.17770000000E+01 0.  1.
</event>
<event>
 6    1  0.1823098E-004  0.5002956E+03  0.7546771E-02  0.9399149E-01
        -11   -1    0    0    0    0  0.00000000000E+00  0.00000000000E+00  0.50000000000E+03  0.50000000000E+03  0.00000000000E+00 0. -1.
         11   -1    0    0    0    0 -0.00000000000E+00 -0.00000000000E+00 -0.50000000000E+03  0.50000000000E+03  0.00000000000E+00 0.  1.
        -11    1    1    2    0    0  0.13328941488E+01 -0.66661493456E+01  0.49965817086E+03  0.49970441449E+03  0.00000000000E+00 0. -1.
         11    1    1    2    0    0  0.65227994124E+01  0.24661223774E+00 -0.36250631491E+03  0.36256507840E+03  0.00000000000E+00 0.  1.
        -15    1    1    2    0    0 -0.61053129108E+01  0.64771031926E+01 -0.78048055308E+02  0.78574069373E+02  0.17770000000E+01 0.  1.
         15    1    1    2    0    0 -0.17503806504E+01 -0.57566084741E-01 -0.59103800641E+02  0.59156437735E+02  0.17770000000E+01 0. -1.
</event>
<event>
 6    1  0.1823098E-004  0.5061659E+03  0.7546771E-02  0.9386118E-01
        -11   -1    0    0    0    0  0.00000000000E+00  0.00000000000E+00  0.50000000000E+03  0.50000000000E+03  0.00000000000E+00 0. -1.
         11   -1    0    0    0    0 -0.00000000000E+00 -0.00000000000E+00 -0.50000000000E+03  0.50000000000E+03  0.00000000000E+00 0.  1.
        -11    1    1    2    0    0 -0.34172275398E+01  0.71691177575E+01  0.49377027900E+03  0.49383414434E+03  0.00000000000E+00 0. -1.
         11    1    1    2    0    0  0.19342595447E+02 -0.35421243455E+01 -0.46576544400E+03  0.46618036366E+03  0.00000000000E+00 0.  1.
        -15    1    1    2    0    0  0.42925411865E+01 -0.77401302613E-01  0.65045302694E+00  0.46917714074E+01  0.17770000000E+01 0.  1.
         15    1    1    2    0    0 -0.20217909094E+02 -0.35495921094E+01 -0.28655288029E+02  0.35293720593E+02  0.17770000000E+01 0. -1.
</event>
<event>
 6    1  0.1823098E-004  0.4843989E+03  0.7546771E-02  0.9435411E-01
        -11   -1    0    0    0    0  0.00000000000E+00  0.00000000000E+00  0.50000000000E+03  0.50000000000E+03  0.00000000000E+00 0. -1.
         11   -1    0    0    0    0 -0.00000000000E+00 -0.00000000000E+00 -0.50000000000E+03  0.50000000000E+03  0.00000000000E+00 0. -1.
        -11    1    1    2    0    0  0.20812305575E+01  0.12347464562E+02  0.49145477134E+03  0.49161426309E+03  0.00000000000E+00 0. -1.
         11    1    1    2    0    0 -0.16811260718E+02  0.78497812327E+01 -0.47724949502E+03  0.47761000623E+03  0.00000000000E+00 0. -1.
        -15    1    1    2    0    0  0.12896347575E+02 -0.15743952394E+02 -0.15304516216E+02  0.25525942947E+02  0.17770000000E+01 0. -1.
         15    1    1    2    0    0  0.18336825855E+01 -0.44532934004E+01  0.10992398952E+01  0.52497877368E+01  0.17770000000E+01 0.  1.
</event>
<event>
 6    1  0.1823098E-004  0.5032820E+03  0.7546771E-02  0.9392496E-01
        -11   -1    0    0    0    0  0.00000000000E+00  0.00000000000E+00  0.50000000000E+03  0.50000000000E+03  0.00000000000E+00 0. -1.
         11   -1    0    0    0    0 -0.00000000000E+00 -0.00000000000E+00 -0.50000000000E+03  0.50000000000E+03  0.00000000000E+00 0.  1.
        -11    1    1    2    0    0 -0.21703056605E+02 -0.81242345268E+01  0.49617712444E+03  0.49671799310E+03  0.00000000000E+00 0. -1.
         11    1    1    2    0    0  0.22196121313E+02  0.12283961874E+02 -0.45190716088E+02  0.51824360500E+02  0.00000000000E+00 0.  1.
        -15    1    1    2    0    0  0.20330923673E+01 -0.96081744825E+01 -0.12071889751E+03  0.12113075756E+03  0.17770000000E+01 0.  1.
         15    1    1    2    0    0 -0.25261570758E+01  0.54484471348E+01 -0.33026751084E+03  0.33032688884E+03  0.17770000000E+01 0. -1.
</event>
<event>
 6    1  0.1823098E-004  0.5019300E+03  0.7546771E-02  0.9395502E-01
        -11   -1    0    0    0    0  0.00000000000E+00  0.00000000000E+00  0.50000000000E+03  0.50000000000E+03  0.00000000000E+00 0.  1.
         11   -1    0    0    0    0 -0.00000000000E+00 -0.00000000000E+00 -0.50000000000E+03  0.50000000000E+03  0.00000000000E+00 0. -1.
        -11    1    1    2    0    0 -0.56072655969E+01  0.76045978872E+01  0.48316742795E+03  0.48325980049E+03  0.00000000000E+00 0.  1.
         11    1    1    2    0    0  0.10606212458E+02 -0.68773372892E+01 -0.49790960021E+03  0.49807003473E+03  0.00000000000E+00 0. -1.
        -15    1    1    2    0    0 -0.18004381399E+01 -0.45038442954E+01  0.34446320912E+01  0.62088171318E+01  0.17770000000E+01 0.  1.
         15    1    1    2    0    0 -0.31985087217E+01  0.37765836973E+01  0.11297540169E+02  0.12461347654E+02  0.17770000000E+01 0. -1.
</event>
<event>
 6    1  0.1823098E-004  0.5001852E+03  0.7546771E-02  0.9399395E-01
        -11   -1    0    0    0    0  0.00000000000E+00  0.00000000000E+00  0.50000000000E+03  0.50000000000E+03  0.00000000000E+00 0. -1.
         11   -1    0    0    0    0 -0.00000000000E+00 -0.00000000000E+00 -0.50000000000E+03  0.50000000000E+03  0.00000000000E+00 0.  1.
        -11    1    1    2    0    0  0.20267864578E+01 -0.25807918769E+01  0.12003499864E+03  0.12007984531E+03  0.00000000000E+00 0. -1.
         11    1    1    2    0    0  0.16330554887E+02 -0.57644059852E+01 -0.49951467728E+03  0.49981479392E+03  0.00000000000E+00 0.  1.
        -15    1    1    2    0    0 -0.38108414331E+01  0.93949689847E+00  0.13846882289E+03  0.13853583583E+03  0.17770000000E+01 0.  1.
         15    1    1    2    0    0 -0.14546499912E+02  0.74057009636E+01  0.24101085574E+03  0.24156952494E+03  0.17770000000E+01 0. -1.
</event>
<event>
 6    1  0.1823098E-004  0.5076291E+03  0.7546771E-02  0.9382899E-01
        -11   -1    0    0    0    0  0.00000000000E+00  0.00000000000E+00  0.50000000000E+03  0.50000000000E+03  0.00000000000E+00 0.  1.
         11   -1    0    0    0    0 -0.00000000000E+00 -0.00000000000E+00 -0.50000000000E+03  0.50000000000E+03  0.00000000000E+00 0. -1.
        -11    1    1    2    0    0  0.33436761227E+01  0.93841826858E+01  0.40716152256E+03  0.40728337618E+03  0.00000000000E+00 0.  1.
         11    1    1    2    0    0 -0.36200612388E+02  0.22825221089E+01 -0.49103300107E+03  0.49237089920E+03  0.00000000000E+00 0. -1.
        -15    1    1    2    0    0  0.25206420598E+02  0.78569824486E+01  0.70771966434E+02  0.75557426998E+02  0.17770000000E+01 0.  1.
         15    1    1    2    0    0  0.76505156675E+01 -0.19523687243E+02  0.13099512070E+02  0.24788297623E+02  0.17770000000E+01 0. -1.
</event>
<event>
 6    1  0.1823098E-004  0.5005120E+03  0.7546771E-02  0.9398665E-01
        -11   -1    0    0    0    0  0.00000000000E+00  0.00000000000E+00  0.50000000000E+03  0.50000000000E+03  0.00000000000E+00 0. -1.
         11   -1    0    0    0    0 -0.00000000000E+00 -0.00000000000E+00 -0.50000000000E+03  0.50000000000E+03  0.00000000000E+00 0.  1.
        -11    1    1    2    0    0  0.14697966633E+02 -0.46338456723E+01  0.49925024592E+03  0.49948804870E+03  0.00000000000E+00 0. -1.
         11    1    1    2    0    0 -0.13380193661E+02 -0.57156656597E+00 -0.75064501085E+02  0.76249823566E+02  0.00000000000E+00 0.  1.
        -15    1    1    2    0    0  0.19056108079E+00  0.54191673286E+01 -0.30632242248E+03  0.30637556680E+03  0.17770000000E+01 0.  1.
         15    1    1    2    0    0 -0.15083340531E+01 -0.21375509029E+00 -0.11786332236E+03  0.11788656093E+03  0.17770000000E+01 0. -1.
</event>
<event>
 6    1  0.1823098E-004  0.5001971E+03  0.7546771E-02  0.9399369E-01
        -11   -1    0    0    0    0  0.00000000000E+00  0.00000000000E+00  0.50000000000E+03  0.50000000000E+03  0.00000000000E+00 0. -1.
         11   -1    0    0    0    0 -0.00000000000E+00 -0.00000000000E+00 -0.50000000000E+03  0.50000000000E+03  0.00000000000E+00 0. -1.
        -11    1    1    2    0    0 -0.85599661189E+01 -0.69202141541E+01  0.49968168371E+03  0.49980290857E+03  0.00000000000E+00 0. -1.
         11    1    1    2    0    0  0.11741596481E+02  0.22730493076E+01 -0.16293402623E+03  0.16337236224E+03  0.00000000000E+00 0. -1.
        -15    1    1    2    0    0 -0.26449987219E+01  0.18712594795E+01 -0.14012824737E+03  0.14017696341E+03  0.17770000000E+01 0.  1.
         15    1    1    2    0    0 -0.53663164000E+00  0.27759053670E+01 -0.19661941011E+03  0.19664776578E+03  0.17770000000E+01 0. -1.
</event>
<event>
 6    1  0.1823098E-004  0.5003694E+03  0.7546771E-02  0.9398984E-01
        -11   -1    0    0    0    0  0.00000000000E+00  0.00000000000E+00  0.50000000000E+03  0.50000000000E+03  0.00000000000E+00 0.  1.
         11   -1    0    0    0    0 -0.00000000000E+00 -0.00000000000E+00 -0.50000000000E+03  0.50000000000E+03  0.00000000000E+00 0.  1.
        -11    1    1    2    0    0  0.10108493006E+02 -0.41792317365E+01  0.49951088632E+03  0.49963063673E+03  0.00000000000E+00 0.  1.
         11    1    1    2    0    0 -0.52693280478E+01 -0.20816374480E+01 -0.23365275459E+02  0.24042361153E+02  0.00000000000E+00 0.  1.
        -15    1    1    2    0    0 -0.62304077772E+01  0.19857631811E+00 -0.19758679845E+03  0.19769309058E+03  0.17770000000E+01 0.  1.
         15    1    1    2    0    0  0.13912428186E+01  0.60622928664E+01 -0.27855881242E+03  0.27863391153E+03  0.17770000000E+01 0. -1.
</event>
<event>
 6    1  0.1823098E-004  0.5022871E+03  0.7546771E-02  0.9394707E-01
        -11   -1    0    0    0    0  0.00000000000E+00  0.00000000000E+00  0.50000000000E+03  0.50000000000E+03  0.00000000000E+00 0. -1.
         11   -1    0    0    0    0 -0.00000000000E+00 -0.00000000000E+00 -0.50000000000E+03  0.50000000000E+03  0.00000000000E+00 0.  1.
        -11    1    1    2    0    0  0.96709363434E+01  0.52132227953E+01  0.46831569432E+03  0.46844454768E+03  0.00000000000E+00 0. -1.
         11    1    1    2    0    0 -0.13789539180E+02 -0.17338155099E+02 -0.49721964996E+03  0.49771291255E+03  0.00000000000E+00 0.  1.
        -15    1    1    2    0    0  0.33107799640E+01  0.11095712719E+01  0.17245460323E+02  0.17684910040E+02  0.17770000000E+01 0. -1.
         15    1    1    2    0    0  0.80782287225E+00  0.11015361032E+02  0.11658495313E+02  0.16157629728E+02  0.17770000000E+01 0.  1.
</event>
<event>
 6    1  0.1823098E-004  0.5009047E+03  0.7546771E-02  0.9397788E-01
        -11   -1    0    0    0    0  0.00000000000E+00  0.00000000000E+00  0.50000000000E+03  0.50000000000E+03  0.00000000000E+00 0. -1.
         11   -1    0    0    0    0 -0.00000000000E+00 -0.00000000000E+00 -0.50000000000E+03  0.50000000000E+03  0.00000000000E+00 0. -1.
        -11    1    1    2    0    0  0.95663058720E+01  0.10024231850E+01  0.37144428347E+03  0.37156880222E+03  0.00000000000E+00 0. -1.
         11    1    1    2    0    0 -0.66149300183E+01 -0.20116283372E+02 -0.49864586753E+03  0.49909530488E+03  0.00000000000E+00 0. -1.
        -15    1    1    2    0    0 -0.47448006910E+01  0.18930041298E+01  0.44155405170E+02  0.44485437313E+02  0.17770000000E+01 0. -1.
         15    1    1    2    0    0  0.17934248372E+01  0.17220856057E+02  0.83046178888E+02  0.84850455584E+02  0.17770000000E+01 0.  1.
</event>
<event>
 6    1  0.1823098E-004  0.5019999E+03  0.7546771E-02  0.9395346E-01
        -11   -1    0    0    0    0  0.00000000000E+00  0.00000000000E+00  0.50000000000E+03  0.50000000000E+03  0.00000000000E+00 0. -1.
         11   -1    0    0    0    0 -0.00000000000E+00 -0.00000000000E+00 -0.50000000000E+03  0.50000000000E+03  0.00000000000E+00 0.  1.
        -11    1    1    2    0    0  0.62865656256E+01 -0.10745925284E+02  0.49784444208E+03  0.49800008467E+03  0.00000000000E+00 0. -1.
         11    1    1    2    0    0 -0.13428349098E+02 -0.87099240291E+00 -0.21549108300E+02  0.25405575289E+02  0.00000000000E+00 0.  1.
        -15    1    1    2    0    0  0.21044873148E+01  0.91734144894E+01 -0.19241090865E+03  0.19264915234E+03  0.17770000000E+01 0.  1.
         15    1    1    2    0    0  0.50372961576E+01  0.24435031973E+01 -0.28388442513E+03  0.28394518770E+03  0.17770000000E+01 0.  1.
</event>
<event>
 6    1  0.1823098E-004  0.5088630E+03  0.7546771E-02  0.9380194E-01
        -11   -1    0    0    0    0  0.00000000000E+00  0.00000000000E+00  0.50000000000E+03  0.50000000000E+03  0.00000000000E+00 0.  1.
         11   -1    0    0    0    0 -0.00000000000E+00 -0.00000000000E+00 -0.50000000000E+03  0.50000000000E+03  0.00000000000E+00 0. -1.
        -11    1    1    2    0    0  0.11032924141E+02 -0.22286250468E+02  0.35934165228E+03  0.36020109028E+03  0.00000000000E+00 0.  1.
         11    1    1    2    0    0 -0.57694730124E+02  0.64495498913E+02 -0.48345337846E+03  0.49113696706E+03  0.00000000000E+00 0. -1.
        -15    1    1    2    0    0 -0.14304841383E+01  0.94536566651E+01  0.72611813082E+01  0.12136737296E+02  0.17770000000E+01 0.  1.
         15    1    1    2    0    0  0.48092290121E+02 -0.51662905110E+02  0.11685054487E+03  0.13652520536E+03  0.17770000000E+01 0. -1.
</event>
<event>
 6    1  0.1823098E-004  0.5000496E+03  0.7546771E-02  0.9399699E-01
        -11   -1    0    0    0    0  0.00000000000E+00  0.00000000000E+00  0.50000000000E+03  0.50000000000E+03  0.00000000000E+00 0.  1.
         11   -1    0    0    0    0 -0.00000000000E+00 -0.00000000000E+00 -0.50000000000E+03  0.50000000000E+03  0.00000000000E+00 0.  1.
        -11    1    1    2    0    0 -0.24631834231E+01 -0.11675089620E+02  0.49980797272E+03  0.49995038212E+03  0.00000000000E+00 0.  1.
         11    1    1    2    0    0  0.12542085571E+01 -0.23478820931E+00 -0.19678204067E+02  0.19719530419E+02  0.00000000000E+00 0.  1.
        -15    1    1    2    0    0 -0.22492772039E+01  0.47431836435E+01 -0.15806698267E+03  0.15816411028E+03  0.17770000000E+01 0.  1.
         15    1    1    2    0    0  0.34582520699E+01  0.71666941859E+01 -0.32206278598E+03  0.32216597718E+03  0.17770000000E+01 0. -1.
</event>
<event>
 6    1  0.1823098E-004  0.4872464E+03  0.7546771E-02  0.9428808E-01
        -11   -1    0    0    0    0  0.00000000000E+00  0.00000000000E+00  0.50000000000E+03  0.50000000000E+03  0.00000000000E+00 0.  1.
         11   -1    0    0    0    0 -0.00000000000E+00 -0.00000000000E+00 -0.50000000000E+03  0.50000000000E+03  0.00000000000E+00 0. -1.
        -11    1    1    2    0    0 -0.56379574238E+00  0.69062247662E+01  0.48856555617E+03  0.48861469122E+03  0.00000000000E+00 0.  1.
         11    1    1    2    0    0  0.14834186899E+02 -0.20161695769E+01 -0.48576832300E+03  0.48599895234E+03  0.00000000000E+00 0. -1.
        -15    1    1    2    0    0  0.30918700978E+01  0.50162513566E+00  0.44585319050E+01  0.57312759684E+01  0.17770000000E+01 0. -1.
         15    1    1    2    0    0 -0.17362261254E+02 -0.53916803250E+01 -0.72557650695E+01  0.19655080471E+02  0.17770000000E+01 0.  1.
</event>
<event>
 6    1  0.1823098E-004  0.5008255E+03  0.7546771E-02  0.9397964E-01
        -11   -1    0    0    0    0  0.00000000000E+00  0.00000000000E+00  0.50000000000E+03  0.50000000000E+03  0.00000000000E+00 0. -1.
         11   -1    0    0    0    0 -0.00000000000E+00 -0.00000000000E+00 -0.50000000000E+03  0.50000000000E+03  0.00000000000E+00 0. -1.
        -11    1    1    2    0    0 -0.62667785463E+01 -0.22566709648E+02  0.49862473873E+03  0.49917447748E+03  0.00000000000E+00 0. -1.
         11    1    1    2    0    0 -0.47223005446E+01  0.28946667984E+02 -0.39602734500E+03  0.39711190828E+03  0.00000000000E+00 0. -1.
        -15    1    1    2    0    0  0.70625159323E+00 -0.16283665351E+01 -0.71162322403E+01  0.75464467919E+01  0.17770000000E+01 0.  1.
         15    1    1    2    0    0  0.10282827498E+02 -0.47515918007E+01 -0.95481161489E+02  0.96167167444E+02  0.17770000000E+01 0. -1.
</event>
<event>
 6    1  0.1823098E-004  0.5106197E+03  0.7546771E-02  0.9376356E-01
        -11   -1    0    0    0    0  0.00000000000E+00  0.00000000000E+00  0.50000000000E+03  0.50000000000E+03  0.00000000000E+00 0. -1.
         11   -1    0    0    0    0 -0.00000000000E+00 -0.00000000000E+00 -0.50000000000E+03  0.50000000000E+03  0.00000000000E+00 0.  1.
        -11    1    1    2    0    0  0.58039755311E+01 -0.34584296855E+02  0.48812227920E+03  0.48938034203E+03  0.00000000000E+00 0. -1.
         11    1    1    2    0    0 -0.35217226758E+02  0.12653958543E+02 -0.44781137085E+03  0.44937222832E+03  0.00000000000E+00 0.  1.
        -15    1    1    2    0    0 -0.47757581030E+01  0.55198599243E+01 -0.32268760856E+01  0.81760123113E+01  0.17770000000E+01 0. -1.
         15    1    1    2    0    0  0.34189009330E+02  0.16410478388E+02 -0.37084032264E+02  0.53071417334E+02  0.17770000000E+01 0.  1.
</event>
<event>
 6    1  0.1823098E-004  0.5027639E+03  0.7546771E-02  0.9393646E-01
        -11   -1    0    0    0    0  0.00000000000E+00  0.00000000000E+00  0.50000000000E+03  0.50000000000E+03  0.00000000000E+00 0. -1.
         11   -1    0    0    0    0 -0.00000000000E+00 -0.00000000000E+00 -0.50000000000E+03  0.50000000000E+03  0.00000000000E+00 0.  1.
        -11    1    1    2    0    0 -0.65681081392E+01 -0.17345619024E+01  0.49718965136E+03  0.49723605879E+03  0.00000000000E+00 0. -1.
         11    1    1    2    0    0 -0.16808654434E+02 -0.19085826312E+02 -0.34466689545E+03  0.34560391845E+03  0.00000000000E+00 0.  1.
        -15    1    1    2    0    0  0.58221157649E+00 -0.25067478605E+01 -0.39449731472E+01  0.50342126780E+01  0.17770000000E+01 0.  1.
         15    1    1    2    0    0  0.22794550997E+02  0.23327136075E+02 -0.14857778276E+03  0.15212581008E+03  0.17770000000E+01 0.  1.
</event>
<event>
 6    1  0.1823098E-004  0.5011589E+03  0.7546771E-02  0.9397220E-01
        -11   -1    0    0    0    0  0.00000000000E+00  0.00000000000E+00  0.50000000000E+03  0.50000000000E+03  0.00000000000E+00 0. -1.
         11   -1    0    0    0    0 -0.00000000000E+00 -0.00000000000E+00 -0.50000000000E+03  0.50000000000E+03  0.00000000000E+00 0. -1.
        -11    1    1    2    0    0  0.55650328290E+01 -0.36350832383E+01  0.40544629002E+03  0.40550077374E+03  0.00000000000E+00 0. -1.
         11    1    1    2    0    0  0.25124462427E+01  0.21351475221E+02 -0.49837758117E+03  0.49884106817E+03  0.00000000000E+00 0. -1.
        -15    1    1    2    0    0 -0.65646699694E+00 -0.14058045168E+02  0.60545108372E+02  0.62184623980E+02  0.17770000000E+01 0.  1.
         15    1    1    2    0    0 -0.74210120747E+01 -0.36583468144E+01  0.32386182780E+02  0.33473534108E+02  0.17770000000E+01 0. -1.
</event>
<event>
 6    1  0.1823098E-004  0.5104427E+03  0.7546771E-02  0.9376742E-01
        -11   -1    0    0    0    0  0.00000000000E+00  0.00000000000E+00  0.50000000000E+03  0.50000000000E+03  0.00000000000E+00 0.  1.
         11   -1    0    0    0    0 -0.00000000000E+00 -0.00000000000E+00 -0.50000000000E+03  0.50000000000E+03  0.00000000000E+00 0.  1.
        -11    1    1    2    0    0 -0.10351624956E+02 -0.67903116166E+01  0.42945426607E+03  0.42963266998E+03  0.00000000000E+00 0.  1.
         11    1    1    2    0    0  0.11776224233E+02 -0.36019377383E+02 -0.48808841221E+03  0.48955732365E+03  0.00000000000E+00 0.  1.
        -15    1    1    2    0    0 -0.12480699704E+01  0.18578933035E+02  0.52526339241E+02  0.55757586698E+02  0.17770000000E+01 0.  1.
         15    1    1    2    0    0 -0.17652930698E+00  0.24230755964E+02  0.61078069035E+01  0.25052419671E+02  0.17770000000E+01 0. -1.
</event>
<event>
 6    1  0.1823098E-004  0.5070273E+03  0.7546771E-02  0.9384222E-01
        -11   -1    0    0    0    0  0.00000000000E+00  0.00000000000E+00  0.50000000000E+03  0.50000000000E+03  0.00000000000E+00 0. -1.
         11   -1    0    0    0    0 -0.00000000000E+00 -0.00000000000E+00 -0.50000000000E+03  0.50000000000E+03  0.00000000000E+00 0.  1.
        -11    1    1    2    0    0 -0.14593126627E+02 -0.46122538979E+01  0.49273511777E+03  0.49297274622E+03  0.00000000000E+00 0. -1.
         11    1    1    2    0    0 -0.28301862502E+02 -0.43089840523E+01 -0.42310560193E+03  0.42407300451E+03  0.00000000000E+00 0.  1.
        -15    1    1    2    0    0  0.16073835854E+02  0.82725890130E+01 -0.26421501896E+02  0.32063334503E+02  0.17770000000E+01 0.  1.
         15    1    1    2    0    0  0.26821153275E+02  0.64864893721E+00 -0.43208013942E+02  0.50890914771E+02  0.17770000000E+01 0. -1.
</event>
<event>
 6    1  0.1823098E-004  0.5007943E+03  0.7546771E-02  0.9398034E-01
        -11   -1    0    0    0    0  0.00000000000E+00  0.00000000000E+00  0.50000000000E+03  0.50000000000E+03  0.00000000000E+00 0. -1.
         11   -1    0    0    0    0 -0.00000000000E+00 -0.00000000000E+00 -0.50000000000E+03  0.50000000000E+03  0.00000000000E+00 0. -1.
        -11    1    1    2    0    0 -0.67508147173E+01  0.19048786793E+02  0.49879647459E+03  0.49920572197E+03  0.00000000000E+00 0. -1.
         11    1    1    2    0    0  0.18918413459E+01 -0.30700902557E+02 -0.35055845400E+03  0.35190531987E+03  0.00000000000E+00 0. -1.
        -15    1    1    2    0    0  0.65675715897E+00  0.58547459166E+01 -0.50641590128E+02  0.51014093733E+02  0.17770000000E+01 0.  1.
         15    1    1    2    0    0  0.42022162124E+01  0.57973698476E+01 -0.97596430467E+02  0.97874864430E+02  0.17770000000E+01 0. -1.
</event>
<event>
 6    1  0.4042326E-004  0.5001045E+03  0.7546771E-02  0.9399576E-01
        -11   -1    0    0    0    0  0.00000000000E+00  0.00000000000E+00  0.50000000000E+03  0.50000000000E+03  0.00000000000E+00 0. -1.
         11   -1    0    0    0    0 -0.00000000000E+00 -0.00000000000E+00 -0.50000000000E+03  0.50000000000E+03  0.00000000000E+00 0.  1.
        -11    1    1    2    0    0  0.28000371427E+01 -0.10844460655E+02  0.21712665169E+03  0.21741532929E+03  0.00000000000E+00 0. -1.
         11    1    1    2    0    0 -0.19849866562E+01  0.11656820257E+02 -0.49975559400E+03  0.49989546444E+03  0.00000000000E+00 0.  1.
        -15    1    1    2    0    0  0.17392482171E+01 -0.53019819878E+00  0.16133198074E+03  0.16135201218E+03  0.17770000000E+01 0. -1.
         15    1    1    2    0    0 -0.25542987036E+01 -0.28216140302E+00  0.12129696156E+03  0.12133719409E+03  0.17770000000E+01 0.  1.
</event>
<event>
 6    1  0.1823098E-004  0.5036876E+03  0.7546771E-02  0.9391596E-01
        -11   -1    0    0    0    0  0.00000000000E+00  0.00000000000E+00  0.50000000000E+03  0.50000000000E+03  0.00000000000E+00 0.  1.
         11   -1    0    0    0    0 -0.00000000000E+00 -0.00000000000E+00 -0.50000000000E+03  0.50000000000E+03  0.00000000000E+00 0.  1.
        -11    1    1    2    0    0 -0.14087622679E+01  0.62694903263E+01  0.47074743512E+03  0.47079129006E+03  0.00000000000E+00 0.  1.
         11    1    1    2    0    0 -0.11928432518E+02 -0.13627037283E+02 -0.49598189710E+03  0.49631242771E+03  0.00000000000E+00 0.  1.
        -15    1    1    2    0    0  0.82378388764E+00  0.47984296645E+01  0.16566776317E+02  0.17358552753E+02  0.17770000000E+01 0.  1.
         15    1    1    2    0    0  0.12513410898E+02  0.25591172924E+01  0.86676856639E+01  0.15537729480E+02  0.17770000000E+01 0. -1.
</event>
<event>
 6    1  0.1823098E-004  0.5011013E+03  0.7546771E-02  0.9397349E-01
        -11   -1    0    0    0    0  0.00000000000E+00  0.00000000000E+00  0.50000000000E+03  0.50000000000E+03  0.00000000000E+00 0.  1.
         11   -1    0    0    0    0 -0.00000000000E+00 -0.00000000000E+00 -0.50000000000E+03  0.50000000000E+03  0.00000000000E+00 0. -1.
        -11    1    1    2    0    0 -0.74587673612E+01 -0.19741813019E+02  0.49845209545E+03  0.49889865088E+03  0.00000000000E+00 0.  1.
         11    1    1    2    0    0  0.34566785046E+00 -0.11506999477E+02 -0.57794392438E+02  0.58929808421E+02  0.00000000000E+00 0. -1.
        -15    1    1    2    0    0 -0.26110206440E+00  0.17610185396E+02 -0.14085600342E+03  0.14196393286E+03  0.17770000000E+01 0.  1.
         15    1    1    2    0    0  0.73742015752E+01  0.13638627100E+02 -0.29980169959E+03  0.30020760784E+03  0.17770000000E+01 0. -1.
</event>
<event>
 6    1  0.1823098E-004  0.4886015E+03  0.7546771E-02  0.9425682E-01
        -11   -1    0    0    0    0  0.00000000000E+00  0.00000000000E+00  0.50000000000E+03  0.50000000000E+03  0.00000000000E+00 0. -1.
         11   -1    0    0    0    0 -0.00000000000E+00 -0.00000000000E+00 -0.50000000000E+03  0.50000000000E+03  0.00000000000E+00 0. -1.
        -11    1    1    2    0    0 -0.40326487762E+01  0.60397376163E+01  0.48641247965E+03  0.48646669058E+03  0.00000000000E+00 0. -1.
         11    1    1    2    0    0 -0.13277630092E+02 -0.17609360643E+02 -0.49047096840E+03  0.49096655272E+03  0.00000000000E+00 0. -1.
        -15    1    1    2    0    0  0.54437723042E+00  0.17831671779E+01  0.12777099006E+01  0.28751179704E+01  0.17770000000E+01 0. -1.
         15    1    1    2    0    0  0.16765901638E+02  0.97864558486E+01  0.27807788485E+01  0.19691638728E+02  0.17770000000E+01 0.  1.
</event>
<event>
 6    1  0.1823098E-004  0.4866515E+03  0.7546771E-02  0.9430184E-01
        -11   -1    0    0    0    0  0.00000000000E+00  0.00000000000E+00  0.50000000000E+03  0.50000000000E+03  0.00000000000E+00 0. -1.
         11   -1    0    0    0    0 -0.00000000000E+00 -0.00000000000E+00 -0.50000000000E+03  0.50000000000E+03  0.00000000000E+00 0.  1.
        -11    1    1    2    0    0  0.77459260029E+01 -0.29375320692E+01  0.48970137273E+03  0.48977143947E+03  0.00000000000E+00 0. -1.
         11    1    1    2    0    0  0.23660093539E+01  0.20351336809E+02 -0.48332660730E+03  0.48376066834E+03  0.00000000000E+00 0.  1.
        -15    1    1    2    0    0  0.87750904612E+00 -0.22072529234E+01  0.39806610501E+01  0.49644112430E+01  0.17770000000E+01 0. -1.
         15    1    1    2    0    0 -0.10989444403E+02 -0.15206551816E+02 -0.10355426477E+02  0.21503480949E+02  0.17770000000E+01 0. -1.
</event>
<event>
 6    1  0.1823098E-004  0.5010780E+03  0.7546771E-02  0.9397401E-01
        -11   -1    0    0    0    0  0.00000000000E+00  0.00000000000E+00  0.50000000000E+03  0.50000000000E+03  0.00000000000E+00 0. -1.
         11   -1    0    0    0    0 -0.00000000000E+00 -0.00000000000E+00 -0.50000000000E+03  0.50000000000E+03  0.00000000000E+00 0.  1.
        -11    1    1    2    0    0 -0.63453015438E+01 -0.59184803827E+01  0.49884650237E+03  0.49892196203E+03  0.00000000000E+00 0. -1.
         11    1    1    2    0    0  0.15863356096E+02 -0.46607233788E+01 -0.43093260769E+03  0.43124967337E+03  0.00000000000E+00 0.  1.
        -15    1    1    2    0    0 -0.10144612381E+02  0.97250100517E+01 -0.58655718573E+02  0.60341859693E+02  0.17770000000E+01 0.  1.
         15    1    1    2    0    0  0.62655782839E+00  0.85419370978E+00 -0.92581761060E+01  0.94865049104E+01  0.17770000000E+01 0. -1.
</event>
<event>
 6    1  0.1823098E-004  0.5026106E+03  0.7546771E-02  0.9393987E-01
        -11   -1    0    0    0    0  0.00000000000E+00  0.00000000000E+00  0.50000000000E+03  0.50000000000E+03  0.00000000000E+00 0. -1.
         11   -1    0    0    0    0 -0.00000000000E+00 -0.00000000000E+00 -0.50000000000E+03  0.50000000000E+03  0.00000000000E+00 0. -1.
        -11    1    1    2    0    0  0.70223897644E+01 -0.86804847830E+01  0.49726405311E+03  0.49738938799E+03  0.00000000000E+00 0. -1.
         11    1    1    2    0    0  0.98647189278E+01  0.53771668717E+01 -0.45847959923E+03  0.45861723639E+03  0.00000000000E+00 0. -1.
        -15    1    1    2    0    0 -0.12162064902E+02  0.69605296948E+01 -0.30621760951E+02  0.33722615098E+02  0.17770000000E+01 0. -1.
         15    1    1    2    0    0 -0.47250437905E+01 -0.36572117836E+01 -0.81626929273E+01  0.10270760521E+02  0.17770000000E+01 0. -1.
</event>
<event>
 6    1  0.1823098E-004  0.5001062E+03  0.7546771E-02  0.9399572E-01
        -11   -1    0    0    0    0  0.00000000000E+00  0.00000000000E+00  0.50000000000E+03  0.50000000000E+03  0.00000000000E+00 0. -1.
         11   -1    0    0    0    0 -0.00000000000E+00 -0.00000000000E+00 -0.50000000000E+03  0.50000000000E+03  0.00000000000E+00 0. -1.
        -11    1    1    2    0    0 -0.72782655638E+01 -0.21754250409E+01  0.33194223396E+03  0.33202914377E+03  0.00000000000E+00 0. -1.
         11    1    1    2    0    0  0.13020962259E+02  0.25606037364E+01 -0.49971767826E+03  0.49989384885E+03  0.00000000000E+00 0. -1.
        -15    1    1    2    0    0 -0.51194875849E+01  0.23413112301E+01  0.13626619859E+03  0.13639400829E+03  0.17770000000E+01 0. -1.
         15    1    1    2    0    0 -0.62320911038E+00 -0.27264899256E+01  0.31509245714E+02  0.31682999091E+02  0.17770000000E+01 0.  1.
</event>
<event>
 6    1  0.1823098E-004  0.5028300E+03  0.7546771E-02  0.9393500E-01
        -11   -1    0    0    0    0  0.00000000000E+00  0.00000000000E+00  0.50000000000E+03  0.50000000000E+03  0.00000000000E+00 0.  1.
         11   -1    0    0    0    0 -0.00000000000E+00 -0.00000000000E+00 -0.50000000000E+03  0.50000000000E+03  0.00000000000E+00 0. -1.
        -11    1    1    2    0    0 -0.12681444447E+02 -0.27261082395E+01  0.39084954762E+03  0.39106472556E+03  0.00000000000E+00 0.  1.
         11    1    1    2    0    0  0.21503293671E+02  0.36080144247E+02 -0.49539261561E+03  0.49717000317E+03  0.00000000000E+00 0. -1.
        -15    1    1    2    0    0 -0.65745056378E+01 -0.19567423130E+02  0.86119788190E+02  0.88576993736E+02  0.17770000000E+01 0. -1.
         15    1    1    2    0    0 -0.22473435863E+01 -0.13786612878E+02  0.18423279796E+02  0.23188277540E+02  0.17770000000E+01 0.  1.
</event>
<event>
 6    1  0.1823098E-004  0.5201734E+03  0.7546771E-02  0.9355768E-01
        -11   -1    0    0    0    0  0.00000000000E+00  0.00000000000E+00  0.50000000000E+03  0.50000000000E+03  0.00000000000E+00 0.  1.
         11   -1    0    0    0    0 -0.00000000000E+00 -0.00000000000E+00 -0.50000000000E+03  0.50000000000E+03  0.00000000000E+00 0. -1.
        -11    1    1    2    0    0 -0.23017123495E+02 -0.78239500676E+01  0.43551550981E+03  0.43619349084E+03  0.00000000000E+00 0.  1.
         11    1    1    2    0    0 -0.24806289470E+02  0.26258517134E+02 -0.47846493284E+03  0.47982658709E+03  0.00000000000E+00 0. -1.
        -15    1    1    2    0    0  0.15757422857E+02  0.12045243294E+02  0.33088738587E+02  0.38618733943E+02  0.17770000000E+01 0.  1.
         15    1    1    2    0    0  0.32065990108E+02 -0.30479810361E+02  0.98606844469E+01  0.45361188124E+02  0.17770000000E+01 0. -1.
</event>
<event>
 6    1  0.1823098E-004  0.5017555E+03  0.7546771E-02  0.9395890E-01
        -11   -1    0    0    0    0  0.00000000000E+00  0.00000000000E+00  0.50000000000E+03  0.50000000000E+03  0.00000000000E+00 0. -1.
         11   -1    0    0    0    0 -0.00000000000E+00 -0.00000000000E+00 -0.50000000000E+03  0.50000000000E+03  0.00000000000E+00 0. -1.
        -11    1    1    2    0    0  0.83957453936E+01 -0.25703680755E+01  0.49816713915E+03  0.49824451212E+03  0.00000000000E+00 0. -1.
         11    1    1    2    0    0  0.35307056060E+00  0.14988326372E+02 -0.45245752538E+03  0.45270585026E+03  0.00000000000E+00 0. -1.
        -15    1    1    2    0    0 -0.89592305626E+01 -0.94189989130E+01 -0.27025792557E+02  0.30042246006E+02  0.17770000000E+01 0.  1.
         15    1    1    2    0    0  0.21041460836E+00 -0.29989593836E+01 -0.18683821214E+02  0.19007391611E+02  0.17770000000E+01 0. -1.
</event>
<event>
 6    1  0.1823098E-004  0.5007822E+03  0.7546771E-02  0.9398061E-01
        -11   -1    0    0    0    0  0.00000000000E+00  0.00000000000E+00  0.50000000000E+03  0.50000000000E+03  0.00000000000E+00 0. -1.
         11   -1    0    0    0    0 -0.00000000000E+00 -0.00000000000E+00 -0.50000000000E+03  0.50000000000E+03  0.00000000000E+00 0.  1.
        -11    1    1    2    0    0 -0.53526441265E+01 -0.71859922031E+01  0.49913742177E+03  0.49921784333E+03  0.00000000000E+00 0. -1.
         11    1    1    2    0    0  0.17635556265E+01  0.70864156262E+01 -0.41717297213E+03  0.41723688247E+03  0.00000000000E+00 0.  1.
        -15    1    1    2    0    0  0.57840015261E+01  0.37252674896E+01 -0.17091094442E+02  0.18509336286E+02  0.17770000000E+01 0. -1.
         15    1    1    2    0    0 -0.21949130262E+01 -0.36256909126E+01 -0.64873355198E+02  0.65035937922E+02  0.17770000000E+01 0.  1.
</event>
<event>
 6    1  0.1823098E-004  0.5014454E+03  0.7546771E-02  0.9396581E-01
        -11   -1    0    0    0    0  0.00000000000E+00  0.00000000000E+00  0.50000000000E+03  0.50000000000E+03  0.00000000000E+00 0.  1.
         11   -1    0    0    0    0 -0.00000000000E+00 -0.00000000000E+00 -0.50000000000E+03  0.50000000000E+03  0.00000000000E+00 0.  1.
        -11    1    1    2    0    0 -0.49990223069E+01 -0.80113217150E+01  0.38127374407E+03  0.38139066509E+03  0.00000000000E+00 0.  1.
         11    1    1    2    0    0 -0.71908640096E+01 -0.12278004113E+02 -0.49835153008E+03  0.49855461631E+03  0.00000000000E+00 0.  1.
        -15    1    1    2    0    0  0.50725719508E+01  0.16507264348E+02  0.92870255526E+02  0.94478901628E+02  0.17770000000E+01 0.  1.
         15    1    1    2    0    0  0.71173143656E+01  0.37820614804E+01  0.24207530482E+02  0.25575816973E+02  0.17770000000E+01 0. -1.
</event>
<event>
 6    1  0.1823098E-004  0.5001891E+03  0.7546771E-02  0.9399387E-01
        -11   -1    0    0    0    0  0.00000000000E+00  0.00000000000E+00  0.50000000000E+03  0.50000000000E+03  0.00000000000E+00 0. -1.
         11   -1    0    0    0    0 -0.00000000000E+00 -0.00000000000E+00 -0.50000000000E+03  0.50000000000E+03  0.00000000000E+00 0. -1.
        -11    1    1    2    0    0 -0.50921196739E+00  0.98679381189E+01  0.49971322776E+03  0.49981090974E+03  0.00000000000E+00 0. -1.
         11    1    1    2    0    0 -0.47067405814E+01 -0.32196108675E+01 -0.39483445265E+03  0.39487563144E+03  0.00000000000E+00 0. -1.
        -15    1    1    2    0    0  0.11418549117E+01 -0.21482295245E+01 -0.24131840415E+02  0.24319172962E+02  0.17770000000E+01 0.  1.
         15    1    1    2    0    0  0.40740976371E+01 -0.45000977270E+01 -0.80746934689E+02  0.80994285859E+02  0.17770000000E+01 0. -1.
</event>
<event>
 6    1  0.1823098E-004  0.5026384E+03  0.7546771E-02  0.9393925E-01
        -11   -1    0    0    0    0  0.00000000000E+00  0.00000000000E+00  0.50000000000E+03  0.50000000000E+03  0.00000000000E+00 0. -1.
         11   -1    0    0    0    0 -0.00000000000E+00 -0.00000000000E+00 -0.50000000000E+03  0.50000000000E+03  0.00000000000E+00 0.  1.
        -11    1    1    2    0    0 -0.12057116407E+01 -0.10441037786E+02  0.40451365362E+03  0.40465017605E+03  0.00000000000E+00 0. -1.
         11    1    1    2    0    0  0.21526017321E+02  0.14100835002E+02 -0.49669546437E+03  0.49736162628E+03  0.00000000000E+00 0.  1.
        -15    1    1    2    0    0 -0.17034263968E+02 -0.13534927632E+02  0.51018162865E+02  0.55492081291E+02  0.17770000000E+01 0.  1.
         15    1    1    2    0    0 -0.32860417122E+01  0.98751304161E+01  0.41163647889E+02  0.42496116380E+02  0.17770000000E+01 0. -1.
</event>
<event>
 6    1  0.1823098E-004  0.5081158E+03  0.7546771E-02  0.9381831E-01
        -11   -1    0    0    0    0  0.00000000000E+00  0.00000000000E+00  0.50000000000E+03  0.50000000000E+03  0.00000000000E+00 0.  1.
         11   -1    0    0    0    0 -0.00000000000E+00 -0.00000000000E+00 -0.50000000000E+03  0.50000000000E+03  0.00000000000E+00 0.  1.
        -11    1    1    2    0    0  0.31003555858E+01  0.11399328808E+02  0.49174230016E+03  0.49188418014E+03  0.00000000000E+00 0.  1.
         11    1    1    2    0    0 -0.77543266905E+01 -0.10625641834E+02 -0.48379840415E+03  0.48397719957E+03  0.00000000000E+00 0.  1.
        -15    1    1    2    0    0 -0.11138087799E+01 -0.91337027649E+01  0.22517008551E+01  0.96381005358E+01  0.17770000000E+01 0.  1.
         15    1    1    2    0    0  0.57677798846E+01  0.83600157911E+01 -0.10195596865E+02  0.14500519758E+02  0.17770000000E+01 0. -1.
</event>
<event>
 6    1  0.1823098E-004  0.5008203E+03  0.7546771E-02  0.9397976E-01
        -11   -1    0    0    0    0  0.00000000000E+00  0.00000000000E+00  0.50000000000E+03  0.50000000000E+03  0.00000000000E+00 0.  1.
         11   -1    0    0    0    0 -0.00000000000E+00 -0.00000000000E+00 -0.50000000000E+03  0.50000000000E+03  0.00000000000E+00 0.  1.
        -11    1    1    2    0    0  0.79137463512E+01 -0.47937762234E+01  0.46373581019E+03  0.46382810320E+03  0.00000000000E+00 0.  1.
         11    1    1    2    0    0 -0.65168703212E+01  0.46538032913E+01 -0.49911541553E+03  0.49917965254E+03  0.00000000000E+00 0.  1.
        -15    1    1    2    0    0 -0.34429305741E+01 -0.10981730259E+01  0.47901730630E+01  0.62580541630E+01  0.17770000000E+01 0.  1.
         15    1    1    2    0    0  0.20460545441E+01  0.12381459581E+01  0.30589432282E+02  0.30734190097E+02  0.17770000000E+01 0.  1.
</event>
<event>
 6    1  0.1823098E-004  0.5006572E+03  0.7546771E-02  0.9398340E-01
        -11   -1    0    0    0    0  0.00000000000E+00  0.00000000000E+00  0.50000000000E+03  0.50000000000E+03  0.00000000000E+00 0.  1.
         11   -1    0    0    0    0 -0.00000000000E+00 -0.00000000000E+00 -0.50000000000E+03  0.50000000000E+03  0.00000000000E+00 0.  1.
        -11    1    1    2    0    0  0.17738800729E+01  0.27892324995E+02  0.49855999259E+03  0.49934276269E+03  0.00000000000E+00 0.  1.
         11    1    1    2    0    0 -0.75628769295E+01 -0.32004401850E+02 -0.27721272634E+03  0.27915654119E+03  0.00000000000E+00 0.  1.
        -15    1    1    2    0    0  0.37734955537E+01  0.33016641579E+01 -0.16163043189E+03  0.16171794735E+03  0.17770000000E+01 0. -1.
         15    1    1    2    0    0  0.20155013029E+01  0.81041269774E+00 -0.59716834361E+02  0.59782748761E+02  0.17770000000E+01 0. -1.
</event>
<event>
 6    1  0.1823098E-004  0.4859725E+03  0.7546771E-02  0.9431756E-01
        -11   -1    0    0    0    0  0.00000000000E+00  0.00000000000E+00  0.50000000000E+03  0.50000000000E+03  0.00000000000E+00 0. -1.
         11   -1    0    0    0    0 -0.00000000000E+00 -0.00000000000E+00 -0.50000000000E+03  0.50000000000E+03  0.00000000000E+00 0.  1.
        -11    1    1    2    0    0  0.88423552423E+01 -0.15604166957E+01  0.48991614280E+03  0.48999841747E+03  0.00000000000E+00 0. -1.
         11    1    1    2    0    0  0.10115269538E+02  0.11859590540E+02 -0.48196658452E+03  0.48221857820E+03  0.00000000000E+00 0.  1.
        -15    1    1    2    0    0 -0.21251944728E+01 -0.51057956425E+01  0.34209909067E+01  0.67414025599E+01  0.17770000000E+01 0. -1.
         15    1    1    2    0    0 -0.16832430307E+02 -0.51933782016E+01 -0.11370549183E+02  0.21041601767E+02  0.17770000000E+01 0.  1.
</event>
<event>
 6    1  0.1823098E-004  0.5009196E+03  0.7546771E-02  0.9397754E-01
        -11   -1    0    0    0    0  0.00000000000E+00  0.00000000000E+00  0.50000000000E+03  0.50000000000E+03  0.00000000000E+00 0.  1.
         11   -1    0    0    0    0 -0.00000000000E+00 -0.00000000000E+00 -0.50000000000E+03  0.50000000000E+03  0.00000000000E+00 0. -1.
        -11    1    1    2    0    0 -0.24953260053E+02 -0.20603019246E+02  0.49803021970E+03  0.49908040367E+03  0.00000000000E+00 0.  1.
         11    1    1    2    0    0  0.33368831292E+02  0.20861753807E+02 -0.34661304963E+03  0.34883993155E+03  0.00000000000E+00 0. -1.
        -15    1    1    2    0    0 -0.90784476560E+01  0.56907209983E+00 -0.67095567506E+02  0.67732672787E+02  0.17770000000E+01 0.  1.
         15    1    1    2    0    0  0.66287641652E+00 -0.82780666090E+00 -0.84321602569E+02  0.84346991990E+02  0.17770000000E+01 0. -1.
</event>
<event>
 6    1  0.1823098E-004  0.5140074E+03  0.7546771E-02  0.9369001E-01
        -11   -1    0    0    0    0  0.00000000000E+00  0.00000000000E+00  0.50000000000E+03  0.50000000000E+03  0.00000000000E+00 0.  1.
         11   -1    0    0    0    0 -0.00000000000E+00 -0.00000000000E+00 -0.50000000000E+03  0.50000000000E+03  0.00000000000E+00 0.  1.
        -11    1    1    2    0    0  0.12748118123E+02 -0.63453831312E+01  0.48578390484E+03  0.48599257259E+03  0.00000000000E+00 0.  1.
         11    1    1    2    0    0 -0.51098282101E+02  0.36240477081E+01 -0.36336058549E+02  0.62805073890E+02  0.00000000000E+00 0.  1.
        -15    1    1    2    0    0  0.31726475025E+01  0.17722491920E+00 -0.22098740996E+02  0.22396633306E+02  0.17770000000E+01 0.  1.
         15    1    1    2    0    0  0.35177516476E+02  0.25441105039E+01 -0.42734910530E+03  0.42880572022E+03  0.17770000000E+01 0.  1.
</event>
<event>
 6    1  0.1823098E-004  0.5002755E+03  0.7546771E-02  0.9399193E-01
        -11   -1    0    0    0    0  0.00000000000E+00  0.00000000000E+00  0.50000000000E+03  0.50000000000E+03  0.00000000000E+00 0. -1.
         11   -1    0    0    0    0 -0.00000000000E+00 -0.00000000000E+00 -0.50000000000E+03  0.50000000000E+03  0.00000000000E+00 0.  1.
        -11    1    1    2    0    0  0.52533301257E+01 -0.44551899294E+01  0.10186918679E+03  0.10210179926E+03  0.00000000000E+00 0. -1.
         11    1    1    2    0    0  0.31335748166E+01 -0.11916753462E+02 -0.49957255947E+03  0.49972449458E+03  0.00000000000E+00 0.  1.
        -15    1    1    2    0    0 -0.65256599283E+01  0.83145340694E+01  0.19561737377E+03  0.19591077143E+03  0.17770000000E+01 0. -1.
         15    1    1    2    0    0 -0.18612450140E+01  0.80574093221E+01  0.20208599891E+03  0.20226293472E+03  0.17770000000E+01 0. -1.
</event>
<event>
 6    1  0.1823098E-004  0.4840204E+03  0.7546771E-02  0.9436293E-01
        -11   -1    0    0    0    0  0.00000000000E+00  0.00000000000E+00  0.50000000000E+03  0.50000000000E+03  0.00000000000E+00 0.  1.
         11   -1    0    0    0    0 -0.00000000000E+00 -0.00000000000E+00 -0.50000000000E+03  0.50000000000E+03  0.00000000000E+00 0. -1.
        -11    1    1    2    0    0  0.16953333140E+01 -0.96370096890E+01  0.49043222416E+03  0.49052982845E+03  0.00000000000E+00 0.  1.
         11    1    1    2    0    0 -0.23345282888E+02  0.17817881763E+02 -0.47697788102E+03  0.47788113389E+03  0.00000000000E+00 0. -1.
        -15    1    1    2    0    0  0.22228625543E+02 -0.93232568574E+01 -0.15400061662E+02  0.28659283665E+02  0.17770000000E+01 0.  1.
         15    1    1    2    0    0 -0.57867596952E+00  0.11423847834E+01  0.19457185254E+01  0.29297539916E+01  0.17770000000E+01 0. -1.
</event>
<event>
 6    1  0.1823098E-004  0.5005835E+03  0.7546771E-02  0.9398505E-01
        -11   -1    0    0    0    0  0.00000000000E+00  0.00000000000E+00  0.50000000000E+03  0.50000000000E+03  0.00000000000E+00 0.  1.
         11   -1    0    0    0    0 -0.00000000000E+00 -0.00000000000E+00 -0.50000000000E+03  0.50000000000E+03  0.00000000000E+00 0.  1.
        -11    1    1    2    0    0 -0.73952661108E+01 -0.14224918062E+02  0.49915909416E+03  0.49941649906E+03  0.00000000000E+00 0.  1.
         11    1    1    2    0    0 -0.42616490997E+01  0.74582470463E+01 -0.30293451863E+03  0.30305628137E+03  0.00000000000E+00 0.  1.
        -15    1    1    2    0    0 -0.17528946412E+01  0.84988416850E+01 -0.88726474271E+02  0.89167527246E+02  0.17770000000E+01 0.  1.
         15    1    1    2    0    0  0.13409809852E+02 -0.17321706692E+01 -0.10749810126E+03  0.10835969232E+03  0.17770000000E+01 0. -1.
</event>
<event>
 6    1  0.1823098E-004  0.4806241E+03  0.7546771E-02  0.9444240E-01
        -11   -1    0    0    0    0  0.00000000000E+00  0.00000000000E+00  0.50000000000E+03  0.50000000000E+03  0.00000000000E+00 0. -1.
         11   -1    0    0    0    0 -0.00000000000E+00 -0.00000000000E+00 -0.50000000000E+03  0.50000000000E+03  0.00000000000E+00 0.  1.
        -11    1    1    2    0    0  0.49384707763E+01  0.79065361705E+01  0.48600027488E+03  0.48608967176E+03  0.00000000000E+00 0. -1.
         11    1    1    2    0    0  0.16341513360E+02  0.19072495650E+02 -0.47517012437E+03  0.47583342910E+03  0.00000000000E+00 0.  1.
        -15    1    1    2    0    0 -0.42507271329E+01 -0.12811865355E+02 -0.76798584313E+01  0.15631715503E+02  0.17770000000E+01 0. -1.
         15    1    1    2    0    0 -0.17029257003E+02 -0.14167166466E+02 -0.31502920739E+01  0.22445183646E+02  0.17770000000E+01 0.  1.
</event>
<event>
 6    1  0.1823098E-004  0.5024223E+03  0.7546771E-02  0.9394406E-01
        -11   -1    0    0    0    0  0.00000000000E+00  0.00000000000E+00  0.50000000000E+03  0.50000000000E+03  0.00000000000E+00 0. -1.
         11   -1    0    0    0    0 -0.00000000000E+00 -0.00000000000E+00 -0.50000000000E+03  0.50000000000E+03  0.00000000000E+00 0. -1.
        -11    1    1    2    0    0 -0.69960432538E+01 -0.31536487160E+01  0.49751852359E+03  0.49757770392E+03  0.00000000000E+00 0. -1.
         11    1    1    2    0    0  0.10437678986E+02  0.83686523053E+01 -0.48325001039E+03  0.48343515803E+03  0.00000000000E+00 0. -1.
        -15    1    1    2    0    0 -0.53987222210E+01 -0.43323946993E+01 -0.14525513723E+02  0.16188394713E+02  0.17770000000E+01 0. -1.
         15    1    1    2    0    0  0.19570864885E+01 -0.88260888996E+00  0.25700051923E+00  0.27987433328E+01  0.17770000000E+01 0.  1.
</event>
<event>
 6    1  0.1823098E-004  0.5000964E+03  0.7546771E-02  0.9399594E-01
        -11   -1    0    0    0    0  0.00000000000E+00  0.00000000000E+00  0.50000000000E+03  0.50000000000E+03  0.00000000000E+00 0. -1.
         11   -1    0    0    0    0 -0.00000000000E+00 -0.00000000000E+00 -0.50000000000E+03  0.50000000000E+03  0.00000000000E+00 0.  1.
        -11    1    1    2    0    0 -0.12029112327E+02 -0.78280968743E+01  0.15590222929E+03  0.15656143759E+03  0.00000000000E+00 0. -1.
         11    1    1    2    0    0  0.21738472780E+02  0.21065826172E+02 -0.49898623475E+03  0.49990358341E+03  0.00000000000E+00 0.  1.
        -15    1    1    2    0    0 -0.40149738277E+01 -0.80567794746E+01  0.14224757110E+03  0.14254318967E+03  0.17770000000E+01 0. -1.
         15    1    1    2    0    0 -0.56943866253E+01 -0.51809498226E+01  0.20083643437E+03  0.20099178933E+03  0.17770000000E+01 0. -1.
</event>
<event>
 6    1  0.1823098E-004  0.5091033E+03  0.7546771E-02  0.9379668E-01
        -11   -1    0    0    0    0  0.00000000000E+00  0.00000000000E+00  0.50000000000E+03  0.50000000000E+03  0.00000000000E+00 0.  1.
         11   -1    0    0    0    0 -0.00000000000E+00 -0.00000000000E+00 -0.50000000000E+03  0.50000000000E+03  0.00000000000E+00 0.  1.
        -11    1    1    2    0    0 -0.80527255696E+01 -0.10362277757E+02  0.49072129581E+03  0.49089674408E+03  0.00000000000E+00 0.  1.
         11    1    1    2    0    0  0.12656059086E+02 -0.31721152027E+02 -0.43738809815E+03  0.43871944990E+03  0.00000000000E+00 0.  1.
        -15    1    1    2    0    0 -0.49673296375E+01  0.24879169041E+01 -0.10595000555E+02  0.12094455755E+02  0.17770000000E+01 0. -1.
         15    1    1    2    0    0  0.36399612059E+00  0.39595512879E+02 -0.42738197107E+02  0.58289350265E+02  0.17770000000E+01 0.  1.
</event>
<event>
 6    1  0.1823098E-004  0.5018140E+03  0.7546771E-02  0.9395760E-01
        -11   -1    0    0    0    0  0.00000000000E+00  0.00000000000E+00  0.50000000000E+03  0.50000000000E+03  0.00000000000E+00 0.  1.
         11   -1    0    0    0    0 -0.00000000000E+00 -0.00000000000E+00 -0.50000000000E+03  0.50000000000E+03  0.00000000000E+00 0. -1.
        -11    1    1    2    0    0 -0.14674130608E+01 -0.98337708107E+01  0.45721504490E+03  0.45732313918E+03  0.00000000000E+00 0.  1.
         11    1    1    2    0    0 -0.10551609667E+02 -0.10934933106E+01 -0.49807301834E+03  0.49818597310E+03  0.00000000000E+00 0. -1.
        -15    1    1    2    0    0  0.83902359214E+01  0.95140992439E+01  0.25341109730E+02  0.28394431049E+02  0.17770000000E+01 0.  1.
         15    1    1    2    0    0  0.36287868066E+01  0.14131648773E+01  0.15516863716E+02  0.16096456667E+02  0.17770000000E+01 0. -1.
</event>
<event>
 6    1  0.1823098E-004  0.5117961E+03  0.7546771E-02  0.9373795E-01
        -11   -1    0    0    0    0  0.00000000000E+00  0.00000000000E+00  0.50000000000E+03  0.50000000000E+03  0.00000000000E+00 0. -1.
         11   -1    0    0    0    0 -0.00000000000E+00 -0.00000000000E+00 -0.50000000000E+03  0.50000000000E+03  0.00000000000E+00 0. -1.
        -11    1    1    2    0    0 -0.68393465928E+01  0.90882684170E+01  0.48807141084E+03  0.48820392805E+03  0.00000000000E+00 0. -1.
         11    1    1    2    0    0 -0.34824454353E+02 -0.14975712401E+01 -0.45403826763E+03  0.45537427882E+03  0.00000000000E+00 0. -1.
        -15    1    1    2    0    0  0.53095963522E+01 -0.19784110527E-01 -0.11910110426E+02  0.13160572335E+02  0.17770000000E+01 0.  1.
         15    1    1    2    0    0  0.36354204593E+02 -0.75709130663E+01 -0.22123032787E+02  0.43261220798E+02  0.17770000000E+01 0. -1.
</event>
<event>
 6    1  0.1823098E-004  0.5014894E+03  0.7546771E-02  0.9396483E-01
        -11   -1    0    0    0    0  0.00000000000E+00  0.00000000000E+00  0.50000000000E+03  0.50000000000E+03  0.00000000000E+00 0. -1.
         11   -1    0    0    0    0 -0.00000000000E+00 -0.00000000000E+00 -0.50000000000E+03  0.50000000000E+03  0.00000000000E+00 0.  1.
        -11    1    1    2    0    0 -0.30396886522E+01  0.42951646863E+01  0.33512187493E+03  0.33516318295E+03  0.00000000000E+00 0. -1.
         11    1    1    2    0    0 -0.16083765330E+00  0.22983320806E+02 -0.49798050029E+03  0.49851061932E+03  0.00000000000E+00 0.  1.
        -15    1    1    2    0    0  0.27724955502E+01 -0.42408104347E+01  0.83464018023E+02  0.83636542481E+02  0.17770000000E+01 0. -1.
         15    1    1    2    0    0  0.42803075528E+00 -0.23037675058E+02  0.79394607339E+02  0.82689655253E+02  0.17770000000E+01 0.  1.
</event>
<event>
 6    1  0.1823098E-004  0.4535403E+03  0.7546771E-02  0.9510223E-01
        -11   -1    0    0    0    0  0.00000000000E+00  0.00000000000E+00  0.50000000000E+03  0.50000000000E+03  0.00000000000E+00 0. -1.
         11   -1    0    0    0    0 -0.00000000000E+00 -0.00000000000E+00 -0.50000000000E+03  0.50000000000E+03  0.00000000000E+00 0. -1.
        -11    1    1    2    0    0  0.78124421729E+01  0.41244088068E+01  0.10169539899E+03  0.10207839721E+03  0.00000000000E+00 0. -1.
         11    1    1    2    0    0 -0.31974660176E+02  0.38858778831E+03  0.14885906091E+03  0.41735101309E+03  0.00000000000E+00 0. -1.
        -15    1    1    2    0    0 -0.88093661291E+01 -0.92349463281E+02 -0.80728532368E+01  0.93136228119E+02  0.17770000000E+01 0.  1.
         15    1    1    2    0    0  0.32971584133E+02 -0.30036273383E+03 -0.24248160666E+03  0.38743436158E+03  0.17770000000E+01 0. -1.
</event>
<event>
 6    1  0.1823098E-004  0.5003964E+03  0.7546771E-02  0.9398923E-01
        -11   -1    0    0    0    0  0.00000000000E+00  0.00000000000E+00  0.50000000000E+03  0.50000000000E+03  0.00000000000E+00 0.  1.
         11   -1    0    0    0    0 -0.00000000000E+00 -0.00000000000E+00 -0.50000000000E+03  0.50000000000E+03  0.00000000000E+00 0.  1.
        -11    1    1    2    0    0 -0.92177604467E+01  0.16662163558E+00  0.49951855646E+03  0.49960362600E+03  0.00000000000E+00 0.  1.
         11    1    1    2    0    0 -0.33046571265E+01 -0.49120235401E+01 -0.36599085513E+03  0.36603873398E+03  0.00000000000E+00 0.  1.
        -15    1    1    2    0    0  0.92506645721E+01  0.26171892570E+01 -0.69208423671E+02  0.69895551437E+02  0.17770000000E+01 0.  1.
         15    1    1    2    0    0  0.32717530011E+01  0.21282126476E+01 -0.64319277656E+02  0.64462088579E+02  0.17770000000E+01 0. -1.
</event>
<event>
 6    1  0.1823098E-004  0.5002948E+03  0.7546771E-02  0.9399150E-01
        -11   -1    0    0    0    0  0.00000000000E+00  0.00000000000E+00  0.50000000000E+03  0.50000000000E+03  0.00000000000E+00 0. -1.
         11   -1    0    0    0    0 -0.00000000000E+00 -0.00000000000E+00 -0.50000000000E+03  0.50000000000E+03  0.00000000000E+00 0. -1.
        -11    1    1    2    0    0 -0.79649896133E+01  0.41724206591E+01  0.49962430919E+03  0.49970521359E+03  0.00000000000E+00 0. -1.
         11    1    1    2    0    0 -0.26320011416E+01 -0.24617536502E+01 -0.13148869186E+02  0.13633797047E+02  0.00000000000E+00 0. -1.
        -15    1    1    2    0    0 -0.16470097333E+00 -0.17288331228E+01 -0.10684495805E+03  0.10687384516E+03  0.17770000000E+01 0. -1.
         15    1    1    2    0    0  0.10761691728E+02  0.18166113892E-01 -0.37963048196E+03  0.37978714420E+03  0.17770000000E+01 0. -1.
</event>
<event>
 6    1  0.1823098E-004  0.4887355E+03  0.7546771E-02  0.9425374E-01
        -11   -1    0    0    0    0  0.00000000000E+00  0.00000000000E+00  0.50000000000E+03  0.50000000000E+03  0.00000000000E+00 0. -1.
         11   -1    0    0    0    0 -0.00000000000E+00 -0.00000000000E+00 -0.50000000000E+03  0.50000000000E+03  0.00000000000E+00 0.  1.
        -11    1    1    2    0    0  0.41193656557E+01 -0.62429802203E+01  0.49118578688E+03  0.49124273146E+03  0.00000000000E+00 0. -1.
         11    1    1    2    0    0  0.11128254062E+02  0.97090336488E+01 -0.48614198077E+03  0.48636624969E+03  0.00000000000E+00 0.  1.
        -15    1    1    2    0    0 -0.95496289000E+01  0.54065985587E+01 -0.23244528450E+01  0.11357267723E+02  0.17770000000E+01 0.  1.
         15    1    1    2    0    0 -0.56979908172E+01 -0.88726519873E+01 -0.27193532676E+01  0.11033751123E+02  0.17770000000E+01 0. -1.
</event>
<event>
 6    1  0.1823098E-004  0.5006188E+03  0.7546771E-02  0.9398426E-01
        -11   -1    0    0    0    0  0.00000000000E+00  0.00000000000E+00  0.50000000000E+03  0.50000000000E+03  0.00000000000E+00 0. -1.
         11   -1    0    0    0    0 -0.00000000000E+00 -0.00000000000E+00 -0.50000000000E+03  0.50000000000E+03  0.00000000000E+00 0.  1.
        -11    1    1    2    0    0 -0.56093137622E+01 -0.99772964862E+01  0.49924996359E+03  0.49938115402E+03  0.00000000000E+00 0. -1.
         11    1    1    2    0    0  0.64301703113E+01  0.20444959278E+02 -0.28432997658E+03  0.28513659715E+03  0.00000000000E+00 0.  1.
        -15    1    1    2    0    0 -0.39255847774E+01 -0.90630997920E+01 -0.10097091633E+03  0.10146838753E+03  0.17770000000E+01 0.  1.
         15    1    1    2    0    0  0.31047282284E+01 -0.14045630001E+01 -0.11394907067E+03  0.11401386131E+03  0.17770000000E+01 0. -1.
</event>
<event>
 6    1  0.1823098E-004  0.5009613E+03  0.7546771E-02  0.9397661E-01
        -11   -1    0    0    0    0  0.00000000000E+00  0.00000000000E+00  0.50000000000E+03  0.50000000000E+03  0.00000000000E+00 0. -1.
         11   -1    0    0    0    0 -0.00000000000E+00 -0.00000000000E+00 -0.50000000000E+03  0.50000000000E+03  0.00000000000E+00 0. -1.
        -11    1    1    2    0    0 -0.63999502590E+01  0.46650722370E+01  0.49897586347E+03  0.49903871051E+03  0.00000000000E+00 0. -1.
         11    1    1    2    0    0 -0.71234259566E+01  0.13132794321E+01 -0.29240358763E+03  0.29249329217E+03  0.00000000000E+00 0. -1.
        -15    1    1    2    0    0  0.10631119533E+02 -0.44762463809E+01 -0.20293716238E+03  0.20327249466E+03  0.17770000000E+01 0.  1.
         15    1    1    2    0    0  0.28922566830E+01 -0.15021052881E+01 -0.36351134604E+01  0.51955026597E+01  0.17770000000E+01 0. -1.
</event>
<event>
 6    1  0.1823098E-004  0.5003283E+03  0.7546771E-02  0.9399075E-01
        -11   -1    0    0    0    0  0.00000000000E+00  0.00000000000E+00  0.50000000000E+03  0.50000000000E+03  0.00000000000E+00 0.  1.
         11   -1    0    0    0    0 -0.00000000000E+00 -0.00000000000E+00 -0.50000000000E+03  0.50000000000E+03  0.00000000000E+00 0.  1.
        -11    1    1    2    0    0  0.38013801359E+01  0.58897424846E+01  0.49962254914E+03  0.49967172340E+03  0.00000000000E+00 0.  1.
         11    1    1    2    0    0 -0.27608182746E+01  0.54654043609E+01 -0.34398960578E+03  0.34404409841E+03  0.00000000000E+00 0.  1.
        -15    1    1    2    0    0 -0.41656840396E+01 -0.84803821769E+01 -0.11026017458E+03  0.11067851477E+03  0.17770000000E+01 0.  1.
         15    1    1    2    0    0  0.31251221783E+01 -0.28747646685E+01 -0.45372768777E+02  0.45605663420E+02  0.17770000000E+01 0.  1.
</event>
<event>
 6    1  0.1823098E-004  0.5042885E+03  0.7546771E-02  0.9390265E-01
        -11   -1    0    0    0    0  0.00000000000E+00  0.00000000000E+00  0.50000000000E+03  0.50000000000E+03  0.00000000000E+00 0. -1.
         11   -1    0    0    0    0 -0.00000000000E+00 -0.00000000000E+00 -0.50000000000E+03  0.50000000000E+03  0.00000000000E+00 0. -1.
        -11    1    1    2    0    0  0.10623864766E+02 -0.98283408936E+00  0.40023840681E+03  0.40038058739E+03  0.00000000000E+00 0. -1.
         11    1    1    2    0    0  0.14511008674E+02 -0.80766825216E+01 -0.49543319295E+03  0.49571145927E+03  0.00000000000E+00 0. -1.
        -15    1    1    2    0    0 -0.89698764375E+01  0.23524407818E+01  0.80313567868E+02  0.80866677771E+02  0.17770000000E+01 0. -1.
         15    1    1    2    0    0 -0.16164997003E+02  0.67070758291E+01  0.14881218264E+02  0.23041275579E+02  0.17770000000E+01 0.  1.
</event>
<event>
 6    1  0.1823098E-004  0.5001381E+03  0.7546771E-02  0.9399501E-01
        -11   -1    0    0    0    0  0.00000000000E+00  0.00000000000E+00  0.50000000000E+03  0.50000000000E+03  0.00000000000E+00 0.  1.
         11   -1    0    0    0    0 -0.00000000000E+00 -0.00000000000E+00 -0.50000000000E+03  0.50000000000E+03  0.00000000000E+00 0. -1.
        -11    1    1    2    0    0 -0.38403611627E+01  0.72771979135E+01  0.49979415659E+03  0.49986188587E+03  0.00000000000E+00 0.  1.
         11    1    1    2    0    0 -0.79568867333E+00 -0.10340105914E+02 -0.21258897749E+03  0.21284178223E+03  0.00000000000E+00 0. -1.
        -15    1    1    2    0    0  0.29294424481E+01  0.29165631681E+01 -0.14518226279E+03  0.14525197118E+03  0.17770000000E+01 0. -1.
         15    1    1    2    0    0  0.17066073879E+01  0.14634483224E+00 -0.14202291631E+03  0.14204436072E+03  0.17770000000E+01 0.  1.
</event>
<event>
 6    1  0.1823098E-004  0.5018590E+03  0.7546771E-02  0.9395660E-01
        -11   -1    0    0    0    0  0.00000000000E+00  0.00000000000E+00  0.50000000000E+03  0.50000000000E+03  0.00000000000E+00 0.  1.
         11   -1    0    0    0    0 -0.00000000000E+00 -0.00000000000E+00 -0.50000000000E+03  0.50000000000E+03  0.00000000000E+00 0.  1.
        -11    1    1    2    0    0 -0.76283432541E+01 -0.19118920323E+02  0.49771553882E+03  0.49814102654E+03  0.00000000000E+00 0.  1.
         11    1    1    2    0    0 -0.91263491827E+01  0.15537630205E+02 -0.10792112681E+03  0.10941516263E+03  0.00000000000E+00 0.  1.
        -15    1    1    2    0    0  0.22207265354E+02 -0.68693592717E+01 -0.35294642718E+03  0.35371554803E+03  0.17770000000E+01 0.  1.
         15    1    1    2    0    0 -0.54525729174E+01  0.10450649390E+02 -0.36847984841E+02  0.38728262806E+02  0.17770000000E+01 0. -1.
</event>
<event>
 6    1  0.1823098E-004  0.5246553E+03  0.7546771E-02  0.9346271E-01
        -11   -1    0    0    0    0  0.00000000000E+00  0.00000000000E+00  0.50000000000E+03  0.50000000000E+03  0.00000000000E+00 0. -1.
         11   -1    0    0    0    0 -0.00000000000E+00 -0.00000000000E+00 -0.50000000000E+03  0.50000000000E+03  0.00000000000E+00 0.  1.
        -11    1    1    2    0    0  0.15187258661E+02  0.18032654470E+01  0.37272550498E+03  0.37303914896E+03  0.00000000000E+00 0. -1.
         11    1    1    2    0    0 -0.30494387303E+02  0.10790041395E+03 -0.46193092087E+03  0.47534469877E+03  0.00000000000E+00 0.  1.
        -15    1    1    2    0    0  0.19787396388E+02 -0.95788125968E+02  0.94452336518E+02  0.13598274793E+03  0.17770000000E+01 0. -1.
         15    1    1    2    0    0 -0.44802677460E+01 -0.13915553431E+02 -0.52469206214E+01  0.15633404344E+02  0.17770000000E+01 0.  1.
</event>
<event>
 6    1  0.1823098E-004  0.5200439E+03  0.7546771E-02  0.9356044E-01
        -11   -1    0    0    0    0  0.00000000000E+00  0.00000000000E+00  0.50000000000E+03  0.50000000000E+03  0.00000000000E+00 0. -1.
         11   -1    0    0    0    0 -0.00000000000E+00 -0.00000000000E+00 -0.50000000000E+03  0.50000000000E+03  0.00000000000E+00 0. -1.
        -11    1    1    2    0    0  0.14044016051E+02  0.22553276715E+02  0.47922022035E+03  0.47995614827E+03  0.00000000000E+00 0. -1.
         11    1    1    2    0    0  0.43185140275E+02  0.41771927720E+01 -0.43140913808E+03  0.43358534304E+03  0.00000000000E+00 0. -1.
        -15    1    1    2    0    0 -0.24892495963E+02  0.49372852215E+01 -0.25297443456E+02  0.35876615156E+02  0.17770000000E+01 0.  1.
         15    1    1    2    0    0 -0.32336660363E+02 -0.31667754708E+02 -0.22513638814E+02  0.50581893533E+02  0.17770000000E+01 0. -1.
</event>
<event>
 6    1  0.1823098E-004  0.4883659E+03  0.7546771E-02  0.9426225E-01
        -11   -1    0    0    0    0  0.00000000000E+00  0.00000000000E+00  0.50000000000E+03  0.50000000000E+03  0.00000000000E+00 0.  1.
         11   -1    0    0    0    0 -0.00000000000E+00 -0.00000000000E+00 -0.50000000000E+03  0.50000000000E+03  0.00000000000E+00 0. -1.
        -11    1    1    2    0    0  0.17669661683E+01  0.72153537618E+01  0.48816297919E+03  0.48821949752E+03  0.00000000000E+00 0.  1.
         11    1    1    2    0    0  0.11352486028E+02 -0.27839299255E+01 -0.48847063719E+03  0.48861047124E+03  0.00000000000E+00 0. -1.
        -15    1    1    2    0    0  0.17966461701E+00 -0.94668846296E+00  0.73488844002E+01  0.76218324140E+01  0.17770000000E+01 0. -1.
         15    1    1    2    0    0 -0.13299116814E+02 -0.34847353733E+01 -0.70412264043E+01  0.15548198832E+02  0.17770000000E+01 0.  1.
</event>
<event>
 6    1  0.1823098E-004  0.5016780E+03  0.7546771E-02  0.9396063E-01
        -11   -1    0    0    0    0  0.00000000000E+00  0.00000000000E+00  0.50000000000E+03  0.50000000000E+03  0.00000000000E+00 0. -1.
         11   -1    0    0    0    0 -0.00000000000E+00 -0.00000000000E+00 -0.50000000000E+03  0.50000000000E+03  0.00000000000E+00 0. -1.
        -11    1    1    2    0    0  0.72550252788E+01 -0.57585184497E+01  0.48053885149E+03  0.48062811374E+03  0.00000000000E+00 0. -1.
         11    1    1    2    0    0  0.18514552598E+01  0.77782342303E+01 -0.49825782187E+03  0.49832197008E+03  0.00000000000E+00 0. -1.
        -15    1    1    2    0    0 -0.63012682146E+01 -0.30726156179E+01  0.14922622427E+02  0.16582802446E+02  0.17770000000E+01 0.  1.
         15    1    1    2    0    0 -0.28052123239E+01  0.10528998373E+01  0.27963479449E+01  0.44671137302E+01  0.17770000000E+01 0. -1.
</event>
<event>
 6    1  0.1823098E-004  0.5032819E+03  0.7546771E-02  0.9392496E-01
        -11   -1    0    0    0    0  0.00000000000E+00  0.00000000000E+00  0.50000000000E+03  0.50000000000E+03  0.00000000000E+00 0. -1.
         11   -1    0    0    0    0 -0.00000000000E+00 -0.00000000000E+00 -0.50000000000E+03  0.50000000000E+03  0.00000000000E+00 0. -1.
        -11    1    1    2    0    0  0.10478672265E+01 -0.68419844846E+01  0.49666989393E+03  0.49671812360E+03  0.00000000000E+00 0. -1.
         11    1    1    2    0    0  0.88328846062E+01  0.70878661538E+01 -0.48430135639E+03  0.48443375347E+03  0.00000000000E+00 0. -1.
        -15    1    1    2    0    0 -0.10170878460E+01  0.37283256089E+01 -0.27643594227E+01  0.50728977469E+01  0.17770000000E+01 0.  1.
         15    1    1    2    0    0 -0.88636639866E+01 -0.39742072781E+01 -0.96041781106E+01  0.13775225186E+02  0.17770000000E+01 0. -1.
</event>
<event>
 6    1  0.1823098E-004  0.5005443E+03  0.7546771E-02  0.9398593E-01
        -11   -1    0    0    0    0  0.00000000000E+00  0.00000000000E+00  0.50000000000E+03  0.50000000000E+03  0.00000000000E+00 0. -1.
         11   -1    0    0    0    0 -0.00000000000E+00 -0.00000000000E+00 -0.50000000000E+03  0.50000000000E+03  0.00000000000E+00 0. -1.
        -11    1    1    2    0    0  0.51817275944E+01 -0.48488310868E+01  0.49940530182E+03  0.49945572071E+03  0.00000000000E+00 0. -1.
         11    1    1    2    0    0 -0.25175388660E+01  0.88732985881E+01 -0.42487623166E+03  0.42497633541E+03  0.00000000000E+00 0. -1.
        -15    1    1    2    0    0 -0.28713935666E+01 -0.12710536193E+01 -0.63010322128E+01  0.72609375609E+01  0.17770000000E+01 0.  1.
         15    1    1    2    0    0  0.20720483816E+00 -0.27534138821E+01 -0.68228037941E+02  0.68307006318E+02  0.17770000000E+01 0. -1.
</event>
<event>
 6    1  0.1823098E-004  0.5039653E+03  0.7546771E-02  0.9390981E-01
        -11   -1    0    0    0    0  0.00000000000E+00  0.00000000000E+00  0.50000000000E+03  0.50000000000E+03  0.00000000000E+00 0.  1.
         11   -1    0    0    0    0 -0.00000000000E+00 -0.00000000000E+00 -0.50000000000E+03  0.50000000000E+03  0.00000000000E+00 0. -1.
        -11    1    1    2    0    0  0.26424718776E+02  0.11194532882E+02  0.49520387799E+03  0.49603474082E+03  0.00000000000E+00 0.  1.
         11    1    1    2    0    0 -0.94761256078E+01  0.27298505050E+02 -0.24488797831E+03  0.24658695679E+03  0.00000000000E+00 0. -1.
        -15    1    1    2    0    0  0.78811909058E+01 -0.10479719793E+02 -0.19663237795E+02  0.23701019949E+02  0.17770000000E+01 0.  1.
         15    1    1    2    0    0 -0.24829784074E+02 -0.28013318139E+02 -0.23065266188E+03  0.23367728244E+03  0.17770000000E+01 0. -1.
</event>
<event>
 6    1  0.1823098E-004  0.5039234E+03  0.7546771E-02  0.9391073E-01
        -11   -1    0    0    0    0  0.00000000000E+00  0.00000000000E+00  0.50000000000E+03  0.50000000000E+03  0.00000000000E+00 0.  1.
         11   -1    0    0    0    0 -0.00000000000E+00 -0.00000000000E+00 -0.50000000000E+03  0.50000000000E+03  0.00000000000E+00 0.  1.
        -11    1    1    2    0    0  0.73804510206E+01 -0.16748172197E+01  0.38928690196E+03  0.38936046038E+03  0.00000000000E+00 0.  1.
         11    1    1    2    0    0 -0.76110044820E+01 -0.24388382035E+02 -0.49541828058E+03  0.49607660024E+03  0.00000000000E+00 0.  1.
        -15    1    1    2    0    0  0.40111185525E+01  0.26043743339E+02  0.37847804007E+02  0.46151702421E+02  0.17770000000E+01 0. -1.
         15    1    1    2    0    0 -0.37805650911E+01  0.19455915849E-01  0.68283574616E+02  0.68411236959E+02  0.17770000000E+01 0.  1.
</event>
<event>
 6    1  0.1823098E-004  0.5000781E+03  0.7546771E-02  0.9399635E-01
        -11   -1    0    0    0    0  0.00000000000E+00  0.00000000000E+00  0.50000000000E+03  0.50000000000E+03  0.00000000000E+00 0.  1.
         11   -1    0    0    0    0 -0.00000000000E+00 -0.00000000000E+00 -0.50000000000E+03  0.50000000000E+03  0.00000000000E+00 0. -1.
        -11    1    1    2    0    0 -0.41813046861E+01  0.57658231349E+01  0.49987117970E+03  0.49992191823E+03  0.00000000000E+00 0.  1.
         11    1    1    2    0    0 -0.21323201347E+01  0.12745042273E+01 -0.18347318065E+03  0.18348999746E+03  0.00000000000E+00 0. -1.
        -15    1    1    2    0    0  0.10931357080E+01 -0.17932879042E+01 -0.13847980346E+03  0.13850712805E+03  0.17770000000E+01 0. -1.
         15    1    1    2    0    0  0.52204891127E+01 -0.52470394580E+01 -0.17791819560E+03  0.17808095626E+03  0.17770000000E+01 0.  1.
</event>
<event>
 6    1  0.1823098E-004  0.4868822E+03  0.7546771E-02  0.9429650E-01
        -11   -1    0    0    0    0  0.00000000000E+00  0.00000000000E+00  0.50000000000E+03  0.50000000000E+03  0.00000000000E+00 0. -1.
         11   -1    0    0    0    0 -0.00000000000E+00 -0.00000000000E+00 -0.50000000000E+03  0.50000000000E+03  0.00000000000E+00 0. -1.
        -11    1    1    2    0    0  0.83031108337E+01 -0.25971455110E+01  0.49176517839E+03  0.49184212659E+03  0.00000000000E+00 0. -1.
         11    1    1    2    0    0  0.92625857944E+01 -0.12435315164E+02 -0.48199634803E+03  0.48224569679E+03  0.00000000000E+00 0. -1.
        -15    1    1    2    0    0 -0.88222637004E+01  0.92073877908E+01 -0.27871716382E+01  0.13173244910E+02  0.17770000000E+01 0. -1.
         15    1    1    2    0    0 -0.87434329277E+01  0.58250728840E+01 -0.69816587271E+01  0.12738931707E+02  0.17770000000E+01 0.  1.
</event>
<event>
 6    1  0.1823098E-004  0.5002655E+03  0.7546771E-02  0.9399216E-01
        -11   -1    0    0    0    0  0.00000000000E+00  0.00000000000E+00  0.50000000000E+03  0.50000000000E+03  0.00000000000E+00 0.  1.
         11   -1    0    0    0    0 -0.00000000000E+00 -0.00000000000E+00 -0.50000000000E+03  0.50000000000E+03  0.00000000000E+00 0. -1.
        -11    1    1    2    0    0  0.13652620232E+01  0.66412840711E+01  0.49968853823E+03  0.49973453536E+03  0.00000000000E+00 0.  1.
         11    1    1    2    0    0 -0.10186100039E+02 -0.57401276988E+01 -0.18491023239E+03  0.18527951787E+03  0.00000000000E+00 0. -1.
        -15    1    1    2    0    0  0.25455753079E+01  0.19815397448E+01 -0.63680636191E+02  0.63787048906E+02  0.17770000000E+01 0.  1.
         15    1    1    2    0    0  0.62752627076E+01 -0.28826961171E+01 -0.25109766965E+03  0.25119889787E+03  0.17770000000E+01 0. -1.
</event>
<event>
 6    1  0.1823098E-004  0.4883931E+03  0.7546771E-02  0.9426162E-01
        -11   -1    0    0    0    0  0.00000000000E+00  0.00000000000E+00  0.50000000000E+03  0.50000000000E+03  0.00000000000E+00 0. -1.
         11   -1    0    0    0    0 -0.00000000000E+00 -0.00000000000E+00 -0.50000000000E+03  0.50000000000E+03  0.00000000000E+00 0.  1.
        -11    1    1    2    0    0  0.49843710979E+01 -0.50297393110E+01  0.49210928515E+03  0.49216022875E+03  0.00000000000E+00 0. -1.
         11    1    1    2    0    0 -0.14148966766E+02 -0.11881971352E+02 -0.48449280614E+03  0.48484497904E+03  0.00000000000E+00 0.  1.
        -15    1    1    2    0    0  0.87620861114E+01  0.99567457797E+01 -0.13358035519E+01  0.13448161200E+02  0.17770000000E+01 0. -1.
         15    1    1    2    0    0  0.40250955711E+00  0.69549648830E+01 -0.62806754553E+01  0.95466310100E+01  0.17770000000E+01 0.  1.
</event>
<event>
 6    1  0.1823098E-004  0.5009066E+03  0.7546771E-02  0.9397783E-01
        -11   -1    0    0    0    0  0.00000000000E+00  0.00000000000E+00  0.50000000000E+03  0.50000000000E+03  0.00000000000E+00 0.  1.
         11   -1    0    0    0    0 -0.00000000000E+00 -0.00000000000E+00 -0.50000000000E+03  0.50000000000E+03  0.00000000000E+00 0.  1.
        -11    1    1    2    0    0  0.10020716224E+02 -0.13076782387E+01  0.49899107373E+03  0.49909339451E+03  0.00000000000E+00 0.  1.
         11    1    1    2    0    0 -0.15645806733E+02 -0.27035170459E+01 -0.69770220720E+02  0.71554063282E+02  0.00000000000E+00 0.  1.
        -15    1    1    2    0    0  0.16593771592E+01 -0.10491367826E+01 -0.47742299385E+02  0.47815678393E+02  0.17770000000E+01 0. -1.
         15    1    1    2    0    0  0.39657133500E+01  0.50603320672E+01 -0.38147855363E+03  0.38153686382E+03  0.17770000000E+01 0.  1.
</event>
<event>
 6    1  0.1924064E-004  0.5018633E+03  0.7546771E-02  0.9395650E-01
        -11   -1    0    0    0    0  0.00000000000E+00  0.00000000000E+00  0.50000000000E+03  0.50000000000E+03  0.00000000000E+00 0.  1.
         11   -1    0    0    0    0 -0.00000000000E+00 -0.00000000000E+00 -0.50000000000E+03  0.50000000000E+03  0.00000000000E+00 0.  1.
        -11    1    1    2    0    0 -0.16921489867E+02  0.55245161998E+02  0.49477447372E+03  0.49813667260E+03  0.00000000000E+00 0.  1.
         11    1    1    2    0    0  0.19926421243E+02 -0.55214492951E+02 -0.24348726454E+03  0.25046307210E+03  0.00000000000E+00 0.  1.
        -15    1    1    2    0    0 -0.30484237445E+01 -0.24904057377E+01 -0.11927156882E+03  0.11934973760E+03  0.17770000000E+01 0. -1.
         15    1    1    2    0    0  0.43492368113E-01  0.24597366904E+01 -0.13201564036E+03  0.13205051770E+03  0.17770000000E+01 0.  1.
</event>
<event>
 6    1  0.1823098E-004  0.5015675E+03  0.7546771E-02  0.9396309E-01
        -11   -1    0    0    0    0  0.00000000000E+00  0.00000000000E+00  0.50000000000E+03  0.50000000000E+03  0.00000000000E+00 0. -1.
         11   -1    0    0    0    0 -0.00000000000E+00 -0.00000000000E+00 -0.50000000000E+03  0.50000000000E+03  0.00000000000E+00 0.  1.
        -11    1    1    2    0    0 -0.38332487761E+02  0.20635189807E+01  0.49695198700E+03  0.49843245792E+03  0.00000000000E+00 0. -1.
         11    1    1    2    0    0  0.47754216373E+02  0.33038328079E+01 -0.27539697667E+03  0.27952616202E+03  0.00000000000E+00 0.  1.
        -15    1    1    2    0    0 -0.65323085597E+00  0.15337942933E+01 -0.79641296034E+02  0.79678560469E+02  0.17770000000E+01 0. -1.
         15    1    1    2    0    0 -0.87684977555E+01 -0.69011460819E+01 -0.14191371429E+03  0.14236281959E+03  0.17770000000E+01 0.  1.
</event>
<event>
 6    1  0.1823098E-004  0.5089915E+03  0.7546771E-02  0.9379912E-01
        -11   -1    0    0    0    0  0.00000000000E+00  0.00000000000E+00  0.50000000000E+03  0.50000000000E+03  0.00000000000E+00 0. -1.
         11   -1    0    0    0    0 -0.00000000000E+00 -0.00000000000E+00 -0.50000000000E+03  0.50000000000E+03  0.00000000000E+00 0. -1.
        -11    1    1    2    0    0  0.49144679968E+01  0.86235565251E+01  0.45684122329E+03  0.45694903547E+03  0.00000000000E+00 0. -1.
         11    1    1    2    0    0  0.41945606406E+01 -0.47062092240E+02 -0.48872991375E+03  0.49100851669E+03  0.00000000000E+00 0. -1.
        -15    1    1    2    0    0 -0.79727233703E+01  0.34310411153E+02  0.23264240683E+02  0.42251050341E+02  0.17770000000E+01 0. -1.
         15    1    1    2    0    0 -0.11363052671E+01  0.41281245626E+01  0.86244497798E+01  0.97913975033E+01  0.17770000000E+01 0.  1.
</event>
<event>
 6    1  0.1823098E-004  0.4792520E+03  0.7546771E-02  0.9447470E-01
        -11   -1    0    0    0    0  0.00000000000E+00  0.00000000000E+00  0.50000000000E+03  0.50000000000E+03  0.00000000000E+00 0. -1.
         11   -1    0    0    0    0 -0.00000000000E+00 -0.00000000000E+00 -0.50000000000E+03  0.50000000000E+03  0.00000000000E+00 0.  1.
        -11    1    1    2    0    0  0.13676721017E+02  0.67766542562E+01  0.47089973825E+03  0.47114704629E+03  0.00000000000E+00 0. -1.
         11    1    1    2    0    0 -0.17663387120E+02  0.23846550360E+02 -0.48708776271E+03  0.48799092388E+03  0.00000000000E+00 0.  1.
        -15    1    1    2    0    0 -0.24356384595E+01 -0.24309157310E+02  0.19282746181E+02  0.31174500687E+02  0.17770000000E+01 0.  1.
         15    1    1    2    0    0  0.64223045617E+01 -0.63140473065E+01 -0.30947217259E+01  0.96875291397E+01  0.17770000000E+01 0. -1.
</event>
<event>
 6    1  0.1823098E-004  0.5044695E+03  0.7546771E-02  0.9389864E-01
        -11   -1    0    0    0    0  0.00000000000E+00  0.00000000000E+00  0.50000000000E+03  0.50000000000E+03  0.00000000000E+00 0. -1.
         11   -1    0    0    0    0 -0.00000000000E+00 -0.00000000000E+00 -0.50000000000E+03  0.50000000000E+03  0.00000000000E+00 0.  1.
        -11    1    1    2    0    0  0.98223057075E+01 -0.12734764898E+01  0.49543154262E+03  0.49553053675E+03  0.00000000000E+00 0. -1.
         11    1    1    2    0    0 -0.71955687560E+01 -0.30420672368E+02 -0.40281929867E+03  0.40403042076E+03  0.00000000000E+00 0.  1.
        -15    1    1    2    0    0  0.10637715124E+01  0.78945502779E+01 -0.50273496265E+01  0.95857971597E+01  0.17770000000E+01 0.  1.
         15    1    1    2    0    0 -0.36905084640E+01  0.23799598580E+02 -0.87584894324E+02  0.90853245335E+02  0.17770000000E+01 0. -1.
</event>
<event>
 6    1  0.1823098E-004  0.5039975E+03  0.7546771E-02  0.9390909E-01
        -11   -1    0    0    0    0  0.00000000000E+00  0.00000000000E+00  0.50000000000E+03  0.50000000000E+03  0.00000000000E+00 0.  1.
         11   -1    0    0    0    0 -0.00000000000E+00 -0.00000000000E+00 -0.50000000000E+03  0.50000000000E+03  0.00000000000E+00 0.  1.
        -11    1    1    2    0    0  0.17371475524E+01  0.38758237495E+02  0.49448284060E+03  0.49600251845E+03  0.00000000000E+00 0.  1.
         11    1    1    2    0    0 -0.32102935085E+02 -0.34828984838E+02 -0.14649631615E+03  0.15396372063E+03  0.00000000000E+00 0.  1.
        -15    1    1    2    0    0  0.57590977293E+01  0.81980108231E+01 -0.81356966049E+02  0.81990781444E+02  0.17770000000E+01 0. -1.
         15    1    1    2    0    0  0.24606689804E+02 -0.12127263480E+02 -0.26662955841E+03  0.26804297948E+03  0.17770000000E+01 0.  1.
</event>
<event>
 6    1  0.1823098E-004  0.4908593E+03  0.7546771E-02  0.9420498E-01
        -11   -1    0    0    0    0  0.00000000000E+00  0.00000000000E+00  0.50000000000E+03  0.50000000000E+03  0.00000000000E+00 0. -1.
         11   -1    0    0    0    0 -0.00000000000E+00 -0.00000000000E+00 -0.50000000000E+03  0.50000000000E+03  0.00000000000E+00 0. -1.
        -11    1    1    2    0    0  0.91553081356E+01 -0.25186542275E+01  0.49430427522E+03  0.49439546902E+03  0.00000000000E+00 0. -1.
         11    1    1    2    0    0  0.12095154436E+01  0.11661306711E+02 -0.48730431685E+03  0.48744532639E+03  0.00000000000E+00 0. -1.
        -15    1    1    2    0    0 -0.74424256605E+01 -0.18413468604E+01 -0.65123304592E+00  0.78969672313E+01  0.17770000000E+01 0.  1.
         15    1    1    2    0    0 -0.29223979186E+01 -0.73013056237E+01 -0.63487253253E+01  0.10262237361E+02  0.17770000000E+01 0. -1.
</event>
<event>
 6    1  0.1823098E-004  0.5004216E+03  0.7546771E-02  0.9398867E-01
        -11   -1    0    0    0    0  0.00000000000E+00  0.00000000000E+00  0.50000000000E+03  0.50000000000E+03  0.00000000000E+00 0. -1.
         11   -1    0    0    0    0 -0.00000000000E+00 -0.00000000000E+00 -0.50000000000E+03  0.50000000000E+03  0.00000000000E+00 0. -1.
        -11    1    1    2    0    0 -0.33796725352E+01  0.31841182319E+01  0.22051769723E+03  0.22056657858E+03  0.00000000000E+00 0. -1.
         11    1    1    2    0    0  0.25991120831E+02 -0.84860194227E+01 -0.49882969088E+03  0.49957843368E+03  0.00000000000E+00 0. -1.
        -15    1    1    2    0    0  0.84164359861E+00 -0.17017775025E+01  0.78285129052E+02  0.78328306316E+02  0.17770000000E+01 0.  1.
         15    1    1    2    0    0 -0.23453091894E+02  0.70036786933E+01  0.20002686460E+03  0.20152668143E+03  0.17770000000E+01 0. -1.
</event>
<event>
 6    1  0.1823098E-004  0.4980773E+03  0.7546771E-02  0.9404122E-01
        -11   -1    0    0    0    0  0.00000000000E+00  0.00000000000E+00  0.50000000000E+03  0.50000000000E+03  0.00000000000E+00 0.  1.
         11   -1    0    0    0    0 -0.00000000000E+00 -0.00000000000E+00 -0.50000000000E+03  0.50000000000E+03  0.00000000000E+00 0.  1.
        -11    1    1    2    0    0 -0.54941267842E+01 -0.12172235965E+02  0.49799821859E+03  0.49817725206E+03  0.00000000000E+00 0.  1.
         11    1    1    2    0    0  0.38890912440E+01 -0.86136617778E+00 -0.55537333825E+00  0.40218679667E+01  0.00000000000E+00 0.  1.
        -15    1    1    2    0    0  0.50289560348E+01  0.13837070918E+02 -0.41299386920E+03  0.41326002547E+03  0.17770000000E+01 0.  1.
         15    1    1    2    0    0 -0.34239204947E+01 -0.80346877614E+00 -0.84448976052E+02  0.84540854495E+02  0.17770000000E+01 0. -1.
</event>
<event>
 6    1  0.1823098E-004  0.4890138E+03  0.7546771E-02  0.9424733E-01
        -11   -1    0    0    0    0  0.00000000000E+00  0.00000000000E+00  0.50000000000E+03  0.50000000000E+03  0.00000000000E+00 0.  1.
         11   -1    0    0    0    0 -0.00000000000E+00 -0.00000000000E+00 -0.50000000000E+03  0.50000000000E+03  0.00000000000E+00 0.  1.
        -11    1    1    2    0    0  0.68430161841E+01  0.78998097957E+01  0.49169011719E+03  0.49180118463E+03  0.00000000000E+00 0.  1.
         11    1    1    2    0    0  0.11075388141E+02 -0.48702722020E+01 -0.48625978290E+03  0.48641027974E+03  0.00000000000E+00 0.  1.
        -15    1    1    2    0    0 -0.35353178478E+01 -0.48297137429E+01 -0.10624840434E+00  0.62444875568E+01  0.17770000000E+01 0. -1.
         15    1    1    2    0    0 -0.14383086478E+02  0.18001761491E+01 -0.53240858856E+01  0.15544048067E+02  0.17770000000E+01 0.  1.
</event>
<event>
 6    1  0.1823098E-004  0.5002464E+03  0.7546771E-02  0.9399259E-01
        -11   -1    0    0    0    0  0.00000000000E+00  0.00000000000E+00  0.50000000000E+03  0.50000000000E+03  0.00000000000E+00 0. -1.
         11   -1    0    0    0    0 -0.00000000000E+00 -0.00000000000E+00 -0.50000000000E+03  0.50000000000E+03  0.00000000000E+00 0. -1.
        -11    1    1    2    0    0 -0.11413168330E+02  0.13367044905E+01  0.49962148709E+03  0.49975361685E+03  0.00000000000E+00 0. -1.
         11    1    1    2    0    0 -0.53736378381E+01  0.11643022543E+01 -0.14540415557E+03  0.14550807551E+03  0.00000000000E+00 0. -1.
        -15    1    1    2    0    0  0.17280816822E+01 -0.98816958095E+00 -0.20459126838E+02  0.20632410072E+02  0.17770000000E+01 0.  1.
         15    1    1    2    0    0  0.15058724486E+02 -0.15128371638E+01 -0.33375820469E+03  0.33410589756E+03  0.17770000000E+01 0. -1.
</event>
<event>
 6    1  0.1823098E-004  0.5005884E+03  0.7546771E-02  0.9398494E-01
        -11   -1    0    0    0    0  0.00000000000E+00  0.00000000000E+00  0.50000000000E+03  0.50000000000E+03  0.00000000000E+00 0. -1.
         11   -1    0    0    0    0 -0.00000000000E+00 -0.00000000000E+00 -0.50000000000E+03  0.50000000000E+03  0.00000000000E+00 0. -1.
        -11    1    1    2    0    0  0.57255762794E+01 -0.23448498648E+02  0.49882797803E+03  0.49941161979E+03  0.00000000000E+00 0. -1.
         11    1    1    2    0    0 -0.84636655504E+00  0.15854373167E+02 -0.76564691239E+02  0.78193538284E+02  0.00000000000E+00 0. -1.
        -15    1    1    2    0    0  0.56293392501E-01  0.32736013631E+01 -0.16225001236E+03  0.16229277209E+03  0.17770000000E+01 0.  1.
         15    1    1    2    0    0 -0.49355031168E+01  0.43205241173E+01 -0.26001327444E+03  0.26010206984E+03  0.17770000000E+01 0. -1.
</event>
<event>
 6    1  0.1823098E-004  0.5076297E+03  0.7546771E-02  0.9382898E-01
        -11   -1    0    0    0    0  0.00000000000E+00  0.00000000000E+00  0.50000000000E+03  0.50000000000E+03  0.00000000000E+00 0. -1.
         11   -1    0    0    0    0 -0.00000000000E+00 -0.00000000000E+00 -0.50000000000E+03  0.50000000000E+03  0.00000000000E+00 0.  1.
        -11    1    1    2    0    0 -0.20717327917E+01  0.95732180142E+01  0.49227291408E+03  0.49237034894E+03  0.00000000000E+00 0. -1.
         11    1    1    2    0    0 -0.24147531173E+02  0.23034907053E+02 -0.36220349408E+03  0.36373765454E+03  0.00000000000E+00 0.  1.
        -15    1    1    2    0    0  0.99286443158E+01 -0.37625018098E+02 -0.58380675937E+02  0.70183196113E+02  0.17770000000E+01 0. -1.
         15    1    1    2    0    0  0.16290619649E+02  0.50168930304E+01 -0.71688744060E+02  0.73708800412E+02  0.17770000000E+01 0.  1.
</event>
<event>
 6    1  0.1823098E-004  0.5118810E+03  0.7546771E-02  0.9373610E-01
        -11   -1    0    0    0    0  0.00000000000E+00  0.00000000000E+00  0.50000000000E+03  0.50000000000E+03  0.00000000000E+00 0.  1.
         11   -1    0    0    0    0 -0.00000000000E+00 -0.00000000000E+00 -0.50000000000E+03  0.50000000000E+03  0.00000000000E+00 0.  1.
        -11    1    1    2    0    0 -0.92097283702E+01  0.29416177944E+00  0.48803197608E+03  0.48811895610E+03  0.00000000000E+00 0.  1.
         11    1    1    2    0    0 -0.21852030109E+02  0.19383887189E+02 -0.45553182274E+03  0.45646740062E+03  0.00000000000E+00 0.  1.
        -15    1    1    2    0    0  0.92213073647E-01 -0.55928949492E+01  0.26703682494E+01  0.64480673656E+01  0.17770000000E+01 0. -1.
         15    1    1    2    0    0  0.30969545406E+02 -0.14085154019E+02 -0.35170521590E+02  0.48965575911E+02  0.17770000000E+01 0.  1.
</event>
<event>
 6    1  0.1823098E-004  0.5004978E+03  0.7546771E-02  0.9398697E-01
        -11   -1    0    0    0    0  0.00000000000E+00  0.00000000000E+00  0.50000000000E+03  0.50000000000E+03  0.00000000000E+00 0.  1.
         11   -1    0    0    0    0 -0.00000000000E+00 -0.00000000000E+00 -0.50000000000E+03  0.50000000000E+03  0.00000000000E+00 0.  1.
        -11    1    1    2    0    0  0.44826796467E+01  0.48824246743E+01  0.34528698150E+03  0.34535059299E+03  0.00000000000E+00 0.  1.
         11    1    1    2    0    0 -0.12679456995E+02  0.32345586717E+00 -0.49934117131E+03  0.49950223085E+03  0.00000000000E+00 0.  1.
        -15    1    1    2    0    0  0.42674466267E+01  0.11128115714E+01  0.12304508745E+02  0.13191213544E+02  0.17770000000E+01 0. -1.
         15    1    1    2    0    0  0.39293307218E+01 -0.63186921128E+01  0.14174968107E+03  0.14195596261E+03  0.17770000000E+01 0.  1.
</event>
<event>
 6    1  0.1823098E-004  0.5026098E+03  0.7546771E-02  0.9393989E-01
        -11   -1    0    0    0    0  0.00000000000E+00  0.00000000000E+00  0.50000000000E+03  0.50000000000E+03  0.00000000000E+00 0.  1.
         11   -1    0    0    0    0 -0.00000000000E+00 -0.00000000000E+00 -0.50000000000E+03  0.50000000000E+03  0.00000000000E+00 0. -1.
        -11    1    1    2    0    0 -0.49288830928E+01  0.44185716416E+01  0.40165509684E+03  0.40170963952E+03  0.00000000000E+00 0.  1.
         11    1    1    2    0    0  0.29844429502E+02 -0.11786105892E+02 -0.49635408071E+03  0.49739016446E+03  0.00000000000E+00 0. -1.
        -15    1    1    2    0    0 -0.25252216753E+02  0.12857985029E+02  0.84914852710E+02  0.89535982542E+02  0.17770000000E+01 0.  1.
         15    1    1    2    0    0  0.33667034390E+00 -0.54904507777E+01  0.97841311547E+01  0.11364213484E+02  0.17770000000E+01 0. -1.
</event>
<event>
 6    1  0.1823098E-004  0.5001525E+03  0.7546771E-02  0.9399469E-01
        -11   -1    0    0    0    0  0.00000000000E+00  0.00000000000E+00  0.50000000000E+03  0.50000000000E+03  0.00000000000E+00 0.  1.
         11   -1    0    0    0    0 -0.00000000000E+00 -0.00000000000E+00 -0.50000000000E+03  0.50000000000E+03  0.00000000000E+00 0. -1.
        -11    1    1    2    0    0 -0.93436224550E+00  0.21202713924E+01  0.12743622493E+03  0.12745728700E+03  0.00000000000E+00 0.  1.
         11    1    1    2    0    0  0.19119930350E+02 -0.16868549011E+02 -0.49919677017E+03  0.49984751178E+03  0.00000000000E+00 0. -1.
        -15    1    1    2    0    0 -0.15507710316E+02  0.12177734741E+02  0.22281109056E+03  0.22368890475E+03  0.17770000000E+01 0.  1.
         15    1    1    2    0    0 -0.26778577877E+01  0.25705428778E+01  0.14894945468E+03  0.14900629648E+03  0.17770000000E+01 0.  1.
</event>
<event>
 6    1  0.1823098E-004  0.5002486E+03  0.7546771E-02  0.9399254E-01
        -11   -1    0    0    0    0  0.00000000000E+00  0.00000000000E+00  0.50000000000E+03  0.50000000000E+03  0.00000000000E+00 0.  1.
         11   -1    0    0    0    0 -0.00000000000E+00 -0.00000000000E+00 -0.50000000000E+03  0.50000000000E+03  0.00000000000E+00 0. -1.
        -11    1    1    2    0    0 -0.25835139058E+01 -0.57354420423E+01  0.26650851148E+03  0.26658273863E+03  0.00000000000E+00 0.  1.
         11    1    1    2    0    0 -0.37328733449E+01 -0.62677234921E+01 -0.49969816462E+03  0.49975141263E+03  0.00000000000E+00 0. -1.
        -15    1    1    2    0    0  0.12948057728E+01  0.38555125400E+01  0.43307384861E+02  0.43534225747E+02  0.17770000000E+01 0. -1.
         15    1    1    2    0    0  0.50215814780E+01  0.81476529944E+01  0.18988226827E+03  0.19013162300E+03  0.17770000000E+01 0.  1.
</event>
<event>
 6    1  0.1823098E-004  0.5027833E+03  0.7546771E-02  0.9393603E-01
        -11   -1    0    0    0    0  0.00000000000E+00  0.00000000000E+00  0.50000000000E+03  0.50000000000E+03  0.00000000000E+00 0.  1.
         11   -1    0    0    0    0 -0.00000000000E+00 -0.00000000000E+00 -0.50000000000E+03  0.50000000000E+03  0.00000000000E+00 0.  1.
        -11    1    1    2    0    0  0.89605694191E+00 -0.62235329274E+01  0.46100430275E+03  0.46104718027E+03  0.00000000000E+00 0.  1.
         11    1    1    2    0    0  0.10424225437E+02 -0.97222640294E+01 -0.49701231253E+03  0.49721667882E+03  0.00000000000E+00 0.  1.
        -15    1    1    2    0    0 -0.26137156886E+01  0.15837208105E+01  0.11043292626E+02  0.11595331920E+02  0.17770000000E+01 0.  1.
         15    1    1    2    0    0 -0.87065666901E+01  0.14362076146E+02  0.24964717149E+02  0.30140808982E+02  0.17770000000E+01 0. -1.
</event>
<event>
 6    1  0.1823098E-004  0.5038757E+03  0.7546771E-02  0.9391179E-01
        -11   -1    0    0    0    0  0.00000000000E+00  0.00000000000E+00  0.50000000000E+03  0.50000000000E+03  0.00000000000E+00 0.  1.
         11   -1    0    0    0    0 -0.00000000000E+00 -0.00000000000E+00 -0.50000000000E+03  0.50000000000E+03  0.00000000000E+00 0. -1.
        -11    1    1    2    0    0 -0.73740916609E+01 -0.83278019563E+01  0.40571534839E+03  0.40586780290E+03  0.00000000000E+00 0.  1.
         11    1    1    2    0    0 -0.28705157403E+02  0.77230200217E+01 -0.49523291755E+03  0.49612425230E+03  0.00000000000E+00 0. -1.
        -15    1    1    2    0    0  0.26976155458E+02 -0.28245340461E+01  0.46440807868E+02  0.53810754690E+02  0.17770000000E+01 0. -1.
         15    1    1    2    0    0  0.91030936064E+01  0.34293159807E+01  0.43076761293E+02  0.44197190112E+02  0.17770000000E+01 0.  1.
</event>
<event>
 6    1  0.1823098E-004  0.5003618E+03  0.7546771E-02  0.9399001E-01
        -11   -1    0    0    0    0  0.00000000000E+00  0.00000000000E+00  0.50000000000E+03  0.50000000000E+03  0.00000000000E+00 0.  1.
         11   -1    0    0    0    0 -0.00000000000E+00 -0.00000000000E+00 -0.50000000000E+03  0.50000000000E+03  0.00000000000E+00 0. -1.
        -11    1    1    2    0    0 -0.12926838930E+02  0.10019688846E+02  0.49937043316E+03  0.49963819594E+03  0.00000000000E+00 0.  1.
         11    1    1    2    0    0  0.75379410116E+01 -0.11047621546E+02 -0.95154884416E+02  0.96090179128E+02  0.00000000000E+00 0. -1.
        -15    1    1    2    0    0  0.20712538919E+01  0.90599337161E+00 -0.20880093023E+03  0.20882072960E+03  0.17770000000E+01 0.  1.
         15    1    1    2    0    0  0.33176440264E+01  0.12193932767E+00 -0.19541461851E+03  0.19545089533E+03  0.17770000000E+01 0. -1.
</event>
<event>
 6    1  0.1823098E-004  0.4919956E+03  0.7546771E-02  0.9417900E-01
        -11   -1    0    0    0    0  0.00000000000E+00  0.00000000000E+00  0.50000000000E+03  0.50000000000E+03  0.00000000000E+00 0.  1.
         11   -1    0    0    0    0 -0.00000000000E+00 -0.00000000000E+00 -0.50000000000E+03  0.50000000000E+03  0.00000000000E+00 0.  1.
        -11    1    1    2    0    0 -0.84113634616E+00  0.75671016570E+01  0.48930814118E+03  0.48936737280E+03  0.00000000000E+00 0.  1.
         11    1    1    2    0    0 -0.99310531894E+01  0.78789509116E+00 -0.49463238319E+03  0.49473269661E+03  0.00000000000E+00 0.  1.
        -15    1    1    2    0    0  0.56234471625E+01 -0.20434822510E+01  0.48489784492E+00  0.62603380595E+01  0.17770000000E+01 0.  1.
         15    1    1    2    0    0  0.51487423731E+01 -0.63115144972E+01  0.48393441613E+01  0.96395925320E+01  0.17770000000E+01 0. -1.
</event>
<event>
 6    1  0.1823098E-004  0.5001564E+03  0.7546771E-02  0.9399460E-01
        -11   -1    0    0    0    0  0.00000000000E+00  0.00000000000E+00  0.50000000000E+03  0.50000000000E+03  0.00000000000E+00 0. -1.
         11   -1    0    0    0    0 -0.00000000000E+00 -0.00000000000E+00 -0.50000000000E+03  0.50000000000E+03  0.00000000000E+00 0. -1.
        -11    1    1    2    0    0 -0.78427122262E+01  0.47146803455E+01  0.49975979861E+03  0.49984356818E+03  0.00000000000E+00 0. -1.
         11    1    1    2    0    0  0.12594523725E+01 -0.22785307848E+01 -0.16366952687E+02  0.16572720448E+02  0.00000000000E+00 0. -1.
        -15    1    1    2    0    0 -0.14065881358E+01 -0.28476844846E+01 -0.59235587845E+02  0.59347286319E+02  0.17770000000E+01 0.  1.
         15    1    1    2    0    0  0.79898479895E+01  0.41153492396E+00 -0.42415725808E+03  0.42423642505E+03  0.17770000000E+01 0. -1.
</event>
<event>
 6    1  0.1823098E-004  0.5018578E+03  0.7546771E-02  0.9395662E-01
        -11   -1    0    0    0    0  0.00000000000E+00  0.00000000000E+00  0.50000000000E+03  0.50000000000E+03  0.00000000000E+00 0. -1.
         11   -1    0    0    0    0 -0.00000000000E+00 -0.00000000000E+00 -0.50000000000E+03  0.50000000000E+03  0.00000000000E+00 0.  1.
        -11    1    1    2    0    0 -0.49484607540E+01  0.12599945458E+02  0.49795824089E+03  0.49814220416E+03  0.00000000000E+00 0. -1.
         11    1    1    2    0    0 -0.62936427205E+01 -0.41646452872E+00 -0.45779498338E+03  0.45783843241E+03  0.00000000000E+00 0.  1.
        -15    1    1    2    0    0  0.40705792283E+01 -0.48049574955E+01 -0.23153507314E+02  0.24060337939E+02  0.17770000000E+01 0. -1.
         15    1    1    2    0    0  0.71715242462E+01 -0.73785234340E+01 -0.17009750193E+02  0.19959025495E+02  0.17770000000E+01 0.  1.
</event>
<event>
 6    1  0.1823098E-004  0.5008896E+03  0.7546771E-02  0.9397821E-01
        -11   -1    0    0    0    0  0.00000000000E+00  0.00000000000E+00  0.50000000000E+03  0.50000000000E+03  0.00000000000E+00 0. -1.
         11   -1    0    0    0    0 -0.00000000000E+00 -0.00000000000E+00 -0.50000000000E+03  0.50000000000E+03  0.00000000000E+00 0. -1.
        -11    1    1    2    0    0  0.97594229288E+01 -0.50073447089E+00  0.49901470766E+03  0.49911038412E+03  0.00000000000E+00 0. -1.
         11    1    1    2    0    0 -0.10339321669E+02 -0.28073271301E+01 -0.47885974017E+03  0.47897957515E+03  0.00000000000E+00 0. -1.
        -15    1    1    2    0    0  0.15888044272E+01  0.39917360366E+01 -0.59925079221E+01  0.75845986242E+01  0.17770000000E+01 0. -1.
         15    1    1    2    0    0 -0.10089056872E+01 -0.68367443563E+00 -0.14162459569E+02  0.14325442104E+02  0.17770000000E+01 0.  1.
</event>
<event>
 6    1  0.1823098E-004  0.4941457E+03  0.7546771E-02  0.9413005E-01
        -11   -1    0    0    0    0  0.00000000000E+00  0.00000000000E+00  0.50000000000E+03  0.50000000000E+03  0.00000000000E+00 0. -1.
         11   -1    0    0    0    0 -0.00000000000E+00 -0.00000000000E+00 -0.50000000000E+03  0.50000000000E+03  0.00000000000E+00 0. -1.
        -11    1    1    2    0    0  0.47632539126E+01  0.54810392527E+01  0.49244023715E+03  0.49249377412E+03  0.00000000000E+00 0. -1.
         11    1    1    2    0    0 -0.31225532951E+01 -0.10982800299E+02 -0.49568812702E+03  0.49581961590E+03  0.00000000000E+00 0. -1.
        -15    1    1    2    0    0 -0.26597605875E+01  0.46841873882E+01 -0.19837329379E+01  0.60090650886E+01  0.17770000000E+01 0. -1.
         15    1    1    2    0    0  0.10190599700E+01  0.81757365776E+00  0.52316228016E+01  0.56775448960E+01  0.17770000000E+01 0.  1.
</event>
<event>
 6    1  0.1823098E-004  0.5108798E+03  0.7546771E-02  0.9375789E-01
        -11   -1    0    0    0    0  0.00000000000E+00  0.00000000000E+00  0.50000000000E+03  0.50000000000E+03  0.00000000000E+00 0.  1.
         11   -1    0    0    0    0 -0.00000000000E+00 -0.00000000000E+00 -0.50000000000E+03  0.50000000000E+03  0.00000000000E+00 0. -1.
        -11    1    1    2    0    0  0.23410718656E+02  0.17792182143E+01  0.48855636256E+03  0.48912017620E+03  0.00000000000E+00 0.  1.
         11    1    1    2    0    0 -0.78108782702E+01  0.23381796616E+02 -0.46413630931E+03  0.46479052470E+03  0.00000000000E+00 0. -1.
        -15    1    1    2    0    0  0.82117532394E+00 -0.31407979547E+01  0.47239407320E+01  0.60010237247E+01  0.17770000000E+01 0. -1.
         15    1    1    2    0    0 -0.16421015710E+02 -0.22020216876E+02 -0.29143993981E+02  0.40088275373E+02  0.17770000000E+01 0.  1.
</event>
<event>
 6    1  0.1823098E-004  0.5000544E+03  0.7546771E-02  0.9399688E-01
        -11   -1    0    0    0    0  0.00000000000E+00  0.00000000000E+00  0.50000000000E+03  0.50000000000E+03  0.00000000000E+00 0. -1.
         11   -1    0    0    0    0 -0.00000000000E+00 -0.00000000000E+00 -0.50000000000E+03  0.50000000000E+03  0.00000000000E+00 0.  1.
        -11    1    1    2    0    0  0.25908996236E+01 -0.29312337879E+01  0.91848843643E+02  0.91932121541E+02  0.00000000000E+00 0. -1.
         11    1    1    2    0    0  0.61231780535E+00  0.84786602613E+01 -0.49987329943E+03  0.49994557513E+03  0.00000000000E+00 0.  1.
        -15    1    1    2    0    0 -0.23256996305E+01 -0.59601618872E+01  0.26340397217E+03  0.26348765188E+03  0.17770000000E+01 0. -1.
         15    1    1    2    0    0 -0.87751779846E+00  0.41273541373E+00  0.14462048361E+03  0.14463465144E+03  0.17770000000E+01 0. -1.
</event>
<event>
 6    1  0.1823098E-004  0.5010200E+03  0.7546771E-02  0.9397530E-01
        -11   -1    0    0    0    0  0.00000000000E+00  0.00000000000E+00  0.50000000000E+03  0.50000000000E+03  0.00000000000E+00 0. -1.
         11   -1    0    0    0    0 -0.00000000000E+00 -0.00000000000E+00 -0.50000000000E+03  0.50000000000E+03  0.00000000000E+00 0.  1.
        -11    1    1    2    0    0  0.14133976236E+02  0.30516480864E+02  0.49784541607E+03  0.49898004288E+03  0.00000000000E+00 0. -1.
         11    1    1    2    0    0 -0.23659196767E+02 -0.22322849056E+02 -0.18543540460E+03  0.18826671628E+03  0.00000000000E+00 0.  1.
        -15    1    1    2    0    0  0.29359983353E+01 -0.14433893357E+01 -0.39659204709E+02  0.39833575111E+02  0.17770000000E+01 0. -1.
         15    1    1    2    0    0  0.65892221963E+01 -0.67502424721E+01 -0.27275080676E+03  0.27291966573E+03  0.17770000000E+01 0. -1.
</event>
<event>
 6    1  0.1823098E-004  0.5000848E+03  0.7546771E-02  0.9399620E-01
        -11   -1    0    0    0    0  0.00000000000E+00  0.00000000000E+00  0.50000000000E+03  0.50000000000E+03  0.00000000000E+00 0.  1.
         11   -1    0    0    0    0 -0.00000000000E+00 -0.00000000000E+00 -0.50000000000E+03  0.50000000000E+03  0.00000000000E+00 0. -1.
        -11    1    1    2    0    0 -0.73320841290E+01 -0.48695200111E+01  0.49983775894E+03  0.49991524976E+03  0.00000000000E+00 0.  1.
         11    1    1    2    0    0 -0.12279577310E+01 -0.15985541971E+01 -0.21359088100E+02  0.21453994970E+02  0.00000000000E+00 0. -1.
        -15    1    1    2    0    0  0.15444721952E+01  0.20883637933E+01 -0.79230859606E+02  0.79293338311E+02  0.17770000000E+01 0. -1.
         15    1    1    2    0    0  0.70155696649E+01  0.43797104149E+01 -0.39924781123E+03  0.39933741696E+03  0.17770000000E+01 0. -1.
</event>
<event>
 6    1  0.1823098E-004  0.5002415E+03  0.7546771E-02  0.9399269E-01
        -11   -1    0    0    0    0  0.00000000000E+00  0.00000000000E+00  0.50000000000E+03  0.50000000000E+03  0.00000000000E+00 0. -1.
         11   -1    0    0    0    0 -0.00000000000E+00 -0.00000000000E+00 -0.50000000000E+03  0.50000000000E+03  0.00000000000E+00 0.  1.
        -11    1    1    2    0    0 -0.62577462900E+01  0.28959371969E+02  0.49887949072E+03  0.49975849255E+03  0.00000000000E+00 0. -1.
         11    1    1    2    0    0  0.47672740715E+01 -0.30028123656E+02 -0.35943172191E+03  0.36071536955E+03  0.00000000000E+00 0.  1.
        -15    1    1    2    0    0  0.73628397957E+00 -0.70924491307E+00 -0.62748394872E+02  0.62781875812E+02  0.17770000000E+01 0. -1.
         15    1    1    2    0    0  0.75418823896E+00  0.17779966003E+01 -0.76699373942E+02  0.76744262091E+02  0.17770000000E+01 0.  1.
</event>
<event>
 6    1  0.1823098E-004  0.5122283E+03  0.7546771E-02  0.9372856E-01
        -11   -1    0    0    0    0  0.00000000000E+00  0.00000000000E+00  0.50000000000E+03  0.50000000000E+03  0.00000000000E+00 0. -1.
         11   -1    0    0    0    0 -0.00000000000E+00 -0.00000000000E+00 -0.50000000000E+03  0.50000000000E+03  0.00000000000E+00 0.  1.
        -11    1    1    2    0    0  0.49731016026E+01 -0.68174957035E+01  0.45132167557E+03  0.45140055918E+03  0.00000000000E+00 0. -1.
         11    1    1    2    0    0  0.38529645047E+02 -0.10577653668E+02 -0.48613252718E+03  0.48777172354E+03  0.00000000000E+00 0.  1.
        -15    1    1    2    0    0 -0.28310515032E+01 -0.65571318765E+00  0.83706280215E+01  0.90371430702E+01  0.17770000000E+01 0. -1.
         15    1    1    2    0    0 -0.40671695146E+02  0.18050862559E+02  0.26440223585E+02  0.51790574214E+02  0.17770000000E+01 0.  1.
</event>
<event>
 6    1  0.1823098E-004  0.5165263E+03  0.7546771E-02  0.9363572E-01
        -11   -1    0    0    0    0  0.00000000000E+00  0.00000000000E+00  0.50000000000E+03  0.50000000000E+03  0.00000000000E+00 0.  1.
         11   -1    0    0    0    0 -0.00000000000E+00 -0.00000000000E+00 -0.50000000000E+03  0.50000000000E+03  0.00000000000E+00 0.  1.
        -11    1    1    2    0    0 -0.14029761572E+02  0.25609500139E+02  0.48259109665E+03  0.48347372966E+03  0.00000000000E+00 0.  1.
         11    1    1    2    0    0 -0.45086597563E+01 -0.51178134691E+02 -0.41384001293E+03  0.41701688909E+03  0.00000000000E+00 0.  1.
        -15    1    1    2    0    0  0.26214820252E+02 -0.17407042785E+01 -0.13579056210E+01  0.26367565092E+02  0.17770000000E+01 0. -1.
         15    1    1    2    0    0 -0.76763989237E+01  0.27309338830E+02 -0.67393178097E+02  0.73141816157E+02  0.17770000000E+01 0.  1.
</event>
<event>
 6    1  0.1823098E-004  0.5001054E+03  0.7546771E-02  0.9399574E-01
        -11   -1    0    0    0    0  0.00000000000E+00  0.00000000000E+00  0.50000000000E+03  0.50000000000E+03  0.00000000000E+00 0. -1.
         11   -1    0    0    0    0 -0.00000000000E+00 -0.00000000000E+00 -0.50000000000E+03  0.50000000000E+03  0.00000000000E+00 0. -1.
        -11    1    1    2    0    0 -0.72684889602E+01  0.83740269932E+01  0.49977159492E+03  0.49989459124E+03  0.00000000000E+00 0. -1.
         11    1    1    2    0    0  0.58308547619E-01  0.19153491979E+01 -0.13212332690E+02  0.13350569185E+02  0.00000000000E+00 0. -1.
        -15    1    1    2    0    0  0.39808264847E-01 -0.21670242060E+01 -0.10840774032E+03  0.10844396465E+03  0.17770000000E+01 0. -1.
         15    1    1    2    0    0  0.71703721477E+01 -0.81223519851E+01 -0.37815152191E+03  0.37831087493E+03  0.17770000000E+01 0. -1.
</event>
<event>
 6    1  0.1823098E-004  0.5050401E+03  0.7546771E-02  0.9388602E-01
        -11   -1    0    0    0    0  0.00000000000E+00  0.00000000000E+00  0.50000000000E+03  0.50000000000E+03  0.00000000000E+00 0.  1.
         11   -1    0    0    0    0 -0.00000000000E+00 -0.00000000000E+00 -0.50000000000E+03  0.50000000000E+03  0.00000000000E+00 0.  1.
        -11    1    1    2    0    0  0.27720227778E+01 -0.90095339785E+01  0.46010767794E+03  0.46020422762E+03  0.00000000000E+00 0.  1.
         11    1    1    2    0    0  0.21479361282E+02  0.14927802624E+02 -0.49426829253E+03  0.49495994510E+03  0.00000000000E+00 0.  1.
        -15    1    1    2    0    0 -0.76527481456E+01 -0.79629633866E+01  0.80660159050E+01  0.13791000024E+02  0.17770000000E+01 0. -1.
         15    1    1    2    0    0 -0.16598635914E+02  0.20446947413E+01  0.26094598678E+02  0.31044827265E+02  0.17770000000E+01 0.  1.
</event>
<event>
 6    1  0.1823098E-004  0.5086873E+03  0.7546771E-02  0.9380578E-01
        -11   -1    0    0    0    0  0.00000000000E+00  0.00000000000E+00  0.50000000000E+03  0.50000000000E+03  0.00000000000E+00 0. -1.
         11   -1    0    0    0    0 -0.00000000000E+00 -0.00000000000E+00 -0.50000000000E+03  0.50000000000E+03  0.00000000000E+00 0. -1.
        -11    1    1    2    0    0  0.36067611866E+01  0.14943087800E+02  0.49107211793E+03  0.49131265973E+03  0.00000000000E+00 0. -1.
         11    1    1    2    0    0  0.19565939490E+02 -0.18257688912E+02 -0.46491785695E+03  0.46568743047E+03  0.00000000000E+00 0. -1.
        -15    1    1    2    0    0 -0.14318732802E+01 -0.86681329156E+01 -0.45954117069E+01  0.10072850991E+02  0.17770000000E+01 0.  1.
         15    1    1    2    0    0 -0.21740827396E+02  0.11982734027E+02 -0.21558849277E+02  0.32927058808E+02  0.17770000000E+01 0. -1.
</event>
<event>
 6    1  0.1823098E-004  0.5005605E+03  0.7546771E-02  0.9398556E-01
        -11   -1    0    0    0    0  0.00000000000E+00  0.00000000000E+00  0.50000000000E+03  0.50000000000E+03  0.00000000000E+00 0. -1.
         11   -1    0    0    0    0 -0.00000000000E+00 -0.00000000000E+00 -0.50000000000E+03  0.50000000000E+03  0.00000000000E+00 0. -1.
        -11    1    1    2    0    0  0.41149501567E+01  0.56914057423E+01  0.49939009764E+03  0.49943948036E+03  0.00000000000E+00 0. -1.
         11    1    1    2    0    0 -0.12853059556E+02  0.19201700197E+01 -0.39528713791E+03  0.39550070745E+03  0.00000000000E+00 0. -1.
        -15    1    1    2    0    0  0.87066809979E+01 -0.40812010380E+01 -0.61334915866E+02  0.62109517220E+02  0.17770000000E+01 0. -1.
         15    1    1    2    0    0  0.31428401629E-01 -0.35303747239E+01 -0.42768043868E+02  0.42950294978E+02  0.17770000000E+01 0.  1.
</event>
<event>
 6    1  0.1823098E-004  0.5005787E+03  0.7546771E-02  0.9398516E-01
        -11   -1    0    0    0    0  0.00000000000E+00  0.00000000000E+00  0.50000000000E+03  0.50000000000E+03  0.00000000000E+00 0. -1.
         11   -1    0    0    0    0 -0.00000000000E+00 -0.00000000000E+00 -0.50000000000E+03  0.50000000000E+03  0.00000000000E+00 0.  1.
        -11    1    1    2    0    0 -0.96187240011E+01  0.19988103990E+00  0.27128775070E+03  0.27145829051E+03  0.00000000000E+00 0. -1.
         11    1    1    2    0    0 -0.91217999030E+01  0.12160884013E+02 -0.49918985642E+03  0.49942127216E+03  0.00000000000E+00 0.  1.
        -15    1    1    2    0    0  0.64891797385E+01 -0.79658403108E+01  0.10692013697E+03  0.10742735910E+03  0.17770000000E+01 0.  1.
         15    1    1    2    0    0  0.12251344166E+02 -0.43949247420E+01  0.12098196875E+03  0.12169307823E+03  0.17770000000E+01 0. -1.
</event>
<event>
 6    1  0.1823098E-004  0.4788572E+03  0.7546771E-02  0.9448402E-01
        -11   -1    0    0    0    0  0.00000000000E+00  0.00000000000E+00  0.50000000000E+03  0.50000000000E+03  0.00000000000E+00 0. -1.
         11   -1    0    0    0    0 -0.00000000000E+00 -0.00000000000E+00 -0.50000000000E+03  0.50000000000E+03  0.00000000000E+00 0. -1.
        -11    1    1    2    0    0  0.13541012860E+02  0.97348730011E+01  0.48348025741E+03  0.48376780183E+03  0.00000000000E+00 0. -1.
         11    1    1    2    0    0 -0.37716898436E+01  0.19007635842E+02 -0.47407792692E+03  0.47447381030E+03  0.00000000000E+00 0. -1.
        -15    1    1    2    0    0  0.40224518288E+00 -0.10765959922E+02  0.89135703542E+01  0.14095288563E+02  0.17770000000E+01 0.  1.
         15    1    1    2    0    0 -0.10171568199E+02 -0.17976548922E+02 -0.18315900840E+02  0.27663099309E+02  0.17770000000E+01 0. -1.
</event>
<event>
 6    1  0.1823098E-004  0.5052335E+03  0.7546771E-02  0.9388175E-01
        -11   -1    0    0    0    0  0.00000000000E+00  0.00000000000E+00  0.50000000000E+03  0.50000000000E+03  0.00000000000E+00 0. -1.
         11   -1    0    0    0    0 -0.00000000000E+00 -0.00000000000E+00 -0.50000000000E+03  0.50000000000E+03  0.00000000000E+00 0.  1.
        -11    1    1    2    0    0 -0.83909050694E+01 -0.47210600204E+01  0.47811766723E+03  0.47821459556E+03  0.00000000000E+00 0. -1.
         11    1    1    2    0    0  0.17858412651E+02 -0.50719197244E+01 -0.49441811460E+03  0.49476653011E+03  0.00000000000E+00 0.  1.
        -15    1    1    2    0    0 -0.24877524537E+01  0.10033171506E+02  0.16788909218E+02  0.19795924946E+02  0.17770000000E+01 0. -1.
         15    1    1    2    0    0 -0.69797551284E+01 -0.24019176109E+00 -0.48846184299E+00  0.72229493772E+01  0.17770000000E+01 0.  1.
</event>
<event>
 6    1  0.1823098E-004  0.5007705E+03  0.7546771E-02  0.9398087E-01
        -11   -1    0    0    0    0  0.00000000000E+00  0.00000000000E+00  0.50000000000E+03  0.50000000000E+03  0.00000000000E+00 0. -1.
         11   -1    0    0    0    0 -0.00000000000E+00 -0.00000000000E+00 -0.50000000000E+03  0.50000000000E+03  0.00000000000E+00 0. -1.
        -11    1    1    2    0    0 -0.16567440280E+01  0.93989238704E+01  0.49913830055E+03  0.49922953402E+03  0.00000000000E+00 0. -1.
         11    1    1    2    0    0 -0.67046664755E+01 -0.10818943287E+02 -0.42170096198E+03  0.42189299997E+03  0.00000000000E+00 0. -1.
        -15    1    1    2    0    0  0.56415674946E+01  0.62591611219E+01 -0.56151696485E+02  0.56808231172E+02  0.17770000000E+01 0. -1.
         15    1    1    2    0    0  0.27198430089E+01 -0.48391417051E+01 -0.21285642079E+02  0.22069234834E+02  0.17770000000E+01 0.  1.
</event>
<event>
 6    1  0.1823098E-004  0.5002196E+03  0.7546771E-02  0.9399319E-01
        -11   -1    0    0    0    0  0.00000000000E+00  0.00000000000E+00  0.50000000000E+03  0.50000000000E+03  0.00000000000E+00 0. -1.
         11   -1    0    0    0    0 -0.00000000000E+00 -0.00000000000E+00 -0.50000000000E+03  0.50000000000E+03  0.00000000000E+00 0.  1.
        -11    1    1    2    0    0  0.89176853032E-01 -0.40322473245E+01  0.20089723663E+03  0.20093771836E+03  0.00000000000E+00 0. -1.
         11    1    1    2    0    0 -0.43836487569E+01 -0.98453371223E+01 -0.49966423111E+03  0.49978044268E+03  0.00000000000E+00 0.  1.
        -15    1    1    2    0    0 -0.13938825500E+01  0.27423902396E+01  0.12763795843E+03  0.12768739082E+03  0.17770000000E+01 0. -1.
         15    1    1    2    0    0  0.56883544538E+01  0.11135194207E+02  0.17112903604E+03  0.17159444814E+03  0.17770000000E+01 0.  1.
</event>
<event>
 6    1  0.1823098E-004  0.5014085E+03  0.7546771E-02  0.9396664E-01
        -11   -1    0    0    0    0  0.00000000000E+00  0.00000000000E+00  0.50000000000E+03  0.50000000000E+03  0.00000000000E+00 0. -1.
         11   -1    0    0    0    0 -0.00000000000E+00 -0.00000000000E+00 -0.50000000000E+03  0.50000000000E+03  0.00000000000E+00 0. -1.
        -11    1    1    2    0    0  0.42384054393E+01 -0.55297963071E+01  0.42249443188E+03  0.42255187574E+03  0.00000000000E+00 0. -1.
         11    1    1    2    0    0  0.97270266655E+01  0.14549321771E+02 -0.49828424801E+03  0.49859150578E+03  0.00000000000E+00 0. -1.
        -15    1    1    2    0    0 -0.13416624542E+02 -0.28450888571E+01  0.36326954791E+02  0.38870370697E+02  0.17770000000E+01 0.  1.
         15    1    1    2    0    0 -0.54880756304E+00 -0.61744366067E+01  0.39462861346E+02  0.39986247783E+02  0.17770000000E+01 0. -1.
</event>
<event>
 6    1  0.1823098E-004  0.5008161E+03  0.7546771E-02  0.9397985E-01
        -11   -1    0    0    0    0  0.00000000000E+00  0.00000000000E+00  0.50000000000E+03  0.50000000000E+03  0.00000000000E+00 0.  1.
         11   -1    0    0    0    0 -0.00000000000E+00 -0.00000000000E+00 -0.50000000000E+03  0.50000000000E+03  0.00000000000E+00 0. -1.
        -11    1    1    2    0    0 -0.24535238477E+01 -0.57249075574E+01  0.27774779173E+03  0.27781762031E+03  0.00000000000E+00 0.  1.
         11    1    1    2    0    0 -0.27815460412E+02  0.20779774770E+01 -0.49840399468E+03  0.49918389371E+03  0.00000000000E+00 0. -1.
        -15    1    1    2    0    0  0.25164260958E+02  0.63545853346E+01  0.18742689489E+03  0.18922372854E+03  0.17770000000E+01 0.  1.
         15    1    1    2    0    0  0.51047233021E+01 -0.27076552542E+01  0.33229308060E+02  0.33774757440E+02  0.17770000000E+01 0. -1.
</event>
<event>
 6    1  0.1823098E-004  0.4927381E+03  0.7546771E-02  0.9416207E-01
        -11   -1    0    0    0    0  0.00000000000E+00  0.00000000000E+00  0.50000000000E+03  0.50000000000E+03  0.00000000000E+00 0. -1.
         11   -1    0    0    0    0 -0.00000000000E+00 -0.00000000000E+00 -0.50000000000E+03  0.50000000000E+03  0.00000000000E+00 0.  1.
        -11    1    1    2    0    0  0.72720632861E+01  0.31401088238E+00  0.49390819520E+03  0.49396182726E+03  0.00000000000E+00 0. -1.
         11    1    1    2    0    0 -0.96169800384E+01  0.68981561488E+01 -0.49140433274E+03  0.49154683307E+03  0.00000000000E+00 0.  1.
        -15    1    1    2    0    0  0.58073403054E+01 -0.13480700264E+01 -0.38637163262E+01  0.73231500782E+01  0.17770000000E+01 0.  1.
         15    1    1    2    0    0 -0.34624235531E+01 -0.58640970047E+01  0.13598538701E+01  0.71681895964E+01  0.17770000000E+01 0. -1.
</event>
<event>
 6    1  0.1823098E-004  0.4882638E+03  0.7546771E-02  0.9426460E-01
        -11   -1    0    0    0    0  0.00000000000E+00  0.00000000000E+00  0.50000000000E+03  0.50000000000E+03  0.00000000000E+00 0.  1.
         11   -1    0    0    0    0 -0.00000000000E+00 -0.00000000000E+00 -0.50000000000E+03  0.50000000000E+03  0.00000000000E+00 0. -1.
        -11    1    1    2    0    0 -0.78117250744E+01  0.27197548479E-01  0.49377672695E+03  0.49383851598E+03  0.00000000000E+00 0.  1.
         11    1    1    2    0    0  0.28239432106E+01  0.18630052509E+02 -0.48257652057E+03  0.48294425322E+03  0.00000000000E+00 0. -1.
        -15    1    1    2    0    0  0.20500519654E+01 -0.14479369965E+02 -0.95787837882E+01  0.17571730009E+02  0.17770000000E+01 0.  1.
         15    1    1    2    0    0  0.29377298983E+01 -0.41778800930E+01 -0.16214225914E+01  0.56455007968E+01  0.17770000000E+01 0. -1.
</event>
<event>
 6    1  0.1823098E-004  0.5001619E+03  0.7546771E-02  0.9399448E-01
        -11   -1    0    0    0    0  0.00000000000E+00  0.00000000000E+00  0.50000000000E+03  0.50000000000E+03  0.00000000000E+00 0. -1.
         11   -1    0    0    0    0 -0.00000000000E+00 -0.00000000000E+00 -0.50000000000E+03  0.50000000000E+03  0.00000000000E+00 0.  1.
        -11    1    1    2    0    0 -0.81557222031E+01 -0.45719652398E+01  0.49975068859E+03  0.49983814322E+03  0.00000000000E+00 0. -1.
         11    1    1    2    0    0 -0.32677171656E+01  0.22488253243E+01 -0.31939266552E+02  0.32184653776E+02  0.00000000000E+00 0.  1.
        -15    1    1    2    0    0  0.50263004410E+01  0.48681575147E+00 -0.16277127406E+03  0.16285928304E+03  0.17770000000E+01 0.  1.
         15    1    1    2    0    0  0.63971389277E+01  0.18363241640E+01 -0.30504014798E+03  0.30511791996E+03  0.17770000000E+01 0.  1.
</event>
<event>
 6    1  0.1823098E-004  0.5000414E+03  0.7546771E-02  0.9399717E-01
        -11   -1    0    0    0    0  0.00000000000E+00  0.00000000000E+00  0.50000000000E+03  0.50000000000E+03  0.00000000000E+00 0. -1.
         11   -1    0    0    0    0 -0.00000000000E+00 -0.00000000000E+00 -0.50000000000E+03  0.50000000000E+03  0.00000000000E+00 0.  1.
        -11    1    1    2    0    0 -0.43431876005E+01  0.16717955684E+00  0.11494341707E+03  0.11502556392E+03  0.00000000000E+00 0. -1.
         11    1    1    2    0    0  0.14158036504E+02  0.72065713685E+01 -0.49970615241E+03  0.49995862171E+03  0.00000000000E+00 0.  1.
        -15    1    1    2    0    0 -0.90981001132E+01 -0.66351995532E+01  0.35463177659E+03  0.35481496022E+03  0.17770000000E+01 0. -1.
         15    1    1    2    0    0 -0.71674879052E+00 -0.73855137210E+00  0.30130958749E+02  0.30200854145E+02  0.17770000000E+01 0.  1.
</event>
<event>
 6    1  0.1823098E-004  0.5005243E+03  0.7546771E-02  0.9398637E-01
        -11   -1    0    0    0    0  0.00000000000E+00  0.00000000000E+00  0.50000000000E+03  0.50000000000E+03  0.00000000000E+00 0. -1.
         11   -1    0    0    0    0 -0.00000000000E+00 -0.00000000000E+00 -0.50000000000E+03  0.50000000000E+03  0.00000000000E+00 0.  1.
        -11    1    1    2    0    0 -0.17527189113E+01  0.91901857077E+01  0.49938803446E+03  0.49947566557E+03  0.00000000000E+00 0. -1.
         11    1    1    2    0    0  0.12664947362E+02 -0.13484991341E+02 -0.29039140087E+03  0.29098008795E+03  0.00000000000E+00 0.  1.
        -15    1    1    2    0    0 -0.45673907232E+01  0.64605283674E+01 -0.10089737778E+03  0.10122271512E+03  0.17770000000E+01 0.  1.
         15    1    1    2    0    0 -0.63448377275E+01 -0.21657227343E+01 -0.10809925581E+03  0.10832153136E+03  0.17770000000E+01 0. -1.
</event>
<event>
 6    1  0.1823098E-004  0.5067043E+03  0.7546771E-02  0.9384932E-01
        -11   -1    0    0    0    0  0.00000000000E+00  0.00000000000E+00  0.50000000000E+03  0.50000000000E+03  0.00000000000E+00 0.  1.
         11   -1    0    0    0    0 -0.00000000000E+00 -0.00000000000E+00 -0.50000000000E+03  0.50000000000E+03  0.00000000000E+00 0. -1.
        -11    1    1    2    0    0  0.72382974212E+01  0.27284883570E+01  0.49323500402E+03  0.49329565860E+03  0.00000000000E+00 0.  1.
         11    1    1    2    0    0  0.15080619455E+02  0.14322436334E+02 -0.45393123266E+03  0.45440743970E+03  0.00000000000E+00 0. -1.
        -15    1    1    2    0    0 -0.16738596824E+02 -0.19901674365E+02 -0.37256453188E+02  0.45469311621E+02  0.17770000000E+01 0.  1.
         15    1    1    2    0    0 -0.55803200523E+01  0.28507496743E+01 -0.20473181721E+01  0.68275900792E+01  0.17770000000E+01 0. -1.
</event>
<event>
 6    1  0.1823098E-004  0.5001728E+03  0.7546771E-02  0.9399423E-01
        -11   -1    0    0    0    0  0.00000000000E+00  0.00000000000E+00  0.50000000000E+03  0.50000000000E+03  0.00000000000E+00 0. -1.
         11   -1    0    0    0    0 -0.00000000000E+00 -0.00000000000E+00 -0.50000000000E+03  0.50000000000E+03  0.00000000000E+00 0. -1.
        -11    1    1    2    0    0  0.18382322473E+01  0.27106273600E+01  0.99607595771E+02  0.99661425505E+02  0.00000000000E+00 0. -1.
         11    1    1    2    0    0  0.13177153465E+02  0.40095787480E+01 -0.49963734270E+03  0.49982715844E+03  0.00000000000E+00 0. -1.
        -15    1    1    2    0    0 -0.15825846208E+02 -0.45840681037E+01  0.31924354028E+03  0.31967337523E+03  0.17770000000E+01 0. -1.
         15    1    1    2    0    0  0.81046049576E+00 -0.21361380044E+01  0.80786206642E+02  0.80838040825E+02  0.17770000000E+01 0. -1.
</event>
<event>
 6    1  0.1823098E-004  0.5000644E+03  0.7546771E-02  0.9399666E-01
        -11   -1    0    0    0    0  0.00000000000E+00  0.00000000000E+00  0.50000000000E+03  0.50000000000E+03  0.00000000000E+00 0.  1.
         11   -1    0    0    0    0 -0.00000000000E+00 -0.00000000000E+00 -0.50000000000E+03  0.50000000000E+03  0.00000000000E+00 0. -1.
        -11    1    1    2    0    0  0.82707001253E+01  0.98090018589E+01  0.49977089589E+03  0.49993556522E+03  0.00000000000E+00 0.  1.
         11    1    1    2    0    0 -0.41382108480E+01 -0.19170264260E+01 -0.59210348332E+02  0.59385731694E+02  0.00000000000E+00 0. -1.
        -15    1    1    2    0    0 -0.23321048855E+01 -0.63126887826E+01 -0.25831055282E+03  0.25840431146E+03  0.17770000000E+01 0.  1.
         15    1    1    2    0    0 -0.18003843918E+01 -0.15792866503E+01 -0.18224999474E+03  0.18227439162E+03  0.17770000000E+01 0. -1.
</event>
<event>
 6    1  0.1823098E-004  0.4703392E+03  0.7546771E-02  0.9468739E-01
        -11   -1    0    0    0    0  0.00000000000E+00  0.00000000000E+00  0.50000000000E+03  0.50000000000E+03  0.00000000000E+00 0.  1.
         11   -1    0    0    0    0 -0.00000000000E+00 -0.00000000000E+00 -0.50000000000E+03  0.50000000000E+03  0.00000000000E+00 0. -1.
        -11    1    1    2    0    0 -0.10073783424E+02 -0.75345635004E+01  0.47734386351E+03  0.47750959654E+03  0.00000000000E+00 0.  1.
         11    1    1    2    0    0  0.19814148261E+02 -0.40516673065E+02 -0.46237016794E+03  0.46456471397E+03  0.00000000000E+00 0. -1.
        -15    1    1    2    0    0 -0.82103329088E+00  0.11936919852E+02  0.76862338711E+01  0.14331785350E+02  0.17770000000E+01 0.  1.
         15    1    1    2    0    0 -0.89193315460E+01  0.36114316714E+02 -0.22659929444E+02  0.43593904142E+02  0.17770000000E+01 0. -1.
</event>
<event>
 6    1  0.1823098E-004  0.5036134E+03  0.7546771E-02  0.9391761E-01
        -11   -1    0    0    0    0  0.00000000000E+00  0.00000000000E+00  0.50000000000E+03  0.50000000000E+03  0.00000000000E+00 0.  1.
         11   -1    0    0    0    0 -0.00000000000E+00 -0.00000000000E+00 -0.50000000000E+03  0.50000000000E+03  0.00000000000E+00 0. -1.
        -11    1    1    2    0    0  0.77874025743E+01  0.96446836944E+01  0.45085305128E+03  0.45102343333E+03  0.00000000000E+00 0.  1.
         11    1    1    2    0    0  0.15216207382E+00  0.11911345628E+02 -0.49624361793E+03  0.49638657480E+03  0.00000000000E+00 0. -1.
        -15    1    1    2    0    0 -0.70331571631E+01 -0.22960456275E+02  0.40314760209E+02  0.46958337617E+02  0.17770000000E+01 0.  1.
         15    1    1    2    0    0 -0.90640748498E+00  0.14044269527E+01  0.50758064412E+01  0.56316542527E+01  0.17770000000E+01 0.  1.
</event>
<event>
 6    1  0.1823098E-004  0.5040665E+03  0.7546771E-02  0.9390756E-01
        -11   -1    0    0    0    0  0.00000000000E+00  0.00000000000E+00  0.50000000000E+03  0.50000000000E+03  0.00000000000E+00 0. -1.
         11   -1    0    0    0    0 -0.00000000000E+00 -0.00000000000E+00 -0.50000000000E+03  0.50000000000E+03  0.00000000000E+00 0. -1.
        -11    1    1    2    0    0 -0.10208264332E+02  0.85449798110E+01  0.49575480623E+03  0.49593351696E+03  0.00000000000E+00 0. -1.
         11    1    1    2    0    0 -0.93855578641E+01 -0.12822796870E+02 -0.46183728164E+03  0.46211057933E+03  0.00000000000E+00 0. -1.
        -15    1    1    2    0    0  0.32122735610E+01  0.18658074889E+01  0.58166254374E-01  0.41183796971E+01  0.17770000000E+01 0.  1.
         15    1    1    2    0    0  0.16381548635E+02  0.24120095701E+01 -0.33975690846E+02  0.37837524011E+02  0.17770000000E+01 0. -1.
</event>
<event>
 6    1  0.1823098E-004  0.5048337E+03  0.7546771E-02  0.9389058E-01
        -11   -1    0    0    0    0  0.00000000000E+00  0.00000000000E+00  0.50000000000E+03  0.50000000000E+03  0.00000000000E+00 0. -1.
         11   -1    0    0    0    0 -0.00000000000E+00 -0.00000000000E+00 -0.50000000000E+03  0.50000000000E+03  0.00000000000E+00 0.  1.
        -11    1    1    2    0    0  0.12707295443E+01  0.13230822346E+03  0.31716215646E+03  0.34365522582E+03  0.00000000000E+00 0. -1.
         11    1    1    2    0    0 -0.11504019477E+02 -0.12996672305E+03 -0.47766718309E+03  0.49516626437E+03  0.00000000000E+00 0.  1.
        -15    1    1    2    0    0 -0.10674726551E+01 -0.71512279234E+00  0.54796059993E+02  0.54839919933E+02  0.17770000000E+01 0.  1.
         15    1    1    2    0    0  0.11300762588E+02 -0.16263776116E+01  0.10570896664E+03  0.10633858988E+03  0.17770000000E+01 0. -1.
</event>
<event>
 6    1  0.1823098E-004  0.5049086E+03  0.7546771E-02  0.9388893E-01
        -11   -1    0    0    0    0  0.00000000000E+00  0.00000000000E+00  0.50000000000E+03  0.50000000000E+03  0.00000000000E+00 0.  1.
         11   -1    0    0    0    0 -0.00000000000E+00 -0.00000000000E+00 -0.50000000000E+03  0.50000000000E+03  0.00000000000E+00 0.  1.
        -11    1    1    2    0    0  0.39292703199E+01 -0.55958847646E+01  0.49504419051E+03  0.49509140939E+03  0.00000000000E+00 0.  1.
         11    1    1    2    0    0  0.57847053648E+01  0.82606516349E+01 -0.48578007412E+03  0.48588474106E+03  0.00000000000E+00 0.  1.
        -15    1    1    2    0    0 -0.38605654161E+01 -0.34192071198E+01  0.23000305415E+01  0.59196969646E+01  0.17770000000E+01 0.  1.
         15    1    1    2    0    0 -0.58534102686E+01  0.75444024952E+00 -0.11564146927E+02  0.13104152587E+02  0.17770000000E+01 0. -1.
</event>
<event>
 6    1  0.1823098E-004  0.5006440E+03  0.7546771E-02  0.9398370E-01
        -11   -1    0    0    0    0  0.00000000000E+00  0.00000000000E+00  0.50000000000E+03  0.50000000000E+03  0.00000000000E+00 0.  1.
         11   -1    0    0    0    0 -0.00000000000E+00 -0.00000000000E+00 -0.50000000000E+03  0.50000000000E+03  0.00000000000E+00 0. -1.
        -11    1    1    2    0    0  0.64045981219E+01 -0.21154486301E+01  0.49931048399E+03  0.49935603874E+03  0.00000000000E+00 0.  1.
         11    1    1    2    0    0  0.42716502995E+01  0.90903941766E+01 -0.40960291112E+03  0.40972603903E+03  0.00000000000E+00 0. -1.
        -15    1    1    2    0    0 -0.64320733653E+01 -0.64378772703E+01 -0.72767695455E+02  0.73356070385E+02  0.17770000000E+01 0. -1.
         15    1    1    2    0    0 -0.42441750561E+01 -0.53706827618E+00 -0.16939877418E+02  0.17561851844E+02  0.17770000000E+01 0.  1.
</event>
<event>
 6    1  0.1823098E-004  0.5061378E+03  0.7546771E-02  0.9386180E-01
        -11   -1    0    0    0    0  0.00000000000E+00  0.00000000000E+00  0.50000000000E+03  0.50000000000E+03  0.00000000000E+00 0.  1.
         11   -1    0    0    0    0 -0.00000000000E+00 -0.00000000000E+00 -0.50000000000E+03  0.50000000000E+03  0.00000000000E+00 0. -1.
        -11    1    1    2    0    0  0.62707616007E+01 -0.12724284591E+01  0.47117481667E+03  0.47121826088E+03  0.00000000000E+00 0.  1.
         11    1    1    2    0    0  0.26799845213E+01 -0.18946792463E+02 -0.49349137268E+03  0.49386222590E+03  0.00000000000E+00 0. -1.
        -15    1    1    2    0    0 -0.46169376912E+01  0.17941090881E+02  0.91054930888E+01  0.20718749698E+02  0.17770000000E+01 0.  1.
         15    1    1    2    0    0 -0.43338084307E+01  0.22781300410E+01  0.13211062919E+02  0.14200763517E+02  0.17770000000E+01 0. -1.
</event>
<event>
 6    1  0.1823098E-004  0.5000753E+03  0.7546771E-02  0.9399641E-01
        -11   -1    0    0    0    0  0.00000000000E+00  0.00000000000E+00  0.50000000000E+03  0.50000000000E+03  0.00000000000E+00 0.  1.
         11   -1    0    0    0    0 -0.00000000000E+00 -0.00000000000E+00 -0.50000000000E+03  0.50000000000E+03  0.00000000000E+00 0. -1.
        -11    1    1    2    0    0 -0.77517270781E+01 -0.31655032225E+01  0.30793165023E+03  0.30804546888E+03  0.00000000000E+00 0.  1.
         11    1    1    2    0    0  0.11604096092E+02 -0.13623361501E+01 -0.49978816704E+03  0.49992471725E+03  0.00000000000E+00 0. -1.
        -15    1    1    2    0    0 -0.10378458074E+01  0.37472763917E+01  0.73736594053E+02  0.73860424016E+02  0.17770000000E+01 0.  1.
         15    1    1    2    0    0 -0.28145232063E+01  0.78056298085E+00  0.11811992275E+03  0.11816938986E+03  0.17770000000E+01 0.  1.
</event>
<event>
 6    1  0.1823098E-004  0.5000497E+03  0.7546771E-02  0.9399699E-01
        -11   -1    0    0    0    0  0.00000000000E+00  0.00000000000E+00  0.50000000000E+03  0.50000000000E+03  0.00000000000E+00 0.  1.
         11   -1    0    0    0    0 -0.00000000000E+00 -0.00000000000E+00 -0.50000000000E+03  0.50000000000E+03  0.00000000000E+00 0.  1.
        -11    1    1    2    0    0 -0.10137641027E+01 -0.89902200868E+00  0.12194241241E+02  0.12269290023E+02  0.00000000000E+00 0.  1.
         11    1    1    2    0    0  0.87138570312E+01 -0.62354073460E+01 -0.49983546611E+03  0.49995030232E+03  0.00000000000E+00 0.  1.
        -15    1    1    2    0    0 -0.48763954263E+01  0.20989231307E+01  0.22316642086E+03  0.22323663194E+03  0.17770000000E+01 0.  1.
         15    1    1    2    0    0 -0.28236975022E+01  0.50355062240E+01  0.26447480400E+03  0.26454377572E+03  0.17770000000E+01 0.  1.
</event>
<event>
 6    1  0.1823098E-004  0.5009280E+03  0.7546771E-02  0.9397736E-01
        -11   -1    0    0    0    0  0.00000000000E+00  0.00000000000E+00  0.50000000000E+03  0.50000000000E+03  0.00000000000E+00 0.  1.
         11   -1    0    0    0    0 -0.00000000000E+00 -0.00000000000E+00 -0.50000000000E+03  0.50000000000E+03  0.00000000000E+00 0. -1.
        -11    1    1    2    0    0  0.61304990671E+01  0.62102676758E+01  0.49899570434E+03  0.49907200222E+03  0.00000000000E+00 0.  1.
         11    1    1    2    0    0 -0.34806735712E+01  0.42641206016E+01 -0.77214426189E+01  0.94825360074E+01  0.00000000000E+00 0. -1.
        -15    1    1    2    0    0 -0.27544034484E+01 -0.17954123480E+01 -0.20523293487E+03  0.20526696161E+03  0.17770000000E+01 0. -1.
         15    1    1    2    0    0  0.10457795239E+00 -0.86789759294E+01 -0.28604132685E+03  0.28617850017E+03  0.17770000000E+01 0. -1.
</event>
<event>
 6    1  0.1823098E-004  0.4820319E+03  0.7546771E-02  0.9440937E-01
        -11   -1    0    0    0    0  0.00000000000E+00  0.00000000000E+00  0.50000000000E+03  0.50000000000E+03  0.00000000000E+00 0. -1.
         11   -1    0    0    0    0 -0.00000000000E+00 -0.00000000000E+00 -0.50000000000E+03  0.50000000000E+03  0.00000000000E+00 0.  1.
        -11    1    1    2    0    0 -0.94015074940E+01 -0.96227980677E+01  0.48885301903E+03  0.48903809750E+03  0.00000000000E+00 0. -1.
         11    1    1    2    0    0 -0.88614247955E+01 -0.14848714901E+02 -0.47529001355E+03  0.47560446399E+03  0.00000000000E+00 0.  1.
        -15    1    1    2    0    0  0.33635672493E+01  0.52850190762E+00 -0.39534300351E+01  0.55118270065E+01  0.17770000000E+01 0. -1.
         15    1    1    2    0    0  0.14899365040E+02  0.23943011061E+02 -0.96095754479E+01  0.29845611512E+02  0.17770000000E+01 0.  1.
</event>
<event>
 6    1  0.1823098E-004  0.5001964E+03  0.7546771E-02  0.9399370E-01
        -11   -1    0    0    0    0  0.00000000000E+00  0.00000000000E+00  0.50000000000E+03  0.50000000000E+03  0.00000000000E+00 0.  1.
         11   -1    0    0    0    0 -0.00000000000E+00 -0.00000000000E+00 -0.50000000000E+03  0.50000000000E+03  0.00000000000E+00 0.  1.
        -11    1    1    2    0    0 -0.12036509027E+01 -0.24425371333E+01  0.60813749861E+02  0.60874682220E+02  0.00000000000E+00 0.  1.
         11    1    1    2    0    0 -0.15937307207E+01  0.10975582081E+02 -0.49968048990E+03  0.49980355678E+03  0.00000000000E+00 0.  1.
        -15    1    1    2    0    0 -0.43192636442E+01 -0.41619860233E+01  0.34763937502E+03  0.34769565853E+03  0.17770000000E+01 0. -1.
         15    1    1    2    0    0  0.71166452676E+01 -0.43710589241E+01  0.91227365026E+02  0.91626102474E+02  0.17770000000E+01 0.  1.
</event>
<event>
 6    1  0.1823098E-004  0.5022156E+03  0.7546771E-02  0.9394866E-01
        -11   -1    0    0    0    0  0.00000000000E+00  0.00000000000E+00  0.50000000000E+03  0.50000000000E+03  0.00000000000E+00 0. -1.
         11   -1    0    0    0    0 -0.00000000000E+00 -0.00000000000E+00 -0.50000000000E+03  0.50000000000E+03  0.00000000000E+00 0. -1.
        -11    1    1    2    0    0  0.16600226525E+02  0.49222849714E+01  0.49748322374E+03  0.49778444563E+03  0.00000000000E+00 0. -1.
         11    1    1    2    0    0 -0.13335173940E+02 -0.69031493221E+01 -0.48089346096E+03  0.48112784282E+03  0.00000000000E+00 0. -1.
        -15    1    1    2    0    0  0.31877111591E+01  0.41956556374E+01 -0.99756722806E+01  0.11420892921E+02  0.17770000000E+01 0. -1.
         15    1    1    2    0    0 -0.64527637441E+01 -0.22147912867E+01 -0.66140904959E+01  0.96668186322E+01  0.17770000000E+01 0.  1.
</event>
<event>
 6    1  0.1823098E-004  0.4527550E+03  0.7546771E-02  0.9512209E-01
        -11   -1    0    0    0    0  0.00000000000E+00  0.00000000000E+00  0.50000000000E+03  0.50000000000E+03  0.00000000000E+00 0.  1.
         11   -1    0    0    0    0 -0.00000000000E+00 -0.00000000000E+00 -0.50000000000E+03  0.50000000000E+03  0.00000000000E+00 0. -1.
        -11    1    1    2    0    0 -0.78633082244E+01  0.13398661103E+02  0.43915497940E+03  0.43942968911E+03  0.00000000000E+00 0.  1.
         11    1    1    2    0    0 -0.89176569595E+01  0.65606878318E+02 -0.46536658973E+03  0.47005302884E+03  0.00000000000E+00 0. -1.
        -15    1    1    2    0    0 -0.31820960292E+01 -0.13353227344E+02 -0.55108233244E+01  0.14898366298E+02  0.17770000000E+01 0. -1.
         15    1    1    2    0    0  0.19963061213E+02 -0.65652312077E+02  0.31722433646E+02  0.75618915752E+02  0.17770000000E+01 0.  1.
</event>
<event>
 6    1  0.1823098E-004  0.5018190E+03  0.7546771E-02  0.9395749E-01
        -11   -1    0    0    0    0  0.00000000000E+00  0.00000000000E+00  0.50000000000E+03  0.50000000000E+03  0.00000000000E+00 0. -1.
         11   -1    0    0    0    0 -0.00000000000E+00 -0.00000000000E+00 -0.50000000000E+03  0.50000000000E+03  0.00000000000E+00 0.  1.
        -11    1    1    2    0    0  0.27699780366E+01 -0.10526248127E+02  0.49806206255E+03  0.49818098401E+03  0.00000000000E+00 0. -1.
         11    1    1    2    0    0  0.97316405327E+01  0.49499028543E+01 -0.46130783297E+03  0.46143701968E+03  0.00000000000E+00 0.  1.
        -15    1    1    2    0    0 -0.10823794605E+02  0.27522471159E+01 -0.17986030289E+02  0.21245809196E+02  0.17770000000E+01 0. -1.
         15    1    1    2    0    0 -0.16778239648E+01  0.28240981563E+01 -0.18768199291E+02  0.19136187115E+02  0.17770000000E+01 0.  1.
</event>
<event>
 6    1  0.1823098E-004  0.5001169E+03  0.7546771E-02  0.9399548E-01
        -11   -1    0    0    0    0  0.00000000000E+00  0.00000000000E+00  0.50000000000E+03  0.50000000000E+03  0.00000000000E+00 0. -1.
         11   -1    0    0    0    0 -0.00000000000E+00 -0.00000000000E+00 -0.50000000000E+03  0.50000000000E+03  0.00000000000E+00 0.  1.
        -11    1    1    2    0    0 -0.76105268659E+00  0.95793070500E+00  0.65724480286E+02  0.65735866475E+02  0.00000000000E+00 0. -1.
         11    1    1    2    0    0  0.29699113773E+01  0.13535136229E+02 -0.49969096839E+03  0.49988307050E+03  0.00000000000E+00 0.  1.
        -15    1    1    2    0    0 -0.36234736025E+01 -0.14825154121E+02  0.41365975344E+03  0.41394500130E+03  0.17770000000E+01 0. -1.
         15    1    1    2    0    0  0.14146149118E+01  0.33208718721E+00  0.20306734663E+02  0.20436061727E+02  0.17770000000E+01 0. -1.
</event>
<event>
 6    1  0.1823098E-004  0.5003334E+03  0.7546771E-02  0.9399064E-01
        -11   -1    0    0    0    0  0.00000000000E+00  0.00000000000E+00  0.50000000000E+03  0.50000000000E+03  0.00000000000E+00 0. -1.
         11   -1    0    0    0    0 -0.00000000000E+00 -0.00000000000E+00 -0.50000000000E+03  0.50000000000E+03  0.00000000000E+00 0.  1.
        -11    1    1    2    0    0 -0.24822951246E+02 -0.19664176548E+01  0.49904570633E+03  0.49966655153E+03  0.00000000000E+00 0. -1.
         11    1    1    2    0    0  0.43984239239E+00  0.68158997879E+01 -0.17957417176E+03  0.17970401530E+03  0.00000000000E+00 0.  1.
        -15    1    1    2    0    0  0.50520717330E+01  0.31643055601E+01 -0.71222886207E+02  0.71494010289E+02  0.17770000000E+01 0.  1.
         15    1    1    2    0    0  0.19331037120E+02 -0.80137876932E+01 -0.24824864837E+03  0.24913542289E+03  0.17770000000E+01 0. -1.
</event>
<event>
 6    1  0.1823098E-004  0.5024773E+03  0.7546771E-02  0.9394283E-01
        -11   -1    0    0    0    0  0.00000000000E+00  0.00000000000E+00  0.50000000000E+03  0.50000000000E+03  0.00000000000E+00 0. -1.
         11   -1    0    0    0    0 -0.00000000000E+00 -0.00000000000E+00 -0.50000000000E+03  0.50000000000E+03  0.00000000000E+00 0.  1.
        -11    1    1    2    0    0 -0.30158015977E+02 -0.63678049961E+01  0.33263667483E+03  0.33406168937E+03  0.00000000000E+00 0. -1.
         11    1    1    2    0    0  0.32044180697E+02 -0.20580639603E+02 -0.49606290620E+03  0.49752266194E+03  0.00000000000E+00 0.  1.
        -15    1    1    2    0    0  0.13688400773E+02  0.93166110821E+01  0.80161678996E+02  0.81873219469E+02  0.17770000000E+01 0.  1.
         15    1    1    2    0    0 -0.15574565493E+02  0.17631833517E+02  0.83264552373E+02  0.86542429215E+02  0.17770000000E+01 0. -1.
</event>
<event>
 6    1  0.1823098E-004  0.5028554E+03  0.7546771E-02  0.9393443E-01
        -11   -1    0    0    0    0  0.00000000000E+00  0.00000000000E+00  0.50000000000E+03  0.50000000000E+03  0.00000000000E+00 0.  1.
         11   -1    0    0    0    0 -0.00000000000E+00 -0.00000000000E+00 -0.50000000000E+03  0.50000000000E+03  0.00000000000E+00 0. -1.
        -11    1    1    2    0    0 -0.65120362274E+01  0.24404464619E+01  0.48353139676E+03  0.48358140375E+03  0.00000000000E+00 0.  1.
         11    1    1    2    0    0 -0.11516291969E+01  0.67897326674E+01 -0.49709690556E+03  0.49714460696E+03  0.00000000000E+00 0. -1.
        -15    1    1    2    0    0  0.48887008898E+01 -0.84502733947E+01  0.11918316317E+02  0.15508401261E+02  0.17770000000E+01 0. -1.
         15    1    1    2    0    0  0.27749645345E+01 -0.77990573469E+00  0.16471924757E+01  0.37655880251E+01  0.17770000000E+01 0.  1.
</event>
<event>
 6    1  0.1823098E-004  0.5003394E+03  0.7546771E-02  0.9399051E-01
        -11   -1    0    0    0    0  0.00000000000E+00  0.00000000000E+00  0.50000000000E+03  0.50000000000E+03  0.00000000000E+00 0.  1.
         11   -1    0    0    0    0 -0.00000000000E+00 -0.00000000000E+00 -0.50000000000E+03  0.50000000000E+03  0.00000000000E+00 0.  1.
        -11    1    1    2    0    0 -0.86524763032E+01 -0.14957743405E+02  0.39396815848E+03  0.39434694031E+03  0.00000000000E+00 0.  1.
         11    1    1    2    0    0 -0.84517521156E+00  0.16645038731E+02 -0.49938255855E+03  0.49966059623E+03  0.00000000000E+00 0.  1.
        -15    1    1    2    0    0  0.78897907628E+01 -0.17199516254E+01  0.67897347198E+02  0.68398936523E+02  0.17770000000E+01 0.  1.
         15    1    1    2    0    0  0.16078607519E+01  0.32656299545E-01  0.37517052874E+02  0.37593526942E+02  0.17770000000E+01 0.  1.
</event>
<event>
 6    1  0.1823098E-004  0.5085002E+03  0.7546771E-02  0.9380988E-01
        -11   -1    0    0    0    0  0.00000000000E+00  0.00000000000E+00  0.50000000000E+03  0.50000000000E+03  0.00000000000E+00 0.  1.
         11   -1    0    0    0    0 -0.00000000000E+00 -0.00000000000E+00 -0.50000000000E+03  0.50000000000E+03  0.00000000000E+00 0. -1.
        -11    1    1    2    0    0  0.18637134492E+02  0.16634693748E+02  0.49086458100E+03  0.49149983997E+03  0.00000000000E+00 0.  1.
         11    1    1    2    0    0 -0.23256321766E+02 -0.83923798520E+01 -0.44577913841E+03  0.44646425253E+03  0.00000000000E+00 0. -1.
        -15    1    1    2    0    0 -0.14358829367E+02 -0.21413456845E+01 -0.23063110483E+01  0.14806692466E+02  0.17770000000E+01 0. -1.
         15    1    1    2    0    0  0.18978016641E+02 -0.61009682112E+01 -0.42779131533E+02  0.47229215031E+02  0.17770000000E+01 0.  1.
</event>
<event>
 6    1  0.1823098E-004  0.5044454E+03  0.7546771E-02  0.9389917E-01
        -11   -1    0    0    0    0  0.00000000000E+00  0.00000000000E+00  0.50000000000E+03  0.50000000000E+03  0.00000000000E+00 0.  1.
         11   -1    0    0    0    0 -0.00000000000E+00 -0.00000000000E+00 -0.50000000000E+03  0.50000000000E+03  0.00000000000E+00 0. -1.
        -11    1    1    2    0    0 -0.70095715657E+01  0.37770597746E+01  0.48513112276E+03  0.48519646180E+03  0.00000000000E+00 0.  1.
         11    1    1    2    0    0 -0.63614940783E+01  0.25019018829E+01 -0.49550742147E+03  0.49555457101E+03  0.00000000000E+00 0. -1.
        -15    1    1    2    0    0  0.18463714718E+01 -0.37323386361E+00  0.38480790912E+01  0.46383006394E+01  0.17770000000E+01 0.  1.
         15    1    1    2    0    0  0.11524694172E+02 -0.59057277939E+01  0.65282196153E+01  0.14610666545E+02  0.17770000000E+01 0. -1.
</event>
<event>
 6    1  0.1823098E-004  0.5059903E+03  0.7546771E-02  0.9386505E-01
        -11   -1    0    0    0    0  0.00000000000E+00  0.00000000000E+00  0.50000000000E+03  0.50000000000E+03  0.00000000000E+00 0. -1.
         11   -1    0    0    0    0 -0.00000000000E+00 -0.00000000000E+00 -0.50000000000E+03  0.50000000000E+03  0.00000000000E+00 0. -1.
        -11    1    1    2    0    0 -0.77138851160E+01  0.10756831296E+01  0.49394831348E+03  0.49400971398E+03  0.00000000000E+00 0. -1.
         11    1    1    2    0    0  0.31961282402E+02  0.34053325449E+02 -0.36856563517E+03  0.37151282613E+03  0.00000000000E+00 0. -1.
        -15    1    1    2    0    0 -0.28301206004E+02 -0.31388552335E+02 -0.11573469514E+03  0.12322287477E+03  0.17770000000E+01 0.  1.
         15    1    1    2    0    0  0.40538087173E+01 -0.37404562441E+01 -0.96479831659E+01  0.11254585119E+02  0.17770000000E+01 0. -1.
</event>
<event>
 6    1  0.1823098E-004  0.5002357E+03  0.7546771E-02  0.9399282E-01
        -11   -1    0    0    0    0  0.00000000000E+00  0.00000000000E+00  0.50000000000E+03  0.50000000000E+03  0.00000000000E+00 0. -1.
         11   -1    0    0    0    0 -0.00000000000E+00 -0.00000000000E+00 -0.50000000000E+03  0.50000000000E+03  0.00000000000E+00 0.  1.
        -11    1    1    2    0    0  0.29694215875E+01 -0.52712754293E+00  0.17588010743E+03  0.17590596214E+03  0.00000000000E+00 0. -1.
         11    1    1    2    0    0 -0.24244223786E+01  0.17466960381E+02 -0.49945304884E+03  0.49976426495E+03  0.00000000000E+00 0.  1.
        -15    1    1    2    0    0 -0.42620182263E+01 -0.13146502419E+02  0.28625783971E+03  0.28659676175E+03  0.17770000000E+01 0. -1.
         15    1    1    2    0    0  0.37170190174E+01 -0.37933304186E+01  0.37315101704E+02  0.37733011147E+02  0.17770000000E+01 0.  1.
</event>
<event>
 6    1  0.1823098E-004  0.5000898E+03  0.7546771E-02  0.9399609E-01
        -11   -1    0    0    0    0  0.00000000000E+00  0.00000000000E+00  0.50000000000E+03  0.50000000000E+03  0.00000000000E+00 0. -1.
         11   -1    0    0    0    0 -0.00000000000E+00 -0.00000000000E+00 -0.50000000000E+03  0.50000000000E+03  0.00000000000E+00 0.  1.
        -11    1    1    2    0    0  0.79796695753E+01  0.34253953436E+01  0.25890505877E+03  0.25905064740E+03  0.00000000000E+00 0. -1.
         11    1    1    2    0    0 -0.45196131872E+01 -0.10847945713E+02 -0.49977208659E+03  0.49991023531E+03  0.00000000000E+00 0.  1.
        -15    1    1    2    0    0 -0.12252857228E+01  0.45040870570E+01  0.12284954736E+03  0.12295103555E+03  0.17770000000E+01 0.  1.
         15    1    1    2    0    0 -0.22347706653E+01  0.29184633127E+01  0.11801748045E+03  0.11808808174E+03  0.17770000000E+01 0.  1.
</event>
<event>
 6    1  0.1823098E-004  0.5006854E+03  0.7546771E-02  0.9398277E-01
        -11   -1    0    0    0    0  0.00000000000E+00  0.00000000000E+00  0.50000000000E+03  0.50000000000E+03  0.00000000000E+00 0.  1.
         11   -1    0    0    0    0 -0.00000000000E+00 -0.00000000000E+00 -0.50000000000E+03  0.50000000000E+03  0.00000000000E+00 0. -1.
        -11    1    1    2    0    0 -0.10537568053E+02  0.42167600018E+01  0.49918562427E+03  0.49931463917E+03  0.00000000000E+00 0.  1.
         11    1    1    2    0    0  0.82446014345E+01 -0.10036850884E+02 -0.30638743149E+03  0.30666263222E+03  0.00000000000E+00 0. -1.
        -15    1    1    2    0    0 -0.83584111567E+00  0.13105131388E+02 -0.10098957995E+03  0.10185527030E+03  0.17770000000E+01 0.  1.
         15    1    1    2    0    0  0.31288077338E+01 -0.72850405053E+01 -0.91808612833E+02  0.92167458315E+02  0.17770000000E+01 0. -1.
</event>
<event>
 6    1  0.1823098E-004  0.5104690E+03  0.7546771E-02  0.9376685E-01
        -11   -1    0    0    0    0  0.00000000000E+00  0.00000000000E+00  0.50000000000E+03  0.50000000000E+03  0.00000000000E+00 0. -1.
         11   -1    0    0    0    0 -0.00000000000E+00 -0.00000000000E+00 -0.50000000000E+03  0.50000000000E+03  0.00000000000E+00 0.  1.
        -11    1    1    2    0    0  0.32633962818E+02 -0.96858955118E+02  0.47874208154E+03  0.48953101368E+03  0.00000000000E+00 0. -1.
         11    1    1    2    0    0 -0.43778656350E+02  0.38429980362E+02 -0.49855972739E+02  0.76674977406E+02  0.00000000000E+00 0.  1.
        -15    1    1    2    0    0  0.13156376838E+02  0.13039557128E+02 -0.16162715503E+03  0.16269485325E+03  0.17770000000E+01 0. -1.
         15    1    1    2    0    0 -0.20116833066E+01  0.45389417628E+02 -0.26725895377E+03  0.27109915567E+03  0.17770000000E+01 0.  1.
</event>
<event>
 6    1  0.1823098E-004  0.5024167E+03  0.7546771E-02  0.9394418E-01
        -11   -1    0    0    0    0  0.00000000000E+00  0.00000000000E+00  0.50000000000E+03  0.50000000000E+03  0.00000000000E+00 0. -1.
         11   -1    0    0    0    0 -0.00000000000E+00 -0.00000000000E+00 -0.50000000000E+03  0.50000000000E+03  0.00000000000E+00 0. -1.
        -11    1    1    2    0    0  0.38996297129E+00  0.69146199243E+01  0.49753509471E+03  0.49758329404E+03  0.00000000000E+00 0. -1.
         11    1    1    2    0    0 -0.14292793948E+02  0.19706331321E+02 -0.35519035027E+03  0.35602360649E+03  0.00000000000E+00 0. -1.
        -15    1    1    2    0    0  0.13149873617E+02 -0.23516060048E+02 -0.13842184246E+03  0.14103080676E+03  0.17770000000E+01 0.  1.
         15    1    1    2    0    0  0.75295736010E+00 -0.31048911975E+01 -0.39229019800E+01  0.53622927073E+01  0.17770000000E+01 0. -1.
</event>
<event>
 6    1  0.1823098E-004  0.5001592E+03  0.7546771E-02  0.9399454E-01
        -11   -1    0    0    0    0  0.00000000000E+00  0.00000000000E+00  0.50000000000E+03  0.50000000000E+03  0.00000000000E+00 0.  1.
         11   -1    0    0    0    0 -0.00000000000E+00 -0.00000000000E+00 -0.50000000000E+03  0.50000000000E+03  0.00000000000E+00 0.  1.
        -11    1    1    2    0    0 -0.37068008673E+01 -0.16516976187E+01  0.17094625720E+03  0.17099441900E+03  0.00000000000E+00 0.  1.
         11    1    1    2    0    0 -0.57258783804E+01 -0.62247312976E+01 -0.49976923556E+03  0.49984079643E+03  0.00000000000E+00 0.  1.
        -15    1    1    2    0    0  0.88224732697E+01  0.37048492258E+01  0.17203893119E+03  0.17231399687E+03  0.17770000000E+01 0. -1.
         15    1    1    2    0    0  0.61020597793E+00  0.41715796905E+01  0.15678404717E+03  0.15685078770E+03  0.17770000000E+01 0. -1.
</event>
<event>
 6    1  0.1823098E-004  0.5006263E+03  0.7546771E-02  0.9398409E-01
        -11   -1    0    0    0    0  0.00000000000E+00  0.00000000000E+00  0.50000000000E+03  0.50000000000E+03  0.00000000000E+00 0. -1.
         11   -1    0    0    0    0 -0.00000000000E+00 -0.00000000000E+00 -0.50000000000E+03  0.50000000000E+03  0.00000000000E+00 0. -1.
        -11    1    1    2    0    0  0.38512393045E+00 -0.69257850876E+01  0.43210032114E+03  0.43215599308E+03  0.00000000000E+00 0. -1.
         11    1    1    2    0    0 -0.61447868396E+01 -0.37133179657E+01 -0.49932208542E+03  0.49937369987E+03  0.00000000000E+00 0. -1.
        -15    1    1    2    0    0  0.32154613935E+01  0.32592645526E+01  0.21585660017E+02  0.22137308887E+02  0.17770000000E+01 0. -1.
         15    1    1    2    0    0  0.25442015156E+01  0.73798385007E+01  0.45636104261E+02  0.46332998163E+02  0.17770000000E+01 0.  1.
</event>
<event>
 6    1  0.1823098E-004  0.5020123E+03  0.7546771E-02  0.9395318E-01
        -11   -1    0    0    0    0  0.00000000000E+00  0.00000000000E+00  0.50000000000E+03  0.50000000000E+03  0.00000000000E+00 0. -1.
         11   -1    0    0    0    0 -0.00000000000E+00 -0.00000000000E+00 -0.50000000000E+03  0.50000000000E+03  0.00000000000E+00 0. -1.
        -11    1    1    2    0    0 -0.21049659631E+01 -0.10838630505E+02  0.38198896252E+03  0.38214849768E+03  0.00000000000E+00 0. -1.
         11    1    1    2    0    0  0.17252672501E+01 -0.15136377444E+02 -0.49775465877E+03  0.49798773759E+03  0.00000000000E+00 0. -1.
        -15    1    1    2    0    0  0.56066598493E+01  0.19169683107E+02  0.56477070195E+02  0.59931031794E+02  0.17770000000E+01 0.  1.
         15    1    1    2    0    0 -0.52269611364E+01  0.68053248421E+01  0.59288626049E+02  0.59932732932E+02  0.17770000000E+01 0. -1.
</event>
<event>
 6    1  0.1823098E-004  0.5067907E+03  0.7546771E-02  0.9384742E-01
        -11   -1    0    0    0    0  0.00000000000E+00  0.00000000000E+00  0.50000000000E+03  0.50000000000E+03  0.00000000000E+00 0. -1.
         11   -1    0    0    0    0 -0.00000000000E+00 -0.00000000000E+00 -0.50000000000E+03  0.50000000000E+03  0.00000000000E+00 0. -1.
        -11    1    1    2    0    0 -0.24841799025E+02 -0.24299721473E+02  0.49198353910E+03  0.49320928031E+03  0.00000000000E+00 0. -1.
         11    1    1    2    0    0  0.22042336109E+02 -0.34567404538E+02 -0.33002382362E+03  0.33256051208E+03  0.00000000000E+00 0. -1.
        -15    1    1    2    0    0 -0.66546425888E+01  0.47717769797E+02 -0.10752954323E+03  0.11784324426E+03  0.17770000000E+01 0. -1.
         15    1    1    2    0    0  0.94541055042E+01  0.11149356214E+02 -0.54430172251E+02  0.56386963344E+02  0.17770000000E+01 0.  1.
</event>
<event>
 6    1  0.1823098E-004  0.5023440E+03  0.7546771E-02  0.9394580E-01
        -11   -1    0    0    0    0  0.00000000000E+00  0.00000000000E+00  0.50000000000E+03  0.50000000000E+03  0.00000000000E+00 0.  1.
         11   -1    0    0    0    0 -0.00000000000E+00 -0.00000000000E+00 -0.50000000000E+03  0.50000000000E+03  0.00000000000E+00 0.  1.
        -11    1    1    2    0    0  0.52970165404E+01 -0.10766996890E+02  0.49751132139E+03  0.49765600722E+03  0.00000000000E+00 0.  1.
         11    1    1    2    0    0  0.55160146272E-01 -0.76744370708E+01 -0.45090798998E+03  0.45097329794E+03  0.00000000000E+00 0.  1.
        -15    1    1    2    0    0 -0.32577356942E+01  0.30660977444E+01 -0.50391892986E+01  0.69688560768E+01  0.17770000000E+01 0. -1.
         15    1    1    2    0    0 -0.20944409924E+01  0.15375336216E+02 -0.41564142120E+02  0.44401838768E+02  0.17770000000E+01 0.  1.
</event>
<event>
 6    1  0.1823098E-004  0.5007781E+03  0.7546771E-02  0.9398070E-01
        -11   -1    0    0    0    0  0.00000000000E+00  0.00000000000E+00  0.50000000000E+03  0.50000000000E+03  0.00000000000E+00 0. -1.
         11   -1    0    0    0    0 -0.00000000000E+00 -0.00000000000E+00 -0.50000000000E+03  0.50000000000E+03  0.00000000000E+00 0.  1.
        -11    1    1    2    0    0 -0.11141355630E+02  0.95057031077E+01  0.49900699663E+03  0.49922186539E+03  0.00000000000E+00 0. -1.
         11    1    1    2    0    0  0.94389577179E+01 -0.12708346291E+02 -0.72171634004E+02  0.73887351712E+02  0.00000000000E+00 0.  1.
        -15    1    1    2    0    0 -0.10786914774E+01  0.28943259977E+01 -0.21910704823E+03  0.21913602399E+03  0.17770000000E+01 0. -1.
         15    1    1    2    0    0  0.27810893895E+01  0.30831718527E+00 -0.20772831440E+03  0.20775475891E+03  0.17770000000E+01 0.  1.
</event>
<event>
 6    1  0.1823098E-004  0.5038445E+03  0.7546771E-02  0.9391248E-01
        -11   -1    0    0    0    0  0.00000000000E+00  0.00000000000E+00  0.50000000000E+03  0.50000000000E+03  0.00000000000E+00 0.  1.
         11   -1    0    0    0    0 -0.00000000000E+00 -0.00000000000E+00 -0.50000000000E+03  0.50000000000E+03  0.00000000000E+00 0.  1.
        -11    1    1    2    0    0 -0.59445818589E+01 -0.86445262870E+01  0.49604452597E+03  0.49615545712E+03  0.00000000000E+00 0.  1.
         11    1    1    2    0    0 -0.79832473206E+01  0.36605584285E+01 -0.47480349639E+03  0.47488471454E+03  0.00000000000E+00 0.  1.
        -15    1    1    2    0    0  0.39569347946E+01 -0.21513060650E-01  0.59118160243E+00  0.43777871656E+01  0.17770000000E+01 0.  1.
         15    1    1    2    0    0  0.99708943849E+01  0.50054809192E+01 -0.21832211182E+02  0.24582041171E+02  0.17770000000E+01 0. -1.
</event>
<event>
 6    1  0.1823098E-004  0.5044072E+03  0.7546771E-02  0.9390002E-01
        -11   -1    0    0    0    0  0.00000000000E+00  0.00000000000E+00  0.50000000000E+03  0.50000000000E+03  0.00000000000E+00 0.  1.
         11   -1    0    0    0    0 -0.00000000000E+00 -0.00000000000E+00 -0.50000000000E+03  0.50000000000E+03  0.00000000000E+00 0. -1.
        -11    1    1    2    0    0  0.78132657381E+01 -0.29886952942E+01  0.47763412992E+03  0.47770738061E+03  0.00000000000E+00 0.  1.
         11    1    1    2    0    0  0.10735515889E+01 -0.12894022727E+02 -0.49542388820E+03  0.49559281405E+03  0.00000000000E+00 0. -1.
        -15    1    1    2    0    0 -0.57604408372E+00  0.62483000868E+01  0.32143906354E+01  0.72707026427E+01  0.17770000000E+01 0. -1.
         15    1    1    2    0    0 -0.83107732433E+01  0.96344179344E+01  0.14575367646E+02  0.19429102704E+02  0.17770000000E+01 0.  1.
</event>
<event>
 6    1  0.1823098E-004  0.5014006E+03  0.7546771E-02  0.9396681E-01
        -11   -1    0    0    0    0  0.00000000000E+00  0.00000000000E+00  0.50000000000E+03  0.50000000000E+03  0.00000000000E+00 0.  1.
         11   -1    0    0    0    0 -0.00000000000E+00 -0.00000000000E+00 -0.50000000000E+03  0.50000000000E+03  0.00000000000E+00 0.  1.
        -11    1    1    2    0    0  0.18043033361E+02  0.68123696027E+01  0.49822621326E+03  0.49859935721E+03  0.00000000000E+00 0.  1.
         11    1    1    2    0    0  0.17991845703E+01  0.61343418024E+01 -0.17801664717E+02  0.18914715995E+02  0.00000000000E+00 0.  1.
        -15    1    1    2    0    0  0.13232484462E+00 -0.88900958395E+01 -0.24854118667E+02  0.26456308465E+02  0.17770000000E+01 0. -1.
         15    1    1    2    0    0 -0.19974542776E+02 -0.40566155656E+01 -0.45557042987E+03  0.45602961833E+03  0.17770000000E+01 0.  1.
</event>
<event>
 6    1  0.1823098E-004  0.5003747E+03  0.7546771E-02  0.9398972E-01
        -11   -1    0    0    0    0  0.00000000000E+00  0.00000000000E+00  0.50000000000E+03  0.50000000000E+03  0.00000000000E+00 0. -1.
         11   -1    0    0    0    0 -0.00000000000E+00 -0.00000000000E+00 -0.50000000000E+03  0.50000000000E+03  0.00000000000E+00 0. -1.
        -11    1    1    2    0    0 -0.42597312316E+01  0.40184609499E+01  0.23669656612E+03  0.23676899660E+03  0.00000000000E+00 0. -1.
         11    1    1    2    0    0 -0.16128794158E+02 -0.14208457202E+02 -0.49916268971E+03  0.49962526863E+03  0.00000000000E+00 0. -1.
        -15    1    1    2    0    0  0.23926227570E+01 -0.10725496633E+01  0.37044864476E+02  0.37180031193E+02  0.17770000000E+01 0.  1.
         15    1    1    2    0    0  0.17995902633E+02  0.11262545915E+02  0.22542125911E+03  0.22642570358E+03  0.17770000000E+01 0. -1.
</event>
<event>
 6    1  0.1823098E-004  0.5001873E+03  0.7546771E-02  0.9399391E-01
        -11   -1    0    0    0    0  0.00000000000E+00  0.00000000000E+00  0.50000000000E+03  0.50000000000E+03  0.00000000000E+00 0. -1.
         11   -1    0    0    0    0 -0.00000000000E+00 -0.00000000000E+00 -0.50000000000E+03  0.50000000000E+03  0.00000000000E+00 0.  1.
        -11    1    1    2    0    0  0.36857605698E+01  0.36960086222E+01  0.34951914724E+03  0.34955812049E+03  0.00000000000E+00 0. -1.
         11    1    1    2    0    0  0.58640906409E+01 -0.45029984909E+01 -0.49975804500E+03  0.49981273303E+03  0.00000000000E+00 0.  1.
        -15    1    1    2    0    0 -0.42061807376E+01  0.85871397205E+00  0.44882850828E+02  0.45122692446E+02  0.17770000000E+01 0. -1.
         15    1    1    2    0    0 -0.53436704731E+01 -0.51724103384E-01  0.10535604693E+03  0.10550645404E+03  0.17770000000E+01 0.  1.
</event>
<event>
 6    1  0.1823098E-004  0.5022724E+03  0.7546771E-02  0.9394739E-01
        -11   -1    0    0    0    0  0.00000000000E+00  0.00000000000E+00  0.50000000000E+03  0.50000000000E+03  0.00000000000E+00 0.  1.
         11   -1    0    0    0    0 -0.00000000000E+00 -0.00000000000E+00 -0.50000000000E+03  0.50000000000E+03  0.00000000000E+00 0.  1.
        -11    1    1    2    0    0 -0.20342882680E-01 -0.63182124914E+01  0.40384603203E+03  0.40389545406E+03  0.00000000000E+00 0.  1.
         11    1    1    2    0    0 -0.21432294338E+02 -0.54790222375E+01 -0.49723579553E+03  0.49772763564E+03  0.00000000000E+00 0.  1.
        -15    1    1    2    0    0 -0.29784255708E+01  0.35851541409E+01  0.12378806138E+02  0.13346045088E+02  0.17770000000E+01 0.  1.
         15    1    1    2    0    0  0.24431062791E+02  0.82120805880E+01  0.81010957358E+02  0.85030865206E+02  0.17770000000E+01 0. -1.
</event>
<event>
 6    1  0.1823098E-004  0.5009211E+03  0.7546771E-02  0.9397751E-01
        -11   -1    0    0    0    0  0.00000000000E+00  0.00000000000E+00  0.50000000000E+03  0.50000000000E+03  0.00000000000E+00 0. -1.
         11   -1    0    0    0    0 -0.00000000000E+00 -0.00000000000E+00 -0.50000000000E+03  0.50000000000E+03  0.00000000000E+00 0. -1.
        -11    1    1    2    0    0  0.14901420831E+02  0.43620821635E+01  0.49883728451E+03  0.49907886804E+03  0.00000000000E+00 0. -1.
         11    1    1    2    0    0 -0.76713418441E+01  0.39493667769E+01 -0.46203583452E+03  0.46211639158E+03  0.00000000000E+00 0. -1.
        -15    1    1    2    0    0 -0.32203688071E+01 -0.58294811752E+01 -0.16390510813E+02  0.17780894234E+02  0.17770000000E+01 0.  1.
         15    1    1    2    0    0 -0.40097101796E+01 -0.24819677651E+01 -0.20410939179E+02  0.21023846149E+02  0.17770000000E+01 0. -1.
</event>
<event>
 6    1  0.1823098E-004  0.5006798E+03  0.7546771E-02  0.9398290E-01
        -11   -1    0    0    0    0  0.00000000000E+00  0.00000000000E+00  0.50000000000E+03  0.50000000000E+03  0.00000000000E+00 0. -1.
         11   -1    0    0    0    0 -0.00000000000E+00 -0.00000000000E+00 -0.50000000000E+03  0.50000000000E+03  0.00000000000E+00 0.  1.
        -11    1    1    2    0    0 -0.57011217175E+00  0.58090372362E+01  0.27076521104E+03  0.27082811791E+03  0.00000000000E+00 0. -1.
         11    1    1    2    0    0 -0.22450933765E+02 -0.30078699999E+02 -0.49790748366E+03  0.49932017274E+03  0.00000000000E+00 0.  1.
        -15    1    1    2    0    0  0.20200145340E+02  0.23835069594E+02  0.19025314209E+03  0.19280967875E+03  0.17770000000E+01 0.  1.
         15    1    1    2    0    0  0.28209005959E+01  0.43459316954E+00  0.36889130521E+02  0.37042030600E+02  0.17770000000E+01 0. -1.
</event>
<event>
 6    1  0.1823098E-004  0.5022335E+03  0.7546771E-02  0.9394826E-01
        -11   -1    0    0    0    0  0.00000000000E+00  0.00000000000E+00  0.50000000000E+03  0.50000000000E+03  0.00000000000E+00 0. -1.
         11   -1    0    0    0    0 -0.00000000000E+00 -0.00000000000E+00 -0.50000000000E+03  0.50000000000E+03  0.00000000000E+00 0. -1.
        -11    1    1    2    0    0 -0.86540052881E+01  0.45962527762E+01  0.49767003683E+03  0.49776649435E+03  0.00000000000E+00 0. -1.
         11    1    1    2    0    0 -0.32774321172E+01 -0.11315723029E+02 -0.45376348991E+03  0.45391639310E+03  0.00000000000E+00 0. -1.
        -15    1    1    2    0    0 -0.15664958395E+01  0.59208427232E+01 -0.11336393393E+02  0.13006991656E+02  0.17770000000E+01 0.  1.
         15    1    1    2    0    0  0.13497933245E+02  0.79862752934E+00 -0.32570153525E+02  0.35310120893E+02  0.17770000000E+01 0. -1.
</event>
<event>
 6    1  0.1823098E-004  0.4664421E+03  0.7546771E-02  0.9478197E-01
        -11   -1    0    0    0    0  0.00000000000E+00  0.00000000000E+00  0.50000000000E+03  0.50000000000E+03  0.00000000000E+00 0.  1.
         11   -1    0    0    0    0 -0.00000000000E+00 -0.00000000000E+00 -0.50000000000E+03  0.50000000000E+03  0.00000000000E+00 0.  1.
        -11    1    1    2    0    0  0.23756782023E+02 -0.38582014447E+01  0.45505388437E+03  0.45568992538E+03  0.00000000000E+00 0.  1.
         11    1    1    2    0    0  0.19739855786E+02 -0.14480751444E+02 -0.47804417069E+03  0.47867064167E+03  0.00000000000E+00 0.  1.
        -15    1    1    2    0    0 -0.50579366553E+01  0.49915920037E+01 -0.10573411929E+02  0.12862872260E+02  0.17770000000E+01 0.  1.
         15    1    1    2    0    0 -0.38438701154E+02  0.13347360885E+02  0.33563698250E+02  0.52776560690E+02  0.17770000000E+01 0. -1.
</event>
<event>
 6    1  0.1823098E-004  0.5049266E+03  0.7546771E-02  0.9388853E-01
        -11   -1    0    0    0    0  0.00000000000E+00  0.00000000000E+00  0.50000000000E+03  0.50000000000E+03  0.00000000000E+00 0. -1.
         11   -1    0    0    0    0 -0.00000000000E+00 -0.00000000000E+00 -0.50000000000E+03  0.50000000000E+03  0.00000000000E+00 0.  1.
        -11    1    1    2    0    0 -0.62254983192E+01 -0.48492778204E+01  0.49501052176E+03  0.49507341776E+03  0.00000000000E+00 0. -1.
         11    1    1    2    0    0 -0.66519009897E+01  0.24774430532E+01 -0.48581217924E+03  0.48586403345E+03  0.00000000000E+00 0.  1.
        -15    1    1    2    0    0  0.97927372632E+01 -0.28626577268E+01 -0.60270636458E+01  0.11982309358E+02  0.17770000000E+01 0. -1.
         15    1    1    2    0    0  0.30846620457E+01  0.52344924939E+01 -0.31712788752E+01  0.70802394246E+01  0.17770000000E+01 0.  1.
</event>
<event>
 6    1  0.1823098E-004  0.5004587E+03  0.7546771E-02  0.9398784E-01
        -11   -1    0    0    0    0  0.00000000000E+00  0.00000000000E+00  0.50000000000E+03  0.50000000000E+03  0.00000000000E+00 0. -1.
         11   -1    0    0    0    0 -0.00000000000E+00 -0.00000000000E+00 -0.50000000000E+03  0.50000000000E+03  0.00000000000E+00 0.  1.
        -11    1    1    2    0    0 -0.11794662104E+00  0.49303765322E+01  0.15704999744E+03  0.15712741397E+03  0.00000000000E+00 0. -1.
         11    1    1    2    0    0  0.27721194047E+02  0.12535925059E+02 -0.49861394934E+03  0.49954127406E+03  0.00000000000E+00 0.  1.
        -15    1    1    2    0    0 -0.61979165262E+01 -0.41458031888E+01  0.13660860348E+03  0.13682349991E+03  0.17770000000E+01 0. -1.
         15    1    1    2    0    0 -0.21405330900E+02 -0.13320498403E+02  0.20495534842E+03  0.20650781206E+03  0.17770000000E+01 0.  1.
</event>
<event>
 6    1  0.1823098E-004  0.4965492E+03  0.7546771E-02  0.9407564E-01
        -11   -1    0    0    0    0  0.00000000000E+00  0.00000000000E+00  0.50000000000E+03  0.50000000000E+03  0.00000000000E+00 0.  1.
         11   -1    0    0    0    0 -0.00000000000E+00 -0.00000000000E+00 -0.50000000000E+03  0.50000000000E+03  0.00000000000E+00 0. -1.
        -11    1    1    2    0    0 -0.25475784513E+01  0.75815906783E+01  0.49599097011E+03  0.49605545366E+03  0.00000000000E+00 0.  1.
         11    1    1    2    0    0  0.56529523655E+01 -0.36599885309E+01 -0.49701041885E+03  0.49705604094E+03  0.00000000000E+00 0. -1.
        -15    1    1    2    0    0  0.22213321081E+00 -0.14300309115E+01  0.32730852389E+00  0.23149927518E+01  0.17770000000E+01 0. -1.
         15    1    1    2    0    0 -0.33275071249E+01 -0.24915712359E+01  0.69214021650E+00  0.45735126510E+01  0.17770000000E+01 0.  1.
</event>
<event>
 6    1  0.1823098E-004  0.5010129E+03  0.7546771E-02  0.9397546E-01
        -11   -1    0    0    0    0  0.00000000000E+00  0.00000000000E+00  0.50000000000E+03  0.50000000000E+03  0.00000000000E+00 0.  1.
         11   -1    0    0    0    0 -0.00000000000E+00 -0.00000000000E+00 -0.50000000000E+03  0.50000000000E+03  0.00000000000E+00 0.  1.
        -11    1    1    2    0    0 -0.11144157013E+02  0.52880066457E+00  0.49886234389E+03  0.49898708401E+03  0.00000000000E+00 0.  1.
         11    1    1    2    0    0  0.56565628639E+01  0.17073410133E+02 -0.34712181967E+03  0.34758747924E+03  0.00000000000E+00 0.  1.
        -15    1    1    2    0    0  0.24734081043E+01 -0.15261309903E+02 -0.76479480262E+02  0.78046742134E+02  0.17770000000E+01 0.  1.
         15    1    1    2    0    0  0.30141860451E+01 -0.23409008945E+01 -0.75261043955E+02  0.75378694607E+02  0.17770000000E+01 0. -1.
</event>
<event>
 6    1  0.1823098E-004  0.5016033E+03  0.7546771E-02  0.9396229E-01
        -11   -1    0    0    0    0  0.00000000000E+00  0.00000000000E+00  0.50000000000E+03  0.50000000000E+03  0.00000000000E+00 0. -1.
         11   -1    0    0    0    0 -0.00000000000E+00 -0.00000000000E+00 -0.50000000000E+03  0.50000000000E+03  0.00000000000E+00 0.  1.
        -11    1    1    2    0    0 -0.13682971691E+02 -0.10163366305E+02  0.49810513543E+03  0.49839667302E+03  0.00000000000E+00 0. -1.
         11    1    1    2    0    0  0.59494458857E+01  0.89248090751E+01 -0.18446359939E+02  0.21338142336E+02  0.00000000000E+00 0.  1.
        -15    1    1    2    0    0  0.15030973414E+02  0.45915857398E+01 -0.33413708367E+03  0.33451122736E+03  0.17770000000E+01 0.  1.
         15    1    1    2    0    0 -0.72974476082E+01 -0.33530285102E+01 -0.14552169183E+03  0.14575395728E+03  0.17770000000E+01 0. -1.
</event>
<event>
 6    1  0.1823098E-004  0.5008983E+03  0.7546771E-02  0.9397802E-01
        -11   -1    0    0    0    0  0.00000000000E+00  0.00000000000E+00  0.50000000000E+03  0.50000000000E+03  0.00000000000E+00 0.  1.
         11   -1    0    0    0    0 -0.00000000000E+00 -0.00000000000E+00 -0.50000000000E+03  0.50000000000E+03  0.00000000000E+00 0. -1.
        -11    1    1    2    0    0 -0.55019112685E+01  0.43425465854E+01  0.49905243238E+03  0.49910165197E+03  0.00000000000E+00 0.  1.
         11    1    1    2    0    0 -0.64340157243E+01 -0.57595436090E+01 -0.40272667042E+03  0.40281923981E+03  0.00000000000E+00 0. -1.
        -15    1    1    2    0    0 -0.28183029261E+00 -0.13793021531E+01 -0.23899708245E+01  0.32941755092E+01  0.17770000000E+01 0. -1.
         15    1    1    2    0    0  0.12217757285E+02  0.27962991767E+01 -0.93935791138E+02  0.94784932705E+02  0.17770000000E+01 0. -1.
</event>
<event>
 6    1  0.1823098E-004  0.5019803E+03  0.7546771E-02  0.9395390E-01
        -11   -1    0    0    0    0  0.00000000000E+00  0.00000000000E+00  0.50000000000E+03  0.50000000000E+03  0.00000000000E+00 0. -1.
         11   -1    0    0    0    0 -0.00000000000E+00 -0.00000000000E+00 -0.50000000000E+03  0.50000000000E+03  0.00000000000E+00 0.  1.
        -11    1    1    2    0    0 -0.71706092187E+01  0.94646929771E+00  0.49796719019E+03  0.49801971441E+03  0.00000000000E+00 0. -1.
         11    1    1    2    0    0 -0.11855168819E+02 -0.61230876065E+01 -0.43645607655E+03  0.43665998670E+03  0.00000000000E+00 0.  1.
        -15    1    1    2    0    0  0.20687334026E+01  0.35336594292E+01 -0.18336832720E+02  0.18872296364E+02  0.17770000000E+01 0.  1.
         15    1    1    2    0    0  0.16957044635E+02  0.16429588796E+01 -0.43174280917E+02  0.46448002523E+02  0.17770000000E+01 0. -1.
</event>
<event>
 6    1  0.1823098E-004  0.5005006E+03  0.7546771E-02  0.9398690E-01
        -11   -1    0    0    0    0  0.00000000000E+00  0.00000000000E+00  0.50000000000E+03  0.50000000000E+03  0.00000000000E+00 0. -1.
         11   -1    0    0    0    0 -0.00000000000E+00 -0.00000000000E+00 -0.50000000000E+03  0.50000000000E+03  0.00000000000E+00 0.  1.
        -11    1    1    2    0    0  0.77773377126E+01  0.11432236518E+02  0.49930796821E+03  0.49949937951E+03  0.00000000000E+00 0. -1.
         11    1    1    2    0    0 -0.72844431951E+00 -0.18182921172E+02 -0.16307525710E+03  0.16408744233E+03  0.00000000000E+00 0.  1.
        -15    1    1    2    0    0 -0.43750072375E+00  0.16144848154E+01 -0.66762525711E+02  0.66807114415E+02  0.17770000000E+01 0.  1.
         15    1    1    2    0    0 -0.66113926694E+01  0.51361998390E+01 -0.26947018539E+03  0.26960606374E+03  0.17770000000E+01 0.  1.
</event>
<event>
 6    1  0.1823098E-004  0.5008740E+03  0.7546771E-02  0.9397856E-01
        -11   -1    0    0    0    0  0.00000000000E+00  0.00000000000E+00  0.50000000000E+03  0.50000000000E+03  0.00000000000E+00 0. -1.
         11   -1    0    0    0    0 -0.00000000000E+00 -0.00000000000E+00 -0.50000000000E+03  0.50000000000E+03  0.00000000000E+00 0. -1.
        -11    1    1    2    0    0 -0.71323588437E+01 -0.48267922801E+01  0.49905166666E+03  0.49912597054E+03  0.00000000000E+00 0. -1.
         11    1    1    2    0    0 -0.88805355671E+01 -0.11032941987E+02 -0.96980180961E+02  0.98008903780E+02  0.00000000000E+00 0. -1.
        -15    1    1    2    0    0  0.15385155567E+02  0.88408493919E+01 -0.30595529689E+03  0.30647457489E+03  0.17770000000E+01 0.  1.
         15    1    1    2    0    0  0.62773884425E+00  0.70188848748E+01 -0.96116188809E+02  0.96390550787E+02  0.17770000000E+01 0. -1.
</event>
<event>
 6    1  0.1823098E-004  0.5120300E+03  0.7546771E-02  0.9373287E-01
        -11   -1    0    0    0    0  0.00000000000E+00  0.00000000000E+00  0.50000000000E+03  0.50000000000E+03  0.00000000000E+00 0.  1.
         11   -1    0    0    0    0 -0.00000000000E+00 -0.00000000000E+00 -0.50000000000E+03  0.50000000000E+03  0.00000000000E+00 0. -1.
        -11    1    1    2    0    0  0.77331734943E+00 -0.70217754930E+01  0.48791889765E+03  0.48797003395E+03  0.00000000000E+00 0.  1.
         11    1    1    2    0    0  0.21305194290E+02 -0.15353506347E+02 -0.45626047290E+03  0.45701560213E+03  0.00000000000E+00 0. -1.
        -15    1    1    2    0    0 -0.57200036874E+01  0.12530875055E+02 -0.32989029913E+02  0.35793506330E+02  0.17770000000E+01 0. -1.
         15    1    1    2    0    0 -0.16358507952E+02  0.98444067849E+01  0.13306051611E+01  0.19220857589E+02  0.17770000000E+01 0.  1.
</event>
<event>
 6    1  0.1823098E-004  0.5016480E+03  0.7546771E-02  0.9396130E-01
        -11   -1    0    0    0    0  0.00000000000E+00  0.00000000000E+00  0.50000000000E+03  0.50000000000E+03  0.00000000000E+00 0.  1.
         11   -1    0    0    0    0 -0.00000000000E+00 -0.00000000000E+00 -0.50000000000E+03  0.50000000000E+03  0.00000000000E+00 0. -1.
        -11    1    1    2    0    0 -0.42062838719E+01 -0.83904796604E+01  0.49826359801E+03  0.49835199014E+03  0.00000000000E+00 0.  1.
         11    1    1    2    0    0 -0.10039669489E+02  0.18401072313E+02 -0.36192918786E+03  0.36253569680E+03  0.00000000000E+00 0. -1.
        -15    1    1    2    0    0  0.16724159708E+01 -0.13348447680E+02 -0.51030753790E+02  0.52804105825E+02  0.17770000000E+01 0.  1.
         15    1    1    2    0    0  0.12573537390E+02  0.33378550273E+01 -0.85303656362E+02  0.86308207237E+02  0.17770000000E+01 0. -1.
</event>
<event>
 6    1  0.1823098E-004  0.5012954E+03  0.7546771E-02  0.9396916E-01
        -11   -1    0    0    0    0  0.00000000000E+00  0.00000000000E+00  0.50000000000E+03  0.50000000000E+03  0.00000000000E+00 0. -1.
         11   -1    0    0    0    0 -0.00000000000E+00 -0.00000000000E+00 -0.50000000000E+03  0.50000000000E+03  0.00000000000E+00 0.  1.
        -11    1    1    2    0    0 -0.17406315585E+00  0.16451165562E+02  0.42607853946E+03  0.42639605173E+03  0.00000000000E+00 0. -1.
         11    1    1    2    0    0  0.13264404499E+02 -0.42465524227E+01 -0.49851006607E+03  0.49870458551E+03  0.00000000000E+00 0.  1.
        -15    1    1    2    0    0 -0.81393409733E+01 -0.79153419129E+01  0.55112471780E+02  0.56297813312E+02  0.17770000000E+01 0.  1.
         15    1    1    2    0    0 -0.49510003696E+01 -0.42892712263E+01  0.17319054839E+02  0.18601549447E+02  0.17770000000E+01 0. -1.
</event>
<event>
 6    1  0.1823098E-004  0.4957833E+03  0.7546771E-02  0.9409295E-01
        -11   -1    0    0    0    0  0.00000000000E+00  0.00000000000E+00  0.50000000000E+03  0.50000000000E+03  0.00000000000E+00 0. -1.
         11   -1    0    0    0    0 -0.00000000000E+00 -0.00000000000E+00 -0.50000000000E+03  0.50000000000E+03  0.00000000000E+00 0.  1.
        -11    1    1    2    0    0  0.80872950471E+01 -0.76923959009E+01  0.49884029569E+03  0.49896514698E+03  0.00000000000E+00 0. -1.
         11    1    1    2    0    0 -0.35760500425E+01 -0.31880312332E+01 -0.77035113152E+01  0.90717012536E+01  0.00000000000E+00 0.  1.
        -15    1    1    2    0    0  0.10252707289E+02  0.36598535870E+01 -0.13822577842E+03  0.13866519420E+03  0.17770000000E+01 0. -1.
         15    1    1    2    0    0 -0.14763952293E+02  0.72205735472E+01 -0.35291100596E+03  0.35329795757E+03  0.17770000000E+01 0.  1.
</event>
<event>
 6    1  0.1823098E-004  0.5018511E+03  0.7546771E-02  0.9395677E-01
        -11   -1    0    0    0    0  0.00000000000E+00  0.00000000000E+00  0.50000000000E+03  0.50000000000E+03  0.00000000000E+00 0. -1.
         11   -1    0    0    0    0 -0.00000000000E+00 -0.00000000000E+00 -0.50000000000E+03  0.50000000000E+03  0.00000000000E+00 0.  1.
        -11    1    1    2    0    0 -0.55770641088E+01 -0.38456321061E+01  0.49353896420E+03  0.49358545533E+03  0.00000000000E+00 0. -1.
         11    1    1    2    0    0  0.61044741173E+01  0.41498724854E+01 -0.49809421871E+03  0.49814891023E+03  0.00000000000E+00 0.  1.
        -15    1    1    2    0    0 -0.29567671889E+01 -0.94382854020E+00  0.13509551958E+01  0.38230999809E+01  0.17770000000E+01 0.  1.
         15    1    1    2    0    0  0.24293571805E+01  0.63958816091E+00  0.32042993141E+01  0.44425344591E+01  0.17770000000E+01 0.  1.
</event>
<event>
 6    1  0.1823098E-004  0.5008263E+03  0.7546771E-02  0.9397963E-01
        -11   -1    0    0    0    0  0.00000000000E+00  0.00000000000E+00  0.50000000000E+03  0.50000000000E+03  0.00000000000E+00 0. -1.
         11   -1    0    0    0    0 -0.00000000000E+00 -0.00000000000E+00 -0.50000000000E+03  0.50000000000E+03  0.00000000000E+00 0.  1.
        -11    1    1    2    0    0 -0.65381752892E+01  0.51387159508E+01  0.42670680360E+03  0.42678782829E+03  0.00000000000E+00 0. -1.
         11    1    1    2    0    0  0.86891206902E+01  0.83642924357E+01 -0.49902795106E+03  0.49917367534E+03  0.00000000000E+00 0.  1.
        -15    1    1    2    0    0  0.14184980787E+01 -0.92872989126E+01  0.35598895105E+02  0.36860617461E+02  0.17770000000E+01 0. -1.
         15    1    1    2    0    0 -0.35694434797E+01 -0.42157094739E+01  0.36722252358E+02  0.37177878911E+02  0.17770000000E+01 0.  1.
</event>
<event>
 6    1  0.1823098E-004  0.5000582E+03  0.7546771E-02  0.9399679E-01
        -11   -1    0    0    0    0  0.00000000000E+00  0.00000000000E+00  0.50000000000E+03  0.50000000000E+03  0.00000000000E+00 0. -1.
         11   -1    0    0    0    0 -0.00000000000E+00 -0.00000000000E+00 -0.50000000000E+03  0.50000000000E+03  0.00000000000E+00 0.  1.
        -11    1    1    2    0    0 -0.13610963825E+02 -0.44899825958E+01  0.49973629759E+03  0.49994178202E+03  0.00000000000E+00 0. -1.
         11    1    1    2    0    0  0.10606364569E+02  0.55790957435E+01 -0.28791770345E+03  0.28816700928E+03  0.00000000000E+00 0.  1.
        -15    1    1    2    0    0  0.82305632090E+00 -0.11258005767E+01 -0.13885636615E+03  0.13887473851E+03  0.17770000000E+01 0.  1.
         15    1    1    2    0    0  0.21815429343E+01  0.36687428887E-01 -0.72962227991E+02  0.73016470183E+02  0.17770000000E+01 0.  1.
</event>
<event>
 6    1  0.1823098E-004  0.5036808E+03  0.7546771E-02  0.9391611E-01
        -11   -1    0    0    0    0  0.00000000000E+00  0.00000000000E+00  0.50000000000E+03  0.50000000000E+03  0.00000000000E+00 0.  1.
         11   -1    0    0    0    0 -0.00000000000E+00 -0.00000000000E+00 -0.50000000000E+03  0.50000000000E+03  0.00000000000E+00 0. -1.
        -11    1    1    2    0    0 -0.34233518551E+01  0.73253587773E+01  0.48697359617E+03  0.48704072066E+03  0.00000000000E+00 0.  1.
         11    1    1    2    0    0 -0.84275752601E+01 -0.10225471666E+02 -0.49614231514E+03  0.49631923312E+03  0.00000000000E+00 0. -1.
        -15    1    1    2    0    0  0.10280727279E+01  0.20088423721E+01  0.21569790647E+01  0.35920285210E+01  0.17770000000E+01 0.  1.
         15    1    1    2    0    0  0.10822854387E+02  0.89127051659E+00  0.70117399093E+01  0.13048017695E+02  0.17770000000E+01 0. -1.
</event>
<event>
 6    1  0.1823098E-004  0.5001871E+03  0.7546771E-02  0.9399391E-01
        -11   -1    0    0    0    0  0.00000000000E+00  0.00000000000E+00  0.50000000000E+03  0.50000000000E+03  0.00000000000E+00 0. -1.
         11   -1    0    0    0    0 -0.00000000000E+00 -0.00000000000E+00 -0.50000000000E+03  0.50000000000E+03  0.00000000000E+00 0.  1.
        -11    1    1    2    0    0 -0.22453845410E+02 -0.23447284575E+01  0.24600472103E+03  0.24703844983E+03  0.00000000000E+00 0. -1.
         11    1    1    2    0    0  0.37901807533E+02  0.12707946952E+02 -0.49821165000E+03  0.49981285210E+03  0.00000000000E+00 0.  1.
        -15    1    1    2    0    0  0.14248316795E+00 -0.12282509401E+01  0.71309333599E+02  0.71342187303E+02  0.17770000000E+01 0. -1.
         15    1    1    2    0    0 -0.15590445291E+02 -0.91349675544E+01  0.18089759537E+03  0.18180651077E+03  0.17770000000E+01 0.  1.
</event>
<event>
 6    1  0.1823098E-004  0.5018771E+03  0.7546771E-02  0.9395619E-01
        -11   -1    0    0    0    0  0.00000000000E+00  0.00000000000E+00  0.50000000000E+03  0.50000000000E+03  0.00000000000E+00 0.  1.
         11   -1    0    0    0    0 -0.00000000000E+00 -0.00000000000E+00 -0.50000000000E+03  0.50000000000E+03  0.00000000000E+00 0.  1.
        -11    1    1    2    0    0  0.27978751068E+01 -0.24623940986E+02  0.49750605965E+03  0.49812292255E+03  0.00000000000E+00 0.  1.
         11    1    1    2    0    0  0.26664789647E+02  0.26016719016E+00 -0.22546179134E+03  0.22703325318E+03  0.00000000000E+00 0.  1.
        -15    1    1    2    0    0 -0.46616206134E+01  0.25272646337E+01 -0.26824013029E+02  0.27400787894E+02  0.17770000000E+01 0.  1.
         15    1    1    2    0    0 -0.24801044140E+02  0.21836509162E+02 -0.24522025528E+03  0.24744303638E+03  0.17770000000E+01 0. -1.
</event>
<event>
 6    1  0.1823098E-004  0.5017894E+03  0.7546771E-02  0.9395815E-01
        -11   -1    0    0    0    0  0.00000000000E+00  0.00000000000E+00  0.50000000000E+03  0.50000000000E+03  0.00000000000E+00 0. -1.
         11   -1    0    0    0    0 -0.00000000000E+00 -0.00000000000E+00 -0.50000000000E+03  0.50000000000E+03  0.00000000000E+00 0. -1.
        -11    1    1    2    0    0 -0.55649652900E+01 -0.55854866625E+01  0.40069103988E+03  0.40076860648E+03  0.00000000000E+00 0. -1.
         11    1    1    2    0    0  0.39251479767E+01  0.28216595973E+02  0.96920635815E+02  0.10102075392E+03  0.00000000000E+00 0. -1.
        -15    1    1    2    0    0  0.24277537376E+01 -0.19419728111E+02 -0.45802625676E+03  0.45844762998E+03  0.17770000000E+01 0. -1.
         15    1    1    2    0    0 -0.78793642426E+00 -0.32113811992E+01 -0.39585418935E+02  0.39763009623E+02  0.17770000000E+01 0. -1.
</event>
<event>
 6    1  0.1823098E-004  0.5088966E+03  0.7546771E-02  0.9380120E-01
        -11   -1    0    0    0    0  0.00000000000E+00  0.00000000000E+00  0.50000000000E+03  0.50000000000E+03  0.00000000000E+00 0.  1.
         11   -1    0    0    0    0 -0.00000000000E+00 -0.00000000000E+00 -0.50000000000E+03  0.50000000000E+03  0.00000000000E+00 0.  1.
        -11    1    1    2    0    0 -0.40495181601E+01  0.52677039603E+01  0.48751256637E+03  0.48755784238E+03  0.00000000000E+00 0.  1.
         11    1    1    2    0    0  0.85967124731E+01 -0.67624554213E+01 -0.49098154395E+03  0.49110336057E+03  0.00000000000E+00 0.  1.
        -15    1    1    2    0    0 -0.34610480194E+01 -0.50939021713E+01 -0.65523317966E+01  0.91661046086E+01  0.17770000000E+01 0. -1.
         15    1    1    2    0    0 -0.10861462936E+01  0.65886536324E+01  0.10021309376E+02  0.12172692433E+02  0.17770000000E+01 0.  1.
</event>
<event>
 6    1  0.1823098E-004  0.5277889E+03  0.7546771E-02  0.9339690E-01
        -11   -1    0    0    0    0  0.00000000000E+00  0.00000000000E+00  0.50000000000E+03  0.50000000000E+03  0.00000000000E+00 0. -1.
         11   -1    0    0    0    0 -0.00000000000E+00 -0.00000000000E+00 -0.50000000000E+03  0.50000000000E+03  0.00000000000E+00 0. -1.
        -11    1    1    2    0    0 -0.32795017479E+02 -0.19739780470E+01  0.44727233509E+03  0.44847737011E+03  0.00000000000E+00 0. -1.
         11    1    1    2    0    0  0.60406745696E+02  0.11239779027E+02 -0.46819651458E+03  0.47221105856E+03  0.00000000000E+00 0. -1.
        -15    1    1    2    0    0  0.22282884576E+02  0.78906451689E+01  0.68798971656E+01  0.24683596582E+02  0.17770000000E+01 0. -1.
         15    1    1    2    0    0 -0.49894612794E+02 -0.17156446149E+02  0.14044282324E+02  0.54627974750E+02  0.17770000000E+01 0.  1.
</event>
<event>
 6    1  0.1823098E-004  0.5001526E+03  0.7546771E-02  0.9399468E-01
        -11   -1    0    0    0    0  0.00000000000E+00  0.00000000000E+00  0.50000000000E+03  0.50000000000E+03  0.00000000000E+00 0.  1.
         11   -1    0    0    0    0 -0.00000000000E+00 -0.00000000000E+00 -0.50000000000E+03  0.50000000000E+03  0.00000000000E+00 0.  1.
        -11    1    1    2    0    0 -0.45486222394E+01  0.57525996266E-01  0.11331545104E+03  0.11340672254E+03  0.00000000000E+00 0.  1.
         11    1    1    2    0    0  0.15429629110E+01  0.10982095840E+02 -0.49972437357E+03  0.49984741342E+03  0.00000000000E+00 0.  1.
        -15    1    1    2    0    0  0.38033784899E+01 -0.21438492050E+01  0.24429441257E+03  0.24433988524E+03  0.17770000000E+01 0. -1.
         15    1    1    2    0    0 -0.79771916151E+00 -0.88957726313E+01  0.14211450996E+03  0.14240597880E+03  0.17770000000E+01 0.  1.
</event>
<event>
 6    1  0.1823098E-004  0.4814640E+03  0.7546771E-02  0.9442268E-01
        -11   -1    0    0    0    0  0.00000000000E+00  0.00000000000E+00  0.50000000000E+03  0.50000000000E+03  0.00000000000E+00 0.  1.
         11   -1    0    0    0    0 -0.00000000000E+00 -0.00000000000E+00 -0.50000000000E+03  0.50000000000E+03  0.00000000000E+00 0. -1.
        -11    1    1    2    0    0  0.19797367450E+01 -0.82860121155E+01  0.48103446198E+03  0.48110989489E+03  0.00000000000E+00 0.  1.
         11    1    1    2    0    0  0.21519038229E+02  0.15495405508E+02 -0.48140207851E+03  0.48213186763E+03  0.00000000000E+00 0. -1.
        -15    1    1    2    0    0 -0.68139990814E+01  0.90362055321E+01 -0.54546858397E+01  0.12688377379E+02  0.17770000000E+01 0.  1.
         15    1    1    2    0    0 -0.16684775893E+02 -0.16245598925E+02  0.58223023679E+01  0.24069860093E+02  0.17770000000E+01 0. -1.
</event>
<event>
 6    1  0.1823098E-004  0.5061527E+03  0.7546771E-02  0.9386147E-01
        -11   -1    0    0    0    0  0.00000000000E+00  0.00000000000E+00  0.50000000000E+03  0.50000000000E+03  0.00000000000E+00 0. -1.
         11   -1    0    0    0    0 -0.00000000000E+00 -0.00000000000E+00 -0.50000000000E+03  0.50000000000E+03  0.00000000000E+00 0. -1.
        -11    1    1    2    0    0  0.40095391513E+01 -0.60243653408E+01  0.45893301051E+03  0.45899006255E+03  0.00000000000E+00 0. -1.
         11    1    1    2    0    0 -0.30775068189E+02  0.82120956221E+01 -0.49281901873E+03  0.49384727250E+03  0.00000000000E+00 0. -1.
        -15    1    1    2    0    0 -0.22713696011E+01 -0.92437512394E+00  0.65816483367E+01  0.72449577682E+01  0.17770000000E+01 0. -1.
         15    1    1    2    0    0  0.29036898639E+02 -0.12633551574E+01  0.27304359883E+02  0.39917707179E+02  0.17770000000E+01 0.  1.
</event>
<event>
 6    1  0.1823098E-004  0.5037286E+03  0.7546771E-02  0.9391505E-01
        -11   -1    0    0    0    0  0.00000000000E+00  0.00000000000E+00  0.50000000000E+03  0.50000000000E+03  0.00000000000E+00 0. -1.
         11   -1    0    0    0    0 -0.00000000000E+00 -0.00000000000E+00 -0.50000000000E+03  0.50000000000E+03  0.00000000000E+00 0.  1.
        -11    1    1    2    0    0  0.63985904824E+01  0.50188764987E+01  0.49620479637E+03  0.49627142878E+03  0.00000000000E+00 0. -1.
         11    1    1    2    0    0 -0.30185948145E+01  0.14427749129E+02 -0.42774223078E+03  0.42799613065E+03  0.00000000000E+00 0.  1.
        -15    1    1    2    0    0  0.66805256227E+01 -0.14228032133E+02 -0.58295499583E+02  0.60403553882E+02  0.17770000000E+01 0. -1.
         15    1    1    2    0    0 -0.10060521291E+02 -0.52185934948E+01 -0.10167066009E+02  0.15328886683E+02  0.17770000000E+01 0.  1.
</event>
<event>
 6    1  0.1823098E-004  0.4733817E+03  0.7546771E-02  0.9461423E-01
        -11   -1    0    0    0    0  0.00000000000E+00  0.00000000000E+00  0.50000000000E+03  0.50000000000E+03  0.00000000000E+00 0.  1.
         11   -1    0    0    0    0 -0.00000000000E+00 -0.00000000000E+00 -0.50000000000E+03  0.50000000000E+03  0.00000000000E+00 0.  1.
        -11    1    1    2    0    0  0.36729369752E+01  0.55857579634E+01  0.47132846766E+03  0.47137587506E+03  0.00000000000E+00 0.  1.
         11    1    1    2    0    0  0.19803637334E+02  0.36763060573E+02 -0.47479859887E+03  0.47663132100E+03  0.00000000000E+00 0.  1.
        -15    1    1    2    0    0 -0.10791722934E+02 -0.70335533624E+01 -0.41733326011E+01  0.13656741588E+02  0.17770000000E+01 0. -1.
         15    1    1    2    0    0 -0.12684851375E+02 -0.35315265174E+02  0.76434638080E+01  0.38336062353E+02  0.17770000000E+01 0.  1.
</event>
<event>
 6    1  0.1823098E-004  0.5013379E+03  0.7546771E-02  0.9396821E-01
        -11   -1    0    0    0    0  0.00000000000E+00  0.00000000000E+00  0.50000000000E+03  0.50000000000E+03  0.00000000000E+00 0.  1.
         11   -1    0    0    0    0 -0.00000000000E+00 -0.00000000000E+00 -0.50000000000E+03  0.50000000000E+03  0.00000000000E+00 0. -1.
        -11    1    1    2    0    0 -0.63082673922E+01 -0.59789036474E+01  0.49858639224E+03  0.49866214219E+03  0.00000000000E+00 0.  1.
         11    1    1    2    0    0 -0.88327010597E+01  0.14949609200E+02 -0.42549018018E+03  0.42584433876E+03  0.00000000000E+00 0. -1.
        -15    1    1    2    0    0  0.13269734446E+02 -0.91919214030E+01 -0.61145866122E+02  0.63265724876E+02  0.17770000000E+01 0.  1.
         15    1    1    2    0    0  0.18712340063E+01  0.22121585024E+00 -0.11950345945E+02  0.12227794174E+02  0.17770000000E+01 0. -1.
</event>
<event>
 6    1  0.1823098E-004  0.5030009E+03  0.7546771E-02  0.9393120E-01
        -11   -1    0    0    0    0  0.00000000000E+00  0.00000000000E+00  0.50000000000E+03  0.50000000000E+03  0.00000000000E+00 0.  1.
         11   -1    0    0    0    0 -0.00000000000E+00 -0.00000000000E+00 -0.50000000000E+03  0.50000000000E+03  0.00000000000E+00 0. -1.
        -11    1    1    2    0    0 -0.15103052040E+02 -0.16329496017E+01  0.44069254218E+03  0.44095428951E+03  0.00000000000E+00 0.  1.
         11    1    1    2    0    0  0.19225325384E+02 -0.24436637949E+02 -0.49602550583E+03  0.49699905920E+03  0.00000000000E+00 0. -1.
        -15    1    1    2    0    0 -0.38170474088E+01  0.16470813758E+02  0.43497969232E+02  0.46702126430E+02  0.17770000000E+01 0. -1.
         15    1    1    2    0    0 -0.30522593609E+00  0.95987737928E+01  0.11834994418E+02  0.15344524856E+02  0.17770000000E+01 0.  1.
</event>
<event>
 6    1  0.1823098E-004  0.5081660E+03  0.7546771E-02  0.9381721E-01
        -11   -1    0    0    0    0  0.00000000000E+00  0.00000000000E+00  0.50000000000E+03  0.50000000000E+03  0.00000000000E+00 0.  1.
         11   -1    0    0    0    0 -0.00000000000E+00 -0.00000000000E+00 -0.50000000000E+03  0.50000000000E+03  0.00000000000E+00 0.  1.
        -11    1    1    2    0    0  0.10261702103E+02  0.25606783914E+01  0.49172024835E+03  0.49183397833E+03  0.00000000000E+00 0.  1.
         11    1    1    2    0    0 -0.73492527425E+01 -0.24556284146E+02 -0.46549586072E+03  0.46620104993E+03  0.00000000000E+00 0.  1.
        -15    1    1    2    0    0  0.62315140716E+01  0.38964309248E+01  0.13605560908E+01  0.76826286812E+01  0.17770000000E+01 0.  1.
         15    1    1    2    0    0 -0.91439634324E+01  0.18099174830E+02 -0.27584943722E+02  0.34282343063E+02  0.17770000000E+01 0. -1.
</event>
<event>
 6    1  0.1823098E-004  0.5007253E+03  0.7546771E-02  0.9398188E-01
        -11   -1    0    0    0    0  0.00000000000E+00  0.00000000000E+00  0.50000000000E+03  0.50000000000E+03  0.00000000000E+00 0. -1.
         11   -1    0    0    0    0 -0.00000000000E+00 -0.00000000000E+00 -0.50000000000E+03  0.50000000000E+03  0.00000000000E+00 0. -1.
        -11    1    1    2    0    0 -0.75938212439E+01 -0.43265909766E+01  0.49919820154E+03  0.49927470388E+03  0.00000000000E+00 0. -1.
         11    1    1    2    0    0 -0.12950229335E+02  0.10645354447E+02 -0.22546233845E+03  0.22608471436E+03  0.00000000000E+00 0. -1.
        -15    1    1    2    0    0  0.54817633970E+01  0.19847648318E+00 -0.70389961794E+02  0.70625728833E+02  0.17770000000E+01 0.  1.
         15    1    1    2    0    0  0.15062287182E+02 -0.65172399531E+01 -0.20334590130E+03  0.20401485293E+03  0.17770000000E+01 0. -1.
</event>
<event>
 6    1  0.1823098E-004  0.5002607E+03  0.7546771E-02  0.9399226E-01
        -11   -1    0    0    0    0  0.00000000000E+00  0.00000000000E+00  0.50000000000E+03  0.50000000000E+03  0.00000000000E+00 0. -1.
         11   -1    0    0    0    0 -0.00000000000E+00 -0.00000000000E+00 -0.50000000000E+03  0.50000000000E+03  0.00000000000E+00 0.  1.
        -11    1    1    2    0    0 -0.55067826909E+01  0.22046726859E+01  0.40424500798E+03  0.40428852533E+03  0.00000000000E+00 0. -1.
         11    1    1    2    0    0  0.10315889750E+02  0.19549852092E+01 -0.49962895831E+03  0.49973926755E+03  0.00000000000E+00 0.  1.
        -15    1    1    2    0    0  0.15916539289E+01  0.32674727055E+00  0.15332342008E+02  0.15520263092E+02  0.17770000000E+01 0.  1.
         15    1    1    2    0    0 -0.64007609880E+01 -0.44864051657E+01  0.80051608327E+02  0.80451944024E+02  0.17770000000E+01 0. -1.
</event>
<event>
 6    1  0.1823098E-004  0.4885203E+03  0.7546771E-02  0.9425869E-01
        -11   -1    0    0    0    0  0.00000000000E+00  0.00000000000E+00  0.50000000000E+03  0.50000000000E+03  0.00000000000E+00 0. -1.
         11   -1    0    0    0    0 -0.00000000000E+00 -0.00000000000E+00 -0.50000000000E+03  0.50000000000E+03  0.00000000000E+00 0.  1.
        -11    1    1    2    0    0 -0.59858666464E+01 -0.74770451068E+01  0.49163018551E+03  0.49172347525E+03  0.00000000000E+00 0. -1.
         11    1    1    2    0    0  0.11652004462E+01 -0.12273197553E+02 -0.48539207472E+03  0.48554861268E+03  0.00000000000E+00 0.  1.
        -15    1    1    2    0    0  0.83784313574E+00  0.64035249016E+01  0.12515807767E+01  0.68140513445E+01  0.17770000000E+01 0.  1.
         15    1    1    2    0    0  0.39828230645E+01  0.13346717758E+02 -0.74896915651E+01  0.15913860727E+02  0.17770000000E+01 0. -1.
</event>
<event>
 6    1  0.1823098E-004  0.5009188E+03  0.7546771E-02  0.9397756E-01
        -11   -1    0    0    0    0  0.00000000000E+00  0.00000000000E+00  0.50000000000E+03  0.50000000000E+03  0.00000000000E+00 0.  1.
         11   -1    0    0    0    0 -0.00000000000E+00 -0.00000000000E+00 -0.50000000000E+03  0.50000000000E+03  0.00000000000E+00 0. -1.
        -11    1    1    2    0    0  0.51354967228E+00  0.59553165363E+01  0.41891263257E+03  0.41895527596E+03  0.00000000000E+00 0.  1.
         11    1    1    2    0    0  0.67580365927E+01  0.85091265268E+01 -0.49896285609E+03  0.49908116379E+03  0.00000000000E+00 0. -1.
        -15    1    1    2    0    0 -0.12701463388E+01 -0.51837830161E+01  0.16435838105E+02  0.17371798447E+02  0.17770000000E+01 0. -1.
         15    1    1    2    0    0 -0.60014399262E+01 -0.92806600469E+01  0.63614385411E+02  0.64591761799E+02  0.17770000000E+01 0.  1.
</event>
<event>
 6    1  0.1823098E-004  0.5014096E+03  0.7546771E-02  0.9396661E-01
        -11   -1    0    0    0    0  0.00000000000E+00  0.00000000000E+00  0.50000000000E+03  0.50000000000E+03  0.00000000000E+00 0.  1.
         11   -1    0    0    0    0 -0.00000000000E+00 -0.00000000000E+00 -0.50000000000E+03  0.50000000000E+03  0.00000000000E+00 0.  1.
        -11    1    1    2    0    0 -0.44144188206E+01  0.51811234828E+01  0.41799111348E+03  0.41804653100E+03  0.00000000000E+00 0.  1.
         11    1    1    2    0    0  0.97749442193E+01  0.97399341836E+01 -0.49839940586E+03  0.49859039664E+03  0.00000000000E+00 0.  1.
        -15    1    1    2    0    0  0.20466047414E+01 -0.10968711166E+02  0.26984742881E+02  0.29254662756E+02  0.17770000000E+01 0. -1.
         15    1    1    2    0    0 -0.74071301401E+01 -0.39523465005E+01  0.53423549505E+02  0.54108409610E+02  0.17770000000E+01 0.  1.
</event>
<event>
 6    1  0.1823098E-004  0.5023391E+03  0.7546771E-02  0.9394591E-01
        -11   -1    0    0    0    0  0.00000000000E+00  0.00000000000E+00  0.50000000000E+03  0.50000000000E+03  0.00000000000E+00 0. -1.
         11   -1    0    0    0    0 -0.00000000000E+00 -0.00000000000E+00 -0.50000000000E+03  0.50000000000E+03  0.00000000000E+00 0. -1.
        -11    1    1    2    0    0  0.91772317106E+01  0.50248035563E+01  0.47426142319E+03  0.47437682043E+03  0.00000000000E+00 0. -1.
         11    1    1    2    0    0  0.22554002427E+01 -0.11145523521E+02 -0.49753100240E+03  0.49766093665E+03  0.00000000000E+00 0. -1.
        -15    1    1    2    0    0 -0.83067567018E+01  0.32074858033E+01  0.83295513601E+01  0.12321904355E+02  0.17770000000E+01 0.  1.
         15    1    1    2    0    0 -0.31258752515E+01  0.29132341614E+01  0.14940027848E+02  0.15640338566E+02  0.17770000000E+01 0. -1.
</event>
<event>
 6    1  0.1823098E-004  0.5012922E+03  0.7546771E-02  0.9396923E-01
        -11   -1    0    0    0    0  0.00000000000E+00  0.00000000000E+00  0.50000000000E+03  0.50000000000E+03  0.00000000000E+00 0.  1.
         11   -1    0    0    0    0 -0.00000000000E+00 -0.00000000000E+00 -0.50000000000E+03  0.50000000000E+03  0.00000000000E+00 0. -1.
        -11    1    1    2    0    0  0.10470034675E+02  0.21531471940E+02  0.49813277446E+03  0.49870781716E+03  0.00000000000E+00 0.  1.
         11    1    1    2    0    0 -0.10199344084E+02 -0.20486278073E+01 -0.37736549307E+02  0.39144228812E+02  0.00000000000E+00 0. -1.
        -15    1    1    2    0    0  0.10832682243E+02 -0.19275351096E+02 -0.15876236229E+03  0.16030449642E+03  0.17770000000E+01 0.  1.
         15    1    1    2    0    0 -0.11103372834E+02 -0.20749303647E+00 -0.30163386287E+03  0.30184345760E+03  0.17770000000E+01 0. -1.
</event>
<event>
 6    1  0.1823098E-004  0.5005655E+03  0.7546771E-02  0.9398545E-01
        -11   -1    0    0    0    0  0.00000000000E+00  0.00000000000E+00  0.50000000000E+03  0.50000000000E+03  0.00000000000E+00 0.  1.
         11   -1    0    0    0    0 -0.00000000000E+00 -0.00000000000E+00 -0.50000000000E+03  0.50000000000E+03  0.00000000000E+00 0.  1.
        -11    1    1    2    0    0 -0.18799581182E+01 -0.57898586177E+01  0.40608420342E+03  0.40612982773E+03  0.00000000000E+00 0.  1.
         11    1    1    2    0    0  0.49897314520E+01  0.21237011825E+02 -0.49895777706E+03  0.49943445154E+03  0.00000000000E+00 0.  1.
        -15    1    1    2    0    0 -0.99747452544E+00 -0.13662905439E+02  0.75893056408E+02  0.77140026448E+02  0.17770000000E+01 0.  1.
         15    1    1    2    0    0 -0.21122988084E+01 -0.17842477688E+01  0.16980517230E+02  0.17295694284E+02  0.17770000000E+01 0. -1.
</event>
<event>
 6    1  0.1823098E-004  0.5002185E+03  0.7546771E-02  0.9399321E-01
        -11   -1    0    0    0    0  0.00000000000E+00  0.00000000000E+00  0.50000000000E+03  0.50000000000E+03  0.00000000000E+00 0. -1.
         11   -1    0    0    0    0 -0.00000000000E+00 -0.00000000000E+00 -0.50000000000E+03  0.50000000000E+03  0.00000000000E+00 0.  1.
        -11    1    1    2    0    0 -0.12038136981E+02 -0.15978871883E+02  0.49938092145E+03  0.49978149805E+03  0.00000000000E+00 0. -1.
         11    1    1    2    0    0  0.98587815840E+01  0.10171610974E+02 -0.15537172644E+03  0.15601612295E+03  0.00000000000E+00 0.  1.
        -15    1    1    2    0    0  0.17758707976E+01  0.39888913756E+01 -0.32322394760E+03  0.32325832241E+03  0.17770000000E+01 0.  1.
         15    1    1    2    0    0  0.40348459900E+00  0.18183695334E+01 -0.20785247407E+02  0.20944056587E+02  0.17770000000E+01 0.  1.
</event>
<event>
 6    1  0.1823098E-004  0.5025871E+03  0.7546771E-02  0.9394039E-01
        -11   -1    0    0    0    0  0.00000000000E+00  0.00000000000E+00  0.50000000000E+03  0.50000000000E+03  0.00000000000E+00 0. -1.
         11   -1    0    0    0    0 -0.00000000000E+00 -0.00000000000E+00 -0.50000000000E+03  0.50000000000E+03  0.00000000000E+00 0. -1.
        -11    1    1    2    0    0 -0.87003649174E+01 -0.40588083759E+01  0.47646024742E+03  0.47655696160E+03  0.00000000000E+00 0. -1.
         11    1    1    2    0    0  0.58556715661E+01  0.57390158176E+01 -0.49734531277E+03  0.49741289220E+03  0.00000000000E+00 0. -1.
        -15    1    1    2    0    0  0.89268394726E+01 -0.11817662873E+01  0.12128347223E+02  0.15209851081E+02  0.17770000000E+01 0.  1.
         15    1    1    2    0    0 -0.60821461214E+01 -0.49844115449E+00  0.87567181326E+01  0.10820295120E+02  0.17770000000E+01 0. -1.
</event>
<event>
 6    1  0.1823098E-004  0.5002286E+03  0.7546771E-02  0.9399298E-01
        -11   -1    0    0    0    0  0.00000000000E+00  0.00000000000E+00  0.50000000000E+03  0.50000000000E+03  0.00000000000E+00 0. -1.
         11   -1    0    0    0    0 -0.00000000000E+00 -0.00000000000E+00 -0.50000000000E+03  0.50000000000E+03  0.00000000000E+00 0.  1.
        -11    1    1    2    0    0 -0.45747957609E+01  0.38512060418E+01  0.33919153252E+03  0.33924424281E+03  0.00000000000E+00 0. -1.
         11    1    1    2    0    0  0.10659880494E+02 -0.23884195331E+01 -0.49965195754E+03  0.49977136400E+03  0.00000000000E+00 0.  1.
        -15    1    1    2    0    0 -0.48175247620E+01 -0.12806431143E+01  0.15514673615E+03  0.15523696744E+03  0.17770000000E+01 0.  1.
         15    1    1    2    0    0 -0.12675599716E+01 -0.18214339438E+00  0.53136888676E+01  0.57474257611E+01  0.17770000000E+01 0.  1.
</event>
<event>
 6    1  0.1823098E-004  0.5148196E+03  0.7546771E-02  0.9367247E-01
        -11   -1    0    0    0    0  0.00000000000E+00  0.00000000000E+00  0.50000000000E+03  0.50000000000E+03  0.00000000000E+00 0.  1.
         11   -1    0    0    0    0 -0.00000000000E+00 -0.00000000000E+00 -0.50000000000E+03  0.50000000000E+03  0.00000000000E+00 0.  1.
        -11    1    1    2    0    0  0.46079313967E+01 -0.50347643098E+01  0.48513243451E+03  0.48518044158E+03  0.00000000000E+00 0.  1.
         11    1    1    2    0    0  0.16012351101E+02  0.36316150169E+02 -0.45625306725E+03  0.45797611240E+03  0.00000000000E+00 0.  1.
        -15    1    1    2    0    0 -0.14700130895E+02 -0.29930235602E+02 -0.34763300889E+02  0.48203295211E+02  0.17770000000E+01 0. -1.
         15    1    1    2    0    0 -0.59201516023E+01 -0.13511502571E+01  0.58839336303E+01  0.86401508075E+01  0.17770000000E+01 0.  1.
</event>
<event>
 6    1  0.1823098E-004  0.5031902E+03  0.7546771E-02  0.9392699E-01
        -11   -1    0    0    0    0  0.00000000000E+00  0.00000000000E+00  0.50000000000E+03  0.50000000000E+03  0.00000000000E+00 0.  1.
         11   -1    0    0    0    0 -0.00000000000E+00 -0.00000000000E+00 -0.50000000000E+03  0.50000000000E+03  0.00000000000E+00 0. -1.
        -11    1    1    2    0    0 -0.72289522672E+01 -0.14706716717E+01  0.49675499848E+03  0.49680977159E+03  0.00000000000E+00 0.  1.
         11    1    1    2    0    0 -0.74346765881E+01 -0.51621579957E+01 -0.47229802575E+03  0.47238474512E+03  0.00000000000E+00 0. -1.
        -15    1    1    2    0    0  0.56773526555E+01 -0.48830949107E+00 -0.36910993072E+01  0.70180283862E+01  0.17770000000E+01 0. -1.
         15    1    1    2    0    0  0.89862761997E+01  0.71211391584E+01 -0.20765873427E+02  0.23787454909E+02  0.17770000000E+01 0.  1.
</event>
<event>
 6    1  0.1823098E-004  0.5006570E+03  0.7546771E-02  0.9398341E-01
        -11   -1    0    0    0    0  0.00000000000E+00  0.00000000000E+00  0.50000000000E+03  0.50000000000E+03  0.00000000000E+00 0. -1.
         11   -1    0    0    0    0 -0.00000000000E+00 -0.00000000000E+00 -0.50000000000E+03  0.50000000000E+03  0.00000000000E+00 0.  1.
        -11    1    1    2    0    0  0.20219551757E+02 -0.16641524045E+02  0.49865589129E+03  0.49934303691E+03  0.00000000000E+00 0. -1.
         11    1    1    2    0    0 -0.20995445713E+02  0.17227049133E+02 -0.20300125117E+03  0.20480988242E+03  0.00000000000E+00 0.  1.
        -15    1    1    2    0    0  0.49843065384E+01  0.96920936465E+00 -0.11208390540E+03  0.11221293267E+03  0.17770000000E+01 0.  1.
         15    1    1    2    0    0 -0.42084125826E+01 -0.15547344521E+01 -0.18357073472E+03  0.18363414800E+03  0.17770000000E+01 0. -1.
</event>
<event>
 6    1  0.1823098E-004  0.5016223E+03  0.7546771E-02  0.9396187E-01
        -11   -1    0    0    0    0  0.00000000000E+00  0.00000000000E+00  0.50000000000E+03  0.50000000000E+03  0.00000000000E+00 0. -1.
         11   -1    0    0    0    0 -0.00000000000E+00 -0.00000000000E+00 -0.50000000000E+03  0.50000000000E+03  0.00000000000E+00 0. -1.
        -11    1    1    2    0    0 -0.20798251954E+01 -0.10926223640E+02  0.49825356217E+03  0.49837768836E+03  0.00000000000E+00 0. -1.
         11    1    1    2    0    0 -0.67383232530E+01 -0.29194917090E+01 -0.42804130323E+03  0.42810429302E+03  0.00000000000E+00 0. -1.
        -15    1    1    2    0    0  0.10228623557E+02  0.11427895141E+02 -0.67473929369E+02  0.69217847415E+02  0.17770000000E+01 0. -1.
         15    1    1    2    0    0 -0.14104751083E+01  0.24178202077E+01 -0.27383295696E+01  0.43001712082E+01  0.17770000000E+01 0.  1.
</event>
<event>
 6    1  0.1823098E-004  0.5241266E+03  0.7546771E-02  0.9347386E-01
        -11   -1    0    0    0    0  0.00000000000E+00  0.00000000000E+00  0.50000000000E+03  0.50000000000E+03  0.00000000000E+00 0.  1.
         11   -1    0    0    0    0 -0.00000000000E+00 -0.00000000000E+00 -0.50000000000E+03  0.50000000000E+03  0.00000000000E+00 0.  1.
        -11    1    1    2    0    0  0.45762553598E+02 -0.15734253152E+02  0.47340646973E+03  0.47587336931E+03  0.00000000000E+00 0.  1.
         11    1    1    2    0    0 -0.46252434616E+02  0.66075713154E+02 -0.41908224587E+03  0.42677302677E+03  0.00000000000E+00 0.  1.
        -15    1    1    2    0    0 -0.19159589946E+02 -0.13618570298E+01  0.28801016029E+01  0.19503775422E+02  0.17770000000E+01 0. -1.
         15    1    1    2    0    0  0.19649470964E+02 -0.48979602972E+02 -0.57204325460E+02  0.77849828496E+02  0.17770000000E+01 0.  1.
</event>
<event>
 6    1  0.1823098E-004  0.5008784E+03  0.7546771E-02  0.9397846E-01
        -11   -1    0    0    0    0  0.00000000000E+00  0.00000000000E+00  0.50000000000E+03  0.50000000000E+03  0.00000000000E+00 0. -1.
         11   -1    0    0    0    0 -0.00000000000E+00 -0.00000000000E+00 -0.50000000000E+03  0.50000000000E+03  0.00000000000E+00 0.  1.
        -11    1    1    2    0    0 -0.91070321780E+01 -0.16072533956E+02  0.49877964739E+03  0.49912162950E+03  0.00000000000E+00 0. -1.
         11    1    1    2    0    0  0.17592967730E+02  0.89562688822E+01 -0.44586084343E+03  0.44629767977E+03  0.00000000000E+00 0.  1.
        -15    1    1    2    0    0 -0.86549004369E+01  0.48779810788E+01 -0.45977273863E+02  0.47071960251E+02  0.17770000000E+01 0. -1.
         15    1    1    2    0    0  0.16896488494E+00  0.22382839950E+01 -0.69415300987E+01  0.75087304843E+01  0.17770000000E+01 0. -1.
</event>
<event>
 6    1  0.1823098E-004  0.4983169E+03  0.7546771E-02  0.9403584E-01
        -11   -1    0    0    0    0  0.00000000000E+00  0.00000000000E+00  0.50000000000E+03  0.50000000000E+03  0.00000000000E+00 0. -1.
         11   -1    0    0    0    0 -0.00000000000E+00 -0.00000000000E+00 -0.50000000000E+03  0.50000000000E+03  0.00000000000E+00 0.  1.
        -11    1    1    2    0    0  0.63082815557E+01 -0.19415661118E+02  0.49933737047E+03  0.49975451159E+03  0.00000000000E+00 0. -1.
         11    1    1    2    0    0 -0.42884354943E+00  0.17514790700E+01 -0.28849998759E+01  0.34021772450E+01  0.00000000000E+00 0.  1.
        -15    1    1    2    0    0 -0.38916053557E+01  0.86217635710E+01 -0.18718077225E+03  0.18742806255E+03  0.17770000000E+01 0.  1.
         15    1    1    2    0    0 -0.19878326506E+01  0.90424184766E+01 -0.30927159834E+03  0.30941524862E+03  0.17770000000E+01 0. -1.
</event>
<event>
 6    1  0.1823098E-004  0.5004394E+03  0.7546771E-02  0.9398827E-01
        -11   -1    0    0    0    0  0.00000000000E+00  0.00000000000E+00  0.50000000000E+03  0.50000000000E+03  0.00000000000E+00 0.  1.
         11   -1    0    0    0    0 -0.00000000000E+00 -0.00000000000E+00 -0.50000000000E+03  0.50000000000E+03  0.00000000000E+00 0.  1.
        -11    1    1    2    0    0 -0.59047388169E+01 -0.28210038094E+00  0.31868906840E+03  0.31874389067E+03  0.00000000000E+00 0.  1.
         11    1    1    2    0    0 -0.13077357838E+01 -0.15673484646E+02 -0.49931290774E+03  0.49956055501E+03  0.00000000000E+00 0.  1.
        -15    1    1    2    0    0  0.22978568550E+01  0.29884239241E+01  0.18196715448E+02  0.18667860235E+02  0.17770000000E+01 0.  1.
         15    1    1    2    0    0  0.49146177457E+01  0.12967161103E+02  0.16242712389E+03  0.16302769408E+03  0.17770000000E+01 0. -1.
</event>
<event>
 6    1  0.1823098E-004  0.5022120E+03  0.7546771E-02  0.9394874E-01
        -11   -1    0    0    0    0  0.00000000000E+00  0.00000000000E+00  0.50000000000E+03  0.50000000000E+03  0.00000000000E+00 0.  1.
         11   -1    0    0    0    0 -0.00000000000E+00 -0.00000000000E+00 -0.50000000000E+03  0.50000000000E+03  0.00000000000E+00 0. -1.
        -11    1    1    2    0    0  0.12525365654E+00  0.82940581500E+01  0.42872434820E+03  0.42880458700E+03  0.00000000000E+00 0.  1.
         11    1    1    2    0    0  0.90150640602E+01 -0.10428319232E+02 -0.49759711944E+03  0.49778802164E+03  0.00000000000E+00 0. -1.
        -15    1    1    2    0    0 -0.76411803405E+01 -0.92865086930E+01  0.47848939906E+02  0.49369075947E+02  0.17770000000E+01 0. -1.
         15    1    1    2    0    0 -0.14991373762E+01  0.11420769775E+02  0.21023831326E+02  0.24038315410E+02  0.17770000000E+01 0.  1.
</event>
<event>
 6    1  0.1823098E-004  0.5031613E+03  0.7546771E-02  0.9392764E-01
        -11   -1    0    0    0    0  0.00000000000E+00  0.00000000000E+00  0.50000000000E+03  0.50000000000E+03  0.00000000000E+00 0.  1.
         11   -1    0    0    0    0 -0.00000000000E+00 -0.00000000000E+00 -0.50000000000E+03  0.50000000000E+03  0.00000000000E+00 0. -1.
        -11    1    1    2    0    0  0.44595442216E+01 -0.88265145993E+01  0.41734745425E+03  0.41746460026E+03  0.00000000000E+00 0.  1.
         11    1    1    2    0    0  0.18382659608E+02  0.32020251720E+02 -0.49546490243E+03  0.49683869438E+03  0.00000000000E+00 0. -1.
        -15    1    1    2    0    0 -0.19333577076E+02 -0.14639984245E+02  0.66099319655E+02  0.70430065520E+02  0.17770000000E+01 0.  1.
         15    1    1    2    0    0 -0.35086267532E+01 -0.85537528752E+01  0.12018128520E+02  0.15266639842E+02  0.17770000000E+01 0. -1.
</event>
<event>
 6    1  0.1823098E-004  0.5001138E+03  0.7546771E-02  0.9399555E-01
        -11   -1    0    0    0    0  0.00000000000E+00  0.00000000000E+00  0.50000000000E+03  0.50000000000E+03  0.00000000000E+00 0. -1.
         11   -1    0    0    0    0 -0.00000000000E+00 -0.00000000000E+00 -0.50000000000E+03  0.50000000000E+03  0.00000000000E+00 0. -1.
        -11    1    1    2    0    0  0.11747345790E+02 -0.10616007764E+02  0.49963536312E+03  0.49988618288E+03  0.00000000000E+00 0. -1.
         11    1    1    2    0    0 -0.72377785524E+01  0.12124159206E+02 -0.25476814288E+03  0.25515914112E+03  0.00000000000E+00 0. -1.
        -15    1    1    2    0    0 -0.37694535088E+01 -0.85072467758E+00 -0.19432212363E+03  0.19436866510E+03  0.17770000000E+01 0. -1.
         15    1    1    2    0    0 -0.74011372877E+00 -0.65742676448E+00 -0.50545096613E+02  0.50586010901E+02  0.17770000000E+01 0.  1.
</event>
<event>
 6    1  0.1823098E-004  0.4820681E+03  0.7546771E-02  0.9440853E-01
        -11   -1    0    0    0    0  0.00000000000E+00  0.00000000000E+00  0.50000000000E+03  0.50000000000E+03  0.00000000000E+00 0.  1.
         11   -1    0    0    0    0 -0.00000000000E+00 -0.00000000000E+00 -0.50000000000E+03  0.50000000000E+03  0.00000000000E+00 0.  1.
        -11    1    1    2    0    0 -0.11539898715E+02 -0.62674121604E+01  0.49006572692E+03  0.49024164085E+03  0.00000000000E+00 0.  1.
         11    1    1    2    0    0 -0.22331969761E+01 -0.20112207358E+02 -0.47405489102E+03  0.47448659386E+03  0.00000000000E+00 0.  1.
        -15    1    1    2    0    0  0.14560373050E+02  0.21387664609E+02 -0.14467771854E+02  0.29696983217E+02  0.17770000000E+01 0.  1.
         15    1    1    2    0    0 -0.78727735847E+00  0.49919549091E+01 -0.15430640471E+01  0.55747820682E+01  0.17770000000E+01 0. -1.
</event>
<event>
 6    1  0.1823098E-004  0.5003849E+03  0.7546771E-02  0.9398949E-01
        -11   -1    0    0    0    0  0.00000000000E+00  0.00000000000E+00  0.50000000000E+03  0.50000000000E+03  0.00000000000E+00 0.  1.
         11   -1    0    0    0    0 -0.00000000000E+00 -0.00000000000E+00 -0.50000000000E+03  0.50000000000E+03  0.00000000000E+00 0. -1.
        -11    1    1    2    0    0 -0.50432440983E+01  0.87212180571E+01  0.49951347872E+03  0.49961506120E+03  0.00000000000E+00 0.  1.
         11    1    1    2    0    0 -0.34908214453E+01 -0.95975422117E+01 -0.95833712505E+02  0.96376340993E+02  0.00000000000E+00 0. -1.
        -15    1    1    2    0    0  0.42458592585E+01  0.40043950883E+01 -0.34689018960E+03  0.34694383389E+03  0.17770000000E+01 0. -1.
         15    1    1    2    0    0  0.42882062851E+01 -0.31280709337E+01 -0.56789576608E+02  0.57064763920E+02  0.17770000000E+01 0.  1.
</event>
<event>
 6    1  0.1823098E-004  0.5010125E+03  0.7546771E-02  0.9397547E-01
        -11   -1    0    0    0    0  0.00000000000E+00  0.00000000000E+00  0.50000000000E+03  0.50000000000E+03  0.00000000000E+00 0. -1.
         11   -1    0    0    0    0 -0.00000000000E+00 -0.00000000000E+00 -0.50000000000E+03  0.50000000000E+03  0.00000000000E+00 0. -1.
        -11    1    1    2    0    0 -0.10260754321E+02 -0.43625107911E+01  0.46684697391E+03  0.46698009768E+03  0.00000000000E+00 0. -1.
         11    1    1    2    0    0  0.67233082983E+01 -0.14396737848E+01 -0.49894015830E+03  0.49898753200E+03  0.00000000000E+00 0. -1.
        -15    1    1    2    0    0 -0.14726124414E+01 -0.11252496251E+01  0.82640873383E+01  0.86537646523E+01  0.17770000000E+01 0.  1.
         15    1    1    2    0    0  0.50100584641E+01  0.69274342010E+01  0.23829097048E+02  0.25378605666E+02  0.17770000000E+01 0. -1.
</event>
<event>
 6    1  0.1823098E-004  0.4589367E+03  0.7546771E-02  0.9496691E-01
        -11   -1    0    0    0    0  0.00000000000E+00  0.00000000000E+00  0.50000000000E+03  0.50000000000E+03  0.00000000000E+00 0.  1.
         11   -1    0    0    0    0 -0.00000000000E+00 -0.00000000000E+00 -0.50000000000E+03  0.50000000000E+03  0.00000000000E+00 0. -1.
        -11    1    1    2    0    0 -0.97667959654E+01 -0.12510881474E+01  0.45358450899E+03  0.45369137342E+03  0.00000000000E+00 0.  1.
         11    1    1    2    0    0  0.54014211525E+02 -0.53158360075E+02 -0.46069296998E+03  0.46688473833E+03  0.00000000000E+00 0. -1.
        -15    1    1    2    0    0 -0.32299204615E+01  0.31895130759E+02  0.31032778381E+00  0.32108967356E+02  0.17770000000E+01 0. -1.
         15    1    1    2    0    0 -0.41017495098E+02  0.22514317463E+02  0.67981332081E+01  0.47314920892E+02  0.17770000000E+01 0.  1.
</event>
<event>
 6    1  0.1823098E-004  0.5069783E+03  0.7546771E-02  0.9384329E-01
        -11   -1    0    0    0    0  0.00000000000E+00  0.00000000000E+00  0.50000000000E+03  0.50000000000E+03  0.00000000000E+00 0. -1.
         11   -1    0    0    0    0 -0.00000000000E+00 -0.00000000000E+00 -0.50000000000E+03  0.50000000000E+03  0.00000000000E+00 0. -1.
        -11    1    1    2    0    0 -0.39644782645E+01 -0.91824880990E+01  0.49292019537E+03  0.49302165690E+03  0.00000000000E+00 0. -1.
         11    1    1    2    0    0 -0.11218437476E+02  0.22954865579E+02 -0.44476400072E+03  0.44549724526E+03  0.00000000000E+00 0. -1.
        -15    1    1    2    0    0  0.93906022969E+01 -0.24133468963E+02 -0.36155372685E+02  0.44508161484E+02  0.17770000000E+01 0. -1.
         15    1    1    2    0    0  0.57923134434E+01  0.10361091483E+02 -0.12000821960E+02  0.16972936354E+02  0.17770000000E+01 0. -1.
</event>
<event>
 6    1  0.1823098E-004  0.5010132E+03  0.7546771E-02  0.9397545E-01
        -11   -1    0    0    0    0  0.00000000000E+00  0.00000000000E+00  0.50000000000E+03  0.50000000000E+03  0.00000000000E+00 0. -1.
         11   -1    0    0    0    0 -0.00000000000E+00 -0.00000000000E+00 -0.50000000000E+03  0.50000000000E+03  0.00000000000E+00 0.  1.
        -11    1    1    2    0    0  0.78515098248E+01 -0.55161221288E+00  0.49892471843E+03  0.49898679857E+03  0.00000000000E+00 0. -1.
         11    1    1    2    0    0 -0.77534715111E+01 -0.64131498573E+01 -0.47559318454E+03  0.47569961319E+03  0.00000000000E+00 0.  1.
        -15    1    1    2    0    0  0.15743731892E+01 -0.18804624226E-01 -0.67939786790E+01  0.71968659737E+01  0.17770000000E+01 0. -1.
         15    1    1    2    0    0 -0.16724115029E+01  0.69835666944E+01 -0.16537555217E+02  0.18116722263E+02  0.17770000000E+01 0.  1.
</event>
<event>
 6    1  0.1823098E-004  0.5091524E+03  0.7546771E-02  0.9379560E-01
        -11   -1    0    0    0    0  0.00000000000E+00  0.00000000000E+00  0.50000000000E+03  0.50000000000E+03  0.00000000000E+00 0. -1.
         11   -1    0    0    0    0 -0.00000000000E+00 -0.00000000000E+00 -0.50000000000E+03  0.50000000000E+03  0.00000000000E+00 0. -1.
        -11    1    1    2    0    0  0.60914769144E+01  0.41868204911E+01  0.46941530924E+03  0.46947350097E+03  0.00000000000E+00 0. -1.
         11    1    1    2    0    0  0.18121507170E+02  0.10042762040E+02 -0.49041020270E+03  0.49084764744E+03  0.00000000000E+00 0. -1.
        -15    1    1    2    0    0  0.99140780903E+00 -0.70934061414E+01  0.38748913381E+01  0.83349752256E+01  0.17770000000E+01 0. -1.
         15    1    1    2    0    0 -0.25204391893E+02 -0.71361763899E+01  0.17120002116E+02  0.31343876365E+02  0.17770000000E+01 0.  1.
</event>
<event>
 6    1  0.1823098E-004  0.5015712E+03  0.7546771E-02  0.9396301E-01
        -11   -1    0    0    0    0  0.00000000000E+00  0.00000000000E+00  0.50000000000E+03  0.50000000000E+03  0.00000000000E+00 0. -1.
         11   -1    0    0    0    0 -0.00000000000E+00 -0.00000000000E+00 -0.50000000000E+03  0.50000000000E+03  0.00000000000E+00 0.  1.
        -11    1    1    2    0    0  0.56457646965E+01  0.12605723789E+02  0.34029815067E+03  0.34057834676E+03  0.00000000000E+00 0. -1.
         11    1    1    2    0    0  0.58009938288E+01  0.12395612589E+02 -0.49824085432E+03  0.49842878293E+03  0.00000000000E+00 0.  1.
        -15    1    1    2    0    0 -0.10426365395E+02 -0.17981759071E+02  0.14106316796E+03  0.14259743279E+03  0.17770000000E+01 0. -1.
         15    1    1    2    0    0 -0.10203931306E+01 -0.70195773072E+01  0.16879535685E+02  0.18395437522E+02  0.17770000000E+01 0.  1.
</event>
<event>
 6    1  0.1823098E-004  0.5056145E+03  0.7546771E-02  0.9387334E-01
        -11   -1    0    0    0    0  0.00000000000E+00  0.00000000000E+00  0.50000000000E+03  0.50000000000E+03  0.00000000000E+00 0.  1.
         11   -1    0    0    0    0 -0.00000000000E+00 -0.00000000000E+00 -0.50000000000E+03  0.50000000000E+03  0.00000000000E+00 0.  1.
        -11    1    1    2    0    0  0.36553317348E+01 -0.10382751549E+02  0.48244105476E+03  0.48256661126E+03  0.00000000000E+00 0.  1.
         11    1    1    2    0    0 -0.85222761883E+01  0.32742864942E+00 -0.49431192859E+03  0.49438549650E+03  0.00000000000E+00 0.  1.
        -15    1    1    2    0    0  0.84858616492E+01  0.26821482841E+01  0.11481931473E+02  0.14635444875E+02  0.17770000000E+01 0.  1.
         15    1    1    2    0    0 -0.36189171957E+01  0.73731746151E+01  0.38894235693E+00  0.84124473687E+01  0.17770000000E+01 0. -1.
</event>
<event>
 6    1  0.1823098E-004  0.5009344E+03  0.7546771E-02  0.9397721E-01
        -11   -1    0    0    0    0  0.00000000000E+00  0.00000000000E+00  0.50000000000E+03  0.50000000000E+03  0.00000000000E+00 0. -1.
         11   -1    0    0    0    0 -0.00000000000E+00 -0.00000000000E+00 -0.50000000000E+03  0.50000000000E+03  0.00000000000E+00 0.  1.
        -11    1    1    2    0    0  0.81203502447E+01  0.17123714994E+01  0.49899664122E+03  0.49906564723E+03  0.00000000000E+00 0. -1.
         11    1    1    2    0    0 -0.15050201862E+02  0.76946738476E+01 -0.43253379223E+03  0.43286394860E+03  0.00000000000E+00 0.  1.
        -15    1    1    2    0    0  0.77978422160E+01 -0.95856495967E+01 -0.60829750797E+02  0.62097563016E+02  0.17770000000E+01 0. -1.
         15    1    1    2    0    0 -0.86799059861E+00  0.17860424973E+00 -0.56330981917E+01  0.59728411493E+01  0.17770000000E+01 0.  1.
</event>
<event>
 6    1  0.1823098E-004  0.4941259E+03  0.7546771E-02  0.9413050E-01
        -11   -1    0    0    0    0  0.00000000000E+00  0.00000000000E+00  0.50000000000E+03  0.50000000000E+03  0.00000000000E+00 0. -1.
         11   -1    0    0    0    0 -0.00000000000E+00 -0.00000000000E+00 -0.50000000000E+03  0.50000000000E+03  0.00000000000E+00 0.  1.
        -11    1    1    2    0    0 -0.65293014790E+01 -0.53553929880E+01  0.49348686050E+03  0.49355910841E+03  0.00000000000E+00 0. -1.
         11    1    1    2    0    0  0.50617586456E+01 -0.43809476312E+01 -0.49469710276E+03  0.49474239518E+03  0.00000000000E+00 0.  1.
        -15    1    1    2    0    0  0.24635596357E+01  0.41911163355E+01 -0.12078730034E+01  0.53151922269E+01  0.17770000000E+01 0. -1.
         15    1    1    2    0    0 -0.99601680223E+00  0.55452242836E+01  0.24181152663E+01  0.63833041810E+01  0.17770000000E+01 0.  1.
</event>
<event>
 6    1  0.1823098E-004  0.5027182E+03  0.7546771E-02  0.9393748E-01
        -11   -1    0    0    0    0  0.00000000000E+00  0.00000000000E+00  0.50000000000E+03  0.50000000000E+03  0.00000000000E+00 0. -1.
         11   -1    0    0    0    0 -0.00000000000E+00 -0.00000000000E+00 -0.50000000000E+03  0.50000000000E+03  0.00000000000E+00 0. -1.
        -11    1    1    2    0    0  0.18421764931E+01  0.83707282833E+01  0.46948940758E+03  0.46956763787E+03  0.00000000000E+00 0. -1.
         11    1    1    2    0    0  0.46444503389E+01 -0.86071815722E+01 -0.49718558412E+03  0.49728177078E+03  0.00000000000E+00 0. -1.
        -15    1    1    2    0    0 -0.42804565110E+01 -0.36672414495E+01  0.96567812509E+00  0.59884247539E+01  0.17770000000E+01 0. -1.
         15    1    1    2    0    0 -0.22061703210E+01  0.39036947384E+01  0.26730498412E+02  0.27162166601E+02  0.17770000000E+01 0.  1.
</event>
<event>
 6    1  0.1823098E-004  0.5020682E+03  0.7546771E-02  0.9395194E-01
        -11   -1    0    0    0    0  0.00000000000E+00  0.00000000000E+00  0.50000000000E+03  0.50000000000E+03  0.00000000000E+00 0. -1.
         11   -1    0    0    0    0 -0.00000000000E+00 -0.00000000000E+00 -0.50000000000E+03  0.50000000000E+03  0.00000000000E+00 0. -1.
        -11    1    1    2    0    0  0.43275949141E+01 -0.98925238030E+01  0.45315155213E+03  0.45328017749E+03  0.00000000000E+00 0. -1.
         11    1    1    2    0    0  0.68916274228E+01 -0.40135343435E+01 -0.49786789030E+03  0.49793176157E+03  0.00000000000E+00 0. -1.
        -15    1    1    2    0    0 -0.10581013942E+02  0.13399904565E+02  0.36394141310E+02  0.40239365665E+02  0.17770000000E+01 0. -1.
         15    1    1    2    0    0 -0.63820839501E+00  0.50615358109E+00  0.83221968596E+01  0.85486952790E+01  0.17770000000E+01 0.  1.
</event>
<event>
 6    1  0.1823098E-004  0.5012489E+03  0.7546771E-02  0.9397019E-01
        -11   -1    0    0    0    0  0.00000000000E+00  0.00000000000E+00  0.50000000000E+03  0.50000000000E+03  0.00000000000E+00 0. -1.
         11   -1    0    0    0    0 -0.00000000000E+00 -0.00000000000E+00 -0.50000000000E+03  0.50000000000E+03  0.00000000000E+00 0. -1.
        -11    1    1    2    0    0 -0.33448037838E+00  0.39428547632E+01  0.12537929936E+03  0.12544172626E+03  0.00000000000E+00 0. -1.
         11    1    1    2    0    0  0.14786465657E+02  0.32624365649E+02 -0.49746318975E+03  0.49875105409E+03  0.00000000000E+00 0. -1.
        -15    1    1    2    0    0 -0.11312300658E+02 -0.35653739107E+02  0.18839788360E+03  0.19208351708E+03  0.17770000000E+01 0. -1.
         15    1    1    2    0    0 -0.31396846208E+01 -0.91348130522E+00  0.18368600679E+03  0.18372370257E+03  0.17770000000E+01 0.  1.
</event>
<event>
 6    1  0.1823098E-004  0.5014216E+03  0.7546771E-02  0.9396634E-01
        -11   -1    0    0    0    0  0.00000000000E+00  0.00000000000E+00  0.50000000000E+03  0.50000000000E+03  0.00000000000E+00 0.  1.
         11   -1    0    0    0    0 -0.00000000000E+00 -0.00000000000E+00 -0.50000000000E+03  0.50000000000E+03  0.00000000000E+00 0. -1.
        -11    1    1    2    0    0  0.67159603765E+01 -0.76327763984E+00  0.45645440868E+03  0.45650445115E+03  0.00000000000E+00 0.  1.
         11    1    1    2    0    0  0.48093788817E+01  0.10539473977E+02 -0.49844381827E+03  0.49857842974E+03  0.00000000000E+00 0. -1.
        -15    1    1    2    0    0 -0.29369687298E+01 -0.36512318659E+01  0.17267848561E+02  0.17980367137E+02  0.17770000000E+01 0.  1.
         15    1    1    2    0    0 -0.85883705284E+01 -0.61249644713E+01  0.24721561023E+02  0.26936751967E+02  0.17770000000E+01 0. -1.
</event>
<event>
 6    1  0.1823098E-004  0.5053793E+03  0.7546771E-02  0.9387853E-01
        -11   -1    0    0    0    0  0.00000000000E+00  0.00000000000E+00  0.50000000000E+03  0.50000000000E+03  0.00000000000E+00 0.  1.
         11   -1    0    0    0    0 -0.00000000000E+00 -0.00000000000E+00 -0.50000000000E+03  0.50000000000E+03  0.00000000000E+00 0.  1.
        -11    1    1    2    0    0  0.20108244791E+02  0.69878403956E+01  0.39554740944E+03  0.39611983608E+03  0.00000000000E+00 0.  1.
         11    1    1    2    0    0 -0.39386901207E+02 -0.21008971003E+02 -0.49260215739E+03  0.49462065294E+03  0.00000000000E+00 0.  1.
        -15    1    1    2    0    0 -0.13057194905E+02  0.33235563012E+01  0.45160664640E+02  0.47161209961E+02  0.17770000000E+01 0.  1.
         15    1    1    2    0    0  0.32335851321E+02  0.10697574306E+02  0.51894083315E+02  0.62098301014E+02  0.17770000000E+01 0. -1.
</event>
<event>
 6    1  0.1823098E-004  0.5002706E+03  0.7546771E-02  0.9399205E-01
        -11   -1    0    0    0    0  0.00000000000E+00  0.00000000000E+00  0.50000000000E+03  0.50000000000E+03  0.00000000000E+00 0.  1.
         11   -1    0    0    0    0 -0.00000000000E+00 -0.00000000000E+00 -0.50000000000E+03  0.50000000000E+03  0.00000000000E+00 0.  1.
        -11    1    1    2    0    0 -0.23676524790E+01  0.14025888886E+01  0.16337171756E+03  0.16339489323E+03  0.00000000000E+00 0.  1.
         11    1    1    2    0    0 -0.18633808675E+02 -0.72385958042E+01 -0.49932944994E+03  0.49972944247E+03  0.00000000000E+00 0.  1.
        -15    1    1    2    0    0  0.14901661364E+02  0.40471148105E+01  0.15050031431E+03  0.15130082943E+03  0.17770000000E+01 0. -1.
         15    1    1    2    0    0  0.60997997908E+01  0.17888921051E+01  0.18545741806E+03  0.18557483487E+03  0.17770000000E+01 0.  1.
</event>
<event>
 6    1  0.1823098E-004  0.5002375E+03  0.7546771E-02  0.9399278E-01
        -11   -1    0    0    0    0  0.00000000000E+00  0.00000000000E+00  0.50000000000E+03  0.50000000000E+03  0.00000000000E+00 0.  1.
         11   -1    0    0    0    0 -0.00000000000E+00 -0.00000000000E+00 -0.50000000000E+03  0.50000000000E+03  0.00000000000E+00 0.  1.
        -11    1    1    2    0    0 -0.10502318742E+02  0.30214317787E+01  0.49964301986E+03  0.49976251865E+03  0.00000000000E+00 0.  1.
         11    1    1    2    0    0 -0.34311671364E+00  0.44892210841E+01 -0.71796584468E+02  0.71937614474E+02  0.00000000000E+00 0.  1.
        -15    1    1    2    0    0  0.25660979271E+01  0.31359929417E+01 -0.46283147604E+02  0.46494158681E+02  0.17770000000E+01 0. -1.
         15    1    1    2    0    0  0.82793375289E+01 -0.10646645805E+02 -0.38156328779E+03  0.38180570820E+03  0.17770000000E+01 0.  1.
</event>
<event>
 6    1  0.1823098E-004  0.5053047E+03  0.7546771E-02  0.9388018E-01
        -11   -1    0    0    0    0  0.00000000000E+00  0.00000000000E+00  0.50000000000E+03  0.50000000000E+03  0.00000000000E+00 0.  1.
         11   -1    0    0    0    0 -0.00000000000E+00 -0.00000000000E+00 -0.50000000000E+03  0.50000000000E+03  0.00000000000E+00 0.  1.
        -11    1    1    2    0    0 -0.57985605407E+01 -0.99395772594E+01  0.49456144965E+03  0.49469530620E+03  0.00000000000E+00 0.  1.
         11    1    1    2    0    0 -0.10060297381E+02 -0.31677320733E+01 -0.47543906888E+03  0.47555604542E+03  0.00000000000E+00 0.  1.
        -15    1    1    2    0    0  0.10491157517E+02  0.56512572438E+01 -0.15688486676E+02  0.19780986772E+02  0.17770000000E+01 0.  1.
         15    1    1    2    0    0  0.53677004045E+01  0.74560520889E+01 -0.34338940883E+01  0.99676616112E+01  0.17770000000E+01 0. -1.
</event>
<event>
 6    1  0.1823098E-004  0.4871627E+03  0.7546771E-02  0.9429001E-01
        -11   -1    0    0    0    0  0.00000000000E+00  0.00000000000E+00  0.50000000000E+03  0.50000000000E+03  0.00000000000E+00 0.  1.
         11   -1    0    0    0    0 -0.00000000000E+00 -0.00000000000E+00 -0.50000000000E+03  0.50000000000E+03  0.00000000000E+00 0.  1.
        -11    1    1    2    0    0  0.66494733966E+01  0.45396190943E+01  0.48604684315E+03  0.48611352314E+03  0.00000000000E+00 0.  1.
         11    1    1    2    0    0 -0.51044509179E+01 -0.19025272158E+02 -0.48792508971E+03  0.48832254665E+03  0.00000000000E+00 0.  1.
        -15    1    1    2    0    0  0.47752029469E+01  0.16608739109E+02 -0.22584621831E+01  0.17518880055E+02  0.17770000000E+01 0.  1.
         15    1    1    2    0    0 -0.63202254256E+01 -0.21230860448E+01  0.41367087394E+01  0.80450501539E+01  0.17770000000E+01 0. -1.
</event>
<event>
 6    1  0.1823098E-004  0.5000951E+03  0.7546771E-02  0.9399597E-01
        -11   -1    0    0    0    0  0.00000000000E+00  0.00000000000E+00  0.50000000000E+03  0.50000000000E+03  0.00000000000E+00 0. -1.
         11   -1    0    0    0    0 -0.00000000000E+00 -0.00000000000E+00 -0.50000000000E+03  0.50000000000E+03  0.00000000000E+00 0. -1.
        -11    1    1    2    0    0 -0.17076161977E+02 -0.13648547938E+01  0.36098841581E+03  0.36139465199E+03  0.00000000000E+00 0. -1.
         11    1    1    2    0    0  0.17748066514E+02  0.58201082123E+00 -0.49958936176E+03  0.49990485394E+03  0.00000000000E+00 0. -1.
        -15    1    1    2    0    0  0.30579006889E+00  0.20252245426E+01  0.90712512145E+02  0.90753030972E+02  0.17770000000E+01 0. -1.
         15    1    1    2    0    0 -0.97769460565E+00 -0.12423805700E+01  0.47888433808E+02  0.47947463101E+02  0.17770000000E+01 0.  1.
</event>
<event>
 6    1  0.1823098E-004  0.5020399E+03  0.7546771E-02  0.9395257E-01
        -11   -1    0    0    0    0  0.00000000000E+00  0.00000000000E+00  0.50000000000E+03  0.50000000000E+03  0.00000000000E+00 0. -1.
         11   -1    0    0    0    0 -0.00000000000E+00 -0.00000000000E+00 -0.50000000000E+03  0.50000000000E+03  0.00000000000E+00 0. -1.
        -11    1    1    2    0    0  0.60870303192E+01  0.48835313227E+01  0.45534754832E+03  0.45541441630E+03  0.00000000000E+00 0. -1.
         11    1    1    2    0    0  0.10920674496E+02 -0.57749993563E+01 -0.49780683882E+03  0.49796009933E+03  0.00000000000E+00 0. -1.
        -15    1    1    2    0    0 -0.14558322396E+02  0.17234051333E+00  0.25795462346E+02  0.29673861543E+02  0.17770000000E+01 0.  1.
         15    1    1    2    0    0 -0.24493824192E+01  0.71912752028E+00  0.16663828157E+02  0.16951622827E+02  0.17770000000E+01 0.  1.
</event>
<event>
 6    1  0.1823098E-004  0.5007040E+03  0.7546771E-02  0.9398236E-01
        -11   -1    0    0    0    0  0.00000000000E+00  0.00000000000E+00  0.50000000000E+03  0.50000000000E+03  0.00000000000E+00 0.  1.
         11   -1    0    0    0    0 -0.00000000000E+00 -0.00000000000E+00 -0.50000000000E+03  0.50000000000E+03  0.00000000000E+00 0.  1.
        -11    1    1    2    0    0 -0.16902667749E+02  0.93452095616E+01  0.49892230279E+03  0.49929600172E+03  0.00000000000E+00 0.  1.
         11    1    1    2    0    0  0.51333187703E+01  0.59125663554E+01 -0.21815688920E+02  0.23178302042E+02  0.00000000000E+00 0.  1.
        -15    1    1    2    0    0  0.32405066983E+01 -0.73641655413E+01 -0.20239949858E+03  0.20256714090E+03  0.17770000000E+01 0.  1.
         15    1    1    2    0    0  0.85288422804E+01 -0.78936103757E+01 -0.27470711528E+03  0.27495855533E+03  0.17770000000E+01 0. -1.
</event>
<event>
 6    1  0.1823098E-004  0.5035625E+03  0.7546771E-02  0.9391873E-01
        -11   -1    0    0    0    0  0.00000000000E+00  0.00000000000E+00  0.50000000000E+03  0.50000000000E+03  0.00000000000E+00 0.  1.
         11   -1    0    0    0    0 -0.00000000000E+00 -0.00000000000E+00 -0.50000000000E+03  0.50000000000E+03  0.00000000000E+00 0. -1.
        -11    1    1    2    0    0  0.54501053611E+01  0.17663263001E+02  0.49609322604E+03  0.49643749197E+03  0.00000000000E+00 0.  1.
         11    1    1    2    0    0  0.11887695370E+02 -0.78647194162E+01 -0.46170776819E+03  0.46192773712E+03  0.00000000000E+00 0. -1.
        -15    1    1    2    0    0  0.40183522571E+00 -0.38071984582E+01 -0.98785279930E+01  0.10742405501E+02  0.17770000000E+01 0. -1.
         15    1    1    2    0    0 -0.17739635957E+02 -0.59913451267E+01 -0.24506929857E+02  0.30892365406E+02  0.17770000000E+01 0.  1.
</event>
<event>
 6    1  0.1823098E-004  0.4967791E+03  0.7546771E-02  0.9407046E-01
        -11   -1    0    0    0    0  0.00000000000E+00  0.00000000000E+00  0.50000000000E+03  0.50000000000E+03  0.00000000000E+00 0.  1.
         11   -1    0    0    0    0 -0.00000000000E+00 -0.00000000000E+00 -0.50000000000E+03  0.50000000000E+03  0.00000000000E+00 0. -1.
        -11    1    1    2    0    0  0.14995805806E+01 -0.11142843070E+02  0.49857217473E+03  0.49869893233E+03  0.00000000000E+00 0.  1.
         11    1    1    2    0    0 -0.31326532919E+01  0.24781120319E+01 -0.69042116677E+01  0.79763835566E+01  0.00000000000E+00 0. -1.
        -15    1    1    2    0    0  0.54314843082E+01  0.23904762342E+02 -0.29347387919E+03  0.29450129742E+03  0.17770000000E+01 0.  1.
         15    1    1    2    0    0 -0.37984115970E+01 -0.15240031304E+02 -0.19819408387E+03  0.19882338669E+03  0.17770000000E+01 0. -1.
</event>
<event>
 6    1  0.1823098E-004  0.5060347E+03  0.7546771E-02  0.9386407E-01
        -11   -1    0    0    0    0  0.00000000000E+00  0.00000000000E+00  0.50000000000E+03  0.50000000000E+03  0.00000000000E+00 0.  1.
         11   -1    0    0    0    0 -0.00000000000E+00 -0.00000000000E+00 -0.50000000000E+03  0.50000000000E+03  0.00000000000E+00 0.  1.
        -11    1    1    2    0    0  0.54412888376E+01  0.55600934914E+01  0.43530543175E+03  0.43537494321E+03  0.00000000000E+00 0.  1.
         11    1    1    2    0    0 -0.24381927323E+02 -0.37298790269E+01 -0.49334911880E+03  0.49396532611E+03  0.00000000000E+00 0.  1.
        -15    1    1    2    0    0 -0.53342394725E+01 -0.23462472761E+01  0.39732188789E+02  0.40196561321E+02  0.17770000000E+01 0.  1.
         15    1    1    2    0    0  0.24274877958E+02  0.51603281170E+00  0.18311498267E+02  0.30463169361E+02  0.17770000000E+01 0.  1.
</event>
<event>
 6    1  0.1823098E-004  0.4363040E+03  0.7546771E-02  0.9554826E-01
        -11   -1    0    0    0    0  0.00000000000E+00  0.00000000000E+00  0.50000000000E+03  0.50000000000E+03  0.00000000000E+00 0. -1.
         11   -1    0    0    0    0 -0.00000000000E+00 -0.00000000000E+00 -0.50000000000E+03  0.50000000000E+03  0.00000000000E+00 0. -1.
        -11    1    1    2    0    0  0.11516544600E+03  0.89152566596E+02  0.40707529208E+03  0.43234425347E+03  0.00000000000E+00 0. -1.
         11    1    1    2    0    0 -0.11821413648E+03 -0.39700070303E+02  0.22530676083E+02  0.12672138340E+03  0.00000000000E+00 0. -1.
        -15    1    1    2    0    0 -0.15425369606E+01 -0.50497057896E+02 -0.43228654074E+03  0.43523228661E+03  0.17770000000E+01 0. -1.
         15    1    1    2    0    0  0.45912274377E+01  0.10445616035E+01  0.26805725750E+01  0.57020765216E+01  0.17770000000E+01 0.  1.
</event>
<event>
 6    1  0.1823098E-004  0.5003339E+03  0.7546771E-02  0.9399063E-01
        -11   -1    0    0    0    0  0.00000000000E+00  0.00000000000E+00  0.50000000000E+03  0.50000000000E+03  0.00000000000E+00 0.  1.
         11   -1    0    0    0    0 -0.00000000000E+00 -0.00000000000E+00 -0.50000000000E+03  0.50000000000E+03  0.00000000000E+00 0.  1.
        -11    1    1    2    0    0  0.64868972199E+01  0.26305470356E+01  0.49961710980E+03  0.49966614455E+03  0.00000000000E+00 0.  1.
         11    1    1    2    0    0 -0.14275676047E+02  0.12075446455E+01 -0.20756916612E+03  0.20806299963E+03  0.00000000000E+00 0.  1.
        -15    1    1    2    0    0  0.36448546528E+01  0.91151548689E+00 -0.67773604513E+02  0.67900920639E+02  0.17770000000E+01 0.  1.
         15    1    1    2    0    0  0.41439241740E+01 -0.47496071680E+01 -0.22427433917E+03  0.22436993518E+03  0.17770000000E+01 0. -1.
</event>
<event>
 6    1  0.1823098E-004  0.5014683E+03  0.7546771E-02  0.9396530E-01
        -11   -1    0    0    0    0  0.00000000000E+00  0.00000000000E+00  0.50000000000E+03  0.50000000000E+03  0.00000000000E+00 0.  1.
         11   -1    0    0    0    0 -0.00000000000E+00 -0.00000000000E+00 -0.50000000000E+03  0.50000000000E+03  0.00000000000E+00 0. -1.
        -11    1    1    2    0    0  0.68599757668E+01 -0.13817075607E+01  0.49848256917E+03  0.49853168420E+03  0.00000000000E+00 0.  1.
         11    1    1    2    0    0 -0.10329023562E+02 -0.92559736714E+01 -0.43903125221E+03  0.43925027284E+03  0.00000000000E+00 0. -1.
        -15    1    1    2    0    0 -0.51844277320E+00  0.50499086974E+01 -0.51194868150E+01  0.74254451052E+01  0.17770000000E+01 0.  1.
         15    1    1    2    0    0  0.39874905689E+01  0.55877725346E+01 -0.54331830150E+02  0.54792597852E+02  0.17770000000E+01 0. -1.
</event>
<event>
 6    1  0.1823098E-004  0.5063386E+03  0.7546771E-02  0.9385737E-01
        -11   -1    0    0    0    0  0.00000000000E+00  0.00000000000E+00  0.50000000000E+03  0.50000000000E+03  0.00000000000E+00 0.  1.
         11   -1    0    0    0    0 -0.00000000000E+00 -0.00000000000E+00 -0.50000000000E+03  0.50000000000E+03  0.00000000000E+00 0. -1.
        -11    1    1    2    0    0 -0.11481345113E+02 -0.88673813142E+01  0.47710548295E+03  0.47732598253E+03  0.00000000000E+00 0.  1.
         11    1    1    2    0    0  0.57251498496E+00 -0.10555394968E+02 -0.49354821936E+03  0.49366141126E+03  0.00000000000E+00 0. -1.
        -15    1    1    2    0    0  0.78098474009E+01  0.10522270362E+02  0.51360196318E+01  0.14186201629E+02  0.17770000000E+01 0.  1.
         15    1    1    2    0    0  0.30989827274E+01  0.89005059199E+01  0.11306716773E+02  0.14826404580E+02  0.17770000000E+01 0. -1.
</event>
<event>
 6    1  0.1823098E-004  0.5068904E+03  0.7546771E-02  0.9384523E-01
        -11   -1    0    0    0    0  0.00000000000E+00  0.00000000000E+00  0.50000000000E+03  0.50000000000E+03  0.00000000000E+00 0. -1.
         11   -1    0    0    0    0 -0.00000000000E+00 -0.00000000000E+00 -0.50000000000E+03  0.50000000000E+03  0.00000000000E+00 0.  1.
        -11    1    1    2    0    0 -0.57386949005E+01  0.45767636773E+01  0.46702777542E+03  0.46708545513E+03  0.00000000000E+00 0. -1.
         11    1    1    2    0    0 -0.18541250976E+02 -0.14180600328E+02 -0.49255681441E+03  0.49310960530E+03  0.00000000000E+00 0.  1.
        -15    1    1    2    0    0  0.21015236917E+02  0.12476516481E+02  0.16244922375E+02  0.29399980921E+02  0.17770000000E+01 0.  1.
         15    1    1    2    0    0  0.32647089595E+01 -0.28726798303E+01  0.92841166226E+01  0.10404958648E+02  0.17770000000E+01 0. -1.
</event>
<event>
 6    1  0.1823098E-004  0.5051683E+03  0.7546771E-02  0.9388319E-01
        -11   -1    0    0    0    0  0.00000000000E+00  0.00000000000E+00  0.50000000000E+03  0.50000000000E+03  0.00000000000E+00 0.  1.
         11   -1    0    0    0    0 -0.00000000000E+00 -0.00000000000E+00 -0.50000000000E+03  0.50000000000E+03  0.00000000000E+00 0. -1.
        -11    1    1    2    0    0  0.68127065694E+01  0.63603373156E+01  0.49474390189E+03  0.49483168382E+03  0.00000000000E+00 0.  1.
         11    1    1    2    0    0 -0.47311462568E+02  0.11331710005E+02 -0.21639973479E+03  0.22180087321E+03  0.00000000000E+00 0. -1.
        -15    1    1    2    0    0  0.56639239266E+01 -0.15944264531E+02 -0.12126937064E+03  0.12245700303E+03  0.17770000000E+01 0.  1.
         15    1    1    2    0    0  0.34834832072E+02 -0.17477827895E+01 -0.15707479646E+03  0.16091043994E+03  0.17770000000E+01 0. -1.
</event>
<event>
 6    1  0.1823098E-004  0.5018169E+03  0.7546771E-02  0.9395753E-01
        -11   -1    0    0    0    0  0.00000000000E+00  0.00000000000E+00  0.50000000000E+03  0.50000000000E+03  0.00000000000E+00 0. -1.
         11   -1    0    0    0    0 -0.00000000000E+00 -0.00000000000E+00 -0.50000000000E+03  0.50000000000E+03  0.00000000000E+00 0.  1.
        -11    1    1    2    0    0 -0.32795534940E+01 -0.62889417783E+01  0.49813256895E+03  0.49818306124E+03  0.00000000000E+00 0. -1.
         11    1    1    2    0    0  0.29418278470E+01  0.12662329829E+02 -0.46477095405E+03  0.46495271660E+03  0.00000000000E+00 0.  1.
        -15    1    1    2    0    0 -0.53513837932E+01 -0.63821559947E+01 -0.26186514461E+02  0.27536530142E+02  0.17770000000E+01 0. -1.
         15    1    1    2    0    0  0.56891094402E+01  0.87679441717E-02 -0.71751004373E+01  0.93276920181E+01  0.17770000000E+01 0.  1.
</event>
<event>
 6    1  0.1823098E-004  0.5044027E+03  0.7546771E-02  0.9390012E-01
        -11   -1    0    0    0    0  0.00000000000E+00  0.00000000000E+00  0.50000000000E+03  0.50000000000E+03  0.00000000000E+00 0. -1.
         11   -1    0    0    0    0 -0.00000000000E+00 -0.00000000000E+00 -0.50000000000E+03  0.50000000000E+03  0.00000000000E+00 0. -1.
        -11    1    1    2    0    0 -0.72475088945E+00 -0.81546068584E+01  0.49552970308E+03  0.49559732598E+03  0.00000000000E+00 0. -1.
         11    1    1    2    0    0  0.23780431632E+02  0.31360393107E+02 -0.32310245710E+03  0.32549067723E+03  0.00000000000E+00 0. -1.
        -15    1    1    2    0    0 -0.28074479793E+02 -0.81558328141E+01 -0.13635437319E+03  0.13946457199E+03  0.17770000000E+01 0. -1.
         15    1    1    2    0    0  0.50187990508E+01 -0.15049953435E+02 -0.36072872800E+02  0.39447424800E+02  0.17770000000E+01 0.  1.
</event>
<event>
 6    1  0.1823098E-004  0.4959759E+03  0.7546771E-02  0.9408859E-01
        -11   -1    0    0    0    0  0.00000000000E+00  0.00000000000E+00  0.50000000000E+03  0.50000000000E+03  0.00000000000E+00 0. -1.
         11   -1    0    0    0    0 -0.00000000000E+00 -0.00000000000E+00 -0.50000000000E+03  0.50000000000E+03  0.00000000000E+00 0. -1.
        -11    1    1    2    0    0  0.11544471944E+02 -0.16691207454E+00  0.49630859300E+03  0.49644286900E+03  0.00000000000E+00 0. -1.
         11    1    1    2    0    0 -0.15212230163E+02 -0.21866650960E+00 -0.49528270719E+03  0.49551631638E+03  0.00000000000E+00 0. -1.
        -15    1    1    2    0    0  0.41166121738E+01  0.18552233193E+01 -0.22981873830E+01  0.53691473812E+01  0.17770000000E+01 0. -1.
         15    1    1    2    0    0 -0.44885395462E+00 -0.14696447351E+01  0.12723015693E+01  0.26716672329E+01  0.17770000000E+01 0.  1.
</event>
<event>
 6    1  0.1823098E-004  0.5000425E+03  0.7546771E-02  0.9399715E-01
        -11   -1    0    0    0    0  0.00000000000E+00  0.00000000000E+00  0.50000000000E+03  0.50000000000E+03  0.00000000000E+00 0. -1.
         11   -1    0    0    0    0 -0.00000000000E+00 -0.00000000000E+00 -0.50000000000E+03  0.50000000000E+03  0.00000000000E+00 0.  1.
        -11    1    1    2    0    0 -0.33677114761E+01 -0.67481890607E+01  0.49990064086E+03  0.49995752847E+03  0.00000000000E+00 0. -1.
         11    1    1    2    0    0  0.45339685135E+00  0.44726492719E+01 -0.24595356824E+03  0.24599465012E+03  0.00000000000E+00 0.  1.
        -15    1    1    2    0    0  0.37848385870E+01  0.19181066329E+01 -0.21469532917E+03  0.21474460700E+03  0.17770000000E+01 0. -1.
         15    1    1    2    0    0 -0.87052396216E+00  0.35743315590E+00 -0.39251743452E+02  0.39303214416E+02  0.17770000000E+01 0.  1.
</event>
<event>
 6    1  0.1823098E-004  0.4819879E+03  0.7546771E-02  0.9441040E-01
        -11   -1    0    0    0    0  0.00000000000E+00  0.00000000000E+00  0.50000000000E+03  0.50000000000E+03  0.00000000000E+00 0. -1.
         11   -1    0    0    0    0 -0.00000000000E+00 -0.00000000000E+00 -0.50000000000E+03  0.50000000000E+03  0.00000000000E+00 0.  1.
        -11    1    1    2    0    0  0.57482499859E+00 -0.10450183461E+02  0.47691841175E+03  0.47703323598E+03  0.00000000000E+00 0. -1.
         11    1    1    2    0    0  0.19659082375E+02  0.90484733849E+01 -0.48672489385E+03  0.48720578474E+03  0.00000000000E+00 0.  1.
        -15    1    1    2    0    0 -0.13709872602E+02  0.57554693397E+01 -0.74477240709E+01  0.16724603341E+02  0.17770000000E+01 0.  1.
         15    1    1    2    0    0 -0.65240347712E+01 -0.43537592637E+01  0.17254206169E+02  0.19036375941E+02  0.17770000000E+01 0. -1.
</event>
<event>
 6    1  0.1823098E-004  0.4803918E+03  0.7546771E-02  0.9444786E-01
        -11   -1    0    0    0    0  0.00000000000E+00  0.00000000000E+00  0.50000000000E+03  0.50000000000E+03  0.00000000000E+00 0.  1.
         11   -1    0    0    0    0 -0.00000000000E+00 -0.00000000000E+00 -0.50000000000E+03  0.50000000000E+03  0.00000000000E+00 0. -1.
        -11    1    1    2    0    0 -0.16024232063E+02 -0.91794188606E+01  0.48910489145E+03  0.48945340185E+03  0.00000000000E+00 0.  1.
         11    1    1    2    0    0 -0.16572907578E+02  0.13983365186E+02 -0.47155679180E+03  0.47205508541E+03  0.00000000000E+00 0. -1.
        -15    1    1    2    0    0  0.20855129423E+02  0.11370425621E+01 -0.10127320688E+02  0.23279811906E+02  0.17770000000E+01 0. -1.
         15    1    1    2    0    0  0.11742010217E+02 -0.59409888871E+01 -0.74207789544E+01  0.15211700832E+02  0.17770000000E+01 0.  1.
</event>
<event>
 6    1  0.1823098E-004  0.5026307E+03  0.7546771E-02  0.9393942E-01
        -11   -1    0    0    0    0  0.00000000000E+00  0.00000000000E+00  0.50000000000E+03  0.50000000000E+03  0.00000000000E+00 0.  1.
         11   -1    0    0    0    0 -0.00000000000E+00 -0.00000000000E+00 -0.50000000000E+03  0.50000000000E+03  0.00000000000E+00 0. -1.
        -11    1    1    2    0    0 -0.30572966185E+01 -0.70298874368E+01  0.49731019228E+03  0.49736927301E+03  0.00000000000E+00 0.  1.
         11    1    1    2    0    0 -0.12175779504E+02 -0.35245888857E+01 -0.45394376162E+03  0.45412070096E+03  0.00000000000E+00 0. -1.
        -15    1    1    2    0    0  0.27390703213E+01  0.23254657835E+01 -0.19882716927E+01  0.44745112201E+01  0.17770000000E+01 0.  1.
         15    1    1    2    0    0  0.12494005801E+02  0.82290105390E+01 -0.41378158976E+02  0.44035514810E+02  0.17770000000E+01 0. -1.
</event>
<event>
 6    1  0.1823098E-004  0.5001620E+03  0.7546771E-02  0.9399447E-01
        -11   -1    0    0    0    0  0.00000000000E+00  0.00000000000E+00  0.50000000000E+03  0.50000000000E+03  0.00000000000E+00 0. -1.
         11   -1    0    0    0    0 -0.00000000000E+00 -0.00000000000E+00 -0.50000000000E+03  0.50000000000E+03  0.00000000000E+00 0.  1.
        -11    1    1    2    0    0  0.25137661656E+01 -0.11287242540E+02  0.49970422642E+03  0.49983800853E+03  0.00000000000E+00 0. -1.
         11    1    1    2    0    0 -0.15920892365E+01  0.49309524822E+01 -0.35110889461E+02  0.35491176357E+02  0.00000000000E+00 0.  1.
        -15    1    1    2    0    0 -0.86869790483E+00  0.54420999321E+01 -0.41000565167E+03  0.41004653787E+03  0.17770000000E+01 0.  1.
         15    1    1    2    0    0 -0.52979024300E-01  0.91419012549E+00 -0.54587685292E+02  0.54624277248E+02  0.17770000000E+01 0.  1.
</event>
<event>
 6    1  0.1823098E-004  0.4864064E+03  0.7546771E-02  0.9430751E-01
        -11   -1    0    0    0    0  0.00000000000E+00  0.00000000000E+00  0.50000000000E+03  0.50000000000E+03  0.00000000000E+00 0. -1.
         11   -1    0    0    0    0 -0.00000000000E+00 -0.00000000000E+00 -0.50000000000E+03  0.50000000000E+03  0.00000000000E+00 0.  1.
        -11    1    1    2    0    0  0.10347331612E+01 -0.11534980691E+02  0.48727058048E+03  0.48740819141E+03  0.00000000000E+00 0. -1.
         11    1    1    2    0    0 -0.17745175522E+01 -0.12856818093E+02 -0.48553878389E+03  0.48571221659E+03  0.00000000000E+00 0.  1.
        -15    1    1    2    0    0 -0.34456608915E+01  0.34880925367E+01  0.10102597128E+01  0.53120355995E+01  0.17770000000E+01 0. -1.
         15    1    1    2    0    0  0.41854452824E+01  0.20903706248E+02 -0.27420563016E+01  0.21567556395E+02  0.17770000000E+01 0.  1.
</event>
<event>
 6    1  0.1823098E-004  0.4981566E+03  0.7546771E-02  0.9403944E-01
        -11   -1    0    0    0    0  0.00000000000E+00  0.00000000000E+00  0.50000000000E+03  0.50000000000E+03  0.00000000000E+00 0.  1.
         11   -1    0    0    0    0 -0.00000000000E+00 -0.00000000000E+00 -0.50000000000E+03  0.50000000000E+03  0.00000000000E+00 0. -1.
        -11    1    1    2    0    0  0.31934697500E+02  0.54382867422E+02  0.49527886047E+03  0.49927794945E+03  0.00000000000E+00 0.  1.
         11    1    1    2    0    0 -0.15656808028E+01  0.19468856813E+01 -0.32954466091E+01  0.41354187921E+01  0.00000000000E+00 0. -1.
        -15    1    1    2    0    0 -0.32131997828E+02 -0.44602763833E+02 -0.37928055742E+03  0.38324766247E+03  0.17770000000E+01 0. -1.
         15    1    1    2    0    0  0.17629811314E+01 -0.11726989271E+02 -0.11270285644E+03  0.11333896929E+03  0.17770000000E+01 0.  1.
</event>
<event>
 6    1  0.1823098E-004  0.5001940E+03  0.7546771E-02  0.9399376E-01
        -11   -1    0    0    0    0  0.00000000000E+00  0.00000000000E+00  0.50000000000E+03  0.50000000000E+03  0.00000000000E+00 0. -1.
         11   -1    0    0    0    0 -0.00000000000E+00 -0.00000000000E+00 -0.50000000000E+03  0.50000000000E+03  0.00000000000E+00 0.  1.
        -11    1    1    2    0    0  0.11791332289E+02 -0.15596707218E+01  0.49966447160E+03  0.49980601464E+03  0.00000000000E+00 0. -1.
         11    1    1    2    0    0 -0.13514073991E+02  0.27551662452E+01 -0.24330153076E+03  0.24369213366E+03  0.00000000000E+00 0.  1.
        -15    1    1    2    0    0  0.18154925409E+01 -0.34165031426E+01 -0.77926047408E+02  0.78042264835E+02  0.17770000000E+01 0.  1.
         15    1    1    2    0    0 -0.92750838397E-01  0.22210076192E+01 -0.17843689343E+03  0.17845958686E+03  0.17770000000E+01 0. -1.
</event>
<event>
 6    1  0.1823098E-004  0.5065088E+03  0.7546771E-02  0.9385362E-01
        -11   -1    0    0    0    0  0.00000000000E+00  0.00000000000E+00  0.50000000000E+03  0.50000000000E+03  0.00000000000E+00 0.  1.
         11   -1    0    0    0    0 -0.00000000000E+00 -0.00000000000E+00 -0.50000000000E+03  0.50000000000E+03  0.00000000000E+00 0. -1.
        -11    1    1    2    0    0 -0.33451188494E+01 -0.67558591845E+01  0.46830245924E+03  0.46836313346E+03  0.00000000000E+00 0.  1.
         11    1    1    2    0    0 -0.16949932625E+02 -0.91612975235E+01 -0.49311494059E+03  0.49349120987E+03  0.00000000000E+00 0. -1.
        -15    1    1    2    0    0  0.68795288879E+00  0.71704612606E+01  0.68115396317E+01  0.10071921119E+02  0.17770000000E+01 0. -1.
         15    1    1    2    0    0  0.19607098586E+02  0.87466954474E+01  0.18000941711E+02  0.28073735549E+02  0.17770000000E+01 0.  1.
</event>
<event>
 6    1  0.1823098E-004  0.5006248E+03  0.7546771E-02  0.9398413E-01
        -11   -1    0    0    0    0  0.00000000000E+00  0.00000000000E+00  0.50000000000E+03  0.50000000000E+03  0.00000000000E+00 0. -1.
         11   -1    0    0    0    0 -0.00000000000E+00 -0.00000000000E+00 -0.50000000000E+03  0.50000000000E+03  0.00000000000E+00 0. -1.
        -11    1    1    2    0    0  0.17960934256E+02 -0.75855410308E+01  0.49899444792E+03  0.49937520428E+03  0.00000000000E+00 0. -1.
         11    1    1    2    0    0 -0.12974450925E+02 -0.17376330031E+01 -0.10603526058E+03  0.10684021823E+03  0.00000000000E+00 0. -1.
        -15    1    1    2    0    0  0.37958021655E+01  0.13750469397E+02 -0.17207395807E+03  0.17267335724E+03  0.17770000000E+01 0. -1.
         15    1    1    2    0    0 -0.87822854962E+01 -0.44272953630E+01 -0.22088522927E+03  0.22111122025E+03  0.17770000000E+01 0.  1.
</event>
<event>
 6    1  0.1823098E-004  0.5006633E+03  0.7546771E-02  0.9398327E-01
        -11   -1    0    0    0    0  0.00000000000E+00  0.00000000000E+00  0.50000000000E+03  0.50000000000E+03  0.00000000000E+00 0. -1.
         11   -1    0    0    0    0 -0.00000000000E+00 -0.00000000000E+00 -0.50000000000E+03  0.50000000000E+03  0.00000000000E+00 0.  1.
        -11    1    1    2    0    0  0.18893086339E-02  0.61054110150E+01  0.43337105942E+03  0.43341406437E+03  0.00000000000E+00 0. -1.
         11    1    1    2    0    0 -0.75703492837E+01 -0.17170974523E+01 -0.49927631709E+03  0.49933665940E+03  0.00000000000E+00 0.  1.
        -15    1    1    2    0    0 -0.60416026495E-01 -0.42799942881E+01  0.13776837058E+02  0.14535507199E+02  0.17770000000E+01 0. -1.
         15    1    1    2    0    0  0.76288760015E+01 -0.10831927463E+00  0.52128420610E+02  0.52713769040E+02  0.17770000000E+01 0.  1.
</event>
<event>
 6    1  0.1823098E-004  0.4783158E+03  0.7546771E-02  0.9449681E-01
        -11   -1    0    0    0    0  0.00000000000E+00  0.00000000000E+00  0.50000000000E+03  0.50000000000E+03  0.00000000000E+00 0.  1.
         11   -1    0    0    0    0 -0.00000000000E+00 -0.00000000000E+00 -0.50000000000E+03  0.50000000000E+03  0.00000000000E+00 0. -1.
        -11    1    1    2    0    0 -0.13720841974E+01  0.11976546886E+02  0.47616792007E+03  0.47632048916E+03  0.00000000000E+00 0.  1.
         11    1    1    2    0    0 -0.35304096296E+02 -0.14576690873E+02 -0.47950453440E+03  0.48102334418E+03  0.00000000000E+00 0. -1.
        -15    1    1    2    0    0  0.26342263657E+02  0.10195925184E+02 -0.25816594946E+01  0.28419965511E+02  0.17770000000E+01 0. -1.
         15    1    1    2    0    0  0.10333916837E+02 -0.75957811958E+01  0.59182738299E+01  0.14236201154E+02  0.17770000000E+01 0.  1.
</event>
<event>
 6    1  0.1823098E-004  0.5030268E+03  0.7546771E-02  0.9393062E-01
        -11   -1    0    0    0    0  0.00000000000E+00  0.00000000000E+00  0.50000000000E+03  0.50000000000E+03  0.00000000000E+00 0. -1.
         11   -1    0    0    0    0 -0.00000000000E+00 -0.00000000000E+00 -0.50000000000E+03  0.50000000000E+03  0.00000000000E+00 0. -1.
        -11    1    1    2    0    0 -0.74065558344E+01 -0.56625014404E+00  0.49691768300E+03  0.49697319987E+03  0.00000000000E+00 0. -1.
         11    1    1    2    0    0 -0.72995345816E+01  0.26261934272E+02 -0.38933811285E+03  0.39029109459E+03  0.00000000000E+00 0. -1.
        -15    1    1    2    0    0  0.12609322593E+02 -0.10448036786E+02 -0.37404567537E+02  0.40870721679E+02  0.17770000000E+01 0.  1.
         15    1    1    2    0    0  0.20967678233E+01 -0.15247647342E+02 -0.70175002613E+02  0.71864983862E+02  0.17770000000E+01 0. -1.
</event>
<event>
 6    1  0.1823098E-004  0.5001719E+03  0.7546771E-02  0.9399425E-01
        -11   -1    0    0    0    0  0.00000000000E+00  0.00000000000E+00  0.50000000000E+03  0.50000000000E+03  0.00000000000E+00 0.  1.
         11   -1    0    0    0    0 -0.00000000000E+00 -0.00000000000E+00 -0.50000000000E+03  0.50000000000E+03  0.00000000000E+00 0. -1.
        -11    1    1    2    0    0  0.16918038534E+02 -0.14926662927E+02  0.23793223701E+03  0.23899952866E+03  0.00000000000E+00 0.  1.
         11    1    1    2    0    0 -0.25180835556E+02  0.16650810097E+02 -0.49891565449E+03  0.49982812471E+03  0.00000000000E+00 0. -1.
        -15    1    1    2    0    0  0.43360190219E+01 -0.20203719398E+01  0.18138634617E+03  0.18145811437E+03  0.17770000000E+01 0.  1.
         15    1    1    2    0    0  0.39267779998E+01  0.29622477022E+00  0.79597071309E+02  0.79714232258E+02  0.17770000000E+01 0.  1.
</event>
<event>
 6    1  0.1823098E-004  0.5011700E+03  0.7546771E-02  0.9397196E-01
        -11   -1    0    0    0    0  0.00000000000E+00  0.00000000000E+00  0.50000000000E+03  0.50000000000E+03  0.00000000000E+00 0. -1.
         11   -1    0    0    0    0 -0.00000000000E+00 -0.00000000000E+00 -0.50000000000E+03  0.50000000000E+03  0.00000000000E+00 0. -1.
        -11    1    1    2    0    0  0.66018407337E+01  0.34575028067E+01  0.49877436827E+03  0.49883004026E+03  0.00000000000E+00 0. -1.
         11    1    1    2    0    0  0.77660601223E+01 -0.45703199081E+00 -0.43183432578E+03  0.43190439393E+03  0.00000000000E+00 0. -1.
        -15    1    1    2    0    0 -0.12869288172E+02 -0.55899706778E+01 -0.57201604331E+02  0.58924083508E+02  0.17770000000E+01 0. -1.
         15    1    1    2    0    0 -0.14986126839E+01  0.25894998619E+01 -0.97384381546E+01  0.10341482302E+02  0.17770000000E+01 0.  1.
</event>
<event>
 6    1  0.1823098E-004  0.5002640E+03  0.7546771E-02  0.9399219E-01
        -11   -1    0    0    0    0  0.00000000000E+00  0.00000000000E+00  0.50000000000E+03  0.50000000000E+03  0.00000000000E+00 0.  1.
         11   -1    0    0    0    0 -0.00000000000E+00 -0.00000000000E+00 -0.50000000000E+03  0.50000000000E+03  0.00000000000E+00 0. -1.
        -11    1    1    2    0    0 -0.29265993905E+01  0.94082763051E+01  0.49963890415E+03  0.49973604552E+03  0.00000000000E+00 0.  1.
         11    1    1    2    0    0 -0.37268114276E+01 -0.38812005033E+01 -0.33572988734E+03  0.33577300382E+03  0.00000000000E+00 0. -1.
        -15    1    1    2    0    0  0.13413476603E+01  0.13355703510E+01 -0.10144082916E+02  0.10471060544E+02  0.17770000000E+01 0.  1.
         15    1    1    2    0    0  0.53120631579E+01 -0.68626461528E+01 -0.15376493390E+03  0.15401989012E+03  0.17770000000E+01 0.  1.
</event>
<event>
 6    1  0.1823098E-004  0.5000308E+03  0.7546771E-02  0.9399741E-01
        -11   -1    0    0    0    0  0.00000000000E+00  0.00000000000E+00  0.50000000000E+03  0.50000000000E+03  0.00000000000E+00 0.  1.
         11   -1    0    0    0    0 -0.00000000000E+00 -0.00000000000E+00 -0.50000000000E+03  0.50000000000E+03  0.00000000000E+00 0.  1.
        -11    1    1    2    0    0 -0.22944999672E+01  0.37157173711E+01  0.20652928712E+03  0.20657545286E+03  0.00000000000E+00 0.  1.
         11    1    1    2    0    0  0.32037034385E+01 -0.13114185694E+02 -0.49978691158E+03  0.49996920162E+03  0.00000000000E+00 0.  1.
        -15    1    1    2    0    0  0.36227036772E+00  0.78397809197E+01  0.20844234608E+03  0.20859760970E+03  0.17770000000E+01 0. -1.
         15    1    1    2    0    0 -0.12714738390E+01  0.15586874035E+01  0.84815278385E+02  0.84857735821E+02  0.17770000000E+01 0.  1.
</event>
<event>
 6    1  0.1823098E-004  0.5002201E+03  0.7546771E-02  0.9399317E-01
        -11   -1    0    0    0    0  0.00000000000E+00  0.00000000000E+00  0.50000000000E+03  0.50000000000E+03  0.00000000000E+00 0. -1.
         11   -1    0    0    0    0 -0.00000000000E+00 -0.00000000000E+00 -0.50000000000E+03  0.50000000000E+03  0.00000000000E+00 0.  1.
        -11    1    1    2    0    0 -0.27521393364E+01  0.72333410212E+01  0.49972000041E+03  0.49977992587E+03  0.00000000000E+00 0. -1.
         11    1    1    2    0    0  0.70311779657E+01 -0.83407353657E+01 -0.35040002058E+03  0.35056979298E+03  0.00000000000E+00 0.  1.
        -15    1    1    2    0    0 -0.44960358446E+01  0.33225040943E+01 -0.12880949590E+03  0.12894300034E+03  0.17770000000E+01 0. -1.
         15    1    1    2    0    0  0.21699721531E+00 -0.22151097498E+01 -0.20510483922E+02  0.20707280814E+02  0.17770000000E+01 0.  1.
</event>
<event>
 6    1  0.1823098E-004  0.5001241E+03  0.7546771E-02  0.9399532E-01
        -11   -1    0    0    0    0  0.00000000000E+00  0.00000000000E+00  0.50000000000E+03  0.50000000000E+03  0.00000000000E+00 0.  1.
         11   -1    0    0    0    0 -0.00000000000E+00 -0.00000000000E+00 -0.50000000000E+03  0.50000000000E+03  0.00000000000E+00 0. -1.
        -11    1    1    2    0    0 -0.12963289241E+02 -0.87060729079E+01  0.49963194721E+03  0.49987590985E+03  0.00000000000E+00 0.  1.
         11    1    1    2    0    0  0.49270359049E+01  0.11214867028E+02 -0.23269882075E+03  0.23302100786E+03  0.00000000000E+00 0. -1.
        -15    1    1    2    0    0  0.34729367791E+01 -0.21663504155E+00 -0.14064228067E+03  0.14069654247E+03  0.17770000000E+01 0. -1.
         15    1    1    2    0    0  0.45633165570E+01 -0.22921590786E+01 -0.12629084579E+03  0.12640653982E+03  0.17770000000E+01 0. -1.
</event>
<event>
 6    1  0.1823098E-004  0.5003672E+03  0.7546771E-02  0.9398988E-01
        -11   -1    0    0    0    0  0.00000000000E+00  0.00000000000E+00  0.50000000000E+03  0.50000000000E+03  0.00000000000E+00 0.  1.
         11   -1    0    0    0    0 -0.00000000000E+00 -0.00000000000E+00 -0.50000000000E+03  0.50000000000E+03  0.00000000000E+00 0. -1.
        -11    1    1    2    0    0  0.46982439633E+01  0.54226473492E+01  0.49958123842E+03  0.49963275751E+03  0.00000000000E+00 0.  1.
         11    1    1    2    0    0  0.25271612928E+01 -0.14887863410E+02 -0.29876834308E+03  0.29914972480E+03  0.00000000000E+00 0. -1.
        -15    1    1    2    0    0 -0.29426353959E+01  0.32692039677E+01 -0.97399614160E+02  0.97515072503E+02  0.17770000000E+01 0. -1.
         15    1    1    2    0    0 -0.42827698602E+01  0.61960120933E+01 -0.10341328118E+03  0.10370244519E+03  0.17770000000E+01 0. -1.
</event>
<event>
 6    1  0.1823098E-004  0.5074137E+03  0.7546771E-02  0.9383372E-01
        -11   -1    0    0    0    0  0.00000000000E+00  0.00000000000E+00  0.50000000000E+03  0.50000000000E+03  0.00000000000E+00 0.  1.
         11   -1    0    0    0    0 -0.00000000000E+00 -0.00000000000E+00 -0.50000000000E+03  0.50000000000E+03  0.00000000000E+00 0. -1.
        -11    1    1    2    0    0 -0.50401569701E+01 -0.62957930184E+01  0.36211337819E+03  0.36220317345E+03  0.00000000000E+00 0.  1.
         11    1    1    2    0    0  0.15475019967E+02 -0.26646530139E+02 -0.49162158903E+03  0.49258633823E+03  0.00000000000E+00 0. -1.
        -15    1    1    2    0    0 -0.13121909557E+02  0.32118944584E+02  0.30747213427E+02  0.46393533753E+02  0.17770000000E+01 0. -1.
         15    1    1    2    0    0  0.26870465604E+01  0.82337857375E+00  0.98760997409E+02  0.98816954566E+02  0.17770000000E+01 0.  1.
</event>
<event>
 6    1  0.1823098E-004  0.5009888E+03  0.7546771E-02  0.9397600E-01
        -11   -1    0    0    0    0  0.00000000000E+00  0.00000000000E+00  0.50000000000E+03  0.50000000000E+03  0.00000000000E+00 0.  1.
         11   -1    0    0    0    0 -0.00000000000E+00 -0.00000000000E+00 -0.50000000000E+03  0.50000000000E+03  0.00000000000E+00 0.  1.
        -11    1    1    2    0    0 -0.34142799761E+00 -0.10495518395E+02  0.49890074054E+03  0.49901124375E+03  0.00000000000E+00 0.  1.
         11    1    1    2    0    0  0.12113635363E+02  0.75538535536E+01 -0.58585221144E+02  0.60299494207E+02  0.00000000000E+00 0.  1.
        -15    1    1    2    0    0 -0.97478382384E+01 -0.28078971867E+01 -0.17855901046E+03  0.17885575915E+03  0.17770000000E+01 0. -1.
         15    1    1    2    0    0 -0.20243691267E+01  0.57495620277E+01 -0.26175650894E+03  0.26183350289E+03  0.17770000000E+01 0.  1.
</event>
<event>
 6    1  0.1823098E-004  0.5007451E+03  0.7546771E-02  0.9398144E-01
        -11   -1    0    0    0    0  0.00000000000E+00  0.00000000000E+00  0.50000000000E+03  0.50000000000E+03  0.00000000000E+00 0. -1.
         11   -1    0    0    0    0 -0.00000000000E+00 -0.00000000000E+00 -0.50000000000E+03  0.50000000000E+03  0.00000000000E+00 0.  1.
        -11    1    1    2    0    0 -0.12727142657E+02 -0.30164112077E+01  0.36019377058E+03  0.36043117410E+03  0.00000000000E+00 0. -1.
         11    1    1    2    0    0  0.56476508366E+01 -0.94341878097E+01 -0.49913381036E+03  0.49925490534E+03  0.00000000000E+00 0.  1.
        -15    1    1    2    0    0 -0.11677098981E+01  0.55466090165E+01  0.88994790918E+02  0.89192818979E+02  0.17770000000E+01 0.  1.
         15    1    1    2    0    0  0.82472017188E+01  0.69039900008E+01  0.49945248861E+02  0.51121101582E+02  0.17770000000E+01 0. -1.
</event>
<event>
 6    1  0.1823098E-004  0.4911760E+03  0.7546771E-02  0.9419773E-01
        -11   -1    0    0    0    0  0.00000000000E+00  0.00000000000E+00  0.50000000000E+03  0.50000000000E+03  0.00000000000E+00 0.  1.
         11   -1    0    0    0    0 -0.00000000000E+00 -0.00000000000E+00 -0.50000000000E+03  0.50000000000E+03  0.00000000000E+00 0.  1.
        -11    1    1    2    0    0  0.79451103788E+01 -0.73677014984E+00  0.49058349754E+03  0.49064838293E+03  0.00000000000E+00 0.  1.
         11    1    1    2    0    0 -0.16082611161E+02  0.21353025656E+01 -0.49147100772E+03  0.49173871246E+03  0.00000000000E+00 0.  1.
        -15    1    1    2    0    0  0.10193490958E+02 -0.62078239612E+01  0.60342856290E+00  0.12081646878E+02  0.17770000000E+01 0.  1.
         15    1    1    2    0    0 -0.20559901764E+01  0.48092915455E+01  0.28408162146E+00  0.55312577360E+01  0.17770000000E+01 0. -1.
</event>
<event>
 6    1  0.1823098E-004  0.5023860E+03  0.7546771E-02  0.9394487E-01
        -11   -1    0    0    0    0  0.00000000000E+00  0.00000000000E+00  0.50000000000E+03  0.50000000000E+03  0.00000000000E+00 0. -1.
         11   -1    0    0    0    0 -0.00000000000E+00 -0.00000000000E+00 -0.50000000000E+03  0.50000000000E+03  0.00000000000E+00 0. -1.
        -11    1    1    2    0    0 -0.11912071682E+02 -0.76926730560E+01  0.49741189431E+03  0.49761397415E+03  0.00000000000E+00 0. -1.
         11    1    1    2    0    0  0.81425416814E+01 -0.46089777019E+01 -0.48007480679E+03  0.48016597524E+03  0.00000000000E+00 0. -1.
        -15    1    1    2    0    0 -0.18787041380E+00  0.30234036287E+01 -0.59087287339E+01  0.68736503435E+01  0.17770000000E+01 0.  1.
         15    1    1    2    0    0  0.39574004142E+01  0.92782471292E+01 -0.11428358784E+02  0.15346400273E+02  0.17770000000E+01 0. -1.
</event>
<event>
 6    1  0.1823098E-004  0.4850499E+03  0.7546771E-02  0.9433897E-01
        -11   -1    0    0    0    0  0.00000000000E+00  0.00000000000E+00  0.50000000000E+03  0.50000000000E+03  0.00000000000E+00 0.  1.
         11   -1    0    0    0    0 -0.00000000000E+00 -0.00000000000E+00 -0.50000000000E+03  0.50000000000E+03  0.00000000000E+00 0.  1.
        -11    1    1    2    0    0 -0.65983004040E+01 -0.39131967223E-01  0.48340912296E+03  0.48345415425E+03  0.00000000000E+00 0.  1.
         11    1    1    2    0    0  0.47397270379E+01  0.16808106982E+02 -0.48648386870E+03  0.48679721854E+03  0.00000000000E+00 0.  1.
        -15    1    1    2    0    0 -0.46359788499E+01 -0.65381335995E+01 -0.92537632484E+01  0.12370503390E+02  0.17770000000E+01 0. -1.
         15    1    1    2    0    0  0.64945522160E+01 -0.10230841416E+02  0.12328508990E+02  0.17378123819E+02  0.17770000000E+01 0.  1.
</event>
<event>
 6    1  0.1823098E-004  0.5012737E+03  0.7546771E-02  0.9396964E-01
        -11   -1    0    0    0    0  0.00000000000E+00  0.00000000000E+00  0.50000000000E+03  0.50000000000E+03  0.00000000000E+00 0. -1.
         11   -1    0    0    0    0 -0.00000000000E+00 -0.00000000000E+00 -0.50000000000E+03  0.50000000000E+03  0.00000000000E+00 0.  1.
        -11    1    1    2    0    0  0.70564214511E+01  0.97209400903E+00  0.45981387985E+03  0.45986904892E+03  0.00000000000E+00 0. -1.
         11    1    1    2    0    0 -0.72938502820E+01 -0.43411723025E+01 -0.49865404344E+03  0.49872627870E+03  0.00000000000E+00 0.  1.
        -15    1    1    2    0    0 -0.51011194745E+01  0.50044895840E+01  0.29280093107E+02  0.30191851836E+02  0.17770000000E+01 0. -1.
         15    1    1    2    0    0  0.53385483054E+01 -0.16354112904E+01  0.95600704758E+01  0.11212820546E+02  0.17770000000E+01 0.  1.
</event>
<event>
 6    1  0.1823098E-004  0.5046913E+03  0.7546771E-02  0.9389373E-01
        -11   -1    0    0    0    0  0.00000000000E+00  0.00000000000E+00  0.50000000000E+03  0.50000000000E+03  0.00000000000E+00 0. -1.
         11   -1    0    0    0    0 -0.00000000000E+00 -0.00000000000E+00 -0.50000000000E+03  0.50000000000E+03  0.00000000000E+00 0. -1.
        -11    1    1    2    0    0  0.66923333794E+01  0.40252980317E+01  0.49524710978E+03  0.49530868163E+03  0.00000000000E+00 0. -1.
         11    1    1    2    0    0  0.31479069263E+01 -0.11009499658E+02 -0.48733587454E+03  0.48747038168E+03  0.00000000000E+00 0. -1.
        -15    1    1    2    0    0 -0.30310256701E+01  0.24658835290E+00  0.13565397024E+01  0.37743676812E+01  0.17770000000E+01 0. -1.
         15    1    1    2    0    0 -0.68092146356E+01  0.67376132738E+01 -0.92677749456E+01  0.13446569006E+02  0.17770000000E+01 0.  1.
</event>
<event>
 6    1  0.1823098E-004  0.5027485E+03  0.7546771E-02  0.9393681E-01
        -11   -1    0    0    0    0  0.00000000000E+00  0.00000000000E+00  0.50000000000E+03  0.50000000000E+03  0.00000000000E+00 0. -1.
         11   -1    0    0    0    0 -0.00000000000E+00 -0.00000000000E+00 -0.50000000000E+03  0.50000000000E+03  0.00000000000E+00 0.  1.
        -11    1    1    2    0    0  0.22151317247E+02 -0.13505458405E+02  0.49657423210E+03  0.49725149196E+03  0.00000000000E+00 0. -1.
         11    1    1    2    0    0 -0.16728455923E+02 -0.18070428824E+01 -0.25602785882E+02  0.30636731001E+02  0.00000000000E+00 0.  1.
        -15    1    1    2    0    0  0.46688308464E+01  0.82698761230E+01 -0.48266068005E+02  0.49223570393E+02  0.17770000000E+01 0. -1.
         15    1    1    2    0    0 -0.10091692171E+02  0.70426251645E+01 -0.42270537822E+03  0.42288820665E+03  0.17770000000E+01 0.  1.
</event>
<event>
 6    1  0.1823098E-004  0.5078006E+03  0.7546771E-02  0.9382522E-01
        -11   -1    0    0    0    0  0.00000000000E+00  0.00000000000E+00  0.50000000000E+03  0.50000000000E+03  0.00000000000E+00 0.  1.
         11   -1    0    0    0    0 -0.00000000000E+00 -0.00000000000E+00 -0.50000000000E+03  0.50000000000E+03  0.00000000000E+00 0. -1.
        -11    1    1    2    0    0  0.75657624573E+01 -0.99342109723E+00  0.49214020703E+03  0.49219936105E+03  0.00000000000E+00 0.  1.
         11    1    1    2    0    0 -0.16992617816E+02 -0.15015472818E+02 -0.45812394032E+03  0.45868481355E+03  0.00000000000E+00 0. -1.
        -15    1    1    2    0    0  0.17004496206E+02  0.19364745031E+02 -0.19732253941E+02  0.32506396539E+02  0.17770000000E+01 0.  1.
         15    1    1    2    0    0 -0.75776408472E+01 -0.33558511161E+01 -0.14284012761E+02  0.16609428861E+02  0.17770000000E+01 0. -1.
</event>
<event>
 6    1  0.1823098E-004  0.5046756E+03  0.7546771E-02  0.9389408E-01
        -11   -1    0    0    0    0  0.00000000000E+00  0.00000000000E+00  0.50000000000E+03  0.50000000000E+03  0.00000000000E+00 0.  1.
         11   -1    0    0    0    0 -0.00000000000E+00 -0.00000000000E+00 -0.50000000000E+03  0.50000000000E+03  0.00000000000E+00 0.  1.
        -11    1    1    2    0    0 -0.68799401228E+01  0.38129168093E+01  0.48342019555E+03  0.48348418524E+03  0.00000000000E+00 0.  1.
         11    1    1    2    0    0  0.99942619481E+01  0.81617235329E+00 -0.49522292935E+03  0.49532444030E+03  0.00000000000E+00 0.  1.
        -15    1    1    2    0    0 -0.85748511706E+01 -0.18645823563E+00  0.19857051266E+01  0.89812912836E+01  0.17770000000E+01 0. -1.
         15    1    1    2    0    0  0.54605293453E+01 -0.44426309270E+01  0.98170286722E+01  0.12210083179E+02  0.17770000000E+01 0.  1.
</event>
<event>
 6    1  0.1823098E-004  0.5278249E+03  0.7546771E-02  0.9339615E-01
        -11   -1    0    0    0    0  0.00000000000E+00  0.00000000000E+00  0.50000000000E+03  0.50000000000E+03  0.00000000000E+00 0.  1.
         11   -1    0    0    0    0 -0.00000000000E+00 -0.00000000000E+00 -0.50000000000E+03  0.50000000000E+03  0.00000000000E+00 0.  1.
        -11    1    1    2    0    0 -0.51124846358E+02  0.30807409758E+02  0.46838712729E+03  0.47217512368E+03  0.00000000000E+00 0.  1.
         11    1    1    2    0    0  0.63223310938E+02 -0.12189114376E+02 -0.21068132575E+03  0.22030066404E+03  0.00000000000E+00 0.  1.
        -15    1    1    2    0    0 -0.57837617751E+02 -0.83253331653E+01 -0.15039697106E+02  0.60364322389E+02  0.17770000000E+01 0. -1.
         15    1    1    2    0    0  0.45739153171E+02 -0.10292962217E+02 -0.24266610443E+03  0.24715988989E+03  0.17770000000E+01 0.  1.
</event>
<event>
 6    1  0.1823098E-004  0.4910896E+03  0.7546771E-02  0.9419971E-01
        -11   -1    0    0    0    0  0.00000000000E+00  0.00000000000E+00  0.50000000000E+03  0.50000000000E+03  0.00000000000E+00 0. -1.
         11   -1    0    0    0    0 -0.00000000000E+00 -0.00000000000E+00 -0.50000000000E+03  0.50000000000E+03  0.00000000000E+00 0.  1.
        -11    1    1    2    0    0 -0.13532566028E+02  0.15932082505E+02  0.49232564351E+03  0.49276921663E+03  0.00000000000E+00 0. -1.
         11    1    1    2    0    0  0.87221698970E+01 -0.16000421534E+02 -0.56510333578E+01  0.19079410761E+02  0.00000000000E+00 0.  1.
        -15    1    1    2    0    0  0.15866730750E+02 -0.24963759100E+01 -0.43105071486E+03  0.43135352270E+03  0.17770000000E+01 0.  1.
         15    1    1    2    0    0 -0.11056334619E+02  0.25647149389E+01 -0.55623895294E+02  0.56797849911E+02  0.17770000000E+01 0. -1.
</event>
<event>
 6    1  0.1823098E-004  0.5006393E+03  0.7546771E-02  0.9398380E-01
        -11   -1    0    0    0    0  0.00000000000E+00  0.00000000000E+00  0.50000000000E+03  0.50000000000E+03  0.00000000000E+00 0.  1.
         11   -1    0    0    0    0 -0.00000000000E+00 -0.00000000000E+00 -0.50000000000E+03  0.50000000000E+03  0.00000000000E+00 0. -1.
        -11    1    1    2    0    0 -0.18626395998E+02  0.20944430904E+02  0.49857346916E+03  0.49936070727E+03  0.00000000000E+00 0.  1.
         11    1    1    2    0    0  0.13272736496E+02 -0.22337121002E+02 -0.17251708364E+03  0.17446276582E+03  0.00000000000E+00 0. -1.
        -15    1    1    2    0    0  0.40992769609E+01 -0.17739403494E+01 -0.21494180073E+03  0.21499554965E+03  0.17770000000E+01 0. -1.
         15    1    1    2    0    0  0.12543825404E+01  0.31666304470E+01 -0.11111458479E+03  0.11118097727E+03  0.17770000000E+01 0.  1.
</event>
<event>
 6    1  0.1823098E-004  0.5039052E+03  0.7546771E-02  0.9391114E-01
        -11   -1    0    0    0    0  0.00000000000E+00  0.00000000000E+00  0.50000000000E+03  0.50000000000E+03  0.00000000000E+00 0. -1.
         11   -1    0    0    0    0 -0.00000000000E+00 -0.00000000000E+00 -0.50000000000E+03  0.50000000000E+03  0.00000000000E+00 0. -1.
        -11    1    1    2    0    0 -0.83093467549E+01 -0.93694415739E+01  0.49593674403E+03  0.49609483545E+03  0.00000000000E+00 0. -1.
         11    1    1    2    0    0  0.33608567898E+02  0.16357546711E+02 -0.28714793713E+03  0.28957044561E+03  0.00000000000E+00 0. -1.
        -15    1    1    2    0    0 -0.31709845075E+02 -0.57989398494E+01 -0.20264802458E+03  0.20520361003E+03  0.17770000000E+01 0. -1.
         15    1    1    2    0    0  0.64106239321E+01 -0.11891652874E+01 -0.61407823240E+01  0.91311089047E+01  0.17770000000E+01 0.  1.
</event>
<event>
 6    1  0.1823098E-004  0.5000330E+03  0.7546771E-02  0.9399736E-01
        -11   -1    0    0    0    0  0.00000000000E+00  0.00000000000E+00  0.50000000000E+03  0.50000000000E+03  0.00000000000E+00 0. -1.
         11   -1    0    0    0    0 -0.00000000000E+00 -0.00000000000E+00 -0.50000000000E+03  0.50000000000E+03  0.00000000000E+00 0. -1.
        -11    1    1    2    0    0 -0.36630788032E+00  0.73437633221E+01  0.49991288420E+03  0.49996695574E+03  0.00000000000E+00 0. -1.
         11    1    1    2    0    0  0.24406152708E+01 -0.57155290786E+01 -0.27243680450E+03  0.27250768121E+03  0.00000000000E+00 0. -1.
        -15    1    1    2    0    0 -0.14836108349E+01 -0.14414363044E+00 -0.10002397613E+03  0.10005086410E+03  0.17770000000E+01 0. -1.
         15    1    1    2    0    0 -0.59069655550E+00 -0.14840906131E+01 -0.12745210358E+03  0.12747449895E+03  0.17770000000E+01 0. -1.
</event>
<event>
 6    1  0.1823098E-004  0.5012705E+03  0.7546771E-02  0.9396971E-01
        -11   -1    0    0    0    0  0.00000000000E+00  0.00000000000E+00  0.50000000000E+03  0.50000000000E+03  0.00000000000E+00 0. -1.
         11   -1    0    0    0    0 -0.00000000000E+00 -0.00000000000E+00 -0.50000000000E+03  0.50000000000E+03  0.00000000000E+00 0.  1.
        -11    1    1    2    0    0  0.31710378010E+01  0.37693045985E+02  0.49729295766E+03  0.49872949275E+03  0.00000000000E+00 0. -1.
         11    1    1    2    0    0 -0.17471920485E+01 -0.12237706850E+02 -0.22215125180E+02  0.25422941132E+02  0.00000000000E+00 0.  1.
        -15    1    1    2    0    0 -0.58779058583E+00 -0.41260924628E+01 -0.14787840165E+03  0.14794779329E+03  0.17770000000E+01 0. -1.
         15    1    1    2    0    0 -0.83605516663E+00 -0.21329246673E+02 -0.32719943083E+03  0.32789977282E+03  0.17770000000E+01 0.  1.
</event>
<event>
 6    1  0.1823098E-004  0.5017974E+03  0.7546771E-02  0.9395797E-01
        -11   -1    0    0    0    0  0.00000000000E+00  0.00000000000E+00  0.50000000000E+03  0.50000000000E+03  0.00000000000E+00 0. -1.
         11   -1    0    0    0    0 -0.00000000000E+00 -0.00000000000E+00 -0.50000000000E+03  0.50000000000E+03  0.00000000000E+00 0. -1.
        -11    1    1    2    0    0 -0.21760907408E+02  0.54923460648E+01  0.35771500368E+03  0.35841836841E+03  0.00000000000E+00 0. -1.
         11    1    1    2    0    0  0.16348936144E+01 -0.15840952391E+02 -0.49794799055E+03  0.49820257922E+03  0.00000000000E+00 0. -1.
        -15    1    1    2    0    0  0.15204364560E+02  0.15919121114E+02  0.97721821037E+02  0.10018634216E+03  0.17770000000E+01 0.  1.
         15    1    1    2    0    0  0.49216492342E+01 -0.55705147873E+01  0.42511165836E+02  0.43192710218E+02  0.17770000000E+01 0. -1.
</event>
<event>
 6    1  0.1823098E-004  0.5001671E+03  0.7546771E-02  0.9399436E-01
        -11   -1    0    0    0    0  0.00000000000E+00  0.00000000000E+00  0.50000000000E+03  0.50000000000E+03  0.00000000000E+00 0. -1.
         11   -1    0    0    0    0 -0.00000000000E+00 -0.00000000000E+00 -0.50000000000E+03  0.50000000000E+03  0.00000000000E+00 0. -1.
        -11    1    1    2    0    0 -0.11589803595E+01 -0.57477429950E+01  0.65091572471E+02  0.65355126745E+02  0.00000000000E+00 0. -1.
         11    1    1    2    0    0  0.14761681165E+02  0.74022247418E+01 -0.49956006704E+03  0.49983293283E+03  0.00000000000E+00 0. -1.
        -15    1    1    2    0    0 -0.10176274576E+02 -0.37446362295E+01  0.38269419115E+03  0.38285190418E+03  0.17770000000E+01 0. -1.
         15    1    1    2    0    0 -0.34264262291E+01  0.20901544827E+01  0.51774303421E+02  0.51960036241E+02  0.17770000000E+01 0.  1.
</event>
<event>
 6    1  0.1823098E-004  0.5009151E+03  0.7546771E-02  0.9397764E-01
        -11   -1    0    0    0    0  0.00000000000E+00  0.00000000000E+00  0.50000000000E+03  0.50000000000E+03  0.00000000000E+00 0. -1.
         11   -1    0    0    0    0 -0.00000000000E+00 -0.00000000000E+00 -0.50000000000E+03  0.50000000000E+03  0.00000000000E+00 0. -1.
        -11    1    1    2    0    0  0.62008357278E+01  0.71896289679E+01  0.33823005353E+03  0.33836328146E+03  0.00000000000E+00 0. -1.
         11    1    1    2    0    0  0.11495700364E+02 -0.12078860501E+02 -0.49880623023E+03  0.49908486784E+03  0.00000000000E+00 0. -1.
        -15    1    1    2    0    0 -0.66749379853E+01  0.70433345056E+01  0.12023507923E+03  0.12063911208E+03  0.17770000000E+01 0.  1.
         15    1    1    2    0    0 -0.11021598107E+02 -0.21541029722E+01  0.40341097470E+02  0.41912738619E+02  0.17770000000E+01 0. -1.
</event>
<event>
 6    1  0.1823098E-004  0.5033938E+03  0.7546771E-02  0.9392248E-01
        -11   -1    0    0    0    0  0.00000000000E+00  0.00000000000E+00  0.50000000000E+03  0.50000000000E+03  0.00000000000E+00 0. -1.
         11   -1    0    0    0    0 -0.00000000000E+00 -0.00000000000E+00 -0.50000000000E+03  0.50000000000E+03  0.00000000000E+00 0.  1.
        -11    1    1    2    0    0 -0.68842985836E+01 -0.57958276899E+01  0.49652469739E+03  0.49660624272E+03  0.00000000000E+00 0. -1.
         11    1    1    2    0    0 -0.38758237158E+01  0.99820272251E+01 -0.46836669152E+03  0.46848908269E+03  0.00000000000E+00 0.  1.
        -15    1    1    2    0    0 -0.19667527074E+01 -0.67107924214E+01 -0.72120069482E+01  0.10201648120E+02  0.17770000000E+01 0. -1.
         15    1    1    2    0    0  0.12726875007E+02  0.25245928862E+01 -0.20945998926E+02  0.24703026468E+02  0.17770000000E+01 0.  1.
</event>
<event>
 6    1  0.1823098E-004  0.5103549E+03  0.7546771E-02  0.9376933E-01
        -11   -1    0    0    0    0  0.00000000000E+00  0.00000000000E+00  0.50000000000E+03  0.50000000000E+03  0.00000000000E+00 0. -1.
         11   -1    0    0    0    0 -0.00000000000E+00 -0.00000000000E+00 -0.50000000000E+03  0.50000000000E+03  0.00000000000E+00 0.  1.
        -11    1    1    2    0    0  0.98762401997E+01  0.30078992604E+01  0.48953626972E+03  0.48964512348E+03  0.00000000000E+00 0. -1.
         11    1    1    2    0    0 -0.43689525521E+01 -0.57060799983E+02 -0.33204526643E+03  0.33694076869E+03  0.00000000000E+00 0.  1.
        -15    1    1    2    0    0 -0.12032981632E+02  0.27292019224E+02 -0.27779777519E+02  0.40798538310E+02  0.17770000000E+01 0. -1.
         15    1    1    2    0    0  0.65256939849E+01  0.26760881499E+02 -0.12971122577E+03  0.13261556952E+03  0.17770000000E+01 0.  1.
</event>
<event>
 6    1  0.1823098E-004  0.5001950E+03  0.7546771E-02  0.9399374E-01
        -11   -1    0    0    0    0  0.00000000000E+00  0.00000000000E+00  0.50000000000E+03  0.50000000000E+03  0.00000000000E+00 0. -1.
         11   -1    0    0    0    0 -0.00000000000E+00 -0.00000000000E+00 -0.50000000000E+03  0.50000000000E+03  0.00000000000E+00 0.  1.
        -11    1    1    2    0    0  0.61095430582E+01 -0.72790920216E+00  0.16214394022E+03  0.16226063515E+03  0.00000000000E+00 0. -1.
         11    1    1    2    0    0 -0.34433227223E+01  0.12240838387E+02 -0.49964323426E+03  0.49980501812E+03  0.00000000000E+00 0.  1.
        -15    1    1    2    0    0 -0.59649146425E+01 -0.42073974217E+01  0.22970744354E+03  0.22983026290E+03  0.17770000000E+01 0. -1.
         15    1    1    2    0    0  0.32986943066E+01 -0.73055317631E+01  0.10779185050E+03  0.10810408384E+03  0.17770000000E+01 0.  1.
</event>
<event>
 6    1  0.1823098E-004  0.5060579E+03  0.7546771E-02  0.9386356E-01
        -11   -1    0    0    0    0  0.00000000000E+00  0.00000000000E+00  0.50000000000E+03  0.50000000000E+03  0.00000000000E+00 0. -1.
         11   -1    0    0    0    0 -0.00000000000E+00 -0.00000000000E+00 -0.50000000000E+03  0.50000000000E+03  0.00000000000E+00 0. -1.
        -11    1    1    2    0    0 -0.99224938725E+01  0.19431615140E+01  0.49383865020E+03  0.49394214661E+03  0.00000000000E+00 0. -1.
         11    1    1    2    0    0 -0.22731741294E+01  0.23675039592E+02 -0.45883489253E+03  0.45945090425E+03  0.00000000000E+00 0. -1.
        -15    1    1    2    0    0  0.10605338173E+02 -0.91915229410E+01 -0.15128289941E+02  0.20711836647E+02  0.17770000000E+01 0. -1.
         15    1    1    2    0    0  0.15903298294E+01 -0.16426678165E+02 -0.19875467733E+02  0.25895112495E+02  0.17770000000E+01 0.  1.
</event>
<event>
 6    1  0.1823098E-004  0.5008015E+03  0.7546771E-02  0.9398018E-01
        -11   -1    0    0    0    0  0.00000000000E+00  0.00000000000E+00  0.50000000000E+03  0.50000000000E+03  0.00000000000E+00 0. -1.
         11   -1    0    0    0    0 -0.00000000000E+00 -0.00000000000E+00 -0.50000000000E+03  0.50000000000E+03  0.00000000000E+00 0. -1.
        -11    1    1    2    0    0  0.49737756208E+00 -0.84661891649E+01  0.37325780471E+03  0.37335413821E+03  0.00000000000E+00 0. -1.
         11    1    1    2    0    0  0.59021076128E+00 -0.96359823890E+01 -0.49910514050E+03  0.49919849937E+03  0.00000000000E+00 0. -1.
        -15    1    1    2    0    0 -0.33275937594E+01  0.86185830531E+01  0.79410464217E+02  0.79965820262E+02  0.17770000000E+01 0.  1.
         15    1    1    2    0    0  0.22400054360E+01  0.94835885008E+01  0.46436871569E+02  0.47481542154E+02  0.17770000000E+01 0. -1.
</event>
<event>
 6    1  0.1823098E-004  0.5020175E+03  0.7546771E-02  0.9395307E-01
        -11   -1    0    0    0    0  0.00000000000E+00  0.00000000000E+00  0.50000000000E+03  0.50000000000E+03  0.00000000000E+00 0.  1.
         11   -1    0    0    0    0 -0.00000000000E+00 -0.00000000000E+00 -0.50000000000E+03  0.50000000000E+03  0.00000000000E+00 0. -1.
        -11    1    1    2    0    0 -0.81064608054E+01  0.88274921365E+00  0.49791576861E+03  0.49798253642E+03  0.00000000000E+00 0.  1.
         11    1    1    2    0    0 -0.11827598485E+01 -0.96879349038E+01 -0.47170186508E+03  0.47180282377E+03  0.00000000000E+00 0. -1.
        -15    1    1    2    0    0  0.41339216474E+00 -0.64727349385E+00 -0.35292301901E+01  0.40253013294E+01  0.17770000000E+01 0.  1.
         15    1    1    2    0    0  0.88758284892E+01  0.94524591840E+01 -0.22684673344E+02  0.26189338474E+02  0.17770000000E+01 0. -1.
</event>
<event>
 6    1  0.3147030E-004  0.5000308E+03  0.7546771E-02  0.9399741E-01
        -11   -1    0    0    0    0  0.00000000000E+00  0.00000000000E+00  0.50000000000E+03  0.50000000000E+03  0.00000000000E+00 0.  1.
         11   -1    0    0    0    0 -0.00000000000E+00 -0.00000000000E+00 -0.50000000000E+03  0.50000000000E+03  0.00000000000E+00 0. -1.
        -11    1    1    2    0    0 -0.57663361727E+01 -0.21442062774E+01  0.12174302723E+03  0.12189837133E+03  0.00000000000E+00 0.  1.
         11    1    1    2    0    0  0.14586865727E+02  0.64918355234E+01 -0.49971415959E+03  0.49996916093E+03  0.00000000000E+00 0. -1.
        -15    1    1    2    0    0 -0.31007534376E+01 -0.32051599992E+01  0.19759297717E+03  0.19765128403E+03  0.17770000000E+01 0.  1.
         15    1    1    2    0    0 -0.57197761170E+01 -0.11424692467E+01  0.18037815519E+03  0.18048118372E+03  0.17770000000E+01 0.  1.
</event>
<event>
 6    1  0.1823098E-004  0.5001268E+03  0.7546771E-02  0.9399526E-01
        -11   -1    0    0    0    0  0.00000000000E+00  0.00000000000E+00  0.50000000000E+03  0.50000000000E+03  0.00000000000E+00 0. -1.
         11   -1    0    0    0    0 -0.00000000000E+00 -0.00000000000E+00 -0.50000000000E+03  0.50000000000E+03  0.00000000000E+00 0.  1.
        -11    1    1    2    0    0 -0.75711116539E+01  0.27309783351E+01  0.49980839685E+03  0.49987319745E+03  0.00000000000E+00 0. -1.
         11    1    1    2    0    0 -0.22452442477E+01 -0.36913361952E+01 -0.24802930654E+03  0.24806693449E+03  0.00000000000E+00 0.  1.
        -15    1    1    2    0    0  0.73945064365E+01  0.26005439663E+01 -0.20404866746E+03  0.20420689992E+03  0.17770000000E+01 0.  1.
         15    1    1    2    0    0  0.24218494650E+01 -0.16401861062E+01 -0.47730422843E+02  0.47852968132E+02  0.17770000000E+01 0. -1.
</event>
<event>
 6    1  0.1823098E-004  0.5000815E+03  0.7546771E-02  0.9399627E-01
        -11   -1    0    0    0    0  0.00000000000E+00  0.00000000000E+00  0.50000000000E+03  0.50000000000E+03  0.00000000000E+00 0. -1.
         11   -1    0    0    0    0 -0.00000000000E+00 -0.00000000000E+00 -0.50000000000E+03  0.50000000000E+03  0.00000000000E+00 0.  1.
        -11    1    1    2    0    0  0.59484208597E+01 -0.65894456773E+01  0.49983963192E+03  0.49991845549E+03  0.00000000000E+00 0. -1.
         11    1    1    2    0    0  0.16849114541E+01  0.51115528481E+00 -0.76013694118E+02  0.76034083803E+02  0.00000000000E+00 0.  1.
        -15    1    1    2    0    0 -0.75213434786E+01  0.19453128593E+01 -0.34582342887E+03  0.34591524472E+03  0.17770000000E+01 0. -1.
         15    1    1    2    0    0 -0.11198883528E+00  0.41329775331E+01 -0.78002508936E+02  0.78132215981E+02  0.17770000000E+01 0.  1.
</event>
<event>
 6    1  0.1823098E-004  0.5001397E+03  0.7546771E-02  0.9399497E-01
        -11   -1    0    0    0    0  0.00000000000E+00  0.00000000000E+00  0.50000000000E+03  0.50000000000E+03  0.00000000000E+00 0.  1.
         11   -1    0    0    0    0 -0.00000000000E+00 -0.00000000000E+00 -0.50000000000E+03  0.50000000000E+03  0.00000000000E+00 0.  1.
        -11    1    1    2    0    0  0.92209021570E+01  0.17427379480E+02  0.49947133429E+03  0.49986033286E+03  0.00000000000E+00 0.  1.
         11    1    1    2    0    0 -0.57344006386E+01 -0.15111757647E+02 -0.22199975376E+03  0.22258737439E+03  0.00000000000E+00 0.  1.
        -15    1    1    2    0    0 -0.38069171050E+01 -0.75795835793E+00 -0.19198121031E+03  0.19202866963E+03  0.17770000000E+01 0.  1.
         15    1    1    2    0    0  0.32041558668E+00 -0.15576634753E+01 -0.85490370215E+02  0.85523623112E+02  0.17770000000E+01 0. -1.
</event>
<event>
 6    1  0.1823098E-004  0.5017139E+03  0.7546771E-02  0.9395983E-01
        -11   -1    0    0    0    0  0.00000000000E+00  0.00000000000E+00  0.50000000000E+03  0.50000000000E+03  0.00000000000E+00 0. -1.
         11   -1    0    0    0    0 -0.00000000000E+00 -0.00000000000E+00 -0.50000000000E+03  0.50000000000E+03  0.00000000000E+00 0. -1.
        -11    1    1    2    0    0  0.10442432748E+02  0.29590985981E+02  0.49729702953E+03  0.49828606887E+03  0.00000000000E+00 0. -1.
         11    1    1    2    0    0  0.11445372138E+02 -0.58771893209E+01 -0.19474802136E+03  0.19517256396E+03  0.00000000000E+00 0. -1.
        -15    1    1    2    0    0 -0.28405717703E+02 -0.25741238270E+02 -0.19374285994E+03  0.19750683445E+03  0.17770000000E+01 0.  1.
         15    1    1    2    0    0  0.65179128158E+01  0.20274416102E+01 -0.10880614822E+03  0.10903453272E+03  0.17770000000E+01 0. -1.
</event>
<event>
 6    1  0.1823098E-004  0.5022326E+03  0.7546771E-02  0.9394828E-01
        -11   -1    0    0    0    0  0.00000000000E+00  0.00000000000E+00  0.50000000000E+03  0.50000000000E+03  0.00000000000E+00 0. -1.
         11   -1    0    0    0    0 -0.00000000000E+00 -0.00000000000E+00 -0.50000000000E+03  0.50000000000E+03  0.00000000000E+00 0.  1.
        -11    1    1    2    0    0  0.26061974657E+02 -0.13918889403E+01  0.31763560227E+03  0.31870603965E+03  0.00000000000E+00 0. -1.
         11    1    1    2    0    0 -0.75888489555E+01  0.63873811353E+01 -0.49766858331E+03  0.49776742368E+03  0.00000000000E+00 0.  1.
        -15    1    1    2    0    0 -0.19844603667E+02 -0.78693741694E+01  0.65064456112E+02  0.68500193596E+02  0.17770000000E+01 0. -1.
         15    1    1    2    0    0  0.13714779650E+01  0.28738819745E+01  0.11496852493E+03  0.11502634308E+03  0.17770000000E+01 0.  1.
</event>
<event>
 6    1  0.1823098E-004  0.5011477E+03  0.7546771E-02  0.9397245E-01
        -11   -1    0    0    0    0  0.00000000000E+00  0.00000000000E+00  0.50000000000E+03  0.50000000000E+03  0.00000000000E+00 0. -1.
         11   -1    0    0    0    0 -0.00000000000E+00 -0.00000000000E+00 -0.50000000000E+03  0.50000000000E+03  0.00000000000E+00 0.  1.
        -11    1    1    2    0    0  0.21005230496E+01 -0.21694576482E+02  0.49837589345E+03  0.49885228076E+03  0.00000000000E+00 0. -1.
         11    1    1    2    0    0 -0.84225207824E+00  0.22754820535E+02 -0.12749698031E+03  0.12951436691E+03  0.00000000000E+00 0.  1.
        -15    1    1    2    0    0  0.87267159972E+01  0.61297607299E+01 -0.20793205795E+03  0.20821293906E+03  0.17770000000E+01 0. -1.
         15    1    1    2    0    0 -0.99849869685E+01 -0.71900047833E+01 -0.16294685518E+03  0.16342041328E+03  0.17770000000E+01 0.  1.
</event>
<event>
 6    1  0.1823098E-004  0.4903113E+03  0.7546771E-02  0.9421754E-01
        -11   -1    0    0    0    0  0.00000000000E+00  0.00000000000E+00  0.50000000000E+03  0.50000000000E+03  0.00000000000E+00 0.  1.
         11   -1    0    0    0    0 -0.00000000000E+00 -0.00000000000E+00 -0.50000000000E+03  0.50000000000E+03  0.00000000000E+00 0. -1.
        -11    1    1    2    0    0  0.39417736404E+01 -0.12520372180E+02  0.48770879045E+03  0.48788539800E+03  0.00000000000E+00 0.  1.
         11    1    1    2    0    0 -0.56638151420E+01 -0.37423654990E+01 -0.49284020260E+03  0.49288695398E+03  0.00000000000E+00 0. -1.
        -15    1    1    2    0    0  0.34850943969E+01  0.11081757976E+02  0.36790841331E+00  0.11757734832E+02  0.17770000000E+01 0.  1.
         15    1    1    2    0    0 -0.17630528953E+01  0.51809797034E+01  0.47635037344E+01  0.74699131874E+01  0.17770000000E+01 0. -1.
</event>
<event>
 6    1  0.1823098E-004  0.4879016E+03  0.7546771E-02  0.9427295E-01
        -11   -1    0    0    0    0  0.00000000000E+00  0.00000000000E+00  0.50000000000E+03  0.50000000000E+03  0.00000000000E+00 0.  1.
         11   -1    0    0    0    0 -0.00000000000E+00 -0.00000000000E+00 -0.50000000000E+03  0.50000000000E+03  0.00000000000E+00 0. -1.
        -11    1    1    2    0    0 -0.16813103421E+01 -0.87687702553E+01  0.49187852988E+03  0.49195955758E+03  0.00000000000E+00 0.  1.
         11    1    1    2    0    0  0.85454587434E+01 -0.93066856659E+01 -0.48390278145E+03  0.48406770308E+03  0.00000000000E+00 0. -1.
        -15    1    1    2    0    0 -0.97362793721E+01  0.11553838000E+02 -0.61162041790E+01  0.16396706715E+02  0.17770000000E+01 0. -1.
         15    1    1    2    0    0  0.28721309709E+01  0.65216179213E+01 -0.18595442440E+01  0.75760326307E+01  0.17770000000E+01 0.  1.
</event>
<event>
 6    1  0.1823098E-004  0.5003071E+03  0.7546771E-02  0.9399123E-01
        -11   -1    0    0    0    0  0.00000000000E+00  0.00000000000E+00  0.50000000000E+03  0.50000000000E+03  0.00000000000E+00 0. -1.
         11   -1    0    0    0    0 -0.00000000000E+00 -0.00000000000E+00 -0.50000000000E+03  0.50000000000E+03  0.00000000000E+00 0.  1.
        -11    1    1    2    0    0 -0.10600179699E+02  0.20111404179E+01  0.49957640402E+03  0.49969289764E+03  0.00000000000E+00 0. -1.
         11    1    1    2    0    0  0.50777775917E+01 -0.67085091266E+01 -0.86343478738E+02  0.86752430747E+02  0.00000000000E+00 0.  1.
        -15    1    1    2    0    0 -0.97745799408E+00  0.90943765975E+00 -0.98488915067E+01  0.10096578326E+02  0.17770000000E+01 0.  1.
         15    1    1    2    0    0  0.64998601012E+01  0.37879310489E+01 -0.40338403378E+03  0.40345809329E+03  0.17770000000E+01 0.  1.
</event>
<event>
 6    1  0.1823098E-004  0.5001977E+03  0.7546771E-02  0.9399367E-01
        -11   -1    0    0    0    0  0.00000000000E+00  0.00000000000E+00  0.50000000000E+03  0.50000000000E+03  0.00000000000E+00 0. -1.
         11   -1    0    0    0    0 -0.00000000000E+00 -0.00000000000E+00 -0.50000000000E+03  0.50000000000E+03  0.00000000000E+00 0.  1.
        -11    1    1    2    0    0 -0.10039997350E+02  0.30143504772E+01  0.30282581473E+03  0.30300719780E+03  0.00000000000E+00 0. -1.
         11    1    1    2    0    0  0.19379438807E+02  0.91705676155E+01 -0.49934220822E+03  0.49980226377E+03  0.00000000000E+00 0.  1.
        -15    1    1    2    0    0 -0.38587862718E+01 -0.64257595683E+01  0.72853521241E+02  0.73259633522E+02  0.17770000000E+01 0. -1.
         15    1    1    2    0    0 -0.54806551851E+01 -0.57591585244E+01  0.12366287225E+03  0.12393090490E+03  0.17770000000E+01 0. -1.
</event>
<event>
 6    1  0.1823098E-004  0.5017770E+03  0.7546771E-02  0.9395842E-01
        -11   -1    0    0    0    0  0.00000000000E+00  0.00000000000E+00  0.50000000000E+03  0.50000000000E+03  0.00000000000E+00 0. -1.
         11   -1    0    0    0    0 -0.00000000000E+00 -0.00000000000E+00 -0.50000000000E+03  0.50000000000E+03  0.00000000000E+00 0. -1.
        -11    1    1    2    0    0  0.85987108255E+01  0.18256575330E+00  0.42073836447E+03  0.42082626165E+03  0.00000000000E+00 0. -1.
         11    1    1    2    0    0  0.10234977204E+02 -0.51671331449E+01 -0.49809101797E+03  0.49822295833E+03  0.00000000000E+00 0. -1.
        -15    1    1    2    0    0 -0.14161464691E+02  0.94135009331E+01  0.52331233027E+02  0.55053399178E+02  0.17770000000E+01 0.  1.
         15    1    1    2    0    0 -0.46722233386E+01 -0.44289335414E+01  0.25021420468E+02  0.25897380842E+02  0.17770000000E+01 0. -1.
</event>
<event>
 6    1  0.1823098E-004  0.4768482E+03  0.7546771E-02  0.9453158E-01
        -11   -1    0    0    0    0  0.00000000000E+00  0.00000000000E+00  0.50000000000E+03  0.50000000000E+03  0.00000000000E+00 0. -1.
         11   -1    0    0    0    0 -0.00000000000E+00 -0.00000000000E+00 -0.50000000000E+03  0.50000000000E+03  0.00000000000E+00 0. -1.
        -11    1    1    2    0    0  0.15132318986E+00  0.80456859345E+01  0.48542212502E+03  0.48548882111E+03  0.00000000000E+00 0. -1.
         11    1    1    2    0    0  0.33334453993E+02 -0.20928493334E+02 -0.46739813994E+03  0.46905245856E+03  0.00000000000E+00 0. -1.
        -15    1    1    2    0    0 -0.16893867142E+02  0.15388172376E+02 -0.17031545216E+02  0.28555732481E+02  0.17770000000E+01 0.  1.
         15    1    1    2    0    0 -0.16591910041E+02 -0.25053649764E+01 -0.99243986568E+00  0.16902987853E+02  0.17770000000E+01 0. -1.
</event>
<event>
 6    1  0.1823098E-004  0.5003431E+03  0.7546771E-02  0.9399042E-01
        -11   -1    0    0    0    0  0.00000000000E+00  0.00000000000E+00  0.50000000000E+03  0.50000000000E+03  0.00000000000E+00 0. -1.
         11   -1    0    0    0    0 -0.00000000000E+00 -0.00000000000E+00 -0.50000000000E+03  0.50000000000E+03  0.00000000000E+00 0.  1.
        -11    1    1    2    0    0  0.12568474543E+01  0.10699400286E+02  0.49954071205E+03  0.49965686209E+03  0.00000000000E+00 0. -1.
         11    1    1    2    0    0 -0.24419661979E+01 -0.15986992916E+02 -0.31549798006E+03  0.31591220705E+03  0.00000000000E+00 0.  1.
        -15    1    1    2    0    0  0.10450018995E+01  0.77396396242E+01 -0.15961221635E+03  0.15981305137E+03  0.17770000000E+01 0.  1.
         15    1    1    2    0    0  0.14011684410E+00 -0.24520469940E+01 -0.24430515637E+02  0.24617879488E+02  0.17770000000E+01 0. -1.
</event>
<event>
 6    1  0.1823098E-004  0.5005857E+03  0.7546771E-02  0.9398500E-01
        -11   -1    0    0    0    0  0.00000000000E+00  0.00000000000E+00  0.50000000000E+03  0.50000000000E+03  0.00000000000E+00 0.  1.
         11   -1    0    0    0    0 -0.00000000000E+00 -0.00000000000E+00 -0.50000000000E+03  0.50000000000E+03  0.00000000000E+00 0. -1.
        -11    1    1    2    0    0 -0.23412818443E+01  0.79778231066E+01  0.49934510501E+03  0.49941431814E+03  0.00000000000E+00 0.  1.
         11    1    1    2    0    0  0.46354151329E+01 -0.61485973772E+01 -0.25631427127E+02  0.26763078667E+02  0.00000000000E+00 0. -1.
        -15    1    1    2    0    0 -0.39447111335E+01 -0.46897925575E+01 -0.28094461644E+03  0.28101706378E+03  0.17770000000E+01 0. -1.
         15    1    1    2    0    0  0.16505778448E+01  0.28605668281E+01 -0.19276906145E+03  0.19280553942E+03  0.17770000000E+01 0.  1.
</event>
<event>
 6    1  0.1823098E-004  0.5017189E+03  0.7546771E-02  0.9395972E-01
        -11   -1    0    0    0    0  0.00000000000E+00  0.00000000000E+00  0.50000000000E+03  0.50000000000E+03  0.00000000000E+00 0.  1.
         11   -1    0    0    0    0 -0.00000000000E+00 -0.00000000000E+00 -0.50000000000E+03  0.50000000000E+03  0.00000000000E+00 0.  1.
        -11    1    1    2    0    0 -0.14527968142E+01 -0.59096035291E+01  0.45002605663E+03  0.45006720129E+03  0.00000000000E+00 0.  1.
         11    1    1    2    0    0 -0.92374774057E+01 -0.76620727598E+01 -0.49813657479E+03  0.49828113098E+03  0.00000000000E+00 0.  1.
        -15    1    1    2    0    0  0.10070539381E+02  0.11260739934E+02  0.44137428465E+02  0.46685012025E+02  0.17770000000E+01 0. -1.
         15    1    1    2    0    0  0.61973483846E+00  0.23109363544E+01  0.39730896987E+01  0.49666557016E+01  0.17770000000E+01 0.  1.
</event>
<event>
 6    1  0.1823098E-004  0.5075436E+03  0.7546771E-02  0.9383087E-01
        -11   -1    0    0    0    0  0.00000000000E+00  0.00000000000E+00  0.50000000000E+03  0.50000000000E+03  0.00000000000E+00 0. -1.
         11   -1    0    0    0    0 -0.00000000000E+00 -0.00000000000E+00 -0.50000000000E+03  0.50000000000E+03  0.00000000000E+00 0. -1.
        -11    1    1    2    0    0 -0.96156397084E+01 -0.10866653437E+01  0.49236135187E+03  0.49245643684E+03  0.00000000000E+00 0. -1.
         11    1    1    2    0    0 -0.61415772352E+01 -0.39541694062E+02 -0.41379164943E+03  0.41572201491E+03  0.00000000000E+00 0. -1.
        -15    1    1    2    0    0  0.51834054907E+01  0.14192557844E+02 -0.46372856078E+02  0.48804670888E+02  0.17770000000E+01 0.  1.
         15    1    1    2    0    0  0.10573811453E+02  0.26435801562E+02 -0.32196846362E+02  0.43016877357E+02  0.17770000000E+01 0. -1.
</event>
<event>
 6    1  0.1823098E-004  0.5091357E+03  0.7546771E-02  0.9379597E-01
        -11   -1    0    0    0    0  0.00000000000E+00  0.00000000000E+00  0.50000000000E+03  0.50000000000E+03  0.00000000000E+00 0. -1.
         11   -1    0    0    0    0 -0.00000000000E+00 -0.00000000000E+00 -0.50000000000E+03  0.50000000000E+03  0.00000000000E+00 0. -1.
        -11    1    1    2    0    0  0.10036332334E+02 -0.14215183194E+01  0.49075964740E+03  0.49086431954E+03  0.00000000000E+00 0. -1.
         11    1    1    2    0    0  0.31344840915E+01 -0.26628580528E+02 -0.38433792451E+03  0.38527204221E+03  0.00000000000E+00 0. -1.
        -15    1    1    2    0    0  0.21003273625E+02  0.17832983471E+02 -0.43881651676E+02  0.51845056518E+02  0.17770000000E+01 0. -1.
         15    1    1    2    0    0 -0.34174090050E+02  0.10217115376E+02 -0.62540071215E+02  0.72018581727E+02  0.17770000000E+01 0.  1.
</event>
<event>
 6    1  0.1823098E-004  0.5028486E+03  0.7546771E-02  0.9393458E-01
        -11   -1    0    0    0    0  0.00000000000E+00  0.00000000000E+00  0.50000000000E+03  0.50000000000E+03  0.00000000000E+00 0. -1.
         11   -1    0    0    0    0 -0.00000000000E+00 -0.00000000000E+00 -0.50000000000E+03  0.50000000000E+03  0.00000000000E+00 0. -1.
        -11    1    1    2    0    0 -0.64156472158E+01 -0.31897983270E+01  0.49709974495E+03  0.49715137712E+03  0.00000000000E+00 0. -1.
         11    1    1    2    0    0 -0.12913614172E+02  0.83217177729E+01 -0.42513887160E+03  0.42541635201E+03  0.00000000000E+00 0. -1.
        -15    1    1    2    0    0  0.29286909882E+00  0.53163040672E+01 -0.25582808317E+02  0.26191347267E+02  0.17770000000E+01 0.  1.
         15    1    1    2    0    0  0.19036392289E+02 -0.10448223513E+02 -0.46378065037E+02  0.51240923601E+02  0.17770000000E+01 0. -1.
</event>
<event>
 6    1  0.1823098E-004  0.5007623E+03  0.7546771E-02  0.9398106E-01
        -11   -1    0    0    0    0  0.00000000000E+00  0.00000000000E+00  0.50000000000E+03  0.50000000000E+03  0.00000000000E+00 0. -1.
         11   -1    0    0    0    0 -0.00000000000E+00 -0.00000000000E+00 -0.50000000000E+03  0.50000000000E+03  0.00000000000E+00 0. -1.
        -11    1    1    2    0    0  0.19837668455E+01  0.26551676077E+01  0.20966063168E+03  0.20968682773E+03  0.00000000000E+00 0. -1.
         11    1    1    2    0    0 -0.18145486295E+02  0.25710418353E+02 -0.49824491440E+03  0.49923769790E+03  0.00000000000E+00 0. -1.
        -15    1    1    2    0    0  0.90632319978E+01 -0.65807144937E+01  0.16384080650E+03  0.16423280908E+03  0.17770000000E+01 0.  1.
         15    1    1    2    0    0  0.70984874521E+01 -0.21784871467E+02  0.12474347622E+03  0.12684266529E+03  0.17770000000E+01 0. -1.
</event>
<event>
 6    1  0.1823098E-004  0.5012357E+03  0.7546771E-02  0.9397049E-01
        -11   -1    0    0    0    0  0.00000000000E+00  0.00000000000E+00  0.50000000000E+03  0.50000000000E+03  0.00000000000E+00 0. -1.
         11   -1    0    0    0    0 -0.00000000000E+00 -0.00000000000E+00 -0.50000000000E+03  0.50000000000E+03  0.00000000000E+00 0.  1.
        -11    1    1    2    0    0 -0.89769246837E+01  0.48615542356E+01  0.43406821362E+03  0.43418824715E+03  0.00000000000E+00 0. -1.
         11    1    1    2    0    0  0.15132298590E+02  0.33778035068E+01 -0.49852321769E+03  0.49876426756E+03  0.00000000000E+00 0.  1.
        -15    1    1    2    0    0 -0.84480367330E+01  0.10828336213E+01  0.30166956923E+02  0.31396574213E+02  0.17770000000E+01 0. -1.
         15    1    1    2    0    0  0.22926628263E+01 -0.93221913638E+01  0.34288047143E+02  0.35650911076E+02  0.17770000000E+01 0.  1.
</event>
<event>
 6    1  0.1823098E-004  0.4085649E+03  0.7546771E-02  0.9631427E-01
        -11   -1    0    0    0    0  0.00000000000E+00  0.00000000000E+00  0.50000000000E+03  0.50000000000E+03  0.00000000000E+00 0.  1.
         11   -1    0    0    0    0 -0.00000000000E+00 -0.00000000000E+00 -0.50000000000E+03  0.50000000000E+03  0.00000000000E+00 0.  1.
        -11    1    1    2    0    0  0.13160876914E+01  0.22558030923E+02  0.37203181693E+03  0.37271741260E+03  0.00000000000E+00 0.  1.
         11    1    1    2    0    0  0.74473958268E+02  0.71780550819E+02 -0.44463659903E+03  0.45650906139E+03  0.00000000000E+00 0.  1.
        -15    1    1    2    0    0 -0.30406867056E+02 -0.21007021975E+02  0.75916009278E+02  0.84452772188E+02  0.17770000000E+01 0. -1.
         15    1    1    2    0    0 -0.45383178903E+02 -0.73331559768E+02 -0.33112271777E+01  0.86320753818E+02  0.17770000000E+01 0.  1.
</event>
<event>
 6    1  0.1823098E-004  0.5002240E+03  0.7546771E-02  0.9399309E-01
        -11   -1    0    0    0    0  0.00000000000E+00  0.00000000000E+00  0.50000000000E+03  0.50000000000E+03  0.00000000000E+00 0.  1.
         11   -1    0    0    0    0 -0.00000000000E+00 -0.00000000000E+00 -0.50000000000E+03  0.50000000000E+03  0.00000000000E+00 0. -1.
        -11    1    1    2    0    0 -0.43511358335E+01 -0.69846371552E+01  0.49970821198E+03  0.49977596446E+03  0.00000000000E+00 0.  1.
         11    1    1    2    0    0  0.10945343300E+02  0.12378865166E+01 -0.36561281596E+03  0.36577870919E+03  0.00000000000E+00 0. -1.
        -15    1    1    2    0    0 -0.23646108170E+01  0.23397476687E+01 -0.40327831256E+02  0.40503796196E+02  0.17770000000E+01 0.  1.
         15    1    1    2    0    0 -0.42295966498E+01  0.34070029698E+01 -0.93767564764E+02  0.93941530155E+02  0.17770000000E+01 0. -1.
</event>
<event>
 6    1  0.1823098E-004  0.5012811E+03  0.7546771E-02  0.9396948E-01
        -11   -1    0    0    0    0  0.00000000000E+00  0.00000000000E+00  0.50000000000E+03  0.50000000000E+03  0.00000000000E+00 0.  1.
         11   -1    0    0    0    0 -0.00000000000E+00 -0.00000000000E+00 -0.50000000000E+03  0.50000000000E+03  0.00000000000E+00 0.  1.
        -11    1    1    2    0    0 -0.84872198503E+01 -0.10115314921E+01  0.49864566322E+03  0.49871891236E+03  0.00000000000E+00 0.  1.
         11    1    1    2    0    0 -0.72658405476E+01 -0.10127366192E+02 -0.27454965307E+03  0.27483243620E+03  0.00000000000E+00 0.  1.
        -15    1    1    2    0    0  0.12672582649E+02  0.14209899847E+02 -0.21756097150E+03  0.21839974737E+03  0.17770000000E+01 0.  1.
         15    1    1    2    0    0  0.30804777488E+01 -0.30710021630E+01 -0.65350386524E+01  0.80489040642E+01  0.17770000000E+01 0. -1.
</event>
<event>
 6    1  0.1823098E-004  0.5033768E+03  0.7546771E-02  0.9392285E-01
        -11   -1    0    0    0    0  0.00000000000E+00  0.00000000000E+00  0.50000000000E+03  0.50000000000E+03  0.00000000000E+00 0. -1.
         11   -1    0    0    0    0 -0.00000000000E+00 -0.00000000000E+00 -0.50000000000E+03  0.50000000000E+03  0.00000000000E+00 0.  1.
        -11    1    1    2    0    0  0.91055429661E+01 -0.53090679572E+01  0.49651135573E+03  0.49662322084E+03  0.00000000000E+00 0. -1.
         11    1    1    2    0    0 -0.16980282523E+02  0.11069211273E+02 -0.27341415461E+02  0.34035429072E+02  0.00000000000E+00 0.  1.
        -15    1    1    2    0    0  0.48809351279E+00 -0.31193777084E+01 -0.73081290649E+02  0.73171042937E+02  0.17770000000E+01 0.  1.
         15    1    1    2    0    0  0.73866460436E+01 -0.26407656070E+01 -0.39608864962E+03  0.39617030715E+03  0.17770000000E+01 0.  1.
</event>
<event>
 6    1  0.1823098E-004  0.5002330E+03  0.7546771E-02  0.9399289E-01
        -11   -1    0    0    0    0  0.00000000000E+00  0.00000000000E+00  0.50000000000E+03  0.50000000000E+03  0.00000000000E+00 0.  1.
         11   -1    0    0    0    0 -0.00000000000E+00 -0.00000000000E+00 -0.50000000000E+03  0.50000000000E+03  0.00000000000E+00 0. -1.
        -11    1    1    2    0    0  0.70001802100E+01 -0.38466930456E+01  0.27211640930E+03  0.27223361251E+03  0.00000000000E+00 0.  1.
         11    1    1    2    0    0 -0.12676313488E+02  0.23947600397E+02 -0.49903196087E+03  0.49976702018E+03  0.00000000000E+00 0. -1.
        -15    1    1    2    0    0  0.10398929479E+01 -0.28727590372E+01  0.20124319122E+02  0.20432329064E+02  0.17770000000E+01 0.  1.
         15    1    1    2    0    0  0.46362403302E+01 -0.17228148315E+02  0.20679123245E+03  0.20756703824E+03  0.17770000000E+01 0.  1.
</event>
<event>
 6    1  0.1823098E-004  0.5008334E+03  0.7546771E-02  0.9397947E-01
        -11   -1    0    0    0    0  0.00000000000E+00  0.00000000000E+00  0.50000000000E+03  0.50000000000E+03  0.00000000000E+00 0.  1.
         11   -1    0    0    0    0 -0.00000000000E+00 -0.00000000000E+00 -0.50000000000E+03  0.50000000000E+03  0.00000000000E+00 0. -1.
        -11    1    1    2    0    0 -0.11263275891E+02  0.96958371766E+00  0.49903859996E+03  0.49916663122E+03  0.00000000000E+00 0.  1.
         11    1    1    2    0    0  0.14676619425E+02  0.15275260629E+02 -0.36996258218E+03  0.37056854826E+03  0.00000000000E+00 0. -1.
        -15    1    1    2    0    0 -0.12375374451E+01 -0.46468407675E+01 -0.26023511257E+02  0.26523678010E+02  0.17770000000E+01 0. -1.
         15    1    1    2    0    0 -0.21758060892E+01 -0.11598003579E+02 -0.10305250652E+03  0.10374114251E+03  0.17770000000E+01 0.  1.
</event>
<event>
 6    1  0.1823098E-004  0.4948685E+03  0.7546771E-02  0.9411366E-01
        -11   -1    0    0    0    0  0.00000000000E+00  0.00000000000E+00  0.50000000000E+03  0.50000000000E+03  0.00000000000E+00 0. -1.
         11   -1    0    0    0    0 -0.00000000000E+00 -0.00000000000E+00 -0.50000000000E+03  0.50000000000E+03  0.00000000000E+00 0. -1.
        -11    1    1    2    0    0 -0.21329872653E+01 -0.69609746826E+01  0.49424232718E+03  0.49429594655E+03  0.00000000000E+00 0. -1.
         11    1    1    2    0    0  0.10163706308E+02  0.79251598578E+01 -0.49530700201E+03  0.49547465660E+03  0.00000000000E+00 0. -1.
        -15    1    1    2    0    0 -0.33847272365E+01 -0.24184307545E+00  0.29772088122E+01  0.48514294646E+01  0.17770000000E+01 0.  1.
         15    1    1    2    0    0 -0.46459918060E+01 -0.72234209982E+00 -0.19125339797E+01  0.53779673850E+01  0.17770000000E+01 0. -1.
</event>
<event>
 6    1  0.1823098E-004  0.5004799E+03  0.7546771E-02  0.9398737E-01
        -11   -1    0    0    0    0  0.00000000000E+00  0.00000000000E+00  0.50000000000E+03  0.50000000000E+03  0.00000000000E+00 0. -1.
         11   -1    0    0    0    0 -0.00000000000E+00 -0.00000000000E+00 -0.50000000000E+03  0.50000000000E+03  0.00000000000E+00 0. -1.
        -11    1    1    2    0    0 -0.68875359304E+01 -0.25179217560E+01  0.30753231032E+03  0.30761973275E+03  0.00000000000E+00 0. -1.
         11    1    1    2    0    0 -0.64965668949E+01  0.79105406157E+01 -0.49941520033E+03  0.49952009404E+03  0.00000000000E+00 0. -1.
        -15    1    1    2    0    0  0.14346868599E+02 -0.23870973899E+01  0.12084942980E+03  0.12173443755E+03  0.17770000000E+01 0.  1.
         15    1    1    2    0    0 -0.96276577359E+00 -0.30055214698E+01  0.71033460200E+02  0.71125735667E+02  0.17770000000E+01 0. -1.
</event>
<event>
 6    1  0.1823098E-004  0.5027760E+03  0.7546771E-02  0.9393619E-01
        -11   -1    0    0    0    0  0.00000000000E+00  0.00000000000E+00  0.50000000000E+03  0.50000000000E+03  0.00000000000E+00 0.  1.
         11   -1    0    0    0    0 -0.00000000000E+00 -0.00000000000E+00 -0.50000000000E+03  0.50000000000E+03  0.00000000000E+00 0. -1.
        -11    1    1    2    0    0 -0.84073212121E+01 -0.65020588539E+01  0.45602550881E+03  0.45614934452E+03  0.00000000000E+00 0.  1.
         11    1    1    2    0    0  0.19094551259E+02  0.75639616026E+01 -0.49679961777E+03  0.49722396927E+03  0.00000000000E+00 0. -1.
        -15    1    1    2    0    0 -0.70738778352E+01  0.10220588196E+01  0.41399748979E+02  0.42049747875E+02  0.17770000000E+01 0. -1.
         15    1    1    2    0    0 -0.36133522114E+01 -0.20839615684E+01 -0.62564002371E+00  0.45769383284E+01  0.17770000000E+01 0.  1.
</event>
<event>
 6    1  0.1823098E-004  0.5001130E+03  0.7546771E-02  0.9399557E-01
        -11   -1    0    0    0    0  0.00000000000E+00  0.00000000000E+00  0.50000000000E+03  0.50000000000E+03  0.00000000000E+00 0.  1.
         11   -1    0    0    0    0 -0.00000000000E+00 -0.00000000000E+00 -0.50000000000E+03  0.50000000000E+03  0.00000000000E+00 0. -1.
        -11    1    1    2    0    0  0.61552775405E+01  0.29136381969E+01  0.49984065217E+03  0.49988704153E+03  0.00000000000E+00 0.  1.
         11    1    1    2    0    0 -0.43629301014E+01 -0.16936178149E+01 -0.60410710747E+02  0.60591727763E+02  0.00000000000E+00 0. -1.
        -15    1    1    2    0    0  0.17683081585E+01  0.23019007410E+01 -0.22347674553E+03  0.22350266035E+03  0.17770000000E+01 0.  1.
         15    1    1    2    0    0 -0.35606555976E+01 -0.35219211230E+01 -0.21595319589E+03  0.21601857036E+03  0.17770000000E+01 0. -1.
</event>
<event>
 6    1  0.1823098E-004  0.5000694E+03  0.7546771E-02  0.9399654E-01
        -11   -1    0    0    0    0  0.00000000000E+00  0.00000000000E+00  0.50000000000E+03  0.50000000000E+03  0.00000000000E+00 0. -1.
         11   -1    0    0    0    0 -0.00000000000E+00 -0.00000000000E+00 -0.50000000000E+03  0.50000000000E+03  0.00000000000E+00 0. -1.
        -11    1    1    2    0    0 -0.12477658408E+01  0.92461294473E+01  0.49984353946E+03  0.49993060695E+03  0.00000000000E+00 0. -1.
         11    1    1    2    0    0  0.52151630629E+00 -0.84498101470E+01 -0.24730047850E+03  0.24744534334E+03  0.00000000000E+00 0. -1.
        -15    1    1    2    0    0 -0.17025317766E+01 -0.19167825421E+01 -0.14253233800E+03  0.14256646792E+03  0.17770000000E+01 0. -1.
         15    1    1    2    0    0  0.24287813111E+01  0.11204632419E+01 -0.11001072296E+03  0.11005758180E+03  0.17770000000E+01 0.  1.
</event>
<event>
 6    1  0.1823098E-004  0.5052915E+03  0.7546771E-02  0.9388047E-01
        -11   -1    0    0    0    0  0.00000000000E+00  0.00000000000E+00  0.50000000000E+03  0.50000000000E+03  0.00000000000E+00 0.  1.
         11   -1    0    0    0    0 -0.00000000000E+00 -0.00000000000E+00 -0.50000000000E+03  0.50000000000E+03  0.00000000000E+00 0.  1.
        -11    1    1    2    0    0  0.56437392380E+01 -0.47526715862E+01  0.49465349738E+03  0.49470852241E+03  0.00000000000E+00 0.  1.
         11    1    1    2    0    0  0.86307344572E+01  0.90116272131E+01 -0.48507707298E+03  0.48523753537E+03  0.00000000000E+00 0.  1.
        -15    1    1    2    0    0 -0.80135062620E+01 -0.65196889424E+01 -0.41110874212E+01  0.11259724477E+02  0.17770000000E+01 0.  1.
         15    1    1    2    0    0 -0.62609674331E+01  0.22607333155E+01 -0.54653369780E+01  0.87942177370E+01  0.17770000000E+01 0. -1.
</event>
<event>
 6    1  0.1823098E-004  0.5030674E+03  0.7546771E-02  0.9392972E-01
        -11   -1    0    0    0    0  0.00000000000E+00  0.00000000000E+00  0.50000000000E+03  0.50000000000E+03  0.00000000000E+00 0.  1.
         11   -1    0    0    0    0 -0.00000000000E+00 -0.00000000000E+00 -0.50000000000E+03  0.50000000000E+03  0.00000000000E+00 0. -1.
        -11    1    1    2    0    0  0.72717036939E+01 -0.47895072335E+01  0.49685626797E+03  0.49693255888E+03  0.00000000000E+00 0.  1.
         11    1    1    2    0    0  0.73198294420E+01 -0.23131812759E+02 -0.38224068982E+03  0.38300992887E+03  0.00000000000E+00 0. -1.
        -15    1    1    2    0    0 -0.51279016985E+00  0.85550953164E+01 -0.56562412427E+02  0.57235625603E+02  0.17770000000E+01 0. -1.
         15    1    1    2    0    0 -0.14078742966E+02  0.19366224676E+02 -0.58053165727E+02  0.62821886645E+02  0.17770000000E+01 0.  1.
</event>
<event>
 6    1  0.1823098E-004  0.5190838E+03  0.7546771E-02  0.9358092E-01
        -11   -1    0    0    0    0  0.00000000000E+00  0.00000000000E+00  0.50000000000E+03  0.50000000000E+03  0.00000000000E+00 0.  1.
         11   -1    0    0    0    0 -0.00000000000E+00 -0.00000000000E+00 -0.50000000000E+03  0.50000000000E+03  0.00000000000E+00 0. -1.
        -11    1    1    2    0    0 -0.58791047663E+01  0.28774995623E+01  0.48087167994E+03  0.48091622601E+03  0.00000000000E+00 0.  1.
         11    1    1    2    0    0 -0.31961475728E+02  0.39315676330E+02 -0.43716651205E+03  0.44009296472E+03  0.00000000000E+00 0. -1.
        -15    1    1    2    0    0 -0.27299310343E+01 -0.18034217218E+02 -0.15175656742E+02  0.23793776511E+02  0.17770000000E+01 0. -1.
         15    1    1    2    0    0  0.40570511529E+02 -0.24158958675E+02 -0.28529511140E+02  0.55197032754E+02  0.17770000000E+01 0.  1.
</event>
<event>
 6    1  0.1823098E-004  0.5007336E+03  0.7546771E-02  0.9398170E-01
        -11   -1    0    0    0    0  0.00000000000E+00  0.00000000000E+00  0.50000000000E+03  0.50000000000E+03  0.00000000000E+00 0. -1.
         11   -1    0    0    0    0 -0.00000000000E+00 -0.00000000000E+00 -0.50000000000E+03  0.50000000000E+03  0.00000000000E+00 0. -1.
        -11    1    1    2    0    0 -0.49820476605E+02  0.20935058975E+02  0.30527002648E+03  0.31001636352E+03  0.00000000000E+00 0. -1.
         11    1    1    2    0    0  0.51601315873E+02 -0.30460187243E+02 -0.49565759035E+03  0.49926642755E+03  0.00000000000E+00 0. -1.
        -15    1    1    2    0    0 -0.22789192080E+01  0.25781538160E+01  0.52665333930E+02  0.52807532387E+02  0.17770000000E+01 0. -1.
         15    1    1    2    0    0  0.49807993952E+00  0.69469744525E+01  0.13772222993E+03  0.13790967654E+03  0.17770000000E+01 0. -1.
</event>
<event>
 6    1  0.1823098E-004  0.5050697E+03  0.7546771E-02  0.9388537E-01
        -11   -1    0    0    0    0  0.00000000000E+00  0.00000000000E+00  0.50000000000E+03  0.50000000000E+03  0.00000000000E+00 0. -1.
         11   -1    0    0    0    0 -0.00000000000E+00 -0.00000000000E+00 -0.50000000000E+03  0.50000000000E+03  0.00000000000E+00 0.  1.
        -11    1    1    2    0    0  0.38545757155E+01 -0.79746104917E+01  0.48595263273E+03  0.48603334600E+03  0.00000000000E+00 0. -1.
         11    1    1    2    0    0  0.80347067532E+01  0.47216853247E+01 -0.49484254278E+03  0.49493029102E+03  0.00000000000E+00 0.  1.
        -15    1    1    2    0    0 -0.10556562231E+02 -0.92710697540E+00  0.93985764175E+01  0.14275556071E+02  0.17770000000E+01 0. -1.
         15    1    1    2    0    0 -0.13327202381E+01  0.41800321424E+01 -0.50866637415E+00  0.47608069090E+01  0.17770000000E+01 0.  1.
</event>
<event>
 6    1  0.5531066E-004  0.5000427E+03  0.7546771E-02  0.9399714E-01
        -11   -1    0    0    0    0  0.00000000000E+00  0.00000000000E+00  0.50000000000E+03  0.50000000000E+03  0.00000000000E+00 0. -1.
         11   -1    0    0    0    0 -0.00000000000E+00 -0.00000000000E+00 -0.50000000000E+03  0.50000000000E+03  0.00000000000E+00 0.  1.
        -11    1    1    2    0    0 -0.69840337514E+00  0.59987671561E+01  0.11777594327E+03  0.11793068214E+03  0.00000000000E+00 0. -1.
         11    1    1    2    0    0  0.33337839568E+01 -0.11224224316E+02 -0.49982015681E+03  0.49995728466E+03  0.00000000000E+00 0.  1.
        -15    1    1    2    0    0 -0.14667833934E+01  0.36203663545E+01  0.18478550164E+03  0.18483532631E+03  0.17770000000E+01 0. -1.
         15    1    1    2    0    0 -0.11685971882E+01  0.16050908055E+01  0.19725871190E+03  0.19727670690E+03  0.17770000000E+01 0. -1.
</event>
<event>
 6    1  0.1823098E-004  0.5032940E+03  0.7546771E-02  0.9392469E-01
        -11   -1    0    0    0    0  0.00000000000E+00  0.00000000000E+00  0.50000000000E+03  0.50000000000E+03  0.00000000000E+00 0.  1.
         11   -1    0    0    0    0 -0.00000000000E+00 -0.00000000000E+00 -0.50000000000E+03  0.50000000000E+03  0.00000000000E+00 0.  1.
        -11    1    1    2    0    0  0.91653245365E+01  0.73609549549E+00  0.49662087703E+03  0.49670599001E+03  0.00000000000E+00 0.  1.
         11    1    1    2    0    0 -0.14741015016E+01  0.10466157172E+02 -0.48365347432E+03  0.48376894964E+03  0.00000000000E+00 0.  1.
        -15    1    1    2    0    0 -0.46001103510E+01 -0.59514231674E+01 -0.45021900732E+01  0.89447133780E+01  0.17770000000E+01 0.  1.
         15    1    1    2    0    0 -0.30911126838E+01 -0.52508294997E+01 -0.84652126379E+01  0.10580346973E+02  0.17770000000E+01 0. -1.
</event>
<event>
 6    1  0.1823098E-004  0.5009178E+03  0.7546771E-02  0.9397759E-01
        -11   -1    0    0    0    0  0.00000000000E+00  0.00000000000E+00  0.50000000000E+03  0.50000000000E+03  0.00000000000E+00 0.  1.
         11   -1    0    0    0    0 -0.00000000000E+00 -0.00000000000E+00 -0.50000000000E+03  0.50000000000E+03  0.00000000000E+00 0.  1.
        -11    1    1    2    0    0 -0.35283212366E+02 -0.25330603456E+02  0.49718863603E+03  0.49908224207E+03  0.00000000000E+00 0.  1.
         11    1    1    2    0    0  0.31089070526E+02  0.29685480094E+02 -0.28043936840E+03  0.28371464076E+03  0.00000000000E+00 0.  1.
        -15    1    1    2    0    0  0.80889884079E+01 -0.45453961683E+01 -0.16819564474E+03  0.16846075210E+03  0.17770000000E+01 0.  1.
         15    1    1    2    0    0 -0.38948465681E+01  0.19051953079E+00 -0.48553622893E+02  0.48742365068E+02  0.17770000000E+01 0. -1.
</event>
<event>
 6    1  0.1823098E-004  0.5001601E+03  0.7546771E-02  0.9399452E-01
        -11   -1    0    0    0    0  0.00000000000E+00  0.00000000000E+00  0.50000000000E+03  0.50000000000E+03  0.00000000000E+00 0.  1.
         11   -1    0    0    0    0 -0.00000000000E+00 -0.00000000000E+00 -0.50000000000E+03  0.50000000000E+03  0.00000000000E+00 0.  1.
        -11    1    1    2    0    0 -0.63718419350E+01  0.64338410624E+01  0.13445766176E+03  0.13476222574E+03  0.00000000000E+00 0.  1.
         11    1    1    2    0    0  0.60303281708E+01 -0.38765141228E+01 -0.49978849849E+03  0.49983990981E+03  0.00000000000E+00 0.  1.
        -15    1    1    2    0    0 -0.99593775800E+00 -0.38961957231E+01  0.23689943157E+03  0.23694022589E+03  0.17770000000E+01 0. -1.
         15    1    1    2    0    0  0.13374515222E+01  0.13388687835E+01  0.12843140515E+03  0.12845763856E+03  0.17770000000E+01 0.  1.
</event>
<event>
 6    1  0.1823098E-004  0.5000843E+03  0.7546771E-02  0.9399621E-01
        -11   -1    0    0    0    0  0.00000000000E+00  0.00000000000E+00  0.50000000000E+03  0.50000000000E+03  0.00000000000E+00 0. -1.
         11   -1    0    0    0    0 -0.00000000000E+00 -0.00000000000E+00 -0.50000000000E+03  0.50000000000E+03  0.00000000000E+00 0. -1.
        -11    1    1    2    0    0 -0.47305242935E+01  0.36203048170E+00  0.16290795033E+03  0.16297702048E+03  0.00000000000E+00 0. -1.
         11    1    1    2    0    0  0.69427343013E+01 -0.11817353778E+02 -0.49972778930E+03  0.49991570770E+03  0.00000000000E+00 0. -1.
        -15    1    1    2    0    0 -0.24967147150E+01  0.88932794067E+01  0.30213946365E+03  0.30228585350E+03  0.17770000000E+01 0. -1.
         15    1    1    2    0    0  0.28450470718E+00  0.25620438894E+01  0.34680375325E+02  0.34821418315E+02  0.17770000000E+01 0.  1.
</event>
<event>
 6    1  0.1823098E-004  0.5000710E+03  0.7546771E-02  0.9399651E-01
        -11   -1    0    0    0    0  0.00000000000E+00  0.00000000000E+00  0.50000000000E+03  0.50000000000E+03  0.00000000000E+00 0.  1.
         11   -1    0    0    0    0 -0.00000000000E+00 -0.00000000000E+00 -0.50000000000E+03  0.50000000000E+03  0.00000000000E+00 0.  1.
        -11    1    1    2    0    0 -0.51065608260E+01  0.13375414637E+02  0.49972392808E+03  0.49992897793E+03  0.00000000000E+00 0.  1.
         11    1    1    2    0    0  0.46141797963E+01 -0.11045485500E+02 -0.32576911768E+03  0.32598897441E+03  0.00000000000E+00 0.  1.
        -15    1    1    2    0    0 -0.19706360425E+01 -0.23897665114E+01 -0.10406486744E+03  0.10412611946E+03  0.17770000000E+01 0.  1.
         15    1    1    2    0    0  0.24630170722E+01  0.59837374483E-01 -0.69889942961E+02  0.69955928196E+02  0.17770000000E+01 0.  1.
</event>
