<event>
 7    1  0.5285153E-006  0.3820578E+03  0.7546771E-02  0.9710952E-01
        -11   -1    0    0    0    0  0.00000000000E+00  0.00000000000E+00  0.50000000000E+03  0.50000000000E+03  0.00000000000E+00 0.  1.
         11   -1    0    0    0    0 -0.00000000000E+00 -0.00000000000E+00 -0.50000000000E+03  0.50000000000E+03  0.00000000000E+00 0. -1.
         23    2    1    2    0    0  0.48496164207E+02 -0.97604820503E+02 -0.32345133138E+03  0.35265576754E+03  0.88694687987E+02 0.  0.
        -11    1    1    2    0    0  0.10150996063E+03 -0.25348440769E+02  0.41847829275E+03  0.43135935954E+03  0.00000000000E+00 0.  1.
         11    1    1    2    0    0 -0.15000612483E+03  0.12295326127E+03 -0.95026961374E+02  0.21598487293E+03  0.00000000000E+00 0. -1.
        -15    1    3    3    0    0  0.30207969688E+02 -0.11493849036E+02 -0.23372178682E+02  0.39925511440E+02  0.17770000000E+01 0. -1.
         15    1    3    3    0    0  0.18288194519E+02 -0.86110971467E+02 -0.30007915270E+03  0.31273025610E+03  0.17770000000E+01 0.  1.
</event>
<event>
 7    1  0.5285153E-006  0.5109474E+03  0.7546771E-02  0.9375642E-01
        -11   -1    0    0    0    0  0.00000000000E+00  0.00000000000E+00  0.50000000000E+03  0.50000000000E+03  0.00000000000E+00 0.  1.
         11   -1    0    0    0    0 -0.00000000000E+00 -0.00000000000E+00 -0.50000000000E+03  0.50000000000E+03  0.00000000000E+00 0. -1.
         23    2    1    2    0    0 -0.38934792577E+02 -0.73957729947E+02  0.34014333770E+03  0.36329884073E+03  0.96451509094E+02 0.  0.
        -11    1    1    2    0    0 -0.50177891684E+02  0.18934924038E+02  0.13756357342E+03  0.14764853164E+03  0.00000000000E+00 0.  1.
         11    1    1    2    0    0  0.89112684261E+02  0.55022805909E+02 -0.47770691112E+03  0.48905262763E+03  0.00000000000E+00 0. -1.
        -15    1    3    3    0    0  0.30995123604E+01 -0.80100822420E+02  0.17055725912E+03  0.18846401539E+03  0.17770000000E+01 0.  1.
         15    1    3    3    0    0 -0.42034304937E+02  0.61430924733E+01  0.16958607858E+03  0.17483482535E+03  0.17770000000E+01 0. -1.
</event>
<event>
 7    1  0.5285153E-006  0.4683259E+03  0.7546771E-02  0.9473613E-01
        -11   -1    0    0    0    0  0.00000000000E+00  0.00000000000E+00  0.50000000000E+03  0.50000000000E+03  0.00000000000E+00 0.  1.
         11   -1    0    0    0    0 -0.00000000000E+00 -0.00000000000E+00 -0.50000000000E+03  0.50000000000E+03  0.00000000000E+00 0.  1.
         23    2    1    2    0    0  0.44864349066E+02 -0.52121975161E+02 -0.44312750412E+03  0.45755157335E+03  0.90895254286E+02 0.  0.
        -11    1    1    2    0    0 -0.87683024379E+02  0.15685299800E+01  0.46460079277E+03  0.47280510751E+03  0.00000000000E+00 0.  1.
         11    1    1    2    0    0  0.42818675313E+02  0.50553445181E+02 -0.21473288647E+02  0.69643319138E+02  0.00000000000E+00 0.  1.
        -15    1    3    3    0    0  0.15630224728E+02 -0.68194543614E+02 -0.37725354089E+03  0.38369022863E+03  0.17770000000E+01 0.  1.
         15    1    3    3    0    0  0.29234124337E+02  0.16072568453E+02 -0.65873963228E+02  0.73861344713E+02  0.17770000000E+01 0. -1.
</event>
<event>
 7    1  0.5285153E-006  0.5085172E+03  0.7546771E-02  0.9380951E-01
        -11   -1    0    0    0    0  0.00000000000E+00  0.00000000000E+00  0.50000000000E+03  0.50000000000E+03  0.00000000000E+00 0.  1.
         11   -1    0    0    0    0 -0.00000000000E+00 -0.00000000000E+00 -0.50000000000E+03  0.50000000000E+03  0.00000000000E+00 0. -1.
         23    2    1    2    0    0 -0.80995033085E+02  0.12250046787E+03  0.26948148977E+03  0.32002446752E+03  0.90712879297E+02 0.  0.
        -11    1    1    2    0    0 -0.21886596672E+01  0.70575036211E+02  0.17476807545E+03  0.18849272178E+03  0.00000000000E+00 0.  1.
         11    1    1    2    0    0  0.83183692752E+02 -0.19307550408E+03 -0.44424956522E+03  0.49148281070E+03  0.00000000000E+00 0. -1.
        -15    1    3    3    0    0 -0.11102596373E+02 -0.14463498582E+02  0.21650981487E+02  0.28361649561E+02  0.17770000000E+01 0. -1.
         15    1    3    3    0    0 -0.69892436713E+02  0.13696396645E+03  0.24783050828E+03  0.29166281796E+03  0.17770000000E+01 0.  1.
</event>
<event>
 7    1  0.5285153E-006  0.3331296E+03  0.7546771E-02  0.9877652E-01
        -11   -1    0    0    0    0  0.00000000000E+00  0.00000000000E+00  0.50000000000E+03  0.50000000000E+03  0.00000000000E+00 0.  1.
         11   -1    0    0    0    0 -0.00000000000E+00 -0.00000000000E+00 -0.50000000000E+03  0.50000000000E+03  0.00000000000E+00 0. -1.
         23    2    1    2    0    0  0.92077875092E+02  0.22285762598E+03  0.11460865821E+03  0.28223940595E+03  0.91542783427E+02 0.  0.
        -11    1    1    2    0    0 -0.25764771279E+02 -0.55402324774E+02  0.27862358049E+03  0.28524435251E+03  0.00000000000E+00 0.  1.
         11    1    1    2    0    0 -0.66313103813E+02 -0.16745530121E+03 -0.39323223870E+03  0.43251624154E+03  0.00000000000E+00 0. -1.
        -15    1    3    3    0    0  0.38490214509E+02  0.17581161746E+02  0.28684887605E+01  0.42449732838E+02  0.17770000000E+01 0.  1.
         15    1    3    3    0    0  0.53587660583E+02  0.20527646424E+03  0.11174016945E+03  0.23978967312E+03  0.17770000000E+01 0. -1.
</event>
<event>
 6    1  0.5285153E-006  0.2253688E+03  0.7546771E-02  0.1038676E+00
        -11   -1    0    0    0    0  0.00000000000E+00  0.00000000000E+00  0.50000000000E+03  0.50000000000E+03  0.00000000000E+00 0. -1.
         11   -1    0    0    0    0 -0.00000000000E+00 -0.00000000000E+00 -0.50000000000E+03  0.50000000000E+03  0.00000000000E+00 0. -1.
        -11    1    1    2    0    0 -0.90129635222E+02 -0.59777895746E+02  0.24999007282E+03  0.27238168895E+03  0.00000000000E+00 0. -1.
         11    1    1    2    0    0  0.27255226727E+03 -0.36326581373E+02 -0.14759834479E+03  0.31207311690E+03  0.00000000000E+00 0. -1.
        -15    1    1    2    0    0 -0.86698624403E+02  0.12676166365E+03  0.10433440858E+03  0.18567174633E+03  0.17770000000E+01 0.  1.
         15    1    1    2    0    0 -0.95724007644E+02 -0.30657186530E+02 -0.20672613661E+03  0.22987344782E+03  0.17770000000E+01 0. -1.
</event>
<event>
 7    1  0.5285153E-006  0.4241889E+03  0.7546771E-02  0.9587512E-01
        -11   -1    0    0    0    0  0.00000000000E+00  0.00000000000E+00  0.50000000000E+03  0.50000000000E+03  0.00000000000E+00 0. -1.
         11   -1    0    0    0    0 -0.00000000000E+00 -0.00000000000E+00 -0.50000000000E+03  0.50000000000E+03  0.00000000000E+00 0. -1.
         23    2    1    2    0    0 -0.36918452846E+01 -0.43697736047E+02 -0.40098456257E+03  0.41374285300E+03  0.92040247379E+02 0.  0.
        -11    1    1    2    0    0  0.68976562660E+02 -0.88008493363E+02  0.42308003594E+03  0.43760710451E+03  0.00000000000E+00 0. -1.
         11    1    1    2    0    0 -0.65284717376E+02  0.13170622941E+03 -0.22095473378E+02  0.14865004249E+03  0.00000000000E+00 0. -1.
        -15    1    3    3    0    0  0.33225239162E+02  0.11694865234E+02 -0.13048603547E+03  0.13516822693E+03  0.17770000000E+01 0. -1.
         15    1    3    3    0    0 -0.36917084446E+02 -0.55392601281E+02 -0.27049852710E+03  0.27857462607E+03  0.17770000000E+01 0.  1.
</event>
<event>
 7    1  0.5285153E-006  0.5245975E+03  0.7546771E-02  0.9346393E-01
        -11   -1    0    0    0    0  0.00000000000E+00  0.00000000000E+00  0.50000000000E+03  0.50000000000E+03  0.00000000000E+00 0.  1.
         11   -1    0    0    0    0 -0.00000000000E+00 -0.00000000000E+00 -0.50000000000E+03  0.50000000000E+03  0.00000000000E+00 0.  1.
         23    2    1    2    0    0 -0.10922224979E+03 -0.78392269379E+02  0.22767681306E+03  0.27818435261E+03  0.86457822553E+02 0.  0.
        -11    1    1    2    0    0  0.59798784573E+02  0.25852229319E+01  0.23903314351E+03  0.24641311189E+03  0.00000000000E+00 0.  1.
         11    1    1    2    0    0  0.49423465215E+02  0.75807046447E+02 -0.46670995657E+03  0.47540253551E+03  0.00000000000E+00 0.  1.
        -15    1    3    3    0    0 -0.19125437973E+02  0.66825673653E+01  0.16394807506E+01  0.20403056398E+02  0.17770000000E+01 0. -1.
         15    1    3    3    0    0 -0.90096811816E+02 -0.85074836745E+02  0.22603733231E+03  0.25778129621E+03  0.17770000000E+01 0.  1.
</event>
<event>
 7    1  0.5285153E-006  0.3990430E+03  0.7546771E-02  0.9659233E-01
        -11   -1    0    0    0    0  0.00000000000E+00  0.00000000000E+00  0.50000000000E+03  0.50000000000E+03  0.00000000000E+00 0.  1.
         11   -1    0    0    0    0 -0.00000000000E+00 -0.00000000000E+00 -0.50000000000E+03  0.50000000000E+03  0.00000000000E+00 0.  1.
         23    2    1    2    0    0 -0.30771516521E+02 -0.32322088534E+03 -0.28686067513E+03  0.44218961219E+03  0.88453260213E+02 0.  0.
        -11    1    1    2    0    0  0.59179831998E+02  0.14216906484E+03  0.33467887028E+03  0.36840771127E+03  0.00000000000E+00 0.  1.
         11    1    1    2    0    0 -0.28408315477E+02  0.18105182050E+03 -0.47818195146E+02  0.18940267654E+03  0.00000000000E+00 0.  1.
        -15    1    3    3    0    0 -0.33947814829E+02 -0.26008949425E+03 -0.27066847590E+03  0.37691322705E+03  0.17770000000E+01 0.  1.
         15    1    3    3    0    0  0.31762983077E+01 -0.63131391091E+02 -0.16192199234E+02  0.65276385141E+02  0.17770000000E+01 0. -1.
</event>
<event>
 7    1  0.5285153E-006  0.5204889E+03  0.7546771E-02  0.9355096E-01
        -11   -1    0    0    0    0  0.00000000000E+00  0.00000000000E+00  0.50000000000E+03  0.50000000000E+03  0.00000000000E+00 0.  1.
         11   -1    0    0    0    0 -0.00000000000E+00 -0.00000000000E+00 -0.50000000000E+03  0.50000000000E+03  0.00000000000E+00 0. -1.
         23    2    1    2    0    0 -0.12742224281E+03 -0.13176092810E+03  0.32202472498E+03  0.38170843303E+03  0.91673519699E+02 0.  0.
        -11    1    1    2    0    0  0.40601740277E+02  0.62781160264E+01  0.13255984036E+03  0.13878050054E+03  0.00000000000E+00 0.  1.
         11    1    1    2    0    0  0.86820502531E+02  0.12548281207E+03 -0.45458456534E+03  0.47951106643E+03  0.00000000000E+00 0. -1.
        -15    1    3    3    0    0 -0.73651342976E+01 -0.49603059946E+02  0.39265278494E+02  0.63715214694E+02  0.17770000000E+01 0. -1.
         15    1    3    3    0    0 -0.12005710851E+03 -0.82157868150E+02  0.28275944649E+03  0.31799321834E+03  0.17770000000E+01 0.  1.
</event>
<event>
 7    1  0.5285153E-006  0.4668604E+03  0.7546771E-02  0.9477177E-01
        -11   -1    0    0    0    0  0.00000000000E+00  0.00000000000E+00  0.50000000000E+03  0.50000000000E+03  0.00000000000E+00 0. -1.
         11   -1    0    0    0    0 -0.00000000000E+00 -0.00000000000E+00 -0.50000000000E+03  0.50000000000E+03  0.00000000000E+00 0. -1.
         23    2    1    2    0    0 -0.66128457799E+02 -0.96910950851E+02 -0.44996471647E+03  0.47380336907E+03  0.90866281684E+02 0.  0.
        -11    1    1    2    0    0  0.12499405940E+03  0.12448008891E+03  0.41812834493E+03  0.45381727629E+03  0.00000000000E+00 0. -1.
         11    1    1    2    0    0 -0.58865601604E+02 -0.27569138058E+02  0.31836371543E+02  0.72379354643E+02  0.00000000000E+00 0. -1.
        -15    1    3    3    0    0  0.21662570751E+02 -0.21757533055E+02 -0.65867252980E+02  0.72693259387E+02  0.17770000000E+01 0.  1.
         15    1    3    3    0    0 -0.87791028550E+02 -0.75153417797E+02 -0.38409746349E+03  0.40111010969E+03  0.17770000000E+01 0. -1.
</event>
<event>
 7    1  0.5285153E-006  0.5355969E+03  0.7546771E-02  0.9323502E-01
        -11   -1    0    0    0    0  0.00000000000E+00  0.00000000000E+00  0.50000000000E+03  0.50000000000E+03  0.00000000000E+00 0. -1.
         11   -1    0    0    0    0 -0.00000000000E+00 -0.00000000000E+00 -0.50000000000E+03  0.50000000000E+03  0.00000000000E+00 0.  1.
         23    2    1    2    0    0  0.20519963768E+02 -0.41051750822E+02  0.21342363223E+02  0.10325163721E+03  0.89994938528E+02 0.  0.
        -11    1    1    2    0    0  0.33551871056E+02 -0.82184535275E+02  0.42313404231E+03  0.43234528290E+03  0.00000000000E+00 0. -1.
         11    1    1    2    0    0 -0.54071834824E+02  0.12323628610E+03 -0.44447640553E+03  0.46440307988E+03  0.00000000000E+00 0.  1.
        -15    1    3    3    0    0  0.28238517877E+02 -0.21562404070E+02  0.53844785080E+02  0.64535027470E+02  0.17770000000E+01 0.  1.
         15    1    3    3    0    0 -0.77185541097E+01 -0.19489346751E+02 -0.32502421858E+02  0.38716609743E+02  0.17770000000E+01 0. -1.
</event>
<event>
 7    1  0.5285153E-006  0.4122056E+03  0.7546771E-02  0.9621009E-01
        -11   -1    0    0    0    0  0.00000000000E+00  0.00000000000E+00  0.50000000000E+03  0.50000000000E+03  0.00000000000E+00 0. -1.
         11   -1    0    0    0    0 -0.00000000000E+00 -0.00000000000E+00 -0.50000000000E+03  0.50000000000E+03  0.00000000000E+00 0.  1.
         23    2    1    2    0    0  0.58787649243E+02 -0.66890228669E+02 -0.89869269217E+02  0.16593735879E+03  0.10737053179E+03 0.  0.
        -11    1    1    2    0    0  0.24873498088E+03  0.17666910227E+03  0.31415783368E+03  0.43792260375E+03  0.00000000000E+00 0. -1.
         11    1    1    2    0    0 -0.30752263013E+03 -0.10977887360E+03 -0.22428856446E+03  0.39614003746E+03  0.00000000000E+00 0.  1.
        -15    1    3    3    0    0  0.74508368644E+02 -0.83249702967E+02 -0.55616378155E+02  0.12481325767E+03  0.17770000000E+01 0. -1.
         15    1    3    3    0    0 -0.15720719401E+02  0.16359474298E+02 -0.34252891063E+02  0.41124101120E+02  0.17770000000E+01 0.  1.
</event>
<event>
 7    1  0.5285153E-006  0.5116787E+03  0.7546771E-02  0.9374050E-01
        -11   -1    0    0    0    0  0.00000000000E+00  0.00000000000E+00  0.50000000000E+03  0.50000000000E+03  0.00000000000E+00 0.  1.
         11   -1    0    0    0    0 -0.00000000000E+00 -0.00000000000E+00 -0.50000000000E+03  0.50000000000E+03  0.00000000000E+00 0. -1.
         23    2    1    2    0    0  0.51976381986E+02  0.14414057465E+03  0.35006712932E+03  0.38901837362E+03  0.72871465206E+02 0.  0.
        -11    1    1    2    0    0  0.43288008224E+02 -0.21132038882E+02  0.11280575027E+03  0.12266031150E+03  0.00000000000E+00 0.  1.
         11    1    1    2    0    0 -0.95264390210E+02 -0.12300853576E+03 -0.46287287959E+03  0.48832131488E+03  0.00000000000E+00 0. -1.
        -15    1    3    3    0    0 -0.63683608044E+01  0.50858229751E+02  0.17392488929E+03  0.18132881844E+03  0.17770000000E+01 0. -1.
         15    1    3    3    0    0  0.58344742791E+02  0.93282344895E+02  0.17614224003E+03  0.20768955518E+03  0.17770000000E+01 0.  1.
</event>
<event>
 7    1  0.5285153E-006  0.3880565E+03  0.7546771E-02  0.9692364E-01
        -11   -1    0    0    0    0  0.00000000000E+00  0.00000000000E+00  0.50000000000E+03  0.50000000000E+03  0.00000000000E+00 0. -1.
         11   -1    0    0    0    0 -0.00000000000E+00 -0.00000000000E+00 -0.50000000000E+03  0.50000000000E+03  0.00000000000E+00 0.  1.
         23    2    1    2    0    0  0.69537221762E+02 -0.14904086236E+03 -0.71680053478E+02  0.20342104904E+03  0.95882684905E+02 0.  0.
        -11    1    1    2    0    0 -0.14578216455E+03  0.43344200230E+02  0.40824883479E+03  0.43565843306E+03  0.00000000000E+00 0. -1.
         11    1    1    2    0    0  0.76244942786E+02  0.10569666213E+03 -0.33656878131E+03  0.36092051789E+03  0.00000000000E+00 0.  1.
        -15    1    3    3    0    0  0.22685933725E+02 -0.85938751216E+02  0.10709839339E+02  0.89543168009E+02  0.17770000000E+01 0. -1.
         15    1    3    3    0    0  0.46851288037E+02 -0.63102111140E+02 -0.82389892817E+02  0.11387788103E+03  0.17770000000E+01 0.  1.
</event>
<event>
 7    1  0.5285153E-006  0.5261605E+03  0.7546771E-02  0.9343104E-01
        -11   -1    0    0    0    0  0.00000000000E+00  0.00000000000E+00  0.50000000000E+03  0.50000000000E+03  0.00000000000E+00 0.  1.
         11   -1    0    0    0    0 -0.00000000000E+00 -0.00000000000E+00 -0.50000000000E+03  0.50000000000E+03  0.00000000000E+00 0. -1.
         23    2    1    2    0    0 -0.14718003104E+02  0.25980041553E+02 -0.33309748523E+03  0.34599323520E+03  0.88689356553E+02 0.  0.
        -11    1    1    2    0    0  0.82874906562E+02  0.83366480027E+02  0.45902687349E+03  0.47383952000E+03  0.00000000000E+00 0.  1.
         11    1    1    2    0    0 -0.68156903458E+02 -0.10934652158E+03 -0.12592938826E+03  0.18016724480E+03  0.00000000000E+00 0. -1.
        -15    1    3    3    0    0  0.21704704742E+02  0.46311178223E+02 -0.16288987612E+03  0.17073982812E+03  0.17770000000E+01 0.  1.
         15    1    3    3    0    0 -0.36422707847E+02 -0.20331136670E+02 -0.17020760911E+03  0.17525340708E+03  0.17770000000E+01 0. -1.
</event>
<event>
 7    1  0.5285153E-006  0.4919581E+03  0.7546771E-02  0.9417986E-01
        -11   -1    0    0    0    0  0.00000000000E+00  0.00000000000E+00  0.50000000000E+03  0.50000000000E+03  0.00000000000E+00 0. -1.
         11   -1    0    0    0    0 -0.00000000000E+00 -0.00000000000E+00 -0.50000000000E+03  0.50000000000E+03  0.00000000000E+00 0.  1.
         23    2    1    2    0    0 -0.69802648147E+02 -0.89065620099E+02 -0.46616463969E+03  0.49135653185E+03  0.10637986517E+03 0.  0.
        -11    1    1    2    0    0  0.48451088372E+02  0.10612145807E+03  0.46695275887E+03  0.48130463414E+03  0.00000000000E+00 0. -1.
         11    1    1    2    0    0  0.21351559775E+02 -0.17055837968E+02 -0.78811917504E+00  0.27338834018E+02  0.00000000000E+00 0.  1.
        -15    1    3    3    0    0 -0.19556342664E+02 -0.17993193962E+02 -0.12512808871E+02  0.29426751133E+02  0.17770000000E+01 0. -1.
         15    1    3    3    0    0 -0.50246305483E+02 -0.71072426137E+02 -0.45365183082E+03  0.46192978071E+03  0.17770000000E+01 0.  1.
</event>
<event>
 7    1  0.5285153E-006  0.3320103E+03  0.7546771E-02  0.9881819E-01
        -11   -1    0    0    0    0  0.00000000000E+00  0.00000000000E+00  0.50000000000E+03  0.50000000000E+03  0.00000000000E+00 0.  1.
         11   -1    0    0    0    0 -0.00000000000E+00 -0.00000000000E+00 -0.50000000000E+03  0.50000000000E+03  0.00000000000E+00 0. -1.
         23    2    1    2    0    0  0.10061545206E+03  0.11932935737E+03 -0.21858805153E+03  0.28371305913E+03  0.91375045414E+02 0.  0.
        -11    1    1    2    0    0  0.16738786623E+03 -0.10966949185E+03  0.36091551948E+03  0.41268160536E+03  0.00000000000E+00 0.  1.
         11    1    1    2    0    0 -0.26800331829E+03 -0.96598655168E+01 -0.14232746795E+03  0.30360533551E+03  0.00000000000E+00 0. -1.
        -15    1    3    3    0    0 -0.11407312373E+02  0.21725458823E+02 -0.77850781376E+01  0.25804796207E+02  0.17770000000E+01 0.  1.
         15    1    3    3    0    0  0.11202276443E+03  0.97603898543E+02 -0.21080297339E+03  0.25790826292E+03  0.17770000000E+01 0. -1.
</event>
<event>
 7    1  0.5285153E-006  0.5155210E+03  0.7546771E-02  0.9365735E-01
        -11   -1    0    0    0    0  0.00000000000E+00  0.00000000000E+00  0.50000000000E+03  0.50000000000E+03  0.00000000000E+00 0.  1.
         11   -1    0    0    0    0 -0.00000000000E+00 -0.00000000000E+00 -0.50000000000E+03  0.50000000000E+03  0.00000000000E+00 0. -1.
         23    2    1    2    0    0  0.55271401039E+02 -0.45675181116E+02  0.17350985556E+03  0.20807178672E+03  0.89705342700E+02 0.  0.
        -11    1    1    2    0    0  0.68545260659E+02  0.53998498542E+02  0.29480629731E+03  0.30744925360E+03  0.00000000000E+00 0.  1.
         11    1    1    2    0    0 -0.12381666170E+03 -0.83233174263E+01 -0.46831615288E+03  0.48447895968E+03  0.00000000000E+00 0. -1.
        -15    1    3    3    0    0  0.82803025669E+01  0.26620598156E+02  0.33358450551E+02  0.43510499985E+02  0.17770000000E+01 0. -1.
         15    1    3    3    0    0  0.46991098472E+02 -0.72295779272E+02  0.14015140501E+03  0.16456128673E+03  0.17770000000E+01 0.  1.
</event>
<event>
 7    1  0.5285153E-006  0.5137167E+03  0.7546771E-02  0.9369630E-01
        -11   -1    0    0    0    0  0.00000000000E+00  0.00000000000E+00  0.50000000000E+03  0.50000000000E+03  0.00000000000E+00 0.  1.
         11   -1    0    0    0    0 -0.00000000000E+00 -0.00000000000E+00 -0.50000000000E+03  0.50000000000E+03  0.00000000000E+00 0. -1.
         23    2    1    2    0    0  0.20492873372E+02  0.97753923469E+02  0.29993813328E+03  0.32938439512E+03  0.92495451434E+02 0.  0.
        -11    1    1    2    0    0  0.26581787898E+02 -0.32009080553E+02  0.17957516486E+03  0.18433234258E+03  0.00000000000E+00 0.  1.
         11    1    1    2    0    0 -0.47074661270E+02 -0.65744842916E+02 -0.47951329814E+03  0.48628326231E+03  0.00000000000E+00 0. -1.
        -15    1    3    3    0    0 -0.17248910080E+02  0.96338422750E+02  0.22771679702E+03  0.24786430556E+03  0.17770000000E+01 0.  1.
         15    1    3    3    0    0  0.37741783453E+02  0.14155007183E+01  0.72221336261E+02  0.81520089553E+02  0.17770000000E+01 0. -1.
</event>
<event>
 7    1  0.5285153E-006  0.5220811E+03  0.7546771E-02  0.9351713E-01
        -11   -1    0    0    0    0  0.00000000000E+00  0.00000000000E+00  0.50000000000E+03  0.50000000000E+03  0.00000000000E+00 0.  1.
         11   -1    0    0    0    0 -0.00000000000E+00 -0.00000000000E+00 -0.50000000000E+03  0.50000000000E+03  0.00000000000E+00 0. -1.
         23    2    1    2    0    0  0.75954948631E+02  0.30163183680E+02  0.20445228890E+03  0.23913027661E+03  0.93292973396E+02 0.  0.
        -11    1    1    2    0    0  0.12206149096E+02  0.18685534690E+03  0.21212553202E+03  0.28295079444E+03  0.00000000000E+00 0.  1.
         11    1    1    2    0    0 -0.88161097727E+02 -0.21701853058E+03 -0.41657782092E+03  0.47791892895E+03  0.00000000000E+00 0. -1.
        -15    1    3    3    0    0 -0.17491885346E+02  0.17232758209E+02  0.75027282310E+02  0.78963186538E+02  0.17770000000E+01 0.  1.
         15    1    3    3    0    0  0.93446833976E+02  0.12930425471E+02  0.12942500659E+03  0.16016709007E+03  0.17770000000E+01 0. -1.
</event>
<event>
 7    1  0.5285153E-006  0.5157375E+03  0.7546771E-02  0.9365268E-01
        -11   -1    0    0    0    0  0.00000000000E+00  0.00000000000E+00  0.50000000000E+03  0.50000000000E+03  0.00000000000E+00 0.  1.
         11   -1    0    0    0    0 -0.00000000000E+00 -0.00000000000E+00 -0.50000000000E+03  0.50000000000E+03  0.00000000000E+00 0.  1.
         23    2    1    2    0    0  0.10416451148E+01  0.18436376595E+01 -0.54615852215E+02  0.84924553198E+02  0.64998495355E+02 0.  0.
        -11    1    1    2    0    0 -0.80143313746E+02  0.47687606872E+02  0.47519800488E+03  0.48426253461E+03  0.00000000000E+00 0.  1.
         11    1    1    2    0    0  0.79101668631E+02 -0.49531244532E+02 -0.42058215267E+03  0.43081291219E+03  0.00000000000E+00 0.  1.
        -15    1    3    3    0    0  0.26697433276E+02 -0.18029718404E+02 -0.23361158400E+02  0.39833718632E+02  0.17770000000E+01 0.  1.
         15    1    3    3    0    0 -0.25655788161E+02  0.19873356064E+02 -0.31254693815E+02  0.45090834566E+02  0.17770000000E+01 0. -1.
</event>
<event>
 7    1  0.5285153E-006  0.5165743E+03  0.7546771E-02  0.9363469E-01
        -11   -1    0    0    0    0  0.00000000000E+00  0.00000000000E+00  0.50000000000E+03  0.50000000000E+03  0.00000000000E+00 0. -1.
         11   -1    0    0    0    0 -0.00000000000E+00 -0.00000000000E+00 -0.50000000000E+03  0.50000000000E+03  0.00000000000E+00 0. -1.
         23    2    1    2    0    0  0.57481715151E+02  0.12928203269E+02 -0.20076261176E+03  0.22759579752E+03  0.89570836504E+02 0.  0.
        -11    1    1    2    0    0 -0.41198423598E+02  0.73540535769E+02  0.47601987938E+03  0.48342573998E+03  0.00000000000E+00 0. -1.
         11    1    1    2    0    0 -0.16283291553E+02 -0.86468739038E+02 -0.27525726762E+03  0.28897846250E+03  0.00000000000E+00 0. -1.
        -15    1    3    3    0    0  0.16054081438E+02 -0.32770730739E+02 -0.34494627258E+02  0.50246306955E+02  0.17770000000E+01 0.  1.
         15    1    3    3    0    0  0.41427633713E+02  0.45698934008E+02 -0.16626798450E+03  0.17734949056E+03  0.17770000000E+01 0. -1.
</event>
<event>
 7    1  0.5285153E-006  0.5337406E+03  0.7546771E-02  0.9327324E-01
        -11   -1    0    0    0    0  0.00000000000E+00  0.00000000000E+00  0.50000000000E+03  0.50000000000E+03  0.00000000000E+00 0. -1.
         11   -1    0    0    0    0 -0.00000000000E+00 -0.00000000000E+00 -0.50000000000E+03  0.50000000000E+03  0.00000000000E+00 0.  1.
         23    2    1    2    0    0 -0.17194578611E+03  0.77360251871E+01  0.15618791063E+03  0.25018134213E+03  0.92578837099E+02 0.  0.
        -11    1    1    2    0    0 -0.20125708859E+02 -0.13226945590E+03  0.25001124601E+03  0.28355929936E+03  0.00000000000E+00 0. -1.
         11    1    1    2    0    0  0.19207149497E+03  0.12453343071E+03 -0.40619915664E+03  0.46625935851E+03  0.00000000000E+00 0.  1.
        -15    1    3    3    0    0 -0.76610604460E+02  0.29973242110E+02  0.24059807893E+02  0.85729878357E+02  0.17770000000E+01 0.  1.
         15    1    3    3    0    0 -0.95335181647E+02 -0.22237216922E+02  0.13212810273E+03  0.16445146377E+03  0.17770000000E+01 0. -1.
</event>
<event>
 7    1  0.5285153E-006  0.5085111E+03  0.7546771E-02  0.9380964E-01
        -11   -1    0    0    0    0  0.00000000000E+00  0.00000000000E+00  0.50000000000E+03  0.50000000000E+03  0.00000000000E+00 0. -1.
         11   -1    0    0    0    0 -0.00000000000E+00 -0.00000000000E+00 -0.50000000000E+03  0.50000000000E+03  0.00000000000E+00 0. -1.
         23    2    1    2    0    0  0.16884932229E+02  0.56944215722E+02 -0.38919525094E+03  0.40533506046E+03  0.96414849693E+02 0.  0.
        -11    1    1    2    0    0  0.41408660078E+01 -0.97516386725E+02  0.48169987381E+03  0.49148892244E+03  0.00000000000E+00 0. -1.
         11    1    1    2    0    0 -0.21025798236E+02  0.40572171003E+02 -0.92504622876E+02  0.10317601710E+03  0.00000000000E+00 0. -1.
        -15    1    3    3    0    0 -0.31492684064E+02 -0.14742786149E+01 -0.18127529824E+03  0.18400503832E+03  0.17770000000E+01 0. -1.
         15    1    3    3    0    0  0.48377616292E+02  0.58418494337E+02 -0.20791995270E+03  0.22133002214E+03  0.17770000000E+01 0.  1.
</event>
<event>
 7    1  0.5285153E-006  0.5204792E+03  0.7546771E-02  0.9355117E-01
        -11   -1    0    0    0    0  0.00000000000E+00  0.00000000000E+00  0.50000000000E+03  0.50000000000E+03  0.00000000000E+00 0. -1.
         11   -1    0    0    0    0 -0.00000000000E+00 -0.00000000000E+00 -0.50000000000E+03  0.50000000000E+03  0.00000000000E+00 0. -1.
         23    2    1    2    0    0 -0.46559146879E+01  0.45430361375E+02 -0.27347484800E+03  0.29304805202E+03  0.94884524681E+02 0.  0.
        -11    1    1    2    0    0  0.13774090486E+03 -0.37881438135E+02  0.45774731474E+03  0.47952076532E+03  0.00000000000E+00 0. -1.
         11    1    1    2    0    0 -0.13308499017E+03 -0.75489232404E+01 -0.18427246673E+03  0.22743118266E+03  0.00000000000E+00 0. -1.
        -15    1    3    3    0    0 -0.11952644354E+02 -0.26983594596E+02 -0.50837441989E+02  0.58809721317E+02  0.17770000000E+01 0.  1.
         15    1    3    3    0    0  0.72967296658E+01  0.72413955971E+02 -0.22263740601E+03  0.23423833070E+03  0.17770000000E+01 0. -1.
</event>
<event>
 7    1  0.5285153E-006  0.5285267E+03  0.7546771E-02  0.9338148E-01
        -11   -1    0    0    0    0  0.00000000000E+00  0.00000000000E+00  0.50000000000E+03  0.50000000000E+03  0.00000000000E+00 0.  1.
         11   -1    0    0    0    0 -0.00000000000E+00 -0.00000000000E+00 -0.50000000000E+03  0.50000000000E+03  0.00000000000E+00 0.  1.
         23    2    1    2    0    0 -0.21291052147E+03  0.17835579614E+02  0.22607930868E+03  0.32378375664E+03  0.89861388788E+02 0.  0.
        -11    1    1    2    0    0 -0.19510135846E+03  0.61977964605E+02 -0.37209939819E+01  0.20474289723E+03  0.00000000000E+00 0.  1.
         11    1    1    2    0    0  0.40801187992E+03 -0.79813544219E+02 -0.22235831470E+03  0.47147334614E+03  0.00000000000E+00 0.  1.
        -15    1    3    3    0    0 -0.20039947050E+02 -0.19684815020E+02  0.60881707679E+02  0.67073329119E+02  0.17770000000E+01 0. -1.
         15    1    3    3    0    0 -0.19287057442E+03  0.37520394635E+02  0.16519760101E+03  0.25671042752E+03  0.17770000000E+01 0.  1.
</event>
<event>
 7    1  0.5285153E-006  0.5225446E+03  0.7546771E-02  0.9350731E-01
        -11   -1    0    0    0    0  0.00000000000E+00  0.00000000000E+00  0.50000000000E+03  0.50000000000E+03  0.00000000000E+00 0. -1.
         11   -1    0    0    0    0 -0.00000000000E+00 -0.00000000000E+00 -0.50000000000E+03  0.50000000000E+03  0.00000000000E+00 0.  1.
         23    2    1    2    0    0 -0.11140800533E+03  0.67337205572E+02 -0.35465299432E+03  0.38782693909E+03  0.87663820356E+02 0.  0.
        -11    1    1    2    0    0  0.80992482473E+02 -0.56698026888E+01  0.47050153749E+03  0.47745536510E+03  0.00000000000E+00 0. -1.
         11    1    1    2    0    0  0.30415522858E+02 -0.61667402884E+02 -0.11584854317E+03  0.13471769581E+03  0.00000000000E+00 0.  1.
        -15    1    3    3    0    0 -0.11296680106E+03  0.80797889154E+02 -0.34228775359E+03  0.36939661750E+03  0.17770000000E+01 0.  1.
         15    1    3    3    0    0  0.15587957322E+01 -0.13460683581E+02 -0.12365240725E+02  0.18430321587E+02  0.17770000000E+01 0. -1.
</event>
<event>
 7    1  0.5285153E-006  0.5065032E+03  0.7546771E-02  0.9385375E-01
        -11   -1    0    0    0    0  0.00000000000E+00  0.00000000000E+00  0.50000000000E+03  0.50000000000E+03  0.00000000000E+00 0. -1.
         11   -1    0    0    0    0 -0.00000000000E+00 -0.00000000000E+00 -0.50000000000E+03  0.50000000000E+03  0.00000000000E+00 0.  1.
         23    2    1    2    0    0 -0.13468492135E+03 -0.61393159369E+02  0.35949708367E+03  0.39632329992E+03  0.76973091656E+02 0.  0.
        -11    1    1    2    0    0 -0.63559920498E+02 -0.38887199178E+02  0.81163660791E+02  0.11017993278E+03  0.00000000000E+00 0. -1.
         11    1    1    2    0    0  0.19824484185E+03  0.10028035855E+03 -0.44066074446E+03  0.49349676730E+03  0.00000000000E+00 0.  1.
        -15    1    3    3    0    0 -0.11611832317E+03 -0.23342075848E+02  0.21187771545E+03  0.24274192368E+03  0.17770000000E+01 0.  1.
         15    1    3    3    0    0 -0.18566598182E+02 -0.38051083521E+02  0.14761936822E+03  0.15358137624E+03  0.17770000000E+01 0. -1.
</event>
<event>
 7    1  0.5285153E-006  0.3443535E+03  0.7546771E-02  0.9836810E-01
        -11   -1    0    0    0    0  0.00000000000E+00  0.00000000000E+00  0.50000000000E+03  0.50000000000E+03  0.00000000000E+00 0.  1.
         11   -1    0    0    0    0 -0.00000000000E+00 -0.00000000000E+00 -0.50000000000E+03  0.50000000000E+03  0.00000000000E+00 0. -1.
         23    2    1    2    0    0  0.10272672640E+03 -0.26224581938E+03 -0.18451993807E+03  0.34526690529E+03  0.76393574636E+02 0.  0.
        -11    1    1    2    0    0 -0.19879766960E+03  0.55155702970E+02  0.32626373957E+03  0.38601903162E+03  0.00000000000E+00 0.  1.
         11    1    1    2    0    0  0.96070943200E+02  0.20709011641E+03 -0.14174380150E+03  0.26871406309E+03  0.00000000000E+00 0. -1.
        -15    1    3    3    0    0  0.15239917839E+02 -0.11664054228E+03 -0.10504976347E+03  0.15772089821E+03  0.17770000000E+01 0. -1.
         15    1    3    3    0    0  0.87486808561E+02 -0.14560527710E+03 -0.79470174603E+02  0.18754600708E+03  0.17770000000E+01 0.  1.
</event>
<event>
 7    1  0.5285153E-006  0.4972386E+03  0.7546771E-02  0.9406010E-01
        -11   -1    0    0    0    0  0.00000000000E+00  0.00000000000E+00  0.50000000000E+03  0.50000000000E+03  0.00000000000E+00 0.  1.
         11   -1    0    0    0    0 -0.00000000000E+00 -0.00000000000E+00 -0.50000000000E+03  0.50000000000E+03  0.00000000000E+00 0.  1.
         23    2    1    2    0    0  0.72765107793E+02  0.71369177130E+02 -0.47534750300E+03  0.49465353304E+03  0.91315654650E+02 0.  0.
        -11    1    1    2    0    0 -0.84221211962E+02 -0.64930740898E+02  0.47982098914E+03  0.49146454123E+03  0.00000000000E+00 0.  1.
         11    1    1    2    0    0  0.11456104169E+02 -0.64384362321E+01 -0.44734861464E+01  0.13881925737E+02  0.00000000000E+00 0.  1.
        -15    1    3    3    0    0  0.30676040349E+02  0.13806182551E+01 -0.34160398456E+02  0.45967554970E+02  0.17770000000E+01 0. -1.
         15    1    3    3    0    0  0.42089067444E+02  0.69988558875E+02 -0.44118710454E+03  0.44868597807E+03  0.17770000000E+01 0.  1.
</event>
<event>
 7    1  0.5285153E-006  0.5279965E+03  0.7546771E-02  0.9339256E-01
        -11   -1    0    0    0    0  0.00000000000E+00  0.00000000000E+00  0.50000000000E+03  0.50000000000E+03  0.00000000000E+00 0.  1.
         11   -1    0    0    0    0 -0.00000000000E+00 -0.00000000000E+00 -0.50000000000E+03  0.50000000000E+03  0.00000000000E+00 0. -1.
         23    2    1    2    0    0  0.29675162391E+02  0.92049509545E+02  0.13604867082E+03  0.19030172206E+03  0.91388057848E+02 0.  0.
        -11    1    1    2    0    0  0.17847011037E+03 -0.38121725009E+02  0.28413538652E+03  0.33769477947E+03  0.00000000000E+00 0.  1.
         11    1    1    2    0    0 -0.20814527276E+03 -0.53927784535E+02 -0.42018405734E+03  0.47200349846E+03  0.00000000000E+00 0. -1.
        -15    1    3    3    0    0  0.31738583173E+02  0.28968025527E+02  0.11653052340E+03  0.12421354506E+03  0.17770000000E+01 0.  1.
         15    1    3    3    0    0 -0.20634207824E+01  0.63081484018E+02  0.19518147425E+02  0.66088177000E+02  0.17770000000E+01 0. -1.
</event>
<event>
 6    1  0.5285153E-006  0.3283552E+03  0.7546771E-02  0.9895552E-01
        -11   -1    0    0    0    0  0.00000000000E+00  0.00000000000E+00  0.50000000000E+03  0.50000000000E+03  0.00000000000E+00 0. -1.
         11   -1    0    0    0    0 -0.00000000000E+00 -0.00000000000E+00 -0.50000000000E+03  0.50000000000E+03  0.00000000000E+00 0.  1.
        -11    1    1    2    0    0  0.27503614818E+02  0.13594273310E+03  0.31134960064E+03  0.34084519848E+03  0.00000000000E+00 0. -1.
         11    1    1    2    0    0  0.56815820667E+02 -0.28375551790E+03 -0.19294323261E+03  0.34781075663E+03  0.00000000000E+00 0.  1.
        -15    1    1    2    0    0 -0.31181969661E+01  0.66036568570E+02  0.66288567234E+02  0.93636976755E+02  0.17770000000E+01 0. -1.
         15    1    1    2    0    0 -0.81201238519E+02  0.81776216224E+02 -0.18469493526E+03  0.21770706813E+03  0.17770000000E+01 0.  1.
</event>
<event>
 7    1  0.5285153E-006  0.4686462E+03  0.7546771E-02  0.9472835E-01
        -11   -1    0    0    0    0  0.00000000000E+00  0.00000000000E+00  0.50000000000E+03  0.50000000000E+03  0.00000000000E+00 0.  1.
         11   -1    0    0    0    0 -0.00000000000E+00 -0.00000000000E+00 -0.50000000000E+03  0.50000000000E+03  0.00000000000E+00 0. -1.
         23    2    1    2    0    0 -0.12042413498E+03 -0.10479680490E+03 -0.41858505724E+03  0.45668287968E+03  0.88664873792E+02 0.  0.
        -11    1    1    2    0    0  0.14916439916E+03  0.49775242947E+02  0.44787497077E+03  0.47467839874E+03  0.00000000000E+00 0.  1.
         11    1    1    2    0    0 -0.28740264184E+02  0.55021561950E+02 -0.29289913529E+02  0.68638721574E+02  0.00000000000E+00 0. -1.
        -15    1    3    3    0    0 -0.51824779754E+02 -0.41912879272E+02 -0.29226883427E+03  0.29977779514E+03  0.17770000000E+01 0.  1.
         15    1    3    3    0    0 -0.68599355226E+02 -0.62883925625E+02 -0.12631622298E+03  0.15690508454E+03  0.17770000000E+01 0. -1.
</event>
<event>
 7    1  0.5285153E-006  0.3765673E+03  0.7546771E-02  0.9728289E-01
        -11   -1    0    0    0    0  0.00000000000E+00  0.00000000000E+00  0.50000000000E+03  0.50000000000E+03  0.00000000000E+00 0.  1.
         11   -1    0    0    0    0 -0.00000000000E+00 -0.00000000000E+00 -0.50000000000E+03  0.50000000000E+03  0.00000000000E+00 0. -1.
         23    2    1    2    0    0 -0.14337677663E+03 -0.20472358329E+03 -0.26568148765E+03  0.37612035006E+03  0.91712699297E+02 0.  0.
        -11    1    1    2    0    0  0.78528625434E+02  0.29013777996E+02  0.39012877425E+03  0.39901003098E+03  0.00000000000E+00 0.  1.
         11    1    1    2    0    0  0.64848151200E+02  0.17570980530E+03 -0.12444728660E+03  0.22486961896E+03  0.00000000000E+00 0. -1.
        -15    1    3    3    0    0 -0.32193569226E+02 -0.29733201550E+02 -0.10506795291E+03  0.11385482700E+03  0.17770000000E+01 0.  1.
         15    1    3    3    0    0 -0.11118320741E+03 -0.17499038174E+03 -0.16061353474E+03  0.26226552305E+03  0.17770000000E+01 0. -1.
</event>
<event>
 7    1  0.5285153E-006  0.5073553E+03  0.7546771E-02  0.9383500E-01
        -11   -1    0    0    0    0  0.00000000000E+00  0.00000000000E+00  0.50000000000E+03  0.50000000000E+03  0.00000000000E+00 0.  1.
         11   -1    0    0    0    0 -0.00000000000E+00 -0.00000000000E+00 -0.50000000000E+03  0.50000000000E+03  0.00000000000E+00 0. -1.
         23    2    1    2    0    0 -0.81726122452E+02  0.15384064437E+02  0.28704133308E+03  0.31300700404E+03  0.93085064082E+02 0.  0.
        -11    1    1    2    0    0 -0.35702476293E+02  0.46260549670E+01  0.19098476549E+03  0.19434826433E+03  0.00000000000E+00 0.  1.
         11    1    1    2    0    0  0.11742859875E+03 -0.20010119404E+02 -0.47802609857E+03  0.49264473163E+03  0.00000000000E+00 0. -1.
        -15    1    3    3    0    0 -0.43387246344E+02  0.51567767262E+02  0.20182500527E+03  0.21278669659E+03  0.17770000000E+01 0.  1.
         15    1    3    3    0    0 -0.38338876108E+02 -0.36183702825E+02  0.85216327811E+02  0.10022030745E+03  0.17770000000E+01 0. -1.
</event>
<event>
 7    1  0.5285153E-006  0.4030864E+03  0.7546771E-02  0.9647325E-01
        -11   -1    0    0    0    0  0.00000000000E+00  0.00000000000E+00  0.50000000000E+03  0.50000000000E+03  0.00000000000E+00 0. -1.
         11   -1    0    0    0    0 -0.00000000000E+00 -0.00000000000E+00 -0.50000000000E+03  0.50000000000E+03  0.00000000000E+00 0.  1.
         23    2    1    2    0    0 -0.13506336456E+03 -0.75250602741E+02 -0.37635111113E+03  0.41682969589E+03  0.90565285117E+02 0.  0.
        -11    1    1    2    0    0 -0.23041793660E+02  0.16696834207E+03  0.36261360063E+03  0.39987244825E+03  0.00000000000E+00 0. -1.
         11    1    1    2    0    0  0.15810515822E+03 -0.91717739333E+02  0.13737510499E+02  0.18329785585E+03  0.00000000000E+00 0.  1.
        -15    1    3    3    0    0 -0.41368015591E+02 -0.48317801653E+02 -0.24569275207E+03  0.25379915055E+03  0.17770000000E+01 0. -1.
         15    1    3    3    0    0 -0.93695348973E+02 -0.26932801088E+02 -0.13065835906E+03  0.16303054534E+03  0.17770000000E+01 0.  1.
</event>
<event>
 7    1  0.5285153E-006  0.5180945E+03  0.7546771E-02  0.9360208E-01
        -11   -1    0    0    0    0  0.00000000000E+00  0.00000000000E+00  0.50000000000E+03  0.50000000000E+03  0.00000000000E+00 0.  1.
         11   -1    0    0    0    0 -0.00000000000E+00 -0.00000000000E+00 -0.50000000000E+03  0.50000000000E+03  0.00000000000E+00 0.  1.
         23    2    1    2    0    0 -0.16385265776E+01 -0.11506306042E+02 -0.38307932760E+03  0.39198614008E+03  0.82269574762E+02 0.  0.
        -11    1    1    2    0    0  0.88942931086E+02  0.26063034753E+02  0.47290889432E+03  0.48190553960E+03  0.00000000000E+00 0.  1.
         11    1    1    2    0    0 -0.87304404509E+02 -0.14556728710E+02 -0.89829566719E+02  0.12610832032E+03  0.00000000000E+00 0.  1.
        -15    1    3    3    0    0 -0.26736665959E+02 -0.38001187527E+02 -0.22121868768E+03  0.22605265995E+03  0.17770000000E+01 0.  1.
         15    1    3    3    0    0  0.25098139382E+02  0.26494881484E+02 -0.16186063992E+03  0.16593348013E+03  0.17770000000E+01 0. -1.
</event>
<event>
 7    1  0.5285153E-006  0.5258479E+03  0.7546771E-02  0.9343761E-01
        -11   -1    0    0    0    0  0.00000000000E+00  0.00000000000E+00  0.50000000000E+03  0.50000000000E+03  0.00000000000E+00 0.  1.
         11   -1    0    0    0    0 -0.00000000000E+00 -0.00000000000E+00 -0.50000000000E+03  0.50000000000E+03  0.00000000000E+00 0. -1.
         23    2    1    2    0    0 -0.82923973571E+02 -0.42358188815E+02  0.29620083292E+03  0.31905710545E+03  0.73429568738E+02 0.  0.
        -11    1    1    2    0    0 -0.84812527488E+02 -0.16127227553E+03  0.97777964485E+02  0.20679081704E+03  0.00000000000E+00 0.  1.
         11    1    1    2    0    0  0.16773650106E+03  0.20363046434E+03 -0.39397879741E+03  0.47415207751E+03  0.00000000000E+00 0. -1.
        -15    1    3    3    0    0 -0.27751147687E+02 -0.23760252111E+02  0.22063387193E+03  0.22364511832E+03  0.17770000000E+01 0. -1.
         15    1    3    3    0    0 -0.55172825884E+02 -0.18597936703E+02  0.75566960992E+02  0.95411987131E+02  0.17770000000E+01 0.  1.
</event>
<event>
 7    1  0.5285153E-006  0.5312283E+03  0.7546771E-02  0.9332523E-01
        -11   -1    0    0    0    0  0.00000000000E+00  0.00000000000E+00  0.50000000000E+03  0.50000000000E+03  0.00000000000E+00 0.  1.
         11   -1    0    0    0    0 -0.00000000000E+00 -0.00000000000E+00 -0.50000000000E+03  0.50000000000E+03  0.00000000000E+00 0. -1.
         23    2    1    2    0    0 -0.61949133729E+02  0.14534318751E+02 -0.34021984158E+03  0.35776969745E+03  0.90557574043E+02 0.  0.
        -11    1    1    2    0    0 -0.52456472733E+02 -0.61886339759E+02  0.46169831547E+03  0.46877173026E+03  0.00000000000E+00 0.  1.
         11    1    1    2    0    0  0.11440560646E+03  0.47352021008E+02 -0.12147847389E+03  0.17345857229E+03  0.00000000000E+00 0. -1.
        -15    1    3    3    0    0 -0.37965294596E+02  0.52471616156E+02 -0.17714229230E+03  0.18861914947E+03  0.17770000000E+01 0. -1.
         15    1    3    3    0    0 -0.23983839134E+02 -0.37937297405E+02 -0.16307754929E+03  0.16915054799E+03  0.17770000000E+01 0.  1.
</event>
<event>
 7    1  0.5285153E-006  0.3400648E+03  0.7546771E-02  0.9852216E-01
        -11   -1    0    0    0    0  0.00000000000E+00  0.00000000000E+00  0.50000000000E+03  0.50000000000E+03  0.00000000000E+00 0.  1.
         11   -1    0    0    0    0 -0.00000000000E+00 -0.00000000000E+00 -0.50000000000E+03  0.50000000000E+03  0.00000000000E+00 0. -1.
         23    2    1    2    0    0 -0.51999849994E+01  0.21380981556E+03 -0.14291325088E+03  0.27285343796E+03  0.91011670986E+02 0.  0.
        -11    1    1    2    0    0 -0.42491049900E+02 -0.62940883116E+02  0.40985667776E+03  0.41683274871E+03  0.00000000000E+00 0.  1.
         11    1    1    2    0    0  0.47691034899E+02 -0.15086893245E+03 -0.26694342688E+03  0.31031381333E+03  0.00000000000E+00 0. -1.
        -15    1    3    3    0    0  0.67223115967E+01  0.21878722453E+03 -0.13048309551E+03  0.25483727168E+03  0.17770000000E+01 0.  1.
         15    1    3    3    0    0 -0.11922296596E+02 -0.49774089696E+01 -0.12430155369E+02  0.18016166286E+02  0.17770000000E+01 0. -1.
</event>
<event>
 7    1  0.5285153E-006  0.5293035E+03  0.7546771E-02  0.9336527E-01
        -11   -1    0    0    0    0  0.00000000000E+00  0.00000000000E+00  0.50000000000E+03  0.50000000000E+03  0.00000000000E+00 0.  1.
         11   -1    0    0    0    0 -0.00000000000E+00 -0.00000000000E+00 -0.50000000000E+03  0.50000000000E+03  0.00000000000E+00 0.  1.
         23    2    1    2    0    0  0.14763042055E+03 -0.10736421197E+02 -0.22049927709E+03  0.28073945424E+03  0.91020317284E+02 0.  0.
        -11    1    1    2    0    0 -0.90526025343E+02 -0.53704559033E+01  0.46187811237E+03  0.47069649855E+03  0.00000000000E+00 0.  1.
         11    1    1    2    0    0 -0.57104395208E+02  0.16106877100E+02 -0.24137883528E+03  0.24856404721E+03  0.00000000000E+00 0.  1.
        -15    1    3    3    0    0  0.41042841363E+02 -0.39000761256E+02 -0.40477609647E+02  0.69621611713E+02  0.17770000000E+01 0. -1.
         15    1    3    3    0    0  0.10658757919E+03  0.28264340059E+02 -0.18002166744E+03  0.21111784253E+03  0.17770000000E+01 0.  1.
</event>
<event>
 7    1  0.7341003E-006  0.4727969E+03  0.7546771E-02  0.9462824E-01
        -11   -1    0    0    0    0  0.00000000000E+00  0.00000000000E+00  0.50000000000E+03  0.50000000000E+03  0.00000000000E+00 0.  1.
         11   -1    0    0    0    0 -0.00000000000E+00 -0.00000000000E+00 -0.50000000000E+03  0.50000000000E+03  0.00000000000E+00 0.  1.
         23    2    1    2    0    0 -0.15835983394E+03  0.28742046988E+02  0.41463397506E+03  0.44936656226E+03  0.64070521549E+02 0.  0.
        -11    1    1    2    0    0  0.96862791863E+01 -0.83234849921E+01  0.55592607468E+02  0.57040708375E+02  0.00000000000E+00 0.  1.
         11    1    1    2    0    0  0.14867355476E+03 -0.20418561996E+02 -0.47022658253E+03  0.49359272936E+03  0.00000000000E+00 0.  1.
        -15    1    3    3    0    0 -0.15437692903E+03  0.12590663365E+02  0.35276026497E+03  0.38527097385E+03  0.17770000000E+01 0.  1.
         15    1    3    3    0    0 -0.39829049179E+01  0.16151383623E+02  0.61873710092E+02  0.64095588413E+02  0.17770000000E+01 0. -1.
</event>
<event>
 7    1  0.5285153E-006  0.5382850E+03  0.7546771E-02  0.9317997E-01
        -11   -1    0    0    0    0  0.00000000000E+00  0.00000000000E+00  0.50000000000E+03  0.50000000000E+03  0.00000000000E+00 0.  1.
         11   -1    0    0    0    0 -0.00000000000E+00 -0.00000000000E+00 -0.50000000000E+03  0.50000000000E+03  0.00000000000E+00 0.  1.
         23    2    1    2    0    0 -0.93137764597E+02 -0.33226886833E+02 -0.18260075586E+03  0.22800478114E+03  0.94151340827E+02 0.  0.
        -11    1    1    2    0    0 -0.40990894572E+02  0.16596561667E+03  0.42890083615E+03  0.46171502748E+03  0.00000000000E+00 0.  1.
         11    1    1    2    0    0  0.13412865917E+03 -0.13273872984E+03 -0.24630008029E+03  0.31028019138E+03  0.00000000000E+00 0.  1.
        -15    1    3    3    0    0 -0.10307612887E+03 -0.49546566829E+02 -0.17052073012E+03  0.20532907188E+03  0.17770000000E+01 0.  1.
         15    1    3    3    0    0  0.99383642761E+01  0.16319679997E+02 -0.12080025735E+02  0.22675709260E+02  0.17770000000E+01 0. -1.
</event>
<event>
 7    1  0.5285153E-006  0.5367538E+03  0.7546771E-02  0.9321129E-01
        -11   -1    0    0    0    0  0.00000000000E+00  0.00000000000E+00  0.50000000000E+03  0.50000000000E+03  0.00000000000E+00 0.  1.
         11   -1    0    0    0    0 -0.00000000000E+00 -0.00000000000E+00 -0.50000000000E+03  0.50000000000E+03  0.00000000000E+00 0. -1.
         23    2    1    2    0    0 -0.41825564563E+02 -0.53691415210E+02 -0.41209835378E+02  0.12135308854E+03  0.91630647969E+02 0.  0.
        -11    1    1    2    0    0 -0.13238150022E+03  0.30871967370E+03  0.31900519596E+03  0.46324616952E+03  0.00000000000E+00 0.  1.
         11    1    1    2    0    0  0.17420706478E+03 -0.25502825849E+03 -0.27779536058E+03  0.41540074194E+03  0.00000000000E+00 0. -1.
        -15    1    3    3    0    0  0.80347058070E+01  0.19112935234E+02  0.54613524240E+01  0.21513830202E+02  0.17770000000E+01 0.  1.
         15    1    3    3    0    0 -0.49860270370E+02 -0.72804350444E+02 -0.46671187802E+02  0.99839258335E+02  0.17770000000E+01 0. -1.
</event>
<event>
 7    1  0.5285153E-006  0.5274289E+03  0.7546771E-02  0.9340444E-01
        -11   -1    0    0    0    0  0.00000000000E+00  0.00000000000E+00  0.50000000000E+03  0.50000000000E+03  0.00000000000E+00 0.  1.
         11   -1    0    0    0    0 -0.00000000000E+00 -0.00000000000E+00 -0.50000000000E+03  0.50000000000E+03  0.00000000000E+00 0.  1.
         23    2    1    2    0    0  0.16583588793E+02  0.44945783496E+02 -0.28553450461E+03  0.30350478396E+03  0.91049775920E+02 0.  0.
        -11    1    1    2    0    0 -0.51869484931E+02  0.89471917883E+02  0.46111580462E+03  0.47257110875E+03  0.00000000000E+00 0.  1.
         11    1    1    2    0    0  0.35285896137E+02 -0.13441770138E+03 -0.17558130001E+03  0.22392410729E+03  0.00000000000E+00 0.  1.
        -15    1    3    3    0    0  0.36547724783E+02  0.64940971994E+02 -0.20346340144E+03  0.21668774650E+03  0.17770000000E+01 0.  1.
         15    1    3    3    0    0 -0.19964135990E+02 -0.19995188498E+02 -0.82071103169E+02  0.86817037460E+02  0.17770000000E+01 0. -1.
</event>
<event>
 7    1  0.5285153E-006  0.4226499E+03  0.7546771E-02  0.9591747E-01
        -11   -1    0    0    0    0  0.00000000000E+00  0.00000000000E+00  0.50000000000E+03  0.50000000000E+03  0.00000000000E+00 0.  1.
         11   -1    0    0    0    0 -0.00000000000E+00 -0.00000000000E+00 -0.50000000000E+03  0.50000000000E+03  0.00000000000E+00 0. -1.
         23    2    1    2    0    0  0.23756603618E+03  0.54241502657E+02  0.29197599319E+03  0.39108440023E+03  0.91199042472E+02 0.  0.
        -11    1    1    2    0    0 -0.71927621032E+02  0.56828757800E+02  0.12011821102E+03  0.15110087690E+03  0.00000000000E+00 0.  1.
         11    1    1    2    0    0 -0.16563841515E+03 -0.11107026046E+03 -0.41209420421E+03  0.45781472287E+03  0.00000000000E+00 0. -1.
        -15    1    3    3    0    0  0.24937596453E+02 -0.22239749828E+02  0.48287342968E+02  0.58747897061E+02  0.17770000000E+01 0.  1.
         15    1    3    3    0    0  0.21262843973E+03  0.76481252486E+02  0.24368865022E+03  0.33233650317E+03  0.17770000000E+01 0. -1.
</event>
<event>
 7    1  0.5285153E-006  0.3615219E+03  0.7546771E-02  0.9777465E-01
        -11   -1    0    0    0    0  0.00000000000E+00  0.00000000000E+00  0.50000000000E+03  0.50000000000E+03  0.00000000000E+00 0. -1.
         11   -1    0    0    0    0 -0.00000000000E+00 -0.00000000000E+00 -0.50000000000E+03  0.50000000000E+03  0.00000000000E+00 0. -1.
         23    2    1    2    0    0 -0.20064495102E+02  0.12525921967E+03 -0.18603640967E+03  0.24270595035E+03  0.90576909501E+02 0.  0.
        -11    1    1    2    0    0 -0.41970904353E+02 -0.42496198370E+03  0.12783625327E+03  0.44575368989E+03  0.00000000000E+00 0. -1.
         11    1    1    2    0    0  0.62035399455E+02  0.29970276403E+03  0.58200156408E+02  0.31154035976E+03  0.00000000000E+00 0. -1.
        -15    1    3    3    0    0 -0.44724904504E+02  0.11686168643E+03 -0.12771008048E+03  0.17880154704E+03  0.17770000000E+01 0. -1.
         15    1    3    3    0    0  0.24660409402E+02  0.83975332413E+01 -0.58326329195E+02  0.63904403313E+02  0.17770000000E+01 0.  1.
</event>
<event>
 7    1  0.5285153E-006  0.5234285E+03  0.7546771E-02  0.9348861E-01
        -11   -1    0    0    0    0  0.00000000000E+00  0.00000000000E+00  0.50000000000E+03  0.50000000000E+03  0.00000000000E+00 0.  1.
         11   -1    0    0    0    0 -0.00000000000E+00 -0.00000000000E+00 -0.50000000000E+03  0.50000000000E+03  0.00000000000E+00 0. -1.
         23    2    1    2    0    0  0.10644392897E+02 -0.25646000220E+02 -0.19678384917E+03  0.22320167694E+03  0.10160750399E+03 0.  0.
        -11    1    1    2    0    0  0.12349655195E+03  0.14823436462E+03  0.43577011005E+03  0.47657152036E+03  0.00000000000E+00 0.  1.
         11    1    1    2    0    0 -0.13414094485E+03 -0.12258836440E+03 -0.23898626088E+03  0.30022680270E+03  0.00000000000E+00 0. -1.
        -15    1    3    3    0    0  0.36523279936E+02 -0.36148953083E+02 -0.18638375879E+03  0.19334621811E+03  0.17770000000E+01 0.  1.
         15    1    3    3    0    0 -0.25878887040E+02  0.10502952862E+02 -0.10400090384E+02  0.29855458835E+02  0.17770000000E+01 0. -1.
</event>
<event>
 7    1  0.5285153E-006  0.5332930E+03  0.7546771E-02  0.9328248E-01
        -11   -1    0    0    0    0  0.00000000000E+00  0.00000000000E+00  0.50000000000E+03  0.50000000000E+03  0.00000000000E+00 0.  1.
         11   -1    0    0    0    0 -0.00000000000E+00 -0.00000000000E+00 -0.50000000000E+03  0.50000000000E+03  0.00000000000E+00 0. -1.
         23    2    1    2    0    0  0.80333011143E+02  0.22555452475E+02 -0.36291588957E+03  0.38887995314E+03  0.11206040308E+03 0.  0.
        -11    1    1    2    0    0 -0.16214367029E+03 -0.12774067265E+03  0.41857753926E+03  0.46670698049E+03  0.00000000000E+00 0.  1.
         11    1    1    2    0    0  0.81810659144E+02  0.10518522017E+03 -0.55661649691E+02  0.14441306637E+03  0.00000000000E+00 0. -1.
        -15    1    3    3    0    0 -0.21002102844E+02  0.31490879768E+02 -0.10425772438E+03  0.11093058484E+03  0.17770000000E+01 0.  1.
         15    1    3    3    0    0  0.10133511399E+03 -0.89354272934E+01 -0.25865816519E+03  0.27794936830E+03  0.17770000000E+01 0. -1.
</event>
<event>
 7    1  0.5285153E-006  0.4889562E+03  0.7546771E-02  0.9424866E-01
        -11   -1    0    0    0    0  0.00000000000E+00  0.00000000000E+00  0.50000000000E+03  0.50000000000E+03  0.00000000000E+00 0. -1.
         11   -1    0    0    0    0 -0.00000000000E+00 -0.00000000000E+00 -0.50000000000E+03  0.50000000000E+03  0.00000000000E+00 0. -1.
         23    2    1    2    0    0  0.84702895748E+02 -0.35883484179E-01 -0.46670938959E+03  0.48234864142E+03  0.87566978414E+02 0.  0.
        -11    1    1    2    0    0 -0.10984212594E+03  0.12881990538E+02  0.47541425184E+03  0.48810854240E+03  0.00000000000E+00 0. -1.
         11    1    1    2    0    0  0.25139230190E+02 -0.12846107054E+02 -0.87048622481E+01  0.29542816179E+02  0.00000000000E+00 0. -1.
        -15    1    3    3    0    0  0.74487427047E+02 -0.35460513772E+02 -0.36318008297E+03  0.37243624316E+03  0.17770000000E+01 0. -1.
         15    1    3    3    0    0  0.10215468700E+02  0.35424630288E+02 -0.10352930662E+03  0.10991239826E+03  0.17770000000E+01 0.  1.
</event>
<event>
 7    1  0.5285153E-006  0.5207513E+03  0.7546771E-02  0.9354538E-01
        -11   -1    0    0    0    0  0.00000000000E+00  0.00000000000E+00  0.50000000000E+03  0.50000000000E+03  0.00000000000E+00 0.  1.
         11   -1    0    0    0    0 -0.00000000000E+00 -0.00000000000E+00 -0.50000000000E+03  0.50000000000E+03  0.00000000000E+00 0. -1.
         23    2    1    2    0    0 -0.16658393309E+03 -0.12238158861E+03 -0.28739857263E+02  0.22877568970E+03  0.93727673649E+02 0.  0.
        -11    1    1    2    0    0  0.26197515310E+03  0.38419924666E+03  0.11592799234E+03  0.47924872601E+03  0.00000000000E+00 0.  1.
         11    1    1    2    0    0 -0.95391220010E+02 -0.26181765805E+03 -0.87188135076E+02  0.29197558429E+03  0.00000000000E+00 0. -1.
        -15    1    3    3    0    0 -0.28243986212E+02 -0.47718936019E+02  0.27353638812E+02  0.61856276134E+02  0.17770000000E+01 0.  1.
         15    1    3    3    0    0 -0.13833994688E+03 -0.74662652593E+02 -0.56093496075E+02  0.16691941357E+03  0.17770000000E+01 0. -1.
</event>
<event>
 7    1  0.5285153E-006  0.5302800E+03  0.7546771E-02  0.9334494E-01
        -11   -1    0    0    0    0  0.00000000000E+00  0.00000000000E+00  0.50000000000E+03  0.50000000000E+03  0.00000000000E+00 0.  1.
         11   -1    0    0    0    0 -0.00000000000E+00 -0.00000000000E+00 -0.50000000000E+03  0.50000000000E+03  0.00000000000E+00 0. -1.
         23    2    1    2    0    0  0.76034092048E+01 -0.57837078975E+02  0.36254701957E+02  0.11628515289E+03  0.93834395783E+02 0.  0.
        -11    1    1    2    0    0  0.27415675044E+03 -0.20054807986E+03  0.23666498692E+03  0.41399489390E+03  0.00000000000E+00 0.  1.
         11    1    1    2    0    0 -0.28176015964E+03  0.25838515883E+03 -0.27291968888E+03  0.46971995321E+03  0.00000000000E+00 0. -1.
        -15    1    3    3    0    0 -0.25064554582E+02 -0.17016300210E+02 -0.22379181919E+02  0.37706390461E+02  0.17770000000E+01 0. -1.
         15    1    3    3    0    0  0.32667963787E+02 -0.40820778765E+02  0.58633883875E+02  0.78578762425E+02  0.17770000000E+01 0.  1.
</event>
<event>
 7    1  0.5285153E-006  0.4852453E+03  0.7546771E-02  0.9433443E-01
        -11   -1    0    0    0    0  0.00000000000E+00  0.00000000000E+00  0.50000000000E+03  0.50000000000E+03  0.00000000000E+00 0.  1.
         11   -1    0    0    0    0 -0.00000000000E+00 -0.00000000000E+00 -0.50000000000E+03  0.50000000000E+03  0.00000000000E+00 0.  1.
         23    2    1    2    0    0  0.22040619434E+02  0.10431992413E+03 -0.46399602518E+03  0.48470126789E+03  0.90964675728E+02 0.  0.
        -11    1    1    2    0    0  0.71675268161E+01 -0.12740189448E+03  0.46056314785E+03  0.47791320270E+03  0.00000000000E+00 0.  1.
         11    1    1    2    0    0 -0.29208146250E+02  0.23081970352E+02  0.34328773323E+01  0.37385529413E+02  0.00000000000E+00 0.  1.
        -15    1    3    3    0    0 -0.31105524891E+02  0.60679669827E+02 -0.28216835924E+03  0.29029591229E+03  0.17770000000E+01 0.  1.
         15    1    3    3    0    0  0.53146144325E+02  0.43640254305E+02 -0.18182766594E+03  0.19440535560E+03  0.17770000000E+01 0. -1.
</event>
<event>
 7    1  0.5285153E-006  0.5251870E+03  0.7546771E-02  0.9345151E-01
        -11   -1    0    0    0    0  0.00000000000E+00  0.00000000000E+00  0.50000000000E+03  0.50000000000E+03  0.00000000000E+00 0. -1.
         11   -1    0    0    0    0 -0.00000000000E+00 -0.00000000000E+00 -0.50000000000E+03  0.50000000000E+03  0.00000000000E+00 0.  1.
         23    2    1    2    0    0  0.20391214971E+03  0.25332259092E+02  0.34825539964E+03  0.41509864658E+03  0.93825235755E+02 0.  0.
        -11    1    1    2    0    0  0.37345899612E+01  0.90359553110E+02  0.62774568317E+02  0.11008833920E+03  0.00000000000E+00 0. -1.
         11    1    1    2    0    0 -0.20764673967E+03 -0.11569181220E+03 -0.41102996796E+03  0.47481301422E+03  0.00000000000E+00 0.  1.
        -15    1    3    3    0    0  0.12791475311E+03  0.55934855023E+02  0.25679137206E+03  0.29229413022E+03  0.17770000000E+01 0. -1.
         15    1    3    3    0    0  0.75997396604E+02 -0.30602595930E+02  0.91464027589E+02  0.12280451637E+03  0.17770000000E+01 0.  1.
</event>
<event>
 7    1  0.5285153E-006  0.4743175E+03  0.7546771E-02  0.9459184E-01
        -11   -1    0    0    0    0  0.00000000000E+00  0.00000000000E+00  0.50000000000E+03  0.50000000000E+03  0.00000000000E+00 0.  1.
         11   -1    0    0    0    0 -0.00000000000E+00 -0.00000000000E+00 -0.50000000000E+03  0.50000000000E+03  0.00000000000E+00 0. -1.
         23    2    1    2    0    0  0.41449976905E+02 -0.91351207413E+02  0.42606665408E+03  0.44697980717E+03  0.90526297917E+02 0.  0.
        -11    1    1    2    0    0 -0.72470177257E+01 -0.10595139498E+02  0.56847551625E+02  0.58278815814E+02  0.00000000000E+00 0.  1.
         11    1    1    2    0    0 -0.34202959180E+02  0.10194634691E+03 -0.48291420570E+03  0.49474137702E+03  0.00000000000E+00 0. -1.
        -15    1    3    3    0    0  0.65255484375E+02 -0.81140258431E+02  0.28248873039E+03  0.30107318098E+03  0.17770000000E+01 0.  1.
         15    1    3    3    0    0 -0.23805507470E+02 -0.10210948982E+02  0.14357792369E+03  0.14590662618E+03  0.17770000000E+01 0. -1.
</event>
<event>
 7    1  0.5285153E-006  0.5133914E+03  0.7546771E-02  0.9370334E-01
        -11   -1    0    0    0    0  0.00000000000E+00  0.00000000000E+00  0.50000000000E+03  0.50000000000E+03  0.00000000000E+00 0.  1.
         11   -1    0    0    0    0 -0.00000000000E+00 -0.00000000000E+00 -0.50000000000E+03  0.50000000000E+03  0.00000000000E+00 0. -1.
         23    2    1    2    0    0  0.26284843557E+01  0.64509100819E+02 -0.28822790109E+03  0.30906316986E+03  0.90974650180E+02 0.  0.
        -11    1    1    2    0    0  0.85259825235E+02 -0.12501961132E+03  0.46248107308E+03  0.48660855312E+03  0.00000000000E+00 0.  1.
         11    1    1    2    0    0 -0.87888309591E+02  0.60510510497E+02 -0.17425317199E+03  0.20432827702E+03  0.00000000000E+00 0. -1.
        -15    1    3    3    0    0  0.47942634592E+01 -0.17660072601E+02 -0.14983762771E+02  0.23717799269E+02  0.17770000000E+01 0.  1.
         15    1    3    3    0    0 -0.21657791035E+01  0.82169173420E+02 -0.27324413832E+03  0.28534537059E+03  0.17770000000E+01 0. -1.
</event>
<event>
 7    1  0.5285153E-006  0.4281369E+03  0.7546771E-02  0.9576734E-01
        -11   -1    0    0    0    0  0.00000000000E+00  0.00000000000E+00  0.50000000000E+03  0.50000000000E+03  0.00000000000E+00 0. -1.
         11   -1    0    0    0    0 -0.00000000000E+00 -0.00000000000E+00 -0.50000000000E+03  0.50000000000E+03  0.00000000000E+00 0.  1.
         23    2    1    2    0    0  0.13120125593E+03  0.22813527886E+02 -0.44499979227E+03  0.47336319306E+03  0.91179333260E+02 0.  0.
        -11    1    1    2    0    0 -0.72181173056E+02  0.81414084263E+02  0.36917768365E+03  0.38487730118E+03  0.00000000000E+00 0. -1.
         11    1    1    2    0    0 -0.59020082869E+02 -0.10422761215E+03  0.75822108625E+02  0.14175950576E+03  0.00000000000E+00 0.  1.
        -15    1    3    3    0    0  0.85773728158E+02 -0.19085484570E+02 -0.34306915057E+03  0.35414825704E+03  0.17770000000E+01 0.  1.
         15    1    3    3    0    0  0.45427527768E+02  0.41899012456E+02 -0.10193064170E+03  0.11921493602E+03  0.17770000000E+01 0. -1.
</event>
<event>
 7    1  0.5285153E-006  0.5133561E+03  0.7546771E-02  0.9370411E-01
        -11   -1    0    0    0    0  0.00000000000E+00  0.00000000000E+00  0.50000000000E+03  0.50000000000E+03  0.00000000000E+00 0. -1.
         11   -1    0    0    0    0 -0.00000000000E+00 -0.00000000000E+00 -0.50000000000E+03  0.50000000000E+03  0.00000000000E+00 0. -1.
         23    2    1    2    0    0 -0.67273343176E+02 -0.13027649483E+02  0.23466655724E+03  0.26745658040E+03  0.10848597587E+03 0.  0.
        -11    1    1    2    0    0 -0.16051235194E+02 -0.44170185165E+02  0.24136676805E+03  0.24589950006E+03  0.00000000000E+00 0. -1.
         11    1    1    2    0    0  0.83324578369E+02  0.57197834648E+02 -0.47603332529E+03  0.48664391955E+03  0.00000000000E+00 0. -1.
        -15    1    3    3    0    0  0.10100588201E+02 -0.15336693798E+02 -0.18940076279E+01  0.18546726195E+02  0.17770000000E+01 0.  1.
         15    1    3    3    0    0 -0.77373931376E+02  0.23090443155E+01  0.23656056486E+03  0.24890985420E+03  0.17770000000E+01 0. -1.
</event>
<event>
 7    1  0.5285153E-006  0.5227477E+03  0.7546771E-02  0.9350301E-01
        -11   -1    0    0    0    0  0.00000000000E+00  0.00000000000E+00  0.50000000000E+03  0.50000000000E+03  0.00000000000E+00 0.  1.
         11   -1    0    0    0    0 -0.00000000000E+00 -0.00000000000E+00 -0.50000000000E+03  0.50000000000E+03  0.00000000000E+00 0.  1.
         23    2    1    2    0    0  0.44151773209E+02  0.25372268939E+02 -0.28151867036E+03  0.30025406786E+03  0.91140618785E+02 0.  0.
        -11    1    1    2    0    0  0.73300348215E+02 -0.47120369960E+02  0.46922969246E+03  0.47725231754E+03  0.00000000000E+00 0.  1.
         11    1    1    2    0    0 -0.11745212142E+03  0.21748101021E+02 -0.18771102209E+03  0.22249361461E+03  0.00000000000E+00 0.  1.
        -15    1    3    3    0    0  0.54538358599E+02  0.50224630383E+02 -0.16924490938E+03  0.18478079753E+03  0.17770000000E+01 0.  1.
         15    1    3    3    0    0 -0.10386585390E+02 -0.24852361445E+02 -0.11227376098E+03  0.11547327033E+03  0.17770000000E+01 0. -1.
</event>
<event>
 7    1  0.5285153E-006  0.5111322E+03  0.7546771E-02  0.9375239E-01
        -11   -1    0    0    0    0  0.00000000000E+00  0.00000000000E+00  0.50000000000E+03  0.50000000000E+03  0.00000000000E+00 0. -1.
         11   -1    0    0    0    0 -0.00000000000E+00 -0.00000000000E+00 -0.50000000000E+03  0.50000000000E+03  0.00000000000E+00 0.  1.
         23    2    1    2    0    0 -0.73069134730E+02 -0.10131727624E+03 -0.29445227947E+03  0.33115234311E+03  0.85763865019E+02 0.  0.
        -11    1    1    2    0    0  0.40379753795E+02  0.18247179559E+03  0.45173579367E+03  0.48886778170E+03  0.00000000000E+00 0. -1.
         11    1    1    2    0    0  0.32689380934E+02 -0.81154519348E+02 -0.15728351420E+03  0.17997987519E+03  0.00000000000E+00 0.  1.
        -15    1    3    3    0    0 -0.80645093106E+02 -0.11074475907E+03 -0.28291285887E+03  0.31434197325E+03  0.17770000000E+01 0.  1.
         15    1    3    3    0    0  0.75759583765E+01  0.94274828309E+01 -0.11539420604E+02  0.16810369857E+02  0.17770000000E+01 0. -1.
</event>
<event>
 7    1  0.5285153E-006  0.4370725E+03  0.7546771E-02  0.9552791E-01
        -11   -1    0    0    0    0  0.00000000000E+00  0.00000000000E+00  0.50000000000E+03  0.50000000000E+03  0.00000000000E+00 0. -1.
         11   -1    0    0    0    0 -0.00000000000E+00 -0.00000000000E+00 -0.50000000000E+03  0.50000000000E+03  0.00000000000E+00 0.  1.
         23    2    1    2    0    0 -0.29579833495E+02  0.53138553162E+02 -0.58532679844E+02  0.12178911290E+03  0.87794310918E+02 0.  0.
        -11    1    1    2    0    0  0.14489548098E+03  0.19474423378E+03  0.38329749914E+03  0.45369261603E+03  0.00000000000E+00 0. -1.
         11    1    1    2    0    0 -0.11531564748E+03 -0.24788278694E+03 -0.32476481930E+03  0.42451827106E+03  0.00000000000E+00 0.  1.
        -15    1    3    3    0    0  0.24572652842E+02  0.22116965131E+01 -0.36761683717E+02  0.44308983151E+02  0.17770000000E+01 0.  1.
         15    1    3    3    0    0 -0.54152486337E+02  0.50926856649E+02 -0.21770996127E+02  0.77480129749E+02  0.17770000000E+01 0. -1.
</event>
<event>
 7    1  0.5285153E-006  0.5132774E+03  0.7546771E-02  0.9370581E-01
        -11   -1    0    0    0    0  0.00000000000E+00  0.00000000000E+00  0.50000000000E+03  0.50000000000E+03  0.00000000000E+00 0.  1.
         11   -1    0    0    0    0 -0.00000000000E+00 -0.00000000000E+00 -0.50000000000E+03  0.50000000000E+03  0.00000000000E+00 0.  1.
         23    2    1    2    0    0  0.57993934565E+02  0.13041427605E+02 -0.14642477321E+03  0.18163790106E+03  0.89547404277E+02 0.  0.
        -11    1    1    2    0    0 -0.15541958461E+03  0.33137482725E+02  0.46004953479E+03  0.48672262583E+03  0.00000000000E+00 0.  1.
         11    1    1    2    0    0  0.97425650046E+02 -0.46178910330E+02 -0.31362476158E+03  0.33163947310E+03  0.00000000000E+00 0.  1.
        -15    1    3    3    0    0  0.34333982010E+02  0.45524702286E+02 -0.45430337833E+02  0.72927321105E+02  0.17770000000E+01 0.  1.
         15    1    3    3    0    0  0.23659952555E+02 -0.32483274681E+02 -0.10099443538E+03  0.10871057996E+03  0.17770000000E+01 0. -1.
</event>
<event>
 7    1  0.5285153E-006  0.4142835E+03  0.7546771E-02  0.9615114E-01
        -11   -1    0    0    0    0  0.00000000000E+00  0.00000000000E+00  0.50000000000E+03  0.50000000000E+03  0.00000000000E+00 0. -1.
         11   -1    0    0    0    0 -0.00000000000E+00 -0.00000000000E+00 -0.50000000000E+03  0.50000000000E+03  0.00000000000E+00 0.  1.
         23    2    1    2    0    0  0.11522553839E+03 -0.53699291135E+02  0.20039478227E+02  0.16149803778E+03  0.97567909445E+02 0.  0.
        -11    1    1    2    0    0  0.82614106786E+02  0.15591503064E+01  0.38016044675E+03  0.38903661379E+03  0.00000000000E+00 0. -1.
         11    1    1    2    0    0 -0.19783964517E+03  0.52140140828E+02 -0.40019992498E+03  0.44946534843E+03  0.00000000000E+00 0.  1.
        -15    1    3    3    0    0  0.13152820049E+03 -0.56347543572E+02  0.21958631260E+02  0.14477586956E+03  0.17770000000E+01 0.  1.
         15    1    3    3    0    0 -0.16302662102E+02  0.26482524373E+01 -0.19191530337E+01  0.16722168219E+02  0.17770000000E+01 0. -1.
</event>
<event>
 7    1  0.5285153E-006  0.3418525E+03  0.7546771E-02  0.9845765E-01
        -11   -1    0    0    0    0  0.00000000000E+00  0.00000000000E+00  0.50000000000E+03  0.50000000000E+03  0.00000000000E+00 0. -1.
         11   -1    0    0    0    0 -0.00000000000E+00 -0.00000000000E+00 -0.50000000000E+03  0.50000000000E+03  0.00000000000E+00 0.  1.
         23    2    1    2    0    0 -0.30453706374E+03 -0.15582704535E+03  0.15085989343E+02  0.35644910193E+03  0.99012544341E+02 0.  0.
        -11    1    1    2    0    0  0.16055672540E+03  0.26927150609E+03  0.19150040608E+03  0.36736631798E+03  0.00000000000E+00 0. -1.
         11    1    1    2    0    0  0.14398033835E+03 -0.11344446074E+03 -0.20658639543E+03  0.27618458009E+03  0.00000000000E+00 0.  1.
        -15    1    3    3    0    0 -0.30202854106E+03 -0.16602737223E+03  0.10412946203E+02  0.34481576983E+03  0.17770000000E+01 0. -1.
         15    1    3    3    0    0 -0.25085226786E+01  0.10200326881E+02  0.46730431409E+01  0.11633332098E+02  0.17770000000E+01 0.  1.
</event>
<event>
 7    1  0.5285153E-006  0.5131162E+03  0.7546771E-02  0.9370930E-01
        -11   -1    0    0    0    0  0.00000000000E+00  0.00000000000E+00  0.50000000000E+03  0.50000000000E+03  0.00000000000E+00 0. -1.
         11   -1    0    0    0    0 -0.00000000000E+00 -0.00000000000E+00 -0.50000000000E+03  0.50000000000E+03  0.00000000000E+00 0.  1.
         23    2    1    2    0    0 -0.50567789292E+01  0.87022218883E+02  0.39563210669E+03  0.41525785734E+03  0.91191483393E+02 0.  0.
        -11    1    1    2    0    0 -0.47140818409E+02 -0.18949916769E+02  0.83635488635E+02  0.97858321389E+02  0.00000000000E+00 0. -1.
         11    1    1    2    0    0  0.52197597338E+02 -0.68072302113E+02 -0.47926759533E+03  0.48688382127E+03  0.00000000000E+00 0.  1.
        -15    1    3    3    0    0 -0.47637925674E+02  0.55220585971E+02  0.22471051704E+03  0.23625549575E+03  0.17770000000E+01 0.  1.
         15    1    3    3    0    0  0.42581146745E+02  0.31801632912E+02  0.17092158966E+03  0.17900236159E+03  0.17770000000E+01 0. -1.
</event>
<event>
 7    1  0.5285153E-006  0.5307549E+03  0.7546771E-02  0.9333506E-01
        -11   -1    0    0    0    0  0.00000000000E+00  0.00000000000E+00  0.50000000000E+03  0.50000000000E+03  0.00000000000E+00 0.  1.
         11   -1    0    0    0    0 -0.00000000000E+00 -0.00000000000E+00 -0.50000000000E+03  0.50000000000E+03  0.00000000000E+00 0. -1.
         23    2    1    2    0    0  0.10319731948E+03 -0.43837660480E+02  0.71207459964E+02  0.15996469628E+03  0.89144682836E+02 0.  0.
        -11    1    1    2    0    0  0.60982317207E+02 -0.44957791051E+01  0.36571344916E+03  0.37079021284E+03  0.00000000000E+00 0.  1.
         11    1    1    2    0    0 -0.16417963669E+03  0.48333439585E+02 -0.43692090912E+03  0.46924509088E+03  0.00000000000E+00 0. -1.
        -15    1    3    3    0    0  0.73788868794E+02 -0.22828255444E+02  0.90470938466E+02  0.11897089913E+03  0.17770000000E+01 0.  1.
         15    1    3    3    0    0  0.29408450684E+02 -0.21009405036E+02 -0.19263478502E+02  0.40993797148E+02  0.17770000000E+01 0. -1.
</event>
<event>
 7    1  0.5285153E-006  0.4520773E+03  0.7546771E-02  0.9513927E-01
        -11   -1    0    0    0    0  0.00000000000E+00  0.00000000000E+00  0.50000000000E+03  0.50000000000E+03  0.00000000000E+00 0.  1.
         11   -1    0    0    0    0 -0.00000000000E+00 -0.00000000000E+00 -0.50000000000E+03  0.50000000000E+03  0.00000000000E+00 0.  1.
         23    2    1    2    0    0  0.22237948251E+01  0.26025295579E+02  0.90551325131E+01  0.95422940233E+02  0.91330612746E+02 0.  0.
        -11    1    1    2    0    0 -0.44382980264E+03 -0.83742490045E+02 -0.62714581612E+02  0.45599431695E+03  0.00000000000E+00 0.  1.
         11    1    1    2    0    0  0.44160600781E+03  0.57717194466E+02  0.53659449099E+02  0.44858274281E+03  0.00000000000E+00 0.  1.
        -15    1    3    3    0    0 -0.21314153500E+02  0.44043316966E+00  0.42227884418E+02  0.47337501753E+02  0.17770000000E+01 0.  1.
         15    1    3    3    0    0  0.23537948325E+02  0.25584862409E+02 -0.33172751905E+02  0.48085438480E+02  0.17770000000E+01 0. -1.
</event>
<event>
 7    1  0.5285153E-006  0.4504900E+03  0.7546771E-02  0.9517961E-01
        -11   -1    0    0    0    0  0.00000000000E+00  0.00000000000E+00  0.50000000000E+03  0.50000000000E+03  0.00000000000E+00 0.  1.
         11   -1    0    0    0    0 -0.00000000000E+00 -0.00000000000E+00 -0.50000000000E+03  0.50000000000E+03  0.00000000000E+00 0.  1.
         23    2    1    2    0    0  0.12972518782E+02 -0.29153526706E+02  0.28245345902E+02  0.98012667170E+02  0.88263633495E+02 0.  0.
        -11    1    1    2    0    0 -0.10365145254E+03  0.72442781452E+02  0.42206502909E+03  0.44060239330E+03  0.00000000000E+00 0.  1.
         11    1    1    2    0    0  0.90678933755E+02 -0.43289254746E+02 -0.45031037499E+03  0.46138493953E+03  0.00000000000E+00 0.  1.
        -15    1    3    3    0    0  0.10760226509E+02 -0.44521613635E+02 -0.17963924195E+02  0.49232274543E+02  0.17770000000E+01 0. -1.
         15    1    3    3    0    0  0.22122922729E+01  0.15368086929E+02  0.46209270098E+02  0.48780392628E+02  0.17770000000E+01 0.  1.
</event>
<event>
 7    1  0.5285153E-006  0.4579847E+03  0.7546771E-02  0.9499064E-01
        -11   -1    0    0    0    0  0.00000000000E+00  0.00000000000E+00  0.50000000000E+03  0.50000000000E+03  0.00000000000E+00 0. -1.
         11   -1    0    0    0    0 -0.00000000000E+00 -0.00000000000E+00 -0.50000000000E+03  0.50000000000E+03  0.00000000000E+00 0.  1.
         23    2    1    2    0    0  0.50896690775E+02  0.39208202595E+02 -0.41576973946E+03  0.43075541081E+03  0.92509412548E+02 0.  0.
        -11    1    1    2    0    0 -0.12338370085E+03 -0.19317509839E+02  0.46361589146E+03  0.48014206089E+03  0.00000000000E+00 0. -1.
         11    1    1    2    0    0  0.72487010077E+02 -0.19890692756E+02 -0.47846152002E+02  0.89102528301E+02  0.00000000000E+00 0.  1.
        -15    1    3    3    0    0  0.70423833987E+02  0.25903858971E+02 -0.38317948607E+03  0.39046152509E+03  0.17770000000E+01 0.  1.
         15    1    3    3    0    0 -0.19527143212E+02  0.13304343624E+02 -0.32590253385E+02  0.40293885714E+02  0.17770000000E+01 0. -1.
</event>
<event>
 7    1  0.5285153E-006  0.5163092E+03  0.7546771E-02  0.9364038E-01
        -11   -1    0    0    0    0  0.00000000000E+00  0.00000000000E+00  0.50000000000E+03  0.50000000000E+03  0.00000000000E+00 0.  1.
         11   -1    0    0    0    0 -0.00000000000E+00 -0.00000000000E+00 -0.50000000000E+03  0.50000000000E+03  0.00000000000E+00 0. -1.
         23    2    1    2    0    0 -0.18669943126E+02  0.41017916846E+02 -0.25302892869E+03  0.27246472733E+03  0.90456357472E+02 0.  0.
        -11    1    1    2    0    0  0.13462599526E+03 -0.53207566473E+01  0.46454738549E+03  0.48369075081E+03  0.00000000000E+00 0.  1.
         11    1    1    2    0    0 -0.11595605213E+03 -0.35697160199E+02 -0.21151845680E+03  0.24384452186E+03  0.00000000000E+00 0. -1.
        -15    1    3    3    0    0 -0.19176583362E+02 -0.24639772952E+02 -0.12132069252E+03  0.12528658318E+03  0.17770000000E+01 0. -1.
         15    1    3    3    0    0  0.50664023534E+00  0.65657689798E+02 -0.13170823617E+03  0.14717814416E+03  0.17770000000E+01 0.  1.
</event>
<event>
 6    1  0.5285153E-006  0.3270650E+03  0.7546771E-02  0.9900445E-01
        -11   -1    0    0    0    0  0.00000000000E+00  0.00000000000E+00  0.50000000000E+03  0.50000000000E+03  0.00000000000E+00 0. -1.
         11   -1    0    0    0    0 -0.00000000000E+00 -0.00000000000E+00 -0.50000000000E+03  0.50000000000E+03  0.00000000000E+00 0.  1.
        -11    1    1    2    0    0  0.50195635187E+02  0.81650009108E+02  0.63465934522E+02  0.11495325408E+03  0.00000000000E+00 0. -1.
         11    1    1    2    0    0 -0.43648986714E+02 -0.20128383930E+03 -0.38874656222E+03  0.43993670868E+03  0.00000000000E+00 0.  1.
        -15    1    1    2    0    0  0.11144323550E+01 -0.83570262743E+02  0.16932534816E+03  0.18883713097E+03  0.17770000000E+01 0. -1.
         15    1    1    2    0    0 -0.76610808277E+01  0.20320409293E+03  0.15595527954E+03  0.25627290627E+03  0.17770000000E+01 0.  1.
</event>
<event>
 7    1  0.5285153E-006  0.5381547E+03  0.7546771E-02  0.9318263E-01
        -11   -1    0    0    0    0  0.00000000000E+00  0.00000000000E+00  0.50000000000E+03  0.50000000000E+03  0.00000000000E+00 0. -1.
         11   -1    0    0    0    0 -0.00000000000E+00 -0.00000000000E+00 -0.50000000000E+03  0.50000000000E+03  0.00000000000E+00 0.  1.
         23    2    1    2    0    0 -0.35238662170E+02  0.87768510215E+02 -0.26262751580E+02  0.13371290405E+03  0.90798314371E+02 0.  0.
        -11    1    1    2    0    0  0.37328413211E+02  0.31751415081E+03  0.24771860318E+03  0.40444177920E+03  0.00000000000E+00 0. -1.
         11    1    1    2    0    0 -0.20897510412E+01 -0.40528266103E+03 -0.22145585160E+03  0.46184531675E+03  0.00000000000E+00 0.  1.
        -15    1    3    3    0    0 -0.22812159681E+02  0.14058870898E+02  0.29906533943E+02  0.40194588960E+02  0.17770000000E+01 0.  1.
         15    1    3    3    0    0 -0.12426502489E+02  0.73709639317E+02 -0.56169285523E+02  0.93518315092E+02  0.17770000000E+01 0. -1.
</event>
<event>
 7    1  0.5285153E-006  0.4772226E+03  0.7546771E-02  0.9452270E-01
        -11   -1    0    0    0    0  0.00000000000E+00  0.00000000000E+00  0.50000000000E+03  0.50000000000E+03  0.00000000000E+00 0. -1.
         11   -1    0    0    0    0 -0.00000000000E+00 -0.00000000000E+00 -0.50000000000E+03  0.50000000000E+03  0.00000000000E+00 0. -1.
         23    2    1    2    0    0  0.39756069225E+02  0.96763747786E+02 -0.43310557979E+03  0.45476627534E+03  0.91039299329E+02 0.  0.
        -11    1    1    2    0    0 -0.59450773471E+02 -0.86543370148E+02  0.48106520221E+03  0.49238996554E+03  0.00000000000E+00 0. -1.
         11    1    1    2    0    0  0.19694704247E+02 -0.10220377638E+02 -0.47959622427E+02  0.52843759118E+02  0.00000000000E+00 0. -1.
        -15    1    3    3    0    0 -0.59687683841E+01 -0.13923765112E+02 -0.23565188201E+02  0.28070861313E+02  0.17770000000E+01 0.  1.
         15    1    3    3    0    0  0.45724837609E+02  0.11068751290E+03 -0.40954039159E+03  0.42669541403E+03  0.17770000000E+01 0. -1.
</event>
<event>
 7    1  0.5285153E-006  0.5173489E+03  0.7546771E-02  0.9361806E-01
        -11   -1    0    0    0    0  0.00000000000E+00  0.00000000000E+00  0.50000000000E+03  0.50000000000E+03  0.00000000000E+00 0.  1.
         11   -1    0    0    0    0 -0.00000000000E+00 -0.00000000000E+00 -0.50000000000E+03  0.50000000000E+03  0.00000000000E+00 0. -1.
         23    2    1    2    0    0  0.72143223764E+02  0.19359676493E+02 -0.23416749563E+03  0.26189024996E+03  0.90402683626E+02 0.  0.
        -11    1    1    2    0    0 -0.67038842781E+02 -0.14927743291E+03  0.45406397425E+03  0.48265106561E+03  0.00000000000E+00 0.  1.
         11    1    1    2    0    0 -0.51043809835E+01  0.12991775642E+03 -0.21989647863E+03  0.25545868443E+03  0.00000000000E+00 0. -1.
        -15    1    3    3    0    0  0.31889985543E+02  0.12973932404E+02 -0.12766058967E+02  0.36761720451E+02  0.17770000000E+01 0.  1.
         15    1    3    3    0    0  0.40253238222E+02  0.63857440890E+01 -0.22140143666E+03  0.22512852951E+03  0.17770000000E+01 0. -1.
</event>
<event>
 7    1  0.5285153E-006  0.4031011E+03  0.7546771E-02  0.9647282E-01
        -11   -1    0    0    0    0  0.00000000000E+00  0.00000000000E+00  0.50000000000E+03  0.50000000000E+03  0.00000000000E+00 0. -1.
         11   -1    0    0    0    0 -0.00000000000E+00 -0.00000000000E+00 -0.50000000000E+03  0.50000000000E+03  0.00000000000E+00 0. -1.
         23    2    1    2    0    0  0.24547643959E+02  0.42562730284E+02  0.34896136302E+03  0.36759307522E+03  0.10457754652E+03 0.  0.
        -11    1    1    2    0    0  0.18048762021E+03  0.67853506381E+00  0.45151078644E+02  0.18605069567E+03  0.00000000000E+00 0. -1.
         11    1    1    2    0    0 -0.20503526417E+03 -0.43241265348E+02 -0.39411244167E+03  0.44635622910E+03  0.00000000000E+00 0. -1.
        -15    1    3    3    0    0 -0.15636140172E+01  0.73986479691E+02  0.20593992061E+03  0.21883978773E+03  0.17770000000E+01 0. -1.
         15    1    3    3    0    0  0.26111257976E+02 -0.31423749407E+02  0.14302144241E+03  0.14875328749E+03  0.17770000000E+01 0.  1.
</event>
<event>
 7    1  0.5285153E-006  0.4014905E+03  0.7546771E-02  0.9652007E-01
        -11   -1    0    0    0    0  0.00000000000E+00  0.00000000000E+00  0.50000000000E+03  0.50000000000E+03  0.00000000000E+00 0. -1.
         11   -1    0    0    0    0 -0.00000000000E+00 -0.00000000000E+00 -0.50000000000E+03  0.50000000000E+03  0.00000000000E+00 0.  1.
         23    2    1    2    0    0  0.25586460698E+03 -0.62587437043E+01 -0.32766928468E+03  0.42646017845E+03  0.94843316558E+02 0.  0.
        -11    1    1    2    0    0 -0.80212017891E+02  0.47589583048E+02  0.37545854478E+03  0.38686929973E+03  0.00000000000E+00 0. -1.
         11    1    1    2    0    0 -0.17565258909E+03 -0.41330839344E+02 -0.47789260097E+02  0.18667052182E+03  0.00000000000E+00 0.  1.
        -15    1    3    3    0    0  0.23615255924E+02 -0.29824996512E+02 -0.32026274381E+02  0.49759930758E+02  0.17770000000E+01 0. -1.
         15    1    3    3    0    0  0.23224935106E+03  0.23566252807E+02 -0.29564301030E+03  0.37670024769E+03  0.17770000000E+01 0.  1.
</event>
<event>
 7    1  0.5285153E-006  0.5117988E+03  0.7546771E-02  0.9373789E-01
        -11   -1    0    0    0    0  0.00000000000E+00  0.00000000000E+00  0.50000000000E+03  0.50000000000E+03  0.00000000000E+00 0. -1.
         11   -1    0    0    0    0 -0.00000000000E+00 -0.00000000000E+00 -0.50000000000E+03  0.50000000000E+03  0.00000000000E+00 0. -1.
         23    2    1    2    0    0 -0.72934002596E+02 -0.24688914732E+02 -0.33700466136E+03  0.35786995876E+03  0.92573507884E+02 0.  0.
        -11    1    1    2    0    0  0.86322811993E+02  0.10166354160E+03  0.46963099847E+03  0.48820116580E+03  0.00000000000E+00 0. -1.
         11    1    1    2    0    0 -0.13388809396E+02 -0.76974626873E+02 -0.13262633711E+03  0.15392887544E+03  0.00000000000E+00 0. -1.
        -15    1    3    3    0    0  0.20009317946E+02 -0.56479257865E+01 -0.30062229896E+02  0.36594634383E+02  0.17770000000E+01 0.  1.
         15    1    3    3    0    0 -0.92943320543E+02 -0.19040988946E+02 -0.30694243147E+03  0.32127532438E+03  0.17770000000E+01 0. -1.
</event>
<event>
 7    1  0.5285153E-006  0.3469217E+03  0.7546771E-02  0.9827700E-01
        -11   -1    0    0    0    0  0.00000000000E+00  0.00000000000E+00  0.50000000000E+03  0.50000000000E+03  0.00000000000E+00 0.  1.
         11   -1    0    0    0    0 -0.00000000000E+00 -0.00000000000E+00 -0.50000000000E+03  0.50000000000E+03  0.00000000000E+00 0. -1.
         23    2    1    2    0    0  0.20624588725E+02 -0.10314108817E+02 -0.24686178627E+03  0.26318855595E+03  0.88293374408E+02 0.  0.
        -11    1    1    2    0    0 -0.27879301579E+03 -0.19101557503E+02  0.35804222966E+03  0.45418570362E+03  0.00000000000E+00 0.  1.
         11    1    1    2    0    0  0.25816842706E+03  0.29415666320E+02 -0.11118044340E+03  0.28262574043E+03  0.00000000000E+00 0. -1.
        -15    1    3    3    0    0  0.35777612798E+02 -0.39032134696E+02 -0.19418914083E+03  0.20128617752E+03  0.17770000000E+01 0.  1.
         15    1    3    3    0    0 -0.15153024073E+02  0.28718025879E+02 -0.52672645443E+02  0.61902378435E+02  0.17770000000E+01 0. -1.
</event>
<event>
 7    1  0.5285153E-006  0.5433752E+03  0.7546771E-02  0.9307664E-01
        -11   -1    0    0    0    0  0.00000000000E+00  0.00000000000E+00  0.50000000000E+03  0.50000000000E+03  0.00000000000E+00 0.  1.
         11   -1    0    0    0    0 -0.00000000000E+00 -0.00000000000E+00 -0.50000000000E+03  0.50000000000E+03  0.00000000000E+00 0. -1.
         23    2    1    2    0    0  0.12617491035E+03 -0.69583617521E+02 -0.15876503573E+03  0.23514432453E+03  0.96563600599E+02 0.  0.
        -11    1    1    2    0    0 -0.26597275933E+02  0.69839306571E+02  0.45046781371E+03  0.45662478582E+03  0.00000000000E+00 0.  1.
         11    1    1    2    0    0 -0.99577634412E+02 -0.25568904997E+00 -0.29170277798E+03  0.30823088965E+03  0.00000000000E+00 0. -1.
        -15    1    3    3    0    0  0.31827672141E+02  0.21289689988E+02 -0.59498880665E+02  0.70778006069E+02  0.17770000000E+01 0. -1.
         15    1    3    3    0    0  0.94347238204E+02 -0.90873307509E+02 -0.99266155067E+02  0.16436631846E+03  0.17770000000E+01 0.  1.
</event>
<event>
 7    1  0.5285153E-006  0.5154288E+03  0.7546771E-02  0.9365933E-01
        -11   -1    0    0    0    0  0.00000000000E+00  0.00000000000E+00  0.50000000000E+03  0.50000000000E+03  0.00000000000E+00 0. -1.
         11   -1    0    0    0    0 -0.00000000000E+00 -0.00000000000E+00 -0.50000000000E+03  0.50000000000E+03  0.00000000000E+00 0.  1.
         23    2    1    2    0    0 -0.76250108476E+02  0.15463563891E+02 -0.35080852341E+03  0.37110346131E+03  0.92725174824E+02 0.  0.
        -11    1    1    2    0    0  0.17309683516E+03  0.18706281659E+02  0.45221327871E+03  0.48457124219E+03  0.00000000000E+00 0. -1.
         11    1    1    2    0    0 -0.96846726688E+02 -0.34169845549E+02 -0.10140475530E+03  0.14432529651E+03  0.00000000000E+00 0.  1.
        -15    1    3    3    0    0  0.93735850123E+01  0.93317306376E+01 -0.41587402352E+01  0.13978488546E+02  0.17770000000E+01 0. -1.
         15    1    3    3    0    0 -0.85623693489E+02  0.61318332530E+01 -0.34664978317E+03  0.35712497276E+03  0.17770000000E+01 0.  1.
</event>
<event>
 7    1  0.5285153E-006  0.5085864E+03  0.7546771E-02  0.9380799E-01
        -11   -1    0    0    0    0  0.00000000000E+00  0.00000000000E+00  0.50000000000E+03  0.50000000000E+03  0.00000000000E+00 0.  1.
         11   -1    0    0    0    0 -0.00000000000E+00 -0.00000000000E+00 -0.50000000000E+03  0.50000000000E+03  0.00000000000E+00 0. -1.
         23    2    1    2    0    0  0.11036559120E+03  0.11499299766E+03 -0.45554007321E+03  0.49141364649E+03  0.92556255474E+02 0.  0.
        -11    1    1    2    0    0 -0.34044119186E+02 -0.11378635246E+03  0.39095595725E+03  0.40859869868E+03  0.00000000000E+00 0.  1.
         11    1    1    2    0    0 -0.76321472014E+02 -0.12066452017E+01  0.64584115960E+02  0.99987654825E+02  0.00000000000E+00 0. -1.
        -15    1    3    3    0    0  0.12357115708E+03  0.11740524375E+03 -0.42882411774E+03  0.46146192022E+03  0.17770000000E+01 0. -1.
         15    1    3    3    0    0 -0.13205565880E+02 -0.24122460926E+01 -0.26715955466E+02  0.29951726276E+02  0.17770000000E+01 0.  1.
</event>
<event>
 7    1  0.5285153E-006  0.4867246E+03  0.7546771E-02  0.9430014E-01
        -11   -1    0    0    0    0  0.00000000000E+00  0.00000000000E+00  0.50000000000E+03  0.50000000000E+03  0.00000000000E+00 0. -1.
         11   -1    0    0    0    0 -0.00000000000E+00 -0.00000000000E+00 -0.50000000000E+03  0.50000000000E+03  0.00000000000E+00 0.  1.
         23    2    1    2    0    0 -0.10116435252E+03 -0.35396643882E+02 -0.47207787036E+03  0.49295842432E+03  0.93077085292E+02 0.  0.
        -11    1    1    2    0    0  0.11980288193E+03  0.10290933514E+02  0.45657100167E+03  0.47213950628E+03  0.00000000000E+00 0. -1.
         11    1    1    2    0    0 -0.18638529412E+02  0.25105710368E+02  0.15506868689E+02  0.34902069398E+02  0.00000000000E+00 0.  1.
        -15    1    3    3    0    0 -0.19883549581E+02 -0.15922973042E+02 -0.17982686491E+02  0.31231896466E+02  0.17770000000E+01 0. -1.
         15    1    3    3    0    0 -0.81280802935E+02 -0.19473670840E+02 -0.45409518387E+03  0.46172652785E+03  0.17770000000E+01 0.  1.
</event>
<event>
 7    1  0.5285153E-006  0.4241513E+03  0.7546771E-02  0.9587615E-01
        -11   -1    0    0    0    0  0.00000000000E+00  0.00000000000E+00  0.50000000000E+03  0.50000000000E+03  0.00000000000E+00 0.  1.
         11   -1    0    0    0    0 -0.00000000000E+00 -0.00000000000E+00 -0.50000000000E+03  0.50000000000E+03  0.00000000000E+00 0. -1.
         23    2    1    2    0    0  0.10709877908E+03  0.17532238864E+02  0.21121272548E+02  0.14452291321E+03  0.93076508359E+02 0.  0.
        -11    1    1    2    0    0  0.43968511150E+02  0.10927890496E+03  0.38574220041E+03  0.40332636192E+03  0.00000000000E+00 0.  1.
         11    1    1    2    0    0 -0.15106729023E+03 -0.12681114383E+03 -0.40686347296E+03  0.45215072487E+03  0.00000000000E+00 0. -1.
        -15    1    3    3    0    0  0.22902476396E+02 -0.31381886305E+02  0.26376045318E+02  0.46991485492E+02  0.17770000000E+01 0.  1.
         15    1    3    3    0    0  0.84196302680E+02  0.48914125169E+02 -0.52547727701E+01  0.97531427714E+02  0.17770000000E+01 0. -1.
</event>
<event>
 7    1  0.5285153E-006  0.4122158E+03  0.7546771E-02  0.9620980E-01
        -11   -1    0    0    0    0  0.00000000000E+00  0.00000000000E+00  0.50000000000E+03  0.50000000000E+03  0.00000000000E+00 0.  1.
         11   -1    0    0    0    0 -0.00000000000E+00 -0.00000000000E+00 -0.50000000000E+03  0.50000000000E+03  0.00000000000E+00 0. -1.
         23    2    1    2    0    0  0.67425818865E+02  0.83648543541E+02  0.76169532343E+02  0.16511525953E+03  0.99588811545E+02 0.  0.
        -11    1    1    2    0    0 -0.89504216086E+02  0.26112217718E+01  0.36960896108E+03  0.38030068011E+03  0.00000000000E+00 0.  1.
         11    1    1    2    0    0  0.22078397221E+02 -0.86259765313E+02 -0.44577849343E+03  0.45458406037E+03  0.00000000000E+00 0. -1.
        -15    1    3    3    0    0  0.50690975694E+02 -0.91510183160E+01  0.34400755602E+02  0.61966812634E+02  0.17770000000E+01 0.  1.
         15    1    3    3    0    0  0.16734843171E+02  0.92799561857E+02  0.41768776742E+02  0.10314844689E+03  0.17770000000E+01 0. -1.
</event>
<event>
 7    1  0.5285153E-006  0.5072933E+03  0.7546771E-02  0.9383637E-01
        -11   -1    0    0    0    0  0.00000000000E+00  0.00000000000E+00  0.50000000000E+03  0.50000000000E+03  0.00000000000E+00 0.  1.
         11   -1    0    0    0    0 -0.00000000000E+00 -0.00000000000E+00 -0.50000000000E+03  0.50000000000E+03  0.00000000000E+00 0. -1.
         23    2    1    2    0    0  0.15460843552E+03  0.18937513416E+02 -0.34912620002E+03  0.39290895418E+03  0.90696995457E+02 0.  0.
        -11    1    1    2    0    0 -0.21348383691E+03  0.58276403728E+01  0.44401641802E+03  0.49270669722E+03  0.00000000000E+00 0.  1.
         11    1    1    2    0    0  0.58875401393E+02 -0.24765153789E+02 -0.94890217998E+02  0.11438434859E+03  0.00000000000E+00 0. -1.
        -15    1    3    3    0    0  0.63049320571E+01 -0.21992314195E+02 -0.23942163330E+02  0.33163217060E+02  0.17770000000E+01 0.  1.
         15    1    3    3    0    0  0.14830350346E+03  0.40929827611E+02 -0.32518403669E+03  0.35974573712E+03  0.17770000000E+01 0. -1.
</event>
<event>
 7    1  0.5285153E-006  0.5120026E+03  0.7546771E-02  0.9373346E-01
        -11   -1    0    0    0    0  0.00000000000E+00  0.00000000000E+00  0.50000000000E+03  0.50000000000E+03  0.00000000000E+00 0.  1.
         11   -1    0    0    0    0 -0.00000000000E+00 -0.00000000000E+00 -0.50000000000E+03  0.50000000000E+03  0.00000000000E+00 0.  1.
         23    2    1    2    0    0  0.73545665419E+02  0.48001886410E+02 -0.38797440408E+03  0.40795805183E+03  0.90512362865E+02 0.  0.
        -11    1    1    2    0    0 -0.41806472759E+02 -0.89704823392E+02  0.47785634971E+03  0.48799736420E+03  0.00000000000E+00 0.  1.
         11    1    1    2    0    0 -0.31739192660E+02  0.41702936983E+02 -0.89881945633E+02  0.10404458397E+03  0.00000000000E+00 0.  1.
        -15    1    3    3    0    0 -0.20718455645E+02  0.83715811659E+01 -0.48845625236E+02  0.53743749490E+02  0.17770000000E+01 0. -1.
         15    1    3    3    0    0  0.94264121063E+02  0.39630305244E+02 -0.33912877884E+03  0.35421430234E+03  0.17770000000E+01 0.  1.
</event>
<event>
 7    1  0.5285153E-006  0.5179592E+03  0.7546771E-02  0.9360498E-01
        -11   -1    0    0    0    0  0.00000000000E+00  0.00000000000E+00  0.50000000000E+03  0.50000000000E+03  0.00000000000E+00 0. -1.
         11   -1    0    0    0    0 -0.00000000000E+00 -0.00000000000E+00 -0.50000000000E+03  0.50000000000E+03  0.00000000000E+00 0.  1.
         23    2    1    2    0    0 -0.97780154163E+02 -0.12480428098E+03  0.37633450527E+03  0.41818498917E+03  0.90077512275E+02 0.  0.
        -11    1    1    2    0    0 -0.81810138290E+02 -0.41947115902E+02  0.38761368156E+02  0.99774259811E+02  0.00000000000E+00 0. -1.
         11    1    1    2    0    0  0.17959029245E+03  0.16675139688E+03 -0.41509587342E+03  0.48204075101E+03  0.00000000000E+00 0.  1.
        -15    1    3    3    0    0  0.13819958283E+02 -0.18824784145E+02  0.23198514279E+02  0.32965019927E+02  0.17770000000E+01 0.  1.
         15    1    3    3    0    0 -0.11160011245E+03 -0.10597949684E+03  0.35313599099E+03  0.38521996925E+03  0.17770000000E+01 0. -1.
</event>
<event>
 6    1  0.5285153E-006  0.2461376E+03  0.7546771E-02  0.1026730E+00
        -11   -1    0    0    0    0  0.00000000000E+00  0.00000000000E+00  0.50000000000E+03  0.50000000000E+03  0.00000000000E+00 0.  1.
         11   -1    0    0    0    0 -0.00000000000E+00 -0.00000000000E+00 -0.50000000000E+03  0.50000000000E+03  0.00000000000E+00 0. -1.
        -11    1    1    2    0    0 -0.13438804484E+03  0.16498359094E+03  0.36322839794E+03  0.42096864603E+03  0.00000000000E+00 0.  1.
         11    1    1    2    0    0  0.82491618734E+02 -0.86959416543E+02 -0.21131373197E+03  0.24294094057E+03  0.00000000000E+00 0. -1.
        -15    1    1    2    0    0  0.35842180812E+02 -0.15525917087E+03  0.61007938323E+01  0.15946927441E+03  0.17770000000E+01 0.  1.
         15    1    1    2    0    0  0.16054245294E+02  0.77234996476E+02 -0.15801545980E+03  0.17662113899E+03  0.17770000000E+01 0. -1.
</event>
<event>
 7    1  0.5285153E-006  0.5064358E+03  0.7546771E-02  0.9385523E-01
        -11   -1    0    0    0    0  0.00000000000E+00  0.00000000000E+00  0.50000000000E+03  0.50000000000E+03  0.00000000000E+00 0.  1.
         11   -1    0    0    0    0 -0.00000000000E+00 -0.00000000000E+00 -0.50000000000E+03  0.50000000000E+03  0.00000000000E+00 0. -1.
         23    2    1    2    0    0 -0.86141127930E+02  0.82401114294E+02  0.29228025458E+03  0.32841932810E+03  0.90671220897E+02 0.  0.
        -11    1    1    2    0    0 -0.48808406139E+02  0.38980923538E+02  0.16669758744E+03  0.17801645589E+03  0.00000000000E+00 0.  1.
         11    1    1    2    0    0  0.13494953407E+03 -0.12138203783E+03 -0.45897784202E+03  0.49356421600E+03  0.00000000000E+00 0. -1.
        -15    1    3    3    0    0 -0.41408471281E+02  0.41463311995E+02  0.24383971345E+03  0.25078841943E+03  0.17770000000E+01 0.  1.
         15    1    3    3    0    0 -0.44732656649E+02  0.40937802299E+02  0.48440541126E+02  0.77630908674E+02  0.17770000000E+01 0. -1.
</event>
<event>
 7    1  0.5285153E-006  0.5162801E+03  0.7546771E-02  0.9364101E-01
        -11   -1    0    0    0    0  0.00000000000E+00  0.00000000000E+00  0.50000000000E+03  0.50000000000E+03  0.00000000000E+00 0. -1.
         11   -1    0    0    0    0 -0.00000000000E+00 -0.00000000000E+00 -0.50000000000E+03  0.50000000000E+03  0.00000000000E+00 0.  1.
         23    2    1    2    0    0 -0.49530306434E+02  0.36074272079E+02 -0.17461095762E+03  0.20743117499E+03  0.93723537476E+02 0.  0.
        -11    1    1    2    0    0  0.15283666255E+02 -0.15012272547E+03  0.45958077377E+03  0.48371986807E+03  0.00000000000E+00 0. -1.
         11    1    1    2    0    0  0.34246640179E+02  0.11404845339E+03 -0.28496981615E+03  0.30884895693E+03  0.00000000000E+00 0.  1.
        -15    1    3    3    0    0 -0.74212338139E+02  0.43554087079E+02 -0.13143161088E+03  0.15710460115E+03  0.17770000000E+01 0.  1.
         15    1    3    3    0    0  0.24682031705E+02 -0.74798150003E+01 -0.43179346737E+02  0.50326573847E+02  0.17770000000E+01 0. -1.
</event>
<event>
 7    1  0.5285153E-006  0.5123827E+03  0.7546771E-02  0.9372521E-01
        -11   -1    0    0    0    0  0.00000000000E+00  0.00000000000E+00  0.50000000000E+03  0.50000000000E+03  0.00000000000E+00 0.  1.
         11   -1    0    0    0    0 -0.00000000000E+00 -0.00000000000E+00 -0.50000000000E+03  0.50000000000E+03  0.00000000000E+00 0. -1.
         23    2    1    2    0    0  0.92892908346E+02 -0.29024149279E+02  0.23088109680E+03  0.26597794515E+03  0.89256331896E+02 0.  0.
        -11    1    1    2    0    0  0.83096029102E+01 -0.74249912304E+02  0.23480459516E+03  0.24640474201E+03  0.00000000000E+00 0.  1.
         11    1    1    2    0    0 -0.10120251126E+03  0.10327406158E+03 -0.46568569196E+03  0.48761731284E+03  0.00000000000E+00 0. -1.
        -15    1    3    3    0    0 -0.94032675619E+01 -0.27075895402E+02  0.65183215989E+02  0.71228750714E+02  0.17770000000E+01 0.  1.
         15    1    3    3    0    0  0.10229617591E+03 -0.19482538774E+01  0.16569788082E+03  0.19474919444E+03  0.17770000000E+01 0. -1.
</event>
<event>
 7    1  0.5285153E-006  0.5279817E+03  0.7546771E-02  0.9339287E-01
        -11   -1    0    0    0    0  0.00000000000E+00  0.00000000000E+00  0.50000000000E+03  0.50000000000E+03  0.00000000000E+00 0.  1.
         11   -1    0    0    0    0 -0.00000000000E+00 -0.00000000000E+00 -0.50000000000E+03  0.50000000000E+03  0.00000000000E+00 0. -1.
         23    2    1    2    0    0 -0.10815554127E+03 -0.15473490558E+03  0.25552993474E+03  0.33047913698E+03  0.90996704994E+02 0.  0.
        -11    1    1    2    0    0  0.94898990434E+02 -0.83146547512E+02  0.15194764292E+03  0.19750253906E+03  0.00000000000E+00 0.  1.
         11    1    1    2    0    0  0.13256550833E+02  0.23788145309E+03 -0.40747757765E+03  0.47201832396E+03  0.00000000000E+00 0. -1.
        -15    1    3    3    0    0 -0.68916900991E+02 -0.50012844438E+02  0.16835573300E+03  0.18867335375E+03  0.17770000000E+01 0.  1.
         15    1    3    3    0    0 -0.39238640276E+02 -0.10472206114E+03  0.87174201735E+02  0.14180578323E+03  0.17770000000E+01 0. -1.
</event>
<event>
 7    1  0.5285153E-006  0.5059916E+03  0.7546771E-02  0.9386502E-01
        -11   -1    0    0    0    0  0.00000000000E+00  0.00000000000E+00  0.50000000000E+03  0.50000000000E+03  0.00000000000E+00 0. -1.
         11   -1    0    0    0    0 -0.00000000000E+00 -0.00000000000E+00 -0.50000000000E+03  0.50000000000E+03  0.00000000000E+00 0.  1.
         23    2    1    2    0    0 -0.30795907508E+02  0.91722617640E+02 -0.33363583260E+03  0.35506389086E+03  0.73457955939E+02 0.  0.
        -11    1    1    2    0    0  0.31326279138E+01 -0.11857515044E+03  0.47955651956E+03  0.49400843627E+03  0.00000000000E+00 0. -1.
         11    1    1    2    0    0  0.27663279594E+02  0.26852532795E+02 -0.14592068696E+03  0.15092767287E+03  0.00000000000E+00 0.  1.
        -15    1    3    3    0    0  0.57122815455E+01  0.44088806646E+02 -0.58745993222E+02  0.73693300107E+02  0.17770000000E+01 0. -1.
         15    1    3    3    0    0 -0.36508189053E+02  0.47633810993E+02 -0.27488983938E+03  0.28137059075E+03  0.17770000000E+01 0.  1.
</event>
<event>
 7    1  0.5285153E-006  0.5362171E+03  0.7546771E-02  0.9322229E-01
        -11   -1    0    0    0    0  0.00000000000E+00  0.00000000000E+00  0.50000000000E+03  0.50000000000E+03  0.00000000000E+00 0. -1.
         11   -1    0    0    0    0 -0.00000000000E+00 -0.00000000000E+00 -0.50000000000E+03  0.50000000000E+03  0.00000000000E+00 0.  1.
         23    2    1    2    0    0  0.85657176543E+02 -0.92265136770E+02  0.11067820798E+03  0.19205268081E+03  0.93725978932E+02 0.  0.
        -11    1    1    2    0    0  0.10378421778E+03  0.99852933164E+02  0.31258175195E+03  0.34416438481E+03  0.00000000000E+00 0. -1.
         11    1    1    2    0    0 -0.18944139433E+03 -0.75877963934E+01 -0.42325995993E+03  0.46378293438E+03  0.00000000000E+00 0.  1.
        -15    1    3    3    0    0  0.86658949969E+02 -0.10911065073E+03  0.10372332447E+03  0.17371411423E+03  0.17770000000E+01 0. -1.
         15    1    3    3    0    0 -0.10017734262E+01  0.16845513961E+02  0.69548835081E+01  0.18338566581E+02  0.17770000000E+01 0.  1.
</event>
<event>
 7    1  0.5285153E-006  0.5280720E+03  0.7546771E-02  0.9339098E-01
        -11   -1    0    0    0    0  0.00000000000E+00  0.00000000000E+00  0.50000000000E+03  0.50000000000E+03  0.00000000000E+00 0.  1.
         11   -1    0    0    0    0 -0.00000000000E+00 -0.00000000000E+00 -0.50000000000E+03  0.50000000000E+03  0.00000000000E+00 0. -1.
         23    2    1    2    0    0  0.30015530534E+02 -0.27794313632E+02 -0.12045411786E+03  0.15819150039E+03  0.94031379556E+02 0.  0.
        -11    1    1    2    0    0 -0.17197978605E+03  0.31276482863E+03  0.30873469001E+03  0.47192795388E+03  0.00000000000E+00 0.  1.
         11    1    1    2    0    0  0.14196425552E+03 -0.28497051500E+03 -0.18828057215E+03  0.36988054573E+03  0.00000000000E+00 0. -1.
        -15    1    3    3    0    0  0.62959497477E+02 -0.28899224585E+02 -0.86506797864E+02  0.11084063925E+03  0.17770000000E+01 0.  1.
         15    1    3    3    0    0 -0.32943966943E+02  0.11049109525E+01 -0.33947319998E+02  0.47350861135E+02  0.17770000000E+01 0. -1.
</event>
<event>
 7    1  0.5285153E-006  0.5268397E+03  0.7546771E-02  0.9341679E-01
        -11   -1    0    0    0    0  0.00000000000E+00  0.00000000000E+00  0.50000000000E+03  0.50000000000E+03  0.00000000000E+00 0.  1.
         11   -1    0    0    0    0 -0.00000000000E+00 -0.00000000000E+00 -0.50000000000E+03  0.50000000000E+03  0.00000000000E+00 0. -1.
         23    2    1    2    0    0 -0.18071158713E+03  0.42698662910E+02 -0.13579536519E+03  0.24664934339E+03  0.88970016583E+02 0.  0.
        -11    1    1    2    0    0  0.27995571314E+03 -0.26520104091E+03  0.27417859094E+03  0.47316032499E+03  0.00000000000E+00 0.  1.
         11    1    1    2    0    0 -0.99244126014E+02  0.22250237800E+03 -0.13838322575E+03  0.28019033162E+03  0.00000000000E+00 0. -1.
        -15    1    3    3    0    0 -0.10517932250E+03  0.56821701987E+02 -0.11751523425E+03  0.16764362113E+03  0.17770000000E+01 0.  1.
         15    1    3    3    0    0 -0.75532264631E+02 -0.14123039077E+02 -0.18280130947E+02  0.79005722258E+02  0.17770000000E+01 0. -1.
</event>
<event>
 7    1  0.5285153E-006  0.5145196E+03  0.7546771E-02  0.9367895E-01
        -11   -1    0    0    0    0  0.00000000000E+00  0.00000000000E+00  0.50000000000E+03  0.50000000000E+03  0.00000000000E+00 0.  1.
         11   -1    0    0    0    0 -0.00000000000E+00 -0.00000000000E+00 -0.50000000000E+03  0.50000000000E+03  0.00000000000E+00 0. -1.
         23    2    1    2    0    0  0.11196197792E+03  0.82197294639E+02 -0.28248031415E+03  0.32772508277E+03  0.91196064880E+02 0.  0.
        -11    1    1    2    0    0 -0.23837017660E+03 -0.61489863596E+02  0.41843746480E+03  0.48548043870E+03  0.00000000000E+00 0.  1.
         11    1    1    2    0    0  0.12640819868E+03 -0.20707431043E+02 -0.13595715065E+03  0.18679447853E+03  0.00000000000E+00 0. -1.
        -15    1    3    3    0    0 -0.15358724427E+01 -0.14249996589E+02 -0.46273603828E+02  0.48474998166E+02  0.17770000000E+01 0.  1.
         15    1    3    3    0    0  0.11349785036E+03  0.96447291228E+02 -0.23620671032E+03  0.27925008460E+03  0.17770000000E+01 0. -1.
</event>
<event>
 7    1  0.5285153E-006  0.5325684E+03  0.7546771E-02  0.9329746E-01
        -11   -1    0    0    0    0  0.00000000000E+00  0.00000000000E+00  0.50000000000E+03  0.50000000000E+03  0.00000000000E+00 0.  1.
         11   -1    0    0    0    0 -0.00000000000E+00 -0.00000000000E+00 -0.50000000000E+03  0.50000000000E+03  0.00000000000E+00 0. -1.
         23    2    1    2    0    0  0.93905240578E+02 -0.59202748166E+02 -0.13361512538E+03  0.19522046691E+03  0.89077883740E+02 0.  0.
        -11    1    1    2    0    0  0.82993986093E+01  0.21096287825E+03  0.41703482920E+03  0.46743156160E+03  0.00000000000E+00 0.  1.
         11    1    1    2    0    0 -0.10220463919E+03 -0.15176013008E+03 -0.28341970382E+03  0.33734797149E+03  0.00000000000E+00 0. -1.
        -15    1    3    3    0    0  0.60786135705E+01 -0.25680475835E+02  0.57851623997E+01  0.27075121699E+02  0.17770000000E+01 0.  1.
         15    1    3    3    0    0  0.87826627007E+02 -0.33522272331E+02 -0.13940028778E+03  0.16814534521E+03  0.17770000000E+01 0. -1.
</event>
<event>
 7    1  0.5285153E-006  0.3889200E+03  0.7546771E-02  0.9689717E-01
        -11   -1    0    0    0    0  0.00000000000E+00  0.00000000000E+00  0.50000000000E+03  0.50000000000E+03  0.00000000000E+00 0.  1.
         11   -1    0    0    0    0 -0.00000000000E+00 -0.00000000000E+00 -0.50000000000E+03  0.50000000000E+03  0.00000000000E+00 0. -1.
         23    2    1    2    0    0  0.10798903852E+03  0.18284587658E+03 -0.29521077784E+03  0.37515220532E+03  0.92171181947E+02 0.  0.
        -11    1    1    2    0    0  0.74782091521E+02 -0.14912513209E+03  0.38414816008E+03  0.41880839906E+03  0.00000000000E+00 0.  1.
         11    1    1    2    0    0 -0.18277113005E+03 -0.33720744491E+02 -0.88937382234E+02  0.20603939562E+03  0.00000000000E+00 0. -1.
        -15    1    3    3    0    0  0.31997420754E+02  0.10833113428E+03 -0.91775200563E+02  0.14555175971E+03  0.17770000000E+01 0. -1.
         15    1    3    3    0    0  0.75991617771E+02  0.74514742300E+02 -0.20343557728E+03  0.22960044561E+03  0.17770000000E+01 0.  1.
</event>
<event>
 7    1  0.5285153E-006  0.4644116E+03  0.7546771E-02  0.9483163E-01
        -11   -1    0    0    0    0  0.00000000000E+00  0.00000000000E+00  0.50000000000E+03  0.50000000000E+03  0.00000000000E+00 0.  1.
         11   -1    0    0    0    0 -0.00000000000E+00 -0.00000000000E+00 -0.50000000000E+03  0.50000000000E+03  0.00000000000E+00 0. -1.
         23    2    1    2    0    0 -0.95708497841E+02  0.37904132015E+02 -0.40933371687E+03  0.43195493356E+03  0.91837536324E+02 0.  0.
        -11    1    1    2    0    0  0.95706533095E+02 -0.78145614855E+02  0.47512208444E+03  0.49092511926E+03  0.00000000000E+00 0.  1.
         11    1    1    2    0    0  0.19647458769E-02  0.40241482840E+02 -0.65788367569E+02  0.77119947176E+02  0.00000000000E+00 0. -1.
        -15    1    3    3    0    0 -0.60416810869E+02 -0.21209215268E+02 -0.14004870734E+03  0.15400266233E+03  0.17770000000E+01 0.  1.
         15    1    3    3    0    0 -0.35291686973E+02  0.59113347283E+02 -0.26928500953E+03  0.27795227123E+03  0.17770000000E+01 0. -1.
</event>
<event>
 7    1  0.5285153E-006  0.3670494E+03  0.7546771E-02  0.9759105E-01
        -11   -1    0    0    0    0  0.00000000000E+00  0.00000000000E+00  0.50000000000E+03  0.50000000000E+03  0.00000000000E+00 0.  1.
         11   -1    0    0    0    0 -0.00000000000E+00 -0.00000000000E+00 -0.50000000000E+03  0.50000000000E+03  0.00000000000E+00 0.  1.
         23    2    1    2    0    0 -0.10011428378E+02 -0.12990276806E+03 -0.17279243634E+03  0.23466781295E+03  0.90756809838E+02 0.  0.
        -11    1    1    2    0    0  0.40741152684E+02 -0.12444776644E+03  0.40124372170E+03  0.42207062477E+03  0.00000000000E+00 0.  1.
         11    1    1    2    0    0 -0.30729724306E+02  0.25435053450E+03 -0.22845128536E+03  0.34326156228E+03  0.00000000000E+00 0.  1.
        -15    1    3    3    0    0 -0.46687720636E+02 -0.80478167973E+02 -0.12921054730E+03  0.15923254077E+03  0.17770000000E+01 0.  1.
         15    1    3    3    0    0  0.36676292258E+02 -0.49424600083E+02 -0.43581889039E+02  0.75435272177E+02  0.17770000000E+01 0. -1.
</event>
<event>
 7    1  0.5285153E-006  0.5124364E+03  0.7546771E-02  0.9372404E-01
        -11   -1    0    0    0    0  0.00000000000E+00  0.00000000000E+00  0.50000000000E+03  0.50000000000E+03  0.00000000000E+00 0. -1.
         11   -1    0    0    0    0 -0.00000000000E+00 -0.00000000000E+00 -0.50000000000E+03  0.50000000000E+03  0.00000000000E+00 0.  1.
         23    2    1    2    0    0  0.79243289557E+02  0.55479629936E+02  0.35378804049E+03  0.37806537288E+03  0.91705835688E+02 0.  0.
        -11    1    1    2    0    0 -0.39331621386E+02  0.34844354469E+02  0.12367077772E+03  0.13437100409E+03  0.00000000000E+00 0. -1.
         11    1    1    2    0    0 -0.39911668171E+02 -0.90323984404E+02 -0.47745881821E+03  0.48756362303E+03  0.00000000000E+00 0.  1.
        -15    1    3    3    0    0  0.48905227355E+02  0.79875543685E+02  0.26612787542E+03  0.28213299620E+03  0.17770000000E+01 0.  1.
         15    1    3    3    0    0  0.30338062202E+02 -0.24395913749E+02  0.87660165071E+02  0.95932376678E+02  0.17770000000E+01 0. -1.
</event>
<event>
 7    1  0.5285153E-006  0.3634117E+03  0.7546771E-02  0.9771148E-01
        -11   -1    0    0    0    0  0.00000000000E+00  0.00000000000E+00  0.50000000000E+03  0.50000000000E+03  0.00000000000E+00 0.  1.
         11   -1    0    0    0    0 -0.00000000000E+00 -0.00000000000E+00 -0.50000000000E+03  0.50000000000E+03  0.00000000000E+00 0. -1.
         23    2    1    2    0    0  0.93442620517E+02  0.13326905418E+02 -0.20057377547E+03  0.24012425744E+03  0.92307582956E+02 0.  0.
        -11    1    1    2    0    0  0.88709254328E+02  0.66875563852E+02  0.43695988081E+03  0.45086096558E+03  0.00000000000E+00 0.  1.
         11    1    1    2    0    0 -0.18215187484E+03 -0.80202469270E+02 -0.23638610535E+03  0.30901477697E+03  0.00000000000E+00 0. -1.
        -15    1    3    3    0    0  0.89082434562E+02  0.45060346961E+02 -0.14781864711E+03  0.17838056278E+03  0.17770000000E+01 0. -1.
         15    1    3    3    0    0  0.43601859550E+01 -0.31733441543E+02 -0.52755128357E+02  0.61743694663E+02  0.17770000000E+01 0.  1.
</event>
<event>
 7    1  0.5285153E-006  0.5183828E+03  0.7546771E-02  0.9359591E-01
        -11   -1    0    0    0    0  0.00000000000E+00  0.00000000000E+00  0.50000000000E+03  0.50000000000E+03  0.00000000000E+00 0.  1.
         11   -1    0    0    0    0 -0.00000000000E+00 -0.00000000000E+00 -0.50000000000E+03  0.50000000000E+03  0.00000000000E+00 0. -1.
         23    2    1    2    0    0 -0.31738267564E+02 -0.13898767565E+03 -0.33010630874E+03  0.37084305271E+03  0.90716608548E+02 0.  0.
        -11    1    1    2    0    0  0.18867807565E+02  0.97821064294E+02  0.47120075864E+03  0.48161718172E+03  0.00000000000E+00 0.  1.
         11    1    1    2    0    0  0.12870459999E+02  0.41166611352E+02 -0.14109444990E+03  0.14753976557E+03  0.00000000000E+00 0. -1.
        -15    1    3    3    0    0  0.44061367759E+01 -0.41396545052E+02 -0.25282051113E+02  0.48738360878E+02  0.17770000000E+01 0.  1.
         15    1    3    3    0    0 -0.36144404340E+02 -0.97591130593E+02 -0.30482425763E+03  0.32210469184E+03  0.17770000000E+01 0. -1.
</event>
<event>
 7    1  0.5285153E-006  0.4787184E+03  0.7546771E-02  0.9448730E-01
        -11   -1    0    0    0    0  0.00000000000E+00  0.00000000000E+00  0.50000000000E+03  0.50000000000E+03  0.00000000000E+00 0.  1.
         11   -1    0    0    0    0 -0.00000000000E+00 -0.00000000000E+00 -0.50000000000E+03  0.50000000000E+03  0.00000000000E+00 0. -1.
         23    2    1    2    0    0 -0.19599779355E+03 -0.21151960642E+02  0.40459140486E+03  0.45924551940E+03  0.91376702099E+02 0.  0.
        -11    1    1    2    0    0  0.59808805108E+01  0.13662031304E+02  0.47771888387E+02  0.50045732596E+02  0.00000000000E+00 0.  1.
         11    1    1    2    0    0  0.19001691304E+03  0.74899293374E+01 -0.45236329325E+03  0.49070874800E+03  0.00000000000E+00 0. -1.
        -15    1    3    3    0    0 -0.15416812430E+03  0.12326933713E+02  0.35040491057E+03  0.38302287520E+03  0.17770000000E+01 0.  1.
         15    1    3    3    0    0 -0.41829669245E+02 -0.33478894355E+02  0.54186494295E+02  0.76222644204E+02  0.17770000000E+01 0. -1.
</event>
<event>
 7    1  0.5285153E-006  0.4790666E+03  0.7546771E-02  0.9447908E-01
        -11   -1    0    0    0    0  0.00000000000E+00  0.00000000000E+00  0.50000000000E+03  0.50000000000E+03  0.00000000000E+00 0. -1.
         11   -1    0    0    0    0 -0.00000000000E+00 -0.00000000000E+00 -0.50000000000E+03  0.50000000000E+03  0.00000000000E+00 0.  1.
         23    2    1    2    0    0  0.90309718982E+02 -0.81877409198E+01 -0.45149439309E+03  0.46580549960E+03  0.70033506400E+02 0.  0.
        -11    1    1    2    0    0 -0.86178778694E+02 -0.27701852680E+02  0.47982199527E+03  0.48828610638E+03  0.00000000000E+00 0. -1.
         11    1    1    2    0    0 -0.41309402888E+01  0.35889593600E+02 -0.28327602177E+02  0.45908394021E+02  0.00000000000E+00 0.  1.
        -15    1    3    3    0    0  0.55555231635E+02  0.28241126507E+02 -0.20749489253E+03  0.21665925584E+03  0.17770000000E+01 0.  1.
         15    1    3    3    0    0  0.34754487347E+02 -0.36428867427E+02 -0.24399950057E+03  0.24914624376E+03  0.17770000000E+01 0. -1.
</event>
<event>
 7    1  0.5285153E-006  0.5345438E+03  0.7546771E-02  0.9325669E-01
        -11   -1    0    0    0    0  0.00000000000E+00  0.00000000000E+00  0.50000000000E+03  0.50000000000E+03  0.00000000000E+00 0. -1.
         11   -1    0    0    0    0 -0.00000000000E+00 -0.00000000000E+00 -0.50000000000E+03  0.50000000000E+03  0.00000000000E+00 0.  1.
         23    2    1    2    0    0  0.48719818842E+02 -0.20257342204E+02 -0.18350094329E+03  0.20979793739E+03  0.86940196013E+02 0.  0.
        -11    1    1    2    0    0  0.15182660892E+03  0.55295881151E+02  0.43650946456E+03  0.46545619160E+03  0.00000000000E+00 0. -1.
         11    1    1    2    0    0 -0.20054642776E+03 -0.35038538947E+02 -0.25300852127E+03  0.32474587101E+03  0.00000000000E+00 0.  1.
        -15    1    3    3    0    0 -0.96413106950E+00 -0.27585863438E+02 -0.14186875115E+03  0.14453999340E+03  0.17770000000E+01 0.  1.
         15    1    3    3    0    0  0.49683949912E+02  0.73285212340E+01 -0.41632192144E+02  0.65257943992E+02  0.17770000000E+01 0. -1.
</event>
<event>
 7    1  0.5285153E-006  0.3920811E+03  0.7546771E-02  0.9680092E-01
        -11   -1    0    0    0    0  0.00000000000E+00  0.00000000000E+00  0.50000000000E+03  0.50000000000E+03  0.00000000000E+00 0. -1.
         11   -1    0    0    0    0 -0.00000000000E+00 -0.00000000000E+00 -0.50000000000E+03  0.50000000000E+03  0.00000000000E+00 0. -1.
         23    2    1    2    0    0 -0.18357625446E+02 -0.64730039200E+02 -0.16053389413E+03  0.19675138050E+03  0.91722375557E+02 0.  0.
        -11    1    1    2    0    0 -0.19777998147E+03 -0.47549895886E+02  0.40808198213E+03  0.45597019399E+03  0.00000000000E+00 0. -1.
         11    1    1    2    0    0  0.21613760692E+03  0.11227993509E+03 -0.24754808800E+03  0.34727842550E+03  0.00000000000E+00 0. -1.
        -15    1    3    3    0    0  0.17011964930E+02 -0.40479234858E+02 -0.14433195099E+03  0.15087360674E+03  0.17770000000E+01 0. -1.
         15    1    3    3    0    0 -0.35369590376E+02 -0.24250804342E+02 -0.16201943139E+02  0.45877773759E+02  0.17770000000E+01 0.  1.
</event>
<event>
 7    1  0.5285153E-006  0.5204331E+03  0.7546771E-02  0.9355215E-01
        -11   -1    0    0    0    0  0.00000000000E+00  0.00000000000E+00  0.50000000000E+03  0.50000000000E+03  0.00000000000E+00 0.  1.
         11   -1    0    0    0    0 -0.00000000000E+00 -0.00000000000E+00 -0.50000000000E+03  0.50000000000E+03  0.00000000000E+00 0. -1.
         23    2    1    2    0    0 -0.11789522087E+03  0.13571416566E+02 -0.22681456142E+03  0.27212931156E+03  0.92336615087E+02 0.  0.
        -11    1    1    2    0    0  0.11808640172E+03  0.75337504101E+02  0.45865487177E+03  0.47956691837E+03  0.00000000000E+00 0.  1.
         11    1    1    2    0    0 -0.19118085111E+00 -0.88908920667E+02 -0.23184031036E+03  0.24830377007E+03  0.00000000000E+00 0. -1.
        -15    1    3    3    0    0 -0.48469349534E+02  0.22931929768E+02 -0.18007136349E+03  0.18789360001E+03  0.17770000000E+01 0. -1.
         15    1    3    3    0    0 -0.69425871337E+02 -0.93605132022E+01 -0.46743197931E+02  0.84235711549E+02  0.17770000000E+01 0.  1.
</event>
<event>
 7    1  0.5285153E-006  0.4296141E+03  0.7546771E-02  0.9572733E-01
        -11   -1    0    0    0    0  0.00000000000E+00  0.00000000000E+00  0.50000000000E+03  0.50000000000E+03  0.00000000000E+00 0.  1.
         11   -1    0    0    0    0 -0.00000000000E+00 -0.00000000000E+00 -0.50000000000E+03  0.50000000000E+03  0.00000000000E+00 0. -1.
         23    2    1    2    0    0 -0.88191630529E+02 -0.38868675869E+01  0.47946611746E+02  0.13491915004E+03  0.90063466707E+02 0.  0.
        -11    1    1    2    0    0  0.26965078141E+02  0.80034489570E+02  0.39886613676E+03  0.40770924691E+03  0.00000000000E+00 0.  1.
         11    1    1    2    0    0  0.61226552388E+02 -0.76147621983E+02 -0.44681274850E+03  0.45737160305E+03  0.00000000000E+00 0. -1.
        -15    1    3    3    0    0 -0.10444402933E+02 -0.37689947352E+02  0.38425624245E+01  0.39338793818E+02  0.17770000000E+01 0.  1.
         15    1    3    3    0    0 -0.77747227596E+02  0.33803079765E+02  0.44104049322E+02  0.95580356225E+02  0.17770000000E+01 0. -1.
</event>
<event>
 7    1  0.5285153E-006  0.5101331E+03  0.7546771E-02  0.9377417E-01
        -11   -1    0    0    0    0  0.00000000000E+00  0.00000000000E+00  0.50000000000E+03  0.50000000000E+03  0.00000000000E+00 0.  1.
         11   -1    0    0    0    0 -0.00000000000E+00 -0.00000000000E+00 -0.50000000000E+03  0.50000000000E+03  0.00000000000E+00 0. -1.
         23    2    1    2    0    0 -0.98201268228E+02 -0.51179191921E+02  0.15986914958E+03  0.21458337546E+03  0.90692233783E+02 0.  0.
        -11    1    1    2    0    0 -0.15409385552E+03 -0.90310368521E+02  0.23547559216E+03  0.29554971405E+03  0.00000000000E+00 0.  1.
         11    1    1    2    0    0  0.25229512375E+03  0.14148956044E+03 -0.39534474173E+03  0.48986691050E+03  0.00000000000E+00 0. -1.
        -15    1    3    3    0    0 -0.67779346253E+02 -0.36361746941E+02  0.33790863679E+02  0.84030926546E+02  0.17770000000E+01 0. -1.
         15    1    3    3    0    0 -0.30421921975E+02 -0.14817444980E+02  0.12607828590E+03  0.13055244891E+03  0.17770000000E+01 0.  1.
</event>
<event>
 7    1  0.5285153E-006  0.5261365E+03  0.7546771E-02  0.9343154E-01
        -11   -1    0    0    0    0  0.00000000000E+00  0.00000000000E+00  0.50000000000E+03  0.50000000000E+03  0.00000000000E+00 0.  1.
         11   -1    0    0    0    0 -0.00000000000E+00 -0.00000000000E+00 -0.50000000000E+03  0.50000000000E+03  0.00000000000E+00 0.  1.
         23    2    1    2    0    0  0.43069622965E+02  0.57672652734E+01 -0.27328431724E+03  0.29301627776E+03  0.96363723536E+02 0.  0.
        -11    1    1    2    0    0  0.85248426281E+02 -0.44634968287E+02  0.46399038054E+03  0.47386353290E+03  0.00000000000E+00 0.  1.
         11    1    1    2    0    0 -0.12831804925E+03  0.38867703014E+02 -0.19070606330E+03  0.23312018934E+03  0.00000000000E+00 0.  1.
        -15    1    3    3    0    0  0.18090356804E+01 -0.42255836716E+02 -0.11331982217E+03  0.12096845941E+03  0.17770000000E+01 0. -1.
         15    1    3    3    0    0  0.41260587285E+02  0.48023101989E+02 -0.15996449507E+03  0.17204781835E+03  0.17770000000E+01 0.  1.
</event>
<event>
 7    1  0.5285153E-006  0.3435552E+03  0.7546771E-02  0.9839660E-01
        -11   -1    0    0    0    0  0.00000000000E+00  0.00000000000E+00  0.50000000000E+03  0.50000000000E+03  0.00000000000E+00 0.  1.
         11   -1    0    0    0    0 -0.00000000000E+00 -0.00000000000E+00 -0.50000000000E+03  0.50000000000E+03  0.00000000000E+00 0. -1.
         23    2    1    2    0    0 -0.18822137921E+03 -0.99817847615E+02 -0.18366563912E+03  0.30313664085E+03  0.11299498104E+03 0.  0.
        -11    1    1    2    0    0  0.27200679903E+02  0.92316788802E+02  0.40879725679E+03  0.41997317015E+03  0.00000000000E+00 0.  1.
         11    1    1    2    0    0  0.16102069930E+03  0.75010588131E+01 -0.22513161767E+03  0.27689018900E+03  0.00000000000E+00 0. -1.
        -15    1    3    3    0    0 -0.60971016500E+02 -0.17103507436E+02  0.19315211576E+01  0.63378887041E+02  0.17770000000E+01 0.  1.
         15    1    3    3    0    0 -0.12725036271E+03 -0.82714340179E+02 -0.18559716028E+03  0.23975775381E+03  0.17770000000E+01 0. -1.
</event>
<event>
 7    1  0.5285153E-006  0.5090350E+03  0.7546771E-02  0.9379817E-01
        -11   -1    0    0    0    0  0.00000000000E+00  0.00000000000E+00  0.50000000000E+03  0.50000000000E+03  0.00000000000E+00 0.  1.
         11   -1    0    0    0    0 -0.00000000000E+00 -0.00000000000E+00 -0.50000000000E+03  0.50000000000E+03  0.00000000000E+00 0.  1.
         23    2    1    2    0    0 -0.69587125496E+02 -0.95058418426E+02  0.38252697910E+03  0.41112476728E+03  0.93905343725E+02 0.  0.
        -11    1    1    2    0    0  0.24062779639E+02 -0.29779935667E+02  0.90114080782E+02  0.97910211355E+02  0.00000000000E+00 0.  1.
         11    1    1    2    0    0  0.45524345857E+02  0.12483835409E+03 -0.47264105988E+03  0.49096502137E+03  0.00000000000E+00 0.  1.
        -15    1    3    3    0    0 -0.24606664072E+02  0.16596916359E+02  0.90366752102E+02  0.95132818542E+02  0.17770000000E+01 0.  1.
         15    1    3    3    0    0 -0.44980461424E+02 -0.11165533479E+03  0.29216022700E+03  0.31599194874E+03  0.17770000000E+01 0. -1.
</event>
<event>
 7    1  0.5285153E-006  0.5107219E+03  0.7546771E-02  0.9376133E-01
        -11   -1    0    0    0    0  0.00000000000E+00  0.00000000000E+00  0.50000000000E+03  0.50000000000E+03  0.00000000000E+00 0. -1.
         11   -1    0    0    0    0 -0.00000000000E+00 -0.00000000000E+00 -0.50000000000E+03  0.50000000000E+03  0.00000000000E+00 0.  1.
         23    2    1    2    0    0 -0.16429020464E+01  0.58605162301E+02 -0.23361883976E+03  0.25576523985E+03  0.86028085227E+02 0.  0.
        -11    1    1    2    0    0  0.71802316944E+02 -0.16008232821E+03  0.45673971270E+03  0.48927813121E+03  0.00000000000E+00 0. -1.
         11    1    1    2    0    0 -0.70159414898E+02  0.10147716591E+03 -0.22312087294E+03  0.25495662894E+03  0.00000000000E+00 0.  1.
        -15    1    3    3    0    0 -0.88562475019E+01  0.10827686414E+02  0.28651702795E+01  0.14388844381E+02  0.17770000000E+01 0.  1.
         15    1    3    3    0    0  0.72133454555E+01  0.47777475887E+02 -0.23648401004E+03  0.24137639547E+03  0.17770000000E+01 0. -1.
</event>
<event>
 7    1  0.5285153E-006  0.5218287E+03  0.7546771E-02  0.9352249E-01
        -11   -1    0    0    0    0  0.00000000000E+00  0.00000000000E+00  0.50000000000E+03  0.50000000000E+03  0.00000000000E+00 0.  1.
         11   -1    0    0    0    0 -0.00000000000E+00 -0.00000000000E+00 -0.50000000000E+03  0.50000000000E+03  0.00000000000E+00 0. -1.
         23    2    1    2    0    0  0.24949462392E+02  0.61564653023E+01 -0.40029889261E+03  0.41119778536E+03  0.90465670403E+02 0.  0.
        -11    1    1    2    0    0 -0.70120396820E+02 -0.83164054439E+02  0.46563358879E+03  0.47817127581E+03  0.00000000000E+00 0.  1.
         11    1    1    2    0    0  0.45170934428E+02  0.77007589137E+02 -0.65334696174E+02  0.11063093883E+03  0.00000000000E+00 0. -1.
        -15    1    3    3    0    0  0.50574849361E+02 -0.20090463674E+02 -0.28623275655E+03  0.29136539048E+03  0.17770000000E+01 0.  1.
         15    1    3    3    0    0 -0.25625386969E+02  0.26246928977E+02 -0.11406613607E+03  0.11983239489E+03  0.17770000000E+01 0. -1.
</event>
<event>
 6    1  0.5486109E-006  0.3492713E+03  0.7546771E-02  0.9819438E-01
        -11   -1    0    0    0    0  0.00000000000E+00  0.00000000000E+00  0.50000000000E+03  0.50000000000E+03  0.00000000000E+00 0. -1.
         11   -1    0    0    0    0 -0.00000000000E+00 -0.00000000000E+00 -0.50000000000E+03  0.50000000000E+03  0.00000000000E+00 0.  1.
        -11    1    1    2    0    0  0.60735729411E+02  0.24383796665E+02  0.29112651958E+03  0.29839244087E+03  0.00000000000E+00 0. -1.
         11    1    1    2    0    0  0.98927957522E+02 -0.14507778571E+03 -0.39937916702E+03  0.43627746187E+03  0.00000000000E+00 0.  1.
        -15    1    1    2    0    0 -0.41150153152E+02  0.18692624216E+02  0.98810399597E+02  0.10867107298E+03  0.17770000000E+01 0. -1.
         15    1    1    2    0    0 -0.11851353378E+03  0.10200136483E+03  0.94422478428E+01  0.15665902428E+03  0.17770000000E+01 0.  1.
</event>
<event>
 7    1  0.5285153E-006  0.5271499E+03  0.7546771E-02  0.9341028E-01
        -11   -1    0    0    0    0  0.00000000000E+00  0.00000000000E+00  0.50000000000E+03  0.50000000000E+03  0.00000000000E+00 0.  1.
         11   -1    0    0    0    0 -0.00000000000E+00 -0.00000000000E+00 -0.50000000000E+03  0.50000000000E+03  0.00000000000E+00 0. -1.
         23    2    1    2    0    0  0.32959201133E+02  0.11536338514E+03  0.14565184263E+03  0.20904921085E+03  0.89956065522E+02 0.  0.
        -11    1    1    2    0    0 -0.14348870359E+03  0.69678784302E+02  0.27521611507E+03  0.31810069323E+03  0.00000000000E+00 0.  1.
         11    1    1    2    0    0  0.11052950246E+03 -0.18504216944E+03 -0.42086795770E+03  0.47285009592E+03  0.00000000000E+00 0. -1.
        -15    1    3    3    0    0 -0.26115549720E+02  0.39083413886E+02  0.21269767928E+02  0.51624567164E+02  0.17770000000E+01 0.  1.
         15    1    3    3    0    0  0.59074750852E+02  0.76279971256E+02  0.12438207471E+03  0.15742464369E+03  0.17770000000E+01 0. -1.
</event>
<event>
 7    1  0.5285153E-006  0.4095073E+03  0.7546771E-02  0.9628720E-01
        -11   -1    0    0    0    0  0.00000000000E+00  0.00000000000E+00  0.50000000000E+03  0.50000000000E+03  0.00000000000E+00 0. -1.
         11   -1    0    0    0    0 -0.00000000000E+00 -0.00000000000E+00 -0.50000000000E+03  0.50000000000E+03  0.00000000000E+00 0.  1.
         23    2    1    2    0    0 -0.82758185925E+01 -0.10114027019E+03 -0.35744963247E+03  0.38222364954E+03  0.89592606205E+02 0.  0.
        -11    1    1    2    0    0  0.11982647928E+03 -0.98613602251E+01  0.42854624793E+03  0.44509270740E+03  0.00000000000E+00 0. -1.
         11    1    1    2    0    0 -0.11155066068E+03  0.11100163041E+03 -0.71096615460E+02  0.17268364307E+03  0.00000000000E+00 0.  1.
        -15    1    3    3    0    0  0.11090926423E+02 -0.11204756714E+03 -0.28580800448E+03  0.30719218595E+03  0.17770000000E+01 0.  1.
         15    1    3    3    0    0 -0.19366745016E+02  0.10907296951E+02 -0.71641627986E+02  0.75031463592E+02  0.17770000000E+01 0. -1.
</event>
<event>
 7    1  0.5285153E-006  0.3643412E+03  0.7546771E-02  0.9768057E-01
        -11   -1    0    0    0    0  0.00000000000E+00  0.00000000000E+00  0.50000000000E+03  0.50000000000E+03  0.00000000000E+00 0.  1.
         11   -1    0    0    0    0 -0.00000000000E+00 -0.00000000000E+00 -0.50000000000E+03  0.50000000000E+03  0.00000000000E+00 0. -1.
         23    2    1    2    0    0  0.88565743928E+02 -0.27341686846E+02 -0.29636766729E+03  0.32341972027E+03  0.90416051715E+02 0.  0.
        -11    1    1    2    0    0 -0.35322180410E+02 -0.19111221598E+03  0.38786119289E+03  0.43382927573E+03  0.00000000000E+00 0.  1.
         11    1    1    2    0    0 -0.53243563518E+02  0.21845390282E+03 -0.91493525600E+02  0.24275100400E+03  0.00000000000E+00 0. -1.
        -15    1    3    3    0    0  0.35082331545E+02 -0.51284841518E+02 -0.93709743740E+02  0.11245256225E+03  0.17770000000E+01 0.  1.
         15    1    3    3    0    0  0.53483412383E+02  0.23943154672E+02 -0.20265792356E+03  0.21096715802E+03  0.17770000000E+01 0. -1.
</event>
<event>
 7    1  0.5285153E-006  0.5280119E+03  0.7546771E-02  0.9339224E-01
        -11   -1    0    0    0    0  0.00000000000E+00  0.00000000000E+00  0.50000000000E+03  0.50000000000E+03  0.00000000000E+00 0.  1.
         11   -1    0    0    0    0 -0.00000000000E+00 -0.00000000000E+00 -0.50000000000E+03  0.50000000000E+03  0.00000000000E+00 0.  1.
         23    2    1    2    0    0  0.44489778419E+02  0.88138988310E+02  0.40285929636E+02  0.14110715717E+03  0.92414566137E+02 0.  0.
        -11    1    1    2    0    0  0.13823606612E+03  0.12536303259E+03  0.33892501265E+03  0.38690472228E+03  0.00000000000E+00 0.  1.
         11    1    1    2    0    0 -0.18272584454E+03 -0.21350202090E+03 -0.37921094229E+03  0.47198812055E+03  0.00000000000E+00 0.  1.
        -15    1    3    3    0    0  0.31202241499E+02  0.58208660073E+02  0.70426282127E+02  0.96565246985E+02  0.17770000000E+01 0.  1.
         15    1    3    3    0    0  0.13287536920E+02  0.29930328236E+02 -0.30140352491E+02  0.44541910186E+02  0.17770000000E+01 0. -1.
</event>
<event>
 7    1  0.5285153E-006  0.4035986E+03  0.7546771E-02  0.9645827E-01
        -11   -1    0    0    0    0  0.00000000000E+00  0.00000000000E+00  0.50000000000E+03  0.50000000000E+03  0.00000000000E+00 0. -1.
         11   -1    0    0    0    0 -0.00000000000E+00 -0.00000000000E+00 -0.50000000000E+03  0.50000000000E+03  0.00000000000E+00 0. -1.
         23    2    1    2    0    0 -0.25194992588E+03 -0.23988824400E+02  0.23769613702E+03  0.35882914752E+03  0.90579659461E+02 0.  0.
        -11    1    1    2    0    0  0.48100397575E+02  0.31695057226E+02  0.17314304940E+03  0.18247394459E+03  0.00000000000E+00 0. -1.
         11    1    1    2    0    0  0.20384952831E+03 -0.77062328263E+01 -0.41083918641E+03  0.45869690789E+03  0.00000000000E+00 0. -1.
        -15    1    3    3    0    0 -0.17229653028E+03 -0.49072177141E+02  0.12457600822E+03  0.21821208140E+03  0.17770000000E+01 0.  1.
         15    1    3    3    0    0 -0.79653395604E+02  0.25083352741E+02  0.11312012880E+03  0.14061706612E+03  0.17770000000E+01 0. -1.
</event>
<event>
 7    1  0.1061276E-005  0.3437787E+03  0.7546771E-02  0.9838861E-01
        -11   -1    0    0    0    0  0.00000000000E+00  0.00000000000E+00  0.50000000000E+03  0.50000000000E+03  0.00000000000E+00 0.  1.
         11   -1    0    0    0    0 -0.00000000000E+00 -0.00000000000E+00 -0.50000000000E+03  0.50000000000E+03  0.00000000000E+00 0.  1.
         23    2    1    2    0    0  0.23245830443E+03  0.44988534141E+02 -0.44645358900E+02  0.27144720529E+03  0.12501818143E+03 0.  0.
        -11    1    1    2    0    0  0.26288831982E+02 -0.91206170743E+02  0.32835580376E+03  0.34179994461E+03  0.00000000000E+00 0.  1.
         11    1    1    2    0    0 -0.25874713641E+03  0.46217636603E+02 -0.28371044486E+03  0.38675285010E+03  0.00000000000E+00 0.  1.
        -15    1    3    3    0    0  0.91791913567E+02  0.79443590410E+02 -0.60616916567E+01  0.12156044294E+03  0.17770000000E+01 0.  1.
         15    1    3    3    0    0  0.14066639086E+03 -0.34455056269E+02 -0.38583667244E+02  0.14988676235E+03  0.17770000000E+01 0.  1.
</event>
<event>
 7    1  0.5925884E-006  0.5063000E+03  0.7546771E-02  0.9385822E-01
        -11   -1    0    0    0    0  0.00000000000E+00  0.00000000000E+00  0.50000000000E+03  0.50000000000E+03  0.00000000000E+00 0. -1.
         11   -1    0    0    0    0 -0.00000000000E+00 -0.00000000000E+00 -0.50000000000E+03  0.50000000000E+03  0.00000000000E+00 0.  1.
         23    2    1    2    0    0  0.68250073985E+02  0.92210113947E+01  0.38759013730E+03  0.40422327971E+03  0.91800030933E+02 0.  0.
        -11    1    1    2    0    0  0.37296657891E+02 -0.78558319751E+01  0.94693720848E+02  0.10207671406E+03  0.00000000000E+00 0. -1.
         11    1    1    2    0    0 -0.10554673188E+03 -0.13651794196E+01 -0.48228385814E+03  0.49370000623E+03  0.00000000000E+00 0.  1.
        -15    1    3    3    0    0  0.58269978330E+02 -0.18986426493E+02  0.35372277798E+03  0.35899698628E+03  0.17770000000E+01 0. -1.
         15    1    3    3    0    0  0.99800956550E+01  0.28207437888E+02  0.33867359317E+02  0.45226293432E+02  0.17770000000E+01 0.  1.
</event>
<event>
 7    1  0.5285153E-006  0.5102389E+03  0.7546771E-02  0.9377186E-01
        -11   -1    0    0    0    0  0.00000000000E+00  0.00000000000E+00  0.50000000000E+03  0.50000000000E+03  0.00000000000E+00 0.  1.
         11   -1    0    0    0    0 -0.00000000000E+00 -0.00000000000E+00 -0.50000000000E+03  0.50000000000E+03  0.00000000000E+00 0. -1.
         23    2    1    2    0    0 -0.15052980446E+03 -0.83429469492E+02  0.26215763229E+03  0.32670616272E+03  0.91600186586E+02 0.  0.
        -11    1    1    2    0    0 -0.26484215379E+02 -0.61305787784E+02  0.17095164364E+03  0.18353277021E+03  0.00000000000E+00 0.  1.
         11    1    1    2    0    0  0.17701401984E+03  0.14473525728E+03 -0.43310927592E+03  0.48976106706E+03  0.00000000000E+00 0. -1.
        -15    1    3    3    0    0 -0.87786554022E+02 -0.95787476144E+02  0.19110309670E+03  0.23109580470E+03  0.17770000000E+01 0.  1.
         15    1    3    3    0    0 -0.62743250441E+02  0.12358006652E+02  0.71054535585E+02  0.95610358019E+02  0.17770000000E+01 0. -1.
</event>
<event>
 6    1  0.5285153E-006  0.5233239E+03  0.7546771E-02  0.9349082E-01
        -11   -1    0    0    0    0  0.00000000000E+00  0.00000000000E+00  0.50000000000E+03  0.50000000000E+03  0.00000000000E+00 0.  1.
         11   -1    0    0    0    0 -0.00000000000E+00 -0.00000000000E+00 -0.50000000000E+03  0.50000000000E+03  0.00000000000E+00 0.  1.
        -11    1    1    2    0    0 -0.85242890055E+02  0.13522165017E+02  0.89633727047E+02  0.12443232810E+03  0.00000000000E+00 0.  1.
         11    1    1    2    0    0  0.11704937337E+03  0.27885752072E+02 -0.46123952056E+03  0.47667606013E+03  0.00000000000E+00 0.  1.
        -15    1    1    2    0    0  0.39252321573E+02 -0.54717153947E+02  0.23316497410E+03  0.24270099827E+03  0.17770000000E+01 0.  1.
         15    1    1    2    0    0 -0.71058804883E+02  0.13309236858E+02  0.13844081941E+03  0.15619061350E+03  0.17770000000E+01 0. -1.
</event>
<event>
 7    1  0.5285153E-006  0.3712882E+03  0.7546771E-02  0.9745259E-01
        -11   -1    0    0    0    0  0.00000000000E+00  0.00000000000E+00  0.50000000000E+03  0.50000000000E+03  0.00000000000E+00 0.  1.
         11   -1    0    0    0    0 -0.00000000000E+00 -0.00000000000E+00 -0.50000000000E+03  0.50000000000E+03  0.00000000000E+00 0. -1.
         23    2    1    2    0    0 -0.18971068191E+03  0.69213869333E+02  0.53880726860E+02  0.22857049166E+03  0.92523696372E+02 0.  0.
        -11    1    1    2    0    0  0.12862254394E+03  0.51423071638E+02  0.33350129213E+03  0.36112491324E+03  0.00000000000E+00 0.  1.
         11    1    1    2    0    0  0.61088137974E+02 -0.12063694097E+03 -0.38738201899E+03  0.41030459511E+03  0.00000000000E+00 0. -1.
        -15    1    3    3    0    0 -0.10567943407E+03  0.59297680550E+02 -0.11341567387E+02  0.12172159457E+03  0.17770000000E+01 0.  1.
         15    1    3    3    0    0 -0.84031247840E+02  0.99161887834E+01  0.65222294247E+02  0.10684889709E+03  0.17770000000E+01 0. -1.
</event>
<event>
 7    1  0.5285153E-006  0.3174192E+03  0.7546771E-02  0.9937814E-01
        -11   -1    0    0    0    0  0.00000000000E+00  0.00000000000E+00  0.50000000000E+03  0.50000000000E+03  0.00000000000E+00 0.  1.
         11   -1    0    0    0    0 -0.00000000000E+00 -0.00000000000E+00 -0.50000000000E+03  0.50000000000E+03  0.00000000000E+00 0. -1.
         23    2    1    2    0    0 -0.18059622597E+03  0.36383704747E+02 -0.22100812301E+03  0.30300415760E+03  0.95016621081E+02 0.  0.
        -11    1    1    2    0    0 -0.10680130862E+03  0.84055243454E+02  0.33787706044E+03  0.36418774203E+03  0.00000000000E+00 0.  1.
         11    1    1    2    0    0  0.28739753459E+03 -0.12043894820E+03 -0.11686893743E+03  0.33280810037E+03  0.00000000000E+00 0. -1.
        -15    1    3    3    0    0 -0.22760290333E+02  0.33392964823E+02 -0.86919850281E+02  0.95871471344E+02  0.17770000000E+01 0.  1.
         15    1    3    3    0    0 -0.15783593564E+03  0.29907399235E+01 -0.13408827273E+03  0.20713268626E+03  0.17770000000E+01 0. -1.
</event>
<event>
 7    1  0.5285153E-006  0.3812006E+03  0.7546771E-02  0.9713638E-01
        -11   -1    0    0    0    0  0.00000000000E+00  0.00000000000E+00  0.50000000000E+03  0.50000000000E+03  0.00000000000E+00 0.  1.
         11   -1    0    0    0    0 -0.00000000000E+00 -0.00000000000E+00 -0.50000000000E+03  0.50000000000E+03  0.00000000000E+00 0. -1.
         23    2    1    2    0    0 -0.26333998911E+03  0.11238377177E+03 -0.21575373846E+03  0.36968849418E+03  0.90232173017E+02 0.  0.
        -11    1    1    2    0    0  0.16076576985E+03 -0.13052731590E+02  0.37991752421E+03  0.41273881785E+03  0.00000000000E+00 0.  1.
         11    1    1    2    0    0  0.10257421925E+03 -0.99331040180E+02 -0.16416378575E+03  0.21757268797E+03  0.00000000000E+00 0. -1.
        -15    1    3    3    0    0 -0.12678807773E+03  0.10191781800E+02 -0.69224602295E+02  0.14482504052E+03  0.17770000000E+01 0.  1.
         15    1    3    3    0    0 -0.13655191138E+03  0.10219198997E+03 -0.14652913617E+03  0.22486345366E+03  0.17770000000E+01 0. -1.
</event>
<event>
 7    1  0.5285153E-006  0.4275241E+03  0.7546771E-02  0.9578399E-01
        -11   -1    0    0    0    0  0.00000000000E+00  0.00000000000E+00  0.50000000000E+03  0.50000000000E+03  0.00000000000E+00 0. -1.
         11   -1    0    0    0    0 -0.00000000000E+00 -0.00000000000E+00 -0.50000000000E+03  0.50000000000E+03  0.00000000000E+00 0.  1.
         23    2    1    2    0    0 -0.37656746413E+02 -0.66110944258E+01  0.37931945854E+03  0.39211726039E+03  0.91711270551E+02 0.  0.
        -11    1    1    2    0    0 -0.18620593398E+02  0.12494792954E+03  0.66810451525E+02  0.14290678090E+03  0.00000000000E+00 0. -1.
         11    1    1    2    0    0  0.56277339811E+02 -0.11833683512E+03 -0.44612991007E+03  0.46497595871E+03  0.00000000000E+00 0.  1.
        -15    1    3    3    0    0 -0.58924866494E+02 -0.29680476938E+02  0.29044341907E+03  0.29784829698E+03  0.17770000000E+01 0. -1.
         15    1    3    3    0    0  0.21268120081E+02  0.23069382512E+02  0.88876039468E+02  0.94268963406E+02  0.17770000000E+01 0.  1.
</event>
<event>
 7    1  0.5285153E-006  0.5196412E+03  0.7546771E-02  0.9356903E-01
        -11   -1    0    0    0    0  0.00000000000E+00  0.00000000000E+00  0.50000000000E+03  0.50000000000E+03  0.00000000000E+00 0.  1.
         11   -1    0    0    0    0 -0.00000000000E+00 -0.00000000000E+00 -0.50000000000E+03  0.50000000000E+03  0.00000000000E+00 0. -1.
         23    2    1    2    0    0 -0.10114883038E+01  0.10339102356E+03  0.25310098216E+03  0.28929505841E+03  0.94555786647E+02 0.  0.
        -11    1    1    2    0    0 -0.84279441334E+02 -0.24407666161E+02  0.21298022123E+03  0.23034611574E+03  0.00000000000E+00 0.  1.
         11    1    1    2    0    0  0.85290929638E+02 -0.78983357395E+02 -0.46608120339E+03  0.48035882586E+03  0.00000000000E+00 0. -1.
        -15    1    3    3    0    0 -0.37580974949E+01  0.68506725816E+02  0.54534504692E+02  0.87661078648E+02  0.17770000000E+01 0.  1.
         15    1    3    3    0    0  0.27466091911E+01  0.34884297741E+02  0.19856647747E+03  0.20163397976E+03  0.17770000000E+01 0. -1.
</event>
<event>
 7    1  0.5285153E-006  0.4933343E+03  0.7546771E-02  0.9414850E-01
        -11   -1    0    0    0    0  0.00000000000E+00  0.00000000000E+00  0.50000000000E+03  0.50000000000E+03  0.00000000000E+00 0. -1.
         11   -1    0    0    0    0 -0.00000000000E+00 -0.00000000000E+00 -0.50000000000E+03  0.50000000000E+03  0.00000000000E+00 0. -1.
         23    2    1    2    0    0 -0.84157829174E+01 -0.12904936829E+03 -0.46271351779E+03  0.48890675788E+03  0.90561876615E+02 0.  0.
        -11    1    1    2    0    0  0.95389015553E+01  0.11254083912E+03  0.47640891915E+03  0.48961402079E+03  0.00000000000E+00 0. -1.
         11    1    1    2    0    0 -0.11231186379E+01  0.16508529165E+02 -0.13695401356E+02  0.21479221331E+02  0.00000000000E+00 0. -1.
        -15    1    3    3    0    0 -0.39089235027E+02 -0.20914456720E+02 -0.15828319253E+03  0.16438403074E+03  0.17770000000E+01 0.  1.
         15    1    3    3    0    0  0.30673452110E+02 -0.10813491157E+03 -0.30443032526E+03  0.32452272714E+03  0.17770000000E+01 0. -1.
</event>
<event>
 7    1  0.5285153E-006  0.5126211E+03  0.7546771E-02  0.9372003E-01
        -11   -1    0    0    0    0  0.00000000000E+00  0.00000000000E+00  0.50000000000E+03  0.50000000000E+03  0.00000000000E+00 0.  1.
         11   -1    0    0    0    0 -0.00000000000E+00 -0.00000000000E+00 -0.50000000000E+03  0.50000000000E+03  0.00000000000E+00 0. -1.
         23    2    1    2    0    0  0.27433148579E+02  0.64731569489E+02 -0.26458997630E+03  0.28861402797E+03  0.91364368640E+02 0.  0.
        -11    1    1    2    0    0  0.14617233036E+02 -0.17675070973E+03  0.45396438923E+03  0.48737885016E+03  0.00000000000E+00 0.  1.
         11    1    1    2    0    0 -0.42050381615E+02  0.11201914024E+03 -0.18937441293E+03  0.22400712187E+03  0.00000000000E+00 0. -1.
        -15    1    3    3    0    0  0.32807524758E+00 -0.22973867477E+02 -0.43755295648E+02  0.49452905339E+02  0.17770000000E+01 0.  1.
         15    1    3    3    0    0  0.27105073331E+02  0.87705436966E+02 -0.22083468065E+03  0.23916112263E+03  0.17770000000E+01 0. -1.
</event>
<event>
 7    1  0.5285153E-006  0.3971497E+03  0.7546771E-02  0.9664860E-01
        -11   -1    0    0    0    0  0.00000000000E+00  0.00000000000E+00  0.50000000000E+03  0.50000000000E+03  0.00000000000E+00 0.  1.
         11   -1    0    0    0    0 -0.00000000000E+00 -0.00000000000E+00 -0.50000000000E+03  0.50000000000E+03  0.00000000000E+00 0. -1.
         23    2    1    2    0    0 -0.10850127883E+02 -0.10989406415E+03 -0.37013334403E+03  0.39709181438E+03  0.92134608479E+02 0.  0.
        -11    1    1    2    0    0  0.31496408621E+01 -0.80421634138E+02  0.40183577289E+03  0.40981648070E+03  0.00000000000E+00 0.  1.
         11    1    1    2    0    0  0.77004870211E+01  0.19031569828E+03 -0.31702428865E+02  0.19309170492E+03  0.00000000000E+00 0. -1.
        -15    1    3    3    0    0  0.29086049062E+02 -0.89305532430E+02 -0.19756721508E+03  0.21876343062E+03  0.17770000000E+01 0.  1.
         15    1    3    3    0    0 -0.39936176946E+02 -0.20588531717E+02 -0.17256612894E+03  0.17832838376E+03  0.17770000000E+01 0. -1.
</event>
<event>
 7    1  0.5285153E-006  0.5194023E+03  0.7546771E-02  0.9357412E-01
        -11   -1    0    0    0    0  0.00000000000E+00  0.00000000000E+00  0.50000000000E+03  0.50000000000E+03  0.00000000000E+00 0. -1.
         11   -1    0    0    0    0 -0.00000000000E+00 -0.00000000000E+00 -0.50000000000E+03  0.50000000000E+03  0.00000000000E+00 0. -1.
         23    2    1    2    0    0 -0.33796855472E+02  0.16087240681E+02 -0.26203532685E+03  0.27822760403E+03  0.85714995029E+02 0.  0.
        -11    1    1    2    0    0 -0.76587873082E+02 -0.72737609070E+02  0.46884722902E+03  0.48059773848E+03  0.00000000000E+00 0. -1.
         11    1    1    2    0    0  0.11038472855E+03  0.56650368389E+02 -0.20681190217E+03  0.24117465749E+03  0.00000000000E+00 0. -1.
        -15    1    3    3    0    0 -0.58381422460E+02  0.26172264377E+02 -0.21323047489E+03  0.22262922329E+03  0.17770000000E+01 0.  1.
         15    1    3    3    0    0  0.24584566988E+02 -0.10085023696E+02 -0.48804851956E+02  0.55598380735E+02  0.17770000000E+01 0. -1.
</event>
<event>
 7    1  0.5285153E-006  0.4210913E+03  0.7546771E-02  0.9596057E-01
        -11   -1    0    0    0    0  0.00000000000E+00  0.00000000000E+00  0.50000000000E+03  0.50000000000E+03  0.00000000000E+00 0.  1.
         11   -1    0    0    0    0 -0.00000000000E+00 -0.00000000000E+00 -0.50000000000E+03  0.50000000000E+03  0.00000000000E+00 0. -1.
         23    2    1    2    0    0 -0.20614911889E+02  0.84251561038E+02 -0.57302564346E+02  0.15142574748E+03  0.11010391905E+03 0.  0.
        -11    1    1    2    0    0 -0.17871605635E+03 -0.94325560299E+02  0.40218782046E+03  0.45010196961E+03  0.00000000000E+00 0.  1.
         11    1    1    2    0    0  0.19933096823E+03  0.10073999261E+02 -0.34488525612E+03  0.39847228291E+03  0.00000000000E+00 0. -1.
        -15    1    3    3    0    0  0.37581118051E+01  0.10996944936E+02  0.31571035291E+02  0.33688932910E+02  0.17770000000E+01 0.  1.
         15    1    3    3    0    0 -0.24373023694E+02  0.73254616102E+02 -0.88873599637E+02  0.11773681457E+03  0.17770000000E+01 0. -1.
</event>
<event>
 6    1  0.5285153E-006  0.4889838E+03  0.7546771E-02  0.9424802E-01
        -11   -1    0    0    0    0  0.00000000000E+00  0.00000000000E+00  0.50000000000E+03  0.50000000000E+03  0.00000000000E+00 0.  1.
         11   -1    0    0    0    0 -0.00000000000E+00 -0.00000000000E+00 -0.50000000000E+03  0.50000000000E+03  0.00000000000E+00 0. -1.
        -11    1    1    2    0    0  0.99389080341E+02  0.34967994587E+02  0.47599312048E+03  0.48751451330E+03  0.00000000000E+00 0.  1.
         11    1    1    2    0    0 -0.23140354377E+02  0.86770134560E+00  0.39284670341E+01  0.23487480911E+02  0.00000000000E+00 0. -1.
        -15    1    1    2    0    0 -0.77020875119E+02 -0.25725412594E+02 -0.45198740331E+03  0.45922737564E+03  0.17770000000E+01 0. -1.
         15    1    1    2    0    0  0.77214915445E+00 -0.10110283339E+02 -0.27934184199E+02  0.29770630148E+02  0.17770000000E+01 0.  1.
</event>
<event>
 7    1  0.5285153E-006  0.5062719E+03  0.7546771E-02  0.9385884E-01
        -11   -1    0    0    0    0  0.00000000000E+00  0.00000000000E+00  0.50000000000E+03  0.50000000000E+03  0.00000000000E+00 0.  1.
         11   -1    0    0    0    0 -0.00000000000E+00 -0.00000000000E+00 -0.50000000000E+03  0.50000000000E+03  0.00000000000E+00 0.  1.
         23    2    1    2    0    0  0.59939071509E+01  0.10723893924E+03  0.34730235916E+03  0.37502140972E+03  0.92119553095E+02 0.  0.
        -11    1    1    2    0    0  0.10635947561E+02  0.21653762739E+02  0.12901428391E+03  0.13125050200E+03  0.00000000000E+00 0.  1.
         11    1    1    2    0    0 -0.16629854712E+02 -0.12889270198E+03 -0.47631664307E+03  0.49372808828E+03  0.00000000000E+00 0.  1.
        -15    1    3    3    0    0  0.21856739343E+02  0.52195063579E+02  0.61752352206E+02  0.83776801376E+02  0.17770000000E+01 0.  1.
         15    1    3    3    0    0 -0.15862832192E+02  0.55043875661E+02  0.28555000695E+03  0.29124460835E+03  0.17770000000E+01 0. -1.
</event>
<event>
 7    1  0.5285153E-006  0.5061959E+03  0.7546771E-02  0.9386052E-01
        -11   -1    0    0    0    0  0.00000000000E+00  0.00000000000E+00  0.50000000000E+03  0.50000000000E+03  0.00000000000E+00 0.  1.
         11   -1    0    0    0    0 -0.00000000000E+00 -0.00000000000E+00 -0.50000000000E+03  0.50000000000E+03  0.00000000000E+00 0. -1.
         23    2    1    2    0    0  0.65090179393E+02 -0.13328223881E+02  0.32624573624E+03  0.34451003632E+03  0.88524074165E+02 0.  0.
        -11    1    1    2    0    0  0.46905558850E+02  0.56603920142E+01  0.15462910250E+03  0.16168590176E+03  0.00000000000E+00 0.  1.
         11    1    1    2    0    0 -0.11199573824E+03  0.76678318670E+01 -0.48087483874E+03  0.49380406191E+03  0.00000000000E+00 0. -1.
        -15    1    3    3    0    0 -0.44479552991E+01  0.17294449274E+02  0.12957504627E+02  0.22134519132E+02  0.17770000000E+01 0. -1.
         15    1    3    3    0    0  0.69538134693E+02 -0.30622673155E+02  0.31328823161E+03  0.32237551719E+03  0.17770000000E+01 0.  1.
</event>
<event>
 7    1  0.5285153E-006  0.3529844E+03  0.7546771E-02  0.9806524E-01
        -11   -1    0    0    0    0  0.00000000000E+00  0.00000000000E+00  0.50000000000E+03  0.50000000000E+03  0.00000000000E+00 0. -1.
         11   -1    0    0    0    0 -0.00000000000E+00 -0.00000000000E+00 -0.50000000000E+03  0.50000000000E+03  0.00000000000E+00 0.  1.
         23    2    1    2    0    0  0.69652344962E+02 -0.12676204745E+03 -0.38535568663E+03  0.42175523458E+03  0.91969597375E+02 0.  0.
        -11    1    1    2    0    0 -0.37957049907E+02 -0.11435159507E+03  0.29527163435E+03  0.31890807921E+03  0.00000000000E+00 0. -1.
         11    1    1    2    0    0 -0.31695295054E+02  0.24111364252E+03  0.90084052280E+02  0.25933668621E+03  0.00000000000E+00 0.  1.
        -15    1    3    3    0    0  0.69619727636E+02 -0.34367453190E+02 -0.20233750976E+03  0.21672944862E+03  0.17770000000E+01 0.  1.
         15    1    3    3    0    0  0.32617326087E-01 -0.92394594261E+02 -0.18301817688E+03  0.20502578596E+03  0.17770000000E+01 0. -1.
</event>
<event>
 7    1  0.5285153E-006  0.5321643E+03  0.7546771E-02  0.9330583E-01
        -11   -1    0    0    0    0  0.00000000000E+00  0.00000000000E+00  0.50000000000E+03  0.50000000000E+03  0.00000000000E+00 0.  1.
         11   -1    0    0    0    0 -0.00000000000E+00 -0.00000000000E+00 -0.50000000000E+03  0.50000000000E+03  0.00000000000E+00 0.  1.
         23    2    1    2    0    0  0.13514533772E+03  0.66312148156E+02 -0.23700287470E+03  0.29550764946E+03  0.92156632812E+02 0.  0.
        -11    1    1    2    0    0 -0.58772493295E+02 -0.55872168438E+02  0.46075404860E+03  0.46783565327E+03  0.00000000000E+00 0.  1.
         11    1    1    2    0    0 -0.76372844424E+02 -0.10439979718E+02 -0.22375117390E+03  0.23665669727E+03  0.00000000000E+00 0.  1.
        -15    1    3    3    0    0  0.68864658671E+02  0.70619028695E+02 -0.19010844325E+03  0.21418162001E+03  0.17770000000E+01 0. -1.
         15    1    3    3    0    0  0.66280679048E+02 -0.43068805395E+01 -0.46894431452E+02  0.81326029445E+02  0.17770000000E+01 0.  1.
</event>
<event>
 7    1  0.5285153E-006  0.5146042E+03  0.7546771E-02  0.9367712E-01
        -11   -1    0    0    0    0  0.00000000000E+00  0.00000000000E+00  0.50000000000E+03  0.50000000000E+03  0.00000000000E+00 0.  1.
         11   -1    0    0    0    0 -0.00000000000E+00 -0.00000000000E+00 -0.50000000000E+03  0.50000000000E+03  0.00000000000E+00 0. -1.
         23    2    1    2    0    0  0.67742676300E+02  0.42219894218E+02  0.20762826252E+03  0.23938641419E+03  0.88457731397E+02 0.  0.
        -11    1    1    2    0    0  0.26996883203E+02 -0.55285425504E+02  0.26825276063E+03  0.27521782930E+03  0.00000000000E+00 0.  1.
         11    1    1    2    0    0 -0.94739559503E+02  0.13065531285E+02 -0.47588102315E+03  0.48539575651E+03  0.00000000000E+00 0. -1.
        -15    1    3    3    0    0  0.78246550303E+02  0.59743236339E+02  0.17658317385E+03  0.20217950425E+03  0.17770000000E+01 0.  1.
         15    1    3    3    0    0 -0.10503874003E+02 -0.17523342121E+02  0.31045088669E+02  0.37206909945E+02  0.17770000000E+01 0. -1.
</event>
<event>
 7    1  0.5285153E-006  0.5216275E+03  0.7546771E-02  0.9352676E-01
        -11   -1    0    0    0    0  0.00000000000E+00  0.00000000000E+00  0.50000000000E+03  0.50000000000E+03  0.00000000000E+00 0. -1.
         11   -1    0    0    0    0 -0.00000000000E+00 -0.00000000000E+00 -0.50000000000E+03  0.50000000000E+03  0.00000000000E+00 0. -1.
         23    2    1    2    0    0  0.39721748550E+02  0.11574832025E+03 -0.29441634834E+03  0.33131657440E+03  0.90078828532E+02 0.  0.
        -11    1    1    2    0    0 -0.65117888667E+02 -0.50168427330E+02  0.47125685943E+03  0.47837248884E+03  0.00000000000E+00 0. -1.
         11    1    1    2    0    0  0.25396140117E+02 -0.65579892924E+02 -0.17684051109E+03  0.19031093676E+03  0.00000000000E+00 0. -1.
        -15    1    3    3    0    0  0.61682286074E+02  0.62374461684E+02 -0.12814983477E+03  0.15530877556E+03  0.17770000000E+01 0.  1.
         15    1    3    3    0    0 -0.21960537523E+02  0.53373858570E+02 -0.16626651357E+03  0.17600779883E+03  0.17770000000E+01 0. -1.
</event>
<event>
 7    1  0.5285153E-006  0.4069898E+03  0.7546771E-02  0.9635971E-01
        -11   -1    0    0    0    0  0.00000000000E+00  0.00000000000E+00  0.50000000000E+03  0.50000000000E+03  0.00000000000E+00 0. -1.
         11   -1    0    0    0    0 -0.00000000000E+00 -0.00000000000E+00 -0.50000000000E+03  0.50000000000E+03  0.00000000000E+00 0.  1.
         23    2    1    2    0    0 -0.23186203755E+03  0.78514470737E+02  0.29265817653E+03  0.39324577708E+03  0.95230805564E+02 0.  0.
        -11    1    1    2    0    0  0.50192632653E+02 -0.14485232365E+03  0.90164430037E+02  0.17785140001E+03  0.00000000000E+00 0. -1.
         11    1    1    2    0    0  0.18166940490E+03  0.66337852916E+02 -0.38282260657E+03  0.42890282292E+03  0.00000000000E+00 0.  1.
        -15    1    3    3    0    0 -0.75881548808E+02  0.73862602943E+02  0.13251007638E+03  0.16963422896E+03  0.17770000000E+01 0.  1.
         15    1    3    3    0    0 -0.15598048874E+03  0.46518677936E+01  0.16014810015E+03  0.22361154812E+03  0.17770000000E+01 0. -1.
</event>
<event>
 7    1  0.5285153E-006  0.3969837E+03  0.7546771E-02  0.9665355E-01
        -11   -1    0    0    0    0  0.00000000000E+00  0.00000000000E+00  0.50000000000E+03  0.50000000000E+03  0.00000000000E+00 0.  1.
         11   -1    0    0    0    0 -0.00000000000E+00 -0.00000000000E+00 -0.50000000000E+03  0.50000000000E+03  0.00000000000E+00 0. -1.
         23    2    1    2    0    0 -0.54783251302E+02  0.35866392560E+02 -0.32585932469E+03  0.34544343031E+03  0.94123649082E+02 0.  0.
        -11    1    1    2    0    0  0.38725679368E+02 -0.21054772127E+03  0.40808083983E+03  0.46082533894E+03  0.00000000000E+00 0.  1.
         11    1    1    2    0    0  0.16057571934E+02  0.17468132871E+03 -0.82221515139E+02  0.19373123075E+03  0.00000000000E+00 0. -1.
        -15    1    3    3    0    0 -0.77028632296E+02  0.40501698692E+02 -0.29144054442E+03  0.30416203979E+03  0.17770000000E+01 0. -1.
         15    1    3    3    0    0  0.22245380994E+02 -0.46353061326E+01 -0.34418780274E+02  0.41281390517E+02  0.17770000000E+01 0.  1.
</event>
<event>
 7    1  0.5285153E-006  0.4146732E+03  0.7546771E-02  0.9614013E-01
        -11   -1    0    0    0    0  0.00000000000E+00  0.00000000000E+00  0.50000000000E+03  0.50000000000E+03  0.00000000000E+00 0.  1.
         11   -1    0    0    0    0 -0.00000000000E+00 -0.00000000000E+00 -0.50000000000E+03  0.50000000000E+03  0.00000000000E+00 0. -1.
         23    2    1    2    0    0  0.75315610984E+02  0.54664655549E+02 -0.93588118813E+02  0.16021732150E+03  0.90830547173E+02 0.  0.
        -11    1    1    2    0    0  0.21616070890E+03  0.63914248769E+02  0.36182601665E+03  0.42629631665E+03  0.00000000000E+00 0.  1.
         11    1    1    2    0    0 -0.29147631989E+03 -0.11857890432E+03 -0.26823789783E+03  0.41348636185E+03  0.00000000000E+00 0. -1.
        -15    1    3    3    0    0  0.51971961167E+02 -0.15039391883E+02 -0.24863241166E+02  0.59570181685E+02  0.17770000000E+01 0.  1.
         15    1    3    3    0    0  0.23343649817E+02  0.69704047433E+02 -0.68724877648E+02  0.10064713981E+03  0.17770000000E+01 0. -1.
</event>
<event>
 7    1  0.5285153E-006  0.4884652E+03  0.7546771E-02  0.9425996E-01
        -11   -1    0    0    0    0  0.00000000000E+00  0.00000000000E+00  0.50000000000E+03  0.50000000000E+03  0.00000000000E+00 0.  1.
         11   -1    0    0    0    0 -0.00000000000E+00 -0.00000000000E+00 -0.50000000000E+03  0.50000000000E+03  0.00000000000E+00 0.  1.
         23    2    1    2    0    0  0.20425409325E+02  0.72698043336E+02 -0.46919239310E+03  0.48395172530E+03  0.91463478134E+02 0.  0.
        -11    1    1    2    0    0 -0.14510138023E+02 -0.10302776373E+03  0.47354656711E+03  0.48484184579E+03  0.00000000000E+00 0.  1.
         11    1    1    2    0    0 -0.59152713021E+01  0.30329720392E+02 -0.43541740172E+01  0.31206428905E+02  0.00000000000E+00 0.  1.
        -15    1    3    3    0    0  0.52969999476E+02  0.66099926283E+02 -0.35828626420E+03  0.36816738849E+03  0.17770000000E+01 0.  1.
         15    1    3    3    0    0 -0.32544590152E+02  0.65981170531E+01 -0.11090612889E+03  0.11578433682E+03  0.17770000000E+01 0. -1.
</event>
<event>
 7    1  0.5285153E-006  0.3538380E+03  0.7546771E-02  0.9803579E-01
        -11   -1    0    0    0    0  0.00000000000E+00  0.00000000000E+00  0.50000000000E+03  0.50000000000E+03  0.00000000000E+00 0.  1.
         11   -1    0    0    0    0 -0.00000000000E+00 -0.00000000000E+00 -0.50000000000E+03  0.50000000000E+03  0.00000000000E+00 0. -1.
         23    2    1    2    0    0  0.14924710939E+03 -0.14846203629E+03 -0.26114222426E+03  0.34775597649E+03  0.91778439801E+02 0.  0.
        -11    1    1    2    0    0 -0.51720029076E+02 -0.54733787556E+02  0.38688958677E+03  0.39415009991E+03  0.00000000000E+00 0.  1.
         11    1    1    2    0    0 -0.97527080314E+02  0.20319582385E+03 -0.12574736251E+03  0.25809392360E+03  0.00000000000E+00 0. -1.
        -15    1    3    3    0    0  0.44354007554E+02 -0.47191466290E+02 -0.23446656866E+02  0.68900042989E+02  0.17770000000E+01 0.  1.
         15    1    3    3    0    0  0.10489310184E+03 -0.10127057000E+03 -0.23769556739E+03  0.27885593350E+03  0.17770000000E+01 0. -1.
</event>
<event>
 7    1  0.5285153E-006  0.5165454E+03  0.7546771E-02  0.9363531E-01
        -11   -1    0    0    0    0  0.00000000000E+00  0.00000000000E+00  0.50000000000E+03  0.50000000000E+03  0.00000000000E+00 0. -1.
         11   -1    0    0    0    0 -0.00000000000E+00 -0.00000000000E+00 -0.50000000000E+03  0.50000000000E+03  0.00000000000E+00 0.  1.
         23    2    1    2    0    0 -0.32732723765E+02 -0.10483111130E+02 -0.17182431571E+03  0.19933054705E+03  0.95014444663E+02 0.  0.
        -11    1    1    2    0    0  0.11185470246E+03 -0.93046897836E+02  0.46104138009E+03  0.48345460368E+03  0.00000000000E+00 0. -1.
         11    1    1    2    0    0 -0.79121978692E+02  0.10353000897E+03 -0.28921706439E+03  0.31721484928E+03  0.00000000000E+00 0.  1.
        -15    1    3    3    0    0 -0.42920100164E+02 -0.60121277024E+01 -0.18016494887E+03  0.18531283606E+03  0.17770000000E+01 0. -1.
         15    1    3    3    0    0  0.10187376399E+02 -0.44709834278E+01  0.83406331668E+01  0.14017710987E+02  0.17770000000E+01 0.  1.
</event>
<event>
 7    1  0.5285153E-006  0.3119982E+03  0.7546771E-02  0.9959449E-01
        -11   -1    0    0    0    0  0.00000000000E+00  0.00000000000E+00  0.50000000000E+03  0.50000000000E+03  0.00000000000E+00 0. -1.
         11   -1    0    0    0    0 -0.00000000000E+00 -0.00000000000E+00 -0.50000000000E+03  0.50000000000E+03  0.00000000000E+00 0.  1.
         23    2    1    2    0    0 -0.25293668881E+03  0.39930140766E+02 -0.14588271634E+03  0.30990975057E+03  0.95869191534E+02 0.  0.
        -11    1    1    2    0    0 -0.84820692999E+01 -0.30329096463E+03  0.64040153006E+02  0.31009433391E+03  0.00000000000E+00 0. -1.
         11    1    1    2    0    0  0.26141875811E+03  0.26336082386E+03  0.81842563333E+02  0.37999591552E+03  0.00000000000E+00 0.  1.
        -15    1    3    3    0    0 -0.22614152966E+02  0.12604306255E+01 -0.54624768848E+02  0.59160896717E+02  0.17770000000E+01 0.  1.
         15    1    3    3    0    0 -0.23032253585E+03  0.38669710141E+02 -0.91257947491E+02  0.25074885386E+03  0.17770000000E+01 0. -1.
</event>
<event>
 7    1  0.5285153E-006  0.5187608E+03  0.7546771E-02  0.9358783E-01
        -11   -1    0    0    0    0  0.00000000000E+00  0.00000000000E+00  0.50000000000E+03  0.50000000000E+03  0.00000000000E+00 0.  1.
         11   -1    0    0    0    0 -0.00000000000E+00 -0.00000000000E+00 -0.50000000000E+03  0.50000000000E+03  0.00000000000E+00 0. -1.
         23    2    1    2    0    0 -0.11987616266E+03  0.13519472926E+03  0.27749444977E+03  0.34383406701E+03  0.92578543898E+02 0.  0.
        -11    1    1    2    0    0  0.39100662120E+02  0.26904934739E+02  0.16836451999E+03  0.17492669574E+03  0.00000000000E+00 0.  1.
         11    1    1    2    0    0  0.80775500543E+02 -0.16209966400E+03 -0.44585896976E+03  0.48123923725E+03  0.00000000000E+00 0. -1.
        -15    1    3    3    0    0 -0.53266084369E+02  0.42248970025E+01  0.10009738466E+03  0.11348026103E+03  0.17770000000E+01 0. -1.
         15    1    3    3    0    0 -0.66610078294E+02  0.13096983226E+03  0.17739706511E+03  0.23035380598E+03  0.17770000000E+01 0.  1.
</event>
<event>
 6    1  0.9669195E-006  0.5281674E+03  0.7546771E-02  0.9338899E-01
        -11   -1    0    0    0    0  0.00000000000E+00  0.00000000000E+00  0.50000000000E+03  0.50000000000E+03  0.00000000000E+00 0. -1.
         11   -1    0    0    0    0 -0.00000000000E+00 -0.00000000000E+00 -0.50000000000E+03  0.50000000000E+03  0.00000000000E+00 0.  1.
        -11    1    1    2    0    0 -0.87524720833E+02 -0.28363832715E+02  0.21804832611E+03  0.23666464941E+03  0.00000000000E+00 0. -1.
         11    1    1    2    0    0  0.10122303971E+03  0.74933507120E+02 -0.45471406715E+03  0.47183261557E+03  0.00000000000E+00 0.  1.
        -15    1    1    2    0    0  0.47988140761E+02  0.16118096521E+01  0.19881775408E+03  0.20454123460E+03  0.17770000000E+01 0. -1.
         15    1    1    2    0    0 -0.61686459636E+02 -0.48181484058E+02  0.37847986960E+02  0.86961500414E+02  0.17770000000E+01 0.  1.
</event>
<event>
 7    1  0.5285153E-006  0.4527058E+03  0.7546771E-02  0.9512334E-01
        -11   -1    0    0    0    0  0.00000000000E+00  0.00000000000E+00  0.50000000000E+03  0.50000000000E+03  0.00000000000E+00 0.  1.
         11   -1    0    0    0    0 -0.00000000000E+00 -0.00000000000E+00 -0.50000000000E+03  0.50000000000E+03  0.00000000000E+00 0. -1.
         23    2    1    2    0    0  0.63485972481E+02 -0.11088185783E+02 -0.42211445540E+03  0.43702902394E+03  0.93060935615E+02 0.  0.
        -11    1    1    2    0    0 -0.45412846851E+02 -0.80377099336E+02  0.45487515845E+03  0.46414891417E+03  0.00000000000E+00 0.  1.
         11    1    1    2    0    0 -0.18073125631E+02  0.91465285119E+02 -0.32760703047E+02  0.98822061889E+02  0.00000000000E+00 0. -1.
        -15    1    3    3    0    0 -0.11033469108E+02  0.24641677992E+02 -0.15739380681E+03  0.15970259198E+03  0.17770000000E+01 0.  1.
         15    1    3    3    0    0  0.74519441589E+02 -0.35729863775E+02 -0.26472064859E+03  0.27732643195E+03  0.17770000000E+01 0. -1.
</event>
<event>
 7    1  0.5285153E-006  0.5225755E+03  0.7546771E-02  0.9350666E-01
        -11   -1    0    0    0    0  0.00000000000E+00  0.00000000000E+00  0.50000000000E+03  0.50000000000E+03  0.00000000000E+00 0.  1.
         11   -1    0    0    0    0 -0.00000000000E+00 -0.00000000000E+00 -0.50000000000E+03  0.50000000000E+03  0.00000000000E+00 0. -1.
         23    2    1    2    0    0  0.26817083565E+02 -0.57832534259E+02 -0.41538030803E+03  0.42949220976E+03  0.88651000892E+02 0.  0.
        -11    1    1    2    0    0 -0.98662706156E+02  0.10076080635E+03  0.45612178922E+03  0.47742450323E+03  0.00000000000E+00 0.  1.
         11    1    1    2    0    0  0.71845622592E+02 -0.42928272089E+02 -0.40741481195E+02  0.93083287007E+02  0.00000000000E+00 0. -1.
        -15    1    3    3    0    0 -0.29429772009E+02 -0.15070020309E+01 -0.11815543156E+03  0.12178770985E+03  0.17770000000E+01 0.  1.
         15    1    3    3    0    0  0.56246855573E+02 -0.56325532228E+02 -0.29722487647E+03  0.30770449991E+03  0.17770000000E+01 0. -1.
</event>
<event>
 7    1  0.5285153E-006  0.5198880E+03  0.7546771E-02  0.9356376E-01
        -11   -1    0    0    0    0  0.00000000000E+00  0.00000000000E+00  0.50000000000E+03  0.50000000000E+03  0.00000000000E+00 0. -1.
         11   -1    0    0    0    0 -0.00000000000E+00 -0.00000000000E+00 -0.50000000000E+03  0.50000000000E+03  0.00000000000E+00 0.  1.
         23    2    1    2    0    0 -0.16007972888E+03  0.51714332611E+02  0.21622651140E+03  0.28871531619E+03  0.91119360049E+02 0.  0.
        -11    1    1    2    0    0 -0.18722143800E+03  0.11648460391E+03  0.69428137186E+02  0.23117265415E+03  0.00000000000E+00 0. -1.
         11    1    1    2    0    0  0.34730116688E+03 -0.16819893652E+03 -0.28565464858E+03  0.48011202966E+03  0.00000000000E+00 0.  1.
        -15    1    3    3    0    0 -0.15422669444E+02  0.12650099538E+02 -0.58029436919E+01  0.20849835386E+02  0.17770000000E+01 0.  1.
         15    1    3    3    0    0 -0.14465705943E+03  0.39064233073E+02  0.22202945509E+03  0.26786548080E+03  0.17770000000E+01 0. -1.
</event>
<event>
 7    1  0.5285153E-006  0.3164099E+03  0.7546771E-02  0.9941807E-01
        -11   -1    0    0    0    0  0.00000000000E+00  0.00000000000E+00  0.50000000000E+03  0.50000000000E+03  0.00000000000E+00 0. -1.
         11   -1    0    0    0    0 -0.00000000000E+00 -0.00000000000E+00 -0.50000000000E+03  0.50000000000E+03  0.00000000000E+00 0.  1.
         23    2    1    2    0    0  0.11281138172E+02  0.15505033367E+03  0.24151403305E+03  0.30504839773E+03  0.10275031263E+03 0.  0.
        -11    1    1    2    0    0 -0.21559743385E+03 -0.25966015667E+03  0.30682306171E+02  0.33889091807E+03  0.00000000000E+00 0. -1.
         11    1    1    2    0    0  0.20431629567E+03  0.10460982300E+03 -0.27219633922E+03  0.35606068420E+03  0.00000000000E+00 0.  1.
        -15    1    3    3    0    0  0.12323813584E+02  0.16931939721E+03  0.23303869842E+03  0.28832469083E+03  0.17770000000E+01 0. -1.
         15    1    3    3    0    0 -0.10426754118E+01 -0.14269063539E+02  0.84753346346E+01  0.16723706900E+02  0.17770000000E+01 0.  1.
</event>
<event>
 7    1  0.5285153E-006  0.5158465E+03  0.7546771E-02  0.9365034E-01
        -11   -1    0    0    0    0  0.00000000000E+00  0.00000000000E+00  0.50000000000E+03  0.50000000000E+03  0.00000000000E+00 0.  1.
         11   -1    0    0    0    0 -0.00000000000E+00 -0.00000000000E+00 -0.50000000000E+03  0.50000000000E+03  0.00000000000E+00 0. -1.
         23    2    1    2    0    0  0.28333111009E+01  0.30659332246E+02 -0.17707672705E+03  0.20122933456E+03  0.90493400420E+02 0.  0.
        -11    1    1    2    0    0  0.86927616922E+02  0.72013415054E+01  0.47623138733E+03  0.48415349238E+03  0.00000000000E+00 0.  1.
         11    1    1    2    0    0 -0.89760928023E+02 -0.37860673751E+02 -0.29915466028E+03  0.31461717306E+03  0.00000000000E+00 0. -1.
        -15    1    3    3    0    0  0.82061987833E+01 -0.15908711534E+02  0.57564632722E-01  0.17988603165E+02  0.17770000000E+01 0.  1.
         15    1    3    3    0    0 -0.53728876824E+01  0.46568043779E+02 -0.17713429169E+03  0.18324073140E+03  0.17770000000E+01 0. -1.
</event>
<event>
 7    1  0.5285153E-006  0.5294541E+03  0.7546771E-02  0.9336213E-01
        -11   -1    0    0    0    0  0.00000000000E+00  0.00000000000E+00  0.50000000000E+03  0.50000000000E+03  0.00000000000E+00 0.  1.
         11   -1    0    0    0    0 -0.00000000000E+00 -0.00000000000E+00 -0.50000000000E+03  0.50000000000E+03  0.00000000000E+00 0. -1.
         23    2    1    2    0    0  0.24166335703E+02 -0.13757199577E+02  0.27754792341E+03  0.29318541887E+03  0.90286032832E+02 0.  0.
        -11    1    1    2    0    0  0.16934832718E+03 -0.88424769762E+02  0.13901467058E+03  0.23626864892E+03  0.00000000000E+00 0.  1.
         11    1    1    2    0    0 -0.19351466289E+03  0.10218196934E+03 -0.41656259399E+03  0.47054593221E+03  0.00000000000E+00 0. -1.
        -15    1    3    3    0    0  0.28232217392E+02 -0.49566344328E+02  0.19296410053E+03  0.20122669408E+03  0.17770000000E+01 0.  1.
         15    1    3    3    0    0 -0.40658816887E+01  0.35809144752E+02  0.84583822884E+02  0.91958724786E+02  0.17770000000E+01 0. -1.
</event>
<event>
 7    1  0.5285153E-006  0.3133864E+03  0.7546771E-02  0.9953864E-01
        -11   -1    0    0    0    0  0.00000000000E+00  0.00000000000E+00  0.50000000000E+03  0.50000000000E+03  0.00000000000E+00 0. -1.
         11   -1    0    0    0    0 -0.00000000000E+00 -0.00000000000E+00 -0.50000000000E+03  0.50000000000E+03  0.00000000000E+00 0.  1.
         23    2    1    2    0    0  0.15198504379E+03  0.23529023179E+03 -0.12403208778E+03  0.31960937531E+03  0.91133129379E+02 0.  0.
        -11    1    1    2    0    0  0.81057864691E+02 -0.11485038038E+02  0.30104162665E+03  0.31197491005E+03  0.00000000000E+00 0. -1.
         11    1    1    2    0    0 -0.23304290848E+03 -0.22380519376E+03 -0.17700953886E+03  0.36841571464E+03  0.00000000000E+00 0.  1.
        -15    1    3    3    0    0  0.52020483296E+02  0.96077032463E+02 -0.21422090337E+01  0.10929169062E+03  0.17770000000E+01 0. -1.
         15    1    3    3    0    0  0.99964560495E+02  0.13921319933E+03 -0.12188987875E+03  0.21031768469E+03  0.17770000000E+01 0.  1.
</event>
<event>
 7    1  0.5285153E-006  0.5387016E+03  0.7546771E-02  0.9317147E-01
        -11   -1    0    0    0    0  0.00000000000E+00  0.00000000000E+00  0.50000000000E+03  0.50000000000E+03  0.00000000000E+00 0.  1.
         11   -1    0    0    0    0 -0.00000000000E+00 -0.00000000000E+00 -0.50000000000E+03  0.50000000000E+03  0.00000000000E+00 0.  1.
         23    2    1    2    0    0  0.15663168785E+03 -0.11802254645E+02  0.10463522457E+03  0.20835673283E+03  0.88267882277E+02 0.  0.
        -11    1    1    2    0    0  0.59613618378E+01  0.65828071960E+02  0.32366477277E+03  0.33034490767E+03  0.00000000000E+00 0.  1.
         11    1    1    2    0    0 -0.16259304969E+03 -0.54025817314E+02 -0.42829999734E+03  0.46129835949E+03  0.00000000000E+00 0.  1.
        -15    1    3    3    0    0  0.11221518462E+03 -0.15296803817E+00  0.22829464899E+02  0.11452778377E+03  0.17770000000E+01 0. -1.
         15    1    3    3    0    0  0.44416503232E+02 -0.11649286607E+02  0.81805759672E+02  0.93828949064E+02  0.17770000000E+01 0.  1.
</event>
<event>
 7    1  0.5285153E-006  0.4620726E+03  0.7546771E-02  0.9488918E-01
        -11   -1    0    0    0    0  0.00000000000E+00  0.00000000000E+00  0.50000000000E+03  0.50000000000E+03  0.00000000000E+00 0.  1.
         11   -1    0    0    0    0 -0.00000000000E+00 -0.00000000000E+00 -0.50000000000E+03  0.50000000000E+03  0.00000000000E+00 0. -1.
         23    2    1    2    0    0  0.67371361957E+02 -0.10536739147E+03 -0.39506634680E+03  0.42428703154E+03  0.91109160703E+02 0.  0.
        -11    1    1    2    0    0 -0.91580447030E+02  0.11443351144E+03  0.47216789336E+03  0.49439308889E+03  0.00000000000E+00 0.  1.
         11    1    1    2    0    0  0.24209085073E+02 -0.90661199697E+01 -0.77101546559E+02  0.81319879569E+02  0.00000000000E+00 0. -1.
        -15    1    3    3    0    0  0.18583872139E+02 -0.17770431100E+02 -0.12219473891E+02  0.28524056449E+02  0.17770000000E+01 0. -1.
         15    1    3    3    0    0  0.48787489818E+02 -0.87596960365E+02 -0.38284687291E+03  0.39576297509E+03  0.17770000000E+01 0.  1.
</event>
<event>
 7    1  0.5285153E-006  0.4249142E+03  0.7546771E-02  0.9585523E-01
        -11   -1    0    0    0    0  0.00000000000E+00  0.00000000000E+00  0.50000000000E+03  0.50000000000E+03  0.00000000000E+00 0.  1.
         11   -1    0    0    0    0 -0.00000000000E+00 -0.00000000000E+00 -0.50000000000E+03  0.50000000000E+03  0.00000000000E+00 0. -1.
         23    2    1    2    0    0  0.84220887463E+02  0.62779920375E+02  0.26828719909E+02  0.14328379394E+03  0.93680249284E+02 0.  0.
        -11    1    1    2    0    0  0.53849966757E+02 -0.10759959206E+03  0.39378506867E+03  0.41175741820E+03  0.00000000000E+00 0.  1.
         11    1    1    2    0    0 -0.13807085422E+03  0.44819671683E+02 -0.42061378858E+03  0.44495878787E+03  0.00000000000E+00 0. -1.
        -15    1    3    3    0    0  0.33371658216E+02 -0.19426102607E+02 -0.98362696693E+01  0.39886726672E+02  0.17770000000E+01 0.  1.
         15    1    3    3    0    0  0.50849229246E+02  0.82206022981E+02  0.36664989578E+02  0.10339706727E+03  0.17770000000E+01 0. -1.
</event>
<event>
 7    1  0.5285153E-006  0.4231014E+03  0.7546771E-02  0.9590503E-01
        -11   -1    0    0    0    0  0.00000000000E+00  0.00000000000E+00  0.50000000000E+03  0.50000000000E+03  0.00000000000E+00 0. -1.
         11   -1    0    0    0    0 -0.00000000000E+00 -0.00000000000E+00 -0.50000000000E+03  0.50000000000E+03  0.00000000000E+00 0.  1.
         23    2    1    2    0    0  0.58110436852E+02 -0.61221414664E+02 -0.39972485288E+03  0.41911589521E+03  0.93559024810E+02 0.  0.
        -11    1    1    2    0    0  0.48606179404E+02  0.16753407269E+03  0.39314198161E+03  0.43010561947E+03  0.00000000000E+00 0. -1.
         11    1    1    2    0    0 -0.10671661626E+03 -0.10631265803E+03  0.65828712665E+01  0.15077848532E+03  0.00000000000E+00 0.  1.
        -15    1    3    3    0    0 -0.14212758796E+02  0.12679341645E+02 -0.10611091757E+03  0.10782139293E+03  0.17770000000E+01 0. -1.
         15    1    3    3    0    0  0.72323195647E+02 -0.73900756309E+02 -0.29361393531E+03  0.31129450228E+03  0.17770000000E+01 0.  1.
</event>
<event>
 7    1  0.5285153E-006  0.3710417E+03  0.7546771E-02  0.9746059E-01
        -11   -1    0    0    0    0  0.00000000000E+00  0.00000000000E+00  0.50000000000E+03  0.50000000000E+03  0.00000000000E+00 0.  1.
         11   -1    0    0    0    0 -0.00000000000E+00 -0.00000000000E+00 -0.50000000000E+03  0.50000000000E+03  0.00000000000E+00 0. -1.
         23    2    1    2    0    0 -0.21020355897E+03 -0.16605127378E+03 -0.30569730130E+03  0.41825641121E+03  0.98635813840E+02 0.  0.
        -11    1    1    2    0    0  0.61844481228E+02 -0.11952348739E+02  0.34150897987E+03  0.34726932175E+03  0.00000000000E+00 0.  1.
         11    1    1    2    0    0  0.14835907774E+03  0.17800362252E+03 -0.35811678575E+02  0.23447426703E+03  0.00000000000E+00 0. -1.
        -15    1    3    3    0    0 -0.39406669660E+02 -0.18309848001E+02 -0.74022830425E+01  0.44114483685E+02  0.17770000000E+01 0.  1.
         15    1    3    3    0    0 -0.17079688931E+03 -0.14774142578E+03 -0.29829501825E+03  0.37414192753E+03  0.17770000000E+01 0. -1.
</event>
<event>
 7    1  0.5285153E-006  0.5195009E+03  0.7546771E-02  0.9357202E-01
        -11   -1    0    0    0    0  0.00000000000E+00  0.00000000000E+00  0.50000000000E+03  0.50000000000E+03  0.00000000000E+00 0. -1.
         11   -1    0    0    0    0 -0.00000000000E+00 -0.00000000000E+00 -0.50000000000E+03  0.50000000000E+03  0.00000000000E+00 0.  1.
         23    2    1    2    0    0 -0.39803115124E+02  0.12298443454E+03 -0.19665295735E+03  0.25226047770E+03  0.90848796703E+02 0.  0.
        -11    1    1    2    0    0  0.15901632026E+03 -0.33709264124E+03  0.30325192493E+03  0.48049908310E+03  0.00000000000E+00 0. -1.
         11    1    1    2    0    0 -0.11921320513E+03  0.21410820670E+03 -0.10659896758E+03  0.26724043920E+03  0.00000000000E+00 0.  1.
        -15    1    3    3    0    0 -0.59966785492E+02  0.86563163375E+02 -0.17751554013E+03  0.20640765813E+03  0.17770000000E+01 0.  1.
         15    1    3    3    0    0  0.20163670368E+02  0.36421271167E+02 -0.19137417216E+02  0.45852819573E+02  0.17770000000E+01 0. -1.
</event>
<event>
 7    1  0.5285153E-006  0.5350907E+03  0.7546771E-02  0.9324543E-01
        -11   -1    0    0    0    0  0.00000000000E+00  0.00000000000E+00  0.50000000000E+03  0.50000000000E+03  0.00000000000E+00 0.  1.
         11   -1    0    0    0    0 -0.00000000000E+00 -0.00000000000E+00 -0.50000000000E+03  0.50000000000E+03  0.00000000000E+00 0.  1.
         23    2    1    2    0    0 -0.18474784776E+03  0.22629285174E+03  0.18188905710E+03  0.35592691435E+03  0.90885187268E+02 0.  0.
        -11    1    1    2    0    0 -0.46200619512E+02 -0.29796728883E+02  0.17052077999E+03  0.17916383202E+03  0.00000000000E+00 0.  1.
         11    1    1    2    0    0  0.23094846727E+03 -0.19649612286E+03 -0.35240983709E+03  0.46490925363E+03  0.00000000000E+00 0.  1.
        -15    1    3    3    0    0 -0.66100393642E+02  0.40169626352E+02  0.84786639042E+02  0.11478150030E+03  0.17770000000E+01 0. -1.
         15    1    3    3    0    0 -0.11864745412E+03  0.18612322539E+03  0.97102418060E+02  0.24114541406E+03  0.17770000000E+01 0.  1.
</event>
<event>
 7    1  0.5285153E-006  0.5105948E+03  0.7546771E-02  0.9376410E-01
        -11   -1    0    0    0    0  0.00000000000E+00  0.00000000000E+00  0.50000000000E+03  0.50000000000E+03  0.00000000000E+00 0.  1.
         11   -1    0    0    0    0 -0.00000000000E+00 -0.00000000000E+00 -0.50000000000E+03  0.50000000000E+03  0.00000000000E+00 0. -1.
         23    2    1    2    0    0  0.18490183550E+02 -0.23288893279E+01  0.19666815863E+03  0.21748305098E+03  0.90957145031E+02 0.  0.
        -11    1    1    2    0    0  0.64180532948E+02  0.17413002654E+02  0.28546824607E+03  0.29311170735E+03  0.00000000000E+00 0.  1.
         11    1    1    2    0    0 -0.82670716498E+02 -0.15084113326E+02 -0.48213640470E+03  0.48940524167E+03  0.00000000000E+00 0. -1.
        -15    1    3    3    0    0  0.56337576116E+01  0.41359755073E+02  0.13136356281E+03  0.13784742264E+03  0.17770000000E+01 0.  1.
         15    1    3    3    0    0  0.12856425938E+02 -0.43688644401E+02  0.65304595813E+02  0.79635628338E+02  0.17770000000E+01 0. -1.
</event>
<event>
 7    1  0.5285153E-006  0.5170194E+03  0.7546771E-02  0.9362513E-01
        -11   -1    0    0    0    0  0.00000000000E+00  0.00000000000E+00  0.50000000000E+03  0.50000000000E+03  0.00000000000E+00 0. -1.
         11   -1    0    0    0    0 -0.00000000000E+00 -0.00000000000E+00 -0.50000000000E+03  0.50000000000E+03  0.00000000000E+00 0. -1.
         23    2    1    2    0    0 -0.14824997573E+02  0.15282948700E+02 -0.37786413526E+03  0.39022361121E+03  0.95077930992E+02 0.  0.
        -11    1    1    2    0    0  0.97434485898E+02 -0.13978065055E+01  0.47304842992E+03  0.48298058962E+03  0.00000000000E+00 0. -1.
         11    1    1    2    0    0 -0.82609488325E+02 -0.13885142195E+02 -0.95184294663E+02  0.12679579916E+03  0.00000000000E+00 0. -1.
        -15    1    3    3    0    0 -0.37021581780E+02  0.39625210928E+02 -0.31061324356E+03  0.31531650712E+03  0.17770000000E+01 0.  1.
         15    1    3    3    0    0  0.22196584206E+02 -0.24342262227E+02 -0.67250891698E+02  0.74907104095E+02  0.17770000000E+01 0. -1.
</event>
<event>
 7    1  0.5285153E-006  0.5017441E+03  0.7546771E-02  0.9395916E-01
        -11   -1    0    0    0    0  0.00000000000E+00  0.00000000000E+00  0.50000000000E+03  0.50000000000E+03  0.00000000000E+00 0.  1.
         11   -1    0    0    0    0 -0.00000000000E+00 -0.00000000000E+00 -0.50000000000E+03  0.50000000000E+03  0.00000000000E+00 0.  1.
         23    2    1    2    0    0  0.22058129204E+02 -0.54485541661E+02 -0.48596537508E+03  0.49825591899E+03  0.92959021666E+02 0.  0.
        -11    1    1    2    0    0 -0.41736766602E+02  0.78799535978E+02  0.41011640121E+03  0.41969844782E+03  0.00000000000E+00 0.  1.
         11    1    1    2    0    0  0.19678637398E+02 -0.24313994317E+02  0.75848973871E+02  0.82045633197E+02  0.00000000000E+00 0.  1.
        -15    1    3    3    0    0  0.39196791861E+02 -0.73234343317E+02 -0.40281118258E+03  0.41129024310E+03  0.17770000000E+01 0.  1.
         15    1    3    3    0    0 -0.17138662657E+02  0.18748801657E+02 -0.83154192506E+02  0.86965675882E+02  0.17770000000E+01 0. -1.
</event>
<event>
 7    1  0.5285153E-006  0.5273316E+03  0.7546771E-02  0.9340648E-01
        -11   -1    0    0    0    0  0.00000000000E+00  0.00000000000E+00  0.50000000000E+03  0.50000000000E+03  0.00000000000E+00 0.  1.
         11   -1    0    0    0    0 -0.00000000000E+00 -0.00000000000E+00 -0.50000000000E+03  0.50000000000E+03  0.00000000000E+00 0.  1.
         23    2    1    2    0    0  0.12225836368E+03 -0.16588461343E+03 -0.26115416171E+03  0.34509461854E+03  0.91782281002E+02 0.  0.
        -11    1    1    2    0    0 -0.21664220133E+03  0.10811612173E+03  0.40594642778E+03  0.47266842649E+03  0.00000000000E+00 0.  1.
         11    1    1    2    0    0  0.94383837645E+02  0.57768491703E+02 -0.14479226607E+03  0.18223695497E+03  0.00000000000E+00 0.  1.
        -15    1    3    3    0    0  0.97400836080E+01 -0.44179603621E+01  0.66721994920E+01  0.12730419377E+02  0.17770000000E+01 0.  1.
         15    1    3    3    0    0  0.11251828007E+03 -0.16146665307E+03 -0.26782636120E+03  0.33236419916E+03  0.17770000000E+01 0. -1.
</event>
<event>
 7    1  0.5285153E-006  0.4868953E+03  0.7546771E-02  0.9429619E-01
        -11   -1    0    0    0    0  0.00000000000E+00  0.00000000000E+00  0.50000000000E+03  0.50000000000E+03  0.00000000000E+00 0. -1.
         11   -1    0    0    0    0 -0.00000000000E+00 -0.00000000000E+00 -0.50000000000E+03  0.50000000000E+03  0.00000000000E+00 0. -1.
         23    2    1    2    0    0  0.93687331608E+02 -0.77068586182E+02 -0.45772379763E+03  0.48242829991E+03  0.92244818568E+02 0.  0.
        -11    1    1    2    0    0 -0.67202232407E+02  0.96098164414E+02  0.46871151166E+03  0.48315781936E+03  0.00000000000E+00 0. -1.
         11    1    1    2    0    0 -0.26485099201E+02 -0.19029578232E+02 -0.10987714032E+02  0.34413880732E+02  0.00000000000E+00 0. -1.
        -15    1    3    3    0    0  0.85059765231E+02 -0.92791444232E+02 -0.43789960563E+03  0.45563651974E+03  0.17770000000E+01 0. -1.
         15    1    3    3    0    0  0.86275663765E+01  0.15722858050E+02 -0.19824192003E+02  0.26791780165E+02  0.17770000000E+01 0.  1.
</event>
<event>
 7    1  0.5285153E-006  0.3492610E+03  0.7546771E-02  0.9819474E-01
        -11   -1    0    0    0    0  0.00000000000E+00  0.00000000000E+00  0.50000000000E+03  0.50000000000E+03  0.00000000000E+00 0.  1.
         11   -1    0    0    0    0 -0.00000000000E+00 -0.00000000000E+00 -0.50000000000E+03  0.50000000000E+03  0.00000000000E+00 0. -1.
         23    2    1    2    0    0 -0.37808025123E+03  0.18731159877E+03 -0.17252236441E+03  0.46480424622E+03  0.90822407347E+02 0.  0.
        -11    1    1    2    0    0  0.12533815013E+03 -0.97950981923E+02  0.21113785841E+03  0.26435438712E+03  0.00000000000E+00 0.  1.
         11    1    1    2    0    0  0.25274210111E+03 -0.89360616849E+02 -0.38615493998E+02  0.27084136666E+03  0.00000000000E+00 0. -1.
        -15    1    3    3    0    0 -0.68928356818E+02  0.69765290326E+02 -0.17948963763E+02  0.99717787466E+02  0.17770000000E+01 0.  1.
         15    1    3    3    0    0 -0.30915189441E+03  0.11754630845E+03 -0.15457340065E+03  0.36508645875E+03  0.17770000000E+01 0. -1.
</event>
<event>
 7    1  0.5285153E-006  0.5058187E+03  0.7546771E-02  0.9386883E-01
        -11   -1    0    0    0    0  0.00000000000E+00  0.00000000000E+00  0.50000000000E+03  0.50000000000E+03  0.00000000000E+00 0. -1.
         11   -1    0    0    0    0 -0.00000000000E+00 -0.00000000000E+00 -0.50000000000E+03  0.50000000000E+03  0.00000000000E+00 0.  1.
         23    2    1    2    0    0 -0.80937066483E+02  0.34851852551E+02 -0.35961505722E+03  0.38116147172E+03  0.90529651417E+02 0.  0.
        -11    1    1    2    0    0  0.12316371114E+03 -0.46140149795E+02  0.47635798878E+03  0.49418128925E+03  0.00000000000E+00 0. -1.
         11    1    1    2    0    0 -0.42226644654E+02  0.11288297243E+02 -0.11674293156E+03  0.12465723903E+03  0.00000000000E+00 0.  1.
        -15    1    3    3    0    0 -0.44790048182E+02  0.48258510227E+02 -0.31656519698E+03  0.32334457455E+03  0.17770000000E+01 0.  1.
         15    1    3    3    0    0 -0.36147018301E+02 -0.13406657676E+02 -0.43049860245E+02  0.57816897169E+02  0.17770000000E+01 0. -1.
</event>
<event>
 7    1  0.5285153E-006  0.4730717E+03  0.7546771E-02  0.9462165E-01
        -11   -1    0    0    0    0  0.00000000000E+00  0.00000000000E+00  0.50000000000E+03  0.50000000000E+03  0.00000000000E+00 0.  1.
         11   -1    0    0    0    0 -0.00000000000E+00 -0.00000000000E+00 -0.50000000000E+03  0.50000000000E+03  0.00000000000E+00 0.  1.
         23    2    1    2    0    0  0.21858061246E+03  0.53458003702E+02 -0.39968073917E+03  0.46793979899E+03  0.92669951542E+02 0.  0.
        -11    1    1    2    0    0 -0.17153113238E+03 -0.41586750784E+02  0.43670519815E+03  0.47102422158E+03  0.00000000000E+00 0.  1.
         11    1    1    2    0    0 -0.47049480081E+02 -0.11871252918E+02 -0.37024458987E+02  0.61035979430E+02  0.00000000000E+00 0.  1.
        -15    1    3    3    0    0  0.10153542805E+03  0.69037991253E+02 -0.17041532184E+03  0.21004815408E+03  0.17770000000E+01 0. -1.
         15    1    3    3    0    0  0.11704518441E+03 -0.15579987551E+02 -0.22926541732E+03  0.25789164491E+03  0.17770000000E+01 0.  1.
</event>
<event>
 6    1  0.5285153E-006  0.3999893E+03  0.7546771E-02  0.9656433E-01
        -11   -1    0    0    0    0  0.00000000000E+00  0.00000000000E+00  0.50000000000E+03  0.50000000000E+03  0.00000000000E+00 0. -1.
         11   -1    0    0    0    0 -0.00000000000E+00 -0.00000000000E+00 -0.50000000000E+03  0.50000000000E+03  0.00000000000E+00 0. -1.
        -11    1    1    2    0    0 -0.65331342435E+02 -0.91709368994E+02  0.37789269200E+03  0.39431165255E+03  0.00000000000E+00 0. -1.
         11    1    1    2    0    0  0.88926799947E+02  0.94394525898E+02 -0.38478231124E+03  0.40604892478E+03  0.00000000000E+00 0. -1.
        -15    1    1    2    0    0  0.37121441810E+02  0.40234621065E+02  0.78944256310E+02  0.96084231316E+02  0.17770000000E+01 0.  1.
         15    1    1    2    0    0 -0.60716899322E+02 -0.42919777968E+02 -0.72054637070E+02  0.10355519135E+03  0.17770000000E+01 0. -1.
</event>
<event>
 6    1  0.5285153E-006  0.3950867E+03  0.7546771E-02  0.9671030E-01
        -11   -1    0    0    0    0  0.00000000000E+00  0.00000000000E+00  0.50000000000E+03  0.50000000000E+03  0.00000000000E+00 0.  1.
         11   -1    0    0    0    0 -0.00000000000E+00 -0.00000000000E+00 -0.50000000000E+03  0.50000000000E+03  0.00000000000E+00 0. -1.
        -11    1    1    2    0    0  0.16573342463E+02  0.23976393082E+03  0.31527047841E+03  0.39643018649E+03  0.00000000000E+00 0.  1.
         11    1    1    2    0    0  0.16813260018E+03 -0.11710069348E+03 -0.11830804557E+03  0.23659657077E+03  0.00000000000E+00 0. -1.
        -15    1    1    2    0    0 -0.39223441381E+02 -0.14881530460E+03 -0.14155245658E+03  0.20910458850E+03  0.17770000000E+01 0.  1.
         15    1    1    2    0    0 -0.14548250126E+03  0.26152067262E+02 -0.55409976260E+02  0.15786865424E+03  0.17770000000E+01 0. -1.
</event>
<event>
 7    1  0.5285153E-006  0.4625109E+03  0.7546771E-02  0.9487837E-01
        -11   -1    0    0    0    0  0.00000000000E+00  0.00000000000E+00  0.50000000000E+03  0.50000000000E+03  0.00000000000E+00 0.  1.
         11   -1    0    0    0    0 -0.00000000000E+00 -0.00000000000E+00 -0.50000000000E+03  0.50000000000E+03  0.00000000000E+00 0. -1.
         23    2    1    2    0    0 -0.93248640468E+02  0.20194761413E+02  0.41895157415E+03  0.43988646895E+03  0.94215427320E+02 0.  0.
        -11    1    1    2    0    0 -0.74469959776E+02 -0.12211833577E+02  0.29678966004E+02  0.81090966275E+02  0.00000000000E+00 0.  1.
         11    1    1    2    0    0  0.16771860024E+03 -0.79829278360E+01 -0.44863054015E+03  0.47902256477E+03  0.00000000000E+00 0. -1.
        -15    1    3    3    0    0 -0.11652129788E+02  0.46689346945E+02  0.15984056772E+03  0.16693661092E+03  0.17770000000E+01 0.  1.
         15    1    3    3    0    0 -0.81596510680E+02 -0.26494585532E+02  0.25911100643E+03  0.27294985803E+03  0.17770000000E+01 0. -1.
</event>
<event>
 7    1  0.5285153E-006  0.4370227E+03  0.7546771E-02  0.9552923E-01
        -11   -1    0    0    0    0  0.00000000000E+00  0.00000000000E+00  0.50000000000E+03  0.50000000000E+03  0.00000000000E+00 0. -1.
         11   -1    0    0    0    0 -0.00000000000E+00 -0.00000000000E+00 -0.50000000000E+03  0.50000000000E+03  0.00000000000E+00 0.  1.
         23    2    1    2    0    0 -0.21000767471E+02 -0.18873418759E+02 -0.45252386043E+03  0.46298566594E+03  0.93705092945E+02 0.  0.
        -11    1    1    2    0    0 -0.77176676685E+02  0.75627279918E+02  0.39567062459E+03  0.41015968604E+03  0.00000000000E+00 0. -1.
         11    1    1    2    0    0  0.98177444157E+02 -0.56753861159E+02  0.56853235840E+02  0.12685464802E+03  0.00000000000E+00 0.  1.
        -15    1    3    3    0    0 -0.26444747487E+02 -0.53419009489E+02 -0.33827310909E+03  0.34348911090E+03  0.17770000000E+01 0.  1.
         15    1    3    3    0    0  0.54439800156E+01  0.34545590730E+02 -0.11425075133E+03  0.11949655504E+03  0.17770000000E+01 0. -1.
</event>
<event>
 7    1  0.5285153E-006  0.4874480E+03  0.7546771E-02  0.9428342E-01
        -11   -1    0    0    0    0  0.00000000000E+00  0.00000000000E+00  0.50000000000E+03  0.50000000000E+03  0.00000000000E+00 0.  1.
         11   -1    0    0    0    0 -0.00000000000E+00 -0.00000000000E+00 -0.50000000000E+03  0.50000000000E+03  0.00000000000E+00 0. -1.
         23    2    1    2    0    0 -0.59243026918E+02  0.92013084540E+02 -0.46819031949E+03  0.48950976252E+03  0.91877572758E+02 0.  0.
        -11    1    1    2    0    0  0.33781098694E+02 -0.70752915109E+02  0.47073716538E+03  0.47722176867E+03  0.00000000000E+00 0.  1.
         11    1    1    2    0    0  0.25461928224E+02 -0.21260169431E+02 -0.25468458888E+01  0.33268468812E+02  0.00000000000E+00 0. -1.
        -15    1    3    3    0    0 -0.71421261124E+02  0.87777462109E+02 -0.46089822445E+03  0.47459057136E+03  0.17770000000E+01 0. -1.
         15    1    3    3    0    0  0.12178234206E+02  0.42356224315E+01 -0.72920950335E+01  0.14919191155E+02  0.17770000000E+01 0.  1.
</event>
<event>
 7    1  0.5285153E-006  0.5336758E+03  0.7546771E-02  0.9327458E-01
        -11   -1    0    0    0    0  0.00000000000E+00  0.00000000000E+00  0.50000000000E+03  0.50000000000E+03  0.00000000000E+00 0. -1.
         11   -1    0    0    0    0 -0.00000000000E+00 -0.00000000000E+00 -0.50000000000E+03  0.50000000000E+03  0.00000000000E+00 0.  1.
         23    2    1    2    0    0  0.17969880656E+03 -0.79691887837E+02  0.15255343066E+03  0.26443119421E+03  0.89492173947E+02 0.  0.
        -11    1    1    2    0    0  0.25645929985E+03  0.81034079196E+02  0.12439326754E+02  0.26924455672E+03  0.00000000000E+00 0. -1.
         11    1    1    2    0    0 -0.43615810642E+03 -0.13421913591E+01 -0.16499275742E+03  0.46632424907E+03  0.00000000000E+00 0.  1.
        -15    1    3    3    0    0  0.16647454498E+03 -0.62284251548E+02  0.16204688669E+03  0.24053160568E+03  0.17770000000E+01 0. -1.
         15    1    3    3    0    0  0.13224261584E+02 -0.17407636289E+02 -0.94934560256E+01  0.23899588531E+02  0.17770000000E+01 0.  1.
</event>
<event>
 7    1  0.5285153E-006  0.5127789E+03  0.7546771E-02  0.9371661E-01
        -11   -1    0    0    0    0  0.00000000000E+00  0.00000000000E+00  0.50000000000E+03  0.50000000000E+03  0.00000000000E+00 0. -1.
         11   -1    0    0    0    0 -0.00000000000E+00 -0.00000000000E+00 -0.50000000000E+03  0.50000000000E+03  0.00000000000E+00 0. -1.
         23    2    1    2    0    0 -0.26602043459E+02  0.50007870314E+01 -0.38098223010E+03  0.39284493000E+03  0.91907577421E+02 0.  0.
        -11    1    1    2    0    0  0.59932046498E+02 -0.65426643109E+02  0.47907397771E+03  0.48722107092E+03  0.00000000000E+00 0. -1.
         11    1    1    2    0    0 -0.33330003039E+02  0.60425856078E+02 -0.98091747612E+02  0.11993399908E+03  0.00000000000E+00 0. -1.
        -15    1    3    3    0    0 -0.59590249424E+02  0.18152766170E+01 -0.19476010818E+03  0.20368836619E+03  0.17770000000E+01 0.  1.
         15    1    3    3    0    0  0.32988205964E+02  0.31855104144E+01 -0.18622212192E+03  0.18915656381E+03  0.17770000000E+01 0. -1.
</event>
<event>
 7    1  0.5285153E-006  0.4911588E+03  0.7546771E-02  0.9419813E-01
        -11   -1    0    0    0    0  0.00000000000E+00  0.00000000000E+00  0.50000000000E+03  0.50000000000E+03  0.00000000000E+00 0. -1.
         11   -1    0    0    0    0 -0.00000000000E+00 -0.00000000000E+00 -0.50000000000E+03  0.50000000000E+03  0.00000000000E+00 0. -1.
         23    2    1    2    0    0  0.68157427959E+02  0.11047363216E+03 -0.46063350507E+03  0.48688336289E+03  0.89567430919E+02 0.  0.
        -11    1    1    2    0    0 -0.88868832842E+02 -0.12534876558E+03  0.46268758713E+03  0.48753439445E+03  0.00000000000E+00 0. -1.
         11    1    1    2    0    0  0.20711404882E+02  0.14875133417E+02 -0.20540820617E+01  0.25582242660E+02  0.00000000000E+00 0. -1.
        -15    1    3    3    0    0 -0.12776236004E+02 -0.69743981042E+01 -0.54024393727E+02  0.55979168285E+02  0.17770000000E+01 0.  1.
         15    1    3    3    0    0  0.80933663963E+02  0.11744803026E+03 -0.40660911134E+03  0.43090419461E+03  0.17770000000E+01 0. -1.
</event>
<event>
 7    1  0.5285153E-006  0.5221155E+03  0.7546771E-02  0.9351640E-01
        -11   -1    0    0    0    0  0.00000000000E+00  0.00000000000E+00  0.50000000000E+03  0.50000000000E+03  0.00000000000E+00 0. -1.
         11   -1    0    0    0    0 -0.00000000000E+00 -0.00000000000E+00 -0.50000000000E+03  0.50000000000E+03  0.00000000000E+00 0. -1.
         23    2    1    2    0    0 -0.88846175624E+02  0.42524240867E+02 -0.45925866292E+03  0.47788449163E+03  0.88051768223E+02 0.  0.
        -11    1    1    2    0    0 -0.47100653341E+02 -0.59431913735E+02  0.31159784594E+03  0.32069275251E+03  0.00000000000E+00 0. -1.
         11    1    1    2    0    0  0.13594682897E+03  0.16907672868E+02  0.14766081698E+03  0.20142275586E+03  0.00000000000E+00 0. -1.
        -15    1    3    3    0    0 -0.75327090781E+02  0.20979832529E+02 -0.43728722125E+03  0.44422696404E+03  0.17770000000E+01 0. -1.
         15    1    3    3    0    0 -0.13519084843E+02  0.21544408337E+02 -0.21971441671E+02  0.33657527594E+02  0.17770000000E+01 0.  1.
</event>
<event>
 7    1  0.5285153E-006  0.4405768E+03  0.7546771E-02  0.9543567E-01
        -11   -1    0    0    0    0  0.00000000000E+00  0.00000000000E+00  0.50000000000E+03  0.50000000000E+03  0.00000000000E+00 0. -1.
         11   -1    0    0    0    0 -0.00000000000E+00 -0.00000000000E+00 -0.50000000000E+03  0.50000000000E+03  0.00000000000E+00 0.  1.
         23    2    1    2    0    0  0.33951799533E+02 -0.49090230190E+02  0.12846411684E+02  0.11673374607E+03  0.99494531444E+02 0.  0.
        -11    1    1    2    0    0  0.18666901651E+03  0.26559226415E+02  0.38448881482E+03  0.42823166972E+03  0.00000000000E+00 0. -1.
         11    1    1    2    0    0 -0.22062081604E+03  0.22531003775E+02 -0.39733522650E+03  0.45503458420E+03  0.00000000000E+00 0.  1.
        -15    1    3    3    0    0  0.30397701634E+02 -0.79596689247E+02  0.10763625445E+02  0.85899165103E+02  0.17770000000E+01 0. -1.
         15    1    3    3    0    0  0.35540978992E+01  0.30506459056E+02  0.20827862385E+01  0.30834580969E+02  0.17770000000E+01 0.  1.
</event>
<event>
 7    1  0.5285153E-006  0.4826766E+03  0.7546771E-02  0.9439429E-01
        -11   -1    0    0    0    0  0.00000000000E+00  0.00000000000E+00  0.50000000000E+03  0.50000000000E+03  0.00000000000E+00 0. -1.
         11   -1    0    0    0    0 -0.00000000000E+00 -0.00000000000E+00 -0.50000000000E+03  0.50000000000E+03  0.00000000000E+00 0.  1.
         23    2    1    2    0    0 -0.10214814093E+03 -0.67758207831E+02 -0.44737820617E+03  0.47224618855E+03  0.88565150135E+02 0.  0.
        -11    1    1    2    0    0  0.93980112803E+02  0.37459557827E+02  0.47517912007E+03  0.48582988404E+03  0.00000000000E+00 0. -1.
         11    1    1    2    0    0  0.81680281284E+01  0.30298650004E+02 -0.27800913902E+02  0.41923927408E+02  0.00000000000E+00 0.  1.
        -15    1    3    3    0    0 -0.36240509416E+02 -0.76424901577E+02 -0.24087171642E+03  0.25529684997E+03  0.17770000000E+01 0. -1.
         15    1    3    3    0    0 -0.65907631515E+02  0.86666937454E+01 -0.20650648975E+03  0.21694933858E+03  0.17770000000E+01 0.  1.
</event>
<event>
 7    1  0.5285153E-006  0.5083877E+03  0.7546771E-02  0.9381235E-01
        -11   -1    0    0    0    0  0.00000000000E+00  0.00000000000E+00  0.50000000000E+03  0.50000000000E+03  0.00000000000E+00 0.  1.
         11   -1    0    0    0    0 -0.00000000000E+00 -0.00000000000E+00 -0.50000000000E+03  0.50000000000E+03  0.00000000000E+00 0. -1.
         23    2    1    2    0    0 -0.17788664889E+02  0.44899107799E+02 -0.25415326411E+03  0.27453933495E+03  0.91899936337E+02 0.  0.
        -11    1    1    2    0    0  0.48270559802E+02 -0.10949206691E+03  0.47682713269E+03  0.49161232096E+03  0.00000000000E+00 0.  1.
         11    1    1    2    0    0 -0.30481894913E+02  0.64592959108E+02 -0.22267386857E+03  0.23384834408E+03  0.00000000000E+00 0. -1.
        -15    1    3    3    0    0  0.15095461116E+01  0.42209141400E+02 -0.25122372402E+03  0.25475558402E+03  0.17770000000E+01 0.  1.
         15    1    3    3    0    0 -0.19298211000E+02  0.26899663989E+01 -0.29295400902E+01  0.19783750938E+02  0.17770000000E+01 0. -1.
</event>
<event>
 7    1  0.5285153E-006  0.5277548E+03  0.7546771E-02  0.9339762E-01
        -11   -1    0    0    0    0  0.00000000000E+00  0.00000000000E+00  0.50000000000E+03  0.50000000000E+03  0.00000000000E+00 0.  1.
         11   -1    0    0    0    0 -0.00000000000E+00 -0.00000000000E+00 -0.50000000000E+03  0.50000000000E+03  0.00000000000E+00 0. -1.
         23    2    1    2    0    0  0.14301983760E+02 -0.32617107167E+02 -0.22445145575E+03  0.24500196477E+03  0.91537338462E+02 0.  0.
        -11    1    1    2    0    0  0.76241478125E+02  0.23036569480E+03  0.40513503170E+03  0.47224518022E+03  0.00000000000E+00 0.  1.
         11    1    1    2    0    0 -0.90543461885E+02 -0.19774858763E+03 -0.18068357595E+03  0.28275285501E+03  0.00000000000E+00 0. -1.
        -15    1    3    3    0    0 -0.33836747434E+02 -0.24914973518E+02 -0.58638532040E+02  0.72161738831E+02  0.17770000000E+01 0.  1.
         15    1    3    3    0    0  0.48138731194E+02 -0.77021336487E+01 -0.16581292371E+03  0.17284022594E+03  0.17770000000E+01 0. -1.
</event>
<event>
 7    1  0.5285153E-006  0.5194022E+03  0.7546771E-02  0.9357413E-01
        -11   -1    0    0    0    0  0.00000000000E+00  0.00000000000E+00  0.50000000000E+03  0.50000000000E+03  0.00000000000E+00 0.  1.
         11   -1    0    0    0    0 -0.00000000000E+00 -0.00000000000E+00 -0.50000000000E+03  0.50000000000E+03  0.00000000000E+00 0.  1.
         23    2    1    2    0    0 -0.16152057522E+02 -0.75974949631E+02 -0.20494527897E+03  0.24632112429E+03  0.11242084757E+03 0.  0.
        -11    1    1    2    0    0  0.75562867924E+02  0.58972032057E+02  0.47094248659E+03  0.48059782901E+03  0.00000000000E+00 0.  1.
         11    1    1    2    0    0 -0.59410810402E+02  0.17002917574E+02 -0.26599720763E+03  0.27308104669E+03  0.00000000000E+00 0.  1.
        -15    1    3    3    0    0 -0.45003027611E+02 -0.38653873958E+02 -0.32780721244E+02  0.67802122979E+02  0.17770000000E+01 0. -1.
         15    1    3    3    0    0  0.28850970089E+02 -0.37321075672E+02 -0.17216455772E+03  0.17851900131E+03  0.17770000000E+01 0.  1.
</event>
<event>
 7    1  0.5285153E-006  0.4317335E+03  0.7546771E-02  0.9567023E-01
        -11   -1    0    0    0    0  0.00000000000E+00  0.00000000000E+00  0.50000000000E+03  0.50000000000E+03  0.00000000000E+00 0.  1.
         11   -1    0    0    0    0 -0.00000000000E+00 -0.00000000000E+00 -0.50000000000E+03  0.50000000000E+03  0.00000000000E+00 0. -1.
         23    2    1    2    0    0  0.56570702703E+02 -0.95402145644E+02 -0.37925720208E+03  0.40619410296E+03  0.94105314150E+02 0.  0.
        -11    1    1    2    0    0  0.62206759735E+02  0.13452266853E+03  0.43302250296E+03  0.45768386182E+03  0.00000000000E+00 0.  1.
         11    1    1    2    0    0 -0.11877746244E+03 -0.39120522888E+02 -0.53765300881E+02  0.13612203522E+03  0.00000000000E+00 0. -1.
        -15    1    3    3    0    0  0.41046098723E+02 -0.41217411412E+02 -0.66393970436E+02  0.88289151446E+02  0.17770000000E+01 0.  1.
         15    1    3    3    0    0  0.15524603980E+02 -0.54184734232E+02 -0.31286323164E+03  0.31790495151E+03  0.17770000000E+01 0. -1.
</event>
<event>
 7    1  0.5285153E-006  0.4880070E+03  0.7546771E-02  0.9427052E-01
        -11   -1    0    0    0    0  0.00000000000E+00  0.00000000000E+00  0.50000000000E+03  0.50000000000E+03  0.00000000000E+00 0.  1.
         11   -1    0    0    0    0 -0.00000000000E+00 -0.00000000000E+00 -0.50000000000E+03  0.50000000000E+03  0.00000000000E+00 0. -1.
         23    2    1    2    0    0 -0.83704576159E+01 -0.55228369127E+02 -0.47529963116E+03  0.48694027483E+03  0.89893573447E+02 0.  0.
        -11    1    1    2    0    0 -0.12034674899E+02  0.79622266157E+02  0.47446057012E+03  0.48124564545E+03  0.00000000000E+00 0.  1.
         11    1    1    2    0    0  0.20405132515E+02 -0.24393897030E+02  0.83906104657E+00  0.31814079724E+02  0.00000000000E+00 0. -1.
        -15    1    3    3    0    0  0.13883137180E+02  0.19453899712E+02 -0.64445409611E+02  0.68757285148E+02  0.17770000000E+01 0.  1.
         15    1    3    3    0    0 -0.22253594796E+02 -0.74682268839E+02 -0.41085422155E+03  0.41818298968E+03  0.17770000000E+01 0. -1.
</event>
<event>
 7    1  0.5285153E-006  0.5359559E+03  0.7546771E-02  0.9322765E-01
        -11   -1    0    0    0    0  0.00000000000E+00  0.00000000000E+00  0.50000000000E+03  0.50000000000E+03  0.00000000000E+00 0. -1.
         11   -1    0    0    0    0 -0.00000000000E+00 -0.00000000000E+00 -0.50000000000E+03  0.50000000000E+03  0.00000000000E+00 0.  1.
         23    2    1    2    0    0 -0.51411805411E+02  0.52236323891E+02 -0.16515514437E+03  0.20278360953E+03  0.92049787128E+02 0.  0.
        -11    1    1    2    0    0 -0.23138122175E+02  0.98157575742E+02  0.45295325581E+03  0.46404410817E+03  0.00000000000E+00 0. -1.
         11    1    1    2    0    0  0.74549927586E+02 -0.15039389963E+03 -0.28779811144E+03  0.33317228231E+03  0.00000000000E+00 0.  1.
        -15    1    3    3    0    0  0.15914173133E+02 -0.22666553634E+01 -0.78853976342E+02  0.80495378420E+02  0.17770000000E+01 0. -1.
         15    1    3    3    0    0 -0.67325978544E+02  0.54502979255E+02 -0.86301168033E+02  0.12228823111E+03  0.17770000000E+01 0.  1.
</event>
<event>
 7    1  0.5285153E-006  0.3443280E+03  0.7546771E-02  0.9836901E-01
        -11   -1    0    0    0    0  0.00000000000E+00  0.00000000000E+00  0.50000000000E+03  0.50000000000E+03  0.00000000000E+00 0. -1.
         11   -1    0    0    0    0 -0.00000000000E+00 -0.00000000000E+00 -0.50000000000E+03  0.50000000000E+03  0.00000000000E+00 0.  1.
         23    2    1    2    0    0  0.12900927016E+03 -0.91348133365E+02 -0.19549511665E+03  0.26688800711E+03  0.89571169735E+02 0.  0.
        -11    1    1    2    0    0  0.62454546445E+01  0.12362860833E+03  0.43713225001E+03  0.45432107864E+03  0.00000000000E+00 0. -1.
         11    1    1    2    0    0 -0.13525472481E+03 -0.32280474967E+02 -0.24163713336E+03  0.27879091424E+03  0.00000000000E+00 0.  1.
        -15    1    3    3    0    0 -0.10062388691E+02  0.12308989180E+01 -0.78728750605E+00  0.10322031240E+02  0.17770000000E+01 0.  1.
         15    1    3    3    0    0  0.13907165886E+03 -0.92579032283E+02 -0.19470782915E+03  0.25656597587E+03  0.17770000000E+01 0. -1.
</event>
<event>
 7    1  0.5285153E-006  0.5264085E+03  0.7546771E-02  0.9342583E-01
        -11   -1    0    0    0    0  0.00000000000E+00  0.00000000000E+00  0.50000000000E+03  0.50000000000E+03  0.00000000000E+00 0. -1.
         11   -1    0    0    0    0 -0.00000000000E+00 -0.00000000000E+00 -0.50000000000E+03  0.50000000000E+03  0.00000000000E+00 0.  1.
         23    2    1    2    0    0  0.11098303084E+02 -0.14742806647E+02  0.53134540317E+02  0.10491850775E+03  0.88566874256E+02 0.  0.
        -11    1    1    2    0    0  0.20332029141E+03  0.90034167006E+01  0.36909837539E+03  0.42148999173E+03  0.00000000000E+00 0. -1.
         11    1    1    2    0    0 -0.21441859449E+03  0.57393899467E+01 -0.42223291570E+03  0.47359150052E+03  0.00000000000E+00 0.  1.
        -15    1    3    3    0    0  0.18399361209E+02  0.31418416520E+02  0.44219266833E+02  0.57307544685E+02  0.17770000000E+01 0.  1.
         15    1    3    3    0    0 -0.73010581251E+01 -0.46161223167E+02  0.89152734836E+01  0.47610963069E+02  0.17770000000E+01 0. -1.
</event>
<event>
 7    1  0.5285153E-006  0.3470988E+03  0.7546771E-02  0.9827075E-01
        -11   -1    0    0    0    0  0.00000000000E+00  0.00000000000E+00  0.50000000000E+03  0.50000000000E+03  0.00000000000E+00 0.  1.
         11   -1    0    0    0    0 -0.00000000000E+00 -0.00000000000E+00 -0.50000000000E+03  0.50000000000E+03  0.00000000000E+00 0. -1.
         23    2    1    2    0    0  0.18008394983E+03  0.27296046262E+03 -0.15407030684E+03  0.37258396279E+03  0.90241380422E+02 0.  0.
        -11    1    1    2    0    0 -0.24699167668E+01 -0.16332391891E+03  0.32098576922E+03  0.36015644797E+03  0.00000000000E+00 0.  1.
         11    1    1    2    0    0 -0.17761403307E+03 -0.10963654370E+03 -0.16691546238E+03  0.26725958923E+03  0.00000000000E+00 0. -1.
        -15    1    3    3    0    0  0.99324976156E+02  0.72744447700E+02 -0.62307544592E+02  0.13799490353E+03  0.17770000000E+01 0.  1.
         15    1    3    3    0    0  0.80758973676E+02  0.20021601492E+03 -0.91762762247E+02  0.23458905926E+03  0.17770000000E+01 0. -1.
</event>
<event>
 6    1  0.5285153E-006  0.4461815E+03  0.7546771E-02  0.9529003E-01
        -11   -1    0    0    0    0  0.00000000000E+00  0.00000000000E+00  0.50000000000E+03  0.50000000000E+03  0.00000000000E+00 0. -1.
         11   -1    0    0    0    0 -0.00000000000E+00 -0.00000000000E+00 -0.50000000000E+03  0.50000000000E+03  0.00000000000E+00 0.  1.
        -11    1    1    2    0    0  0.17101581593E+03 -0.10721416851E+03  0.34345198023E+03  0.39837237599E+03  0.00000000000E+00 0. -1.
         11    1    1    2    0    0 -0.31739937153E+02  0.67688388552E+02  0.94623806144E+02  0.12059355806E+03  0.00000000000E+00 0.  1.
        -15    1    1    2    0    0  0.10154224062E+02  0.47808347220E+02 -0.11544910999E+03  0.12538102351E+03  0.17770000000E+01 0. -1.
         15    1    1    2    0    0 -0.14943010284E+03 -0.82825672658E+01 -0.32262667639E+03  0.35565304245E+03  0.17770000000E+01 0.  1.
</event>
<event>
 7    1  0.5285153E-006  0.3642388E+03  0.7546771E-02  0.9768397E-01
        -11   -1    0    0    0    0  0.00000000000E+00  0.00000000000E+00  0.50000000000E+03  0.50000000000E+03  0.00000000000E+00 0.  1.
         11   -1    0    0    0    0 -0.00000000000E+00 -0.00000000000E+00 -0.50000000000E+03  0.50000000000E+03  0.00000000000E+00 0. -1.
         23    2    1    2    0    0 -0.18545789612E+03 -0.20257379388E+03  0.19792262228E+03  0.36088170643E+03  0.12502587101E+03 0.  0.
        -11    1    1    2    0    0  0.13457212572E+03  0.11507810484E+03  0.17724530401E+03  0.25053647445E+03  0.00000000000E+00 0.  1.
         11    1    1    2    0    0  0.50885770393E+02  0.87495689045E+02 -0.37516792630E+03  0.38858181912E+03  0.00000000000E+00 0. -1.
        -15    1    3    3    0    0 -0.14201541026E+03 -0.21205254114E+03  0.15258938507E+03  0.29735725167E+03  0.17770000000E+01 0. -1.
         15    1    3    3    0    0 -0.43442485861E+02  0.94787472584E+01  0.45333237208E+02  0.63524454756E+02  0.17770000000E+01 0. -1.
</event>
<event>
 7    1  0.5285153E-006  0.5075836E+03  0.7546771E-02  0.9382999E-01
        -11   -1    0    0    0    0  0.00000000000E+00  0.00000000000E+00  0.50000000000E+03  0.50000000000E+03  0.00000000000E+00 0.  1.
         11   -1    0    0    0    0 -0.00000000000E+00 -0.00000000000E+00 -0.50000000000E+03  0.50000000000E+03  0.00000000000E+00 0. -1.
         23    2    1    2    0    0  0.73032077613E+02  0.10132859509E+02 -0.37407545218E+03  0.39204459084E+03  0.91269699680E+02 0.  0.
        -11    1    1    2    0    0 -0.11475079946E+03 -0.41933949055E+02  0.47701961489E+03  0.49241640412E+03  0.00000000000E+00 0.  1.
         11    1    1    2    0    0  0.41718721851E+02  0.31801089546E+02 -0.10294416271E+03  0.11553900504E+03  0.00000000000E+00 0. -1.
        -15    1    3    3    0    0 -0.19536971087E+02  0.10461825013E+02 -0.10956917839E+03  0.11180208229E+03  0.17770000000E+01 0.  1.
         15    1    3    3    0    0  0.92569048700E+02 -0.32896550344E+00 -0.26450627379E+03  0.28024250855E+03  0.17770000000E+01 0. -1.
</event>
<event>
 7    1  0.5285153E-006  0.4978765E+03  0.7546771E-02  0.9404574E-01
        -11   -1    0    0    0    0  0.00000000000E+00  0.00000000000E+00  0.50000000000E+03  0.50000000000E+03  0.00000000000E+00 0.  1.
         11   -1    0    0    0    0 -0.00000000000E+00 -0.00000000000E+00 -0.50000000000E+03  0.50000000000E+03  0.00000000000E+00 0. -1.
         23    2    1    2    0    0  0.10373065287E+03  0.26245834660E+02 -0.47997901462E+03  0.50009559951E+03  0.90922285461E+02 0.  0.
        -11    1    1    2    0    0 -0.11385588194E+03 -0.23025291232E+02  0.47331899707E+03  0.48736454413E+03  0.00000000000E+00 0.  1.
         11    1    1    2    0    0  0.10125229078E+02 -0.32205434275E+01  0.66600175436E+01  0.12539856360E+02  0.00000000000E+00 0. -1.
        -15    1    3    3    0    0  0.11316375189E+03  0.41045719611E+02 -0.44388467835E+03  0.45992124461E+03  0.17770000000E+01 0. -1.
         15    1    3    3    0    0 -0.94330990281E+01 -0.14799884952E+02 -0.36094336266E+02  0.40174354897E+02  0.17770000000E+01 0.  1.
</event>
<event>
 7    1  0.5285153E-006  0.4706676E+03  0.7546771E-02  0.9467946E-01
        -11   -1    0    0    0    0  0.00000000000E+00  0.00000000000E+00  0.50000000000E+03  0.50000000000E+03  0.00000000000E+00 0.  1.
         11   -1    0    0    0    0 -0.00000000000E+00 -0.00000000000E+00 -0.50000000000E+03  0.50000000000E+03  0.00000000000E+00 0. -1.
         23    2    1    2    0    0 -0.28781489744E+03  0.17922068866E+02  0.35769783859E+03  0.46890248453E+03  0.93611861013E+02 0.  0.
        -11    1    1    2    0    0  0.37261661609E+02  0.45592644837E+02  0.29259530339E+02  0.65751355916E+02  0.00000000000E+00 0.  1.
         11    1    1    2    0    0  0.25055323583E+03 -0.63514713704E+02 -0.38695736893E+03  0.46534615956E+03  0.00000000000E+00 0. -1.
        -15    1    3    3    0    0 -0.20231783249E+03 -0.28023229206E+02  0.21748250238E+03  0.29836153118E+03  0.17770000000E+01 0.  1.
         15    1    3    3    0    0 -0.85497064946E+02  0.45945298072E+02  0.14021533621E+03  0.17054095334E+03  0.17770000000E+01 0. -1.
</event>
<event>
 7    1  0.5285153E-006  0.4108941E+03  0.7546771E-02  0.9624749E-01
        -11   -1    0    0    0    0  0.00000000000E+00  0.00000000000E+00  0.50000000000E+03  0.50000000000E+03  0.00000000000E+00 0.  1.
         11   -1    0    0    0    0 -0.00000000000E+00 -0.00000000000E+00 -0.50000000000E+03  0.50000000000E+03  0.00000000000E+00 0.  1.
         23    2    1    2    0    0  0.21298699705E+02  0.10454287173E+03 -0.39100499289E+03  0.41529510092E+03  0.90566383095E+02 0.  0.
        -11    1    1    2    0    0 -0.16035318102E+03 -0.61667512077E+01  0.38176395896E+03  0.41411941737E+03  0.00000000000E+00 0.  1.
         11    1    1    2    0    0  0.13905448131E+03 -0.98376120521E+02  0.92410339318E+01  0.17058548171E+03  0.00000000000E+00 0.  1.
        -15    1    3    3    0    0  0.46093426562E+02  0.25907522765E+02 -0.20699595752E+03  0.21364991895E+03  0.17770000000E+01 0.  1.
         15    1    3    3    0    0 -0.24794726857E+02  0.78635348964E+02 -0.18400903537E+03  0.20164518197E+03  0.17770000000E+01 0. -1.
</event>
<event>
 7    1  0.5285153E-006  0.3470925E+03  0.7546771E-02  0.9827097E-01
        -11   -1    0    0    0    0  0.00000000000E+00  0.00000000000E+00  0.50000000000E+03  0.50000000000E+03  0.00000000000E+00 0.  1.
         11   -1    0    0    0    0 -0.00000000000E+00 -0.00000000000E+00 -0.50000000000E+03  0.50000000000E+03  0.00000000000E+00 0. -1.
         23    2    1    2    0    0  0.37377963996E+02  0.19613261661E+03 -0.14632028495E+03  0.26300105079E+03  0.88852751426E+02 0.  0.
        -11    1    1    2    0    0  0.32608209386E+02  0.82612601265E+02  0.36513608308E+03  0.37578251206E+03  0.00000000000E+00 0.  1.
         11    1    1    2    0    0 -0.69986173382E+02 -0.27874521788E+03 -0.21881579813E+03  0.36121643715E+03  0.00000000000E+00 0. -1.
        -15    1    3    3    0    0  0.43967675455E+02  0.20365591339E+03 -0.14037315393E+03  0.25123030791E+03  0.17770000000E+01 0. -1.
         15    1    3    3    0    0 -0.65897114590E+01 -0.75232967720E+01 -0.59471310212E+01  0.11770742874E+02  0.17770000000E+01 0.  1.
</event>
<event>
 7    1  0.5285153E-006  0.5308473E+03  0.7546771E-02  0.9333314E-01
        -11   -1    0    0    0    0  0.00000000000E+00  0.00000000000E+00  0.50000000000E+03  0.50000000000E+03  0.00000000000E+00 0.  1.
         11   -1    0    0    0    0 -0.00000000000E+00 -0.00000000000E+00 -0.50000000000E+03  0.50000000000E+03  0.00000000000E+00 0.  1.
         23    2    1    2    0    0 -0.13658492889E+02 -0.22606037799E+02 -0.12342047858E+03  0.15481161960E+03  0.89646169241E+02 0.  0.
        -11    1    1    2    0    0 -0.11547755369E+03 -0.16032759092E+03  0.42551647320E+03  0.46915271585E+03  0.00000000000E+00 0.  1.
         11    1    1    2    0    0  0.12913604658E+03  0.18293362872E+03 -0.30209599463E+03  0.37603566455E+03  0.00000000000E+00 0.  1.
        -15    1    3    3    0    0  0.37013841276E+02 -0.82387075820E+01 -0.33715471672E+02  0.50771955918E+02  0.17770000000E+01 0.  1.
         15    1    3    3    0    0 -0.50672334166E+02 -0.14367330217E+02 -0.89705006905E+02  0.10403966369E+03  0.17770000000E+01 0. -1.
</event>
<event>
 7    1  0.5285153E-006  0.5239351E+03  0.7546771E-02  0.9347790E-01
        -11   -1    0    0    0    0  0.00000000000E+00  0.00000000000E+00  0.50000000000E+03  0.50000000000E+03  0.00000000000E+00 0. -1.
         11   -1    0    0    0    0 -0.00000000000E+00 -0.00000000000E+00 -0.50000000000E+03  0.50000000000E+03  0.00000000000E+00 0. -1.
         23    2    1    2    0    0 -0.64704252041E+01  0.22717955412E+02 -0.31053177362E+03  0.33177022616E+03  0.11438325330E+03 0.  0.
        -11    1    1    2    0    0  0.12303204882E+03  0.99008812178E+01  0.45978569729E+03  0.47606491146E+03  0.00000000000E+00 0. -1.
         11    1    1    2    0    0 -0.11656162362E+03 -0.32618836630E+02 -0.14925392367E+03  0.19216486238E+03  0.00000000000E+00 0. -1.
        -15    1    3    3    0    0  0.17375732808E+02  0.63300297172E+02 -0.22172983234E+03  0.23124904322E+03  0.17770000000E+01 0.  1.
         15    1    3    3    0    0 -0.23846158012E+02 -0.40582341760E+02 -0.88801941285E+02  0.10052118294E+03  0.17770000000E+01 0. -1.
</event>
<event>
 7    1  0.5285153E-006  0.4643547E+03  0.7546771E-02  0.9483303E-01
        -11   -1    0    0    0    0  0.00000000000E+00  0.00000000000E+00  0.50000000000E+03  0.50000000000E+03  0.00000000000E+00 0.  1.
         11   -1    0    0    0    0 -0.00000000000E+00 -0.00000000000E+00 -0.50000000000E+03  0.50000000000E+03  0.00000000000E+00 0. -1.
         23    2    1    2    0    0 -0.35865420154E+02 -0.21565739941E+03  0.37422550692E+03  0.44342171397E+03  0.93721097429E+02 0.  0.
        -11    1    1    2    0    0 -0.44930354490E+02 -0.62853111105E+02  0.70152136897E+01  0.77578757101E+02  0.00000000000E+00 0.  1.
         11    1    1    2    0    0  0.80795774644E+02  0.27851051052E+03 -0.38124072061E+03  0.47899952893E+03  0.00000000000E+00 0. -1.
        -15    1    3    3    0    0  0.11784899579E+02 -0.12463848562E+03  0.14102044444E+03  0.18858303061E+03  0.17770000000E+01 0.  1.
         15    1    3    3    0    0 -0.47650319732E+02 -0.91018913793E+02  0.23320506248E+03  0.25483868335E+03  0.17770000000E+01 0. -1.
</event>
<event>
 7    1  0.5285153E-006  0.5148366E+03  0.7546771E-02  0.9367210E-01
        -11   -1    0    0    0    0  0.00000000000E+00  0.00000000000E+00  0.50000000000E+03  0.50000000000E+03  0.00000000000E+00 0. -1.
         11   -1    0    0    0    0 -0.00000000000E+00 -0.00000000000E+00 -0.50000000000E+03  0.50000000000E+03  0.00000000000E+00 0. -1.
         23    2    1    2    0    0  0.11706877587E+03  0.32707589097E+03 -0.32207030830E+03  0.48516341028E+03  0.10474022367E+03 0.  0.
        -11    1    1    2    0    0  0.23267377966E+02 -0.16774022325E+02  0.10992257852E+03  0.11360330969E+03  0.00000000000E+00 0. -1.
         11    1    1    2    0    0 -0.14033615383E+03 -0.31030186864E+03  0.21214772978E+03  0.40123328003E+03  0.00000000000E+00 0. -1.
        -15    1    3    3    0    0  0.26407587178E+02  0.20257604281E+03 -0.14525963002E+03  0.25067495213E+03  0.17770000000E+01 0.  1.
         15    1    3    3    0    0  0.90661188689E+02  0.12449984816E+03 -0.17681067828E+03  0.23448845816E+03  0.17770000000E+01 0. -1.
</event>
<event>
 7    1  0.5285153E-006  0.5209724E+03  0.7546771E-02  0.9354068E-01
        -11   -1    0    0    0    0  0.00000000000E+00  0.00000000000E+00  0.50000000000E+03  0.50000000000E+03  0.00000000000E+00 0. -1.
         11   -1    0    0    0    0 -0.00000000000E+00 -0.00000000000E+00 -0.50000000000E+03  0.50000000000E+03  0.00000000000E+00 0.  1.
         23    2    1    2    0    0  0.52651241624E+00  0.26886339222E+02  0.13006802585E+03  0.15899236071E+03  0.87394089992E+02 0.  0.
        -11    1    1    2    0    0 -0.16344952909E+03 -0.42869980614E+02  0.32011866837E+03  0.36198003486E+03  0.00000000000E+00 0. -1.
         11    1    1    2    0    0  0.16292301667E+03  0.15983641392E+02 -0.45018669422E+03  0.47902760443E+03  0.00000000000E+00 0.  1.
        -15    1    3    3    0    0 -0.28283273100E+01  0.54998961034E+02  0.11343150264E+03  0.12610610085E+03  0.17770000000E+01 0. -1.
         15    1    3    3    0    0  0.33548397262E+01 -0.28112621812E+02  0.16636523206E+02  0.32886259868E+02  0.17770000000E+01 0.  1.
</event>
<event>
 7    1  0.5285153E-006  0.4201554E+03  0.7546771E-02  0.9598654E-01
        -11   -1    0    0    0    0  0.00000000000E+00  0.00000000000E+00  0.50000000000E+03  0.50000000000E+03  0.00000000000E+00 0.  1.
         11   -1    0    0    0    0 -0.00000000000E+00 -0.00000000000E+00 -0.50000000000E+03  0.50000000000E+03  0.00000000000E+00 0.  1.
         23    2    1    2    0    0 -0.65547453441E+01  0.87158077876E+02 -0.35812098841E+03  0.38042113999E+03  0.93968644685E+02 0.  0.
        -11    1    1    2    0    0  0.14432332530E+03 -0.11458937011E+03  0.42556688502E+03  0.46375329604E+03  0.00000000000E+00 0.  1.
         11    1    1    2    0    0 -0.13776857996E+03  0.27431292237E+02 -0.67445896609E+02  0.15582556397E+03  0.00000000000E+00 0.  1.
        -15    1    3    3    0    0  0.17044027903E+02 -0.15075412700E+02 -0.78804112978E+02  0.82042750481E+02  0.17770000000E+01 0. -1.
         15    1    3    3    0    0 -0.23598773247E+02  0.10223349058E+03 -0.27931687543E+03  0.29837838950E+03  0.17770000000E+01 0.  1.
</event>
<event>
 7    1  0.5285153E-006  0.3707827E+03  0.7546771E-02  0.9746900E-01
        -11   -1    0    0    0    0  0.00000000000E+00  0.00000000000E+00  0.50000000000E+03  0.50000000000E+03  0.00000000000E+00 0.  1.
         11   -1    0    0    0    0 -0.00000000000E+00 -0.00000000000E+00 -0.50000000000E+03  0.50000000000E+03  0.00000000000E+00 0. -1.
         23    2    1    2    0    0  0.11187503569E+03  0.11002928152E+03 -0.14136619604E+03  0.22894487237E+03  0.88367905923E+02 0.  0.
        -11    1    1    2    0    0 -0.65306273180E+02 -0.36152059832E+02  0.44699994418E+03  0.45318961908E+03  0.00000000000E+00 0.  1.
         11    1    1    2    0    0 -0.46568762512E+02 -0.73877221689E+02 -0.30563374814E+03  0.31786550855E+03  0.00000000000E+00 0. -1.
        -15    1    3    3    0    0  0.27270482226E+02 -0.13258412617E+02 -0.20158728595E+02  0.36455408015E+02  0.17770000000E+01 0.  1.
         15    1    3    3    0    0  0.84604553466E+02  0.12328769414E+03 -0.12120746744E+03  0.19248946435E+03  0.17770000000E+01 0. -1.
</event>
<event>
 6    1  0.5285153E-006  0.5484094E+03  0.7546771E-02  0.9297563E-01
        -11   -1    0    0    0    0  0.00000000000E+00  0.00000000000E+00  0.50000000000E+03  0.50000000000E+03  0.00000000000E+00 0. -1.
         11   -1    0    0    0    0 -0.00000000000E+00 -0.00000000000E+00 -0.50000000000E+03  0.50000000000E+03  0.00000000000E+00 0.  1.
        -11    1    1    2    0    0 -0.22453863503E+03  0.74876606429E+02  0.38459060939E+03  0.45159056859E+03  0.00000000000E+00 0. -1.
         11    1    1    2    0    0  0.15447024722E+03 -0.59500845406E+02 -0.19321580836E+03  0.25442829340E+03  0.00000000000E+00 0.  1.
        -15    1    1    2    0    0  0.84562166786E+02  0.48854889677E+02 -0.66946652081E+01  0.97905753498E+02  0.17770000000E+01 0. -1.
         15    1    1    2    0    0 -0.14493778977E+02 -0.64230650699E+02 -0.18468013582E+03  0.19607538452E+03  0.17770000000E+01 0.  1.
</event>
<event>
 7    1  0.5285153E-006  0.4856642E+03  0.7546771E-02  0.9432471E-01
        -11   -1    0    0    0    0  0.00000000000E+00  0.00000000000E+00  0.50000000000E+03  0.50000000000E+03  0.00000000000E+00 0.  1.
         11   -1    0    0    0    0 -0.00000000000E+00 -0.00000000000E+00 -0.50000000000E+03  0.50000000000E+03  0.00000000000E+00 0. -1.
         23    2    1    2    0    0  0.35221690343E+02  0.72280841965E+02 -0.45736644815E+03  0.47275646744E+03  0.88597528300E+02 0.  0.
        -11    1    1    2    0    0 -0.21763449594E+02 -0.95939694931E+02  0.48114597935E+03  0.49110032198E+03  0.00000000000E+00 0.  1.
         11    1    1    2    0    0 -0.13458240749E+02  0.23658852966E+02 -0.23779531195E+02  0.36143210588E+02  0.00000000000E+00 0. -1.
        -15    1    3    3    0    0  0.46729418114E+02  0.63019544156E+02 -0.44875730601E+03  0.45556709592E+03  0.17770000000E+01 0. -1.
         15    1    3    3    0    0 -0.11507727771E+02  0.92612978093E+01 -0.86091421453E+01  0.17189371514E+02  0.17770000000E+01 0.  1.
</event>
<event>
 7    1  0.5285153E-006  0.5358450E+03  0.7546771E-02  0.9322993E-01
        -11   -1    0    0    0    0  0.00000000000E+00  0.00000000000E+00  0.50000000000E+03  0.50000000000E+03  0.00000000000E+00 0. -1.
         11   -1    0    0    0    0 -0.00000000000E+00 -0.00000000000E+00 -0.50000000000E+03  0.50000000000E+03  0.00000000000E+00 0. -1.
         23    2    1    2    0    0 -0.24222566581E+01 -0.87898760429E+02 -0.23763434903E+03  0.26811495235E+03  0.87655487139E+02 0.  0.
        -11    1    1    2    0    0 -0.56716728553E+02 -0.52725888913E+02  0.45764949573E+03  0.46415500385E+03  0.00000000000E+00 0. -1.
         11    1    1    2    0    0  0.59138985211E+02  0.14062464934E+03 -0.22001514670E+03  0.26773004380E+03  0.00000000000E+00 0. -1.
        -15    1    3    3    0    0  0.27018870967E+02 -0.13051330251E+02 -0.20043838483E+02  0.36128517819E+02  0.17770000000E+01 0.  1.
         15    1    3    3    0    0 -0.29441127625E+02 -0.74847430178E+02 -0.21759051055E+03  0.23198643454E+03  0.17770000000E+01 0. -1.
</event>
<event>
 7    1  0.5285153E-006  0.5065554E+03  0.7546771E-02  0.9385260E-01
        -11   -1    0    0    0    0  0.00000000000E+00  0.00000000000E+00  0.50000000000E+03  0.50000000000E+03  0.00000000000E+00 0.  1.
         11   -1    0    0    0    0 -0.00000000000E+00 -0.00000000000E+00 -0.50000000000E+03  0.50000000000E+03  0.00000000000E+00 0. -1.
         23    2    1    2    0    0  0.38286352606E+02 -0.51103206195E+02 -0.35775832734E+03  0.37456625907E+03  0.90727499530E+02 0.  0.
        -11    1    1    2    0    0 -0.75149892417E+02  0.56833831037E+02  0.48436551671E+03  0.49344457081E+03  0.00000000000E+00 0.  1.
         11    1    1    2    0    0  0.36863539811E+02 -0.57306248415E+01 -0.12660718938E+03  0.13198917012E+03  0.00000000000E+00 0. -1.
        -15    1    3    3    0    0 -0.39708703473E+01  0.17900293013E+02 -0.19767284528E+02  0.27020206658E+02  0.17770000000E+01 0.  1.
         15    1    3    3    0    0  0.42257222954E+02 -0.69003499208E+02 -0.33799104281E+03  0.34754605241E+03  0.17770000000E+01 0. -1.
</event>
<event>
 7    1  0.5285153E-006  0.5151154E+03  0.7546771E-02  0.9366609E-01
        -11   -1    0    0    0    0  0.00000000000E+00  0.00000000000E+00  0.50000000000E+03  0.50000000000E+03  0.00000000000E+00 0.  1.
         11   -1    0    0    0    0 -0.00000000000E+00 -0.00000000000E+00 -0.50000000000E+03  0.50000000000E+03  0.00000000000E+00 0. -1.
         23    2    1    2    0    0  0.12749183380E+02  0.24297789523E+02 -0.14856560744E+03  0.17657402860E+03  0.91398706827E+02 0.  0.
        -11    1    1    2    0    0 -0.12477284554E+03 -0.12803574684E+03  0.45072349510E+03  0.48488460946E+03  0.00000000000E+00 0.  1.
         11    1    1    2    0    0  0.11202366216E+03  0.10373795732E+03 -0.30215788765E+03  0.33854136194E+03  0.00000000000E+00 0. -1.
        -15    1    3    3    0    0 -0.37075152568E+02 -0.96267879351E-01 -0.81249040355E+02  0.89326034800E+02  0.17770000000E+01 0. -1.
         15    1    3    3    0    0  0.49824335948E+02  0.24394057402E+02 -0.67316567090E+02  0.87247993805E+02  0.17770000000E+01 0.  1.
</event>
<event>
 7    1  0.5285153E-006  0.4263400E+03  0.7546771E-02  0.9581624E-01
        -11   -1    0    0    0    0  0.00000000000E+00  0.00000000000E+00  0.50000000000E+03  0.50000000000E+03  0.00000000000E+00 0. -1.
         11   -1    0    0    0    0 -0.00000000000E+00 -0.00000000000E+00 -0.50000000000E+03  0.50000000000E+03  0.00000000000E+00 0.  1.
         23    2    1    2    0    0  0.75144538786E+02  0.13137969136E+02 -0.74058964081E+02  0.14071706548E+03  0.92180553333E+02 0.  0.
        -11    1    1    2    0    0  0.45459487658E+02  0.64407540166E+02  0.45003842088E+03  0.45689109919E+03  0.00000000000E+00 0. -1.
         11    1    1    2    0    0 -0.12060402644E+03 -0.77545509302E+02 -0.37597945680E+03  0.40239183533E+03  0.00000000000E+00 0.  1.
        -15    1    3    3    0    0  0.32779024388E+02  0.13504824221E+02  0.17677100264E+02  0.39654537191E+02  0.17770000000E+01 0. -1.
         15    1    3    3    0    0  0.42365514398E+02 -0.36685508452E+00 -0.91736064345E+02  0.10106252829E+03  0.17770000000E+01 0.  1.
</event>
<event>
 7    1  0.5285153E-006  0.4405883E+03  0.7546771E-02  0.9543537E-01
        -11   -1    0    0    0    0  0.00000000000E+00  0.00000000000E+00  0.50000000000E+03  0.50000000000E+03  0.00000000000E+00 0. -1.
         11   -1    0    0    0    0 -0.00000000000E+00 -0.00000000000E+00 -0.50000000000E+03  0.50000000000E+03  0.00000000000E+00 0. -1.
         23    2    1    2    0    0 -0.57946792887E+02 -0.15098932153E+02 -0.39127232741E+03  0.40991966366E+03  0.10655650097E+03 0.  0.
        -11    1    1    2    0    0 -0.23807744498E+01  0.10096527817E+03  0.45582244213E+03  0.46687659423E+03  0.00000000000E+00 0. -1.
         11    1    1    2    0    0  0.60327567337E+02 -0.85866346021E+02 -0.64550114722E+02  0.12320374211E+03  0.00000000000E+00 0. -1.
        -15    1    3    3    0    0  0.30085016709E+02 -0.14976725517E+02 -0.91933626042E+02  0.97899743941E+02  0.17770000000E+01 0.  1.
         15    1    3    3    0    0 -0.88031809596E+02 -0.12220663582E+00 -0.29933870137E+03  0.31201991972E+03  0.17770000000E+01 0. -1.
</event>
<event>
 7    1  0.5285153E-006  0.3568956E+03  0.7546771E-02  0.9793103E-01
        -11   -1    0    0    0    0  0.00000000000E+00  0.00000000000E+00  0.50000000000E+03  0.50000000000E+03  0.00000000000E+00 0. -1.
         11   -1    0    0    0    0 -0.00000000000E+00 -0.00000000000E+00 -0.50000000000E+03  0.50000000000E+03  0.00000000000E+00 0.  1.
         23    2    1    2    0    0 -0.15571436409E+02  0.11411243651E+03 -0.29300330634E+03  0.32577252431E+03  0.83741759413E+02 0.  0.
        -11    1    1    2    0    0  0.28552618131E+02  0.11109960736E+03  0.40602115861E+03  0.42191415715E+03  0.00000000000E+00 0. -1.
         11    1    1    2    0    0 -0.12981181722E+02 -0.22521204387E+03 -0.11301785227E+03  0.25231331854E+03  0.00000000000E+00 0.  1.
        -15    1    3    3    0    0  0.14071763236E+00 -0.13596103323E+02 -0.27975783801E+02  0.31155674208E+02  0.17770000000E+01 0.  1.
         15    1    3    3    0    0 -0.15712154041E+02  0.12770853983E+03 -0.26502752254E+03  0.29461685010E+03  0.17770000000E+01 0. -1.
</event>
<event>
 7    1  0.5285153E-006  0.3747308E+03  0.7546771E-02  0.9734159E-01
        -11   -1    0    0    0    0  0.00000000000E+00  0.00000000000E+00  0.50000000000E+03  0.50000000000E+03  0.00000000000E+00 0.  1.
         11   -1    0    0    0    0 -0.00000000000E+00 -0.00000000000E+00 -0.50000000000E+03  0.50000000000E+03  0.00000000000E+00 0. -1.
         23    2    1    2    0    0  0.85322692579E+02 -0.13834176761E+03 -0.12422219162E+03  0.22312019332E+03  0.89067734011E+02 0.  0.
        -11    1    1    2    0    0  0.11353398160E+02 -0.79815321739E+02  0.40239095372E+03  0.41038745701E+03  0.00000000000E+00 0.  1.
         11    1    1    2    0    0 -0.96676090740E+02  0.21815708935E+03 -0.27816876210E+03  0.36649234967E+03  0.00000000000E+00 0. -1.
        -15    1    3    3    0    0  0.10349643624E+03 -0.12580984411E+03 -0.10526576969E+03  0.19396821694E+03  0.17770000000E+01 0. -1.
         15    1    3    3    0    0 -0.18173743656E+02 -0.12531923503E+02 -0.18956421931E+02  0.29151976375E+02  0.17770000000E+01 0.  1.
</event>
<event>
 7    1  0.5285153E-006  0.5282325E+03  0.7546771E-02  0.9338763E-01
        -11   -1    0    0    0    0  0.00000000000E+00  0.00000000000E+00  0.50000000000E+03  0.50000000000E+03  0.00000000000E+00 0. -1.
         11   -1    0    0    0    0 -0.00000000000E+00 -0.00000000000E+00 -0.50000000000E+03  0.50000000000E+03  0.00000000000E+00 0.  1.
         23    2    1    2    0    0 -0.32766592832E+02 -0.16003261311E+02 -0.56982935188E+02  0.11241285138E+03  0.89776613184E+02 0.  0.
        -11    1    1    2    0    0 -0.19469314151E+02  0.80853993513E+02  0.46437929384E+03  0.47176747557E+03  0.00000000000E+00 0. -1.
         11    1    1    2    0    0  0.52235906983E+02 -0.64850732201E+02 -0.40739635865E+03  0.41581967304E+03  0.00000000000E+00 0.  1.
        -15    1    3    3    0    0  0.22376046073E+02  0.16140169774E+02 -0.12764882377E+01  0.27676337717E+02  0.17770000000E+01 0.  1.
         15    1    3    3    0    0 -0.55142638906E+02 -0.32143431085E+02 -0.55706446950E+02  0.84736513665E+02  0.17770000000E+01 0. -1.
</event>
<event>
 7    1  0.5285153E-006  0.5273820E+03  0.7546771E-02  0.9340542E-01
        -11   -1    0    0    0    0  0.00000000000E+00  0.00000000000E+00  0.50000000000E+03  0.50000000000E+03  0.00000000000E+00 0. -1.
         11   -1    0    0    0    0 -0.00000000000E+00 -0.00000000000E+00 -0.50000000000E+03  0.50000000000E+03  0.00000000000E+00 0. -1.
         23    2    1    2    0    0 -0.28752284512E+02 -0.13461719590E+03 -0.28576749145E+03  0.33601224696E+03  0.11087239352E+03 0.  0.
        -11    1    1    2    0    0 -0.46678305947E+02  0.10327264198E+03  0.45882856482E+03  0.47261797968E+03  0.00000000000E+00 0. -1.
         11    1    1    2    0    0  0.75430590460E+02  0.31344553919E+02 -0.17306107337E+03  0.19136977336E+03  0.00000000000E+00 0. -1.
        -15    1    3    3    0    0 -0.22534855181E+02 -0.10301258770E+03 -0.93145722164E+02  0.14070783990E+03  0.17770000000E+01 0.  1.
         15    1    3    3    0    0 -0.62174293315E+01 -0.31604608194E+02 -0.19262176928E+03  0.19530440706E+03  0.17770000000E+01 0. -1.
</event>
<event>
 7    1  0.5285153E-006  0.5139018E+03  0.7546771E-02  0.9369230E-01
        -11   -1    0    0    0    0  0.00000000000E+00  0.00000000000E+00  0.50000000000E+03  0.50000000000E+03  0.00000000000E+00 0. -1.
         11   -1    0    0    0    0 -0.00000000000E+00 -0.00000000000E+00 -0.50000000000E+03  0.50000000000E+03  0.00000000000E+00 0. -1.
         23    2    1    2    0    0 -0.26937622431E+01 -0.32177451480E+02 -0.14529842822E+03  0.17379782803E+03  0.89729633034E+02 0.  0.
        -11    1    1    2    0    0 -0.56975972902E+02  0.60850757375E+02  0.47889707625E+03  0.48609822650E+03  0.00000000000E+00 0. -1.
         11    1    1    2    0    0  0.59669735145E+02 -0.28673305894E+02 -0.33359864803E+03  0.34010394548E+03  0.00000000000E+00 0. -1.
        -15    1    3    3    0    0 -0.66119846829E+00  0.22356138643E+02 -0.46364110795E+01  0.22910437690E+02  0.17770000000E+01 0.  1.
         15    1    3    3    0    0 -0.20325637748E+01 -0.54533590123E+02 -0.14066201714E+03  0.15088739034E+03  0.17770000000E+01 0. -1.
</event>
<event>
 7    1  0.5285153E-006  0.5263878E+03  0.7546771E-02  0.9342627E-01
        -11   -1    0    0    0    0  0.00000000000E+00  0.00000000000E+00  0.50000000000E+03  0.50000000000E+03  0.00000000000E+00 0.  1.
         11   -1    0    0    0    0 -0.00000000000E+00 -0.00000000000E+00 -0.50000000000E+03  0.50000000000E+03  0.00000000000E+00 0. -1.
         23    2    1    2    0    0  0.14296705871E+03  0.22194984034E+02  0.10701975739E+03  0.20127314024E+03  0.90141285315E+02 0.  0.
        -11    1    1    2    0    0  0.72696994377E+02 -0.40976074784E+02  0.31422225835E+03  0.32511462492E+03  0.00000000000E+00 0.  1.
         11    1    1    2    0    0 -0.21566405309E+03  0.18781090750E+02 -0.42124201574E+03  0.47361223484E+03  0.00000000000E+00 0. -1.
        -15    1    3    3    0    0  0.11060076399E+03 -0.23456002621E+02  0.59156015689E+02  0.12761389021E+03  0.17770000000E+01 0.  1.
         15    1    3    3    0    0  0.32366294727E+02  0.45650986655E+02  0.47863741699E+02  0.73659250032E+02  0.17770000000E+01 0. -1.
</event>
<event>
 7    1  0.5285153E-006  0.5070206E+03  0.7546771E-02  0.9384236E-01
        -11   -1    0    0    0    0  0.00000000000E+00  0.00000000000E+00  0.50000000000E+03  0.50000000000E+03  0.00000000000E+00 0.  1.
         11   -1    0    0    0    0 -0.00000000000E+00 -0.00000000000E+00 -0.50000000000E+03  0.50000000000E+03  0.00000000000E+00 0. -1.
         23    2    1    2    0    0  0.35813165017E+02  0.36177489896E+02 -0.35656942830E+03  0.37214122894E+03  0.93573198710E+02 0.  0.
        -11    1    1    2    0    0 -0.73650975982E+02 -0.37149120037E+02  0.48602902596E+03  0.49297944933E+03  0.00000000000E+00 0.  1.
         11    1    1    2    0    0  0.37837810965E+02  0.97163014042E+00 -0.12945959766E+03  0.13487932173E+03  0.00000000000E+00 0. -1.
        -15    1    3    3    0    0  0.64119151630E+01 -0.26655324970E+02 -0.43318165449E+02  0.51295615721E+02  0.17770000000E+01 0.  1.
         15    1    3    3    0    0  0.29401249854E+02  0.62832814866E+02 -0.31325126285E+03  0.32084561322E+03  0.17770000000E+01 0. -1.
</event>
<event>
 7    1  0.5285153E-006  0.5192271E+03  0.7546771E-02  0.9357786E-01
        -11   -1    0    0    0    0  0.00000000000E+00  0.00000000000E+00  0.50000000000E+03  0.50000000000E+03  0.00000000000E+00 0.  1.
         11   -1    0    0    0    0 -0.00000000000E+00 -0.00000000000E+00 -0.50000000000E+03  0.50000000000E+03  0.00000000000E+00 0. -1.
         23    2    1    2    0    0 -0.67272956044E+02 -0.27867348375E+00 -0.17397882097E+03  0.20758412140E+03  0.91086821412E+02 0.  0.
        -11    1    1    2    0    0  0.28101918260E+02  0.74229024628E+02  0.47417599904E+03  0.48077286110E+03  0.00000000000E+00 0.  1.
         11    1    1    2    0    0  0.39171037784E+02 -0.73950351145E+02 -0.30019717807E+03  0.31164301750E+03  0.00000000000E+00 0. -1.
        -15    1    3    3    0    0 -0.86177832059E+02  0.14411368268E+01 -0.16572885906E+03  0.18680981791E+03  0.17770000000E+01 0.  1.
         15    1    3    3    0    0  0.18904876016E+02 -0.17198103105E+01 -0.82499619113E+01  0.20774303483E+02  0.17770000000E+01 0. -1.
</event>
<event>
 7    1  0.5285153E-006  0.5380987E+03  0.7546771E-02  0.9318377E-01
        -11   -1    0    0    0    0  0.00000000000E+00  0.00000000000E+00  0.50000000000E+03  0.50000000000E+03  0.00000000000E+00 0.  1.
         11   -1    0    0    0    0 -0.00000000000E+00 -0.00000000000E+00 -0.50000000000E+03  0.50000000000E+03  0.00000000000E+00 0. -1.
         23    2    1    2    0    0  0.16180342595E+03 -0.15307699575E+03  0.25422351188E+03  0.35021939188E+03  0.91712121233E+02 0.  0.
        -11    1    1    2    0    0 -0.41074735460E+02  0.43807463897E+02  0.17802360512E+03  0.18787930106E+03  0.00000000000E+00 0.  1.
         11    1    1    2    0    0 -0.12072869049E+03  0.10926953186E+03 -0.43224711700E+03  0.46190130705E+03  0.00000000000E+00 0. -1.
        -15    1    3    3    0    0  0.61684923016E+02 -0.11701518338E+03  0.16390623636E+03  0.21063236911E+03  0.17770000000E+01 0.  1.
         15    1    3    3    0    0  0.10011850294E+03 -0.36061812376E+02  0.90317275518E+02  0.13958702278E+03  0.17770000000E+01 0. -1.
</event>
<event>
 7    1  0.5285153E-006  0.4767256E+03  0.7546771E-02  0.9453449E-01
        -11   -1    0    0    0    0  0.00000000000E+00  0.00000000000E+00  0.50000000000E+03  0.50000000000E+03  0.00000000000E+00 0.  1.
         11   -1    0    0    0    0 -0.00000000000E+00 -0.00000000000E+00 -0.50000000000E+03  0.50000000000E+03  0.00000000000E+00 0.  1.
         23    2    1    2    0    0 -0.18704174630E+03 -0.17279624701E+02 -0.40573876482E+03  0.46401357819E+03  0.12410259939E+03 0.  0.
        -11    1    1    2    0    0  0.22929951882E+03  0.60896736285E+02  0.41148941295E+03  0.47498444057E+03  0.00000000000E+00 0.  1.
         11    1    1    2    0    0 -0.42257772516E+02 -0.43617111584E+02 -0.57506481245E+01  0.61001981236E+02  0.00000000000E+00 0.  1.
        -15    1    3    3    0    0 -0.52801536694E+02 -0.93483936152E+01 -0.23072280408E+02  0.58402761859E+02  0.17770000000E+01 0. -1.
         15    1    3    3    0    0 -0.13424020961E+03 -0.79312310860E+01 -0.38266648441E+03  0.40561081633E+03  0.17770000000E+01 0.  1.
</event>
<event>
 7    1  0.5285153E-006  0.5120141E+03  0.7546771E-02  0.9373321E-01
        -11   -1    0    0    0    0  0.00000000000E+00  0.00000000000E+00  0.50000000000E+03  0.50000000000E+03  0.00000000000E+00 0. -1.
         11   -1    0    0    0    0 -0.00000000000E+00 -0.00000000000E+00 -0.50000000000E+03  0.50000000000E+03  0.00000000000E+00 0.  1.
         23    2    1    2    0    0  0.15229260030E+03  0.20720822260E+03  0.24923626705E+03  0.36888488925E+03  0.88481981691E+02 0.  0.
        -11    1    1    2    0    0  0.38938524236E+02  0.23958457408E+02  0.13563100133E+03  0.14312925931E+03  0.00000000000E+00 0. -1.
         11    1    1    2    0    0 -0.19123112454E+03 -0.23116668001E+03 -0.38486726837E+03  0.48798585144E+03  0.00000000000E+00 0.  1.
        -15    1    3    3    0    0  0.79305032736E+02  0.17437486429E+03  0.16738883455E+03  0.25439744726E+03  0.17770000000E+01 0.  1.
         15    1    3    3    0    0  0.72987567566E+02  0.32833358315E+02  0.81847432498E+02  0.11448744199E+03  0.17770000000E+01 0. -1.
</event>
<event>
 7    1  0.5285153E-006  0.3847929E+03  0.7546771E-02  0.9702432E-01
        -11   -1    0    0    0    0  0.00000000000E+00  0.00000000000E+00  0.50000000000E+03  0.50000000000E+03  0.00000000000E+00 0. -1.
         11   -1    0    0    0    0 -0.00000000000E+00 -0.00000000000E+00 -0.50000000000E+03  0.50000000000E+03  0.00000000000E+00 0.  1.
         23    2    1    2    0    0 -0.87940602535E+02  0.13497364093E+02 -0.16597412399E+03  0.20770873476E+03  0.87634355426E+02 0.  0.
        -11    1    1    2    0    0 -0.95607737940E+02  0.48600058956E+02  0.44212115663E+03  0.45494386733E+03  0.00000000000E+00 0. -1.
         11    1    1    2    0    0  0.18354834047E+03 -0.62097423048E+02 -0.27614703264E+03  0.33734739791E+03  0.00000000000E+00 0.  1.
        -15    1    3    3    0    0 -0.48874603812E+02 -0.26019211157E+02 -0.35270934093E+02  0.65672846503E+02  0.17770000000E+01 0.  1.
         15    1    3    3    0    0 -0.39065998723E+02  0.39516575249E+02 -0.13070318989E+03  0.14203588826E+03  0.17770000000E+01 0. -1.
</event>
<event>
 7    1  0.5285153E-006  0.5183533E+03  0.7546771E-02  0.9359654E-01
        -11   -1    0    0    0    0  0.00000000000E+00  0.00000000000E+00  0.50000000000E+03  0.50000000000E+03  0.00000000000E+00 0.  1.
         11   -1    0    0    0    0 -0.00000000000E+00 -0.00000000000E+00 -0.50000000000E+03  0.50000000000E+03  0.00000000000E+00 0. -1.
         23    2    1    2    0    0 -0.11045130233E+03 -0.11537773312E+03  0.25086963214E+03  0.31094823733E+03  0.90783932929E+02 0.  0.
        -11    1    1    2    0    0 -0.63772847432E+02  0.43838859452E+02  0.19242672742E+03  0.20740507972E+03  0.00000000000E+00 0.  1.
         11    1    1    2    0    0  0.17422414976E+03  0.71538873668E+02 -0.44329635956E+03  0.48164668296E+03  0.00000000000E+00 0. -1.
        -15    1    3    3    0    0 -0.74570253913E+02 -0.95194428069E+02  0.10761614591E+03  0.16188605405E+03  0.17770000000E+01 0. -1.
         15    1    3    3    0    0 -0.35881048414E+02 -0.20183305051E+02  0.14325348623E+03  0.14906218328E+03  0.17770000000E+01 0.  1.
</event>
<event>
 7    1  0.5285153E-006  0.4863680E+03  0.7546771E-02  0.9430840E-01
        -11   -1    0    0    0    0  0.00000000000E+00  0.00000000000E+00  0.50000000000E+03  0.50000000000E+03  0.00000000000E+00 0.  1.
         11   -1    0    0    0    0 -0.00000000000E+00 -0.00000000000E+00 -0.50000000000E+03  0.50000000000E+03  0.00000000000E+00 0. -1.
         23    2    1    2    0    0 -0.57630358716E+02 -0.82551354969E+02 -0.46743190335E+03  0.48689079103E+03  0.91837212899E+02 0.  0.
        -11    1    1    2    0    0  0.24583843600E+02  0.95143996655E+02  0.46752876836E+03  0.47774459150E+03  0.00000000000E+00 0.  1.
         11    1    1    2    0    0  0.33046515116E+02 -0.12592641686E+02 -0.96865007927E-01  0.35364617469E+02  0.00000000000E+00 0. -1.
        -15    1    3    3    0    0 -0.82539120508E+02 -0.57775096817E+02 -0.33113372026E+03  0.34612622936E+03  0.17770000000E+01 0. -1.
         15    1    3    3    0    0  0.24908761793E+02 -0.24776258152E+02 -0.13629818309E+03  0.14076456168E+03  0.17770000000E+01 0.  1.
</event>
<event>
 7    1  0.5285153E-006  0.4605489E+03  0.7546771E-02  0.9492687E-01
        -11   -1    0    0    0    0  0.00000000000E+00  0.00000000000E+00  0.50000000000E+03  0.50000000000E+03  0.00000000000E+00 0.  1.
         11   -1    0    0    0    0 -0.00000000000E+00 -0.00000000000E+00 -0.50000000000E+03  0.50000000000E+03  0.00000000000E+00 0. -1.
         23    2    1    2    0    0 -0.23226854850E+03  0.18812963069E+03  0.35483723193E+03  0.47317473146E+03  0.92970042265E+02 0.  0.
        -11    1    1    2    0    0  0.79699725549E+02  0.28006199201E+02 -0.32441094139E+00  0.84477799976E+02  0.00000000000E+00 0.  1.
         11    1    1    2    0    0  0.15256882295E+03 -0.21613582989E+03 -0.35451282099E+03  0.44234746857E+03  0.00000000000E+00 0. -1.
        -15    1    3    3    0    0 -0.18760211779E+02  0.61350539048E+02  0.62121396835E+02  0.89319985788E+02  0.17770000000E+01 0. -1.
         15    1    3    3    0    0 -0.21350833673E+03  0.12677909164E+03  0.29271583510E+03  0.38385474567E+03  0.17770000000E+01 0.  1.
</event>
<event>
 7    1  0.5285153E-006  0.3866654E+03  0.7546771E-02  0.9696642E-01
        -11   -1    0    0    0    0  0.00000000000E+00  0.00000000000E+00  0.50000000000E+03  0.50000000000E+03  0.00000000000E+00 0. -1.
         11   -1    0    0    0    0 -0.00000000000E+00 -0.00000000000E+00 -0.50000000000E+03  0.50000000000E+03  0.00000000000E+00 0. -1.
         23    2    1    2    0    0  0.15163879389E+03  0.86251603350E+02 -0.57610389509E+02  0.20514587947E+03  0.91280950866E+02 0.  0.
        -11    1    1    2    0    0  0.12962098959E+03 -0.66236928795E+02  0.35582018679E+03  0.38444367208E+03  0.00000000000E+00 0. -1.
         11    1    1    2    0    0 -0.28125978348E+03 -0.20014674556E+02 -0.29820979728E+03  0.41041044845E+03  0.00000000000E+00 0. -1.
        -15    1    3    3    0    0  0.99152400867E+02  0.93196263448E+02 -0.66441799400E+02  0.15144111910E+03  0.17770000000E+01 0.  1.
         15    1    3    3    0    0  0.52486393023E+02 -0.69446600979E+01  0.88314098908E+01  0.53704760367E+02  0.17770000000E+01 0. -1.
</event>
<event>
 7    1  0.5285153E-006  0.5069951E+03  0.7546771E-02  0.9384292E-01
        -11   -1    0    0    0    0  0.00000000000E+00  0.00000000000E+00  0.50000000000E+03  0.50000000000E+03  0.00000000000E+00 0.  1.
         11   -1    0    0    0    0 -0.00000000000E+00 -0.00000000000E+00 -0.50000000000E+03  0.50000000000E+03  0.00000000000E+00 0.  1.
         23    2    1    2    0    0  0.32759548850E+02  0.80634966080E+02  0.31980061451E+03  0.34431888831E+03  0.93316011561E+02 0.  0.
        -11    1    1    2    0    0 -0.67067743798E+01  0.43524613758E+02  0.15660200187E+03  0.16267624232E+03  0.00000000000E+00 0.  1.
         11    1    1    2    0    0 -0.26052774470E+02 -0.12415957984E+03 -0.47640261638E+03  0.49300486937E+03  0.00000000000E+00 0.  1.
        -15    1    3    3    0    0 -0.23158698938E+02 -0.35531226836E+01  0.35395960689E+02  0.42485077138E+02  0.17770000000E+01 0.  1.
         15    1    3    3    0    0  0.55918247788E+02  0.84188088763E+02  0.28440465382E+03  0.30183381118E+03  0.17770000000E+01 0. -1.
</event>
<event>
 7    1  0.5285153E-006  0.5106941E+03  0.7546771E-02  0.9376194E-01
        -11   -1    0    0    0    0  0.00000000000E+00  0.00000000000E+00  0.50000000000E+03  0.50000000000E+03  0.00000000000E+00 0. -1.
         11   -1    0    0    0    0 -0.00000000000E+00 -0.00000000000E+00 -0.50000000000E+03  0.50000000000E+03  0.00000000000E+00 0.  1.
         23    2    1    2    0    0  0.43837849851E+02  0.31834280221E+03  0.23774331923E+03  0.40991730048E+03  0.90809749474E+02 0.  0.
        -11    1    1    2    0    0 -0.35863482137E+02  0.59611774971E+02  0.72912397722E+02  0.10077683666E+03  0.00000000000E+00 0. -1.
         11    1    1    2    0    0 -0.79743677146E+01 -0.37795457718E+03 -0.31065571695E+03  0.48930586286E+03  0.00000000000E+00 0.  1.
        -15    1    3    3    0    0  0.34942837976E+02  0.26106284260E+03  0.14537392573E+03  0.30085136816E+03  0.17770000000E+01 0. -1.
         15    1    3    3    0    0  0.88950118747E+01  0.57279959602E+02  0.92369393497E+02  0.10906593232E+03  0.17770000000E+01 0.  1.
</event>
<event>
 7    1  0.5285153E-006  0.5089239E+03  0.7546771E-02  0.9380060E-01
        -11   -1    0    0    0    0  0.00000000000E+00  0.00000000000E+00  0.50000000000E+03  0.50000000000E+03  0.00000000000E+00 0. -1.
         11   -1    0    0    0    0 -0.00000000000E+00 -0.00000000000E+00 -0.50000000000E+03  0.50000000000E+03  0.00000000000E+00 0.  1.
         23    2    1    2    0    0  0.46486852086E+02 -0.63491438861E+02  0.21063765798E+03  0.24267692782E+03  0.91278026445E+02 0.  0.
        -11    1    1    2    0    0  0.53398322045E+02 -0.70106592418E+02  0.25123921142E+03  0.26624698393E+03  0.00000000000E+00 0. -1.
         11    1    1    2    0    0 -0.99885174132E+02  0.13359803128E+03 -0.46187686939E+03  0.49107608825E+03  0.00000000000E+00 0.  1.
        -15    1    3    3    0    0 -0.37467148516E+01 -0.49708993234E+02  0.16827350360E+03  0.17551111539E+03  0.17770000000E+01 0.  1.
         15    1    3    3    0    0  0.50233566938E+02 -0.13782445627E+02  0.42364154375E+02  0.67165812432E+02  0.17770000000E+01 0. -1.
</event>
<event>
 6    1  0.5285153E-006  0.4054222E+03  0.7546771E-02  0.9640514E-01
        -11   -1    0    0    0    0  0.00000000000E+00  0.00000000000E+00  0.50000000000E+03  0.50000000000E+03  0.00000000000E+00 0.  1.
         11   -1    0    0    0    0 -0.00000000000E+00 -0.00000000000E+00 -0.50000000000E+03  0.50000000000E+03  0.00000000000E+00 0.  1.
        -11    1    1    2    0    0 -0.45323300494E+02 -0.78422431194E+02  0.38624299477E+03  0.39672147697E+03  0.00000000000E+00 0.  1.
         11    1    1    2    0    0  0.58988078008E+02  0.17897127257E+03 -0.58718984013E+01  0.18853325686E+03  0.00000000000E+00 0.  1.
        -15    1    1    2    0    0 -0.15407697767E+02  0.30332812496E+02 -0.89933518841E+02  0.96170017181E+02  0.17770000000E+01 0. -1.
         15    1    1    2    0    0  0.17429202536E+01 -0.13088165388E+03 -0.29043757753E+03  0.31857524898E+03  0.17770000000E+01 0.  1.
</event>
<event>
 7    1  0.5285153E-006  0.3220710E+03  0.7546771E-02  0.9919617E-01
        -11   -1    0    0    0    0  0.00000000000E+00  0.00000000000E+00  0.50000000000E+03  0.50000000000E+03  0.00000000000E+00 0. -1.
         11   -1    0    0    0    0 -0.00000000000E+00 -0.00000000000E+00 -0.50000000000E+03  0.50000000000E+03  0.00000000000E+00 0.  1.
         23    2    1    2    0    0 -0.13327258939E+03  0.23016178914E+03  0.95531427276E+02  0.29659306186E+03  0.90028653683E+02 0.  0.
        -11    1    1    2    0    0  0.32756967572E+02 -0.11130133235E+03  0.27664463639E+03  0.29998876704E+03  0.00000000000E+00 0. -1.
         11    1    1    2    0    0  0.10051562181E+03 -0.11886045679E+03 -0.37217606366E+03  0.40341817111E+03  0.00000000000E+00 0.  1.
        -15    1    3    3    0    0 -0.87364732947E+02  0.96353931199E+02  0.82005921498E+01  0.13033450833E+03  0.17770000000E+01 0. -1.
         15    1    3    3    0    0 -0.45907856438E+02  0.13380785794E+03  0.87330835126E+02  0.16625855353E+03  0.17770000000E+01 0.  1.
</event>
<event>
 7    1  0.5285153E-006  0.4760997E+03  0.7546771E-02  0.9454936E-01
        -11   -1    0    0    0    0  0.00000000000E+00  0.00000000000E+00  0.50000000000E+03  0.50000000000E+03  0.00000000000E+00 0. -1.
         11   -1    0    0    0    0 -0.00000000000E+00 -0.00000000000E+00 -0.50000000000E+03  0.50000000000E+03  0.00000000000E+00 0. -1.
         23    2    1    2    0    0 -0.69472297095E+02  0.92062107106E+02 -0.43227742286E+03  0.45683218438E+03  0.92358230488E+02 0.  0.
        -11    1    1    2    0    0  0.92252433645E+02 -0.13404311042E+03  0.46000667993E+03  0.48793873852E+03  0.00000000000E+00 0. -1.
         11    1    1    2    0    0 -0.22780136550E+02  0.41981003316E+02 -0.27729257068E+02  0.55229077108E+02  0.00000000000E+00 0. -1.
        -15    1    3    3    0    0 -0.67784993269E+01  0.84132986874E+02 -0.25599831604E+03  0.26956001758E+03  0.17770000000E+01 0.  1.
         15    1    3    3    0    0 -0.62693797768E+02  0.79291202319E+01 -0.17627910682E+03  0.18727216680E+03  0.17770000000E+01 0. -1.
</event>
<event>
 7    1  0.5285153E-006  0.4472835E+03  0.7546771E-02  0.9526166E-01
        -11   -1    0    0    0    0  0.00000000000E+00  0.00000000000E+00  0.50000000000E+03  0.50000000000E+03  0.00000000000E+00 0. -1.
         11   -1    0    0    0    0 -0.00000000000E+00 -0.00000000000E+00 -0.50000000000E+03  0.50000000000E+03  0.00000000000E+00 0.  1.
         23    2    1    2    0    0 -0.52174926718E+02 -0.14724937005E+01  0.13421292778E+02  0.10381107529E+03  0.88725515143E+02 0.  0.
        -11    1    1    2    0    0  0.15653091568E+03  0.62525919781E+02  0.41664605465E+03  0.44945005625E+03  0.00000000000E+00 0. -1.
         11    1    1    2    0    0 -0.10435598896E+03 -0.61053426080E+02 -0.43006734743E+03  0.44673886846E+03  0.00000000000E+00 0.  1.
        -15    1    3    3    0    0 -0.45949086907E+02  0.27771327068E+02  0.37389283453E+02  0.65449839120E+02  0.17770000000E+01 0.  1.
         15    1    3    3    0    0 -0.62258398110E+01 -0.29243820768E+02 -0.23967990676E+02  0.38361236170E+02  0.17770000000E+01 0. -1.
</event>
<event>
 7    1  0.5285153E-006  0.5200014E+03  0.7546771E-02  0.9356135E-01
        -11   -1    0    0    0    0  0.00000000000E+00  0.00000000000E+00  0.50000000000E+03  0.50000000000E+03  0.00000000000E+00 0.  1.
         11   -1    0    0    0    0 -0.00000000000E+00 -0.00000000000E+00 -0.50000000000E+03  0.50000000000E+03  0.00000000000E+00 0. -1.
         23    2    1    2    0    0 -0.28489947305E+02 -0.90329361263E+02  0.18673434445E+03  0.23023609528E+03  0.95749013415E+02 0.  0.
        -11    1    1    2    0    0 -0.40115985850E+02  0.33870355619E+02  0.28496920959E+03  0.28976532527E+03  0.00000000000E+00 0.  1.
         11    1    1    2    0    0  0.68605933155E+02  0.56459005644E+02 -0.47170355404E+03  0.47999857945E+03  0.00000000000E+00 0. -1.
        -15    1    3    3    0    0 -0.53738065279E+02 -0.93000985198E+02  0.16433656291E+03  0.19633294819E+03  0.17770000000E+01 0.  1.
         15    1    3    3    0    0  0.25248117974E+02  0.26716239354E+01  0.22397781538E+02  0.33903147088E+02  0.17770000000E+01 0. -1.
</event>
<event>
 7    1  0.5285153E-006  0.4813720E+03  0.7546771E-02  0.9442484E-01
        -11   -1    0    0    0    0  0.00000000000E+00  0.00000000000E+00  0.50000000000E+03  0.50000000000E+03  0.00000000000E+00 0. -1.
         11   -1    0    0    0    0 -0.00000000000E+00 -0.00000000000E+00 -0.50000000000E+03  0.50000000000E+03  0.00000000000E+00 0.  1.
         23    2    1    2    0    0 -0.71045349935E+02  0.14440820904E+03 -0.43558619211E+03  0.47332040602E+03  0.91628071087E+02 0.  0.
        -11    1    1    2    0    0  0.45517839760E+02 -0.12072317034E+03  0.46408262498E+03  0.48168313278E+03  0.00000000000E+00 0. -1.
         11    1    1    2    0    0  0.25527510175E+02 -0.23685038705E+02 -0.28496432873E+02  0.44996461202E+02  0.00000000000E+00 0.  1.
        -15    1    3    3    0    0 -0.34841661191E+02  0.24012573974E+01 -0.12654415413E+03  0.13128704454E+03  0.17770000000E+01 0. -1.
         15    1    3    3    0    0 -0.36203688744E+02  0.14200695164E+03 -0.30904203798E+03  0.34203336147E+03  0.17770000000E+01 0.  1.
</event>
<event>
 7    1  0.5285153E-006  0.5094076E+03  0.7546771E-02  0.9379002E-01
        -11   -1    0    0    0    0  0.00000000000E+00  0.00000000000E+00  0.50000000000E+03  0.50000000000E+03  0.00000000000E+00 0. -1.
         11   -1    0    0    0    0 -0.00000000000E+00 -0.00000000000E+00 -0.50000000000E+03  0.50000000000E+03  0.00000000000E+00 0. -1.
         23    2    1    2    0    0 -0.56765388776E+02  0.32557032287E+02 -0.32297588764E+03  0.34221546403E+03  0.92280713651E+02 0.  0.
        -11    1    1    2    0    0  0.11708574325E+03 -0.46662225590E+01  0.47639280734E+03  0.49059244979E+03  0.00000000000E+00 0. -1.
         11    1    1    2    0    0 -0.60320354470E+02 -0.27890809728E+02 -0.15341691970E+03  0.16719208618E+03  0.00000000000E+00 0. -1.
        -15    1    3    3    0    0 -0.65472170205E+02  0.54060362991E+01 -0.29499594563E+03  0.30222772204E+03  0.17770000000E+01 0. -1.
         15    1    3    3    0    0  0.87067814295E+01  0.27150995988E+02 -0.27979942004E+02  0.39987741991E+02  0.17770000000E+01 0.  1.
</event>
<event>
 7    1  0.5285153E-006  0.4176695E+03  0.7546771E-02  0.9605587E-01
        -11   -1    0    0    0    0  0.00000000000E+00  0.00000000000E+00  0.50000000000E+03  0.50000000000E+03  0.00000000000E+00 0. -1.
         11   -1    0    0    0    0 -0.00000000000E+00 -0.00000000000E+00 -0.50000000000E+03  0.50000000000E+03  0.00000000000E+00 0.  1.
         23    2    1    2    0    0  0.92441290493E+02 -0.11865717545E+01 -0.41067268421E+03  0.43237117535E+03  0.98721727978E+02 0.  0.
        -11    1    1    2    0    0  0.53681719259E+02 -0.64992832559E+02  0.39787677486E+03  0.40670840074E+03  0.00000000000E+00 0. -1.
         11    1    1    2    0    0 -0.14612300975E+03  0.66179404313E+02  0.12795909357E+02  0.16092042391E+03  0.00000000000E+00 0.  1.
        -15    1    3    3    0    0 -0.19914609336E+02  0.92053254501E+01 -0.55665381562E+02  0.59859185721E+02  0.17770000000E+01 0. -1.
         15    1    3    3    0    0  0.11235589983E+03 -0.10391897205E+02 -0.35500730265E+03  0.37251198963E+03  0.17770000000E+01 0.  1.
</event>
<event>
 7    1  0.5285153E-006  0.4929261E+03  0.7546771E-02  0.9415779E-01
        -11   -1    0    0    0    0  0.00000000000E+00  0.00000000000E+00  0.50000000000E+03  0.50000000000E+03  0.00000000000E+00 0. -1.
         11   -1    0    0    0    0 -0.00000000000E+00 -0.00000000000E+00 -0.50000000000E+03  0.50000000000E+03  0.00000000000E+00 0.  1.
         23    2    1    2    0    0  0.67784624846E+02  0.99603290897E+02 -0.46103072396E+03  0.48596192506E+03  0.95362955315E+02 0.  0.
        -11    1    1    2    0    0 -0.71474995539E+02 -0.12046873501E+03  0.47044154397E+03  0.49085296922E+03  0.00000000000E+00 0. -1.
         11    1    1    2    0    0  0.36903706925E+01  0.20865444115E+02 -0.94108200047E+01  0.23185105718E+02  0.00000000000E+00 0.  1.
        -15    1    3    3    0    0 -0.18618433454E+02  0.23582465491E+02 -0.43789097137E+02  0.53135877710E+02  0.17770000000E+01 0. -1.
         15    1    3    3    0    0  0.86403058300E+02  0.76020825406E+02 -0.41724162683E+03  0.43282604735E+03  0.17770000000E+01 0.  1.
</event>
<event>
 7    1  0.5285153E-006  0.4620263E+03  0.7546771E-02  0.9489033E-01
        -11   -1    0    0    0    0  0.00000000000E+00  0.00000000000E+00  0.50000000000E+03  0.50000000000E+03  0.00000000000E+00 0.  1.
         11   -1    0    0    0    0 -0.00000000000E+00 -0.00000000000E+00 -0.50000000000E+03  0.50000000000E+03  0.00000000000E+00 0. -1.
         23    2    1    2    0    0 -0.22861381459E+03 -0.19545241773E+03 -0.34208611212E+03  0.46426719609E+03  0.89750751766E+02 0.  0.
        -11    1    1    2    0    0  0.19494251065E+03  0.26397610979E+03  0.31456780251E+03  0.45457548480E+03  0.00000000000E+00 0.  1.
         11    1    1    2    0    0  0.33671303934E+02 -0.68523692055E+02  0.27518309611E+02  0.81157319111E+02  0.00000000000E+00 0. -1.
        -15    1    3    3    0    0 -0.23236382181E+03 -0.18125464866E+03 -0.30394335307E+03  0.42335672068E+03  0.17770000000E+01 0. -1.
         15    1    3    3    0    0  0.37500072185E+01 -0.14197769076E+02 -0.38142759059E+02  0.40910475412E+02  0.17770000000E+01 0.  1.
</event>
<event>
 7    1  0.5285153E-006  0.4026437E+03  0.7546771E-02  0.9648622E-01
        -11   -1    0    0    0    0  0.00000000000E+00  0.00000000000E+00  0.50000000000E+03  0.50000000000E+03  0.00000000000E+00 0. -1.
         11   -1    0    0    0    0 -0.00000000000E+00 -0.00000000000E+00 -0.50000000000E+03  0.50000000000E+03  0.00000000000E+00 0.  1.
         23    2    1    2    0    0  0.53727585647E+02  0.93341981167E+02  0.11121648391E+03  0.17996576893E+03  0.91756159393E+02 0.  0.
        -11    1    1    2    0    0  0.41501489649E+02 -0.14732451871E+03  0.33089122203E+03  0.36457631337E+03  0.00000000000E+00 0. -1.
         11    1    1    2    0    0 -0.95229075296E+02  0.53982537547E+02 -0.44210770594E+03  0.45545791769E+03  0.00000000000E+00 0.  1.
        -15    1    3    3    0    0  0.18313148793E+02  0.61655219305E+02  0.61459205757E+01  0.64634878780E+02  0.17770000000E+01 0.  1.
         15    1    3    3    0    0  0.35414436854E+02  0.31686761862E+02  0.10507056333E+03  0.11533089015E+03  0.17770000000E+01 0. -1.
</event>
<event>
 7    1  0.5285153E-006  0.5386726E+03  0.7546771E-02  0.9317206E-01
        -11   -1    0    0    0    0  0.00000000000E+00  0.00000000000E+00  0.50000000000E+03  0.50000000000E+03  0.00000000000E+00 0.  1.
         11   -1    0    0    0    0 -0.00000000000E+00 -0.00000000000E+00 -0.50000000000E+03  0.50000000000E+03  0.00000000000E+00 0. -1.
         23    2    1    2    0    0  0.68411509576E+02 -0.35857485530E+01 -0.68273676444E+02  0.13403445416E+03  0.92795192612E+02 0.  0.
        -11    1    1    2    0    0  0.27240393691E+02  0.96802588919E+02  0.45023352790E+03  0.46132744327E+03  0.00000000000E+00 0.  1.
         11    1    1    2    0    0 -0.95651903267E+02 -0.93216840367E+02 -0.38195985146E+03  0.40463810257E+03  0.00000000000E+00 0. -1.
        -15    1    3    3    0    0  0.11281883824E+01  0.36706818546E+02 -0.24782808506E+02  0.44339696247E+02  0.17770000000E+01 0. -1.
         15    1    3    3    0    0  0.67283321194E+02 -0.40292567099E+02 -0.43490867937E+02  0.89694757914E+02  0.17770000000E+01 0.  1.
</event>
<event>
 7    1  0.5285153E-006  0.5087270E+03  0.7546771E-02  0.9380491E-01
        -11   -1    0    0    0    0  0.00000000000E+00  0.00000000000E+00  0.50000000000E+03  0.50000000000E+03  0.00000000000E+00 0. -1.
         11   -1    0    0    0    0 -0.00000000000E+00 -0.00000000000E+00 -0.50000000000E+03  0.50000000000E+03  0.00000000000E+00 0. -1.
         23    2    1    2    0    0  0.14351050295E+02  0.45183576399E+02 -0.38513879940E+03  0.39879795493E+03  0.91980464378E+02 0.  0.
        -11    1    1    2    0    0 -0.58080025486E+02 -0.71021857224E+02  0.48263007770E+03  0.49127302538E+03  0.00000000000E+00 0. -1.
         11    1    1    2    0    0  0.43728975191E+02  0.25838280825E+02 -0.97491278298E+02  0.10992901970E+03  0.00000000000E+00 0. -1.
        -15    1    3    3    0    0 -0.99471580986E+01 -0.24498930281E+02 -0.15068566688E+03  0.15299827278E+03  0.17770000000E+01 0.  1.
         15    1    3    3    0    0  0.24298208393E+02  0.69682506680E+02 -0.23445313252E+03  0.24579968215E+03  0.17770000000E+01 0. -1.
</event>
<event>
 7    1  0.5285153E-006  0.5230415E+03  0.7546771E-02  0.9349679E-01
        -11   -1    0    0    0    0  0.00000000000E+00  0.00000000000E+00  0.50000000000E+03  0.50000000000E+03  0.00000000000E+00 0.  1.
         11   -1    0    0    0    0 -0.00000000000E+00 -0.00000000000E+00 -0.50000000000E+03  0.50000000000E+03  0.00000000000E+00 0. -1.
         23    2    1    2    0    0  0.83530949999E+02 -0.11129173484E+03 -0.39132306465E+03  0.42538422944E+03  0.91949615978E+02 0.  0.
        -11    1    1    2    0    0 -0.80272273622E+02  0.50227547324E+02  0.46746435865E+03  0.47695845839E+03  0.00000000000E+00 0.  1.
         11    1    1    2    0    0 -0.32586763770E+01  0.61064187511E+02 -0.76141293996E+02  0.97657312166E+02  0.00000000000E+00 0. -1.
        -15    1    3    3    0    0 -0.15777149568E+02 -0.20754549206E+00 -0.60514838439E+02  0.62563287349E+02  0.17770000000E+01 0.  1.
         15    1    3    3    0    0  0.99308099567E+02 -0.11108418934E+03 -0.33080822622E+03  0.36282094209E+03  0.17770000000E+01 0. -1.
</event>
<event>
 7    1  0.5285153E-006  0.5342593E+03  0.7546771E-02  0.9326255E-01
        -11   -1    0    0    0    0  0.00000000000E+00  0.00000000000E+00  0.50000000000E+03  0.50000000000E+03  0.00000000000E+00 0. -1.
         11   -1    0    0    0    0 -0.00000000000E+00 -0.00000000000E+00 -0.50000000000E+03  0.50000000000E+03  0.00000000000E+00 0. -1.
         23    2    1    2    0    0 -0.17818463435E+01  0.37910328108E+02 -0.19114039401E+03  0.21791565827E+03  0.97530589764E+02 0.  0.
        -11    1    1    2    0    0  0.26953284753E+02  0.16017856498E+03  0.43649827618E+03  0.46574069754E+03  0.00000000000E+00 0. -1.
         11    1    1    2    0    0 -0.25171438409E+02 -0.19808889309E+03 -0.24535788217E+03  0.31634364419E+03  0.00000000000E+00 0. -1.
        -15    1    3    3    0    0 -0.97319996826E+01 -0.23703849741E+02 -0.12314804530E+03  0.12579818401E+03  0.17770000000E+01 0.  1.
         15    1    3    3    0    0  0.79501533391E+01  0.61614177849E+02 -0.67992348712E+02  0.92117474252E+02  0.17770000000E+01 0. -1.
</event>
<event>
 7    1  0.5285153E-006  0.4756113E+03  0.7546771E-02  0.9456098E-01
        -11   -1    0    0    0    0  0.00000000000E+00  0.00000000000E+00  0.50000000000E+03  0.50000000000E+03  0.00000000000E+00 0.  1.
         11   -1    0    0    0    0 -0.00000000000E+00 -0.00000000000E+00 -0.50000000000E+03  0.50000000000E+03  0.00000000000E+00 0. -1.
         23    2    1    2    0    0  0.28337404552E+02  0.94693069292E+02 -0.44101639049E+03  0.45918275702E+03  0.81139150851E+02 0.  0.
        -11    1    1    2    0    0 -0.44444723927E+02 -0.14128349487E+03  0.46353441771E+03  0.48662153242E+03  0.00000000000E+00 0.  1.
         11    1    1    2    0    0  0.16107319376E+02  0.46590425579E+02 -0.22518027224E+02  0.54195710561E+02  0.00000000000E+00 0. -1.
        -15    1    3    3    0    0  0.53492136145E+02  0.64775200706E+02 -0.35296982724E+03  0.36283342173E+03  0.17770000000E+01 0. -1.
         15    1    3    3    0    0 -0.25154731594E+02  0.29917868586E+02 -0.88046563250E+02  0.96349335293E+02  0.17770000000E+01 0.  1.
</event>
<event>
 6    1  0.5285153E-006  0.5514151E+03  0.7546771E-02  0.9291587E-01
        -11   -1    0    0    0    0  0.00000000000E+00  0.00000000000E+00  0.50000000000E+03  0.50000000000E+03  0.00000000000E+00 0.  1.
         11   -1    0    0    0    0 -0.00000000000E+00 -0.00000000000E+00 -0.50000000000E+03  0.50000000000E+03  0.00000000000E+00 0. -1.
        -11    1    1    2    0    0 -0.85078234150E+02 -0.11343664077E+03  0.32322301399E+03  0.35295792124E+03  0.00000000000E+00 0.  1.
         11    1    1    2    0    0 -0.23254966088E+02  0.15373163857E+03 -0.42077804316E+03  0.44858485457E+03  0.00000000000E+00 0. -1.
        -15    1    1    2    0    0  0.38738102475E+02  0.44329124450E+02  0.13689824734E+02  0.60467188525E+02  0.17770000000E+01 0.  1.
         15    1    1    2    0    0  0.69595097762E+02 -0.84624122252E+02  0.83865204430E+02  0.13799003566E+03  0.17770000000E+01 0. -1.
</event>
<event>
 7    1  0.5285153E-006  0.4216923E+03  0.7546771E-02  0.9594393E-01
        -11   -1    0    0    0    0  0.00000000000E+00  0.00000000000E+00  0.50000000000E+03  0.50000000000E+03  0.00000000000E+00 0. -1.
         11   -1    0    0    0    0 -0.00000000000E+00 -0.00000000000E+00 -0.50000000000E+03  0.50000000000E+03  0.00000000000E+00 0. -1.
         23    2    1    2    0    0 -0.11536480651E+03  0.20102211164E+03 -0.34785660476E+03  0.42785627330E+03  0.91311801951E+02 0.  0.
        -11    1    1    2    0    0  0.10553907827E+03 -0.58419659954E+02  0.40168255507E+03  0.41940461223E+03  0.00000000000E+00 0. -1.
         11    1    1    2    0    0  0.98257282489E+01 -0.14260245169E+03 -0.53825950308E+02  0.15273911447E+03  0.00000000000E+00 0. -1.
        -15    1    3    3    0    0 -0.23452149035E+02 -0.39782922707E+01 -0.25349682781E+02  0.34807962448E+02  0.17770000000E+01 0.  1.
         15    1    3    3    0    0 -0.91912657480E+02  0.20500040391E+03 -0.32250692198E+03  0.39304831085E+03  0.17770000000E+01 0. -1.
</event>
<event>
 7    1  0.5285153E-006  0.5229102E+03  0.7546771E-02  0.9349957E-01
        -11   -1    0    0    0    0  0.00000000000E+00  0.00000000000E+00  0.50000000000E+03  0.50000000000E+03  0.00000000000E+00 0. -1.
         11   -1    0    0    0    0 -0.00000000000E+00 -0.00000000000E+00 -0.50000000000E+03  0.50000000000E+03  0.00000000000E+00 0. -1.
         23    2    1    2    0    0  0.42024475199E+02 -0.35121015685E+02 -0.14414923210E+03  0.18026607052E+03  0.93366550799E+02 0.  0.
        -11    1    1    2    0    0 -0.11891500381E+03 -0.92620026409E+02  0.45265378442E+03  0.47708981961E+03  0.00000000000E+00 0. -1.
         11    1    1    2    0    0  0.76890528613E+02  0.12774104209E+03 -0.30850455232E+03  0.34264410987E+03  0.00000000000E+00 0. -1.
        -15    1    3    3    0    0 -0.26457001222E+02  0.37672740784E+01 -0.55827422730E+02  0.61919497133E+02  0.17770000000E+01 0.  1.
         15    1    3    3    0    0  0.68481476421E+02 -0.38888289764E+02 -0.88321809370E+02  0.11834657339E+03  0.17770000000E+01 0. -1.
</event>
<event>
 7    1  0.5285153E-006  0.3488768E+03  0.7546771E-02  0.9820820E-01
        -11   -1    0    0    0    0  0.00000000000E+00  0.00000000000E+00  0.50000000000E+03  0.50000000000E+03  0.00000000000E+00 0.  1.
         11   -1    0    0    0    0 -0.00000000000E+00 -0.00000000000E+00 -0.50000000000E+03  0.50000000000E+03  0.00000000000E+00 0. -1.
         23    2    1    2    0    0  0.18476321658E+03 -0.12272942635E+03  0.10396659787E+03  0.26049393607E+03  0.88589384034E+02 0.  0.
        -11    1    1    2    0    0 -0.46474451037E+02 -0.19228476772E+02  0.29221997075E+03  0.29651664409E+03  0.00000000000E+00 0.  1.
         11    1    1    2    0    0 -0.13828876554E+03  0.14195790312E+03 -0.39618656862E+03  0.44298941984E+03  0.00000000000E+00 0. -1.
        -15    1    3    3    0    0  0.36258294182E+02  0.46451926046E+01  0.40994462277E+02  0.54954029676E+02  0.17770000000E+01 0.  1.
         15    1    3    3    0    0  0.14850492240E+03 -0.12737461895E+03  0.62972135593E+02  0.20553990639E+03  0.17770000000E+01 0. -1.
</event>
<event>
 7    1  0.5285153E-006  0.5285649E+03  0.7546771E-02  0.9338068E-01
        -11   -1    0    0    0    0  0.00000000000E+00  0.00000000000E+00  0.50000000000E+03  0.50000000000E+03  0.00000000000E+00 0. -1.
         11   -1    0    0    0    0 -0.00000000000E+00 -0.00000000000E+00 -0.50000000000E+03  0.50000000000E+03  0.00000000000E+00 0.  1.
         23    2    1    2    0    0 -0.11821484363E+03  0.36619985486E+02  0.17696981436E+03  0.23621789434E+03  0.95732992338E+02 0.  0.
        -11    1    1    2    0    0  0.36347279412E+02 -0.40131263182E+02  0.28728923523E+03  0.29234696455E+03  0.00000000000E+00 0. -1.
         11    1    1    2    0    0  0.81867564215E+02  0.35112776964E+01 -0.46425904959E+03  0.47143514110E+03  0.00000000000E+00 0.  1.
        -15    1    3    3    0    0 -0.37027072237E+02 -0.23900851929E+02  0.17810153738E+02  0.47566943423E+02  0.17770000000E+01 0.  1.
         15    1    3    3    0    0 -0.81187771390E+02  0.60520837415E+02  0.15915966062E+03  0.18865095092E+03  0.17770000000E+01 0. -1.
</event>
<event>
 7    1  0.5285153E-006  0.5175561E+03  0.7546771E-02  0.9361361E-01
        -11   -1    0    0    0    0  0.00000000000E+00  0.00000000000E+00  0.50000000000E+03  0.50000000000E+03  0.00000000000E+00 0. -1.
         11   -1    0    0    0    0 -0.00000000000E+00 -0.00000000000E+00 -0.50000000000E+03  0.50000000000E+03  0.00000000000E+00 0.  1.
         23    2    1    2    0    0 -0.67053503056E+02 -0.98553535720E+02  0.16047491035E+03  0.21924356431E+03  0.90036503510E+02 0.  0.
        -11    1    1    2    0    0 -0.58703277514E+02 -0.10756756738E+02  0.29228172763E+03  0.29831257250E+03  0.00000000000E+00 0. -1.
         11    1    1    2    0    0  0.12575678057E+03  0.10931029246E+03 -0.45275663798E+03  0.48244386319E+03  0.00000000000E+00 0.  1.
        -15    1    3    3    0    0 -0.60161734634E+02 -0.13613981815E+02  0.87284702435E+02  0.10689505051E+03  0.17770000000E+01 0.  1.
         15    1    3    3    0    0 -0.68917684215E+01 -0.84939553905E+02  0.73190207914E+02  0.11234851380E+03  0.17770000000E+01 0. -1.
</event>
<event>
 7    1  0.5285153E-006  0.4861357E+03  0.7546771E-02  0.9431378E-01
        -11   -1    0    0    0    0  0.00000000000E+00  0.00000000000E+00  0.50000000000E+03  0.50000000000E+03  0.00000000000E+00 0. -1.
         11   -1    0    0    0    0 -0.00000000000E+00 -0.00000000000E+00 -0.50000000000E+03  0.50000000000E+03  0.00000000000E+00 0.  1.
         23    2    1    2    0    0 -0.12550298502E+03  0.17321721299E+03  0.42194669878E+03  0.48188668024E+03  0.91763575897E+02 0.  0.
        -11    1    1    2    0    0  0.18063170545E+02 -0.20809595682E+02  0.22858858401E+02  0.35802860360E+02  0.00000000000E+00 0. -1.
         11    1    1    2    0    0  0.10743981447E+03 -0.15240761731E+03 -0.44480555718E+03  0.48231045940E+03  0.00000000000E+00 0.  1.
        -15    1    3    3    0    0 -0.21685696104E+02  0.83930672376E+02  0.23239245121E+03  0.24804039245E+03  0.17770000000E+01 0.  1.
         15    1    3    3    0    0 -0.10381728891E+03  0.89286540611E+02  0.18955424757E+03  0.23384628779E+03  0.17770000000E+01 0. -1.
</event>
<event>
 7    1  0.5285153E-006  0.4079215E+03  0.7546771E-02  0.9633281E-01
        -11   -1    0    0    0    0  0.00000000000E+00  0.00000000000E+00  0.50000000000E+03  0.50000000000E+03  0.00000000000E+00 0.  1.
         11   -1    0    0    0    0 -0.00000000000E+00 -0.00000000000E+00 -0.50000000000E+03  0.50000000000E+03  0.00000000000E+00 0.  1.
         23    2    1    2    0    0  0.10511267617E+03 -0.47292879530E+02 -0.74399934047E+02  0.17270301913E+03  0.10490801440E+03 0.  0.
        -11    1    1    2    0    0 -0.63036265079E+02 -0.50792133559E+02  0.43951202234E+03  0.44690516816E+03  0.00000000000E+00 0.  1.
         11    1    1    2    0    0 -0.42076411088E+02  0.98085013089E+02 -0.36511208829E+03  0.38039181271E+03  0.00000000000E+00 0.  1.
        -15    1    3    3    0    0  0.35679261635E+02 -0.45665396818E+02  0.14608198180E+02  0.59790428669E+02  0.17770000000E+01 0. -1.
         15    1    3    3    0    0  0.69433414532E+02 -0.16274827119E+01 -0.89008132227E+02  0.11291259046E+03  0.17770000000E+01 0.  1.
</event>
<event>
 7    1  0.5285153E-006  0.4682491E+03  0.7546771E-02  0.9473799E-01
        -11   -1    0    0    0    0  0.00000000000E+00  0.00000000000E+00  0.50000000000E+03  0.50000000000E+03  0.00000000000E+00 0.  1.
         11   -1    0    0    0    0 -0.00000000000E+00 -0.00000000000E+00 -0.50000000000E+03  0.50000000000E+03  0.00000000000E+00 0. -1.
         23    2    1    2    0    0  0.85696843098E+02  0.19905197926E+02 -0.42080474216E+03  0.44253774963E+03  0.10498982334E+03 0.  0.
        -11    1    1    2    0    0 -0.11676519767E+03  0.23447862974E+02  0.47002917455E+03  0.48488280913E+03  0.00000000000E+00 0.  1.
         11    1    1    2    0    0  0.31068354576E+02 -0.43353060900E+02 -0.49224432392E+02  0.72579441233E+02  0.00000000000E+00 0. -1.
        -15    1    3    3    0    0  0.48485734897E+02 -0.36508371525E+02 -0.12319086009E+03  0.13734217640E+03  0.17770000000E+01 0.  1.
         15    1    3    3    0    0  0.37211108201E+02  0.56413569450E+02 -0.29761388207E+03  0.30519557323E+03  0.17770000000E+01 0. -1.
</event>
<event>
 7    1  0.5285153E-006  0.3936404E+03  0.7546771E-02  0.9675380E-01
        -11   -1    0    0    0    0  0.00000000000E+00  0.00000000000E+00  0.50000000000E+03  0.50000000000E+03  0.00000000000E+00 0. -1.
         11   -1    0    0    0    0 -0.00000000000E+00 -0.00000000000E+00 -0.50000000000E+03  0.50000000000E+03  0.00000000000E+00 0. -1.
         23    2    1    2    0    0  0.53435934899E+02  0.16030829232E+03 -0.51926759809E+01  0.19477193073E+03  0.96721214792E+02 0.  0.
        -11    1    1    2    0    0 -0.15235114295E+02  0.11903036514E+03  0.34407371850E+03  0.36439958877E+03  0.00000000000E+00 0. -1.
         11    1    1    2    0    0 -0.38200820604E+02 -0.27933865746E+03 -0.33888104252E+03  0.44082848050E+03  0.00000000000E+00 0. -1.
        -15    1    3    3    0    0 -0.17179270500E+02  0.25116745728E+02 -0.26959451707E+02  0.40693341178E+02  0.17770000000E+01 0.  1.
         15    1    3    3    0    0  0.70615205399E+02  0.13519154659E+03  0.21766775726E+02  0.15407858955E+03  0.17770000000E+01 0. -1.
</event>
<event>
 7    1  0.5285153E-006  0.5236182E+03  0.7546771E-02  0.9348460E-01
        -11   -1    0    0    0    0  0.00000000000E+00  0.00000000000E+00  0.50000000000E+03  0.50000000000E+03  0.00000000000E+00 0.  1.
         11   -1    0    0    0    0 -0.00000000000E+00 -0.00000000000E+00 -0.50000000000E+03  0.50000000000E+03  0.00000000000E+00 0. -1.
         23    2    1    2    0    0  0.52860020085E+02  0.33103704112E+02  0.12791425034E+03  0.17013419858E+03  0.93239225316E+02 0.  0.
        -11    1    1    2    0    0 -0.82868780788E+02  0.58339057574E+02  0.33864475191E+03  0.35348401444E+03  0.00000000000E+00 0.  1.
         11    1    1    2    0    0  0.30008760703E+02 -0.91442761687E+02 -0.46655900225E+03  0.47638178698E+03  0.00000000000E+00 0. -1.
        -15    1    3    3    0    0 -0.23110255372E+02  0.21887553724E+01  0.57449591093E+02  0.61987803633E+02  0.17770000000E+01 0.  1.
         15    1    3    3    0    0  0.75970275457E+02  0.30914948740E+02  0.70464659242E+02  0.10814639495E+03  0.17770000000E+01 0. -1.
</event>
<event>
 7    1  0.5285153E-006  0.5093106E+03  0.7546771E-02  0.9379214E-01
        -11   -1    0    0    0    0  0.00000000000E+00  0.00000000000E+00  0.50000000000E+03  0.50000000000E+03  0.00000000000E+00 0.  1.
         11   -1    0    0    0    0 -0.00000000000E+00 -0.00000000000E+00 -0.50000000000E+03  0.50000000000E+03  0.00000000000E+00 0. -1.
         23    2    1    2    0    0 -0.10419417714E+03 -0.16546801960E+02  0.26253736592E+03  0.29739358436E+03  0.91579759284E+02 0.  0.
        -11    1    1    2    0    0 -0.33558293404E+02  0.18596991970E+02  0.20841500777E+03  0.21191701826E+03  0.00000000000E+00 0.  1.
         11    1    1    2    0    0  0.13775247054E+03 -0.20501900099E+01 -0.47095237369E+03  0.49068939738E+03  0.00000000000E+00 0. -1.
        -15    1    3    3    0    0  0.10289674246E+02  0.12788702351E+02  0.12112390340E+02  0.20476719285E+02  0.17770000000E+01 0.  1.
         15    1    3    3    0    0 -0.11448385138E+03 -0.29335504311E+02  0.25042497558E+03  0.27691686508E+03  0.17770000000E+01 0. -1.
</event>
<event>
 7    1  0.5285153E-006  0.5017730E+03  0.7546771E-02  0.9395851E-01
        -11   -1    0    0    0    0  0.00000000000E+00  0.00000000000E+00  0.50000000000E+03  0.50000000000E+03  0.00000000000E+00 0.  1.
         11   -1    0    0    0    0 -0.00000000000E+00 -0.00000000000E+00 -0.50000000000E+03  0.50000000000E+03  0.00000000000E+00 0. -1.
         23    2    1    2    0    0 -0.13600434860E+03  0.15863294354E+02 -0.47385779661E+03  0.50177298456E+03  0.92119974370E+02 0.  0.
        -11    1    1    2    0    0  0.11230719222E+03 -0.26879236973E+02  0.44293456216E+03  0.45774056534E+03  0.00000000000E+00 0.  1.
         11    1    1    2    0    0  0.23697156380E+02  0.11015942620E+02  0.30923234459E+02  0.40486450100E+02  0.00000000000E+00 0. -1.
        -15    1    3    3    0    0 -0.66247898435E+02  0.11595506480E+02 -0.37322336873E+03  0.37923881726E+03  0.17770000000E+01 0.  1.
         15    1    3    3    0    0 -0.69756450165E+02  0.42677878734E+01 -0.10063442788E+03  0.12253416731E+03  0.17770000000E+01 0. -1.
</event>
<event>
 7    1  0.5285153E-006  0.3738003E+03  0.7546771E-02  0.9737146E-01
        -11   -1    0    0    0    0  0.00000000000E+00  0.00000000000E+00  0.50000000000E+03  0.50000000000E+03  0.00000000000E+00 0. -1.
         11   -1    0    0    0    0 -0.00000000000E+00 -0.00000000000E+00 -0.50000000000E+03  0.50000000000E+03  0.00000000000E+00 0.  1.
         23    2    1    2    0    0  0.18167192510E+03 -0.89363633726E+02 -0.32197935234E+03  0.39055009790E+03  0.88702470257E+02 0.  0.
        -11    1    1    2    0    0  0.42412440741E+02  0.98193766182E+02  0.36565494223E+03  0.38097817211E+03  0.00000000000E+00 0. -1.
         11    1    1    2    0    0 -0.22408436584E+03 -0.88301324554E+01 -0.43675589888E+02  0.22847172999E+03  0.00000000000E+00 0.  1.
        -15    1    3    3    0    0  0.52264981298E+02 -0.45621683696E+02 -0.18279177471E+03  0.19552226708E+03  0.17770000000E+01 0.  1.
         15    1    3    3    0    0  0.12940694380E+03 -0.43741950030E+02 -0.13918757763E+03  0.19502783082E+03  0.17770000000E+01 0. -1.
</event>
<event>
 7    1  0.5285153E-006  0.4219414E+03  0.7546771E-02  0.9593704E-01
        -11   -1    0    0    0    0  0.00000000000E+00  0.00000000000E+00  0.50000000000E+03  0.50000000000E+03  0.00000000000E+00 0. -1.
         11   -1    0    0    0    0 -0.00000000000E+00 -0.00000000000E+00 -0.50000000000E+03  0.50000000000E+03  0.00000000000E+00 0.  1.
         23    2    1    2    0    0 -0.80031981642E+01 -0.10686583019E+02 -0.11705572796E+03  0.14793289458E+03  0.89464202960E+02 0.  0.
        -11    1    1    2    0    0  0.10278971156E+03 -0.32815640764E+03  0.29923979944E+03  0.45584735410E+03  0.00000000000E+00 0. -1.
         11    1    1    2    0    0 -0.94786513392E+02  0.33884299065E+03 -0.18218407148E+03  0.39621975132E+03  0.00000000000E+00 0.  1.
        -15    1    3    3    0    0 -0.23479672853E+02 -0.66343780842E+01 -0.12678555823E+03  0.12912414768E+03  0.17770000000E+01 0.  1.
         15    1    3    3    0    0  0.15476474688E+02 -0.40522049344E+01  0.97298302689E+01  0.18808746893E+02  0.17770000000E+01 0. -1.
</event>
<event>
 7    1  0.5285153E-006  0.4101110E+03  0.7546771E-02  0.9626989E-01
        -11   -1    0    0    0    0  0.00000000000E+00  0.00000000000E+00  0.50000000000E+03  0.50000000000E+03  0.00000000000E+00 0.  1.
         11   -1    0    0    0    0 -0.00000000000E+00 -0.00000000000E+00 -0.50000000000E+03  0.50000000000E+03  0.00000000000E+00 0. -1.
         23    2    1    2    0    0  0.11455137107E+03 -0.75748062222E+02 -0.31793790631E+02  0.16775325849E+03  0.90942427211E+02 0.  0.
        -11    1    1    2    0    0 -0.14702539165E+03 -0.46594588163E+01  0.41450578820E+03  0.43983317837E+03  0.00000000000E+00 0.  1.
         11    1    1    2    0    0  0.32474020582E+02  0.80407521039E+02 -0.38271199757E+03  0.39241356314E+03  0.00000000000E+00 0. -1.
        -15    1    3    3    0    0  0.97150566642E+02 -0.81143538853E+02 -0.55145688272E+02  0.13808226229E+03  0.17770000000E+01 0. -1.
         15    1    3    3    0    0  0.17400804426E+02  0.53954766304E+01  0.23351897641E+02  0.29670996195E+02  0.17770000000E+01 0.  1.
</event>
<event>
 7    1  0.5285153E-006  0.5231847E+03  0.7546771E-02  0.9349376E-01
        -11   -1    0    0    0    0  0.00000000000E+00  0.00000000000E+00  0.50000000000E+03  0.50000000000E+03  0.00000000000E+00 0.  1.
         11   -1    0    0    0    0 -0.00000000000E+00 -0.00000000000E+00 -0.50000000000E+03  0.50000000000E+03  0.00000000000E+00 0.  1.
         23    2    1    2    0    0 -0.39252575899E+02 -0.62641283232E+02 -0.30976185617E+03  0.33224131095E+03  0.94695227352E+02 0.  0.
        -11    1    1    2    0    0 -0.68507321123E+02  0.12174178788E+03  0.45589305532E+03  0.47681526177E+03  0.00000000000E+00 0.  1.
         11    1    1    2    0    0  0.10775989702E+03 -0.59100504650E+02 -0.14613119915E+03  0.19094342728E+03  0.00000000000E+00 0.  1.
        -15    1    3    3    0    0 -0.24199358747E+02  0.41434787762E+01 -0.13313333143E+02  0.27985352392E+02  0.17770000000E+01 0. -1.
         15    1    3    3    0    0 -0.15053217152E+02 -0.66784762009E+02 -0.29644852303E+03  0.30425595856E+03  0.17770000000E+01 0.  1.
</event>
<event>
 7    1  0.5285153E-006  0.5132913E+03  0.7546771E-02  0.9370551E-01
        -11   -1    0    0    0    0  0.00000000000E+00  0.00000000000E+00  0.50000000000E+03  0.50000000000E+03  0.00000000000E+00 0.  1.
         11   -1    0    0    0    0 -0.00000000000E+00 -0.00000000000E+00 -0.50000000000E+03  0.50000000000E+03  0.00000000000E+00 0. -1.
         23    2    1    2    0    0  0.72258219520E+02 -0.17268118366E+02  0.19785201867E+03  0.22994313785E+03  0.90603461023E+02 0.  0.
        -11    1    1    2    0    0  0.15587692333E+03 -0.92255003848E+02  0.21789354385E+03  0.28334819112E+03  0.00000000000E+00 0.  1.
         11    1    1    2    0    0 -0.22813514285E+03  0.10952312221E+03 -0.41574556252E+03  0.48670867103E+03  0.00000000000E+00 0. -1.
        -15    1    3    3    0    0  0.53459938821E+02  0.15475046384E+02  0.17947591997E+03  0.18791542166E+03  0.17770000000E+01 0.  1.
         15    1    3    3    0    0  0.18798280699E+02 -0.32743164750E+02  0.18376098697E+02  0.42027716181E+02  0.17770000000E+01 0. -1.
</event>
<event>
 7    1  0.5285153E-006  0.4009092E+03  0.7546771E-02  0.9653718E-01
        -11   -1    0    0    0    0  0.00000000000E+00  0.00000000000E+00  0.50000000000E+03  0.50000000000E+03  0.00000000000E+00 0.  1.
         11   -1    0    0    0    0 -0.00000000000E+00 -0.00000000000E+00 -0.50000000000E+03  0.50000000000E+03  0.00000000000E+00 0. -1.
         23    2    1    2    0    0 -0.53747358279E+02  0.14660777932E+03 -0.24200697373E+02  0.18276011386E+03  0.91831181993E+02 0.  0.
        -11    1    1    2    0    0  0.19123712611E+03 -0.10048166821E+03  0.37771914676E+03  0.43513211543E+03  0.00000000000E+00 0.  1.
         11    1    1    2    0    0 -0.13748976783E+03 -0.46126111112E+02 -0.35351844938E+03  0.38210777071E+03  0.00000000000E+00 0. -1.
        -15    1    3    3    0    0 -0.20064567722E+02  0.14520457995E+03 -0.26302196948E+02  0.14893596010E+03  0.17770000000E+01 0.  1.
         15    1    3    3    0    0 -0.33682790557E+02  0.14031993647E+01  0.21014995751E+01  0.33824153761E+02  0.17770000000E+01 0. -1.
</event>
<event>
 7    1  0.5285153E-006  0.4482881E+03  0.7546771E-02  0.9523588E-01
        -11   -1    0    0    0    0  0.00000000000E+00  0.00000000000E+00  0.50000000000E+03  0.50000000000E+03  0.00000000000E+00 0. -1.
         11   -1    0    0    0    0 -0.00000000000E+00 -0.00000000000E+00 -0.50000000000E+03  0.50000000000E+03  0.00000000000E+00 0.  1.
         23    2    1    2    0    0  0.16002808729E+03 -0.37542168143E+02 -0.40523874782E+03  0.44693308877E+03  0.92262343281E+02 0.  0.
        -11    1    1    2    0    0 -0.61674407774E+02  0.62983715857E+02  0.43764343715E+03  0.44643303991E+03  0.00000000000E+00 0. -1.
         11    1    1    2    0    0 -0.98353679513E+02 -0.25441547714E+02 -0.32404689331E+02  0.10663387133E+03  0.00000000000E+00 0.  1.
        -15    1    3    3    0    0  0.62788717186E+02 -0.58438552302E+00 -0.26483341080E+03  0.27218129568E+03  0.17770000000E+01 0.  1.
         15    1    3    3    0    0  0.97239370100E+02 -0.36957782620E+02 -0.14040533702E+03  0.17475179308E+03  0.17770000000E+01 0. -1.
</event>
<event>
 7    1  0.5285153E-006  0.5176473E+03  0.7546771E-02  0.9361166E-01
        -11   -1    0    0    0    0  0.00000000000E+00  0.00000000000E+00  0.50000000000E+03  0.50000000000E+03  0.00000000000E+00 0. -1.
         11   -1    0    0    0    0 -0.00000000000E+00 -0.00000000000E+00 -0.50000000000E+03  0.50000000000E+03  0.00000000000E+00 0.  1.
         23    2    1    2    0    0  0.31135468954E+01 -0.90407932701E+01  0.23979018690E+03  0.25650469478E+03  0.90575353131E+02 0.  0.
        -11    1    1    2    0    0 -0.13204280591E+03 -0.28425714159E+02  0.22349978722E+03  0.26114264053E+03  0.00000000000E+00 0. -1.
         11    1    1    2    0    0  0.12892925902E+03  0.37466507429E+02 -0.46328997412E+03  0.48235266468E+03  0.00000000000E+00 0.  1.
        -15    1    3    3    0    0 -0.30022324997E+02 -0.36859542096E+02  0.11691795175E+03  0.12622571454E+03  0.17770000000E+01 0. -1.
         15    1    3    3    0    0  0.33135871892E+02  0.27818748826E+02  0.12287223515E+03  0.13027898024E+03  0.17770000000E+01 0.  1.
</event>
<event>
 7    1  0.5285153E-006  0.5065193E+03  0.7546771E-02  0.9385339E-01
        -11   -1    0    0    0    0  0.00000000000E+00  0.00000000000E+00  0.50000000000E+03  0.50000000000E+03  0.00000000000E+00 0.  1.
         11   -1    0    0    0    0 -0.00000000000E+00 -0.00000000000E+00 -0.50000000000E+03  0.50000000000E+03  0.00000000000E+00 0. -1.
         23    2    1    2    0    0 -0.14505542960E+02 -0.44122673759E+02 -0.32062390861E+03  0.33630193878E+03  0.90233486810E+02 0.  0.
        -11    1    1    2    0    0  0.40894756725E+02  0.70341514895E+02  0.48672669744E+03  0.49348068640E+03  0.00000000000E+00 0.  1.
         11    1    1    2    0    0 -0.26389213765E+02 -0.26218841137E+02 -0.16610278883E+03  0.17021737482E+03  0.00000000000E+00 0. -1.
        -15    1    3    3    0    0  0.30582902644E+02 -0.44070344005E+02 -0.21178032827E+03  0.21847556917E+03  0.17770000000E+01 0.  1.
         15    1    3    3    0    0 -0.45088445604E+02 -0.52329753725E-01 -0.10884358034E+03  0.11782636961E+03  0.17770000000E+01 0. -1.
</event>
<event>
 7    1  0.5285153E-006  0.5195529E+03  0.7546771E-02  0.9357091E-01
        -11   -1    0    0    0    0  0.00000000000E+00  0.00000000000E+00  0.50000000000E+03  0.50000000000E+03  0.00000000000E+00 0. -1.
         11   -1    0    0    0    0 -0.00000000000E+00 -0.00000000000E+00 -0.50000000000E+03  0.50000000000E+03  0.00000000000E+00 0.  1.
         23    2    1    2    0    0  0.48224781788E+01  0.55475492489E+02  0.18999170223E+03  0.21760934697E+03  0.90311651576E+02 0.  0.
        -11    1    1    2    0    0 -0.98161394955E+02 -0.49262664572E+02  0.28126048839E+03  0.30194359061E+03  0.00000000000E+00 0. -1.
         11    1    1    2    0    0  0.93338916776E+02 -0.62128279164E+01 -0.47125219062E+03  0.48044706242E+03  0.00000000000E+00 0.  1.
        -15    1    3    3    0    0  0.43960739687E+02  0.45588077790E+02  0.92922402739E+02  0.11246577315E+03  0.17770000000E+01 0.  1.
         15    1    3    3    0    0 -0.39138261508E+02  0.98874146987E+01  0.97069299493E+02  0.10514357382E+03  0.17770000000E+01 0. -1.
</event>
<event>
 7    1  0.5285153E-006  0.3826114E+03  0.7546771E-02  0.9709222E-01
        -11   -1    0    0    0    0  0.00000000000E+00  0.00000000000E+00  0.50000000000E+03  0.50000000000E+03  0.00000000000E+00 0. -1.
         11   -1    0    0    0    0 -0.00000000000E+00 -0.00000000000E+00 -0.50000000000E+03  0.50000000000E+03  0.00000000000E+00 0.  1.
         23    2    1    2    0    0 -0.18454881717E+03  0.51769463482E+01  0.44261591806E+02  0.21157755558E+03  0.93385795623E+02 0.  0.
        -11    1    1    2    0    0  0.74476199813E+02  0.59608061745E+02  0.35585281243E+03  0.36841695059E+03  0.00000000000E+00 0. -1.
         11    1    1    2    0    0  0.11007261736E+03 -0.64785008093E+02 -0.40011440424E+03  0.42000549383E+03  0.00000000000E+00 0.  1.
        -15    1    3    3    0    0 -0.16153504020E+03 -0.29896253660E+02  0.28567420358E+02  0.16675314219E+03  0.17770000000E+01 0. -1.
         15    1    3    3    0    0 -0.23013776966E+02  0.35073200009E+02  0.15694171448E+02  0.44824413387E+02  0.17770000000E+01 0.  1.
</event>
<event>
 7    1  0.5285153E-006  0.5291570E+03  0.7546771E-02  0.9336833E-01
        -11   -1    0    0    0    0  0.00000000000E+00  0.00000000000E+00  0.50000000000E+03  0.50000000000E+03  0.00000000000E+00 0. -1.
         11   -1    0    0    0    0 -0.00000000000E+00 -0.00000000000E+00 -0.50000000000E+03  0.50000000000E+03  0.00000000000E+00 0.  1.
         23    2    1    2    0    0  0.55230394876E+02  0.32132299684E+02  0.23205331649E+03  0.25844187938E+03  0.94130665148E+02 0.  0.
        -11    1    1    2    0    0 -0.73974285146E+02  0.18068322624E+03  0.18753144195E+03  0.27071509900E+03  0.00000000000E+00 0. -1.
         11    1    1    2    0    0  0.18743890271E+02 -0.21281552593E+03 -0.41958475844E+03  0.47084302162E+03  0.00000000000E+00 0.  1.
        -15    1    3    3    0    0  0.78536018308E+02  0.19424965770E+02  0.13128776819E+03  0.15422344592E+03  0.17770000000E+01 0.  1.
         15    1    3    3    0    0 -0.23305623433E+02  0.12707333914E+02  0.10076554830E+03  0.10421843345E+03  0.17770000000E+01 0. -1.
</event>
<event>
 7    1  0.5285153E-006  0.5173918E+03  0.7546771E-02  0.9361714E-01
        -11   -1    0    0    0    0  0.00000000000E+00  0.00000000000E+00  0.50000000000E+03  0.50000000000E+03  0.00000000000E+00 0. -1.
         11   -1    0    0    0    0 -0.00000000000E+00 -0.00000000000E+00 -0.50000000000E+03  0.50000000000E+03  0.00000000000E+00 0.  1.
         23    2    1    2    0    0 -0.14087649516E+03 -0.30557622890E+01  0.35154837066E+03  0.39142012497E+03  0.98832852573E+02 0.  0.
        -11    1    1    2    0    0  0.37053832052E+02 -0.15525560070E+02  0.11939356261E+03  0.12597163283E+03  0.00000000000E+00 0. -1.
         11    1    1    2    0    0  0.10382266311E+03  0.18581322359E+02 -0.47094193327E+03  0.48260824219E+03  0.00000000000E+00 0.  1.
        -15    1    3    3    0    0 -0.48847616343E+02  0.46198291754E+02  0.15193907265E+03  0.16615959590E+03  0.17770000000E+01 0. -1.
         15    1    3    3    0    0 -0.92028878821E+02 -0.49254054043E+02  0.19960929801E+03  0.22526052907E+03  0.17770000000E+01 0.  1.
</event>
<event>
 7    1  0.5285153E-006  0.5210617E+03  0.7546771E-02  0.9353878E-01
        -11   -1    0    0    0    0  0.00000000000E+00  0.00000000000E+00  0.50000000000E+03  0.50000000000E+03  0.00000000000E+00 0.  1.
         11   -1    0    0    0    0 -0.00000000000E+00 -0.00000000000E+00 -0.50000000000E+03  0.50000000000E+03  0.00000000000E+00 0.  1.
         23    2    1    2    0    0  0.24447551168E+03 -0.21324105600E+03 -0.33842921239E+03  0.47893827973E+03  0.98017958680E+02 0.  0.
        -11    1    1    2    0    0 -0.14132537236E+03  0.86151021156E+02  0.31483105087E+03  0.35568729231E+03  0.00000000000E+00 0.  1.
         11    1    1    2    0    0 -0.10315013932E+03  0.12709003484E+03  0.23598161521E+02  0.16537442796E+03  0.00000000000E+00 0.  1.
        -15    1    3    3    0    0  0.23111039513E+03 -0.22285654770E+03 -0.32977981145E+03  0.46025529585E+03  0.17770000000E+01 0.  1.
         15    1    3    3    0    0  0.13365116547E+02  0.96154917061E+01 -0.86494009336E+01  0.18682983877E+02  0.17770000000E+01 0. -1.
</event>
<event>
 7    1  0.5285153E-006  0.4690292E+03  0.7546771E-02  0.9471907E-01
        -11   -1    0    0    0    0  0.00000000000E+00  0.00000000000E+00  0.50000000000E+03  0.50000000000E+03  0.00000000000E+00 0. -1.
         11   -1    0    0    0    0 -0.00000000000E+00 -0.00000000000E+00 -0.50000000000E+03  0.50000000000E+03  0.00000000000E+00 0.  1.
         23    2    1    2    0    0  0.17627865210E+03  0.95690470210E+01 -0.44657045033E+03  0.48894189317E+03  0.92050409793E+02 0.  0.
        -11    1    1    2    0    0 -0.11292985245E+03  0.86336139700E+01  0.42778069571E+03  0.44252007241E+03  0.00000000000E+00 0. -1.
         11    1    1    2    0    0 -0.63348799643E+02 -0.18202660991E+02  0.18789754621E+02  0.68538034419E+02  0.00000000000E+00 0.  1.
        -15    1    3    3    0    0 -0.20435367203E+01  0.17169144657E+02 -0.71253922824E+02  0.73343267021E+02  0.17770000000E+01 0. -1.
         15    1    3    3    0    0  0.17832218882E+03 -0.76000976361E+01 -0.37531652751E+03  0.41559862615E+03  0.17770000000E+01 0.  1.
</event>
<event>
 7    1  0.5285153E-006  0.5110153E+03  0.7546771E-02  0.9375494E-01
        -11   -1    0    0    0    0  0.00000000000E+00  0.00000000000E+00  0.50000000000E+03  0.50000000000E+03  0.00000000000E+00 0.  1.
         11   -1    0    0    0    0 -0.00000000000E+00 -0.00000000000E+00 -0.50000000000E+03  0.50000000000E+03  0.00000000000E+00 0. -1.
         23    2    1    2    0    0 -0.15985781982E+03 -0.50139793056E+02 -0.45080576440E+03  0.48898465645E+03  0.88383457812E+02 0.  0.
        -11    1    1    2    0    0  0.12128971100E+03 -0.95303379218E+01  0.41297204866E+03  0.43052053878E+03  0.00000000000E+00 0.  1.
         11    1    1    2    0    0  0.38568108822E+02  0.59670130978E+02  0.37833715743E+02  0.80494804776E+02  0.00000000000E+00 0. -1.
        -15    1    3    3    0    0 -0.14997205888E+03 -0.66792211024E+02 -0.35366674072E+03  0.38991811848E+03  0.17770000000E+01 0. -1.
         15    1    3    3    0    0 -0.98857609406E+01  0.16652417968E+02 -0.97139023681E+02  0.99066537964E+02  0.17770000000E+01 0.  1.
</event>
<event>
 7    1  0.5285153E-006  0.4123224E+03  0.7546771E-02  0.9620677E-01
        -11   -1    0    0    0    0  0.00000000000E+00  0.00000000000E+00  0.50000000000E+03  0.50000000000E+03  0.00000000000E+00 0. -1.
         11   -1    0    0    0    0 -0.00000000000E+00 -0.00000000000E+00 -0.50000000000E+03  0.50000000000E+03  0.00000000000E+00 0. -1.
         23    2    1    2    0    0  0.90008044635E+02 -0.72965166815E+02  0.72852920016E+02  0.16407426543E+03  0.90484545386E+02 0.  0.
        -11    1    1    2    0    0 -0.72601809909E+02 -0.42153251869E+01  0.37456834689E+03  0.38156288900E+03  0.00000000000E+00 0. -1.
         11    1    1    2    0    0 -0.17406234726E+02  0.77180492002E+02 -0.44742126691E+03  0.45436284557E+03  0.00000000000E+00 0. -1.
        -15    1    3    3    0    0  0.85274552886E+01 -0.54330538147E+02  0.29598593709E+01  0.55103932396E+02  0.17770000000E+01 0.  1.
         15    1    3    3    0    0  0.81480589347E+02 -0.18634628668E+02  0.69893060645E+02  0.10897033303E+03  0.17770000000E+01 0. -1.
</event>
<event>
 7    1  0.5285153E-006  0.5121401E+03  0.7546771E-02  0.9373048E-01
        -11   -1    0    0    0    0  0.00000000000E+00  0.00000000000E+00  0.50000000000E+03  0.50000000000E+03  0.00000000000E+00 0. -1.
         11   -1    0    0    0    0 -0.00000000000E+00 -0.00000000000E+00 -0.50000000000E+03  0.50000000000E+03  0.00000000000E+00 0.  1.
         23    2    1    2    0    0 -0.46138567099E+02 -0.67767864741E+02  0.22448452582E+03  0.25739425691E+03  0.95588965337E+02 0.  0.
        -11    1    1    2    0    0 -0.68057364035E+02 -0.13881426555E+03  0.20247030257E+03  0.25474581163E+03  0.00000000000E+00 0. -1.
         11    1    1    2    0    0  0.11419593113E+03  0.20658213029E+03 -0.42695482838E+03  0.48785993146E+03  0.00000000000E+00 0.  1.
        -15    1    3    3    0    0 -0.47246131285E+02 -0.19715434811E+02  0.19353384808E+03  0.20019841002E+03  0.17770000000E+01 0. -1.
         15    1    3    3    0    0  0.11075641856E+01 -0.48052429930E+02  0.30950677734E+02  0.57195846893E+02  0.17770000000E+01 0.  1.
</event>
<event>
 7    1  0.5285153E-006  0.4683190E+03  0.7546771E-02  0.9473629E-01
        -11   -1    0    0    0    0  0.00000000000E+00  0.00000000000E+00  0.50000000000E+03  0.50000000000E+03  0.00000000000E+00 0. -1.
         11   -1    0    0    0    0 -0.00000000000E+00 -0.00000000000E+00 -0.50000000000E+03  0.50000000000E+03  0.00000000000E+00 0.  1.
         23    2    1    2    0    0  0.13397886562E+03 -0.11547608326E+02 -0.45109741859E+03  0.47996159945E+03  0.93758051402E+02 0.  0.
        -11    1    1    2    0    0 -0.98294078136E+02 -0.47091562118E+02  0.43644487887E+03  0.44984827811E+03  0.00000000000E+00 0. -1.
         11    1    1    2    0    0 -0.35684787484E+02  0.58639170444E+02  0.14652539715E+02  0.70190122441E+02  0.00000000000E+00 0.  1.
        -15    1    3    3    0    0  0.19995183104E+02 -0.28728553326E+02 -0.40851547643E+02  0.53825122363E+02  0.17770000000E+01 0. -1.
         15    1    3    3    0    0  0.11398368252E+03  0.17180945000E+02 -0.41024587095E+03  0.42613647709E+03  0.17770000000E+01 0.  1.
</event>
<event>
 7    1  0.5285153E-006  0.3931291E+03  0.7546771E-02  0.9676923E-01
        -11   -1    0    0    0    0  0.00000000000E+00  0.00000000000E+00  0.50000000000E+03  0.50000000000E+03  0.00000000000E+00 0.  1.
         11   -1    0    0    0    0 -0.00000000000E+00 -0.00000000000E+00 -0.50000000000E+03  0.50000000000E+03  0.00000000000E+00 0. -1.
         23    2    1    2    0    0 -0.97104595311E+02  0.25444046110E+03 -0.28344937945E+03  0.40345673391E+03  0.90909486606E+02 0.  0.
        -11    1    1    2    0    0 -0.30197340155E+02 -0.13078696904E+03  0.37396317156E+03  0.39732299746E+03  0.00000000000E+00 0.  1.
         11    1    1    2    0    0  0.12730193547E+03 -0.12365349205E+03 -0.90513792115E+02  0.19922026863E+03  0.00000000000E+00 0. -1.
        -15    1    3    3    0    0 -0.73179707001E+02  0.78215450119E+02 -0.13087684310E+03  0.16912963059E+03  0.17770000000E+01 0.  1.
         15    1    3    3    0    0 -0.23924888310E+02  0.17622501098E+03 -0.15257253634E+03  0.23432710332E+03  0.17770000000E+01 0. -1.
</event>
<event>
 7    1  0.5285153E-006  0.3384468E+03  0.7546771E-02  0.9858092E-01
        -11   -1    0    0    0    0  0.00000000000E+00  0.00000000000E+00  0.50000000000E+03  0.50000000000E+03  0.00000000000E+00 0. -1.
         11   -1    0    0    0    0 -0.00000000000E+00 -0.00000000000E+00 -0.50000000000E+03  0.50000000000E+03  0.00000000000E+00 0.  1.
         23    2    1    2    0    0 -0.12565873455E+03  0.11896031434E+03 -0.27365667350E+03  0.33623705581E+03  0.90695693379E+02 0.  0.
        -11    1    1    2    0    0 -0.98894541234E+02  0.15196516117E+02  0.37130855948E+03  0.38455313122E+03  0.00000000000E+00 0. -1.
         11    1    1    2    0    0  0.22455327578E+03 -0.13415683046E+03 -0.97651885981E+02  0.27920981297E+03  0.00000000000E+00 0.  1.
        -15    1    3    3    0    0 -0.80820536745E+02  0.11530607410E+03 -0.15546976590E+03  0.20976523955E+03  0.17770000000E+01 0. -1.
         15    1    3    3    0    0 -0.44838197802E+02  0.36542402396E+01 -0.11818690759E+03  0.12647181626E+03  0.17770000000E+01 0.  1.
</event>
<event>
 7    1  0.5285153E-006  0.5178636E+03  0.7546771E-02  0.9360702E-01
        -11   -1    0    0    0    0  0.00000000000E+00  0.00000000000E+00  0.50000000000E+03  0.50000000000E+03  0.00000000000E+00 0.  1.
         11   -1    0    0    0    0 -0.00000000000E+00 -0.00000000000E+00 -0.50000000000E+03  0.50000000000E+03  0.00000000000E+00 0. -1.
         23    2    1    2    0    0 -0.19765052001E+02  0.76591740024E+02  0.24439030677E+03  0.27257576558E+03  0.91180995916E+02 0.  0.
        -11    1    1    2    0    0  0.82453859665E+02 -0.19293769887E+02  0.23020694732E+03  0.24528784545E+03  0.00000000000E+00 0.  1.
         11    1    1    2    0    0 -0.62688807664E+02 -0.57297970137E+02 -0.47459725409E+03  0.48213638898E+03  0.00000000000E+00 0. -1.
        -15    1    3    3    0    0 -0.38697975875E+02  0.55969673448E+02  0.76670832523E+02  0.10252664030E+03  0.17770000000E+01 0.  1.
         15    1    3    3    0    0  0.18932923874E+02  0.20622066576E+02  0.16771947425E+03  0.17004912528E+03  0.17770000000E+01 0. -1.
</event>
<event>
 7    1  0.5285153E-006  0.5399575E+03  0.7546771E-02  0.9314589E-01
        -11   -1    0    0    0    0  0.00000000000E+00  0.00000000000E+00  0.50000000000E+03  0.50000000000E+03  0.00000000000E+00 0. -1.
         11   -1    0    0    0    0 -0.00000000000E+00 -0.00000000000E+00 -0.50000000000E+03  0.50000000000E+03  0.00000000000E+00 0. -1.
         23    2    1    2    0    0 -0.14465006645E+03 -0.65386309952E+02 -0.20038419225E+03  0.27207733436E+03  0.93130232018E+02 0.  0.
        -11    1    1    2    0    0  0.48813118547E+02  0.82468827079E+02  0.44995030862E+03  0.46004250696E+03  0.00000000000E+00 0. -1.
         11    1    1    2    0    0  0.95836947899E+02 -0.17082517127E+02 -0.24956611637E+03  0.26788015868E+03  0.00000000000E+00 0. -1.
        -15    1    3    3    0    0  0.50280202404E+01 -0.27113435629E+02 -0.17689400514E+02  0.32809937499E+02  0.17770000000E+01 0.  1.
         15    1    3    3    0    0 -0.14967808669E+03 -0.38272874323E+02 -0.18269479174E+03  0.23926739686E+03  0.17770000000E+01 0. -1.
</event>
<event>
 7    1  0.5285153E-006  0.4400577E+03  0.7546771E-02  0.9544927E-01
        -11   -1    0    0    0    0  0.00000000000E+00  0.00000000000E+00  0.50000000000E+03  0.50000000000E+03  0.00000000000E+00 0.  1.
         11   -1    0    0    0    0 -0.00000000000E+00 -0.00000000000E+00 -0.50000000000E+03  0.50000000000E+03  0.00000000000E+00 0. -1.
         23    2    1    2    0    0 -0.10823448055E+03 -0.73415867515E+02 -0.38256593560E+03  0.41370084064E+03  0.87676097531E+02 0.  0.
        -11    1    1    2    0    0  0.12685760455E+03 -0.26277792372E+02  0.44749964233E+03  0.46587477297E+03  0.00000000000E+00 0.  1.
         11    1    1    2    0    0 -0.18623124000E+02  0.99693659886E+02 -0.64933706727E+02  0.12042438639E+03  0.00000000000E+00 0. -1.
        -15    1    3    3    0    0  0.10833764968E+02 -0.19104448603E+02 -0.98482036084E+02  0.10091689442E+03  0.17770000000E+01 0.  1.
         15    1    3    3    0    0 -0.11906824552E+03 -0.54311418911E+02 -0.28408389952E+03  0.31278394621E+03  0.17770000000E+01 0. -1.
</event>
<event>
 7    1  0.5285153E-006  0.4695690E+03  0.7546771E-02  0.9470600E-01
        -11   -1    0    0    0    0  0.00000000000E+00  0.00000000000E+00  0.50000000000E+03  0.50000000000E+03  0.00000000000E+00 0. -1.
         11   -1    0    0    0    0 -0.00000000000E+00 -0.00000000000E+00 -0.50000000000E+03  0.50000000000E+03  0.00000000000E+00 0.  1.
         23    2    1    2    0    0 -0.16348075280E+03  0.10360579545E+03 -0.43943548862E+03  0.48877898043E+03  0.91330310778E+02 0.  0.
        -11    1    1    2    0    0  0.10914591645E+03 -0.66429418535E+02  0.42504017898E+03  0.44382975618E+03  0.00000000000E+00 0. -1.
         11    1    1    2    0    0  0.54334836348E+02 -0.37176376914E+02  0.14395309640E+02  0.67391263388E+02  0.00000000000E+00 0.  1.
        -15    1    3    3    0    0 -0.10368091943E+03  0.93094734983E+02 -0.37580459298E+03  0.40080994569E+03  0.17770000000E+01 0.  1.
         15    1    3    3    0    0 -0.59799833374E+02  0.10511060466E+02 -0.63630895643E+02  0.87969034740E+02  0.17770000000E+01 0. -1.
</event>
<event>
 7    1  0.5285153E-006  0.3750329E+03  0.7546771E-02  0.9733191E-01
        -11   -1    0    0    0    0  0.00000000000E+00  0.00000000000E+00  0.50000000000E+03  0.50000000000E+03  0.00000000000E+00 0. -1.
         11   -1    0    0    0    0 -0.00000000000E+00 -0.00000000000E+00 -0.50000000000E+03  0.50000000000E+03  0.00000000000E+00 0.  1.
         23    2    1    2    0    0  0.17224351945E+02  0.13932505134E+03 -0.14446408126E+03  0.22335549032E+03  0.96486558909E+02 0.  0.
        -11    1    1    2    0    0 -0.18149179113E+03 -0.58012964174E+02  0.41108653080E+03  0.45309702059E+03  0.00000000000E+00 0. -1.
         11    1    1    2    0    0  0.16426743919E+03 -0.81312087169E+02 -0.26662244954E+03  0.32354748909E+03  0.00000000000E+00 0.  1.
        -15    1    3    3    0    0 -0.26701640750E+02  0.11480409951E+02 -0.57941691953E+01  0.29690192944E+02  0.17770000000E+01 0.  1.
         15    1    3    3    0    0  0.43925992694E+02  0.12784464139E+03 -0.13866991207E+03  0.19366529738E+03  0.17770000000E+01 0. -1.
</event>
<event>
 7    1  0.5285153E-006  0.3740331E+03  0.7546771E-02  0.9736398E-01
        -11   -1    0    0    0    0  0.00000000000E+00  0.00000000000E+00  0.50000000000E+03  0.50000000000E+03  0.00000000000E+00 0.  1.
         11   -1    0    0    0    0 -0.00000000000E+00 -0.00000000000E+00 -0.50000000000E+03  0.50000000000E+03  0.00000000000E+00 0. -1.
         23    2    1    2    0    0 -0.11141661233E+03  0.10184168577E+03 -0.26761600066E+03  0.31991056341E+03  0.89101370967E+02 0.  0.
        -11    1    1    2    0    0 -0.30314621461E+02 -0.75498419206E+02  0.44450998758E+03  0.45189392188E+03  0.00000000000E+00 0.  1.
         11    1    1    2    0    0  0.14173123379E+03 -0.26343266562E+02 -0.17689398692E+03  0.22819551471E+03  0.00000000000E+00 0. -1.
        -15    1    3    3    0    0 -0.65820021948E+02  0.65059855786E+02 -0.23558844483E+03  0.25312078775E+03  0.17770000000E+01 0.  1.
         15    1    3    3    0    0 -0.45596590380E+02  0.36781829983E+02 -0.32027555828E+02  0.66789775658E+02  0.17770000000E+01 0. -1.
</event>
<event>
 7    1  0.5285153E-006  0.5407278E+03  0.7546771E-02  0.9313023E-01
        -11   -1    0    0    0    0  0.00000000000E+00  0.00000000000E+00  0.50000000000E+03  0.50000000000E+03  0.00000000000E+00 0.  1.
         11   -1    0    0    0    0 -0.00000000000E+00 -0.00000000000E+00 -0.50000000000E+03  0.50000000000E+03  0.00000000000E+00 0. -1.
         23    2    1    2    0    0  0.12598467029E+03 -0.70666224730E+02  0.20233687088E+03  0.26553727949E+03  0.93295149997E+02 0.  0.
        -11    1    1    2    0    0  0.28716951884E+02  0.16248469923E+03  0.22023592095E+03  0.27519048255E+03  0.00000000000E+00 0.  1.
         11    1    1    2    0    0 -0.15470162217E+03 -0.91818474501E+02 -0.42257279183E+03  0.45927223796E+03  0.00000000000E+00 0. -1.
        -15    1    3    3    0    0  0.11846464543E+03 -0.80014349394E+02  0.13338605257E+03  0.19552791380E+03  0.17770000000E+01 0.  1.
         15    1    3    3    0    0  0.75200248564E+01  0.93481246632E+01  0.68950818313E+02  0.70009365685E+02  0.17770000000E+01 0. -1.
</event>
<event>
 7    1  0.5285153E-006  0.5269703E+03  0.7546771E-02  0.9341405E-01
        -11   -1    0    0    0    0  0.00000000000E+00  0.00000000000E+00  0.50000000000E+03  0.50000000000E+03  0.00000000000E+00 0. -1.
         11   -1    0    0    0    0 -0.00000000000E+00 -0.00000000000E+00 -0.50000000000E+03  0.50000000000E+03  0.00000000000E+00 0.  1.
         23    2    1    2    0    0 -0.61222536575E+01 -0.45032101885E+02 -0.25947690432E+03  0.27896325275E+03  0.91797931998E+02 0.  0.
        -11    1    1    2    0    0  0.16314808351E+03 -0.81426522997E+01  0.44392964398E+03  0.47302973346E+03  0.00000000000E+00 0. -1.
         11    1    1    2    0    0 -0.15702582985E+03  0.53174754185E+02 -0.18445273965E+03  0.24800701379E+03  0.00000000000E+00 0.  1.
        -15    1    3    3    0    0 -0.16801146177E+02 -0.67531028527E+02 -0.23015092904E+03  0.24044817777E+03  0.17770000000E+01 0.  1.
         15    1    3    3    0    0  0.10678892519E+02  0.22498926642E+02 -0.29325975283E+02  0.38515074981E+02  0.17770000000E+01 0. -1.
</event>
<event>
 7    1  0.5285153E-006  0.4002187E+03  0.7546771E-02  0.9655755E-01
        -11   -1    0    0    0    0  0.00000000000E+00  0.00000000000E+00  0.50000000000E+03  0.50000000000E+03  0.00000000000E+00 0.  1.
         11   -1    0    0    0    0 -0.00000000000E+00 -0.00000000000E+00 -0.50000000000E+03  0.50000000000E+03  0.00000000000E+00 0. -1.
         23    2    1    2    0    0  0.14128355032E+03 -0.64373162034E+02 -0.34531095277E+03  0.39097923462E+03  0.97571318608E+02 0.  0.
        -11    1    1    2    0    0  0.35470434301E+02  0.67054455418E+02  0.41286665574E+03  0.41977771156E+03  0.00000000000E+00 0.  1.
         11    1    1    2    0    0 -0.17675398463E+03 -0.26812933840E+01 -0.67555702974E+02  0.18924305382E+03  0.00000000000E+00 0. -1.
        -15    1    3    3    0    0  0.66516657416E+02  0.40765016596E+01 -0.65882177423E+02  0.93726744372E+02  0.17770000000E+01 0.  1.
         15    1    3    3    0    0  0.74766892908E+02 -0.68449663693E+02 -0.27942877535E+03  0.29725249024E+03  0.17770000000E+01 0. -1.
</event>
<event>
 7    1  0.5285153E-006  0.5133356E+03  0.7546771E-02  0.9370455E-01
        -11   -1    0    0    0    0  0.00000000000E+00  0.00000000000E+00  0.50000000000E+03  0.50000000000E+03  0.00000000000E+00 0.  1.
         11   -1    0    0    0    0 -0.00000000000E+00 -0.00000000000E+00 -0.50000000000E+03  0.50000000000E+03  0.00000000000E+00 0. -1.
         23    2    1    2    0    0 -0.16554118905E+01  0.11121350640E+02 -0.22073913869E+03  0.23902091186E+03  0.90987933964E+02 0.  0.
        -11    1    1    2    0    0  0.86003474809E+02  0.34360486336E+02  0.47777090823E+03  0.48666444441E+03  0.00000000000E+00 0.  1.
         11    1    1    2    0    0 -0.84348062919E+02 -0.45481836976E+02 -0.25703176954E+03  0.27431464373E+03  0.00000000000E+00 0. -1.
        -15    1    3    3    0    0 -0.43381611985E+02  0.15559959030E+02 -0.82198571112E+02  0.94254121424E+02  0.17770000000E+01 0. -1.
         15    1    3    3    0    0  0.41726200094E+02 -0.44386083904E+01 -0.13854056758E+03  0.14476679044E+03  0.17770000000E+01 0.  1.
</event>
<event>
 7    1  0.5285153E-006  0.4223445E+03  0.7546771E-02  0.9592590E-01
        -11   -1    0    0    0    0  0.00000000000E+00  0.00000000000E+00  0.50000000000E+03  0.50000000000E+03  0.00000000000E+00 0.  1.
         11   -1    0    0    0    0 -0.00000000000E+00 -0.00000000000E+00 -0.50000000000E+03  0.50000000000E+03  0.00000000000E+00 0.  1.
         23    2    1    2    0    0  0.10448402667E+03  0.94164740494E+02 -0.39158163477E+03  0.42617628856E+03  0.92228748549E+02 0.  0.
        -11    1    1    2    0    0  0.41157526502E+02 -0.58879011500E+02  0.41585603378E+03  0.42201530874E+03  0.00000000000E+00 0.  1.
         11    1    1    2    0    0 -0.14564155318E+03 -0.35285728994E+02 -0.24274399003E+02  0.15180840270E+03  0.00000000000E+00 0.  1.
        -15    1    3    3    0    0  0.42331267903E+02  0.93945408792E+02 -0.28114939954E+03  0.29944251312E+03  0.17770000000E+01 0.  1.
         15    1    3    3    0    0  0.62152758772E+02  0.21933170148E+00 -0.11043223524E+03  0.12673377544E+03  0.17770000000E+01 0. -1.
</event>
<event>
 7    1  0.5285153E-006  0.3748201E+03  0.7546771E-02  0.9733872E-01
        -11   -1    0    0    0    0  0.00000000000E+00  0.00000000000E+00  0.50000000000E+03  0.50000000000E+03  0.00000000000E+00 0.  1.
         11   -1    0    0    0    0 -0.00000000000E+00 -0.00000000000E+00 -0.50000000000E+03  0.50000000000E+03  0.00000000000E+00 0.  1.
         23    2    1    2    0    0  0.20682974291E+02  0.56422822201E+02 -0.19488728703E+03  0.22311347617E+03  0.90483414587E+02 0.  0.
        -11    1    1    2    0    0 -0.38367044584E+03 -0.47840697294E+02  0.13092250935E+03  0.40820637769E+03  0.00000000000E+00 0.  1.
         11    1    1    2    0    0  0.36298747155E+03 -0.85821249063E+01  0.63964777680E+02  0.36868014614E+03  0.00000000000E+00 0.  1.
        -15    1    3    3    0    0 -0.26234532404E+02 -0.63731213695E+01 -0.29185054672E+02  0.39796890728E+02  0.17770000000E+01 0. -1.
         15    1    3    3    0    0  0.46917506694E+02  0.62795943570E+02 -0.16570223236E+03  0.18331658545E+03  0.17770000000E+01 0.  1.
</event>
<event>
 7    1  0.5285153E-006  0.5131507E+03  0.7546771E-02  0.9370855E-01
        -11   -1    0    0    0    0  0.00000000000E+00  0.00000000000E+00  0.50000000000E+03  0.50000000000E+03  0.00000000000E+00 0.  1.
         11   -1    0    0    0    0 -0.00000000000E+00 -0.00000000000E+00 -0.50000000000E+03  0.50000000000E+03  0.00000000000E+00 0.  1.
         23    2    1    2    0    0 -0.43509802659E+02  0.75895399215E+02 -0.18955975287E+03  0.22742948598E+03  0.90211177992E+02 0.  0.
        -11    1    1    2    0    0  0.18279164717E+03 -0.21449215926E+03  0.39699192512E+03  0.48684932091E+03  0.00000000000E+00 0.  1.
         11    1    1    2    0    0 -0.13928184451E+03  0.13859676004E+03 -0.20743217225E+03  0.28572119311E+03  0.00000000000E+00 0.  1.
        -15    1    3    3    0    0 -0.23806571234E+01  0.69434911972E+02 -0.61646425362E+02  0.92899483410E+02  0.17770000000E+01 0.  1.
         15    1    3    3    0    0 -0.41129145535E+02  0.64604872437E+01 -0.12791332751E+03  0.13453000257E+03  0.17770000000E+01 0. -1.
</event>
<event>
 7    1  0.5285153E-006  0.4275715E+03  0.7546771E-02  0.9578270E-01
        -11   -1    0    0    0    0  0.00000000000E+00  0.00000000000E+00  0.50000000000E+03  0.50000000000E+03  0.00000000000E+00 0. -1.
         11   -1    0    0    0    0 -0.00000000000E+00 -0.00000000000E+00 -0.50000000000E+03  0.50000000000E+03  0.00000000000E+00 0.  1.
         23    2    1    2    0    0  0.28840393051E+02 -0.13222171522E+03 -0.39786323198E+03  0.43000151598E+03  0.91059333052E+02 0.  0.
        -11    1    1    2    0    0  0.69597240104E+02  0.31394450795E+02  0.42041669226E+03  0.42729332139E+03  0.00000000000E+00 0. -1.
         11    1    1    2    0    0 -0.98437633155E+02  0.10082726442E+03 -0.22553460275E+02  0.14270516263E+03  0.00000000000E+00 0.  1.
        -15    1    3    3    0    0  0.48823184590E+01 -0.13455644147E+03 -0.36630153309E+03  0.39026816914E+03  0.17770000000E+01 0.  1.
         15    1    3    3    0    0  0.23958074592E+02  0.23347262525E+01 -0.31561698894E+02  0.39733346837E+02  0.17770000000E+01 0. -1.
</event>
<event>
 7    1  0.5285153E-006  0.3579055E+03  0.7546771E-02  0.9789668E-01
        -11   -1    0    0    0    0  0.00000000000E+00  0.00000000000E+00  0.50000000000E+03  0.50000000000E+03  0.00000000000E+00 0. -1.
         11   -1    0    0    0    0 -0.00000000000E+00 -0.00000000000E+00 -0.50000000000E+03  0.50000000000E+03  0.00000000000E+00 0.  1.
         23    2    1    2    0    0 -0.37453452055E+02 -0.69785729448E+02 -0.30884965925E+03  0.32938067742E+03  0.82648106644E+02 0.  0.
        -11    1    1    2    0    0 -0.69190238083E+02 -0.14248632021E+03  0.38891564102E+03  0.41993453814E+03  0.00000000000E+00 0. -1.
         11    1    1    2    0    0  0.10664369014E+03  0.21227204966E+03 -0.80065981773E+02  0.25068478444E+03  0.00000000000E+00 0.  1.
        -15    1    3    3    0    0 -0.56580947307E+02 -0.57749341613E+02 -0.28592354498E+03  0.29713939718E+03  0.17770000000E+01 0.  1.
         15    1    3    3    0    0  0.19127495252E+02 -0.12036387835E+02 -0.22926114272E+02  0.32241280237E+02  0.17770000000E+01 0. -1.
</event>
<event>
 7    1  0.5285153E-006  0.4806570E+03  0.7546771E-02  0.9444163E-01
        -11   -1    0    0    0    0  0.00000000000E+00  0.00000000000E+00  0.50000000000E+03  0.50000000000E+03  0.00000000000E+00 0.  1.
         11   -1    0    0    0    0 -0.00000000000E+00 -0.00000000000E+00 -0.50000000000E+03  0.50000000000E+03  0.00000000000E+00 0. -1.
         23    2    1    2    0    0  0.95680976754E+02 -0.22900624880E+02 -0.44346107299E+03  0.46364844491E+03  0.92913235207E+02 0.  0.
        -11    1    1    2    0    0 -0.84071031828E+02  0.49516926281E+02  0.47992227956E+03  0.48973999101E+03  0.00000000000E+00 0.  1.
         11    1    1    2    0    0 -0.11609944926E+02 -0.26616301401E+02 -0.36461206563E+02  0.46611564075E+02  0.00000000000E+00 0. -1.
        -15    1    3    3    0    0  0.99176141108E+02 -0.39360493834E+02 -0.42666054157E+03  0.43980396872E+03  0.17770000000E+01 0. -1.
         15    1    3    3    0    0 -0.34951643542E+01  0.16459868954E+02 -0.16800531429E+02  0.23844476198E+02  0.17770000000E+01 0.  1.
</event>
<event>
 7    1  0.5285153E-006  0.3824591E+03  0.7546771E-02  0.9709697E-01
        -11   -1    0    0    0    0  0.00000000000E+00  0.00000000000E+00  0.50000000000E+03  0.50000000000E+03  0.00000000000E+00 0.  1.
         11   -1    0    0    0    0 -0.00000000000E+00 -0.00000000000E+00 -0.50000000000E+03  0.50000000000E+03  0.00000000000E+00 0. -1.
         23    2    1    2    0    0  0.53159259844E+01  0.11231052710E+03 -0.15424925744E+03  0.21162529462E+03  0.91381170579E+02 0.  0.
        -11    1    1    2    0    0  0.16249417997E+03  0.17061008077E+02  0.41873332314E+03  0.44948084768E+03  0.00000000000E+00 0.  1.
         11    1    1    2    0    0 -0.16781010596E+03 -0.12937153518E+03 -0.26448406570E+03  0.33889385770E+03  0.00000000000E+00 0. -1.
        -15    1    3    3    0    0 -0.25617814514E+01 -0.14368395291E+02 -0.32813298187E+02  0.35956693040E+02  0.17770000000E+01 0. -1.
         15    1    3    3    0    0  0.78777074358E+01  0.12667892240E+03 -0.12143595925E+03  0.17566860158E+03  0.17770000000E+01 0.  1.
</event>
<event>
 7    1  0.5285153E-006  0.3322650E+03  0.7546771E-02  0.9880869E-01
        -11   -1    0    0    0    0  0.00000000000E+00  0.00000000000E+00  0.50000000000E+03  0.50000000000E+03  0.00000000000E+00 0. -1.
         11   -1    0    0    0    0 -0.00000000000E+00 -0.00000000000E+00 -0.50000000000E+03  0.50000000000E+03  0.00000000000E+00 0.  1.
         23    2    1    2    0    0  0.53032722260E+02 -0.75484212606E+00 -0.27675950995E+03  0.29427962016E+03  0.84803473245E+02 0.  0.
        -11    1    1    2    0    0 -0.26823850233E+03  0.18914070230E+03  0.26088263171E+03  0.41926822790E+03  0.00000000000E+00 0. -1.
         11    1    1    2    0    0  0.21520578007E+03 -0.18838586018E+03  0.15876878241E+02  0.28645215194E+03  0.00000000000E+00 0.  1.
        -15    1    3    3    0    0  0.34072445775E+02  0.41469094141E+02 -0.14970671656E+03  0.15904677313E+03  0.17770000000E+01 0. -1.
         15    1    3    3    0    0  0.18960276485E+02 -0.42223936267E+02 -0.12705279339E+03  0.13523284703E+03  0.17770000000E+01 0.  1.
</event>
<event>
 6    1  0.5285153E-006  0.3846025E+03  0.7546771E-02  0.9703022E-01
        -11   -1    0    0    0    0  0.00000000000E+00  0.00000000000E+00  0.50000000000E+03  0.50000000000E+03  0.00000000000E+00 0.  1.
         11   -1    0    0    0    0 -0.00000000000E+00 -0.00000000000E+00 -0.50000000000E+03  0.50000000000E+03  0.00000000000E+00 0. -1.
        -11    1    1    2    0    0 -0.50229734539E+02  0.80899394236E+02  0.36990136792E+03  0.38196172611E+03  0.00000000000E+00 0.  1.
         11    1    1    2    0    0  0.28145005848E+02  0.82381416085E+02 -0.39564919188E+03  0.40511371503E+03  0.00000000000E+00 0. -1.
        -15    1    1    2    0    0  0.32319577077E+02 -0.60663230641E+02  0.72290131659E+02  0.99767747686E+02  0.17770000000E+01 0.  1.
         15    1    1    2    0    0 -0.10234848385E+02 -0.10261757968E+03 -0.46542307700E+02  0.11315681118E+03  0.17770000000E+01 0. -1.
</event>
<event>
 6    1  0.5285153E-006  0.5167135E+03  0.7546771E-02  0.9363170E-01
        -11   -1    0    0    0    0  0.00000000000E+00  0.00000000000E+00  0.50000000000E+03  0.50000000000E+03  0.00000000000E+00 0.  1.
         11   -1    0    0    0    0 -0.00000000000E+00 -0.00000000000E+00 -0.50000000000E+03  0.50000000000E+03  0.00000000000E+00 0. -1.
        -11    1    1    2    0    0 -0.98079966182E+01  0.28658513170E+02  0.90071567265E+02  0.95028387361E+02  0.00000000000E+00 0.  1.
         11    1    1    2    0    0 -0.82255761352E+02  0.11963078179E+02 -0.47608480598E+03  0.48328652785E+03  0.00000000000E+00 0. -1.
        -15    1    1    2    0    0  0.74483063719E+02 -0.12870131911E+02  0.38097129530E+03  0.38840140660E+03  0.17770000000E+01 0.  1.
         15    1    1    2    0    0  0.17580694251E+02 -0.27751459437E+02  0.50419434145E+01  0.33283678187E+02  0.17770000000E+01 0. -1.
</event>
<event>
 7    1  0.5285153E-006  0.5103980E+03  0.7546771E-02  0.9376839E-01
        -11   -1    0    0    0    0  0.00000000000E+00  0.00000000000E+00  0.50000000000E+03  0.50000000000E+03  0.00000000000E+00 0.  1.
         11   -1    0    0    0    0 -0.00000000000E+00 -0.00000000000E+00 -0.50000000000E+03  0.50000000000E+03  0.00000000000E+00 0. -1.
         23    2    1    2    0    0 -0.81418714489E+02  0.74204209308E+02 -0.33295239312E+03  0.36099971958E+03  0.85605079891E+02 0.  0.
        -11    1    1    2    0    0  0.84502947539E+02 -0.47489795165E+02  0.47991048141E+03  0.48960198013E+03  0.00000000000E+00 0.  1.
         11    1    1    2    0    0 -0.30842330492E+01 -0.26714414143E+02 -0.14695808828E+03  0.14939830029E+03  0.00000000000E+00 0. -1.
        -15    1    3    3    0    0 -0.39952496843E+02  0.77293790841E+02 -0.28247512223E+03  0.29557720567E+03  0.17770000000E+01 0.  1.
         15    1    3    3    0    0 -0.41466217647E+02 -0.30895815335E+01 -0.50477270892E+02  0.65422513905E+02  0.17770000000E+01 0. -1.
</event>
<event>
 7    1  0.5285153E-006  0.5145505E+03  0.7546771E-02  0.9367828E-01
        -11   -1    0    0    0    0  0.00000000000E+00  0.00000000000E+00  0.50000000000E+03  0.50000000000E+03  0.00000000000E+00 0.  1.
         11   -1    0    0    0    0 -0.00000000000E+00 -0.00000000000E+00 -0.50000000000E+03  0.50000000000E+03  0.00000000000E+00 0. -1.
         23    2    1    2    0    0 -0.10181371507E+03 -0.17579591973E+03  0.19205349949E+03  0.29018695143E+03  0.77805412027E+02 0.  0.
        -11    1    1    2    0    0  0.37791472706E+02 -0.16069997762E+03  0.15194190622E+03  0.22436359126E+03  0.00000000000E+00 0.  1.
         11    1    1    2    0    0  0.64022242360E+02  0.33649589736E+03 -0.34399540571E+03  0.48544945731E+03  0.00000000000E+00 0. -1.
        -15    1    3    3    0    0 -0.19760430805E+02 -0.12540608067E+02 -0.21080010715E+01  0.23565713946E+02  0.17770000000E+01 0. -1.
         15    1    3    3    0    0 -0.82053284261E+02 -0.16325531167E+03  0.19416150057E+03  0.26662123748E+03  0.17770000000E+01 0.  1.
</event>
<event>
 7    1  0.5285153E-006  0.5337339E+03  0.7546771E-02  0.9327338E-01
        -11   -1    0    0    0    0  0.00000000000E+00  0.00000000000E+00  0.50000000000E+03  0.50000000000E+03  0.00000000000E+00 0.  1.
         11   -1    0    0    0    0 -0.00000000000E+00 -0.00000000000E+00 -0.50000000000E+03  0.50000000000E+03  0.00000000000E+00 0. -1.
         23    2    1    2    0    0  0.73116624539E+02 -0.41035899650E+02 -0.99856808127E+02  0.15839369593E+03  0.89928832617E+02 0.  0.
        -11    1    1    2    0    0 -0.94968094742E+02 -0.10859667925E+03  0.44338683808E+03  0.46626608921E+03  0.00000000000E+00 0.  1.
         11    1    1    2    0    0  0.21851470203E+02  0.14963257890E+03 -0.34353002995E+03  0.37534021487E+03  0.00000000000E+00 0. -1.
        -15    1    3    3    0    0 -0.11532133442E+02 -0.20642808442E+02  0.26808062158E+01  0.23863362987E+02  0.17770000000E+01 0. -1.
         15    1    3    3    0    0  0.84648757981E+02 -0.20393091208E+02 -0.10253761434E+03  0.13453033294E+03  0.17770000000E+01 0.  1.
</event>
<event>
 7    1  0.5285153E-006  0.5216557E+03  0.7546771E-02  0.9352616E-01
        -11   -1    0    0    0    0  0.00000000000E+00  0.00000000000E+00  0.50000000000E+03  0.50000000000E+03  0.00000000000E+00 0.  1.
         11   -1    0    0    0    0 -0.00000000000E+00 -0.00000000000E+00 -0.50000000000E+03  0.50000000000E+03  0.00000000000E+00 0. -1.
         23    2    1    2    0    0  0.32189111017E+02 -0.43818015399E+01 -0.29242934040E+03  0.30616908505E+03  0.84671426473E+02 0.  0.
        -11    1    1    2    0    0 -0.13513175532E+03 -0.10553253351E+03  0.44655964785E+03  0.47834425471E+03  0.00000000000E+00 0.  1.
         11    1    1    2    0    0  0.10294264430E+03  0.10991433505E+03 -0.15413030745E+03  0.21548666024E+03  0.00000000000E+00 0. -1.
        -15    1    3    3    0    0  0.59421655557E+02  0.86044958750E+01 -0.20766752942E+03  0.21618032058E+03  0.17770000000E+01 0. -1.
         15    1    3    3    0    0 -0.27232544540E+02 -0.12986297415E+02 -0.84761810979E+02  0.89988764477E+02  0.17770000000E+01 0.  1.
</event>
<event>
 7    1  0.5285153E-006  0.4905835E+03  0.7546771E-02  0.9421130E-01
        -11   -1    0    0    0    0  0.00000000000E+00  0.00000000000E+00  0.50000000000E+03  0.50000000000E+03  0.00000000000E+00 0. -1.
         11   -1    0    0    0    0 -0.00000000000E+00 -0.00000000000E+00 -0.50000000000E+03  0.50000000000E+03  0.00000000000E+00 0.  1.
         23    2    1    2    0    0  0.59581797968E+02 -0.65872832976E+02 -0.46608177155E+03  0.48253196431E+03  0.87838818493E+02 0.  0.
        -11    1    1    2    0    0 -0.81870275390E+02  0.63419252968E+02  0.48002122853E+03  0.49106529452E+03  0.00000000000E+00 0. -1.
         11    1    1    2    0    0  0.22288477422E+02  0.24535800080E+01 -0.13939456975E+02  0.26402741172E+02  0.00000000000E+00 0.  1.
        -15    1    3    3    0    0 -0.46233515558E+01 -0.59117312305E+02 -0.19270212910E+03  0.20162713181E+03  0.17770000000E+01 0.  1.
         15    1    3    3    0    0  0.64205149524E+02 -0.67555206712E+01 -0.27337964245E+03  0.28090483250E+03  0.17770000000E+01 0. -1.
</event>
<event>
 7    1  0.5285153E-006  0.5153496E+03  0.7546771E-02  0.9366104E-01
        -11   -1    0    0    0    0  0.00000000000E+00  0.00000000000E+00  0.50000000000E+03  0.50000000000E+03  0.00000000000E+00 0. -1.
         11   -1    0    0    0    0 -0.00000000000E+00 -0.00000000000E+00 -0.50000000000E+03  0.50000000000E+03  0.00000000000E+00 0. -1.
         23    2    1    2    0    0  0.11912159186E+03  0.76351224006E+01 -0.34557986686E+03  0.37723222581E+03  0.92900264070E+02 0.  0.
        -11    1    1    2    0    0 -0.21811413914E+03 -0.55361368670E+02  0.42924043377E+03  0.48465039855E+03  0.00000000000E+00 0. -1.
         11    1    1    2    0    0  0.98992547280E+02  0.47726246269E+02 -0.83660566904E+02  0.13811737564E+03  0.00000000000E+00 0. -1.
        -15    1    3    3    0    0  0.11416375825E+03 -0.23079541793E+02 -0.30174621142E+03  0.32345009319E+03  0.17770000000E+01 0. -1.
         15    1    3    3    0    0  0.49578336129E+01  0.30714664194E+02 -0.43833655441E+02  0.53782132619E+02  0.17770000000E+01 0.  1.
</event>
<event>
 7    1  0.5285153E-006  0.5104629E+03  0.7546771E-02  0.9376698E-01
        -11   -1    0    0    0    0  0.00000000000E+00  0.00000000000E+00  0.50000000000E+03  0.50000000000E+03  0.00000000000E+00 0.  1.
         11   -1    0    0    0    0 -0.00000000000E+00 -0.00000000000E+00 -0.50000000000E+03  0.50000000000E+03  0.00000000000E+00 0.  1.
         23    2    1    2    0    0  0.70815227883E+02  0.57686575867E+02 -0.47247634594E+03  0.48953714964E+03  0.89834213287E+02 0.  0.
        -11    1    1    2    0    0 -0.32433213445E+01 -0.10038365591E+03  0.35069026552E+03  0.36478906212E+03  0.00000000000E+00 0.  1.
         11    1    1    2    0    0 -0.67571906538E+02  0.42697080044E+02  0.12178608041E+03  0.14567378824E+03  0.00000000000E+00 0.  1.
        -15    1    3    3    0    0  0.80073856821E+02  0.68280062207E+02 -0.45508549866E+03  0.46709737557E+03  0.17770000000E+01 0.  1.
         15    1    3    3    0    0 -0.92586289380E+01 -0.10593486340E+02 -0.17390847272E+02  0.22439774074E+02  0.17770000000E+01 0. -1.
</event>
<event>
 7    1  0.5285153E-006  0.3738687E+03  0.7546771E-02  0.9736926E-01
        -11   -1    0    0    0    0  0.00000000000E+00  0.00000000000E+00  0.50000000000E+03  0.50000000000E+03  0.00000000000E+00 0.  1.
         11   -1    0    0    0    0 -0.00000000000E+00 -0.00000000000E+00 -0.50000000000E+03  0.50000000000E+03  0.00000000000E+00 0. -1.
         23    2    1    2    0    0  0.16413968296E+03  0.67144460155E+02 -0.10241011280E+03  0.22472623331E+03  0.92540989182E+02 0.  0.
        -11    1    1    2    0    0 -0.51662791648E+01  0.71728161227E+02  0.40222514694E+03  0.40860333868E+03  0.00000000000E+00 0.  1.
         11    1    1    2    0    0 -0.15897340380E+03 -0.13887262138E+03 -0.29981503413E+03  0.36667042801E+03  0.00000000000E+00 0. -1.
        -15    1    3    3    0    0  0.15206813824E+03  0.50586753463E+02 -0.49158920410E+02  0.16764097196E+03  0.17770000000E+01 0.  1.
         15    1    3    3    0    0  0.12071544722E+02  0.16557706692E+02 -0.53251192394E+02  0.57085261348E+02  0.17770000000E+01 0. -1.
</event>
<event>
 6    1  0.5285153E-006  0.4392864E+03  0.7546771E-02  0.9546953E-01
        -11   -1    0    0    0    0  0.00000000000E+00  0.00000000000E+00  0.50000000000E+03  0.50000000000E+03  0.00000000000E+00 0.  1.
         11   -1    0    0    0    0 -0.00000000000E+00 -0.00000000000E+00 -0.50000000000E+03  0.50000000000E+03  0.00000000000E+00 0. -1.
        -11    1    1    2    0    0 -0.12104190396E+03  0.99595910415E+02  0.42613630465E+03  0.45405136056E+03  0.00000000000E+00 0.  1.
         11    1    1    2    0    0  0.39701201863E+02 -0.11895182657E+03 -0.53977970901E+02  0.13652598220E+03  0.00000000000E+00 0. -1.
        -15    1    1    2    0    0 -0.10561756059E+02  0.31624775829E+02 -0.89573722601E+01  0.34569775586E+02  0.17770000000E+01 0.  1.
         15    1    1    2    0    0  0.91902458160E+02 -0.12268859674E+02 -0.36320096148E+03  0.37485288166E+03  0.17770000000E+01 0. -1.
</event>
<event>
 7    1  0.5285153E-006  0.4691669E+03  0.7546771E-02  0.9471573E-01
        -11   -1    0    0    0    0  0.00000000000E+00  0.00000000000E+00  0.50000000000E+03  0.50000000000E+03  0.00000000000E+00 0.  1.
         11   -1    0    0    0    0 -0.00000000000E+00 -0.00000000000E+00 -0.50000000000E+03  0.50000000000E+03  0.00000000000E+00 0. -1.
         23    2    1    2    0    0 -0.21013107587E+03 -0.22347348060E+03  0.33629171785E+03  0.46424514306E+03  0.91301521257E+02 0.  0.
        -11    1    1    2    0    0  0.56453170627E+02 -0.16828678951E+02  0.34249431728E+02  0.68140945714E+02  0.00000000000E+00 0.  1.
         11    1    1    2    0    0  0.15367790524E+03  0.24030215955E+03 -0.37054114958E+03  0.46761391123E+03  0.00000000000E+00 0. -1.
        -15    1    3    3    0    0 -0.19191734300E+02 -0.54047017459E+02  0.10555717930E+03  0.12014523957E+03  0.17770000000E+01 0. -1.
         15    1    3    3    0    0 -0.19093934157E+03 -0.16942646314E+03  0.23073453855E+03  0.34409990349E+03  0.17770000000E+01 0.  1.
</event>
<event>
 7    1  0.5285153E-006  0.4899749E+03  0.7546771E-02  0.9422525E-01
        -11   -1    0    0    0    0  0.00000000000E+00  0.00000000000E+00  0.50000000000E+03  0.50000000000E+03  0.00000000000E+00 0.  1.
         11   -1    0    0    0    0 -0.00000000000E+00 -0.00000000000E+00 -0.50000000000E+03  0.50000000000E+03  0.00000000000E+00 0.  1.
         23    2    1    2    0    0  0.10123896772E+03  0.58034710364E+02 -0.46183905997E+03  0.48379922395E+03  0.84551851448E+02 0.  0.
        -11    1    1    2    0    0 -0.86125888680E+02 -0.44244846972E+02  0.47949698191E+03  0.48917546019E+03  0.00000000000E+00 0.  1.
         11    1    1    2    0    0 -0.15113079040E+02 -0.13789863392E+02 -0.17657921938E+02  0.27025315866E+02  0.00000000000E+00 0.  1.
        -15    1    3    3    0    0  0.67091313873E+02  0.77020857279E+02 -0.37289267839E+03  0.38663363043E+03  0.17770000000E+01 0.  1.
         15    1    3    3    0    0  0.34147653848E+02 -0.18986146915E+02 -0.88946381583E+02  0.97165593518E+02  0.17770000000E+01 0. -1.
</event>
<event>
 7    1  0.5285153E-006  0.5109562E+03  0.7546771E-02  0.9375623E-01
        -11   -1    0    0    0    0  0.00000000000E+00  0.00000000000E+00  0.50000000000E+03  0.50000000000E+03  0.00000000000E+00 0.  1.
         11   -1    0    0    0    0 -0.00000000000E+00 -0.00000000000E+00 -0.50000000000E+03  0.50000000000E+03  0.00000000000E+00 0. -1.
         23    2    1    2    0    0 -0.25081713966E+02 -0.41433520981E+00 -0.48017165125E+03  0.48904379490E+03  0.89273482196E+02 0.  0.
        -11    1    1    2    0    0  0.35618751829E+02  0.59716764813E+02  0.42036195787E+03  0.42607389395E+03  0.00000000000E+00 0.  1.
         11    1    1    2    0    0 -0.10537037862E+02 -0.59302429603E+02  0.59809693379E+02  0.84882311148E+02  0.00000000000E+00 0. -1.
        -15    1    3    3    0    0 -0.57512474940E+02 -0.75184835986E+01 -0.34481176846E+03  0.34966058652E+03  0.17770000000E+01 0. -1.
         15    1    3    3    0    0  0.32430760974E+02  0.71041483888E+01 -0.13535988279E+03  0.13938320838E+03  0.17770000000E+01 0.  1.
</event>
<event>
 7    1  0.5285153E-006  0.4053894E+03  0.7546771E-02  0.9640609E-01
        -11   -1    0    0    0    0  0.00000000000E+00  0.00000000000E+00  0.50000000000E+03  0.50000000000E+03  0.00000000000E+00 0.  1.
         11   -1    0    0    0    0 -0.00000000000E+00 -0.00000000000E+00 -0.50000000000E+03  0.50000000000E+03  0.00000000000E+00 0. -1.
         23    2    1    2    0    0  0.12252765823E+03 -0.10162047863E+02 -0.85546626458E+02  0.17550207186E+03  0.91468342497E+02 0.  0.
        -11    1    1    2    0    0  0.15117186028E+02  0.97055258450E+02  0.43129995206E+03  0.44234364600E+03  0.00000000000E+00 0.  1.
         11    1    1    2    0    0 -0.13764484426E+03 -0.86893210587E+02 -0.34575332560E+03  0.38215428215E+03  0.00000000000E+00 0. -1.
        -15    1    3    3    0    0  0.37503106264E+02 -0.90915733315E+01 -0.81691592716E+02  0.90364892157E+02  0.17770000000E+01 0. -1.
         15    1    3    3    0    0  0.85024551968E+02 -0.10704745310E+01 -0.38550337424E+01  0.85137179700E+02  0.17770000000E+01 0.  1.
</event>
<event>
 7    1  0.5285153E-006  0.5176131E+03  0.7546771E-02  0.9361239E-01
        -11   -1    0    0    0    0  0.00000000000E+00  0.00000000000E+00  0.50000000000E+03  0.50000000000E+03  0.00000000000E+00 0. -1.
         11   -1    0    0    0    0 -0.00000000000E+00 -0.00000000000E+00 -0.50000000000E+03  0.50000000000E+03  0.00000000000E+00 0.  1.
         23    2    1    2    0    0 -0.21143236161E+03 -0.44407606992E+02  0.25849607177E+03  0.34845972084E+03  0.89040882946E+02 0.  0.
        -11    1    1    2    0    0 -0.23363878984E+02  0.39285861153E+02  0.16286076158E+03  0.16915341377E+03  0.00000000000E+00 0. -1.
         11    1    1    2    0    0  0.23479624059E+03  0.51217458390E+01 -0.42135683336E+03  0.48238686538E+03  0.00000000000E+00 0.  1.
        -15    1    3    3    0    0 -0.12429119879E+03 -0.38645666509E+02  0.21387119631E+03  0.25037139608E+03  0.17770000000E+01 0. -1.
         15    1    3    3    0    0 -0.87141162818E+02 -0.57619404830E+01  0.44624875460E+02  0.98088324760E+02  0.17770000000E+01 0.  1.
</event>
<event>
 7    1  0.5285153E-006  0.5076719E+03  0.7546771E-02  0.9382805E-01
        -11   -1    0    0    0    0  0.00000000000E+00  0.00000000000E+00  0.50000000000E+03  0.50000000000E+03  0.00000000000E+00 0.  1.
         11   -1    0    0    0    0 -0.00000000000E+00 -0.00000000000E+00 -0.50000000000E+03  0.50000000000E+03  0.00000000000E+00 0. -1.
         23    2    1    2    0    0 -0.74084196439E+02  0.95680124287E+02 -0.46864581419E+03  0.49232813701E+03  0.90082967293E+02 0.  0.
        -11    1    1    2    0    0  0.11030148416E+02 -0.99101989357E+02  0.40839724654E+03  0.42039407637E+03  0.00000000000E+00 0.  1.
         11    1    1    2    0    0  0.63054048022E+02  0.34218650696E+01  0.60248567651E+02  0.87277786616E+02  0.00000000000E+00 0. -1.
        -15    1    3    3    0    0 -0.20689142847E+02  0.19325454826E+01 -0.14156997033E+02  0.25206222601E+02  0.17770000000E+01 0.  1.
         15    1    3    3    0    0 -0.53395053591E+02  0.93747578805E+02 -0.45448881715E+03  0.46712191441E+03  0.17770000000E+01 0. -1.
</event>
<event>
 7    1  0.5285153E-006  0.5035992E+03  0.7546771E-02  0.9391792E-01
        -11   -1    0    0    0    0  0.00000000000E+00  0.00000000000E+00  0.50000000000E+03  0.50000000000E+03  0.00000000000E+00 0. -1.
         11   -1    0    0    0    0 -0.00000000000E+00 -0.00000000000E+00 -0.50000000000E+03  0.50000000000E+03  0.00000000000E+00 0.  1.
         23    2    1    2    0    0  0.13614619633E+02  0.99337165084E+02 -0.48492422840E+03  0.50359922151E+03  0.91692084590E+02 0.  0.
        -11    1    1    2    0    0 -0.12888965483E+02 -0.87657072907E+02  0.46438694812E+03  0.47276328690E+03  0.00000000000E+00 0. -1.
         11    1    1    2    0    0 -0.72565414999E+00 -0.11680092176E+02  0.20537280285E+02  0.23637491590E+02  0.00000000000E+00 0.  1.
        -15    1    3    3    0    0  0.32225818968E+02 -0.24045295779E+01 -0.10926344289E+03  0.11395588116E+03  0.17770000000E+01 0. -1.
         15    1    3    3    0    0 -0.18611199335E+02  0.10174169466E+03 -0.37566078551E+03  0.38964334035E+03  0.17770000000E+01 0.  1.
</event>
<event>
 7    1  0.5285153E-006  0.4747391E+03  0.7546771E-02  0.9458177E-01
        -11   -1    0    0    0    0  0.00000000000E+00  0.00000000000E+00  0.50000000000E+03  0.50000000000E+03  0.00000000000E+00 0. -1.
         11   -1    0    0    0    0 -0.00000000000E+00 -0.00000000000E+00 -0.50000000000E+03  0.50000000000E+03  0.00000000000E+00 0.  1.
         23    2    1    2    0    0  0.99791632909E+02  0.38733376232E+02 -0.46175683709E+03  0.48275935750E+03  0.91534563025E+02 0.  0.
        -11    1    1    2    0    0 -0.10721498492E+03  0.16403851663E+02  0.44659460122E+03  0.45957684578E+03  0.00000000000E+00 0. -1.
         11    1    1    2    0    0  0.74233520067E+01 -0.55137227895E+02  0.15162235868E+02  0.57663796714E+02  0.00000000000E+00 0.  1.
        -15    1    3    3    0    0 -0.12685958093E+02 -0.10876200821E+02 -0.38491134837E+02  0.41999410318E+02  0.17770000000E+01 0. -1.
         15    1    3    3    0    0  0.11247759100E+03  0.49609577053E+02 -0.42326570225E+03  0.44075994719E+03  0.17770000000E+01 0.  1.
</event>
<event>
 7    1  0.5285153E-006  0.5233506E+03  0.7546771E-02  0.9349025E-01
        -11   -1    0    0    0    0  0.00000000000E+00  0.00000000000E+00  0.50000000000E+03  0.50000000000E+03  0.00000000000E+00 0.  1.
         11   -1    0    0    0    0 -0.00000000000E+00 -0.00000000000E+00 -0.50000000000E+03  0.50000000000E+03  0.00000000000E+00 0. -1.
         23    2    1    2    0    0  0.25964820035E+02  0.37173555080E+01  0.29420278120E+03  0.30944407895E+03  0.92262510902E+02 0.  0.
        -11    1    1    2    0    0 -0.12759588321E+03 -0.88026344816E+01  0.17145791811E+03  0.21390655312E+03  0.00000000000E+00 0.  1.
         11    1    1    2    0    0  0.10163106317E+03  0.50852789735E+01 -0.46566069931E+03  0.47664936793E+03  0.00000000000E+00 0. -1.
        -15    1    3    3    0    0  0.17720537058E+02  0.47276226576E+02  0.13385375689E+03  0.14307007023E+03  0.17770000000E+01 0. -1.
         15    1    3    3    0    0  0.82442829767E+01 -0.43558871068E+02  0.16034902431E+03  0.16637400872E+03  0.17770000000E+01 0.  1.
</event>
<event>
 7    1  0.5285153E-006  0.5324357E+03  0.7546771E-02  0.9330021E-01
        -11   -1    0    0    0    0  0.00000000000E+00  0.00000000000E+00  0.50000000000E+03  0.50000000000E+03  0.00000000000E+00 0.  1.
         11   -1    0    0    0    0 -0.00000000000E+00 -0.00000000000E+00 -0.50000000000E+03  0.50000000000E+03  0.00000000000E+00 0. -1.
         23    2    1    2    0    0 -0.83342649948E+02  0.11034403853E+03 -0.31447203775E+03  0.35515150137E+03  0.90100622942E+02 0.  0.
        -11    1    1    2    0    0  0.18095042950E+03 -0.18756057197E+02  0.43072205171E+03  0.46756425596E+03  0.00000000000E+00 0.  1.
         11    1    1    2    0    0 -0.97607779556E+02 -0.91587981337E+02 -0.11625001396E+03  0.17728424267E+03  0.00000000000E+00 0. -1.
        -15    1    3    3    0    0 -0.41027736597E+02  0.55332430458E+02 -0.59964737442E+02  0.91344843840E+02  0.17770000000E+01 0. -1.
         15    1    3    3    0    0 -0.42314913351E+02  0.55011608076E+02 -0.25450730031E+03  0.26380665753E+03  0.17770000000E+01 0.  1.
</event>
<event>
 7    1  0.5285153E-006  0.3391928E+03  0.7546771E-02  0.9855378E-01
        -11   -1    0    0    0    0  0.00000000000E+00  0.00000000000E+00  0.50000000000E+03  0.50000000000E+03  0.00000000000E+00 0.  1.
         11   -1    0    0    0    0 -0.00000000000E+00 -0.00000000000E+00 -0.50000000000E+03  0.50000000000E+03  0.00000000000E+00 0. -1.
         23    2    1    2    0    0  0.39273750453E+02  0.45565540288E+01 -0.25548555097E+03  0.27402262121E+03  0.90842393864E+02 0.  0.
        -11    1    1    2    0    0 -0.26830866785E+03 -0.18819602185E+03  0.28045900520E+03  0.43135198792E+03  0.00000000000E+00 0.  1.
         11    1    1    2    0    0  0.22903491739E+03  0.18363946783E+03 -0.24973454236E+02  0.29462539087E+03  0.00000000000E+00 0. -1.
        -15    1    3    3    0    0  0.53658598034E+02 -0.28791702527E+02 -0.18395732899E+03  0.19378251700E+03  0.17770000000E+01 0.  1.
         15    1    3    3    0    0 -0.14384847581E+02  0.33348256556E+02 -0.71528221976E+02  0.80240104208E+02  0.17770000000E+01 0. -1.
</event>
<event>
 7    1  0.5285153E-006  0.3912319E+03  0.7546771E-02  0.9682668E-01
        -11   -1    0    0    0    0  0.00000000000E+00  0.00000000000E+00  0.50000000000E+03  0.50000000000E+03  0.00000000000E+00 0.  1.
         11   -1    0    0    0    0 -0.00000000000E+00 -0.00000000000E+00 -0.50000000000E+03  0.50000000000E+03  0.00000000000E+00 0. -1.
         23    2    1    2    0    0  0.42316303503E+02  0.16938716232E+03  0.22017726305E+02  0.19799185642E+03  0.90737614229E+02 0.  0.
        -11    1    1    2    0    0 -0.13800406023E+03  0.13341645265E+03  0.29586697346E+03  0.35267880070E+03  0.00000000000E+00 0.  1.
         11    1    1    2    0    0  0.95687756727E+02 -0.30280361497E+03 -0.31788469977E+03  0.44932934288E+03  0.00000000000E+00 0. -1.
        -15    1    3    3    0    0  0.20571221016E+02  0.87347270714E+01  0.27858843810E+02  0.35759523187E+02  0.17770000000E+01 0.  1.
         15    1    3    3    0    0  0.21745082487E+02  0.16065243525E+03 -0.58411175049E+01  0.16223233323E+03  0.17770000000E+01 0. -1.
</event>
<event>
 6    1  0.5285153E-006  0.5369337E+03  0.7546771E-02  0.9320760E-01
        -11   -1    0    0    0    0  0.00000000000E+00  0.00000000000E+00  0.50000000000E+03  0.50000000000E+03  0.00000000000E+00 0. -1.
         11   -1    0    0    0    0 -0.00000000000E+00 -0.00000000000E+00 -0.50000000000E+03  0.50000000000E+03  0.00000000000E+00 0.  1.
        -11    1    1    2    0    0 -0.33263048590E+02  0.37488475634E+02  0.27612190444E+03  0.28063343051E+03  0.00000000000E+00 0. -1.
         11    1    1    2    0    0  0.12498431100E+03  0.17605115909E+02 -0.44553265975E+03  0.46306626848E+03  0.00000000000E+00 0.  1.
        -15    1    1    2    0    0 -0.96489508759E+02  0.33745591799E+02  0.10420418226E+03  0.14598170980E+03  0.17770000000E+01 0. -1.
         15    1    1    2    0    0  0.47682463480E+01 -0.88839183342E+02  0.65206573039E+02  0.11031859121E+03  0.17770000000E+01 0.  1.
</event>
<event>
 7    1  0.5285153E-006  0.3260161E+03  0.7546771E-02  0.9904441E-01
        -11   -1    0    0    0    0  0.00000000000E+00  0.00000000000E+00  0.50000000000E+03  0.50000000000E+03  0.00000000000E+00 0.  1.
         11   -1    0    0    0    0 -0.00000000000E+00 -0.00000000000E+00 -0.50000000000E+03  0.50000000000E+03  0.00000000000E+00 0. -1.
         23    2    1    2    0    0 -0.47927691326E+02  0.23805696856E+03 -0.26741818152E+03  0.37435422820E+03  0.98287438133E+02 0.  0.
        -11    1    1    2    0    0  0.76562197788E+02  0.53942501782E+02  0.31480696213E+03  0.32844327826E+03  0.00000000000E+00 0.  1.
         11    1    1    2    0    0 -0.28634506462E+02 -0.29199947034E+03 -0.47388780609E+02  0.29720249354E+03  0.00000000000E+00 0. -1.
        -15    1    3    3    0    0  0.55447002087E+01  0.47258078108E+02 -0.11465085523E+03  0.12414526161E+03  0.17770000000E+01 0.  1.
         15    1    3    3    0    0 -0.53472391534E+02  0.19079889045E+03 -0.15276732628E+03  0.25020896659E+03  0.17770000000E+01 0. -1.
</event>
<event>
 7    1  0.5285153E-006  0.4277370E+03  0.7546771E-02  0.9577820E-01
        -11   -1    0    0    0    0  0.00000000000E+00  0.00000000000E+00  0.50000000000E+03  0.50000000000E+03  0.00000000000E+00 0. -1.
         11   -1    0    0    0    0 -0.00000000000E+00 -0.00000000000E+00 -0.50000000000E+03  0.50000000000E+03  0.00000000000E+00 0.  1.
         23    2    1    2    0    0  0.93012609506E+01 -0.42228171569E+02  0.90680078997E+02  0.13864734165E+03  0.95553527873E+02 0.  0.
        -11    1    1    2    0    0  0.17651940245E+03  0.21289639831E+03  0.29251611674E+03  0.40255391491E+03  0.00000000000E+00 0. -1.
         11    1    1    2    0    0 -0.18582066340E+03 -0.17066822674E+03 -0.38319619573E+03  0.45879874345E+03  0.00000000000E+00 0.  1.
        -15    1    3    3    0    0  0.99557843555E+01  0.27779294690E+02  0.48774003645E+02  0.57033919874E+02  0.17770000000E+01 0. -1.
         15    1    3    3    0    0 -0.65452340494E+00 -0.70007466259E+02  0.41906075352E+02  0.81613421772E+02  0.17770000000E+01 0.  1.
</event>
<event>
 7    1  0.5285153E-006  0.3855617E+03  0.7546771E-02  0.9700050E-01
        -11   -1    0    0    0    0  0.00000000000E+00  0.00000000000E+00  0.50000000000E+03  0.50000000000E+03  0.00000000000E+00 0. -1.
         11   -1    0    0    0    0 -0.00000000000E+00 -0.00000000000E+00 -0.50000000000E+03  0.50000000000E+03  0.00000000000E+00 0.  1.
         23    2    1    2    0    0 -0.10040351546E+03  0.50697710352E+02 -0.14845160844E+03  0.20670291758E+03  0.89649831768E+02 0.  0.
        -11    1    1    2    0    0 -0.21814550612E+03 -0.17003603035E+03  0.31107502922E+03  0.41625399369E+03  0.00000000000E+00 0. -1.
         11    1    1    2    0    0  0.31854902158E+03  0.11933832000E+03 -0.16262342078E+03  0.37704308873E+03  0.00000000000E+00 0.  1.
        -15    1    3    3    0    0 -0.62679613791E+02  0.61819085678E+02 -0.14159478884E+03  0.16674104262E+03  0.17770000000E+01 0. -1.
         15    1    3    3    0    0 -0.37723901667E+02 -0.11121375327E+02 -0.68568196018E+01  0.39961874959E+02  0.17770000000E+01 0.  1.
</event>
<event>
 7    1  0.5285153E-006  0.5171796E+03  0.7546771E-02  0.9362169E-01
        -11   -1    0    0    0    0  0.00000000000E+00  0.00000000000E+00  0.50000000000E+03  0.50000000000E+03  0.00000000000E+00 0.  1.
         11   -1    0    0    0    0 -0.00000000000E+00 -0.00000000000E+00 -0.50000000000E+03  0.50000000000E+03  0.00000000000E+00 0. -1.
         23    2    1    2    0    0  0.17517294679E+03 -0.76370928476E+02  0.32868065885E+03  0.39638695449E+03  0.11213189639E+03 0.  0.
        -11    1    1    2    0    0  0.88895719214E+02 -0.64605739836E+02  0.50144951825E+02  0.12079265999E+03  0.00000000000E+00 0.  1.
         11    1    1    2    0    0 -0.26406866600E+03  0.14097666831E+03 -0.37882561067E+03  0.48282038552E+03  0.00000000000E+00 0. -1.
        -15    1    3    3    0    0  0.20712770332E+02 -0.54314459572E+02  0.13964072913E+03  0.15126721501E+03  0.17770000000E+01 0.  1.
         15    1    3    3    0    0  0.15446017645E+03 -0.22056468904E+02  0.18903992971E+03  0.24511973949E+03  0.17770000000E+01 0. -1.
</event>
<event>
 7    1  0.5285153E-006  0.4907654E+03  0.7546771E-02  0.9420713E-01
        -11   -1    0    0    0    0  0.00000000000E+00  0.00000000000E+00  0.50000000000E+03  0.50000000000E+03  0.00000000000E+00 0. -1.
         11   -1    0    0    0    0 -0.00000000000E+00 -0.00000000000E+00 -0.50000000000E+03  0.50000000000E+03  0.00000000000E+00 0.  1.
         23    2    1    2    0    0  0.51085845196E+02 -0.42136812498E+02 -0.46724857989E+03  0.48095766784E+03  0.92810388974E+02 0.  0.
        -11    1    1    2    0    0 -0.68141578324E+02  0.54116547621E+02  0.48433599539E+03  0.49209067442E+03  0.00000000000E+00 0. -1.
         11    1    1    2    0    0  0.17055733128E+02 -0.11979735123E+02 -0.17087415503E+02  0.26951657736E+02  0.00000000000E+00 0.  1.
        -15    1    3    3    0    0  0.48615758430E+02  0.18367668251E+02 -0.25415142406E+03  0.25941659023E+03  0.17770000000E+01 0.  1.
         15    1    3    3    0    0  0.24700867667E+01 -0.60504480749E+02 -0.21309715582E+03  0.22154107761E+03  0.17770000000E+01 0. -1.
</event>
<event>
 7    1  0.5285153E-006  0.5256494E+03  0.7546771E-02  0.9344178E-01
        -11   -1    0    0    0    0  0.00000000000E+00  0.00000000000E+00  0.50000000000E+03  0.50000000000E+03  0.00000000000E+00 0. -1.
         11   -1    0    0    0    0 -0.00000000000E+00 -0.00000000000E+00 -0.50000000000E+03  0.50000000000E+03  0.00000000000E+00 0.  1.
         23    2    1    2    0    0 -0.46489395600E+01  0.22749633284E+02 -0.96622286368E+02  0.13431671435E+03  0.90365674218E+02 0.  0.
        -11    1    1    2    0    0  0.17563548036E+03  0.79832063274E+02  0.43334454760E+03  0.47435058472E+03  0.00000000000E+00 0. -1.
         11    1    1    2    0    0 -0.17098654080E+03 -0.10258169656E+03 -0.33672226124E+03  0.39133270093E+03  0.00000000000E+00 0.  1.
        -15    1    3    3    0    0  0.86963111802E+01  0.68184111310E+01  0.16140240869E+02  0.19641325383E+02  0.17770000000E+01 0.  1.
         15    1    3    3    0    0 -0.13345250740E+02  0.15931222153E+02 -0.11276252724E+03  0.11467538897E+03  0.17770000000E+01 0. -1.
</event>
<event>
 7    1  0.5285153E-006  0.4612010E+03  0.7546771E-02  0.9491072E-01
        -11   -1    0    0    0    0  0.00000000000E+00  0.00000000000E+00  0.50000000000E+03  0.50000000000E+03  0.00000000000E+00 0. -1.
         11   -1    0    0    0    0 -0.00000000000E+00 -0.00000000000E+00 -0.50000000000E+03  0.50000000000E+03  0.00000000000E+00 0. -1.
         23    2    1    2    0    0  0.49649441691E+02  0.37645571960E+02 -0.40846646526E+03  0.42462871716E+03  0.97889928238E+02 0.  0.
        -11    1    1    2    0    0 -0.87617049747E+02 -0.25198671306E+02  0.48261068400E+03  0.49114640664E+03  0.00000000000E+00 0. -1.
         11    1    1    2    0    0  0.37967608056E+02 -0.12446900654E+02 -0.74144218743E+02  0.84224876197E+02  0.00000000000E+00 0. -1.
        -15    1    3    3    0    0 -0.20552660152E+02 -0.47209311744E+01 -0.26281058184E+02  0.33742418093E+02  0.17770000000E+01 0.  1.
         15    1    3    3    0    0  0.70202101843E+02  0.42366503134E+02 -0.38218540708E+03  0.39088629907E+03  0.17770000000E+01 0. -1.
</event>
<event>
 7    1  0.5285153E-006  0.4514973E+03  0.7546771E-02  0.9515399E-01
        -11   -1    0    0    0    0  0.00000000000E+00  0.00000000000E+00  0.50000000000E+03  0.50000000000E+03  0.00000000000E+00 0. -1.
         11   -1    0    0    0    0 -0.00000000000E+00 -0.00000000000E+00 -0.50000000000E+03  0.50000000000E+03  0.00000000000E+00 0.  1.
         23    2    1    2    0    0  0.19394317421E+02 -0.64352925721E+01 -0.29850707139E+02  0.96281061152E+02  0.89226820414E+02 0.  0.
        -11    1    1    2    0    0  0.15916854607E+03 -0.93192105504E+02  0.42250740030E+03  0.46101181969E+03  0.00000000000E+00 0. -1.
         11    1    1    2    0    0 -0.17856286349E+03  0.99627398076E+02 -0.39265669316E+03  0.44270711916E+03  0.00000000000E+00 0.  1.
        -15    1    3    3    0    0 -0.22524561579E+02 -0.27983208919E+02  0.67315683306E+01  0.36590813012E+02  0.17770000000E+01 0.  1.
         15    1    3    3    0    0  0.41918878999E+02  0.21547916347E+02 -0.36582275469E+02  0.59690248140E+02  0.17770000000E+01 0. -1.
</event>
<event>
 7    1  0.5285153E-006  0.5108280E+03  0.7546771E-02  0.9375902E-01
        -11   -1    0    0    0    0  0.00000000000E+00  0.00000000000E+00  0.50000000000E+03  0.50000000000E+03  0.00000000000E+00 0.  1.
         11   -1    0    0    0    0 -0.00000000000E+00 -0.00000000000E+00 -0.50000000000E+03  0.50000000000E+03  0.00000000000E+00 0. -1.
         23    2    1    2    0    0  0.38163707962E+02  0.18566485748E+02 -0.29432847443E+03  0.31231422489E+03  0.95444964312E+02 0.  0.
        -11    1    1    2    0    0 -0.87212973887E+02  0.30283502952E+02  0.48038111080E+03  0.48917195850E+03  0.00000000000E+00 0.  1.
         11    1    1    2    0    0  0.49049265926E+02 -0.48849988700E+02 -0.18605263637E+03  0.19851381661E+03  0.00000000000E+00 0. -1.
        -15    1    3    3    0    0  0.57966266519E+02 -0.10394358999E+02 -0.24350849558E+03  0.25053477982E+03  0.17770000000E+01 0. -1.
         15    1    3    3    0    0 -0.19802558557E+02  0.28960844747E+02 -0.50819978853E+02  0.61779445073E+02  0.17770000000E+01 0.  1.
</event>
<event>
 7    1  0.5285153E-006  0.3554558E+03  0.7546771E-02  0.9798022E-01
        -11   -1    0    0    0    0  0.00000000000E+00  0.00000000000E+00  0.50000000000E+03  0.50000000000E+03  0.00000000000E+00 0.  1.
         11   -1    0    0    0    0 -0.00000000000E+00 -0.00000000000E+00 -0.50000000000E+03  0.50000000000E+03  0.00000000000E+00 0. -1.
         23    2    1    2    0    0  0.21580009677E+03  0.49256542152E+02  0.25718676366E+02  0.25498147520E+03  0.12392826018E+03 0.  0.
        -11    1    1    2    0    0 -0.12617772237E+03 -0.76059602326E+02  0.33839745224E+03  0.36907819823E+03  0.00000000000E+00 0.  1.
         11    1    1    2    0    0 -0.89622374404E+02  0.26803060173E+02 -0.36411612860E+03  0.37594032656E+03  0.00000000000E+00 0. -1.
        -15    1    3    3    0    0  0.75311802503E+02 -0.41894788074E+02  0.95045076038E+01  0.86721013935E+02  0.17770000000E+01 0.  1.
         15    1    3    3    0    0  0.14048829427E+03  0.91151330226E+02  0.16214168763E+02  0.16826046127E+03  0.17770000000E+01 0. -1.
</event>
<event>
 7    1  0.5285153E-006  0.5077376E+03  0.7546771E-02  0.9382661E-01
        -11   -1    0    0    0    0  0.00000000000E+00  0.00000000000E+00  0.50000000000E+03  0.50000000000E+03  0.00000000000E+00 0.  1.
         11   -1    0    0    0    0 -0.00000000000E+00 -0.00000000000E+00 -0.50000000000E+03  0.50000000000E+03  0.00000000000E+00 0. -1.
         23    2    1    2    0    0  0.36479342922E+02  0.39367001401E+02 -0.33754660116E+03  0.35403521881E+03  0.92318605620E+02 0.  0.
        -11    1    1    2    0    0 -0.89379672278E+02 -0.50883738154E+02  0.48139838744E+03  0.49226241788E+03  0.00000000000E+00 0.  1.
         11    1    1    2    0    0  0.52900329356E+02  0.11516736753E+02 -0.14385178629E+03  0.15370236332E+03  0.00000000000E+00 0. -1.
        -15    1    3    3    0    0 -0.10943560995E+02  0.47861033691E+02 -0.24288808894E+03  0.24780682306E+03  0.17770000000E+01 0. -1.
         15    1    3    3    0    0  0.47422903917E+02 -0.84940322899E+01 -0.94658512211E+02  0.10622839575E+03  0.17770000000E+01 0.  1.
</event>
<event>
 7    1  0.5285153E-006  0.4779793E+03  0.7546771E-02  0.9450477E-01
        -11   -1    0    0    0    0  0.00000000000E+00  0.00000000000E+00  0.50000000000E+03  0.50000000000E+03  0.00000000000E+00 0. -1.
         11   -1    0    0    0    0 -0.00000000000E+00 -0.00000000000E+00 -0.50000000000E+03  0.50000000000E+03  0.00000000000E+00 0. -1.
         23    2    1    2    0    0  0.67812256783E+02  0.41398930780E+02 -0.46200659975E+03  0.47788711961E+03  0.92809629023E+02 0.  0.
        -11    1    1    2    0    0 -0.77810672684E+02  0.93200007638E+01  0.46381236296E+03  0.47038630001E+03  0.00000000000E+00 0. -1.
         11    1    1    2    0    0  0.99984159004E+01 -0.50718931544E+02 -0.18057632157E+01  0.51726580385E+02  0.00000000000E+00 0. -1.
        -15    1    3    3    0    0  0.57205705176E+02  0.69034144230E+02 -0.29719941662E+03  0.31043333703E+03  0.17770000000E+01 0. -1.
         15    1    3    3    0    0  0.10606551608E+02 -0.27635213450E+02 -0.16480718313E+03  0.16745378257E+03  0.17770000000E+01 0.  1.
</event>
<event>
 7    1  0.5285153E-006  0.5229593E+03  0.7546771E-02  0.9349853E-01
        -11   -1    0    0    0    0  0.00000000000E+00  0.00000000000E+00  0.50000000000E+03  0.50000000000E+03  0.00000000000E+00 0. -1.
         11   -1    0    0    0    0 -0.00000000000E+00 -0.00000000000E+00 -0.50000000000E+03  0.50000000000E+03  0.00000000000E+00 0. -1.
         23    2    1    2    0    0  0.16023015015E+02 -0.36449451888E+02 -0.13830815686E+03  0.16838045991E+03  0.87392982976E+02 0.  0.
        -11    1    1    2    0    0  0.48110106544E+02 -0.75593004216E+02  0.46854984703E+03  0.47704071503E+03  0.00000000000E+00 0. -1.
         11    1    1    2    0    0 -0.64133121559E+02  0.11204245610E+03 -0.33024169018E+03  0.35457882506E+03  0.00000000000E+00 0. -1.
        -15    1    3    3    0    0 -0.19333819516E+02 -0.21339202170E+02 -0.12400625549E+03  0.12731797696E+03  0.17770000000E+01 0. -1.
         15    1    3    3    0    0  0.35356834532E+02 -0.15110249718E+02 -0.14301901364E+02  0.41062482953E+02  0.17770000000E+01 0.  1.
</event>
<event>
 7    1  0.5285153E-006  0.3675496E+03  0.7546771E-02  0.9757461E-01
        -11   -1    0    0    0    0  0.00000000000E+00  0.00000000000E+00  0.50000000000E+03  0.50000000000E+03  0.00000000000E+00 0.  1.
         11   -1    0    0    0    0 -0.00000000000E+00 -0.00000000000E+00 -0.50000000000E+03  0.50000000000E+03  0.00000000000E+00 0. -1.
         23    2    1    2    0    0 -0.21320160297E+02 -0.67144063045E+02 -0.34249604145E+03  0.36156386152E+03  0.91989201061E+02 0.  0.
        -11    1    1    2    0    0  0.63854491915E+02 -0.16686299298E+03  0.35798361505E+03  0.40009114362E+03  0.00000000000E+00 0.  1.
         11    1    1    2    0    0 -0.42534331618E+02  0.23400705603E+03 -0.15487573595E+02  0.23834499485E+03  0.00000000000E+00 0. -1.
        -15    1    3    3    0    0 -0.50167839722E+02 -0.70428547726E+02 -0.24477600359E+03  0.25960632146E+03  0.17770000000E+01 0.  1.
         15    1    3    3    0    0  0.28847679425E+02  0.32844846807E+01 -0.97720037861E+02  0.10195754007E+03  0.17770000000E+01 0. -1.
</event>
<event>
 7    1  0.5285153E-006  0.5210926E+03  0.7546771E-02  0.9353812E-01
        -11   -1    0    0    0    0  0.00000000000E+00  0.00000000000E+00  0.50000000000E+03  0.50000000000E+03  0.00000000000E+00 0. -1.
         11   -1    0    0    0    0 -0.00000000000E+00 -0.00000000000E+00 -0.50000000000E+03  0.50000000000E+03  0.00000000000E+00 0. -1.
         23    2    1    2    0    0  0.12920041226E+03 -0.39319406422E+02  0.19760031131E+03  0.25798147237E+03  0.96279773620E+02 0.  0.
        -11    1    1    2    0    0  0.80379697339E+02  0.10333504218E+03  0.22822888286E+03  0.26311109756E+03  0.00000000000E+00 0. -1.
         11    1    1    2    0    0 -0.20958010960E+03 -0.64015635759E+02 -0.42582919417E+03  0.47890743007E+03  0.00000000000E+00 0. -1.
        -15    1    3    3    0    0  0.12235195468E+03 -0.14458714212E+02  0.19671489925E+03  0.23211842785E+03  0.17770000000E+01 0. -1.
         15    1    3    3    0    0  0.68484575798E+01 -0.24860692210E+02  0.88541205576E+00  0.25863044521E+02  0.17770000000E+01 0.  1.
</event>
<event>
 7    1  0.5285153E-006  0.4491245E+03  0.7546771E-02  0.9521446E-01
        -11   -1    0    0    0    0  0.00000000000E+00  0.00000000000E+00  0.50000000000E+03  0.50000000000E+03  0.00000000000E+00 0.  1.
         11   -1    0    0    0    0 -0.00000000000E+00 -0.00000000000E+00 -0.50000000000E+03  0.50000000000E+03  0.00000000000E+00 0. -1.
         23    2    1    2    0    0 -0.11990646388E+02 -0.40071374507E+02 -0.18696262097E+02  0.10058326047E+03  0.89543014330E+02 0.  0.
        -11    1    1    2    0    0 -0.68752570181E+02  0.30348347651E+02  0.45217359710E+03  0.45837637376E+03  0.00000000000E+00 0.  1.
         11    1    1    2    0    0  0.80743216569E+02  0.97230268558E+01 -0.43347733500E+03  0.44104036576E+03  0.00000000000E+00 0. -1.
        -15    1    3    3    0    0  0.42840805543E+01 -0.46774422895E+02 -0.47471545284E+02  0.66804979785E+02  0.17770000000E+01 0.  1.
         15    1    3    3    0    0 -0.16274726943E+02  0.67030483887E+01  0.28775283187E+02  0.33778280688E+02  0.17770000000E+01 0. -1.
</event>
<event>
 7    1  0.5285153E-006  0.4417062E+03  0.7546771E-02  0.9540614E-01
        -11   -1    0    0    0    0  0.00000000000E+00  0.00000000000E+00  0.50000000000E+03  0.50000000000E+03  0.00000000000E+00 0.  1.
         11   -1    0    0    0    0 -0.00000000000E+00 -0.00000000000E+00 -0.50000000000E+03  0.50000000000E+03  0.00000000000E+00 0. -1.
         23    2    1    2    0    0 -0.10607368921E+03  0.12003759868E+03 -0.37312132985E+03  0.41417643055E+03  0.81620684833E+02 0.  0.
        -11    1    1    2    0    0  0.11469731005E+03 -0.36327126801E+02  0.45365874665E+03  0.46934144446E+03  0.00000000000E+00 0.  1.
         11    1    1    2    0    0 -0.86236208443E+01 -0.83710471876E+02 -0.80537416797E+02  0.11648212499E+03  0.00000000000E+00 0. -1.
        -15    1    3    3    0    0 -0.29706299607E+02  0.94280644697E+02 -0.21747052376E+03  0.23888886670E+03  0.17770000000E+01 0. -1.
         15    1    3    3    0    0 -0.76367389601E+02  0.25756953979E+02 -0.15565080609E+03  0.17528756384E+03  0.17770000000E+01 0.  1.
</event>
<event>
 7    1  0.1323750E-005  0.4143036E+03  0.7546771E-02  0.9615057E-01
        -11   -1    0    0    0    0  0.00000000000E+00  0.00000000000E+00  0.50000000000E+03  0.50000000000E+03  0.00000000000E+00 0. -1.
         11   -1    0    0    0    0 -0.00000000000E+00 -0.00000000000E+00 -0.50000000000E+03  0.50000000000E+03  0.00000000000E+00 0. -1.
         23    2    1    2    0    0  0.11514529087E+03 -0.12603213306E+01 -0.77188382924E+00  0.16342921596E+03  0.11596760930E+03 0.  0.
        -11    1    1    2    0    0 -0.47843650635E+02  0.49007719379E+02  0.41174133360E+03  0.41739872695E+03  0.00000000000E+00 0. -1.
         11    1    1    2    0    0 -0.67301640235E+02 -0.47747398048E+02 -0.41096944977E+03  0.41917205709E+03  0.00000000000E+00 0. -1.
        -15    1    3    3    0    0  0.28505168060E+02 -0.61402903964E+01  0.53575584499E+02  0.61022526625E+02  0.17770000000E+01 0.  1.
         15    1    3    3    0    0  0.86640122811E+02  0.48799690658E+01 -0.54347468328E+02  0.10240668934E+03  0.17770000000E+01 0. -1.
</event>
<event>
 7    1  0.5285153E-006  0.3610092E+03  0.7546771E-02  0.9779185E-01
        -11   -1    0    0    0    0  0.00000000000E+00  0.00000000000E+00  0.50000000000E+03  0.50000000000E+03  0.00000000000E+00 0.  1.
         11   -1    0    0    0    0 -0.00000000000E+00 -0.00000000000E+00 -0.50000000000E+03  0.50000000000E+03  0.00000000000E+00 0. -1.
         23    2    1    2    0    0  0.69904014864E+02 -0.19879952619E+03  0.80555144417E+02  0.24355596997E+03  0.91774486159E+02 0.  0.
        -11    1    1    2    0    0 -0.28056853006E+03 -0.12218842793E+03  0.11331883155E+03  0.32632785594E+03  0.00000000000E+00 0.  1.
         11    1    1    2    0    0  0.21066451520E+03  0.32098795412E+03 -0.19387397596E+03  0.43011617409E+03  0.00000000000E+00 0. -1.
        -15    1    3    3    0    0  0.24410050393E+02 -0.13291851142E+03  0.78299673154E+01  0.13537964158E+03  0.17770000000E+01 0.  1.
         15    1    3    3    0    0  0.45493964471E+02 -0.65881014772E+02  0.72725177101E+02  0.10817632839E+03  0.17770000000E+01 0. -1.
</event>
<event>
 7    1  0.5285153E-006  0.5348299E+03  0.7546771E-02  0.9325080E-01
        -11   -1    0    0    0    0  0.00000000000E+00  0.00000000000E+00  0.50000000000E+03  0.50000000000E+03  0.00000000000E+00 0.  1.
         11   -1    0    0    0    0 -0.00000000000E+00 -0.00000000000E+00 -0.50000000000E+03  0.50000000000E+03  0.00000000000E+00 0. -1.
         23    2    1    2    0    0  0.11034191178E+03  0.30096452156E+02  0.13175461006E+03  0.19829376450E+03  0.94233782900E+02 0.  0.
        -11    1    1    2    0    0  0.31666697779E+02 -0.17068176714E+03  0.28830798799E+03  0.33653609215E+03  0.00000000000E+00 0.  1.
         11    1    1    2    0    0 -0.14200860956E+03  0.14058531498E+03 -0.42006259806E+03  0.46517014335E+03  0.00000000000E+00 0. -1.
        -15    1    3    3    0    0  0.10733526829E+03  0.41156757621E+02  0.14207702702E+03  0.18276700428E+03  0.17770000000E+01 0.  1.
         15    1    3    3    0    0  0.30066434815E+01 -0.11060305465E+02 -0.10322416959E+02  0.15526760218E+02  0.17770000000E+01 0. -1.
</event>
<event>
 7    1  0.5285153E-006  0.5225480E+03  0.7546771E-02  0.9350724E-01
        -11   -1    0    0    0    0  0.00000000000E+00  0.00000000000E+00  0.50000000000E+03  0.50000000000E+03  0.00000000000E+00 0.  1.
         11   -1    0    0    0    0 -0.00000000000E+00 -0.00000000000E+00 -0.50000000000E+03  0.50000000000E+03  0.00000000000E+00 0.  1.
         23    2    1    2    0    0 -0.60169072991E+02 -0.16919411060E+01 -0.26577034672E+03  0.28699321970E+03  0.90044716379E+02 0.  0.
        -11    1    1    2    0    0 -0.93641546747E+01 -0.99227094171E+02  0.46693330038E+03  0.47745199823E+03  0.00000000000E+00 0.  1.
         11    1    1    2    0    0  0.69533227665E+02  0.10091903528E+03 -0.20116295366E+03  0.23555478207E+03  0.00000000000E+00 0.  1.
        -15    1    3    3    0    0 -0.78288911849E+02  0.57044578353E+01 -0.24923594032E+03  0.26131093784E+03  0.17770000000E+01 0.  1.
         15    1    3    3    0    0  0.18119838858E+02 -0.73963989413E+01 -0.16534406401E+02  0.25682281861E+02  0.17770000000E+01 0. -1.
</event>
<event>
 7    1  0.5285153E-006  0.4895936E+03  0.7546771E-02  0.9423401E-01
        -11   -1    0    0    0    0  0.00000000000E+00  0.00000000000E+00  0.50000000000E+03  0.50000000000E+03  0.00000000000E+00 0. -1.
         11   -1    0    0    0    0 -0.00000000000E+00 -0.00000000000E+00 -0.50000000000E+03  0.50000000000E+03  0.00000000000E+00 0. -1.
         23    2    1    2    0    0  0.59386072763E+02  0.91077235920E+02 -0.47326089401E+03  0.49429656257E+03  0.92365845582E+02 0.  0.
        -11    1    1    2    0    0 -0.81496560030E+02 -0.10264266944E+03  0.45815976926E+03  0.47653707207E+03  0.00000000000E+00 0. -1.
         11    1    1    2    0    0  0.22110487267E+02  0.11565433518E+02  0.15101124747E+02  0.29166365359E+02  0.00000000000E+00 0. -1.
        -15    1    3    3    0    0  0.15179665430E+02 -0.16902414447E+02 -0.45256045792E+02  0.50669332603E+02  0.17770000000E+01 0.  1.
         15    1    3    3    0    0  0.44206407333E+02  0.10797965037E+03 -0.42800484822E+03  0.44362722997E+03  0.17770000000E+01 0. -1.
</event>
<event>
 7    1  0.5285153E-006  0.4599086E+03  0.7546771E-02  0.9494275E-01
        -11   -1    0    0    0    0  0.00000000000E+00  0.00000000000E+00  0.50000000000E+03  0.50000000000E+03  0.00000000000E+00 0. -1.
         11   -1    0    0    0    0 -0.00000000000E+00 -0.00000000000E+00 -0.50000000000E+03  0.50000000000E+03  0.00000000000E+00 0.  1.
         23    2    1    2    0    0  0.41163898944E+02 -0.18491748634E+03 -0.40974421685E+03  0.46059137891E+03  0.91461203509E+02 0.  0.
        -11    1    1    2    0    0 -0.41109886312E+01  0.11397970064E+03  0.43947446603E+03  0.45403312509E+03  0.00000000000E+00 0. -1.
         11    1    1    2    0    0 -0.37052910312E+02  0.70937785695E+02 -0.29730249177E+02  0.85375496005E+02  0.00000000000E+00 0.  1.
        -15    1    3    3    0    0  0.22960909226E+02 -0.16877378869E+03 -0.39918543970E+03  0.43400917975E+03  0.17770000000E+01 0.  1.
         15    1    3    3    0    0  0.18202989718E+02 -0.16143697644E+02 -0.10558777149E+02  0.26582199160E+02  0.17770000000E+01 0. -1.
</event>
<event>
 7    1  0.5285153E-006  0.5261857E+03  0.7546771E-02  0.9343051E-01
        -11   -1    0    0    0    0  0.00000000000E+00  0.00000000000E+00  0.50000000000E+03  0.50000000000E+03  0.00000000000E+00 0.  1.
         11   -1    0    0    0    0 -0.00000000000E+00 -0.00000000000E+00 -0.50000000000E+03  0.50000000000E+03  0.00000000000E+00 0. -1.
         23    2    1    2    0    0 -0.62877323029E+02 -0.20232529169E+02 -0.35079854201E+03  0.36906235440E+03  0.93725617486E+02 0.  0.
        -11    1    1    2    0    0 -0.19538641126E+02  0.90382591733E+02  0.46470339352E+03  0.47381432580E+03  0.00000000000E+00 0.  1.
         11    1    1    2    0    0  0.82415964155E+02 -0.70150062563E+02 -0.11390485151E+03  0.15712331980E+03  0.00000000000E+00 0. -1.
        -15    1    3    3    0    0  0.10349996087E+02 -0.33902243909E+02 -0.16708157269E+03  0.17080952615E+03  0.17770000000E+01 0.  1.
         15    1    3    3    0    0 -0.73227319117E+02  0.13669714740E+02 -0.18371696931E+03  0.19825282825E+03  0.17770000000E+01 0. -1.
</event>
<event>
 7    1  0.5285153E-006  0.5070600E+03  0.7546771E-02  0.9384149E-01
        -11   -1    0    0    0    0  0.00000000000E+00  0.00000000000E+00  0.50000000000E+03  0.50000000000E+03  0.00000000000E+00 0.  1.
         11   -1    0    0    0    0 -0.00000000000E+00 -0.00000000000E+00 -0.50000000000E+03  0.50000000000E+03  0.00000000000E+00 0. -1.
         23    2    1    2    0    0 -0.10235128073E+03 -0.63479222832E+02  0.31448265609E+03  0.34980428829E+03  0.94648310751E+02 0.  0.
        -11    1    1    2    0    0 -0.64575994825E+02 -0.40788552518E+02  0.13746128416E+03  0.15725574637E+03  0.00000000000E+00 0.  1.
         11    1    1    2    0    0  0.16692727555E+03  0.10426777535E+03 -0.45194394025E+03  0.49293996534E+03  0.00000000000E+00 0. -1.
        -15    1    3    3    0    0 -0.22500282502E+02 -0.37591652167E+02  0.29841835173E+02  0.53038550893E+02  0.17770000000E+01 0.  1.
         15    1    3    3    0    0 -0.79850998226E+02 -0.25887570665E+02  0.28464082091E+03  0.29676573739E+03  0.17770000000E+01 0. -1.
</event>
<event>
 7    1  0.5285153E-006  0.4339251E+03  0.7546771E-02  0.9561154E-01
        -11   -1    0    0    0    0  0.00000000000E+00  0.00000000000E+00  0.50000000000E+03  0.50000000000E+03  0.00000000000E+00 0.  1.
         11   -1    0    0    0    0 -0.00000000000E+00 -0.00000000000E+00 -0.50000000000E+03  0.50000000000E+03  0.00000000000E+00 0. -1.
         23    2    1    2    0    0  0.16981271051E+02  0.45356157055E+02 -0.73250328540E+02  0.12771834336E+03  0.92740606259E+02 0.  0.
        -11    1    1    2    0    0  0.92149021643E+02  0.21288264997E+03  0.38720448703E+03  0.45137321545E+03  0.00000000000E+00 0.  1.
         11    1    1    2    0    0 -0.10913029269E+03 -0.25823880702E+03 -0.31395415849E+03  0.42090844120E+03  0.00000000000E+00 0. -1.
        -15    1    3    3    0    0  0.35292049512E+02  0.35168066749E+02  0.16900919706E+01  0.49883221803E+02  0.17770000000E+01 0.  1.
         15    1    3    3    0    0 -0.18310778461E+02  0.10188090306E+02 -0.74940420510E+02  0.77835121553E+02  0.17770000000E+01 0. -1.
</event>
<event>
 7    1  0.5285153E-006  0.5181366E+03  0.7546771E-02  0.9360118E-01
        -11   -1    0    0    0    0  0.00000000000E+00  0.00000000000E+00  0.50000000000E+03  0.50000000000E+03  0.00000000000E+00 0.  1.
         11   -1    0    0    0    0 -0.00000000000E+00 -0.00000000000E+00 -0.50000000000E+03  0.50000000000E+03  0.00000000000E+00 0. -1.
         23    2    1    2    0    0 -0.51204050274E+02 -0.86295969357E+02 -0.39938878495E+03  0.42194085343E+03  0.91944728836E+02 0.  0.
        -11    1    1    2    0    0  0.75754337413E+02  0.31858008788E+02  0.47480378849E+03  0.48186335192E+03  0.00000000000E+00 0.  1.
         11    1    1    2    0    0 -0.24550287139E+02  0.54437960570E+02 -0.75415003538E+02  0.96195794649E+02  0.00000000000E+00 0. -1.
        -15    1    3    3    0    0 -0.61849430039E+02 -0.99998761472E+02 -0.32768912417E+03  0.34815000233E+03  0.17770000000E+01 0. -1.
         15    1    3    3    0    0  0.10645379765E+02  0.13702792114E+02 -0.71699660778E+02  0.73790851105E+02  0.17770000000E+01 0.  1.
</event>
<event>
 7    1  0.5285153E-006  0.5318829E+03  0.7546771E-02  0.9331166E-01
        -11   -1    0    0    0    0  0.00000000000E+00  0.00000000000E+00  0.50000000000E+03  0.50000000000E+03  0.00000000000E+00 0.  1.
         11   -1    0    0    0    0 -0.00000000000E+00 -0.00000000000E+00 -0.50000000000E+03  0.50000000000E+03  0.00000000000E+00 0. -1.
         23    2    1    2    0    0  0.23913005999E+02  0.44071116168E+02 -0.20816919328E+03  0.23269083541E+03  0.91085216798E+02 0.  0.
        -11    1    1    2    0    0  0.76618950727E+02  0.98666486446E+02  0.45114082809E+03  0.46811706434E+03  0.00000000000E+00 0.  1.
         11    1    1    2    0    0 -0.10053195673E+03 -0.14273760261E+03 -0.24297163481E+03  0.29919210024E+03  0.00000000000E+00 0. -1.
        -15    1    3    3    0    0  0.54921868598E+02  0.30163392022E+02 -0.89713892644E+02  0.10944396800E+03  0.17770000000E+01 0.  1.
         15    1    3    3    0    0 -0.31008862600E+02  0.13907724147E+02 -0.11845530063E+03  0.12324686742E+03  0.17770000000E+01 0. -1.
</event>
<event>
 7    1  0.5285153E-006  0.5180955E+03  0.7546771E-02  0.9360206E-01
        -11   -1    0    0    0    0  0.00000000000E+00  0.00000000000E+00  0.50000000000E+03  0.50000000000E+03  0.00000000000E+00 0.  1.
         11   -1    0    0    0    0 -0.00000000000E+00 -0.00000000000E+00 -0.50000000000E+03  0.50000000000E+03  0.00000000000E+00 0. -1.
         23    2    1    2    0    0  0.11820973014E+02 -0.79440341749E+02  0.38221979522E+03  0.40115586829E+03  0.91561757877E+02 0.  0.
        -11    1    1    2    0    0 -0.60166179844E+02 -0.67449503124E+02  0.74198913047E+02  0.11693965694E+03  0.00000000000E+00 0.  1.
         11    1    1    2    0    0  0.48345206830E+02  0.14688984487E+03 -0.45641870826E+03  0.48190447477E+03  0.00000000000E+00 0. -1.
        -15    1    3    3    0    0  0.41137451371E+02 -0.82260457654E+02  0.27684999301E+03  0.29173301006E+03  0.17770000000E+01 0.  1.
         15    1    3    3    0    0 -0.29316478358E+02  0.28201159047E+01  0.10536980221E+03  0.10942285823E+03  0.17770000000E+01 0. -1.
</event>
<event>
 7    1  0.5285153E-006  0.4027674E+03  0.7546771E-02  0.9648259E-01
        -11   -1    0    0    0    0  0.00000000000E+00  0.00000000000E+00  0.50000000000E+03  0.50000000000E+03  0.00000000000E+00 0. -1.
         11   -1    0    0    0    0 -0.00000000000E+00 -0.00000000000E+00 -0.50000000000E+03  0.50000000000E+03  0.00000000000E+00 0. -1.
         23    2    1    2    0    0 -0.46120663410E+02  0.30755952765E+02 -0.33930802667E+03  0.35556804411E+03  0.90695384728E+02 0.  0.
        -11    1    1    2    0    0  0.15771239651E+03  0.88571806769E+02  0.42359233995E+03  0.46059595681E+03  0.00000000000E+00 0. -1.
         11    1    1    2    0    0 -0.11159173310E+03 -0.11932775953E+03 -0.84284313280E+02  0.18383599908E+03  0.00000000000E+00 0. -1.
        -15    1    3    3    0    0 -0.59854027195E+02  0.25123798756E+02 -0.33311702353E+03  0.33938741716E+03  0.17770000000E+01 0. -1.
         15    1    3    3    0    0  0.13733363785E+02  0.56321540091E+01 -0.61910031368E+01  0.16180626950E+02  0.17770000000E+01 0.  1.
</event>
<event>
 7    1  0.5285153E-006  0.5146317E+03  0.7546771E-02  0.9367652E-01
        -11   -1    0    0    0    0  0.00000000000E+00  0.00000000000E+00  0.50000000000E+03  0.50000000000E+03  0.00000000000E+00 0. -1.
         11   -1    0    0    0    0 -0.00000000000E+00 -0.00000000000E+00 -0.50000000000E+03  0.50000000000E+03  0.00000000000E+00 0.  1.
         23    2    1    2    0    0 -0.22665261118E+03 -0.19819812500E+02  0.21075813828E+03  0.32113874044E+03  0.83347865236E+02 0.  0.
        -11    1    1    2    0    0 -0.51269600819E+02 -0.32848738820E+02  0.18366250832E+03  0.19349296776E+03  0.00000000000E+00 0. -1.
         11    1    1    2    0    0  0.27792221200E+03  0.52668551320E+02 -0.39442064660E+03  0.48536829180E+03  0.00000000000E+00 0.  1.
        -15    1    3    3    0    0 -0.23249524102E+02 -0.23937194861E+02  0.57179708648E+02  0.66228441616E+02  0.17770000000E+01 0.  1.
         15    1    3    3    0    0 -0.20340308708E+03  0.41173823608E+01  0.15357842963E+03  0.25491029882E+03  0.17770000000E+01 0. -1.
</event>
<event>
 7    1  0.5285153E-006  0.4123552E+03  0.7546771E-02  0.9620583E-01
        -11   -1    0    0    0    0  0.00000000000E+00  0.00000000000E+00  0.50000000000E+03  0.50000000000E+03  0.00000000000E+00 0. -1.
         11   -1    0    0    0    0 -0.00000000000E+00 -0.00000000000E+00 -0.50000000000E+03  0.50000000000E+03  0.00000000000E+00 0. -1.
         23    2    1    2    0    0  0.13011182301E+03 -0.38048584985E+02 -0.29205290438E+02  0.16371229071E+03  0.87017146788E+02 0.  0.
        -11    1    1    2    0    0 -0.44069970415E+02  0.64049904240E+02  0.42416386048E+03  0.43123025527E+03  0.00000000000E+00 0. -1.
         11    1    1    2    0    0 -0.86041852595E+02 -0.26001319256E+02 -0.39495857004E+03  0.40505745401E+03  0.00000000000E+00 0. -1.
        -15    1    3    3    0    0  0.11058153701E+03 -0.64507559912E+02 -0.20687759617E+02  0.12969442062E+03  0.17770000000E+01 0.  1.
         15    1    3    3    0    0  0.19530286001E+02  0.26458974927E+02 -0.85175308202E+01  0.34017870094E+02  0.17770000000E+01 0. -1.
</event>
<event>
 7    1  0.5285153E-006  0.5373399E+03  0.7546771E-02  0.9319929E-01
        -11   -1    0    0    0    0  0.00000000000E+00  0.00000000000E+00  0.50000000000E+03  0.50000000000E+03  0.00000000000E+00 0.  1.
         11   -1    0    0    0    0 -0.00000000000E+00 -0.00000000000E+00 -0.50000000000E+03  0.50000000000E+03  0.00000000000E+00 0. -1.
         23    2    1    2    0    0 -0.31700888781E+02  0.84918267286E+02  0.68307875818E+02  0.14701017506E+03  0.93434293516E+02 0.  0.
        -11    1    1    2    0    0 -0.70949070491E+02 -0.45622482447E+02  0.38110641835E+03  0.39032971141E+03  0.00000000000E+00 0.  1.
         11    1    1    2    0    0  0.10264995927E+03 -0.39295784839E+02 -0.44941429416E+03  0.46266011352E+03  0.00000000000E+00 0. -1.
        -15    1    3    3    0    0 -0.52915361572E+02  0.63403150153E+02  0.12527281425E+02  0.83546905679E+02  0.17770000000E+01 0. -1.
         15    1    3    3    0    0  0.21214472791E+02  0.21515117133E+02  0.55780594393E+02  0.63463269384E+02  0.17770000000E+01 0.  1.
</event>
<event>
 7    1  0.5285153E-006  0.3112821E+03  0.7546771E-02  0.9962342E-01
        -11   -1    0    0    0    0  0.00000000000E+00  0.00000000000E+00  0.50000000000E+03  0.50000000000E+03  0.00000000000E+00 0.  1.
         11   -1    0    0    0    0 -0.00000000000E+00 -0.00000000000E+00 -0.50000000000E+03  0.50000000000E+03  0.00000000000E+00 0. -1.
         23    2    1    2    0    0 -0.25810162648E+03  0.38673606962E+02 -0.15994570775E+03  0.31873759381E+03  0.88875906845E+02 0.  0.
        -11    1    1    2    0    0 -0.81347605522E+02 -0.51717016086E+02  0.29903702335E+03  0.31418978980E+03  0.00000000000E+00 0.  1.
         11    1    1    2    0    0  0.33944923200E+03  0.13043409124E+02 -0.13909131561E+03  0.36707261639E+03  0.00000000000E+00 0. -1.
        -15    1    3    3    0    0 -0.15580294071E+03  0.57226447402E+02 -0.12907651985E+03  0.21026965620E+03  0.17770000000E+01 0.  1.
         15    1    3    3    0    0 -0.10229868577E+03 -0.18552840440E+02 -0.30869187899E+02  0.10846793761E+03  0.17770000000E+01 0. -1.
</event>
<event>
 7    1  0.5285153E-006  0.5207888E+03  0.7546771E-02  0.9354458E-01
        -11   -1    0    0    0    0  0.00000000000E+00  0.00000000000E+00  0.50000000000E+03  0.50000000000E+03  0.00000000000E+00 0. -1.
         11   -1    0    0    0    0 -0.00000000000E+00 -0.00000000000E+00 -0.50000000000E+03  0.50000000000E+03  0.00000000000E+00 0. -1.
         23    2    1    2    0    0 -0.59218100290E+02  0.15886901971E+01 -0.18585610265E+03  0.21495169832E+03  0.90290832213E+02 0.  0.
        -11    1    1    2    0    0  0.27522150862E+02 -0.13628824872E+03  0.45859723486E+03  0.47921120537E+03  0.00000000000E+00 0. -1.
         11    1    1    2    0    0  0.31695949427E+02  0.13469955853E+03 -0.27274113222E+03  0.30583709631E+03  0.00000000000E+00 0. -1.
        -15    1    3    3    0    0  0.24284777914E+02 -0.16233800871E+01 -0.41421888761E+02  0.48076152079E+02  0.17770000000E+01 0. -1.
         15    1    3    3    0    0 -0.83502878204E+02  0.32120702842E+01 -0.14443421389E+03  0.16687554624E+03  0.17770000000E+01 0.  1.
</event>
<event>
 7    1  0.5285153E-006  0.5231501E+03  0.7546771E-02  0.9349449E-01
        -11   -1    0    0    0    0  0.00000000000E+00  0.00000000000E+00  0.50000000000E+03  0.50000000000E+03  0.00000000000E+00 0.  1.
         11   -1    0    0    0    0 -0.00000000000E+00 -0.00000000000E+00 -0.50000000000E+03  0.50000000000E+03  0.00000000000E+00 0. -1.
         23    2    1    2    0    0  0.50301298633E+02 -0.19651527679E+02 -0.18706477282E+03  0.21457488356E+03  0.90181751145E+02 0.  0.
        -11    1    1    2    0    0 -0.41224903421E+02 -0.12939965213E+03  0.45710183427E+03  0.47684992348E+03  0.00000000000E+00 0.  1.
         11    1    1    2    0    0 -0.90763952128E+01  0.14905117980E+03 -0.27003706145E+03  0.30857519296E+03  0.00000000000E+00 0. -1.
        -15    1    3    3    0    0 -0.22350760461E+02  0.41964157301E+01 -0.18151593081E+02  0.29151405773E+02  0.17770000000E+01 0.  1.
         15    1    3    3    0    0  0.72652059094E+02 -0.23847943409E+02 -0.16891317974E+03  0.18542347779E+03  0.17770000000E+01 0. -1.
</event>
<event>
 7    1  0.5285153E-006  0.3680822E+03  0.7546771E-02  0.9755713E-01
        -11   -1    0    0    0    0  0.00000000000E+00  0.00000000000E+00  0.50000000000E+03  0.50000000000E+03  0.00000000000E+00 0.  1.
         11   -1    0    0    0    0 -0.00000000000E+00 -0.00000000000E+00 -0.50000000000E+03  0.50000000000E+03  0.00000000000E+00 0.  1.
         23    2    1    2    0    0 -0.19915111465E+03 -0.71713762397E+02 -0.28503869158E+03  0.36630771544E+03  0.90167935061E+02 0.  0.
        -11    1    1    2    0    0 -0.93712455511E+01  0.14963444652E+03  0.36702688762E+03  0.39646818796E+03  0.00000000000E+00 0.  1.
         11    1    1    2    0    0  0.20852236020E+03 -0.77920684120E+02 -0.81988196043E+02  0.23722409660E+03  0.00000000000E+00 0.  1.
        -15    1    3    3    0    0 -0.81507350424E+01  0.11857022663E+02 -0.50302405704E+02  0.52349911335E+02  0.17770000000E+01 0.  1.
         15    1    3    3    0    0 -0.19100037960E+03 -0.83570785060E+02 -0.23473628588E+03  0.31395780411E+03  0.17770000000E+01 0. -1.
</event>
<event>
 7    1  0.5285153E-006  0.3733295E+03  0.7546771E-02  0.9738662E-01
        -11   -1    0    0    0    0  0.00000000000E+00  0.00000000000E+00  0.50000000000E+03  0.50000000000E+03  0.00000000000E+00 0.  1.
         11   -1    0    0    0    0 -0.00000000000E+00 -0.00000000000E+00 -0.50000000000E+03  0.50000000000E+03  0.00000000000E+00 0.  1.
         23    2    1    2    0    0 -0.76127001271E+02  0.68643703575E+02 -0.35063527040E+03  0.37727060682E+03  0.94237675902E+02 0.  0.
        -11    1    1    2    0    0 -0.18937238311E+03  0.80677732754E+02  0.10306841183E+03  0.23020402595E+03  0.00000000000E+00 0.  1.
         11    1    1    2    0    0  0.26549938438E+03 -0.14932143633E+03  0.24756685857E+03  0.39252536722E+03  0.00000000000E+00 0.  1.
        -15    1    3    3    0    0 -0.52879537627E+02  0.69325908429E+02 -0.34109934768E+03  0.35207137032E+03  0.17770000000E+01 0.  1.
         15    1    3    3    0    0 -0.23247463644E+02 -0.68220485379E+00 -0.95359227203E+01  0.25199236505E+02  0.17770000000E+01 0.  1.
</event>
<event>
 7    1  0.5285153E-006  0.3881331E+03  0.7546771E-02  0.9692128E-01
        -11   -1    0    0    0    0  0.00000000000E+00  0.00000000000E+00  0.50000000000E+03  0.50000000000E+03  0.00000000000E+00 0. -1.
         11   -1    0    0    0    0 -0.00000000000E+00 -0.00000000000E+00 -0.50000000000E+03  0.50000000000E+03  0.00000000000E+00 0. -1.
         23    2    1    2    0    0  0.28754629982E+03  0.57971136356E+02 -0.32960703843E+03  0.45075554463E+03  0.92175018489E+02 0.  0.
        -11    1    1    2    0    0  0.28959918062E+02 -0.39100121978E+02  0.20147097644E+03  0.20726324021E+03  0.00000000000E+00 0. -1.
         11    1    1    2    0    0 -0.31650621789E+03 -0.18871014379E+02  0.12813606199E+03  0.34198121517E+03  0.00000000000E+00 0. -1.
        -15    1    3    3    0    0  0.22850628088E+03  0.74113332955E+02 -0.29492221889E+03  0.38038162344E+03  0.17770000000E+01 0. -1.
         15    1    3    3    0    0  0.59040018945E+02 -0.16142196599E+02 -0.34684819542E+02  0.70373921190E+02  0.17770000000E+01 0.  1.
</event>
<event>
 7    1  0.5285153E-006  0.3233784E+03  0.7546771E-02  0.9914562E-01
        -11   -1    0    0    0    0  0.00000000000E+00  0.00000000000E+00  0.50000000000E+03  0.50000000000E+03  0.00000000000E+00 0.  1.
         11   -1    0    0    0    0 -0.00000000000E+00 -0.00000000000E+00 -0.50000000000E+03  0.50000000000E+03  0.00000000000E+00 0.  1.
         23    2    1    2    0    0 -0.17434121030E+03  0.15783461394E+03 -0.27853594395E+03  0.37358595255E+03  0.81716393104E+02 0.  0.
        -11    1    1    2    0    0 -0.50497477327E+02  0.31890203997E+02  0.32335937602E+03  0.32882862768E+03  0.00000000000E+00 0.  1.
         11    1    1    2    0    0  0.22483868763E+03 -0.18972481794E+03 -0.44823432066E+02  0.29758541977E+03  0.00000000000E+00 0.  1.
        -15    1    3    3    0    0 -0.15098290749E+03  0.87031607656E+02 -0.18996049755E+03  0.25779543721E+03  0.17770000000E+01 0.  1.
         15    1    3    3    0    0 -0.23358302809E+02  0.70803006283E+02 -0.88575446401E+02  0.11579051534E+03  0.17770000000E+01 0. -1.
</event>
<event>
 7    1  0.5285153E-006  0.5112723E+03  0.7546771E-02  0.9374934E-01
        -11   -1    0    0    0    0  0.00000000000E+00  0.00000000000E+00  0.50000000000E+03  0.50000000000E+03  0.00000000000E+00 0. -1.
         11   -1    0    0    0    0 -0.00000000000E+00 -0.00000000000E+00 -0.50000000000E+03  0.50000000000E+03  0.00000000000E+00 0.  1.
         23    2    1    2    0    0  0.12537025502E+03 -0.43480525899E+02 -0.27248295749E+03  0.31652433663E+03  0.91282181075E+02 0.  0.
        -11    1    1    2    0    0 -0.23191372974E+03  0.22151853305E+01  0.43019287325E+03  0.48872772919E+03  0.00000000000E+00 0. -1.
         11    1    1    2    0    0  0.10654347472E+03  0.41265340569E+02 -0.15770991576E+03  0.19474793418E+03  0.00000000000E+00 0.  1.
        -15    1    3    3    0    0  0.11633212430E+03 -0.65502207413E+02 -0.20225879107E+03  0.24235403569E+03  0.17770000000E+01 0. -1.
         15    1    3    3    0    0  0.90381307133E+01  0.22021681513E+02 -0.70224166416E+02  0.74170300938E+02  0.17770000000E+01 0.  1.
</event>
<event>
 7    1  0.5285153E-006  0.3823286E+03  0.7546771E-02  0.9710105E-01
        -11   -1    0    0    0    0  0.00000000000E+00  0.00000000000E+00  0.50000000000E+03  0.50000000000E+03  0.00000000000E+00 0. -1.
         11   -1    0    0    0    0 -0.00000000000E+00 -0.00000000000E+00 -0.50000000000E+03  0.50000000000E+03  0.00000000000E+00 0.  1.
         23    2    1    2    0    0  0.18314366398E+03  0.27951913875E+02  0.47272587847E+02  0.21180053881E+03  0.91114540738E+02 0.  0.
        -11    1    1    2    0    0 -0.90968206934E+02 -0.10724512229E+03  0.34763246388E+03  0.37500008116E+03  0.00000000000E+00 0. -1.
         11    1    1    2    0    0 -0.92175457046E+02  0.79293208413E+02 -0.39490505172E+03  0.41319938003E+03  0.00000000000E+00 0.  1.
        -15    1    3    3    0    0  0.32185523844E+01  0.20566849493E+02  0.21327325868E+02  0.29855768876E+02  0.17770000000E+01 0.  1.
         15    1    3    3    0    0  0.17992511160E+03  0.73850643826E+01  0.25945261979E+02  0.18194476994E+03  0.17770000000E+01 0. -1.
</event>
<event>
 7    1  0.5285153E-006  0.5163868E+03  0.7546771E-02  0.9363872E-01
        -11   -1    0    0    0    0  0.00000000000E+00  0.00000000000E+00  0.50000000000E+03  0.50000000000E+03  0.00000000000E+00 0. -1.
         11   -1    0    0    0    0 -0.00000000000E+00 -0.00000000000E+00 -0.50000000000E+03  0.50000000000E+03  0.00000000000E+00 0.  1.
         23    2    1    2    0    0 -0.13337574552E+01 -0.12645593506E+02  0.19582737373E+03  0.21791876159E+03  0.94755139201E+02 0.  0.
        -11    1    1    2    0    0  0.11477089304E+03  0.28712507552E+02  0.27401898318E+03  0.29846803702E+03  0.00000000000E+00 0. -1.
         11    1    1    2    0    0 -0.11343713559E+03 -0.16066914046E+02 -0.46984635691E+03  0.48361320139E+03  0.00000000000E+00 0.  1.
        -15    1    3    3    0    0 -0.29958440938E+02 -0.31817449733E+02  0.43326348536E+02  0.61564506799E+02  0.17770000000E+01 0. -1.
         15    1    3    3    0    0  0.28624683483E+02  0.19171856227E+02  0.15250102519E+03  0.15635425479E+03  0.17770000000E+01 0.  1.
</event>
<event>
 6    1  0.5285153E-006  0.4902366E+03  0.7546771E-02  0.9421925E-01
        -11   -1    0    0    0    0  0.00000000000E+00  0.00000000000E+00  0.50000000000E+03  0.50000000000E+03  0.00000000000E+00 0. -1.
         11   -1    0    0    0    0 -0.00000000000E+00 -0.00000000000E+00 -0.50000000000E+03  0.50000000000E+03  0.00000000000E+00 0. -1.
        -11    1    1    2    0    0  0.31074305394E+02  0.60098884470E+01  0.31860820893E+02  0.44909276579E+02  0.00000000000E+00 0. -1.
         11    1    1    2    0    0  0.14449671568E+03  0.21171034268E+03 -0.39444194814E+03  0.47040941794E+03  0.00000000000E+00 0. -1.
        -15    1    1    2    0    0 -0.15441204040E+01 -0.11223247761E+03  0.86597350736E+02  0.14177719218E+03  0.17770000000E+01 0.  1.
         15    1    1    2    0    0 -0.17402690067E+03 -0.10548775352E+03  0.27598377651E+03  0.34290411331E+03  0.17770000000E+01 0. -1.
</event>
<event>
 7    1  0.5285153E-006  0.5268036E+03  0.7546771E-02  0.9341754E-01
        -11   -1    0    0    0    0  0.00000000000E+00  0.00000000000E+00  0.50000000000E+03  0.50000000000E+03  0.00000000000E+00 0.  1.
         11   -1    0    0    0    0 -0.00000000000E+00 -0.00000000000E+00 -0.50000000000E+03  0.50000000000E+03  0.00000000000E+00 0. -1.
         23    2    1    2    0    0  0.36529031969E+02 -0.66386495656E+02 -0.10902182846E+03  0.16137798760E+03  0.91736354944E+02 0.  0.
        -11    1    1    2    0    0 -0.34275904605E+03  0.14463927394E+03  0.29242185033E+03  0.47319638816E+03  0.00000000000E+00 0.  1.
         11    1    1    2    0    0  0.30623001408E+03 -0.78252778282E+02 -0.18340002187E+03  0.36542562424E+03  0.00000000000E+00 0. -1.
        -15    1    3    3    0    0 -0.88600404722E+01 -0.16176204696E+02  0.12440953510E+02  0.22318265362E+02  0.17770000000E+01 0.  1.
         15    1    3    3    0    0  0.45389072442E+02 -0.50210290960E+02 -0.12146278197E+03  0.13905972224E+03  0.17770000000E+01 0. -1.
</event>
<event>
 7    1  0.5285153E-006  0.4164935E+03  0.7546771E-02  0.9608885E-01
        -11   -1    0    0    0    0  0.00000000000E+00  0.00000000000E+00  0.50000000000E+03  0.50000000000E+03  0.00000000000E+00 0.  1.
         11   -1    0    0    0    0 -0.00000000000E+00 -0.00000000000E+00 -0.50000000000E+03  0.50000000000E+03  0.00000000000E+00 0. -1.
         23    2    1    2    0    0 -0.20079428676E+01 -0.25374148333E+03  0.26490706369E+03  0.37834379258E+03  0.92625594687E+02 0.  0.
        -11    1    1    2    0    0 -0.97588009729E+02  0.31185174338E+02  0.12510417461E+03  0.16170030688E+03  0.00000000000E+00 0.  1.
         11    1    1    2    0    0  0.99595952596E+02  0.22255630899E+03 -0.39001123830E+03  0.45995590054E+03  0.00000000000E+00 0. -1.
        -15    1    3    3    0    0 -0.40675385296E+02 -0.11182441949E+03  0.86545887678E+02  0.14714800769E+03  0.17770000000E+01 0. -1.
         15    1    3    3    0    0  0.38667442429E+02 -0.14191706384E+03  0.17836117601E+03  0.23119578489E+03  0.17770000000E+01 0.  1.
</event>
<event>
 7    1  0.5285153E-006  0.4899563E+03  0.7546771E-02  0.9422568E-01
        -11   -1    0    0    0    0  0.00000000000E+00  0.00000000000E+00  0.50000000000E+03  0.50000000000E+03  0.00000000000E+00 0.  1.
         11   -1    0    0    0    0 -0.00000000000E+00 -0.00000000000E+00 -0.50000000000E+03  0.50000000000E+03  0.00000000000E+00 0. -1.
         23    2    1    2    0    0  0.43503247115E+02 -0.31790021539E+03  0.35234497929E+03  0.48567972456E+03  0.93726895616E+02 0.  0.
        -11    1    1    2    0    0 -0.34657812511E+01  0.14384502991E+02  0.24605078702E+02  0.28711242814E+02  0.00000000000E+00 0.  1.
         11    1    1    2    0    0 -0.40037465864E+02  0.30351571240E+03 -0.37695005800E+03  0.48560903263E+03  0.00000000000E+00 0. -1.
        -15    1    3    3    0    0  0.61577778223E+02 -0.27463637709E+03  0.32994351532E+03  0.43368518931E+03  0.17770000000E+01 0.  1.
         15    1    3    3    0    0 -0.18074531108E+02 -0.43263838299E+02  0.22401463970E+02  0.51994535252E+02  0.17770000000E+01 0. -1.
</event>
<event>
 7    1  0.5285153E-006  0.5393017E+03  0.7546771E-02  0.9315924E-01
        -11   -1    0    0    0    0  0.00000000000E+00  0.00000000000E+00  0.50000000000E+03  0.50000000000E+03  0.00000000000E+00 0.  1.
         11   -1    0    0    0    0 -0.00000000000E+00 -0.00000000000E+00 -0.50000000000E+03  0.50000000000E+03  0.00000000000E+00 0.  1.
         23    2    1    2    0    0 -0.17234995063E+03 -0.47816223086E+02  0.12101395728E+03  0.23492308273E+03  0.92485567908E+02 0.  0.
        -11    1    1    2    0    0  0.17735735139E+02 -0.11024865354E+03  0.28315543257E+03  0.30437858154E+03  0.00000000000E+00 0.  1.
         11    1    1    2    0    0  0.15461421549E+03  0.15806487663E+03 -0.40416938985E+03  0.46069833573E+03  0.00000000000E+00 0.  1.
        -15    1    3    3    0    0 -0.28022107886E+02  0.80523276419E+00  0.68132674741E+02  0.73696038065E+02  0.17770000000E+01 0.  1.
         15    1    3    3    0    0 -0.14432784274E+03 -0.48621455850E+02  0.52881282541E+02  0.16122704467E+03  0.17770000000E+01 0. -1.
</event>
<event>
 7    1  0.5285153E-006  0.4211356E+03  0.7546771E-02  0.9595934E-01
        -11   -1    0    0    0    0  0.00000000000E+00  0.00000000000E+00  0.50000000000E+03  0.50000000000E+03  0.00000000000E+00 0. -1.
         11   -1    0    0    0    0 -0.00000000000E+00 -0.00000000000E+00 -0.50000000000E+03  0.50000000000E+03  0.00000000000E+00 0.  1.
         23    2    1    2    0    0 -0.63541929014E+02 -0.73871519454E+02 -0.66131717822E+02  0.14953609533E+03  0.92157808001E+02 0.  0.
        -11    1    1    2    0    0 -0.75193743888E+02  0.31828057005E+02  0.44102415834E+03  0.44851915519E+03  0.00000000000E+00 0. -1.
         11    1    1    2    0    0  0.13873567290E+03  0.42043462449E+02 -0.37489244052E+03  0.40194474948E+03  0.00000000000E+00 0.  1.
        -15    1    3    3    0    0 -0.67117611921E+02 -0.86708359165E+02 -0.34173732459E+02  0.11486563933E+03  0.17770000000E+01 0. -1.
         15    1    3    3    0    0  0.35756829074E+01  0.12836839711E+02 -0.31957985363E+02  0.34670456003E+02  0.17770000000E+01 0.  1.
</event>
<event>
 7    1  0.5285153E-006  0.3625778E+03  0.7546771E-02  0.9773930E-01
        -11   -1    0    0    0    0  0.00000000000E+00  0.00000000000E+00  0.50000000000E+03  0.50000000000E+03  0.00000000000E+00 0. -1.
         11   -1    0    0    0    0 -0.00000000000E+00 -0.00000000000E+00 -0.50000000000E+03  0.50000000000E+03  0.00000000000E+00 0.  1.
         23    2    1    2    0    0 -0.25016423957E+02 -0.16080103513E+03 -0.35149878420E+03  0.39810003901E+03  0.91920897481E+02 0.  0.
        -11    1    1    2    0    0 -0.55607220625E+02 -0.71082472100E+02  0.34468663283E+03  0.35630570537E+03  0.00000000000E+00 0. -1.
         11    1    1    2    0    0  0.80623644582E+02  0.23188350723E+03  0.68121513714E+01  0.24559425562E+03  0.00000000000E+00 0.  1.
        -15    1    3    3    0    0  0.74392193110E+01 -0.14745012790E+03 -0.24605097732E+03  0.28695143034E+03  0.17770000000E+01 0.  1.
         15    1    3    3    0    0 -0.32455643268E+02 -0.13350907224E+02 -0.10544780688E+03  0.11114860867E+03  0.17770000000E+01 0. -1.
</event>
<event>
 7    1  0.5285153E-006  0.3863207E+03  0.7546771E-02  0.9697705E-01
        -11   -1    0    0    0    0  0.00000000000E+00  0.00000000000E+00  0.50000000000E+03  0.50000000000E+03  0.00000000000E+00 0.  1.
         11   -1    0    0    0    0 -0.00000000000E+00 -0.00000000000E+00 -0.50000000000E+03  0.50000000000E+03  0.00000000000E+00 0. -1.
         23    2    1    2    0    0 -0.26597771469E+02 -0.21085831946E+03 -0.24788892769E+03  0.33903540750E+03  0.91254669646E+02 0.  0.
        -11    1    1    2    0    0 -0.15304162479E+03  0.31185995134E+03  0.28771703316E+03  0.45106480614E+03  0.00000000000E+00 0.  1.
         11    1    1    2    0    0  0.17963939626E+03 -0.10100163188E+03 -0.39828105467E+02  0.20989978636E+03  0.00000000000E+00 0. -1.
        -15    1    3    3    0    0  0.25361154313E+02 -0.91364311759E+02 -0.14378675816E+03  0.17224521811E+03  0.17770000000E+01 0. -1.
         15    1    3    3    0    0 -0.51958925782E+02 -0.11949400770E+03 -0.10410216953E+03  0.16679018938E+03  0.17770000000E+01 0.  1.
</event>
<event>
 7    1  0.5285153E-006  0.4150938E+03  0.7546771E-02  0.9612825E-01
        -11   -1    0    0    0    0  0.00000000000E+00  0.00000000000E+00  0.50000000000E+03  0.50000000000E+03  0.00000000000E+00 0. -1.
         11   -1    0    0    0    0 -0.00000000000E+00 -0.00000000000E+00 -0.50000000000E+03  0.50000000000E+03  0.00000000000E+00 0.  1.
         23    2    1    2    0    0 -0.13716237842E+02  0.12756000106E+03  0.50111930734E+02  0.15846422926E+03  0.78358262491E+02 0.  0.
        -11    1    1    2    0    0 -0.54088115655E+02  0.39918942152E+02  0.37428673546E+03  0.38027569807E+03  0.00000000000E+00 0. -1.
         11    1    1    2    0    0  0.67804353497E+02 -0.16747894321E+03 -0.42439866620E+03  0.46126007267E+03  0.00000000000E+00 0.  1.
        -15    1    3    3    0    0 -0.21647965947E+02  0.53571572869E+02  0.60070192753E+02  0.83367461493E+02  0.17770000000E+01 0. -1.
         15    1    3    3    0    0  0.79317281048E+01  0.73988428193E+02 -0.99582620193E+01  0.75096767764E+02  0.17770000000E+01 0.  1.
</event>
<event>
 7    1  0.5285153E-006  0.5124311E+03  0.7546771E-02  0.9372416E-01
        -11   -1    0    0    0    0  0.00000000000E+00  0.00000000000E+00  0.50000000000E+03  0.50000000000E+03  0.00000000000E+00 0. -1.
         11   -1    0    0    0    0 -0.00000000000E+00 -0.00000000000E+00 -0.50000000000E+03  0.50000000000E+03  0.00000000000E+00 0. -1.
         23    2    1    2    0    0  0.46572330856E+02 -0.22477962993E+02 -0.29075727165E+03  0.30948953208E+03  0.92572882763E+02 0.  0.
        -11    1    1    2    0    0 -0.13195176897E+02  0.91129947274E+02  0.47879495283E+03  0.48756885343E+03  0.00000000000E+00 0. -1.
         11    1    1    2    0    0 -0.33377153959E+02 -0.68651984282E+02 -0.18803768117E+03  0.20294161449E+03  0.00000000000E+00 0. -1.
        -15    1    3    3    0    0 -0.13410177942E+02 -0.26573958442E+02 -0.31616862684E+02  0.43460233256E+02  0.17770000000E+01 0.  1.
         15    1    3    3    0    0  0.59982508797E+02  0.40959954490E+01 -0.25914040897E+03  0.26602929882E+03  0.17770000000E+01 0. -1.
</event>
<event>
 7    1  0.5285153E-006  0.4247602E+03  0.7546771E-02  0.9585945E-01
        -11   -1    0    0    0    0  0.00000000000E+00  0.00000000000E+00  0.50000000000E+03  0.50000000000E+03  0.00000000000E+00 0. -1.
         11   -1    0    0    0    0 -0.00000000000E+00 -0.00000000000E+00 -0.50000000000E+03  0.50000000000E+03  0.00000000000E+00 0.  1.
         23    2    1    2    0    0 -0.63866652799E+02  0.41590944403E+01 -0.39982885613E+03  0.41488522774E+03  0.90390212966E+02 0.  0.
        -11    1    1    2    0    0  0.64150697796E+02 -0.15141804877E+03  0.40567614150E+03  0.43773949937E+03  0.00000000000E+00 0. -1.
         11    1    1    2    0    0 -0.28404499732E+00  0.14725895433E+03 -0.58472853772E+01  0.14737527289E+03  0.00000000000E+00 0.  1.
        -15    1    3    3    0    0 -0.60201166678E+02 -0.33305898067E+02 -0.30855617996E+03  0.31613847795E+03  0.17770000000E+01 0.  1.
         15    1    3    3    0    0 -0.36654861204E+01  0.37464992508E+02 -0.91272676163E+02  0.98746749795E+02  0.17770000000E+01 0. -1.
</event>
<event>
 7    1  0.5285153E-006  0.4443280E+03  0.7546771E-02  0.9533794E-01
        -11   -1    0    0    0    0  0.00000000000E+00  0.00000000000E+00  0.50000000000E+03  0.50000000000E+03  0.00000000000E+00 0. -1.
         11   -1    0    0    0    0 -0.00000000000E+00 -0.00000000000E+00 -0.50000000000E+03  0.50000000000E+03  0.00000000000E+00 0.  1.
         23    2    1    2    0    0  0.10515261123E+03 -0.12740948008E+03 -0.37991117503E+03  0.42567154021E+03  0.97844325151E+02 0.  0.
        -11    1    1    2    0    0 -0.67280338661E+02  0.46694271422E+02  0.45219395043E+03  0.45955017980E+03  0.00000000000E+00 0. -1.
         11    1    1    2    0    0 -0.37872272565E+02  0.80715208659E+02 -0.72282775395E+02  0.11477827999E+03  0.00000000000E+00 0.  1.
        -15    1    3    3    0    0  0.35265142838E+02 -0.24340127191E+02 -0.25223542231E+02  0.49753963688E+02  0.17770000000E+01 0. -1.
         15    1    3    3    0    0  0.69887468389E+02 -0.10306935289E+03 -0.35468763280E+03  0.37591757652E+03  0.17770000000E+01 0.  1.
</event>
<event>
 7    1  0.5285153E-006  0.5331716E+03  0.7546771E-02  0.9328499E-01
        -11   -1    0    0    0    0  0.00000000000E+00  0.00000000000E+00  0.50000000000E+03  0.50000000000E+03  0.00000000000E+00 0. -1.
         11   -1    0    0    0    0 -0.00000000000E+00 -0.00000000000E+00 -0.50000000000E+03  0.50000000000E+03  0.00000000000E+00 0. -1.
         23    2    1    2    0    0 -0.27740688086E+02  0.18437951588E+03 -0.15383403632E+03  0.25880928655E+03  0.92476939967E+02 0.  0.
        -11    1    1    2    0    0 -0.12763891335E+03 -0.40796440924E+03  0.18762227638E+03  0.46682841602E+03  0.00000000000E+00 0. -1.
         11    1    1    2    0    0  0.15537960144E+03  0.22358489337E+03 -0.33788240064E+02  0.27436229743E+03  0.00000000000E+00 0. -1.
        -15    1    3    3    0    0 -0.16366559960E+02  0.37069681057E+02  0.61568147529E+01  0.41025475445E+02  0.17770000000E+01 0.  1.
         15    1    3    3    0    0 -0.11374128126E+02  0.14730983482E+03 -0.15999085107E+03  0.21778381111E+03  0.17770000000E+01 0. -1.
</event>
<event>
 7    1  0.5285153E-006  0.4497044E+03  0.7546771E-02  0.9519965E-01
        -11   -1    0    0    0    0  0.00000000000E+00  0.00000000000E+00  0.50000000000E+03  0.50000000000E+03  0.00000000000E+00 0.  1.
         11   -1    0    0    0    0 -0.00000000000E+00 -0.00000000000E+00 -0.50000000000E+03  0.50000000000E+03  0.00000000000E+00 0. -1.
         23    2    1    2    0    0 -0.25075380475E+02 -0.57927568398E+02 -0.41431208484E+03  0.42892227531E+03  0.91298612945E+02 0.  0.
        -11    1    1    2    0    0 -0.68210132438E+02  0.50184378748E+02  0.45942735508E+03  0.46716655342E+03  0.00000000000E+00 0.  1.
         11    1    1    2    0    0  0.93285512914E+02  0.77431896497E+01 -0.45115270237E+02  0.10391117127E+03  0.00000000000E+00 0. -1.
        -15    1    3    3    0    0 -0.58391695393E+02 -0.49441444862E+02 -0.28064191394E+03  0.29089016510E+03  0.17770000000E+01 0.  1.
         15    1    3    3    0    0  0.33316314918E+02 -0.84861235361E+01 -0.13367017090E+03  0.13803211021E+03  0.17770000000E+01 0. -1.
</event>
<event>
 7    1  0.5285153E-006  0.4374958E+03  0.7546771E-02  0.9551672E-01
        -11   -1    0    0    0    0  0.00000000000E+00  0.00000000000E+00  0.50000000000E+03  0.50000000000E+03  0.00000000000E+00 0.  1.
         11   -1    0    0    0    0 -0.00000000000E+00 -0.00000000000E+00 -0.50000000000E+03  0.50000000000E+03  0.00000000000E+00 0. -1.
         23    2    1    2    0    0  0.13056424545E+03 -0.99399983624E+02 -0.38704443422E+03  0.42898999501E+03  0.85449650803E+02 0.  0.
        -11    1    1    2    0    0 -0.17657376949E+02  0.85818291563E+02  0.43779678702E+03  0.44647798249E+03  0.00000000000E+00 0.  1.
         11    1    1    2    0    0 -0.11290686850E+03  0.13581692061E+02 -0.50752352798E+02  0.12453202250E+03  0.00000000000E+00 0. -1.
        -15    1    3    3    0    0  0.99222591731E+02 -0.88719826394E+02 -0.36663762107E+03  0.39005465415E+03  0.17770000000E+01 0. -1.
         15    1    3    3    0    0  0.31341653718E+02 -0.10680157230E+02 -0.20406813145E+02  0.38935340861E+02  0.17770000000E+01 0.  1.
</event>
<event>
 7    1  0.5285153E-006  0.5371430E+03  0.7546771E-02  0.9320332E-01
        -11   -1    0    0    0    0  0.00000000000E+00  0.00000000000E+00  0.50000000000E+03  0.50000000000E+03  0.00000000000E+00 0.  1.
         11   -1    0    0    0    0 -0.00000000000E+00 -0.00000000000E+00 -0.50000000000E+03  0.50000000000E+03  0.00000000000E+00 0. -1.
         23    2    1    2    0    0 -0.29705019464E+00  0.44164110839E+02 -0.27108797138E+03  0.28956317694E+03  0.91692902047E+02 0.  0.
        -11    1    1    2    0    0 -0.13102970789E+03  0.86361110129E+02  0.43544185719E+03  0.46285703698E+03  0.00000000000E+00 0.  1.
         11    1    1    2    0    0  0.13132675808E+03 -0.13052522097E+03 -0.16435388581E+03  0.24757978608E+03  0.00000000000E+00 0. -1.
        -15    1    3    3    0    0 -0.32067222274E+02 -0.14326086125E+02 -0.96630744133E+02  0.10283093858E+03  0.17770000000E+01 0.  1.
         15    1    3    3    0    0  0.31770172080E+02  0.58490196965E+02 -0.17445722725E+03  0.18673223836E+03  0.17770000000E+01 0. -1.
</event>
<event>
 7    1  0.5285153E-006  0.5113562E+03  0.7546771E-02  0.9374752E-01
        -11   -1    0    0    0    0  0.00000000000E+00  0.00000000000E+00  0.50000000000E+03  0.50000000000E+03  0.00000000000E+00 0.  1.
         11   -1    0    0    0    0 -0.00000000000E+00 -0.00000000000E+00 -0.50000000000E+03  0.50000000000E+03  0.00000000000E+00 0. -1.
         23    2    1    2    0    0 -0.18577886923E+02  0.61800003202E+02 -0.16810757522E+03  0.20202884922E+03  0.91603061053E+02 0.  0.
        -11    1    1    2    0    0  0.18644405242E+02 -0.15364381010E+03  0.46348545904E+03  0.48864384267E+03  0.00000000000E+00 0.  1.
         11    1    1    2    0    0 -0.66518318396E-01  0.91843806902E+02 -0.29537788383E+03  0.30932730811E+03  0.00000000000E+00 0. -1.
        -15    1    3    3    0    0 -0.36212056490E+02  0.66491088309E+02 -0.16733925573E+03  0.18367896476E+03  0.17770000000E+01 0.  1.
         15    1    3    3    0    0  0.17634169567E+02 -0.46910851072E+01 -0.76831948805E+00  0.18349884458E+02  0.17770000000E+01 0. -1.
</event>
<event>
 7    1  0.5285153E-006  0.4372084E+03  0.7546771E-02  0.9552431E-01
        -11   -1    0    0    0    0  0.00000000000E+00  0.00000000000E+00  0.50000000000E+03  0.50000000000E+03  0.00000000000E+00 0.  1.
         11   -1    0    0    0    0 -0.00000000000E+00 -0.00000000000E+00 -0.50000000000E+03  0.50000000000E+03  0.00000000000E+00 0. -1.
         23    2    1    2    0    0 -0.11473431249E+03  0.93751703330E+02 -0.36682594153E+03  0.40581515744E+03  0.90395388639E+02 0.  0.
        -11    1    1    2    0    0  0.25733243482E+02 -0.12076277922E+03  0.45169910356E+03  0.46827121289E+03  0.00000000000E+00 0.  1.
         11    1    1    2    0    0  0.89001069003E+02  0.27011075887E+02 -0.84873162026E+02  0.12591362967E+03  0.00000000000E+00 0. -1.
        -15    1    3    3    0    0  0.10645454246E+02 -0.63664442064E+01 -0.18972905120E+02  0.22737329782E+02  0.17770000000E+01 0.  1.
         15    1    3    3    0    0 -0.12537976673E+03  0.10011814754E+03 -0.34785303641E+03  0.38307782766E+03  0.17770000000E+01 0. -1.
</event>
<event>
 7    1  0.5285153E-006  0.5149943E+03  0.7546771E-02  0.9366870E-01
        -11   -1    0    0    0    0  0.00000000000E+00  0.00000000000E+00  0.50000000000E+03  0.50000000000E+03  0.00000000000E+00 0.  1.
         11   -1    0    0    0    0 -0.00000000000E+00 -0.00000000000E+00 -0.50000000000E+03  0.50000000000E+03  0.00000000000E+00 0. -1.
         23    2    1    2    0    0  0.11251079280E+02  0.68736729199E+01 -0.20816562961E+03  0.22197352027E+03  0.75930759142E+02 0.  0.
        -11    1    1    2    0    0 -0.17122376571E+03 -0.16435899633E+02  0.45347860981E+03  0.48500573842E+03  0.00000000000E+00 0.  1.
         11    1    1    2    0    0  0.15997268643E+03  0.95622267131E+01 -0.24531298020E+03  0.29302074131E+03  0.00000000000E+00 0. -1.
        -15    1    3    3    0    0  0.22231675028E+02  0.30450612769E+02 -0.17864960018E+03  0.18259333111E+03  0.17770000000E+01 0. -1.
         15    1    3    3    0    0 -0.10980595748E+02 -0.23576939849E+02 -0.29516029432E+02  0.39380189157E+02  0.17770000000E+01 0.  1.
</event>
<event>
 7    1  0.5285153E-006  0.4265804E+03  0.7546771E-02  0.9580968E-01
        -11   -1    0    0    0    0  0.00000000000E+00  0.00000000000E+00  0.50000000000E+03  0.50000000000E+03  0.00000000000E+00 0.  1.
         11   -1    0    0    0    0 -0.00000000000E+00 -0.00000000000E+00 -0.50000000000E+03  0.50000000000E+03  0.00000000000E+00 0.  1.
         23    2    1    2    0    0  0.19102014174E+03 -0.31355311373E+01  0.32570249066E+03  0.38868214301E+03  0.92158395007E+02 0.  0.
        -11    1    1    2    0    0  0.55795885827E+02  0.12290752561E+03  0.51868697508E+02  0.14460222166E+03  0.00000000000E+00 0.  1.
         11    1    1    2    0    0 -0.24681602757E+03 -0.11977199448E+03 -0.37757118817E+03  0.46671563533E+03  0.00000000000E+00 0.  1.
        -15    1    3    3    0    0  0.70026290807E+02 -0.34270940359E+02  0.18350824988E+03  0.19939060726E+03  0.17770000000E+01 0. -1.
         15    1    3    3    0    0  0.12099385093E+03  0.31135409222E+02  0.14219424077E+03  0.18929153576E+03  0.17770000000E+01 0.  1.
</event>
<event>
 7    1  0.5285153E-006  0.5139969E+03  0.7546771E-02  0.9369024E-01
        -11   -1    0    0    0    0  0.00000000000E+00  0.00000000000E+00  0.50000000000E+03  0.50000000000E+03  0.00000000000E+00 0. -1.
         11   -1    0    0    0    0 -0.00000000000E+00 -0.00000000000E+00 -0.50000000000E+03  0.50000000000E+03  0.00000000000E+00 0. -1.
         23    2    1    2    0    0 -0.55573249679E+02 -0.18601856752E+02 -0.26194602436E+03  0.28328782413E+03  0.90564101432E+02 0.  0.
        -11    1    1    2    0    0  0.12930174440E+03  0.12985478979E+03  0.45013091747E+03  0.48600313826E+03  0.00000000000E+00 0. -1.
         11    1    1    2    0    0 -0.73728494718E+02 -0.11125293304E+03 -0.18818489311E+03  0.23070903762E+03  0.00000000000E+00 0. -1.
        -15    1    3    3    0    0 -0.43064598738E+02 -0.45038042221E+02 -0.23618493598E+03  0.24427334408E+03  0.17770000000E+01 0. -1.
         15    1    3    3    0    0 -0.12508650940E+02  0.26436185469E+02 -0.25761088373E+02  0.39014480051E+02  0.17770000000E+01 0.  1.
</event>
<event>
 7    1  0.5285153E-006  0.4095803E+03  0.7546771E-02  0.9628510E-01
        -11   -1    0    0    0    0  0.00000000000E+00  0.00000000000E+00  0.50000000000E+03  0.50000000000E+03  0.00000000000E+00 0.  1.
         11   -1    0    0    0    0 -0.00000000000E+00 -0.00000000000E+00 -0.50000000000E+03  0.50000000000E+03  0.00000000000E+00 0. -1.
         23    2    1    2    0    0  0.46273554542E+01  0.75994727550E+02 -0.39129745438E+03  0.40870952952E+03  0.90184093261E+02 0.  0.
        -11    1    1    2    0    0  0.16532317662E+03 -0.47005871354E+02  0.38170719725E+03  0.41861878732E+03  0.00000000000E+00 0.  1.
         11    1    1    2    0    0 -0.16995053207E+03 -0.28988856195E+02  0.95902571322E+01  0.17267168316E+03  0.00000000000E+00 0. -1.
        -15    1    3    3    0    0 -0.14142368481E+02  0.86525210433E+02 -0.36103492866E+03  0.37153195834E+03  0.17770000000E+01 0. -1.
         15    1    3    3    0    0  0.18769723935E+02 -0.10530482884E+02 -0.30262525717E+02  0.37177571171E+02  0.17770000000E+01 0.  1.
</event>
<event>
 7    1  0.5285153E-006  0.5364583E+03  0.7546771E-02  0.9321734E-01
        -11   -1    0    0    0    0  0.00000000000E+00  0.00000000000E+00  0.50000000000E+03  0.50000000000E+03  0.00000000000E+00 0.  1.
         11   -1    0    0    0    0 -0.00000000000E+00 -0.00000000000E+00 -0.50000000000E+03  0.50000000000E+03  0.00000000000E+00 0. -1.
         23    2    1    2    0    0  0.66281176159E+02  0.59229323672E+02  0.28493339244E+02  0.13188640874E+03  0.93171064890E+02 0.  0.
        -11    1    1    2    0    0  0.41301007224E+02  0.12898421276E+03  0.38122925946E+03  0.40457193255E+03  0.00000000000E+00 0.  1.
         11    1    1    2    0    0 -0.10758218338E+03 -0.18821353643E+03 -0.40972259870E+03  0.46354165871E+03  0.00000000000E+00 0. -1.
        -15    1    3    3    0    0  0.86445849121E+02  0.45334002747E+02  0.39065708577E+02  0.10515390602E+03  0.17770000000E+01 0.  1.
         15    1    3    3    0    0 -0.20164672962E+02  0.13895320925E+02 -0.10572369333E+02  0.26732502719E+02  0.17770000000E+01 0. -1.
</event>
<event>
 7    1  0.5285153E-006  0.5139254E+03  0.7546771E-02  0.9369179E-01
        -11   -1    0    0    0    0  0.00000000000E+00  0.00000000000E+00  0.50000000000E+03  0.50000000000E+03  0.00000000000E+00 0. -1.
         11   -1    0    0    0    0 -0.00000000000E+00 -0.00000000000E+00 -0.50000000000E+03  0.50000000000E+03  0.00000000000E+00 0.  1.
         23    2    1    2    0    0  0.47623274955E+02 -0.55739500981E+01 -0.18515203144E+03  0.21355304512E+03  0.94997805756E+02 0.  0.
        -11    1    1    2    0    0 -0.99877790668E+02 -0.75043734257E+02  0.46974611033E+03  0.48607462728E+03  0.00000000000E+00 0. -1.
         11    1    1    2    0    0  0.52254515713E+02  0.80617684355E+02 -0.28459407889E+03  0.30037232759E+03  0.00000000000E+00 0.  1.
        -15    1    3    3    0    0  0.67276143585E+02 -0.16419567543E+02 -0.79139488532E+02  0.10517555832E+03  0.17770000000E+01 0. -1.
         15    1    3    3    0    0 -0.19652868630E+02  0.10845617445E+02 -0.10601254291E+03  0.10837748680E+03  0.17770000000E+01 0.  1.
</event>
<event>
 7    1  0.5285153E-006  0.5079052E+03  0.7546771E-02  0.9382293E-01
        -11   -1    0    0    0    0  0.00000000000E+00  0.00000000000E+00  0.50000000000E+03  0.50000000000E+03  0.00000000000E+00 0.  1.
         11   -1    0    0    0    0 -0.00000000000E+00 -0.00000000000E+00 -0.50000000000E+03  0.50000000000E+03  0.00000000000E+00 0. -1.
         23    2    1    2    0    0  0.95364161400E+02 -0.79361802703E+02 -0.37423442458E+03  0.40458440878E+03  0.90799340734E+02 0.  0.
        -11    1    1    2    0    0 -0.86734548361E+02  0.11713696736E+03  0.47001416339E+03  0.49209477216E+03  0.00000000000E+00 0.  1.
         11    1    1    2    0    0 -0.86296130382E+01 -0.37775164657E+02 -0.95779738808E+02  0.10332081906E+03  0.00000000000E+00 0. -1.
        -15    1    3    3    0    0  0.72664562982E+01 -0.86293557380E+01  0.21361551915E+01  0.11618436022E+02  0.17770000000E+01 0.  1.
         15    1    3    3    0    0  0.88097705101E+02 -0.70732446965E+02 -0.37637057977E+03  0.39296597275E+03  0.17770000000E+01 0. -1.
</event>
<event>
 7    1  0.5285153E-006  0.5250296E+03  0.7546771E-02  0.9345482E-01
        -11   -1    0    0    0    0  0.00000000000E+00  0.00000000000E+00  0.50000000000E+03  0.50000000000E+03  0.00000000000E+00 0.  1.
         11   -1    0    0    0    0 -0.00000000000E+00 -0.00000000000E+00 -0.50000000000E+03  0.50000000000E+03  0.00000000000E+00 0. -1.
         23    2    1    2    0    0 -0.45483612036E+02  0.29727921263E+02  0.91981072397E+02  0.14006535130E+03  0.90582982343E+02 0.  0.
        -11    1    1    2    0    0  0.59220461638E+02  0.20073785349E+03  0.32310171074E+03  0.38496423780E+03  0.00000000000E+00 0.  1.
         11    1    1    2    0    0 -0.13736849602E+02 -0.23046577475E+03 -0.41508278314E+03  0.47497041090E+03  0.00000000000E+00 0. -1.
        -15    1    3    3    0    0  0.16137919741E+02  0.35353614488E+02  0.16014000008E+02  0.42070374804E+02  0.17770000000E+01 0. -1.
         15    1    3    3    0    0 -0.61621531777E+02 -0.56256932252E+01  0.75967072389E+02  0.97994976500E+02  0.17770000000E+01 0.  1.
</event>
<event>
 7    1  0.5285153E-006  0.5033402E+03  0.7546771E-02  0.9392367E-01
        -11   -1    0    0    0    0  0.00000000000E+00  0.00000000000E+00  0.50000000000E+03  0.50000000000E+03  0.00000000000E+00 0.  1.
         11   -1    0    0    0    0 -0.00000000000E+00 -0.00000000000E+00 -0.50000000000E+03  0.50000000000E+03  0.00000000000E+00 0. -1.
         23    2    1    2    0    0 -0.83278361204E+02  0.27298030512E+01 -0.48822953003E+03  0.50334017444E+03  0.89668946355E+02 0.  0.
        -11    1    1    2    0    0  0.75068508365E+02  0.79264935367E+01  0.44589663146E+03  0.45224099349E+03  0.00000000000E+00 0.  1.
         11    1    1    2    0    0  0.82098528396E+01 -0.10656296588E+02  0.42332898574E+02  0.44418832068E+02  0.00000000000E+00 0. -1.
        -15    1    3    3    0    0 -0.10209410866E+03 -0.88876828444E+00 -0.43217371520E+03  0.44407350154E+03  0.17770000000E+01 0. -1.
         15    1    3    3    0    0  0.18815747459E+02  0.36185713357E+01 -0.56055814833E+02  0.59266672899E+02  0.17770000000E+01 0.  1.
</event>
<event>
 7    1  0.5285153E-006  0.4485988E+03  0.7546771E-02  0.9522792E-01
        -11   -1    0    0    0    0  0.00000000000E+00  0.00000000000E+00  0.50000000000E+03  0.50000000000E+03  0.00000000000E+00 0. -1.
         11   -1    0    0    0    0 -0.00000000000E+00 -0.00000000000E+00 -0.50000000000E+03  0.50000000000E+03  0.00000000000E+00 0.  1.
         23    2    1    2    0    0 -0.34200056284E+02  0.30701227043E+02 -0.14698550985E+02  0.10150579392E+03  0.89303805108E+02 0.  0.
        -11    1    1    2    0    0 -0.29914248102E+03  0.99638163263E+02  0.30422059972E+03  0.43813714841E+03  0.00000000000E+00 0. -1.
         11    1    1    2    0    0  0.33334253730E+03 -0.13033939031E+03 -0.28952204873E+03  0.46035705767E+03  0.00000000000E+00 0.  1.
        -15    1    3    3    0    0 -0.63933541961E+02  0.11644990775E+02 -0.11269134339E+02  0.65979199113E+02  0.17770000000E+01 0. -1.
         15    1    3    3    0    0  0.29733485676E+02  0.19056236267E+02 -0.34294166466E+01  0.35526594808E+02  0.17770000000E+01 0.  1.
</event>
<event>
 7    1  0.5285153E-006  0.5197583E+03  0.7546771E-02  0.9356653E-01
        -11   -1    0    0    0    0  0.00000000000E+00  0.00000000000E+00  0.50000000000E+03  0.50000000000E+03  0.00000000000E+00 0. -1.
         11   -1    0    0    0    0 -0.00000000000E+00 -0.00000000000E+00 -0.50000000000E+03  0.50000000000E+03  0.00000000000E+00 0. -1.
         23    2    1    2    0    0  0.32227683384E+02  0.22430488908E+02 -0.11787869958E+03  0.15364063342E+03  0.90378681192E+02 0.  0.
        -11    1    1    2    0    0  0.42316924942E+02 -0.10313552564E+03  0.46712354604E+03  0.48024167463E+03  0.00000000000E+00 0. -1.
         11    1    1    2    0    0 -0.74544608325E+02  0.80705036731E+02 -0.34924484645E+03  0.36611769195E+03  0.00000000000E+00 0. -1.
        -15    1    3    3    0    0  0.40124047107E+02  0.53228479929E+02 -0.81016441283E+02  0.10492869826E+03  0.17770000000E+01 0. -1.
         15    1    3    3    0    0 -0.78963637238E+01 -0.30797991021E+02 -0.36862258301E+02  0.48711935160E+02  0.17770000000E+01 0.  1.
</event>
<event>
 7    1  0.5285153E-006  0.5145223E+03  0.7546771E-02  0.9367889E-01
        -11   -1    0    0    0    0  0.00000000000E+00  0.00000000000E+00  0.50000000000E+03  0.50000000000E+03  0.00000000000E+00 0.  1.
         11   -1    0    0    0    0 -0.00000000000E+00 -0.00000000000E+00 -0.50000000000E+03  0.50000000000E+03  0.00000000000E+00 0. -1.
         23    2    1    2    0    0 -0.82916501753E+02 -0.52176283243E+02  0.23852875080E+03  0.27305526301E+03  0.89809247305E+02 0.  0.
        -11    1    1    2    0    0  0.32457692889E+02 -0.27698900384E+02  0.23766703146E+03  0.24146707592E+03  0.00000000000E+00 0.  1.
         11    1    1    2    0    0  0.50458808864E+02  0.79875183627E+02 -0.47619578226E+03  0.48547766107E+03  0.00000000000E+00 0. -1.
        -15    1    3    3    0    0 -0.78916305249E+02 -0.77247894765E+01  0.19575033770E+03  0.21120797344E+03  0.17770000000E+01 0. -1.
         15    1    3    3    0    0 -0.40001965036E+01 -0.44451493767E+02  0.42778413099E+02  0.61847289564E+02  0.17770000000E+01 0.  1.
</event>
<event>
 7    1  0.5285153E-006  0.3424893E+03  0.7546771E-02  0.9843477E-01
        -11   -1    0    0    0    0  0.00000000000E+00  0.00000000000E+00  0.50000000000E+03  0.50000000000E+03  0.00000000000E+00 0.  1.
         11   -1    0    0    0    0 -0.00000000000E+00 -0.00000000000E+00 -0.50000000000E+03  0.50000000000E+03  0.00000000000E+00 0.  1.
         23    2    1    2    0    0 -0.51183172990E+02 -0.74368468888E+02 -0.23724310928E+03  0.26950000693E+03  0.90529412180E+02 0.  0.
        -11    1    1    2    0    0 -0.29561712862E+03  0.15547967407E+03  0.13162113709E+03  0.35900910784E+03  0.00000000000E+00 0.  1.
         11    1    1    2    0    0  0.34680030161E+03 -0.81111205183E+02  0.10562197219E+03  0.37149088523E+03  0.00000000000E+00 0.  1.
        -15    1    3    3    0    0 -0.42878878761E+02 -0.92916882128E+02 -0.22054779841E+03  0.24313912548E+03  0.17770000000E+01 0. -1.
         15    1    3    3    0    0 -0.83042942293E+01  0.18548413240E+02 -0.16695310872E+02  0.26360881444E+02  0.17770000000E+01 0.  1.
</event>
<event>
 7    1  0.5285153E-006  0.5312288E+03  0.7546771E-02  0.9332522E-01
        -11   -1    0    0    0    0  0.00000000000E+00  0.00000000000E+00  0.50000000000E+03  0.50000000000E+03  0.00000000000E+00 0.  1.
         11   -1    0    0    0    0 -0.00000000000E+00 -0.00000000000E+00 -0.50000000000E+03  0.50000000000E+03  0.00000000000E+00 0. -1.
         23    2    1    2    0    0  0.21329149545E+01  0.33367799729E+02 -0.48814738294E+02  0.10757203218E+03  0.89838210393E+02 0.  0.
        -11    1    1    2    0    0 -0.15580261709E+03  0.99559054460E+00  0.44212102074E+03  0.46877120610E+03  0.00000000000E+00 0.  1.
         11    1    1    2    0    0  0.15366970214E+03 -0.34363390274E+02 -0.39330628244E+03  0.42365676172E+03  0.00000000000E+00 0. -1.
        -15    1    3    3    0    0 -0.67464027645E+01 -0.15281876574E+02  0.17873661956E+02  0.24529068931E+02  0.17770000000E+01 0. -1.
         15    1    3    3    0    0  0.88793177190E+01  0.48649676303E+02 -0.66688400250E+02  0.83042963245E+02  0.17770000000E+01 0.  1.
</event>
<event>
 7    1  0.5285153E-006  0.5032159E+03  0.7546771E-02  0.9392643E-01
        -11   -1    0    0    0    0  0.00000000000E+00  0.00000000000E+00  0.50000000000E+03  0.50000000000E+03  0.00000000000E+00 0.  1.
         11   -1    0    0    0    0 -0.00000000000E+00 -0.00000000000E+00 -0.50000000000E+03  0.50000000000E+03  0.00000000000E+00 0. -1.
         23    2    1    2    0    0 -0.24001895596E+03  0.13906400160E+02 -0.42583133653E+03  0.49678411444E+03  0.87519380735E+02 0.  0.
        -11    1    1    2    0    0  0.22452130503E+03 -0.44639637787E+02  0.39720554543E+03  0.45844820754E+03  0.00000000000E+00 0.  1.
         11    1    1    2    0    0  0.15497650936E+02  0.30733237627E+02  0.28625791098E+02  0.44767678023E+02  0.00000000000E+00 0. -1.
        -15    1    3    3    0    0 -0.21401379519E+03  0.25392234769E+02 -0.41233698432E+03  0.46526510345E+03  0.17770000000E+01 0. -1.
         15    1    3    3    0    0 -0.26005160773E+02 -0.11485834609E+02 -0.13494352207E+02  0.31519010993E+02  0.17770000000E+01 0.  1.
</event>
<event>
 7    1  0.5285153E-006  0.5517956E+03  0.7546771E-02  0.9290833E-01
        -11   -1    0    0    0    0  0.00000000000E+00  0.00000000000E+00  0.50000000000E+03  0.50000000000E+03  0.00000000000E+00 0.  1.
         11   -1    0    0    0    0 -0.00000000000E+00 -0.00000000000E+00 -0.50000000000E+03  0.50000000000E+03  0.00000000000E+00 0. -1.
         23    2    1    2    0    0 -0.24834826985E+02  0.65442410057E+02  0.44572895909E+02  0.15201231887E+03  0.12736374827E+03 0.  0.
        -11    1    1    2    0    0 -0.11918118367E+01 -0.43639381798E+03  0.10220686828E+03  0.44820444968E+03  0.00000000000E+00 0.  1.
         11    1    1    2    0    0  0.26026638822E+02  0.37095140793E+03 -0.14677976418E+03  0.39978323145E+03  0.00000000000E+00 0. -1.
        -15    1    3    3    0    0  0.45488376003E+02  0.30387890613E+02  0.48762782500E+02  0.73304726542E+02  0.17770000000E+01 0.  1.
         15    1    3    3    0    0 -0.70323202988E+02  0.35054519444E+02 -0.41898865908E+01  0.78707592331E+02  0.17770000000E+01 0. -1.
</event>
<event>
 7    1  0.5285153E-006  0.3525637E+03  0.7546771E-02  0.9807978E-01
        -11   -1    0    0    0    0  0.00000000000E+00  0.00000000000E+00  0.50000000000E+03  0.50000000000E+03  0.00000000000E+00 0. -1.
         11   -1    0    0    0    0 -0.00000000000E+00 -0.00000000000E+00 -0.50000000000E+03  0.50000000000E+03  0.00000000000E+00 0.  1.
         23    2    1    2    0    0 -0.40708648984E+02  0.17890654250E+03  0.15315242014E+03  0.25546985970E+03  0.90246553234E+02 0.  0.
        -11    1    1    2    0    0 -0.29586106321E+03 -0.52856732461E+00  0.68677832891E+02  0.30372799153E+03  0.00000000000E+00 0. -1.
         11    1    1    2    0    0  0.33656971220E+03 -0.17837797518E+03 -0.22183025303E+03  0.44080214877E+03  0.00000000000E+00 0.  1.
        -15    1    3    3    0    0 -0.46600050918E+01  0.64113608846E+02  0.11040731188E+03  0.12777011674E+03  0.17770000000E+01 0. -1.
         15    1    3    3    0    0 -0.36048643893E+02  0.11479293366E+03  0.42745108259E+02  0.12769974296E+03  0.17770000000E+01 0.  1.
</event>
<event>
 7    1  0.5285153E-006  0.5355182E+03  0.7546771E-02  0.9323664E-01
        -11   -1    0    0    0    0  0.00000000000E+00  0.00000000000E+00  0.50000000000E+03  0.50000000000E+03  0.00000000000E+00 0. -1.
         11   -1    0    0    0    0 -0.00000000000E+00 -0.00000000000E+00 -0.50000000000E+03  0.50000000000E+03  0.00000000000E+00 0.  1.
         23    2    1    2    0    0  0.15594937757E+03 -0.58490595797E+02 -0.22568936535E+03  0.29485158379E+03  0.90886790406E+02 0.  0.
        -11    1    1    2    0    0 -0.80250550348E+02  0.55472939722E+02  0.45412102360E+03  0.46448175632E+03  0.00000000000E+00 0. -1.
         11    1    1    2    0    0 -0.75698827224E+02  0.30176560750E+01 -0.22843165825E+03  0.24066665989E+03  0.00000000000E+00 0.  1.
        -15    1    3    3    0    0 -0.92167551997E+01 -0.58974786068E+01 -0.36994427876E+02  0.38619609698E+02  0.17770000000E+01 0. -1.
         15    1    3    3    0    0  0.16516613277E+03 -0.52593117190E+02 -0.18869493748E+03  0.25623197410E+03  0.17770000000E+01 0. -1.
</event>
<event>
 7    1  0.5285153E-006  0.5357579E+03  0.7546771E-02  0.9323172E-01
        -11   -1    0    0    0    0  0.00000000000E+00  0.00000000000E+00  0.50000000000E+03  0.50000000000E+03  0.00000000000E+00 0.  1.
         11   -1    0    0    0    0 -0.00000000000E+00 -0.00000000000E+00 -0.50000000000E+03  0.50000000000E+03  0.00000000000E+00 0. -1.
         23    2    1    2    0    0  0.10522775899E+03  0.13660807674E+03 -0.31169623460E+03  0.36929207953E+03  0.97403539188E+02 0.  0.
        -11    1    1    2    0    0 -0.15182010731E+02 -0.11376782223E+03  0.44983008296E+03  0.46424208594E+03  0.00000000000E+00 0.  1.
         11    1    1    2    0    0 -0.90045748254E+02 -0.22840254512E+02 -0.13813384836E+03  0.16646583453E+03  0.00000000000E+00 0. -1.
        -15    1    3    3    0    0  0.64558711233E+02  0.37568971964E+02 -0.60202998237E+02  0.95952142114E+02  0.17770000000E+01 0.  1.
         15    1    3    3    0    0  0.40669047752E+02  0.99039104777E+02 -0.25149323636E+03  0.27333993741E+03  0.17770000000E+01 0. -1.
</event>
<event>
 7    1  0.5285153E-006  0.3410662E+03  0.7546771E-02  0.9848597E-01
        -11   -1    0    0    0    0  0.00000000000E+00  0.00000000000E+00  0.50000000000E+03  0.50000000000E+03  0.00000000000E+00 0.  1.
         11   -1    0    0    0    0 -0.00000000000E+00 -0.00000000000E+00 -0.50000000000E+03  0.50000000000E+03  0.00000000000E+00 0. -1.
         23    2    1    2    0    0 -0.66149783598E+02  0.83990249549E+02 -0.23248370987E+03  0.27145109639E+03  0.90591757298E+02 0.  0.
        -11    1    1    2    0    0  0.30439559767E+03  0.31201487008E+02  0.32672420598E+03  0.44763703985E+03  0.00000000000E+00 0.  1.
         11    1    1    2    0    0 -0.23824581407E+03 -0.11519173656E+03 -0.94240496116E+02  0.28091186376E+03  0.00000000000E+00 0. -1.
        -15    1    3    3    0    0  0.22509434077E+02  0.23018748781E+02 -0.60969265918E+02  0.68970620800E+02  0.17770000000E+01 0.  1.
         15    1    3    3    0    0 -0.88659217675E+02  0.60971500768E+02 -0.17151444395E+03  0.20248047559E+03  0.17770000000E+01 0. -1.
</event>
<event>
 7    1  0.5285153E-006  0.5342037E+03  0.7546771E-02  0.9326369E-01
        -11   -1    0    0    0    0  0.00000000000E+00  0.00000000000E+00  0.50000000000E+03  0.50000000000E+03  0.00000000000E+00 0.  1.
         11   -1    0    0    0    0 -0.00000000000E+00 -0.00000000000E+00 -0.50000000000E+03  0.50000000000E+03  0.00000000000E+00 0. -1.
         23    2    1    2    0    0  0.11452303362E+02  0.53372945551E+02 -0.17854530661E+03  0.20776647988E+03  0.91151835320E+02 0.  0.
        -11    1    1    2    0    0  0.23175477236E+03 -0.12192316415E+03  0.38521513374E+03  0.46579634148E+03  0.00000000000E+00 0.  1.
         11    1    1    2    0    0 -0.24320707572E+03  0.68550218602E+02 -0.20666982714E+03  0.32643717864E+03  0.00000000000E+00 0. -1.
        -15    1    3    3    0    0  0.34939503326E+02  0.67901614452E+02 -0.11071600156E+03  0.13450869440E+03  0.17770000000E+01 0.  1.
         15    1    3    3    0    0 -0.23487199964E+02 -0.14528668901E+02 -0.67829305043E+02  0.73257785482E+02  0.17770000000E+01 0. -1.
</event>
<event>
 7    1  0.5285153E-006  0.3770345E+03  0.7546771E-02  0.9726801E-01
        -11   -1    0    0    0    0  0.00000000000E+00  0.00000000000E+00  0.50000000000E+03  0.50000000000E+03  0.00000000000E+00 0.  1.
         11   -1    0    0    0    0 -0.00000000000E+00 -0.00000000000E+00 -0.50000000000E+03  0.50000000000E+03  0.00000000000E+00 0. -1.
         23    2    1    2    0    0 -0.19479633916E+03 -0.18654925298E+03  0.15674608453E+03  0.32530229542E+03  0.92228037228E+02 0.  0.
        -11    1    1    2    0    0 -0.17297424665E+02  0.52505840141E+02  0.21734119658E+03  0.22426158806E+03  0.00000000000E+00 0.  1.
         11    1    1    2    0    0  0.21209376382E+03  0.13404341284E+03 -0.37408728111E+03  0.45043611652E+03  0.00000000000E+00 0. -1.
        -15    1    3    3    0    0 -0.26837175316E+02 -0.93011731667E+01 -0.93723665274E+01  0.29962389500E+02  0.17770000000E+01 0. -1.
         15    1    3    3    0    0 -0.16795916384E+03 -0.17724807982E+03  0.16611845106E+03  0.29533990592E+03  0.17770000000E+01 0.  1.
</event>
<event>
 7    1  0.5285153E-006  0.5291830E+03  0.7546771E-02  0.9336778E-01
        -11   -1    0    0    0    0  0.00000000000E+00  0.00000000000E+00  0.50000000000E+03  0.50000000000E+03  0.00000000000E+00 0. -1.
         11   -1    0    0    0    0 -0.00000000000E+00 -0.00000000000E+00 -0.50000000000E+03  0.50000000000E+03  0.00000000000E+00 0. -1.
         23    2    1    2    0    0  0.25872548283E+02  0.23831391507E+03 -0.39492741543E+03  0.47081703016E+03  0.90763988235E+02 0.  0.
        -11    1    1    2    0    0 -0.45264278435E+02  0.88298734049E-01  0.23993353104E+03  0.24416584941E+03  0.00000000000E+00 0. -1.
         11    1    1    2    0    0  0.19391730152E+02 -0.23840221380E+03  0.15499388439E+03  0.28501712044E+03  0.00000000000E+00 0. -1.
        -15    1    3    3    0    0  0.12218655541E+02  0.13221928578E+03 -0.13328540793E+03  0.18814726352E+03  0.17770000000E+01 0.  1.
         15    1    3    3    0    0  0.13653892743E+02  0.10609462928E+03 -0.26164200750E+03  0.28266976663E+03  0.17770000000E+01 0. -1.
</event>
<event>
 7    1  0.5285153E-006  0.3843631E+03  0.7546771E-02  0.9703766E-01
        -11   -1    0    0    0    0  0.00000000000E+00  0.00000000000E+00  0.50000000000E+03  0.50000000000E+03  0.00000000000E+00 0. -1.
         11   -1    0    0    0    0 -0.00000000000E+00 -0.00000000000E+00 -0.50000000000E+03  0.50000000000E+03  0.00000000000E+00 0. -1.
         23    2    1    2    0    0  0.17107203431E+03 -0.75686783612E+02 -0.13176598270E+02  0.20873036313E+03  0.91654850455E+02 0.  0.
        -11    1    1    2    0    0  0.12287338599E+03 -0.53242864049E+02  0.32021338009E+03  0.34708684842E+03  0.00000000000E+00 0. -1.
         11    1    1    2    0    0 -0.29394542030E+03  0.12892964766E+03 -0.30703678182E+03  0.44418278845E+03  0.00000000000E+00 0. -1.
        -15    1    3    3    0    0  0.44884752408E+02  0.20624651438E+02 -0.63105840689E+01  0.49829694420E+02  0.17770000000E+01 0.  1.
         15    1    3    3    0    0  0.12618728190E+03 -0.96311435050E+02 -0.68660142011E+01  0.15890066871E+03  0.17770000000E+01 0. -1.
</event>
<event>
 7    1  0.5285153E-006  0.4116000E+03  0.7546771E-02  0.9622734E-01
        -11   -1    0    0    0    0  0.00000000000E+00  0.00000000000E+00  0.50000000000E+03  0.50000000000E+03  0.00000000000E+00 0.  1.
         11   -1    0    0    0    0 -0.00000000000E+00 -0.00000000000E+00 -0.50000000000E+03  0.50000000000E+03  0.00000000000E+00 0. -1.
         23    2    1    2    0    0 -0.25942906258E+03  0.28683348529E+03  0.24048335246E+03  0.46518013990E+03  0.94780973572E+02 0.  0.
        -11    1    1    2    0    0  0.81590951270E+02 -0.14293560083E+03  0.43423955972E+02  0.17021547892E+03  0.00000000000E+00 0.  1.
         11    1    1    2    0    0  0.17783811131E+03 -0.14389788446E+03 -0.28390730844E+03  0.36460438117E+03  0.00000000000E+00 0. -1.
        -15    1    3    3    0    0 -0.16264526138E+03  0.22820304975E+03  0.20272229671E+03  0.34587512237E+03  0.17770000000E+01 0.  1.
         15    1    3    3    0    0 -0.96783801205E+02  0.58630435537E+02  0.37761055758E+02  0.11930501753E+03  0.17770000000E+01 0. -1.
</event>
<event>
 7    1  0.5285153E-006  0.5327380E+03  0.7546771E-02  0.9329395E-01
        -11   -1    0    0    0    0  0.00000000000E+00  0.00000000000E+00  0.50000000000E+03  0.50000000000E+03  0.00000000000E+00 0.  1.
         11   -1    0    0    0    0 -0.00000000000E+00 -0.00000000000E+00 -0.50000000000E+03  0.50000000000E+03  0.00000000000E+00 0.  1.
         23    2    1    2    0    0  0.93774050316E+02 -0.11322150558E+03 -0.20097436816E+03  0.26509436788E+03  0.90948586501E+02 0.  0.
        -11    1    1    2    0    0 -0.20040987709E+03  0.65117379256E+01  0.42205119664E+03  0.46726195453E+03  0.00000000000E+00 0.  1.
         11    1    1    2    0    0  0.10663582677E+03  0.10670976766E+03 -0.22107682848E+03  0.26764367759E+03  0.00000000000E+00 0.  1.
        -15    1    3    3    0    0  0.62622344765E+02 -0.10165060706E+03 -0.19859935749E+03  0.23173102189E+03  0.17770000000E+01 0.  1.
         15    1    3    3    0    0  0.31151705551E+02 -0.11570898520E+02 -0.23750106693E+01  0.33363345995E+02  0.17770000000E+01 0. -1.
</event>
<event>
 7    1  0.5285153E-006  0.5272998E+03  0.7546771E-02  0.9340714E-01
        -11   -1    0    0    0    0  0.00000000000E+00  0.00000000000E+00  0.50000000000E+03  0.50000000000E+03  0.00000000000E+00 0.  1.
         11   -1    0    0    0    0 -0.00000000000E+00 -0.00000000000E+00 -0.50000000000E+03  0.50000000000E+03  0.00000000000E+00 0. -1.
         23    2    1    2    0    0 -0.19066910724E+03  0.62000554347E+02  0.91756141788E+02  0.23897729443E+03  0.92153027624E+02 0.  0.
        -11    1    1    2    0    0 -0.11459813887E+03 -0.44198788542E+01  0.26453282344E+03  0.28832253370E+03  0.00000000000E+00 0.  1.
         11    1    1    2    0    0  0.30526724611E+03 -0.57580675493E+02 -0.35628896523E+03  0.47270017187E+03  0.00000000000E+00 0. -1.
        -15    1    3    3    0    0 -0.84425753450E+02  0.56204256815E+02  0.48005272439E+01  0.10155210052E+03  0.17770000000E+01 0.  1.
         15    1    3    3    0    0 -0.10624335379E+03  0.57962975318E+01  0.86955614544E+02  0.13742519391E+03  0.17770000000E+01 0. -1.
</event>
<event>
 7    1  0.5285153E-006  0.3978530E+03  0.7546771E-02  0.9662766E-01
        -11   -1    0    0    0    0  0.00000000000E+00  0.00000000000E+00  0.50000000000E+03  0.50000000000E+03  0.00000000000E+00 0.  1.
         11   -1    0    0    0    0 -0.00000000000E+00 -0.00000000000E+00 -0.50000000000E+03  0.50000000000E+03  0.00000000000E+00 0.  1.
         23    2    1    2    0    0 -0.58126390934E+02  0.93332593657E+02 -0.39386424888E+03  0.41874302949E+03  0.90150029640E+02 0.  0.
        -11    1    1    2    0    0 -0.50773852141E+02  0.63794581798E+02  0.38102456356E+03  0.38965042122E+03  0.00000000000E+00 0.  1.
         11    1    1    2    0    0  0.10890024308E+03 -0.15712717546E+03  0.12839685321E+02  0.19160654928E+03  0.00000000000E+00 0.  1.
        -15    1    3    3    0    0 -0.70962892588E+02  0.94753671560E+02 -0.38545905822E+03  0.40323173696E+03  0.17770000000E+01 0.  1.
         15    1    3    3    0    0  0.12836501653E+02 -0.14210779027E+01 -0.84051906576E+01  0.15511292535E+02  0.17770000000E+01 0. -1.
</event>
<event>
 7    1  0.5285153E-006  0.3836149E+03  0.7546771E-02  0.9706092E-01
        -11   -1    0    0    0    0  0.00000000000E+00  0.00000000000E+00  0.50000000000E+03  0.50000000000E+03  0.00000000000E+00 0.  1.
         11   -1    0    0    0    0 -0.00000000000E+00 -0.00000000000E+00 -0.50000000000E+03  0.50000000000E+03  0.00000000000E+00 0. -1.
         23    2    1    2    0    0 -0.18734362655E+03 -0.10751962128E+03 -0.29871887960E+03  0.38006822060E+03  0.92524482772E+02 0.  0.
        -11    1    1    2    0    0  0.48415636354E+02  0.27069135302E+03  0.29818763347E+03  0.40562759670E+03  0.00000000000E+00 0.  1.
         11    1    1    2    0    0  0.13892799020E+03 -0.16317173174E+03  0.53124612185E+00  0.21430418270E+03  0.00000000000E+00 0. -1.
        -15    1    3    3    0    0 -0.17456978293E+03 -0.11916947234E+03 -0.24485737279E+03  0.32347219817E+03  0.17770000000E+01 0.  1.
         15    1    3    3    0    0 -0.12773843627E+02  0.11649851061E+02 -0.53861506803E+02  0.56596022429E+02  0.17770000000E+01 0. -1.
</event>
<event>
 7    1  0.5285153E-006  0.3388119E+03  0.7546771E-02  0.9856763E-01
        -11   -1    0    0    0    0  0.00000000000E+00  0.00000000000E+00  0.50000000000E+03  0.50000000000E+03  0.00000000000E+00 0.  1.
         11   -1    0    0    0    0 -0.00000000000E+00 -0.00000000000E+00 -0.50000000000E+03  0.50000000000E+03  0.00000000000E+00 0. -1.
         23    2    1    2    0    0  0.36160373102E+02  0.18976162612E+03 -0.17175500780E+03  0.27474776305E+03  0.93110167369E+02 0.  0.
        -11    1    1    2    0    0 -0.13674351254E+03 -0.31509468892E+02  0.40346674079E+03  0.42717332053E+03  0.00000000000E+00 0.  1.
         11    1    1    2    0    0  0.10058313943E+03 -0.15825215722E+03 -0.23171173299E+03  0.29807891641E+03  0.00000000000E+00 0. -1.
        -15    1    3    3    0    0  0.38064495429E+02  0.13902658515E+03 -0.68349929416E+02  0.15953735541E+03  0.17770000000E+01 0.  1.
         15    1    3    3    0    0 -0.19041223271E+01  0.50735040963E+02 -0.10340507839E+03  0.11521040764E+03  0.17770000000E+01 0. -1.
</event>
<event>
 7    1  0.5285153E-006  0.5292968E+03  0.7546771E-02  0.9336541E-01
        -11   -1    0    0    0    0  0.00000000000E+00  0.00000000000E+00  0.50000000000E+03  0.50000000000E+03  0.00000000000E+00 0.  1.
         11   -1    0    0    0    0 -0.00000000000E+00 -0.00000000000E+00 -0.50000000000E+03  0.50000000000E+03  0.00000000000E+00 0.  1.
         23    2    1    2    0    0  0.96918991400E+02 -0.88420120523E+02  0.11923558935E+03  0.20742109001E+03  0.10767996194E+03 0.  0.
        -11    1    1    2    0    0  0.53966808982E+02 -0.22536579278E+01  0.31731134476E+03  0.32187572906E+03  0.00000000000E+00 0.  1.
         11    1    1    2    0    0 -0.15088580038E+03  0.90673778451E+02 -0.43654693411E+03  0.47070318093E+03  0.00000000000E+00 0.  1.
        -15    1    3    3    0    0  0.11465923669E+03 -0.89636309182E+02  0.84349550068E+02  0.16822429315E+03  0.17770000000E+01 0. -1.
         15    1    3    3    0    0 -0.17740245285E+02  0.12161886595E+01  0.34886039286E+02  0.39196796855E+02  0.17770000000E+01 0.  1.
</event>
<event>
 7    1  0.5285153E-006  0.4126978E+03  0.7546771E-02  0.9619609E-01
        -11   -1    0    0    0    0  0.00000000000E+00  0.00000000000E+00  0.50000000000E+03  0.50000000000E+03  0.00000000000E+00 0. -1.
         11   -1    0    0    0    0 -0.00000000000E+00 -0.00000000000E+00 -0.50000000000E+03  0.50000000000E+03  0.00000000000E+00 0. -1.
         23    2    1    2    0    0  0.46873712159E+02 -0.10058979550E+03  0.14764538436E+02  0.16704670957E+03  0.12398048126E+03 0.  0.
        -11    1    1    2    0    0  0.54823441333E+02  0.80921132629E+02  0.39674483219E+03  0.40860775971E+03  0.00000000000E+00 0. -1.
         11    1    1    2    0    0 -0.10169715349E+03  0.19668662872E+02 -0.41150937063E+03  0.42434553072E+03  0.00000000000E+00 0. -1.
        -15    1    3    3    0    0  0.19383914363E+02 -0.11850807950E+03  0.38938688632E+02  0.12625086235E+03  0.17770000000E+01 0.  1.
         15    1    3    3    0    0  0.27489797796E+02  0.17918283995E+02 -0.24174150196E+02  0.40795847226E+02  0.17770000000E+01 0. -1.
</event>
<event>
 7    1  0.5285153E-006  0.3658652E+03  0.7546771E-02  0.9763009E-01
        -11   -1    0    0    0    0  0.00000000000E+00  0.00000000000E+00  0.50000000000E+03  0.50000000000E+03  0.00000000000E+00 0.  1.
         11   -1    0    0    0    0 -0.00000000000E+00 -0.00000000000E+00 -0.50000000000E+03  0.50000000000E+03  0.00000000000E+00 0. -1.
         23    2    1    2    0    0  0.32739075925E+02 -0.98001220287E+02 -0.27816750217E+03  0.30962819440E+03  0.88410255259E+02 0.  0.
        -11    1    1    2    0    0  0.52096523747E+02 -0.53633734941E+02  0.44395900840E+03  0.45021131310E+03  0.00000000000E+00 0.  1.
         11    1    1    2    0    0 -0.84835599672E+02  0.15163495523E+03 -0.16579150623E+03  0.24016049250E+03  0.00000000000E+00 0. -1.
        -15    1    3    3    0    0  0.57420489683E+01 -0.10439115214E+03 -0.24480580676E+03  0.26620203704E+03  0.17770000000E+01 0. -1.
         15    1    3    3    0    0  0.26997026957E+02  0.63899318535E+01 -0.33361695407E+02  0.43426157360E+02  0.17770000000E+01 0.  1.
</event>
<event>
 7    1  0.5285153E-006  0.5110336E+03  0.7546771E-02  0.9375454E-01
        -11   -1    0    0    0    0  0.00000000000E+00  0.00000000000E+00  0.50000000000E+03  0.50000000000E+03  0.00000000000E+00 0.  1.
         11   -1    0    0    0    0 -0.00000000000E+00 -0.00000000000E+00 -0.50000000000E+03  0.50000000000E+03  0.00000000000E+00 0.  1.
         23    2    1    2    0    0  0.42506359135E+02 -0.75750939796E+02 -0.47143301649E+03  0.48896643332E+03  0.96405852699E+02 0.  0.
        -11    1    1    2    0    0 -0.10732596449E+03  0.24834572126E+02  0.32273598872E+03  0.34101926198E+03  0.00000000000E+00 0.  1.
         11    1    1    2    0    0  0.64819605352E+02  0.50916367670E+02  0.14869702777E+03  0.17001430470E+03  0.00000000000E+00 0.  1.
        -15    1    3    3    0    0  0.82985920027E+01  0.20642375038E+02 -0.42508395088E+02  0.48011411751E+02  0.17770000000E+01 0. -1.
         15    1    3    3    0    0  0.34207767132E+02 -0.96393314834E+02 -0.42892462140E+03  0.44095502157E+03  0.17770000000E+01 0.  1.
</event>
<event>
 7    1  0.5285153E-006  0.5249023E+03  0.7546771E-02  0.9345751E-01
        -11   -1    0    0    0    0  0.00000000000E+00  0.00000000000E+00  0.50000000000E+03  0.50000000000E+03  0.00000000000E+00 0.  1.
         11   -1    0    0    0    0 -0.00000000000E+00 -0.00000000000E+00 -0.50000000000E+03  0.50000000000E+03  0.00000000000E+00 0. -1.
         23    2    1    2    0    0 -0.37295238608E+02  0.57224676824E+02 -0.28084215300E+03  0.30216318241E+03  0.88117395786E+02 0.  0.
        -11    1    1    2    0    0 -0.25416220459E+02 -0.21848026660E+03  0.42111547987E+03  0.47509773578E+03  0.00000000000E+00 0.  1.
         11    1    1    2    0    0  0.62711459067E+02  0.16125558978E+03 -0.14027332687E+03  0.22273908181E+03  0.00000000000E+00 0. -1.
        -15    1    3    3    0    0 -0.11016602429E+02  0.42537367709E+02 -0.26396827252E+03  0.26760642706E+03  0.17770000000E+01 0. -1.
         15    1    3    3    0    0 -0.26278636179E+02  0.14687309114E+02 -0.16873880485E+02  0.34556755346E+02  0.17770000000E+01 0.  1.
</event>
<event>
 7    1  0.5285153E-006  0.5224117E+03  0.7546771E-02  0.9351013E-01
        -11   -1    0    0    0    0  0.00000000000E+00  0.00000000000E+00  0.50000000000E+03  0.50000000000E+03  0.00000000000E+00 0. -1.
         11   -1    0    0    0    0 -0.00000000000E+00 -0.00000000000E+00 -0.50000000000E+03  0.50000000000E+03  0.00000000000E+00 0.  1.
         23    2    1    2    0    0 -0.30876271419E+00  0.36253222312E+02 -0.33391576077E+03  0.34895409965E+03  0.94630000058E+02 0.  0.
        -11    1    1    2    0    0 -0.10427336445E+03  0.48950478225E+01  0.46604044920E+03  0.47758831259E+03  0.00000000000E+00 0. -1.
         11    1    1    2    0    0  0.10458212716E+03 -0.41148270135E+02 -0.13212468843E+03  0.17345758776E+03  0.00000000000E+00 0.  1.
        -15    1    3    3    0    0  0.59478932506E+01 -0.29876628828E+02 -0.15771952194E+03  0.16064431429E+03  0.17770000000E+01 0. -1.
         15    1    3    3    0    0 -0.62566559648E+01  0.66129851140E+02 -0.17619623884E+03  0.18830978537E+03  0.17770000000E+01 0.  1.
</event>
<event>
 7    1  0.5285153E-006  0.3424368E+03  0.7546771E-02  0.9843666E-01
        -11   -1    0    0    0    0  0.00000000000E+00  0.00000000000E+00  0.50000000000E+03  0.50000000000E+03  0.00000000000E+00 0.  1.
         11   -1    0    0    0    0 -0.00000000000E+00 -0.00000000000E+00 -0.50000000000E+03  0.50000000000E+03  0.00000000000E+00 0. -1.
         23    2    1    2    0    0 -0.22502719964E+03  0.10590781854E+03 -0.47566902355E+02  0.26981632581E+03  0.93190841116E+02 0.  0.
        -11    1    1    2    0    0 -0.46035106682E+02 -0.59408526678E+02  0.32853202410E+03  0.33701913143E+03  0.00000000000E+00 0.  1.
         11    1    1    2    0    0  0.27106230632E+03 -0.46499291860E+02 -0.28096512175E+03  0.39316454277E+03  0.00000000000E+00 0. -1.
        -15    1    3    3    0    0 -0.18789815423E+03  0.66323441342E+02 -0.25543231723E+01  0.19928421294E+03  0.17770000000E+01 0.  1.
         15    1    3    3    0    0 -0.37129045412E+02  0.39584377196E+02 -0.45012579182E+02  0.70532112862E+02  0.17770000000E+01 0. -1.
</event>
<event>
 7    1  0.5285153E-006  0.5212049E+03  0.7546771E-02  0.9353574E-01
        -11   -1    0    0    0    0  0.00000000000E+00  0.00000000000E+00  0.50000000000E+03  0.50000000000E+03  0.00000000000E+00 0.  1.
         11   -1    0    0    0    0 -0.00000000000E+00 -0.00000000000E+00 -0.50000000000E+03  0.50000000000E+03  0.00000000000E+00 0. -1.
         23    2    1    2    0    0 -0.72294632694E+01 -0.23130447538E+02 -0.34593111239E+03  0.35865800565E+03  0.91542054571E+02 0.  0.
        -11    1    1    2    0    0  0.11503893007E+03  0.64760468640E+02  0.46023571047E+03  0.47879513670E+03  0.00000000000E+00 0.  1.
         11    1    1    2    0    0 -0.10780946680E+03 -0.41630021102E+02 -0.11430459808E+03  0.16254685765E+03  0.00000000000E+00 0. -1.
        -15    1    3    3    0    0 -0.17557047966E+02  0.32793899809E+02 -0.11826724575E+03  0.12399189064E+03  0.17770000000E+01 0.  1.
         15    1    3    3    0    0  0.10327584697E+02 -0.55924347347E+02 -0.22766386664E+03  0.23466611501E+03  0.17770000000E+01 0. -1.
</event>
<event>
 7    1  0.5285153E-006  0.5276156E+03  0.7546771E-02  0.9340053E-01
        -11   -1    0    0    0    0  0.00000000000E+00  0.00000000000E+00  0.50000000000E+03  0.50000000000E+03  0.00000000000E+00 0.  1.
         11   -1    0    0    0    0 -0.00000000000E+00 -0.00000000000E+00 -0.50000000000E+03  0.50000000000E+03  0.00000000000E+00 0.  1.
         23    2    1    2    0    0  0.36652853614E+02  0.96957626279E+01 -0.30416863000E+03  0.32166060991E+03  0.97516936988E+02 0.  0.
        -11    1    1    2    0    0  0.38963347106E+02 -0.13149100027E+03  0.45203872139E+03  0.47238441042E+03  0.00000000000E+00 0.  1.
         11    1    1    2    0    0 -0.75616200719E+02  0.12179523764E+03 -0.14787009139E+03  0.20595497967E+03  0.00000000000E+00 0.  1.
        -15    1    3    3    0    0 -0.14928213063E+02 -0.32729847900E+02 -0.13647898805E+03  0.14115157242E+03  0.17770000000E+01 0. -1.
         15    1    3    3    0    0  0.51581066677E+02  0.42425610528E+02 -0.16768964195E+03  0.18050903749E+03  0.17770000000E+01 0.  1.
</event>
<event>
 7    1  0.5285153E-006  0.4252153E+03  0.7546771E-02  0.9584698E-01
        -11   -1    0    0    0    0  0.00000000000E+00  0.00000000000E+00  0.50000000000E+03  0.50000000000E+03  0.00000000000E+00 0. -1.
         11   -1    0    0    0    0 -0.00000000000E+00 -0.00000000000E+00 -0.50000000000E+03  0.50000000000E+03  0.00000000000E+00 0. -1.
         23    2    1    2    0    0 -0.91757242682E+02 -0.55417468244E+02 -0.31360415615E+02  0.14226684550E+03  0.88124300216E+02 0.  0.
        -11    1    1    2    0    0  0.71804050705E+02 -0.16742683586E+02  0.43804904495E+03  0.44421065378E+03  0.00000000000E+00 0. -1.
         11    1    1    2    0    0  0.19953191976E+02  0.72160151830E+02 -0.40668862933E+03  0.41352250073E+03  0.00000000000E+00 0. -1.
        -15    1    3    3    0    0 -0.17850851660E+02 -0.60449916046E+02 -0.36670247947E+01  0.63162093496E+02  0.17770000000E+01 0.  1.
         15    1    3    3    0    0 -0.73906391021E+02  0.50324478022E+01 -0.27693390820E+02  0.79104751999E+02  0.17770000000E+01 0. -1.
</event>
<event>
 7    1  0.5285153E-006  0.5243197E+03  0.7546771E-02  0.9346979E-01
        -11   -1    0    0    0    0  0.00000000000E+00  0.00000000000E+00  0.50000000000E+03  0.50000000000E+03  0.00000000000E+00 0.  1.
         11   -1    0    0    0    0 -0.00000000000E+00 -0.00000000000E+00 -0.50000000000E+03  0.50000000000E+03  0.00000000000E+00 0. -1.
         23    2    1    2    0    0 -0.29452155441E+02  0.96091621325E+02  0.12745895165E+03  0.18684447384E+03  0.92542119589E+02 0.  0.
        -11    1    1    2    0    0 -0.11601595564E+03 -0.81027337668E+01  0.31680305301E+03  0.33747522969E+03  0.00000000000E+00 0.  1.
         11    1    1    2    0    0  0.14546811108E+03 -0.87988887558E+02 -0.44426200466E+03  0.47568029648E+03  0.00000000000E+00 0. -1.
        -15    1    3    3    0    0 -0.42774889893E+02  0.41252906226E+02  0.15478338108E+02  0.61434763425E+02  0.17770000000E+01 0. -1.
         15    1    3    3    0    0  0.13322734451E+02  0.54838715098E+02  0.11198061354E+03  0.12540971041E+03  0.17770000000E+01 0.  1.
</event>
<event>
 7    1  0.5285153E-006  0.3427564E+03  0.7546771E-02  0.9842519E-01
        -11   -1    0    0    0    0  0.00000000000E+00  0.00000000000E+00  0.50000000000E+03  0.50000000000E+03  0.00000000000E+00 0. -1.
         11   -1    0    0    0    0 -0.00000000000E+00 -0.00000000000E+00 -0.50000000000E+03  0.50000000000E+03  0.00000000000E+00 0. -1.
         23    2    1    2    0    0  0.24694696197E+03  0.38430181094E+02 -0.41791185710E+02  0.26915528609E+03  0.90765544009E+02 0.  0.
        -11    1    1    2    0    0 -0.56133635951E+02 -0.23318145688E+02  0.35696328123E+03  0.36210151222E+03  0.00000000000E+00 0. -1.
         11    1    1    2    0    0 -0.19081332602E+03 -0.15112035406E+02 -0.31517209552E+03  0.36874320170E+03  0.00000000000E+00 0. -1.
        -15    1    3    3    0    0  0.14159909115E+02  0.78805688516E+00 -0.29779790229E+02  0.33032070703E+02  0.17770000000E+01 0.  1.
         15    1    3    3    0    0  0.23278705286E+03  0.37642124209E+02 -0.12011395481E+02  0.23612321538E+03  0.17770000000E+01 0. -1.
</event>
<event>
 7    1  0.5285153E-006  0.4656750E+03  0.7546771E-02  0.9480070E-01
        -11   -1    0    0    0    0  0.00000000000E+00  0.00000000000E+00  0.50000000000E+03  0.50000000000E+03  0.00000000000E+00 0.  1.
         11   -1    0    0    0    0 -0.00000000000E+00 -0.00000000000E+00 -0.50000000000E+03  0.50000000000E+03  0.00000000000E+00 0. -1.
         23    2    1    2    0    0  0.17138958080E+03 -0.23871913677E+02  0.38934728984E+03  0.43593347810E+03  0.92208614291E+02 0.  0.
        -11    1    1    2    0    0 -0.14435915605E+02 -0.94836772831E+01  0.72818149775E+02  0.74838617911E+02  0.00000000000E+00 0.  1.
         11    1    1    2    0    0 -0.15695366519E+03  0.33355590960E+02 -0.46216543962E+03  0.48922790399E+03  0.00000000000E+00 0. -1.
        -15    1    3    3    0    0  0.15580379310E+03 -0.26240873382E+02  0.38921823344E+03  0.42006832343E+03  0.17770000000E+01 0.  1.
         15    1    3    3    0    0  0.15585787692E+02  0.23689597055E+01  0.12905640834E+00  0.15865154668E+02  0.17770000000E+01 0. -1.
</event>
<event>
 7    1  0.5285153E-006  0.5285340E+03  0.7546771E-02  0.9338133E-01
        -11   -1    0    0    0    0  0.00000000000E+00  0.00000000000E+00  0.50000000000E+03  0.50000000000E+03  0.00000000000E+00 0.  1.
         11   -1    0    0    0    0 -0.00000000000E+00 -0.00000000000E+00 -0.50000000000E+03  0.50000000000E+03  0.00000000000E+00 0. -1.
         23    2    1    2    0    0 -0.21560927857E+02  0.34377062176E+02 -0.26005540659E+03  0.27770197221E+03  0.88560232927E+02 0.  0.
        -11    1    1    2    0    0 -0.22160679652E+02  0.11513591516E+03  0.45665395143E+03  0.47146601790E+03  0.00000000000E+00 0.  1.
         11    1    1    2    0    0  0.43721607508E+02 -0.14951297733E+03 -0.19659854484E+03  0.25083200989E+03  0.00000000000E+00 0. -1.
        -15    1    3    3    0    0  0.30362881171E+02  0.17767849519E+02 -0.15911377825E+03  0.16296611055E+03  0.17770000000E+01 0.  1.
         15    1    3    3    0    0 -0.51923809028E+02  0.16609212658E+02 -0.10094162834E+03  0.11473586166E+03  0.17770000000E+01 0. -1.
</event>
<event>
 7    1  0.5285153E-006  0.3166919E+03  0.7546771E-02  0.9940690E-01
        -11   -1    0    0    0    0  0.00000000000E+00  0.00000000000E+00  0.50000000000E+03  0.50000000000E+03  0.00000000000E+00 0.  1.
         11   -1    0    0    0    0 -0.00000000000E+00 -0.00000000000E+00 -0.50000000000E+03  0.50000000000E+03  0.00000000000E+00 0.  1.
         23    2    1    2    0    0 -0.15049053188E+03 -0.27692553613E+02 -0.33899841062E+03  0.38289358580E+03  0.90957671067E+02 0.  0.
        -11    1    1    2    0    0 -0.12351149988E+03  0.13534426510E+03  0.24922451061E+03  0.30933156546E+03  0.00000000000E+00 0.  1.
         11    1    1    2    0    0  0.27400203176E+03 -0.10765171149E+03  0.89773900011E+02  0.30777484874E+03  0.00000000000E+00 0.  1.
        -15    1    3    3    0    0 -0.15800776260E+03 -0.40292183538E+02 -0.31502999866E+03  0.35473507140E+03  0.17770000000E+01 0.  1.
         15    1    3    3    0    0  0.75172307184E+01  0.12599629924E+02 -0.23968411964E+02  0.28158514396E+02  0.17770000000E+01 0. -1.
</event>
<event>
 7    1  0.5285153E-006  0.5135852E+03  0.7546771E-02  0.9369915E-01
        -11   -1    0    0    0    0  0.00000000000E+00  0.00000000000E+00  0.50000000000E+03  0.50000000000E+03  0.00000000000E+00 0. -1.
         11   -1    0    0    0    0 -0.00000000000E+00 -0.00000000000E+00 -0.50000000000E+03  0.50000000000E+03  0.00000000000E+00 0.  1.
         23    2    1    2    0    0 -0.16131471020E+03  0.27659096389E+02  0.34421766681E+03  0.39038673213E+03  0.84430664680E+02 0.  0.
        -11    1    1    2    0    0 -0.95247162380E+02  0.47336189695E+02  0.62170154035E+02  0.12319847746E+03  0.00000000000E+00 0. -1.
         11    1    1    2    0    0  0.25656187258E+03 -0.74995286083E+02 -0.40638782085E+03  0.48641479041E+03  0.00000000000E+00 0.  1.
        -15    1    3    3    0    0 -0.11239826482E+02  0.31643329401E+02  0.73384695388E+02  0.80722396155E+02  0.17770000000E+01 0.  1.
         15    1    3    3    0    0 -0.15007488372E+03 -0.39842330124E+01  0.27083297142E+03  0.30966433597E+03  0.17770000000E+01 0. -1.
</event>
<event>
 7    1  0.5285153E-006  0.5141833E+03  0.7546771E-02  0.9368621E-01
        -11   -1    0    0    0    0  0.00000000000E+00  0.00000000000E+00  0.50000000000E+03  0.50000000000E+03  0.00000000000E+00 0.  1.
         11   -1    0    0    0    0 -0.00000000000E+00 -0.00000000000E+00 -0.50000000000E+03  0.50000000000E+03  0.00000000000E+00 0.  1.
         23    2    1    2    0    0 -0.50173909940E+02 -0.99248204156E+01  0.12093139169E+03  0.15695931813E+03  0.85999434615E+02 0.  0.
        -11    1    1    2    0    0 -0.58219139437E+02 -0.53018869489E+02  0.34843723182E+03  0.35722398189E+03  0.00000000000E+00 0.  1.
         11    1    1    2    0    0  0.10839304938E+03  0.62943689905E+02 -0.46936862350E+03  0.48581669998E+03  0.00000000000E+00 0.  1.
        -15    1    3    3    0    0 -0.49284938186E+02  0.30488194199E+02  0.57045223640E+02  0.81337877933E+02  0.17770000000E+01 0.  1.
         15    1    3    3    0    0 -0.88897175443E+00 -0.40413014615E+02  0.63886168046E+02  0.75621440198E+02  0.17770000000E+01 0. -1.
</event>
<event>
 7    1  0.5285153E-006  0.3780123E+03  0.7546771E-02  0.9723696E-01
        -11   -1    0    0    0    0  0.00000000000E+00  0.00000000000E+00  0.50000000000E+03  0.50000000000E+03  0.00000000000E+00 0.  1.
         11   -1    0    0    0    0 -0.00000000000E+00 -0.00000000000E+00 -0.50000000000E+03  0.50000000000E+03  0.00000000000E+00 0. -1.
         23    2    1    2    0    0 -0.20191078498E+03  0.31700808919E+01 -0.24995840589E+03  0.33385422203E+03  0.90561704862E+02 0.  0.
        -11    1    1    2    0    0  0.80629029902E+02 -0.17114398849E+02  0.43594659844E+03  0.44367035037E+03  0.00000000000E+00 0.  1.
         11    1    1    2    0    0  0.12128175508E+03  0.13944317957E+02 -0.18598819255E+03  0.22247542760E+03  0.00000000000E+00 0. -1.
        -15    1    3    3    0    0 -0.16833357788E+03  0.29822561746E+02 -0.15985368513E+03  0.23405541440E+03  0.17770000000E+01 0.  1.
         15    1    3    3    0    0 -0.33577207102E+02 -0.26652480854E+02 -0.90104720762E+02  0.99798807633E+02  0.17770000000E+01 0. -1.
</event>
<event>
 7    1  0.5285153E-006  0.4539045E+03  0.7546771E-02  0.9509304E-01
        -11   -1    0    0    0    0  0.00000000000E+00  0.00000000000E+00  0.50000000000E+03  0.50000000000E+03  0.00000000000E+00 0.  1.
         11   -1    0    0    0    0 -0.00000000000E+00 -0.00000000000E+00 -0.50000000000E+03  0.50000000000E+03  0.00000000000E+00 0.  1.
         23    2    1    2    0    0 -0.38676616901E+02 -0.10372305593E+03 -0.45532059914E+03  0.47700970675E+03  0.89258385064E+02 0.  0.
        -11    1    1    2    0    0 -0.27318537903E+02  0.14635694791E+03  0.40024826288E+03  0.42704253963E+03  0.00000000000E+00 0.  1.
         11    1    1    2    0    0  0.65995154804E+02 -0.42633891979E+02  0.55072336261E+02  0.95947753617E+02  0.00000000000E+00 0.  1.
        -15    1    3    3    0    0  0.13855396889E+02  0.94410524626E+01 -0.69431221586E+02  0.71448987078E+02  0.17770000000E+01 0. -1.
         15    1    3    3    0    0 -0.52532013790E+02 -0.11316410840E+03 -0.38588937756E+03  0.40556071967E+03  0.17770000000E+01 0.  1.
</event>
<event>
 6    1  0.5285153E-006  0.3740438E+03  0.7546771E-02  0.9736364E-01
        -11   -1    0    0    0    0  0.00000000000E+00  0.00000000000E+00  0.50000000000E+03  0.50000000000E+03  0.00000000000E+00 0. -1.
         11   -1    0    0    0    0 -0.00000000000E+00 -0.00000000000E+00 -0.50000000000E+03  0.50000000000E+03  0.00000000000E+00 0.  1.
        -11    1    1    2    0    0  0.16653754804E+03  0.85732906093E+02  0.37311478387E+03  0.41749194966E+03  0.00000000000E+00 0. -1.
         11    1    1    2    0    0 -0.10791244737E+03 -0.19614687088E+03 -0.78469329123E+02  0.23722589838E+03  0.00000000000E+00 0.  1.
        -15    1    1    2    0    0 -0.92346171775E+02  0.10859788774E+03 -0.26201743599E+03  0.29829115165E+03  0.17770000000E+01 0. -1.
         15    1    1    2    0    0  0.33721071102E+02  0.18160770429E+01 -0.32628018757E+02  0.46991000299E+02  0.17770000000E+01 0.  1.
</event>
<event>
 7    1  0.5285153E-006  0.5110548E+03  0.7546771E-02  0.9375408E-01
        -11   -1    0    0    0    0  0.00000000000E+00  0.00000000000E+00  0.50000000000E+03  0.50000000000E+03  0.00000000000E+00 0. -1.
         11   -1    0    0    0    0 -0.00000000000E+00 -0.00000000000E+00 -0.50000000000E+03  0.50000000000E+03  0.00000000000E+00 0.  1.
         23    2    1    2    0    0  0.41984731072E+02 -0.10229713732E+03  0.17113580620E+03  0.22420939721E+03  0.93567984311E+02 0.  0.
        -11    1    1    2    0    0  0.58282124420E+02 -0.18285236112E+03  0.21318657402E+03  0.28684544155E+03  0.00000000000E+00 0. -1.
         11    1    1    2    0    0 -0.10026685549E+03  0.28514949844E+03 -0.38432238022E+03  0.48894516124E+03  0.00000000000E+00 0.  1.
        -15    1    3    3    0    0  0.70946473683E+02 -0.65820729792E+02  0.12975819293E+03  0.16188303481E+03  0.17770000000E+01 0. -1.
         15    1    3    3    0    0 -0.28961742611E+02 -0.36476407525E+02  0.41377613262E+02  0.62326362394E+02  0.17770000000E+01 0.  1.
</event>
<event>
 7    1  0.5285153E-006  0.3428812E+03  0.7546771E-02  0.9842072E-01
        -11   -1    0    0    0    0  0.00000000000E+00  0.00000000000E+00  0.50000000000E+03  0.50000000000E+03  0.00000000000E+00 0. -1.
         11   -1    0    0    0    0 -0.00000000000E+00 -0.00000000000E+00 -0.50000000000E+03  0.50000000000E+03  0.00000000000E+00 0. -1.
         23    2    1    2    0    0  0.63868451518E+02  0.73618219446E+02 -0.23426216597E+03  0.26880389915E+03  0.88757830419E+02 0.  0.
        -11    1    1    2    0    0  0.13492323955E+03 -0.18491661526E+03  0.39210536094E+03  0.45403199144E+03  0.00000000000E+00 0. -1.
         11    1    1    2    0    0 -0.19879169106E+03  0.11129839581E+03 -0.15784319497E+03  0.27716410941E+03  0.00000000000E+00 0. -1.
        -15    1    3    3    0    0  0.75094224767E+02  0.27006461107E+02 -0.11259760621E+03  0.13802126716E+03  0.17770000000E+01 0.  1.
         15    1    3    3    0    0 -0.11225773249E+02  0.46611758339E+02 -0.12166455976E+03  0.13078263199E+03  0.17770000000E+01 0. -1.
</event>
<event>
 7    1  0.5285153E-006  0.3621134E+03  0.7546771E-02  0.9775483E-01
        -11   -1    0    0    0    0  0.00000000000E+00  0.00000000000E+00  0.50000000000E+03  0.50000000000E+03  0.00000000000E+00 0. -1.
         11   -1    0    0    0    0 -0.00000000000E+00 -0.00000000000E+00 -0.50000000000E+03  0.50000000000E+03  0.00000000000E+00 0. -1.
         23    2    1    2    0    0  0.50108691895E+01  0.13668327662E+03 -0.30094584633E+03  0.34289771432E+03  0.91120871076E+02 0.  0.
        -11    1    1    2    0    0 -0.22364843780E+03 -0.31915542000E+02  0.34332236901E+03  0.41098354543E+03  0.00000000000E+00 0. -1.
         11    1    1    2    0    0  0.21863756861E+03 -0.10476773462E+03 -0.42376522688E+02  0.24611874025E+03  0.00000000000E+00 0. -1.
        -15    1    3    3    0    0 -0.37820349275E+02  0.79735211837E+02 -0.12465520644E+03  0.15274213907E+03  0.17770000000E+01 0.  1.
         15    1    3    3    0    0  0.42831218464E+02  0.56948064783E+02 -0.17629063988E+03  0.19015557524E+03  0.17770000000E+01 0. -1.
</event>
<event>
 7    1  0.5285153E-006  0.5034060E+03  0.7546771E-02  0.9392221E-01
        -11   -1    0    0    0    0  0.00000000000E+00  0.00000000000E+00  0.50000000000E+03  0.50000000000E+03  0.00000000000E+00 0. -1.
         11   -1    0    0    0    0 -0.00000000000E+00 -0.00000000000E+00 -0.50000000000E+03  0.50000000000E+03  0.00000000000E+00 0.  1.
         23    2    1    2    0    0  0.10131655693E+03 -0.16088205416E+03 -0.44979137765E+03  0.49659400740E+03  0.90251009493E+02 0.  0.
        -11    1    1    2    0    0 -0.57966692776E+02  0.33671154077E+02  0.27425721173E+03  0.28233119253E+03  0.00000000000E+00 0. -1.
         11    1    1    2    0    0 -0.43349864156E+02  0.12721090008E+03  0.17553416592E+03  0.22107480007E+03  0.00000000000E+00 0.  1.
        -15    1    3    3    0    0  0.88125204522E+01 -0.97387702092E+02 -0.19342225380E+03  0.21674259164E+03  0.17770000000E+01 0. -1.
         15    1    3    3    0    0  0.92504036480E+02 -0.63494352063E+02 -0.25636912386E+03  0.27985141576E+03  0.17770000000E+01 0.  1.
</event>
<event>
 7    1  0.5285153E-006  0.4659462E+03  0.7546771E-02  0.9479407E-01
        -11   -1    0    0    0    0  0.00000000000E+00  0.00000000000E+00  0.50000000000E+03  0.50000000000E+03  0.00000000000E+00 0.  1.
         11   -1    0    0    0    0 -0.00000000000E+00 -0.00000000000E+00 -0.50000000000E+03  0.50000000000E+03  0.00000000000E+00 0. -1.
         23    2    1    2    0    0  0.94671089745E+02 -0.94284185476E+02 -0.43164020684E+03  0.46025168828E+03  0.87556984559E+02 0.  0.
        -11    1    1    2    0    0 -0.10145196932E+03  0.24743273190E+02  0.45441514067E+03  0.46625942534E+03  0.00000000000E+00 0.  1.
         11    1    1    2    0    0  0.67808795783E+01  0.69540912286E+02 -0.22774933837E+02  0.73488886376E+02  0.00000000000E+00 0. -1.
        -15    1    3    3    0    0  0.65796373013E+02 -0.10803147487E+03 -0.31967744580E+03  0.34379759939E+03  0.17770000000E+01 0. -1.
         15    1    3    3    0    0  0.28874716732E+02  0.13747289393E+02 -0.11196276104E+03  0.11645408889E+03  0.17770000000E+01 0.  1.
</event>
<event>
 7    1  0.5285153E-006  0.5121598E+03  0.7546771E-02  0.9373005E-01
        -11   -1    0    0    0    0  0.00000000000E+00  0.00000000000E+00  0.50000000000E+03  0.50000000000E+03  0.00000000000E+00 0.  1.
         11   -1    0    0    0    0 -0.00000000000E+00 -0.00000000000E+00 -0.50000000000E+03  0.50000000000E+03  0.00000000000E+00 0. -1.
         23    2    1    2    0    0 -0.19830979575E+03 -0.30325517500E+02  0.10285508071E+03  0.24281830929E+03  0.90195075248E+02 0.  0.
        -11    1    1    2    0    0 -0.18144461790E+03 -0.64199282470E+02  0.18841747515E+03  0.26934149731E+03  0.00000000000E+00 0.  1.
         11    1    1    2    0    0  0.37975441364E+03  0.94524799970E+02 -0.29127255586E+03  0.48784019339E+03  0.00000000000E+00 0. -1.
        -15    1    3    3    0    0 -0.60356274735E+02  0.25875367368E+02  0.56926342730E+02  0.86926294997E+02  0.17770000000E+01 0. -1.
         15    1    3    3    0    0 -0.13795352101E+03 -0.56200884868E+02  0.45928737977E+02  0.15589201430E+03  0.17770000000E+01 0.  1.
</event>
<event>
 7    1  0.5285153E-006  0.3621004E+03  0.7546771E-02  0.9775527E-01
        -11   -1    0    0    0    0  0.00000000000E+00  0.00000000000E+00  0.50000000000E+03  0.50000000000E+03  0.00000000000E+00 0. -1.
         11   -1    0    0    0    0 -0.00000000000E+00 -0.00000000000E+00 -0.50000000000E+03  0.50000000000E+03  0.00000000000E+00 0. -1.
         23    2    1    2    0    0 -0.38082890390E+00  0.68659228758E+02 -0.21245507399E+03  0.24216215864E+03  0.93760961445E+02 0.  0.
        -11    1    1    2    0    0  0.33726887081E+02  0.32676098527E+03  0.67447979226E+02  0.33534977905E+03  0.00000000000E+00 0. -1.
         11    1    1    2    0    0 -0.33346058177E+02 -0.39542021403E+03  0.14500709476E+03  0.42248806231E+03  0.00000000000E+00 0. -1.
        -15    1    3    3    0    0 -0.44152390042E+02  0.54405339493E+02 -0.12453499193E+03  0.14290380141E+03  0.17770000000E+01 0. -1.
         15    1    3    3    0    0  0.43771561138E+02  0.14253889266E+02 -0.87920082054E+02  0.99258357236E+02  0.17770000000E+01 0.  1.
</event>
<event>
 7    1  0.5285153E-006  0.5219081E+03  0.7546771E-02  0.9352080E-01
        -11   -1    0    0    0    0  0.00000000000E+00  0.00000000000E+00  0.50000000000E+03  0.50000000000E+03  0.00000000000E+00 0.  1.
         11   -1    0    0    0    0 -0.00000000000E+00 -0.00000000000E+00 -0.50000000000E+03  0.50000000000E+03  0.00000000000E+00 0. -1.
         23    2    1    2    0    0  0.27208898311E+02  0.84124813944E+01 -0.39025495689E+03  0.40246180071E+03  0.94156654928E+02 0.  0.
        -11    1    1    2    0    0 -0.88174110847E+02  0.61069013065E+02  0.46590533465E+03  0.47809191484E+03  0.00000000000E+00 0.  1.
         11    1    1    2    0    0  0.60965212536E+02 -0.69481494460E+02 -0.75650377762E+02  0.11944628444E+03  0.00000000000E+00 0. -1.
        -15    1    3    3    0    0 -0.31332624677E+02 -0.39148057645E+01 -0.72178650106E+02  0.78803390368E+02  0.17770000000E+01 0.  1.
         15    1    3    3    0    0  0.58541522987E+02  0.12327287159E+02 -0.31807630678E+03  0.32365841035E+03  0.17770000000E+01 0. -1.
</event>
<event>
 7    1  0.5285153E-006  0.4732034E+03  0.7546771E-02  0.9461850E-01
        -11   -1    0    0    0    0  0.00000000000E+00  0.00000000000E+00  0.50000000000E+03  0.50000000000E+03  0.00000000000E+00 0. -1.
         11   -1    0    0    0    0 -0.00000000000E+00 -0.00000000000E+00 -0.50000000000E+03  0.50000000000E+03  0.00000000000E+00 0.  1.
         23    2    1    2    0    0 -0.49458950919E+02 -0.12604559981E+03 -0.41365795953E+03  0.44459412711E+03  0.90649596388E+02 0.  0.
        -11    1    1    2    0    0  0.65596285326E+02  0.14477394534E+03  0.46878104642E+03  0.49499296701E+03  0.00000000000E+00 0. -1.
         11    1    1    2    0    0 -0.16137334407E+02 -0.18728345530E+02 -0.55123086896E+02  0.60412905881E+02  0.00000000000E+00 0.  1.
        -15    1    3    3    0    0 -0.20190803695E+02 -0.10396492239E+03 -0.38104375354E+03  0.39549193858E+03  0.17770000000E+01 0.  1.
         15    1    3    3    0    0 -0.29268147224E+02 -0.22080677425E+02 -0.32614205983E+02  0.49102188530E+02  0.17770000000E+01 0. -1.
</event>
<event>
 7    1  0.5285153E-006  0.3169419E+03  0.7546771E-02  0.9939701E-01
        -11   -1    0    0    0    0  0.00000000000E+00  0.00000000000E+00  0.50000000000E+03  0.50000000000E+03  0.00000000000E+00 0.  1.
         11   -1    0    0    0    0 -0.00000000000E+00 -0.00000000000E+00 -0.50000000000E+03  0.50000000000E+03  0.00000000000E+00 0. -1.
         23    2    1    2    0    0  0.69517932115E+02  0.25537188298E+03 -0.11067425298E+03  0.30422347909E+03  0.10126990401E+03 0.  0.
        -11    1    1    2    0    0  0.50583837776E+02 -0.25703793726E+02  0.34303218080E+03  0.34769309272E+03  0.00000000000E+00 0.  1.
         11    1    1    2    0    0 -0.12010176989E+03 -0.22966808926E+03 -0.23235792783E+03  0.34808342819E+03  0.00000000000E+00 0. -1.
        -15    1    3    3    0    0  0.33988778260E+02  0.10476368077E+02 -0.18667891756E+02  0.40207452634E+02  0.17770000000E+01 0. -1.
         15    1    3    3    0    0  0.35529153855E+02  0.24489551490E+03 -0.92006361219E+02  0.26401602646E+03  0.17770000000E+01 0.  1.
</event>
<event>
 7    1  0.5285153E-006  0.5104455E+03  0.7546771E-02  0.9376736E-01
        -11   -1    0    0    0    0  0.00000000000E+00  0.00000000000E+00  0.50000000000E+03  0.50000000000E+03  0.00000000000E+00 0.  1.
         11   -1    0    0    0    0 -0.00000000000E+00 -0.00000000000E+00 -0.50000000000E+03  0.50000000000E+03  0.00000000000E+00 0.  1.
         23    2    1    2    0    0  0.13211081094E+03  0.88944340109E+02  0.10754782852E+03  0.21292816981E+03  0.91692464643E+02 0.  0.
        -11    1    1    2    0    0  0.21345174639E+03  0.13736788582E+03  0.15519333059E+03  0.29751731706E+03  0.00000000000E+00 0.  1.
         11    1    1    2    0    0 -0.34556255734E+03 -0.22631222593E+03 -0.26274115911E+03  0.48955451313E+03  0.00000000000E+00 0.  1.
        -15    1    3    3    0    0  0.40673775237E+02  0.82380327225E+02  0.58676322851E+02  0.10902725759E+03  0.17770000000E+01 0. -1.
         15    1    3    3    0    0  0.91437035704E+02  0.65640128842E+01  0.48871505673E+02  0.10390091222E+03  0.17770000000E+01 0.  1.
</event>
<event>
 7    1  0.5285153E-006  0.5030942E+03  0.7546771E-02  0.9392913E-01
        -11   -1    0    0    0    0  0.00000000000E+00  0.00000000000E+00  0.50000000000E+03  0.50000000000E+03  0.00000000000E+00 0.  1.
         11   -1    0    0    0    0 -0.00000000000E+00 -0.00000000000E+00 -0.50000000000E+03  0.50000000000E+03  0.00000000000E+00 0.  1.
         23    2    1    2    0    0  0.12634690379E+03 -0.21357043567E+03 -0.42811321803E+03  0.50309417224E+03  0.90812706177E+02 0.  0.
        -11    1    1    2    0    0 -0.97132054645E+01  0.30577644655E+02  0.85838051782E+02  0.91637927992E+02  0.00000000000E+00 0.  1.
         11    1    1    2    0    0 -0.11663369832E+03  0.18299279101E+03  0.34227516625E+03  0.40526789976E+03  0.00000000000E+00 0.  1.
        -15    1    3    3    0    0  0.76966197107E+02 -0.19793888108E+03 -0.34713436221E+03  0.40695088069E+03  0.17770000000E+01 0.  1.
         15    1    3    3    0    0  0.49380706680E+02 -0.15631554589E+02 -0.80978855825E+02  0.96143291554E+02  0.17770000000E+01 0. -1.
</event>
<event>
 7    1  0.5285153E-006  0.4840313E+03  0.7546771E-02  0.9436267E-01
        -11   -1    0    0    0    0  0.00000000000E+00  0.00000000000E+00  0.50000000000E+03  0.50000000000E+03  0.00000000000E+00 0.  1.
         11   -1    0    0    0    0 -0.00000000000E+00 -0.00000000000E+00 -0.50000000000E+03  0.50000000000E+03  0.00000000000E+00 0. -1.
         23    2    1    2    0    0 -0.18637388407E+02 -0.10007873784E+03  0.44427172632E+03  0.46510913453E+03  0.92660855818E+02 0.  0.
        -11    1    1    2    0    0 -0.10351084863E+02 -0.55174177895E+01  0.38297525901E+02  0.40053555985E+02  0.00000000000E+00 0.  1.
         11    1    1    2    0    0  0.28988473271E+02  0.10559615563E+03 -0.48256925222E+03  0.49483730948E+03  0.00000000000E+00 0. -1.
        -15    1    3    3    0    0 -0.13995787753E+02  0.14152539528E+02  0.36523510747E+02  0.41632931871E+02  0.17770000000E+01 0.  1.
         15    1    3    3    0    0 -0.46416006542E+01 -0.11423127736E+03  0.40774821558E+03  0.42347620266E+03  0.17770000000E+01 0. -1.
</event>
<event>
 7    1  0.5285153E-006  0.5160193E+03  0.7546771E-02  0.9364662E-01
        -11   -1    0    0    0    0  0.00000000000E+00  0.00000000000E+00  0.50000000000E+03  0.50000000000E+03  0.00000000000E+00 0. -1.
         11   -1    0    0    0    0 -0.00000000000E+00 -0.00000000000E+00 -0.50000000000E+03  0.50000000000E+03  0.00000000000E+00 0.  1.
         23    2    1    2    0    0 -0.45146545421E+02  0.75515889788E+01 -0.32995113790E+03  0.34569520650E+03  0.92423943550E+02 0.  0.
        -11    1    1    2    0    0  0.84467426904E+02 -0.10328584790E+03  0.46522534491E+03  0.48398071670E+03  0.00000000000E+00 0. -1.
         11    1    1    2    0    0 -0.39320881482E+02  0.95734258925E+02 -0.13527420702E+03  0.17032407680E+03  0.00000000000E+00 0.  1.
        -15    1    3    3    0    0  0.91897842252E+01 -0.69349705993E+01 -0.69848806835E+00  0.11670114220E+02  0.17770000000E+01 0. -1.
         15    1    3    3    0    0 -0.54336329647E+02  0.14486559578E+02 -0.32925264983E+03  0.33402509228E+03  0.17770000000E+01 0.  1.
</event>
<event>
 7    1  0.5285153E-006  0.5231444E+03  0.7546771E-02  0.9349461E-01
        -11   -1    0    0    0    0  0.00000000000E+00  0.00000000000E+00  0.50000000000E+03  0.50000000000E+03  0.00000000000E+00 0.  1.
         11   -1    0    0    0    0 -0.00000000000E+00 -0.00000000000E+00 -0.50000000000E+03  0.50000000000E+03  0.00000000000E+00 0.  1.
         23    2    1    2    0    0  0.18097645704E+03  0.32307121436E+03 -0.82969792584E+02  0.39021706415E+03  0.90872895389E+02 0.  0.
        -11    1    1    2    0    0  0.29535089993E+02  0.10475111370E+03  0.76318747228E+02  0.13292730547E+03  0.00000000000E+00 0.  1.
         11    1    1    2    0    0 -0.21051154704E+03 -0.42782232806E+03  0.66510453551E+01  0.47685563038E+03  0.00000000000E+00 0.  1.
        -15    1    3    3    0    0  0.12294414166E+02  0.88026904993E+02  0.12027007750E+01  0.88907214783E+02  0.17770000000E+01 0. -1.
         15    1    3    3    0    0  0.16868204288E+03  0.23504430937E+03 -0.84172493359E+02  0.30130984936E+03  0.17770000000E+01 0.  1.
</event>
<event>
 7    1  0.5285153E-006  0.3416940E+03  0.7546771E-02  0.9846335E-01
        -11   -1    0    0    0    0  0.00000000000E+00  0.00000000000E+00  0.50000000000E+03  0.50000000000E+03  0.00000000000E+00 0. -1.
         11   -1    0    0    0    0 -0.00000000000E+00 -0.00000000000E+00 -0.50000000000E+03  0.50000000000E+03  0.00000000000E+00 0.  1.
         23    2    1    2    0    0  0.10061586590E+03 -0.11237050877E+03 -0.22114737515E+03  0.28291705091E+03  0.91570805634E+02 0.  0.
        -11    1    1    2    0    0 -0.20108693061E+03 -0.84614386004E+02  0.38455513872E+03  0.44212916970E+03  0.00000000000E+00 0. -1.
         11    1    1    2    0    0  0.10047106471E+03  0.19698489477E+03 -0.16340776357E+03  0.27495377940E+03  0.00000000000E+00 0.  1.
        -15    1    3    3    0    0  0.60978240796E+02 -0.96590902007E+02 -0.91342945751E+02  0.14626974967E+03  0.17770000000E+01 0.  1.
         15    1    3    3    0    0  0.39637625104E+02 -0.15779606761E+02 -0.12980442940E+03  0.13664730124E+03  0.17770000000E+01 0. -1.
</event>
<event>
 7    1  0.5285153E-006  0.4968028E+03  0.7546771E-02  0.9406992E-01
        -11   -1    0    0    0    0  0.00000000000E+00  0.00000000000E+00  0.50000000000E+03  0.50000000000E+03  0.00000000000E+00 0.  1.
         11   -1    0    0    0    0 -0.00000000000E+00 -0.00000000000E+00 -0.50000000000E+03  0.50000000000E+03  0.00000000000E+00 0. -1.
         23    2    1    2    0    0 -0.70590324030E+01  0.75920891521E+02 -0.47857320530E+03  0.49327373983E+03  0.92048128028E+02 0.  0.
        -11    1    1    2    0    0 -0.45705860514E+01 -0.82814824771E+02  0.48479864274E+03  0.49184236241E+03  0.00000000000E+00 0.  1.
         11    1    1    2    0    0  0.11629618454E+02  0.68939332504E+01 -0.62254374446E+01  0.14883897757E+02  0.00000000000E+00 0. -1.
        -15    1    3    3    0    0  0.19709816190E+02 -0.13544401889E+02 -0.14066906964E+03  0.14269853734E+03  0.17770000000E+01 0.  1.
         15    1    3    3    0    0 -0.26768848593E+02  0.89465293410E+02 -0.33790413566E+03  0.35057520249E+03  0.17770000000E+01 0. -1.
</event>
<event>
 7    1  0.5285153E-006  0.5098193E+03  0.7546771E-02  0.9378102E-01
        -11   -1    0    0    0    0  0.00000000000E+00  0.00000000000E+00  0.50000000000E+03  0.50000000000E+03  0.00000000000E+00 0. -1.
         11   -1    0    0    0    0 -0.00000000000E+00 -0.00000000000E+00 -0.50000000000E+03  0.50000000000E+03  0.00000000000E+00 0. -1.
         23    2    1    2    0    0  0.30187285348E+02 -0.62404062674E+02 -0.18489210932E+03  0.20951743937E+03  0.70049454514E+02 0.  0.
        -11    1    1    2    0    0 -0.62751936488E+01  0.23069600522E+03  0.43245472068E+03  0.49018069150E+03  0.00000000000E+00 0. -1.
         11    1    1    2    0    0 -0.23912091699E+02 -0.16829194255E+03 -0.24756261137E+03  0.30030186913E+03  0.00000000000E+00 0. -1.
        -15    1    3    3    0    0 -0.15803783439E+02 -0.12184413091E+01 -0.67539518583E+02  0.69397323216E+02  0.17770000000E+01 0. -1.
         15    1    3    3    0    0  0.45991068787E+02 -0.61185621364E+02 -0.11735259073E+03  0.14012011615E+03  0.17770000000E+01 0.  1.
</event>
<event>
 7    1  0.5285153E-006  0.4279987E+03  0.7546771E-02  0.9577109E-01
        -11   -1    0    0    0    0  0.00000000000E+00  0.00000000000E+00  0.50000000000E+03  0.50000000000E+03  0.00000000000E+00 0.  1.
         11   -1    0    0    0    0 -0.00000000000E+00 -0.00000000000E+00 -0.50000000000E+03  0.50000000000E+03  0.00000000000E+00 0. -1.
         23    2    1    2    0    0  0.16893840156E+03 -0.99992547511E+02 -0.32919532060E+03  0.39306071959E+03  0.87111865465E+02 0.  0.
        -11    1    1    2    0    0 -0.14486279868E+03  0.23040159728E+03  0.37786819767E+03  0.46567639116E+03  0.00000000000E+00 0.  1.
         11    1    1    2    0    0 -0.24075602883E+02 -0.13040904977E+03 -0.48672877070E+02  0.14126288925E+03  0.00000000000E+00 0. -1.
        -15    1    3    3    0    0  0.74589971216E+02 -0.85528820941E+02 -0.22327184820E+03  0.25046420691E+03  0.17770000000E+01 0.  1.
         15    1    3    3    0    0  0.94348430343E+02 -0.14463726570E+02 -0.10592347240E+03  0.14259651268E+03  0.17770000000E+01 0. -1.
</event>
<event>
 7    1  0.5285153E-006  0.3544548E+03  0.7546771E-02  0.9801456E-01
        -11   -1    0    0    0    0  0.00000000000E+00  0.00000000000E+00  0.50000000000E+03  0.50000000000E+03  0.00000000000E+00 0. -1.
         11   -1    0    0    0    0 -0.00000000000E+00 -0.00000000000E+00 -0.50000000000E+03  0.50000000000E+03  0.00000000000E+00 0.  1.
         23    2    1    2    0    0 -0.85199970003E+02 -0.10594732495E+03 -0.43686493301E+03  0.46535026347E+03  0.84947203978E+02 0.  0.
        -11    1    1    2    0    0 -0.50788489223E+02 -0.34718044019E+02  0.27178080934E+03  0.27865681679E+03  0.00000000000E+00 0. -1.
         11    1    1    2    0    0  0.13598845923E+03  0.14066536897E+03  0.16508412367E+03  0.25599291974E+03  0.00000000000E+00 0.  1.
        -15    1    3    3    0    0 -0.90329615049E+02 -0.11517464720E+03 -0.37485116203E+03  0.40241917216E+03  0.17770000000E+01 0.  1.
         15    1    3    3    0    0  0.51296450459E+01  0.92273222449E+01 -0.62013770975E+02  0.62931091312E+02  0.17770000000E+01 0. -1.
</event>
<event>
 7    1  0.5285153E-006  0.5372079E+03  0.7546771E-02  0.9320199E-01
        -11   -1    0    0    0    0  0.00000000000E+00  0.00000000000E+00  0.50000000000E+03  0.50000000000E+03  0.00000000000E+00 0.  1.
         11   -1    0    0    0    0 -0.00000000000E+00 -0.00000000000E+00 -0.50000000000E+03  0.50000000000E+03  0.00000000000E+00 0. -1.
         23    2    1    2    0    0  0.20299582882E+01 -0.39873651172E+01  0.34254765104E+02  0.95472351452E+02  0.89003152463E+02 0.  0.
        -11    1    1    2    0    0 -0.34091626103E+03  0.95062277059E+00  0.28090128855E+03  0.44173559357E+03  0.00000000000E+00 0.  1.
         11    1    1    2    0    0  0.33888630274E+03  0.30367423466E+01 -0.31515605366E+03  0.46279205497E+03  0.00000000000E+00 0. -1.
        -15    1    3    3    0    0  0.30139052315E+02 -0.22310149923E+02 -0.10989776495E+02  0.39115702479E+02  0.17770000000E+01 0. -1.
         15    1    3    3    0    0 -0.28109094027E+02  0.18322784806E+02  0.45244541598E+02  0.56356648973E+02  0.17770000000E+01 0.  1.
</event>
<event>
 7    1  0.5285153E-006  0.5342249E+03  0.7546771E-02  0.9326326E-01
        -11   -1    0    0    0    0  0.00000000000E+00  0.00000000000E+00  0.50000000000E+03  0.50000000000E+03  0.00000000000E+00 0.  1.
         11   -1    0    0    0    0 -0.00000000000E+00 -0.00000000000E+00 -0.50000000000E+03  0.50000000000E+03  0.00000000000E+00 0. -1.
         23    2    1    2    0    0 -0.50452324495E+02 -0.88224329794E+01 -0.15433342453E+03  0.19164765656E+03  0.10142359671E+03 0.  0.
        -11    1    1    2    0    0  0.28475961256E+03  0.20954024094E+03  0.30323475685E+03  0.46577512522E+03  0.00000000000E+00 0.  1.
         11    1    1    2    0    0 -0.23430728807E+03 -0.20071780796E+03 -0.14890133232E+03  0.34257721821E+03  0.00000000000E+00 0. -1.
        -15    1    3    3    0    0 -0.62780675211E+02 -0.22701182297E+02 -0.15897304493E+03  0.17243069217E+03  0.17770000000E+01 0.  1.
         15    1    3    3    0    0  0.12328350716E+02  0.13878749318E+02  0.46396204054E+01  0.19216964394E+02  0.17770000000E+01 0. -1.
</event>
<event>
 7    1  0.5285153E-006  0.5123934E+03  0.7546771E-02  0.9372498E-01
        -11   -1    0    0    0    0  0.00000000000E+00  0.00000000000E+00  0.50000000000E+03  0.50000000000E+03  0.00000000000E+00 0.  1.
         11   -1    0    0    0    0 -0.00000000000E+00 -0.00000000000E+00 -0.50000000000E+03  0.50000000000E+03  0.00000000000E+00 0. -1.
         23    2    1    2    0    0  0.11314000839E+02  0.35372253333E+02 -0.34558668809E+03  0.35923496607E+03  0.90776643146E+02 0.  0.
        -11    1    1    2    0    0 -0.87462004759E+02 -0.63327897983E+02  0.47549995707E+03  0.48760663871E+03  0.00000000000E+00 0.  1.
         11    1    1    2    0    0  0.76148003920E+02  0.27955644650E+02 -0.12991326898E+03  0.15315839522E+03  0.00000000000E+00 0. -1.
        -15    1    3    3    0    0  0.81304384783E+01 -0.29145787866E+02 -0.71997850943E+02  0.78118046887E+02  0.17770000000E+01 0.  1.
         15    1    3    3    0    0  0.31835623608E+01  0.64518041199E+02 -0.27358883715E+03  0.28111691918E+03  0.17770000000E+01 0. -1.
</event>
<event>
 7    1  0.5285153E-006  0.4694682E+03  0.7546771E-02  0.9470844E-01
        -11   -1    0    0    0    0  0.00000000000E+00  0.00000000000E+00  0.50000000000E+03  0.50000000000E+03  0.00000000000E+00 0.  1.
         11   -1    0    0    0    0 -0.00000000000E+00 -0.00000000000E+00 -0.50000000000E+03  0.50000000000E+03  0.00000000000E+00 0. -1.
         23    2    1    2    0    0  0.13205310541E+03 -0.18702950145E+03 -0.40455181386E+03  0.47348349277E+03  0.90035497297E+02 0.  0.
        -11    1    1    2    0    0 -0.67473818610E+02  0.20612531031E+03  0.40472136344E+03  0.45917288877E+03  0.00000000000E+00 0.  1.
         11    1    1    2    0    0 -0.64579286805E+02 -0.19095808863E+02 -0.16954958886E+00  0.67343618461E+02  0.00000000000E+00 0. -1.
        -15    1    3    3    0    0  0.82568497166E+02 -0.15486731462E+03 -0.35647921702E+03  0.39734371991E+03  0.17770000000E+01 0. -1.
         15    1    3    3    0    0  0.49484608249E+02 -0.32162186834E+02 -0.48072596838E+02  0.76139772860E+02  0.17770000000E+01 0.  1.
</event>
<event>
 7    1  0.5285153E-006  0.5177445E+03  0.7546771E-02  0.9360958E-01
        -11   -1    0    0    0    0  0.00000000000E+00  0.00000000000E+00  0.50000000000E+03  0.50000000000E+03  0.00000000000E+00 0.  1.
         11   -1    0    0    0    0 -0.00000000000E+00 -0.00000000000E+00 -0.50000000000E+03  0.50000000000E+03  0.00000000000E+00 0. -1.
         23    2    1    2    0    0 -0.15705235874E+02 -0.40671168728E+02  0.92681327229E+02  0.13653186729E+03  0.90279144704E+02 0.  0.
        -11    1    1    2    0    0  0.54495448701E+01 -0.17971459997E+03  0.33614882874E+03  0.38121263102E+03  0.00000000000E+00 0.  1.
         11    1    1    2    0    0  0.10255691004E+02  0.22038576870E+03 -0.42883015597E+03  0.48225550169E+03  0.00000000000E+00 0. -1.
        -15    1    3    3    0    0 -0.40272303310E+02 -0.17633644037E+02  0.71308295726E+01  0.44573650011E+02  0.17770000000E+01 0. -1.
         15    1    3    3    0    0  0.24567067436E+02 -0.23037524691E+02  0.85550497656E+02  0.91958217276E+02  0.17770000000E+01 0.  1.
</event>
<event>
 7    1  0.5285153E-006  0.4766016E+03  0.7546771E-02  0.9453743E-01
        -11   -1    0    0    0    0  0.00000000000E+00  0.00000000000E+00  0.50000000000E+03  0.50000000000E+03  0.00000000000E+00 0.  1.
         11   -1    0    0    0    0 -0.00000000000E+00 -0.00000000000E+00 -0.50000000000E+03  0.50000000000E+03  0.00000000000E+00 0. -1.
         23    2    1    2    0    0  0.25954043642E+02  0.54900180591E+02 -0.44917007623E+03  0.46240264757E+03  0.91513981956E+02 0.  0.
        -11    1    1    2    0    0 -0.91307775315E+01 -0.10057709835E+03  0.47281614745E+03  0.48348136789E+03  0.00000000000E+00 0.  1.
         11    1    1    2    0    0 -0.16823266111E+02  0.45676917755E+02 -0.23646071218E+02  0.54115984536E+02  0.00000000000E+00 0. -1.
        -15    1    3    3    0    0  0.40044460919E+02 -0.94844932874E+01 -0.22493371629E+03  0.22867411072E+03  0.17770000000E+01 0.  1.
         15    1    3    3    0    0 -0.14090417277E+02  0.64384673878E+02 -0.22423635994E+03  0.23372853685E+03  0.17770000000E+01 0. -1.
</event>
<event>
 7    1  0.5285153E-006  0.4064683E+03  0.7546771E-02  0.9637480E-01
        -11   -1    0    0    0    0  0.00000000000E+00  0.00000000000E+00  0.50000000000E+03  0.50000000000E+03  0.00000000000E+00 0.  1.
         11   -1    0    0    0    0 -0.00000000000E+00 -0.00000000000E+00 -0.50000000000E+03  0.50000000000E+03  0.00000000000E+00 0. -1.
         23    2    1    2    0    0  0.24722662159E+02  0.12706426999E+03 -0.76135502756E+02  0.17330831457E+03  0.86502129371E+02 0.  0.
        -11    1    1    2    0    0 -0.54496980275E+02 -0.52919353010E+02  0.44389749500E+03  0.45035026907E+03  0.00000000000E+00 0.  1.
         11    1    1    2    0    0  0.29774318116E+02 -0.74144916982E+02 -0.36776199224E+03  0.37634141637E+03  0.00000000000E+00 0. -1.
        -15    1    3    3    0    0  0.16293701920E+02  0.10892476149E+03 -0.17757618127E+02  0.11157320072E+03  0.17770000000E+01 0.  1.
         15    1    3    3    0    0  0.84289602393E+01  0.18139508502E+02 -0.58377884629E+02  0.61735113851E+02  0.17770000000E+01 0. -1.
</event>
<event>
 7    1  0.5285153E-006  0.3674815E+03  0.7546771E-02  0.9757685E-01
        -11   -1    0    0    0    0  0.00000000000E+00  0.00000000000E+00  0.50000000000E+03  0.50000000000E+03  0.00000000000E+00 0.  1.
         11   -1    0    0    0    0 -0.00000000000E+00 -0.00000000000E+00 -0.50000000000E+03  0.50000000000E+03  0.00000000000E+00 0.  1.
         23    2    1    2    0    0 -0.31131603913E+02 -0.90491194062E+02 -0.19351230754E+03  0.23398734664E+03  0.90250940450E+02 0.  0.
        -11    1    1    2    0    0 -0.21654509832E+03  0.24337680787E+03 -0.11158420678E+03  0.34434733253E+03  0.00000000000E+00 0.  1.
         11    1    1    2    0    0  0.24767670223E+03 -0.15288561381E+03  0.30509651433E+03  0.42166532083E+03  0.00000000000E+00 0.  1.
        -15    1    3    3    0    0  0.28512987092E+02 -0.79179643124E+01 -0.41988827681E+02  0.51399454966E+02  0.17770000000E+01 0.  1.
         15    1    3    3    0    0 -0.59644591005E+02 -0.82573229750E+02 -0.15152347986E+03  0.18258789167E+03  0.17770000000E+01 0. -1.
</event>
<event>
 7    1  0.5285153E-006  0.5163629E+03  0.7546771E-02  0.9363923E-01
        -11   -1    0    0    0    0  0.00000000000E+00  0.00000000000E+00  0.50000000000E+03  0.50000000000E+03  0.00000000000E+00 0. -1.
         11   -1    0    0    0    0 -0.00000000000E+00 -0.00000000000E+00 -0.50000000000E+03  0.50000000000E+03  0.00000000000E+00 0.  1.
         23    2    1    2    0    0  0.61630642165E+01  0.10434522648E+03 -0.30862896087E+03  0.33827176265E+03  0.90829732282E+02 0.  0.
        -11    1    1    2    0    0  0.68941685342E+02 -0.21147923009E+03  0.42945129850E+03  0.48363709382E+03  0.00000000000E+00 0. -1.
         11    1    1    2    0    0 -0.75104749559E+02  0.10713400361E+03 -0.12082233763E+03  0.17809114353E+03  0.00000000000E+00 0.  1.
        -15    1    3    3    0    0  0.41528470287E+02  0.89656676318E+02 -0.24202067568E+03  0.26141939224E+03  0.17770000000E+01 0.  1.
         15    1    3    3    0    0 -0.35365406070E+02  0.14688550163E+02 -0.66608285192E+02  0.76852370410E+02  0.17770000000E+01 0. -1.
</event>
<event>
 7    1  0.5285153E-006  0.5197939E+03  0.7546771E-02  0.9356577E-01
        -11   -1    0    0    0    0  0.00000000000E+00  0.00000000000E+00  0.50000000000E+03  0.50000000000E+03  0.00000000000E+00 0.  1.
         11   -1    0    0    0    0 -0.00000000000E+00 -0.00000000000E+00 -0.50000000000E+03  0.50000000000E+03  0.00000000000E+00 0. -1.
         23    2    1    2    0    0  0.14714876633E+01  0.24964091460E+02  0.17384068703E+03  0.19846676390E+03  0.92428895744E+02 0.  0.
        -11    1    1    2    0    0  0.16038132927E+03 -0.13377461490E+02  0.27811870660E+03  0.32132715760E+03  0.00000000000E+00 0.  1.
         11    1    1    2    0    0 -0.16185281693E+03 -0.11586629969E+02 -0.45195939362E+03  0.48020607850E+03  0.00000000000E+00 0. -1.
        -15    1    3    3    0    0  0.39670158737E+02  0.38371313369E+02  0.10168010109E+03  0.11570687046E+03  0.17770000000E+01 0.  1.
         15    1    3    3    0    0 -0.38198671074E+02 -0.13407221909E+02  0.72160585938E+02  0.82759893445E+02  0.17770000000E+01 0. -1.
</event>
<event>
 6    1  0.5285153E-006  0.4660016E+03  0.7546771E-02  0.9479272E-01
        -11   -1    0    0    0    0  0.00000000000E+00  0.00000000000E+00  0.50000000000E+03  0.50000000000E+03  0.00000000000E+00 0. -1.
         11   -1    0    0    0    0 -0.00000000000E+00 -0.00000000000E+00 -0.50000000000E+03  0.50000000000E+03  0.00000000000E+00 0.  1.
        -11    1    1    2    0    0 -0.88091206696E+02  0.47555733315E+02  0.40893894471E+03  0.42101385841E+03  0.00000000000E+00 0. -1.
         11    1    1    2    0    0  0.77683483907E+02 -0.71769333850E+02  0.17124569841E+02  0.10713921712E+03  0.00000000000E+00 0.  1.
        -15    1    1    2    0    0 -0.34493092743E+02  0.86726599129E+02 -0.99929594106E+02  0.13674925210E+03  0.17770000000E+01 0. -1.
         15    1    1    2    0    0  0.44900815532E+02 -0.62512998594E+02 -0.32613392045E+03  0.33509767237E+03  0.17770000000E+01 0.  1.
</event>
<event>
 7    1  0.5285153E-006  0.5070922E+03  0.7546771E-02  0.9384079E-01
        -11   -1    0    0    0    0  0.00000000000E+00  0.00000000000E+00  0.50000000000E+03  0.50000000000E+03  0.00000000000E+00 0. -1.
         11   -1    0    0    0    0 -0.00000000000E+00 -0.00000000000E+00 -0.50000000000E+03  0.50000000000E+03  0.00000000000E+00 0. -1.
         23    2    1    2    0    0  0.96695403918E+02  0.12877208831E+03  0.38299484956E+03  0.42367250799E+03  0.82952319857E+02 0.  0.
        -11    1    1    2    0    0  0.16089588353E+02 -0.82034415197E+01  0.81441215644E+02  0.83419679403E+02  0.00000000000E+00 0. -1.
         11    1    1    2    0    0 -0.11278499227E+03 -0.12056864679E+03 -0.46443606520E+03  0.49290781261E+03  0.00000000000E+00 0. -1.
        -15    1    3    3    0    0 -0.50820483498E+01  0.55128501272E+02  0.12422729131E+03  0.13601675081E+03  0.17770000000E+01 0.  1.
         15    1    3    3    0    0  0.10177745227E+03  0.73643587040E+02  0.25876755825E+03  0.28765575717E+03  0.17770000000E+01 0. -1.
</event>
<event>
 7    1  0.5285153E-006  0.4327440E+03  0.7546771E-02  0.9564312E-01
        -11   -1    0    0    0    0  0.00000000000E+00  0.00000000000E+00  0.50000000000E+03  0.50000000000E+03  0.00000000000E+00 0. -1.
         11   -1    0    0    0    0 -0.00000000000E+00 -0.00000000000E+00 -0.50000000000E+03  0.50000000000E+03  0.00000000000E+00 0.  1.
         23    2    1    2    0    0 -0.94173867067E+02 -0.20264438780E+02 -0.26162880769E+02  0.12877471214E+03  0.81357639090E+02 0.  0.
        -11    1    1    2    0    0 -0.99811699783E+02 -0.94264549052E+02  0.40656796496E+03  0.42912199985E+03  0.00000000000E+00 0. -1.
         11    1    1    2    0    0  0.19398556685E+03  0.11452898783E+03 -0.38040508419E+03  0.44210328802E+03  0.00000000000E+00 0.  1.
        -15    1    3    3    0    0 -0.57615655710E+02  0.28396489427E+02 -0.21278851509E+02  0.67689523896E+02  0.17770000000E+01 0.  1.
         15    1    3    3    0    0 -0.36558211357E+02 -0.48660928207E+02 -0.48840292598E+01  0.61085188241E+02  0.17770000000E+01 0. -1.
</event>
<event>
 7    1  0.5285153E-006  0.3830471E+03  0.7546771E-02  0.9707861E-01
        -11   -1    0    0    0    0  0.00000000000E+00  0.00000000000E+00  0.50000000000E+03  0.50000000000E+03  0.00000000000E+00 0.  1.
         11   -1    0    0    0    0 -0.00000000000E+00 -0.00000000000E+00 -0.50000000000E+03  0.50000000000E+03  0.00000000000E+00 0. -1.
         23    2    1    2    0    0  0.38833050467E+02  0.79088968977E+02 -0.31659746051E+03  0.34124903995E+03  0.91945007710E+02 0.  0.
        -11    1    1    2    0    0 -0.17143629187E+03  0.66011239256E+02  0.40386642646E+03  0.44368454594E+03  0.00000000000E+00 0.  1.
         11    1    1    2    0    0  0.13260324141E+03 -0.14510020823E+03 -0.87268965952E+02  0.21506641411E+03  0.00000000000E+00 0. -1.
        -15    1    3    3    0    0  0.30578281347E+02 -0.66753748645E+01 -0.15469075813E+03  0.15783529485E+03  0.17770000000E+01 0.  1.
         15    1    3    3    0    0  0.82547691196E+01  0.85764343842E+02 -0.16190670238E+03  0.18341374510E+03  0.17770000000E+01 0. -1.
</event>
<event>
 7    1  0.5285153E-006  0.5142019E+03  0.7546771E-02  0.9368581E-01
        -11   -1    0    0    0    0  0.00000000000E+00  0.00000000000E+00  0.50000000000E+03  0.50000000000E+03  0.00000000000E+00 0. -1.
         11   -1    0    0    0    0 -0.00000000000E+00 -0.00000000000E+00 -0.50000000000E+03  0.50000000000E+03  0.00000000000E+00 0.  1.
         23    2    1    2    0    0  0.12012363546E+02  0.41001213368E+02  0.16306654886E+03  0.19220211438E+03  0.92333943049E+02 0.  0.
        -11    1    1    2    0    0 -0.70507524258E+02  0.66140895145E+02  0.30714478572E+03  0.32199976457E+03  0.00000000000E+00 0. -1.
         11    1    1    2    0    0  0.58495160712E+02 -0.10714210851E+03 -0.47021133458E+03  0.48579812105E+03  0.00000000000E+00 0.  1.
        -15    1    3    3    0    0 -0.15861734268E+02 -0.13350439883E+02  0.10786145368E+03  0.10985026071E+03  0.17770000000E+01 0. -1.
         15    1    3    3    0    0  0.27874097814E+02  0.54351653251E+02  0.55205095185E+02  0.82351853673E+02  0.17770000000E+01 0.  1.
</event>
<event>
 7    1  0.5285153E-006  0.4024304E+03  0.7546771E-02  0.9649247E-01
        -11   -1    0    0    0    0  0.00000000000E+00  0.00000000000E+00  0.50000000000E+03  0.50000000000E+03  0.00000000000E+00 0. -1.
         11   -1    0    0    0    0 -0.00000000000E+00 -0.00000000000E+00 -0.50000000000E+03  0.50000000000E+03  0.00000000000E+00 0. -1.
         23    2    1    2    0    0 -0.16534401273E+02 -0.13762897772E+03 -0.34197415850E+03  0.38028284254E+03  0.91943424522E+02 0.  0.
        -11    1    1    2    0    0  0.10842398893E+03 -0.14102171510E+01  0.42137943654E+03  0.43510731966E+03  0.00000000000E+00 0. -1.
         11    1    1    2    0    0 -0.91889587656E+02  0.13903919487E+03 -0.79405278036E+02  0.18460983779E+03  0.00000000000E+00 0. -1.
        -15    1    3    3    0    0  0.12910596654E+02 -0.31795094422E+02 -0.19287983153E+02  0.39405527003E+02  0.17770000000E+01 0.  1.
         15    1    3    3    0    0 -0.29444997927E+02 -0.10583388330E+03 -0.32268617535E+03  0.34087731554E+03  0.17770000000E+01 0. -1.
</event>
<event>
 7    1  0.5285153E-006  0.5067747E+03  0.7546771E-02  0.9384777E-01
        -11   -1    0    0    0    0  0.00000000000E+00  0.00000000000E+00  0.50000000000E+03  0.50000000000E+03  0.00000000000E+00 0. -1.
         11   -1    0    0    0    0 -0.00000000000E+00 -0.00000000000E+00 -0.50000000000E+03  0.50000000000E+03  0.00000000000E+00 0.  1.
         23    2    1    2    0    0  0.58120989552E+02  0.39198935214E+02 -0.38326381915E+03  0.39899923520E+03  0.85992026803E+02 0.  0.
        -11    1    1    2    0    0 -0.67909308302E+02 -0.82351706508E+02  0.48153681363E+03  0.49322528382E+03  0.00000000000E+00 0. -1.
         11    1    1    2    0    0  0.97883187504E+01  0.43152771294E+02 -0.98272994482E+02  0.10777548097E+03  0.00000000000E+00 0.  1.
        -15    1    3    3    0    0  0.67093722300E+02  0.23057523791E+02 -0.36854843253E+03  0.37531896012E+03  0.17770000000E+01 0.  1.
         15    1    3    3    0    0 -0.89727327479E+01  0.16141411423E+02 -0.14715386624E+02  0.23680275087E+02  0.17770000000E+01 0. -1.
</event>
<event>
 7    1  0.5285153E-006  0.3850887E+03  0.7546771E-02  0.9701515E-01
        -11   -1    0    0    0    0  0.00000000000E+00  0.00000000000E+00  0.50000000000E+03  0.50000000000E+03  0.00000000000E+00 0.  1.
         11   -1    0    0    0    0 -0.00000000000E+00 -0.00000000000E+00 -0.50000000000E+03  0.50000000000E+03  0.00000000000E+00 0.  1.
         23    2    1    2    0    0 -0.46265514890E+02  0.63392981471E+02 -0.37174946129E+03  0.39107315926E+03  0.92635770367E+02 0.  0.
        -11    1    1    2    0    0  0.57007324834E+01  0.14473748340E+03  0.36949001974E+03  0.39686812940E+03  0.00000000000E+00 0.  1.
         11    1    1    2    0    0  0.40564782407E+02 -0.20813046487E+03  0.22594415556E+01  0.21205871134E+03  0.00000000000E+00 0.  1.
        -15    1    3    3    0    0 -0.71941480245E+02  0.61959878818E+02 -0.30808456134E+03  0.32238774453E+03  0.17770000000E+01 0.  1.
         15    1    3    3    0    0  0.25675965355E+02  0.14331026530E+01 -0.63664899956E+02  0.68685414722E+02  0.17770000000E+01 0. -1.
</event>
<event>
 7    1  0.5285153E-006  0.4782279E+03  0.7546771E-02  0.9449889E-01
        -11   -1    0    0    0    0  0.00000000000E+00  0.00000000000E+00  0.50000000000E+03  0.50000000000E+03  0.00000000000E+00 0. -1.
         11   -1    0    0    0    0 -0.00000000000E+00 -0.00000000000E+00 -0.50000000000E+03  0.50000000000E+03  0.00000000000E+00 0.  1.
         23    2    1    2    0    0 -0.35420750930E+02 -0.58287802860E+02 -0.44165776641E+03  0.45532345189E+03  0.87211040859E+02 0.  0.
        -11    1    1    2    0    0  0.55504700632E+02  0.59658217310E+02  0.48768181106E+03  0.49444253814E+03  0.00000000000E+00 0. -1.
         11    1    1    2    0    0 -0.20083949702E+02 -0.13704144501E+01 -0.46024044649E+02  0.50234009966E+02  0.00000000000E+00 0.  1.
        -15    1    3    3    0    0 -0.16677056385E+02 -0.80014711684E+02 -0.33871162333E+03  0.34843822953E+03  0.17770000000E+01 0.  1.
         15    1    3    3    0    0 -0.18743694545E+02  0.21726908824E+02 -0.10294614309E+03  0.10688522236E+03  0.17770000000E+01 0. -1.
</event>
<event>
 7    1  0.5285153E-006  0.3978713E+03  0.7546771E-02  0.9662712E-01
        -11   -1    0    0    0    0  0.00000000000E+00  0.00000000000E+00  0.50000000000E+03  0.50000000000E+03  0.00000000000E+00 0.  1.
         11   -1    0    0    0    0 -0.00000000000E+00 -0.00000000000E+00 -0.50000000000E+03  0.50000000000E+03  0.00000000000E+00 0. -1.
         23    2    1    2    0    0  0.75742389139E+02 -0.95229234474E+02 -0.98874087418E+02  0.18895885276E+03  0.10546964616E+03 0.  0.
        -11    1    1    2    0    0  0.38672074166E+02  0.74496280449E+02  0.44140367648E+03  0.44931328796E+03  0.00000000000E+00 0.  1.
         11    1    1    2    0    0 -0.11441446331E+03  0.20732954024E+02 -0.34252958907E+03  0.36172785928E+03  0.00000000000E+00 0. -1.
        -15    1    3    3    0    0  0.46849156432E+02 -0.33057044440E+02 -0.10547017504E+03  0.12006134765E+03  0.17770000000E+01 0. -1.
         15    1    3    3    0    0  0.28893232707E+02 -0.62172190034E+02  0.65960876263E+01  0.68897505113E+02  0.17770000000E+01 0.  1.
</event>
<event>
 7    1  0.5285153E-006  0.5143018E+03  0.7546771E-02  0.9368365E-01
        -11   -1    0    0    0    0  0.00000000000E+00  0.00000000000E+00  0.50000000000E+03  0.50000000000E+03  0.00000000000E+00 0.  1.
         11   -1    0    0    0    0 -0.00000000000E+00 -0.00000000000E+00 -0.50000000000E+03  0.50000000000E+03  0.00000000000E+00 0. -1.
         23    2    1    2    0    0 -0.11074100682E+03  0.32723859786E+02  0.21633530890E+03  0.26154066645E+03  0.90929273288E+02 0.  0.
        -11    1    1    2    0    0 -0.27774446070E+02  0.10421189613E+03  0.22859709683E+03  0.25276109635E+03  0.00000000000E+00 0.  1.
         11    1    1    2    0    0  0.13851545289E+03 -0.13693575592E+03 -0.44493240573E+03  0.48569823719E+03  0.00000000000E+00 0. -1.
        -15    1    3    3    0    0 -0.12550956241E+02 -0.28539021152E+02  0.46601413408E+02  0.56096806429E+02  0.17770000000E+01 0.  1.
         15    1    3    3    0    0 -0.98190050583E+02  0.61262880938E+02  0.16973389549E+03  0.20544386003E+03  0.17770000000E+01 0. -1.
</event>
<event>
 7    1  0.5285153E-006  0.4661468E+03  0.7546771E-02  0.9478917E-01
        -11   -1    0    0    0    0  0.00000000000E+00  0.00000000000E+00  0.50000000000E+03  0.50000000000E+03  0.00000000000E+00 0. -1.
         11   -1    0    0    0    0 -0.00000000000E+00 -0.00000000000E+00 -0.50000000000E+03  0.50000000000E+03  0.00000000000E+00 0.  1.
         23    2    1    2    0    0 -0.17220441640E+03  0.13262214465E+02  0.43012876518E+03  0.47243483459E+03  0.91398418709E+02 0.  0.
        -11    1    1    2    0    0  0.82290381087E+01  0.71660400633E+02 -0.15647300202E+02  0.73808997356E+02  0.00000000000E+00 0. -1.
         11    1    1    2    0    0  0.16397537829E+03 -0.84922615098E+02 -0.41448146497E+03  0.45375616805E+03  0.00000000000E+00 0.  1.
        -15    1    3    3    0    0 -0.13969964253E+03 -0.21061583345E+02  0.26069215464E+03  0.29651835969E+03  0.17770000000E+01 0. -1.
         15    1    3    3    0    0 -0.32504773865E+02  0.34323797810E+02  0.16943661054E+03  0.17591647490E+03  0.17770000000E+01 0.  1.
</event>
<event>
 7    1  0.5285153E-006  0.4925455E+03  0.7546771E-02  0.9416646E-01
        -11   -1    0    0    0    0  0.00000000000E+00  0.00000000000E+00  0.50000000000E+03  0.50000000000E+03  0.00000000000E+00 0.  1.
         11   -1    0    0    0    0 -0.00000000000E+00 -0.00000000000E+00 -0.50000000000E+03  0.50000000000E+03  0.00000000000E+00 0. -1.
         23    2    1    2    0    0  0.37218271263E+02 -0.12158650381E+03 -0.46409406305E+03  0.48867025005E+03  0.85128351952E+02 0.  0.
        -11    1    1    2    0    0 -0.39508712601E+02  0.14344908285E+03  0.46608415577E+03  0.48925761926E+03  0.00000000000E+00 0.  1.
         11    1    1    2    0    0  0.22904413379E+01 -0.21862579047E+02 -0.19900927261E+01  0.22072130689E+02  0.00000000000E+00 0. -1.
        -15    1    3    3    0    0  0.12226966958E+02 -0.14688104438E+02 -0.10300163359E+02  0.21782796588E+02  0.17770000000E+01 0.  1.
         15    1    3    3    0    0  0.24991304305E+02 -0.10689839937E+03 -0.45379389969E+03  0.46688745346E+03  0.17770000000E+01 0. -1.
</event>
<event>
 7    1  0.5285153E-006  0.3143960E+03  0.7546771E-02  0.9949822E-01
        -11   -1    0    0    0    0  0.00000000000E+00  0.00000000000E+00  0.50000000000E+03  0.50000000000E+03  0.00000000000E+00 0.  1.
         11   -1    0    0    0    0 -0.00000000000E+00 -0.00000000000E+00 -0.50000000000E+03  0.50000000000E+03  0.00000000000E+00 0. -1.
         23    2    1    2    0    0  0.19969691580E+02 -0.17077513605E+03 -0.30358872612E+03  0.36042836908E+03  0.90440914076E+02 0.  0.
        -11    1    1    2    0    0  0.20089577397E+03 -0.42555475325E+02  0.25703421777E+03  0.32899341875E+03  0.00000000000E+00 0.  1.
         11    1    1    2    0    0 -0.22086546555E+03  0.21333061137E+03  0.46554508355E+02  0.31057821216E+03  0.00000000000E+00 0. -1.
        -15    1    3    3    0    0  0.35728689378E+02 -0.66171359601E+02 -0.64926953573E+02  0.99367273815E+02  0.17770000000E+01 0.  1.
         15    1    3    3    0    0 -0.15758997797E+02 -0.10460377645E+03 -0.23866177255E+03  0.26106109527E+03  0.17770000000E+01 0. -1.
</event>
<event>
 7    1  0.5285153E-006  0.5297368E+03  0.7546771E-02  0.9335624E-01
        -11   -1    0    0    0    0  0.00000000000E+00  0.00000000000E+00  0.50000000000E+03  0.50000000000E+03  0.00000000000E+00 0.  1.
         11   -1    0    0    0    0 -0.00000000000E+00 -0.00000000000E+00 -0.50000000000E+03  0.50000000000E+03  0.00000000000E+00 0. -1.
         23    2    1    2    0    0 -0.12139246570E+02 -0.30321572469E+03  0.25142564960E+03  0.40467097211E+03  0.91959781329E+02 0.  0.
        -11    1    1    2    0    0  0.19534253145E+02  0.17794937608E+02  0.12224239527E+03  0.12506578290E+03  0.00000000000E+00 0.  1.
         11    1    1    2    0    0 -0.73950065756E+01  0.28542078709E+03 -0.37366804488E+03  0.47026324499E+03  0.00000000000E+00 0. -1.
        -15    1    3    3    0    0  0.30993298445E+02 -0.41914388015E+02  0.37958207193E+02  0.64508787723E+02  0.17770000000E+01 0.  1.
         15    1    3    3    0    0 -0.43132545015E+02 -0.26130133668E+03  0.21346744241E+03  0.34016218439E+03  0.17770000000E+01 0. -1.
</event>
<event>
 7    1  0.5285153E-006  0.3716545E+03  0.7546771E-02  0.9744072E-01
        -11   -1    0    0    0    0  0.00000000000E+00  0.00000000000E+00  0.50000000000E+03  0.50000000000E+03  0.00000000000E+00 0. -1.
         11   -1    0    0    0    0 -0.00000000000E+00 -0.00000000000E+00 -0.50000000000E+03  0.50000000000E+03  0.00000000000E+00 0. -1.
         23    2    1    2    0    0  0.58943335466E+02  0.54954515070E+02 -0.33628178727E+03  0.35714757465E+03  0.89300806890E+02 0.  0.
        -11    1    1    2    0    0  0.16271407062E+03 -0.11840804850E+01  0.37749622280E+03  0.41107258368E+03  0.00000000000E+00 0. -1.
         11    1    1    2    0    0 -0.22165740608E+03 -0.53770434585E+02 -0.41214435535E+02  0.23177984167E+03  0.00000000000E+00 0. -1.
        -15    1    3    3    0    0 -0.81638082511E+01 -0.15747402617E+02 -0.99418008141E+02  0.10100359660E+03  0.17770000000E+01 0. -1.
         15    1    3    3    0    0  0.67107143718E+02  0.70701917687E+02 -0.23686377912E+03  0.25614397805E+03  0.17770000000E+01 0.  1.
</event>
<event>
 7    1  0.5285153E-006  0.5269307E+03  0.7546771E-02  0.9341488E-01
        -11   -1    0    0    0    0  0.00000000000E+00  0.00000000000E+00  0.50000000000E+03  0.50000000000E+03  0.00000000000E+00 0.  1.
         11   -1    0    0    0    0 -0.00000000000E+00 -0.00000000000E+00 -0.50000000000E+03  0.50000000000E+03  0.00000000000E+00 0. -1.
         23    2    1    2    0    0  0.18771030492E+03 -0.13177835244E+03  0.22209984935E+03  0.33173510719E+03  0.90106301206E+02 0.  0.
        -11    1    1    2    0    0  0.14916472302E+03  0.70481778053E+02  0.10432403778E+03  0.19519554423E+03  0.00000000000E+00 0.  1.
         11    1    1    2    0    0 -0.33687502793E+03  0.61296574382E+02 -0.32642388713E+03  0.47306934858E+03  0.00000000000E+00 0. -1.
        -15    1    3    3    0    0  0.12290592390E+01 -0.34263786234E+02  0.18861928487E+02  0.39172027124E+02  0.17770000000E+01 0. -1.
         15    1    3    3    0    0  0.18648124568E+03 -0.97514566201E+02  0.20323792086E+03  0.29256308007E+03  0.17770000000E+01 0.  1.
</event>
<event>
 7    1  0.5285153E-006  0.5185991E+03  0.7546771E-02  0.9359128E-01
        -11   -1    0    0    0    0  0.00000000000E+00  0.00000000000E+00  0.50000000000E+03  0.50000000000E+03  0.00000000000E+00 0. -1.
         11   -1    0    0    0    0 -0.00000000000E+00 -0.00000000000E+00 -0.50000000000E+03  0.50000000000E+03  0.00000000000E+00 0.  1.
         23    2    1    2    0    0 -0.22190340231E+02  0.61171351113E+00  0.87465798592E+02  0.12619533741E+03  0.88216845718E+02 0.  0.
        -11    1    1    2    0    0 -0.44859043549E+02 -0.47297610886E+02  0.38695133067E+03  0.39240378450E+03  0.00000000000E+00 0. -1.
         11    1    1    2    0    0  0.67049383780E+02  0.46685897375E+02 -0.47441712926E+03  0.48140087808E+03  0.00000000000E+00 0.  1.
        -15    1    3    3    0    0 -0.32029556336E+02 -0.20591003002E+02  0.26624328275E+01  0.38211623380E+02  0.17770000000E+01 0. -1.
         15    1    3    3    0    0  0.98392161049E+01  0.21202716514E+02  0.84803365764E+02  0.87983714033E+02  0.17770000000E+01 0.  1.
</event>
<event>
 7    1  0.5285153E-006  0.5179689E+03  0.7546771E-02  0.9360477E-01
        -11   -1    0    0    0    0  0.00000000000E+00  0.00000000000E+00  0.50000000000E+03  0.50000000000E+03  0.00000000000E+00 0. -1.
         11   -1    0    0    0    0 -0.00000000000E+00 -0.00000000000E+00 -0.50000000000E+03  0.50000000000E+03  0.00000000000E+00 0. -1.
         23    2    1    2    0    0  0.60832457335E+02 -0.37630360396E+02 -0.27497866102E+03  0.29812247796E+03  0.90261375811E+02 0.  0.
        -11    1    1    2    0    0 -0.22054545243E+03  0.58326284252E+02  0.42463125569E+03  0.48203107299E+03  0.00000000000E+00 0. -1.
         11    1    1    2    0    0  0.15971299509E+03 -0.20695923856E+02 -0.14965259467E+03  0.21984644904E+03  0.00000000000E+00 0. -1.
        -15    1    3    3    0    0  0.47662105494E+02 -0.63558411399E+02 -0.23877842171E+03  0.25165381055E+03  0.17770000000E+01 0. -1.
         15    1    3    3    0    0  0.13170351842E+02  0.25928051004E+02 -0.36200239304E+02  0.46468667413E+02  0.17770000000E+01 0.  1.
</event>
<event>
 7    1  0.5285153E-006  0.3638825E+03  0.7546771E-02  0.9769581E-01
        -11   -1    0    0    0    0  0.00000000000E+00  0.00000000000E+00  0.50000000000E+03  0.50000000000E+03  0.00000000000E+00 0. -1.
         11   -1    0    0    0    0 -0.00000000000E+00 -0.00000000000E+00 -0.50000000000E+03  0.50000000000E+03  0.00000000000E+00 0.  1.
         23    2    1    2    0    0  0.28809509701E+03 -0.70121119361E+01 -0.29987319058E+03  0.42363356237E+03  0.80582318797E+02 0.  0.
        -11    1    1    2    0    0 -0.65221478399E+02 -0.84953013888E+02  0.31705179395E+03  0.33465309779E+03  0.00000000000E+00 0. -1.
         11    1    1    2    0    0 -0.22287361862E+03  0.91965125824E+02 -0.17178603364E+02  0.24171333984E+03  0.00000000000E+00 0.  1.
        -15    1    3    3    0    0  0.13462957227E+03 -0.47678235455E+00 -0.19751117056E+03  0.23903800801E+03  0.17770000000E+01 0.  1.
         15    1    3    3    0    0  0.15346552474E+03 -0.65353295816E+01 -0.10236202003E+03  0.18459555436E+03  0.17770000000E+01 0. -1.
</event>
<event>
 7    1  0.5285153E-006  0.5220733E+03  0.7546771E-02  0.9351730E-01
        -11   -1    0    0    0    0  0.00000000000E+00  0.00000000000E+00  0.50000000000E+03  0.50000000000E+03  0.00000000000E+00 0. -1.
         11   -1    0    0    0    0 -0.00000000000E+00 -0.00000000000E+00 -0.50000000000E+03  0.50000000000E+03  0.00000000000E+00 0. -1.
         23    2    1    2    0    0  0.12335022218E+02  0.18855277728E+02 -0.30333279062E+03  0.31694793401E+03  0.89092854575E+02 0.  0.
        -11    1    1    2    0    0  0.91514130208E+02 -0.10695857763E+03  0.45672634017E+03  0.47792669224E+03  0.00000000000E+00 0. -1.
         11    1    1    2    0    0 -0.10384915243E+03  0.88103299902E+02 -0.15339354955E+03  0.20512537375E+03  0.00000000000E+00 0. -1.
        -15    1    3    3    0    0  0.26894227922E+02  0.50356112301E+02 -0.18438107609E+03  0.19302480796E+03  0.17770000000E+01 0. -1.
         15    1    3    3    0    0 -0.14559205704E+02 -0.31500834573E+02 -0.11895171453E+03  0.12392312604E+03  0.17770000000E+01 0.  1.
</event>
<event>
 7    1  0.5285153E-006  0.5290800E+03  0.7546771E-02  0.9336993E-01
        -11   -1    0    0    0    0  0.00000000000E+00  0.00000000000E+00  0.50000000000E+03  0.50000000000E+03  0.00000000000E+00 0.  1.
         11   -1    0    0    0    0 -0.00000000000E+00 -0.00000000000E+00 -0.50000000000E+03  0.50000000000E+03  0.00000000000E+00 0. -1.
         23    2    1    2    0    0  0.53665226946E+01 -0.10079891636E+02  0.48927278064E+02  0.10509838633E+03  0.92311367062E+02 0.  0.
        -11    1    1    2    0    0 -0.11136700423E+03 -0.42945313169E+02  0.40683349332E+03  0.42398160437E+03  0.00000000000E+00 0.  1.
         11    1    1    2    0    0  0.10600048153E+03  0.53025204805E+02 -0.45576077138E+03  0.47092000930E+03  0.00000000000E+00 0. -1.
        -15    1    3    3    0    0 -0.20865078626E+02  0.34070457952E+02  0.11775623921E+02  0.41688975267E+02  0.17770000000E+01 0.  1.
         15    1    3    3    0    0  0.26231601320E+02 -0.44150349588E+02  0.37151654143E+02  0.63409411061E+02  0.17770000000E+01 0. -1.
</event>
<event>
 7    1  0.5285153E-006  0.5143469E+03  0.7546771E-02  0.9368268E-01
        -11   -1    0    0    0    0  0.00000000000E+00  0.00000000000E+00  0.50000000000E+03  0.50000000000E+03  0.00000000000E+00 0. -1.
         11   -1    0    0    0    0 -0.00000000000E+00 -0.00000000000E+00 -0.50000000000E+03  0.50000000000E+03  0.00000000000E+00 0.  1.
         23    2    1    2    0    0  0.46490156218E+02 -0.85853051967E+02  0.29245322521E+03  0.32184801692E+03  0.92331879118E+02 0.  0.
        -11    1    1    2    0    0  0.68008913187E+02  0.34637503856E+02  0.17672251418E+03  0.19249887263E+03  0.00000000000E+00 0. -1.
         11    1    1    2    0    0 -0.11449906941E+03  0.51215548112E+02 -0.46917573939E+03  0.48565311045E+03  0.00000000000E+00 0.  1.
        -15    1    3    3    0    0  0.35975352665E+02 -0.10493578675E+03  0.26040550665E+03  0.28305464307E+03  0.17770000000E+01 0. -1.
         15    1    3    3    0    0  0.10514803554E+02  0.19082734786E+02  0.32047718560E+02  0.38793373849E+02  0.17770000000E+01 0.  1.
</event>
<event>
 7    1  0.5285153E-006  0.5227015E+03  0.7546771E-02  0.9350399E-01
        -11   -1    0    0    0    0  0.00000000000E+00  0.00000000000E+00  0.50000000000E+03  0.50000000000E+03  0.00000000000E+00 0.  1.
         11   -1    0    0    0    0 -0.00000000000E+00 -0.00000000000E+00 -0.50000000000E+03  0.50000000000E+03  0.00000000000E+00 0.  1.
         23    2    1    2    0    0  0.85124059235E+02 -0.12228247058E+03  0.34817496848E+03  0.38974952618E+03  0.92085701422E+02 0.  0.
        -11    1    1    2    0    0 -0.56016617527E+02  0.24421764811E+02  0.11807596467E+03  0.13295193668E+03  0.00000000000E+00 0.  1.
         11    1    1    2    0    0 -0.29107441708E+02  0.97860705765E+02 -0.46625093315E+03  0.47729853714E+03  0.00000000000E+00 0.  1.
        -15    1    3    3    0    0  0.22468067999E+02 -0.10549668956E+03  0.24731120748E+03  0.26981541220E+03  0.17770000000E+01 0. -1.
         15    1    3    3    0    0  0.62655991236E+02 -0.16785781013E+02  0.10086376100E+03  0.11993411397E+03  0.17770000000E+01 0.  1.
</event>
<event>
 7    1  0.5285153E-006  0.3243445E+03  0.7546771E-02  0.9910843E-01
        -11   -1    0    0    0    0  0.00000000000E+00  0.00000000000E+00  0.50000000000E+03  0.50000000000E+03  0.00000000000E+00 0.  1.
         11   -1    0    0    0    0 -0.00000000000E+00 -0.00000000000E+00 -0.50000000000E+03  0.50000000000E+03  0.00000000000E+00 0.  1.
         23    2    1    2    0    0  0.17291729278E+03  0.12828758898E+03 -0.17859660107E+03  0.29356368114E+03  0.89021308339E+02 0.  0.
        -11    1    1    2    0    0  0.51927193223E+02 -0.29008112172E+03  0.28474936085E+03  0.40978737057E+03  0.00000000000E+00 0.  1.
         11    1    1    2    0    0 -0.22484448600E+03  0.16179353273E+03 -0.10615275977E+03  0.29664894830E+03  0.00000000000E+00 0.  1.
        -15    1    3    3    0    0  0.10163636722E+03  0.10055904096E+03 -0.16048645606E+03  0.21494448624E+03  0.17770000000E+01 0. -1.
         15    1    3    3    0    0  0.71280925557E+02  0.27728548026E+02 -0.18110145016E+02  0.78619194892E+02  0.17770000000E+01 0.  1.
</event>
<event>
 7    1  0.5285153E-006  0.4906875E+03  0.7546771E-02  0.9420892E-01
        -11   -1    0    0    0    0  0.00000000000E+00  0.00000000000E+00  0.50000000000E+03  0.50000000000E+03  0.00000000000E+00 0.  1.
         11   -1    0    0    0    0 -0.00000000000E+00 -0.00000000000E+00 -0.50000000000E+03  0.50000000000E+03  0.00000000000E+00 0. -1.
         23    2    1    2    0    0  0.10485803254E+03  0.17719600976E+02 -0.46766321080E+03  0.48798465491E+03  0.90060831882E+02 0.  0.
        -11    1    1    2    0    0 -0.12092279947E+03  0.33370869703E+01  0.47010342961E+03  0.48541806118E+03  0.00000000000E+00 0.  1.
         11    1    1    2    0    0  0.16064766937E+02 -0.21056687946E+02 -0.24402188113E+01  0.26597283918E+02  0.00000000000E+00 0. -1.
        -15    1    3    3    0    0  0.94387659842E+02  0.48967158532E+02 -0.35516406549E+03  0.37074449974E+03  0.17770000000E+01 0. -1.
         15    1    3    3    0    0  0.10470372693E+02 -0.31247557556E+02 -0.11249914531E+03  0.11724015516E+03  0.17770000000E+01 0.  1.
</event>
<event>
 7    1  0.5285153E-006  0.4387948E+03  0.7546771E-02  0.9548246E-01
        -11   -1    0    0    0    0  0.00000000000E+00  0.00000000000E+00  0.50000000000E+03  0.50000000000E+03  0.00000000000E+00 0. -1.
         11   -1    0    0    0    0 -0.00000000000E+00 -0.00000000000E+00 -0.50000000000E+03  0.50000000000E+03  0.00000000000E+00 0. -1.
         23    2    1    2    0    0  0.68847693597E+02  0.22573269402E+01  0.39875817770E+02  0.11880829469E+03  0.88205609828E+02 0.  0.
        -11    1    1    2    0    0 -0.12797731072E+03  0.42613670383E+02  0.40670233502E+03  0.42848676324E+03  0.00000000000E+00 0. -1.
         11    1    1    2    0    0  0.59129617119E+02 -0.44870997323E+02 -0.44657815279E+03  0.45270494207E+03  0.00000000000E+00 0. -1.
        -15    1    3    3    0    0 -0.73908253204E+01  0.15286900771E+02  0.37731541777E+02  0.41414256096E+02  0.17770000000E+01 0.  1.
         15    1    3    3    0    0  0.76238518917E+02 -0.13029573830E+02  0.21442759926E+01  0.77394038591E+02  0.17770000000E+01 0. -1.
</event>
<event>
 7    1  0.5285153E-006  0.5155515E+03  0.7546771E-02  0.9365669E-01
        -11   -1    0    0    0    0  0.00000000000E+00  0.00000000000E+00  0.50000000000E+03  0.50000000000E+03  0.00000000000E+00 0. -1.
         11   -1    0    0    0    0 -0.00000000000E+00 -0.00000000000E+00 -0.50000000000E+03  0.50000000000E+03  0.00000000000E+00 0. -1.
         23    2    1    2    0    0 -0.43591307947E+02  0.68297775637E+01 -0.14446264559E+03  0.17628700151E+03  0.90888959391E+02 0.  0.
        -11    1    1    2    0    0  0.90150563461E+02 -0.12279454781E+03  0.45987472567E+03  0.48444854048E+03  0.00000000000E+00 0. -1.
         11    1    1    2    0    0 -0.46559255514E+02  0.11596477025E+03 -0.31541208008E+03  0.33926445801E+03  0.00000000000E+00 0. -1.
        -15    1    3    3    0    0 -0.38942126930E+02 -0.30928342098E+02 -0.12273786034E+03  0.13244165389E+03  0.17770000000E+01 0. -1.
         15    1    3    3    0    0 -0.46491810166E+01  0.37758119662E+02 -0.21724785248E+02  0.43845347616E+02  0.17770000000E+01 0.  1.
</event>
<event>
 7    1  0.5285153E-006  0.4894858E+03  0.7546771E-02  0.9423648E-01
        -11   -1    0    0    0    0  0.00000000000E+00  0.00000000000E+00  0.50000000000E+03  0.50000000000E+03  0.00000000000E+00 0. -1.
         11   -1    0    0    0    0 -0.00000000000E+00 -0.00000000000E+00 -0.50000000000E+03  0.50000000000E+03  0.00000000000E+00 0.  1.
         23    2    1    2    0    0 -0.98911399561E+02  0.66383040000E+02 -0.46812721574E+03  0.49143703565E+03  0.90427301920E+02 0.  0.
        -11    1    1    2    0    0  0.72934536553E+02 -0.53748581543E+02  0.47090680516E+03  0.47954309065E+03  0.00000000000E+00 0. -1.
         11    1    1    2    0    0  0.25976863008E+02 -0.12634458457E+02 -0.27795894199E+01  0.29019873701E+02  0.00000000000E+00 0.  1.
        -15    1    3    3    0    0 -0.93427428626E+02  0.52886843788E+02 -0.46390093861E+03  0.47616482570E+03  0.17770000000E+01 0.  1.
         15    1    3    3    0    0 -0.54839709359E+01  0.13496196213E+02 -0.42262771334E+01  0.15272209953E+02  0.17770000000E+01 0. -1.
</event>
<event>
 7    1  0.5285153E-006  0.5179495E+03  0.7546771E-02  0.9360518E-01
        -11   -1    0    0    0    0  0.00000000000E+00  0.00000000000E+00  0.50000000000E+03  0.50000000000E+03  0.00000000000E+00 0.  1.
         11   -1    0    0    0    0 -0.00000000000E+00 -0.00000000000E+00 -0.50000000000E+03  0.50000000000E+03  0.00000000000E+00 0. -1.
         23    2    1    2    0    0  0.28127450087E+01  0.73237947761E+02  0.20995387802E+03  0.23983916932E+03  0.89835893267E+02 0.  0.
        -11    1    1    2    0    0 -0.78513901107E+02 -0.34597543727E+02  0.26454475298E+03  0.27811031809E+03  0.00000000000E+00 0.  1.
         11    1    1    2    0    0  0.75701156098E+02 -0.38640404034E+02 -0.47449863100E+03  0.48205051258E+03  0.00000000000E+00 0. -1.
        -15    1    3    3    0    0  0.28089508389E+02  0.83411331547E+02  0.17008357327E+03  0.19151514389E+03  0.17770000000E+01 0.  1.
         15    1    3    3    0    0 -0.25276763380E+02 -0.10173383787E+02  0.39870304751E+02  0.48324025439E+02  0.17770000000E+01 0. -1.
</event>
<event>
 7    1  0.5285153E-006  0.4744665E+03  0.7546771E-02  0.9458828E-01
        -11   -1    0    0    0    0  0.00000000000E+00  0.00000000000E+00  0.50000000000E+03  0.50000000000E+03  0.00000000000E+00 0. -1.
         11   -1    0    0    0    0 -0.00000000000E+00 -0.00000000000E+00 -0.50000000000E+03  0.50000000000E+03  0.00000000000E+00 0. -1.
         23    2    1    2    0    0 -0.32744314086E+02  0.37539037398E+02 -0.44497495648E+03  0.45565545558E+03  0.84485577926E+02 0.  0.
        -11    1    1    2    0    0  0.66306865174E+02 -0.69717409916E+02  0.47782444024E+03  0.48741492930E+03  0.00000000000E+00 0. -1.
         11    1    1    2    0    0 -0.33562551088E+02  0.32178372518E+02 -0.32849483766E+02  0.56929615115E+02  0.00000000000E+00 0. -1.
        -15    1    3    3    0    0 -0.14560603930E+02  0.64035327431E+02 -0.31197291916E+03  0.31881467088E+03  0.17770000000E+01 0. -1.
         15    1    3    3    0    0 -0.18183710155E+02 -0.26496290033E+02 -0.13300203731E+03  0.13684078471E+03  0.17770000000E+01 0.  1.
</event>
<event>
 7    1  0.5285153E-006  0.5050963E+03  0.7546771E-02  0.9388478E-01
        -11   -1    0    0    0    0  0.00000000000E+00  0.00000000000E+00  0.50000000000E+03  0.50000000000E+03  0.00000000000E+00 0.  1.
         11   -1    0    0    0    0 -0.00000000000E+00 -0.00000000000E+00 -0.50000000000E+03  0.50000000000E+03  0.00000000000E+00 0. -1.
         23    2    1    2    0    0 -0.90148786642E+02  0.88836261784E+02 -0.33360128570E+03  0.36398603503E+03  0.71953670748E+02 0.  0.
        -11    1    1    2    0    0  0.97820481177E+02 -0.14381878183E+03  0.46333246235E+03  0.49490368681E+03  0.00000000000E+00 0.  1.
         11    1    1    2    0    0 -0.76716945360E+01  0.54982520047E+02 -0.12973117666E+03  0.14111027817E+03  0.00000000000E+00 0. -1.
        -15    1    3    3    0    0 -0.21191513839E+02  0.29628246133E+02 -0.19398169979E+03  0.19738026956E+03  0.17770000000E+01 0. -1.
         15    1    3    3    0    0 -0.68957272803E+02  0.59208015651E+02 -0.13961958591E+03  0.16660576547E+03  0.17770000000E+01 0.  1.
</event>
<event>
 7    1  0.5285153E-006  0.3961006E+03  0.7546771E-02  0.9667993E-01
        -11   -1    0    0    0    0  0.00000000000E+00  0.00000000000E+00  0.50000000000E+03  0.50000000000E+03  0.00000000000E+00 0. -1.
         11   -1    0    0    0    0 -0.00000000000E+00 -0.00000000000E+00 -0.50000000000E+03  0.50000000000E+03  0.00000000000E+00 0.  1.
         23    2    1    2    0    0  0.96778043083E+02 -0.13367605516E+03  0.10841304767E+02  0.19071918448E+03  0.94978924472E+02 0.  0.
        -11    1    1    2    0    0  0.10081971029E+02 -0.74983352495E+02  0.36147433040E+03  0.36930724448E+03  0.00000000000E+00 0. -1.
         11    1    1    2    0    0 -0.10686001411E+03  0.20865940766E+03 -0.37231563517E+03  0.43997357103E+03  0.00000000000E+00 0.  1.
        -15    1    3    3    0    0  0.93051715388E+02 -0.60914262149E+02 -0.17353607860E+02  0.11257652732E+03  0.17770000000E+01 0.  1.
         15    1    3    3    0    0  0.37263276952E+01 -0.72761793011E+02  0.28194912628E+02  0.78142657156E+02  0.17770000000E+01 0. -1.
</event>
<event>
 7    1  0.5285153E-006  0.5127677E+03  0.7546771E-02  0.9371686E-01
        -11   -1    0    0    0    0  0.00000000000E+00  0.00000000000E+00  0.50000000000E+03  0.50000000000E+03  0.00000000000E+00 0.  1.
         11   -1    0    0    0    0 -0.00000000000E+00 -0.00000000000E+00 -0.50000000000E+03  0.50000000000E+03  0.00000000000E+00 0.  1.
         23    2    1    2    0    0 -0.35843770464E+02 -0.58513716755E+01 -0.25866302775E+03  0.27700359670E+03  0.92224813541E+02 0.  0.
        -11    1    1    2    0    0  0.90908397984E+02 -0.76859512336E+02  0.47246548263E+03  0.48723234061E+03  0.00000000000E+00 0.  1.
         11    1    1    2    0    0 -0.55064627520E+02  0.82710884012E+02 -0.21380245489E+03  0.23576406268E+03  0.00000000000E+00 0.  1.
        -15    1    3    3    0    0  0.11394127961E+02  0.34442262591E+02 -0.80239985841E+02  0.88077855679E+02  0.17770000000E+01 0.  1.
         15    1    3    3    0    0 -0.47237898425E+02 -0.40293634267E+02 -0.17842304190E+03  0.18892574102E+03  0.17770000000E+01 0. -1.
</event>
<event>
 7    1  0.5285153E-006  0.3623621E+03  0.7546771E-02  0.9774651E-01
        -11   -1    0    0    0    0  0.00000000000E+00  0.00000000000E+00  0.50000000000E+03  0.50000000000E+03  0.00000000000E+00 0.  1.
         11   -1    0    0    0    0 -0.00000000000E+00 -0.00000000000E+00 -0.50000000000E+03  0.50000000000E+03  0.00000000000E+00 0. -1.
         23    2    1    2    0    0  0.21111878289E+03  0.81978667756E+02  0.22393579584E+03  0.33128004075E+03  0.91145939499E+02 0.  0.
        -11    1    1    2    0    0 -0.87278304772E+02  0.22668219817E+03  0.37377573994E+02  0.24576290300E+03  0.00000000000E+00 0.  1.
         11    1    1    2    0    0 -0.12384047811E+03 -0.30866086593E+03 -0.26131336984E+03  0.42295705625E+03  0.00000000000E+00 0. -1.
        -15    1    3    3    0    0  0.11238147855E+03  0.62737631837E+02  0.67661223258E+02  0.14541941421E+03  0.17770000000E+01 0.  1.
         15    1    3    3    0    0  0.98737304340E+02  0.19241035919E+02  0.15627457259E+03  0.18586062654E+03  0.17770000000E+01 0. -1.
</event>
<event>
 7    1  0.5285153E-006  0.3579815E+03  0.7546771E-02  0.9789410E-01
        -11   -1    0    0    0    0  0.00000000000E+00  0.00000000000E+00  0.50000000000E+03  0.50000000000E+03  0.00000000000E+00 0. -1.
         11   -1    0    0    0    0 -0.00000000000E+00 -0.00000000000E+00 -0.50000000000E+03  0.50000000000E+03  0.00000000000E+00 0.  1.
         23    2    1    2    0    0 -0.11434782871E+03 -0.13253771275E+03  0.14037419027E+03  0.24970038385E+03  0.10956138538E+03 0.  0.
        -11    1    1    2    0    0  0.84065498808E+01  0.15441139777E+03  0.27802765340E+03  0.31813978987E+03  0.00000000000E+00 0. -1.
         11    1    1    2    0    0  0.10594127883E+03 -0.21873685014E+02 -0.41840184368E+03  0.43215982628E+03  0.00000000000E+00 0.  1.
        -15    1    3    3    0    0  0.57312494759E+01  0.14821032530E+02  0.15419108278E+02  0.22212988427E+02  0.17770000000E+01 0. -1.
         15    1    3    3    0    0 -0.12007907819E+03 -0.14735874528E+03  0.12495508200E+03  0.22748739542E+03  0.17770000000E+01 0.  1.
</event>
<event>
 7    1  0.5285153E-006  0.5243329E+03  0.7546771E-02  0.9346951E-01
        -11   -1    0    0    0    0  0.00000000000E+00  0.00000000000E+00  0.50000000000E+03  0.50000000000E+03  0.00000000000E+00 0. -1.
         11   -1    0    0    0    0 -0.00000000000E+00 -0.00000000000E+00 -0.50000000000E+03  0.50000000000E+03  0.00000000000E+00 0.  1.
         23    2    1    2    0    0 -0.14416766840E+03 -0.75112075945E+02  0.13923802470E+03  0.23271602218E+03  0.91342098132E+02 0.  0.
        -11    1    1    2    0    0 -0.14911363038E+03  0.86875402273E+02  0.23507057194E+03  0.29161684464E+03  0.00000000000E+00 0. -1.
         11    1    1    2    0    0  0.29328129878E+03 -0.11763326328E+02 -0.37430859665E+03  0.47566713318E+03  0.00000000000E+00 0.  1.
        -15    1    3    3    0    0 -0.11171367198E+03 -0.35604798012E+02  0.45220767994E+02  0.12568103173E+03  0.17770000000E+01 0.  1.
         15    1    3    3    0    0 -0.32453996421E+02 -0.39507277933E+02  0.94017256710E+02  0.10703499045E+03  0.17770000000E+01 0. -1.
</event>
<event>
 7    1  0.5285153E-006  0.3898775E+03  0.7546771E-02  0.9686792E-01
        -11   -1    0    0    0    0  0.00000000000E+00  0.00000000000E+00  0.50000000000E+03  0.50000000000E+03  0.00000000000E+00 0. -1.
         11   -1    0    0    0    0 -0.00000000000E+00 -0.00000000000E+00 -0.50000000000E+03  0.50000000000E+03  0.00000000000E+00 0. -1.
         23    2    1    2    0    0  0.56131940544E+02 -0.47277369903E+02 -0.31601947336E+03  0.33736026007E+03  0.92507800084E+02 0.  0.
        -11    1    1    2    0    0  0.96227224913E+02  0.10950648291E+02  0.44767283834E+03  0.45802900094E+03  0.00000000000E+00 0. -1.
         11    1    1    2    0    0 -0.15235916546E+03  0.36326721612E+02 -0.13165336498E+03  0.20461073900E+03  0.00000000000E+00 0. -1.
        -15    1    3    3    0    0 -0.54478295064E+01 -0.41246087190E+02 -0.21413116665E+03  0.21814268911E+03  0.17770000000E+01 0.  1.
         15    1    3    3    0    0  0.61579770050E+02 -0.60312827126E+01 -0.10188830671E+03  0.11921757095E+03  0.17770000000E+01 0. -1.
</event>
<event>
 7    1  0.5285153E-006  0.4005271E+03  0.7546771E-02  0.9654845E-01
        -11   -1    0    0    0    0  0.00000000000E+00  0.00000000000E+00  0.50000000000E+03  0.50000000000E+03  0.00000000000E+00 0.  1.
         11   -1    0    0    0    0 -0.00000000000E+00 -0.00000000000E+00 -0.50000000000E+03  0.50000000000E+03  0.00000000000E+00 0. -1.
         23    2    1    2    0    0  0.89485054435E+02 -0.20091987637E+03 -0.35587022535E+03  0.42809447582E+03  0.90801383518E+02 0.  0.
        -11    1    1    2    0    0  0.73266056702E+02  0.10808252355E+03  0.36159676945E+03  0.38445021867E+03  0.00000000000E+00 0.  1.
         11    1    1    2    0    0 -0.16275111114E+03  0.92837352821E+02 -0.57265440963E+01  0.18745530551E+03  0.00000000000E+00 0. -1.
        -15    1    3    3    0    0  0.26998559358E+02 -0.18021979507E+02 -0.14060302643E+02  0.35419822023E+02  0.17770000000E+01 0.  1.
         15    1    3    3    0    0  0.62486495077E+02 -0.18289789686E+03 -0.34180992271E+03  0.39267465380E+03  0.17770000000E+01 0. -1.
</event>
<event>
 7    1  0.5285153E-006  0.5352550E+03  0.7546771E-02  0.9324205E-01
        -11   -1    0    0    0    0  0.00000000000E+00  0.00000000000E+00  0.50000000000E+03  0.50000000000E+03  0.00000000000E+00 0.  1.
         11   -1    0    0    0    0 -0.00000000000E+00 -0.00000000000E+00 -0.50000000000E+03  0.50000000000E+03  0.00000000000E+00 0. -1.
         23    2    1    2    0    0  0.25604121699E+02  0.16514112713E+02 -0.34284465562E+02  0.10391304720E+03  0.93242746816E+02 0.  0.
        -11    1    1    2    0    0  0.33990645274E+02 -0.72110312418E+02  0.45785662482E+03  0.46474503764E+03  0.00000000000E+00 0.  1.
         11    1    1    2    0    0 -0.59594766973E+02  0.55596199705E+02 -0.42357215926E+03  0.43134191515E+03  0.00000000000E+00 0. -1.
        -15    1    3    3    0    0  0.91290825229E+01 -0.12897082618E+02  0.28495928143E+02  0.32632047707E+02  0.17770000000E+01 0.  1.
         15    1    3    3    0    0  0.16475039176E+02  0.29411195331E+02 -0.62780393705E+02  0.71280999498E+02  0.17770000000E+01 0. -1.
</event>
<event>
 7    1  0.5285153E-006  0.5085865E+03  0.7546771E-02  0.9380799E-01
        -11   -1    0    0    0    0  0.00000000000E+00  0.00000000000E+00  0.50000000000E+03  0.50000000000E+03  0.00000000000E+00 0. -1.
         11   -1    0    0    0    0 -0.00000000000E+00 -0.00000000000E+00 -0.50000000000E+03  0.50000000000E+03  0.00000000000E+00 0. -1.
         23    2    1    2    0    0  0.25362832051E+03  0.75953872149E+02  0.30043339136E+03  0.41047639441E+03  0.90190532024E+02 0.  0.
        -11    1    1    2    0    0  0.43900420226E+02  0.55580844072E+02  0.67890488984E+02  0.98110119857E+02  0.00000000000E+00 0. -1.
         11    1    1    2    0    0 -0.29752874073E+03 -0.13153471622E+03 -0.36832388034E+03  0.49141348574E+03  0.00000000000E+00 0. -1.
        -15    1    3    3    0    0  0.11452039478E+03  0.50822815460E+02  0.20378337294E+03  0.23922520814E+03  0.17770000000E+01 0. -1.
         15    1    3    3    0    0  0.13910792573E+03  0.25131056689E+02  0.96650018413E+02  0.17125118627E+03  0.17770000000E+01 0.  1.
</event>
<event>
 6    1  0.5285153E-006  0.5377053E+03  0.7546771E-02  0.9319181E-01
        -11   -1    0    0    0    0  0.00000000000E+00  0.00000000000E+00  0.50000000000E+03  0.50000000000E+03  0.00000000000E+00 0. -1.
         11   -1    0    0    0    0 -0.00000000000E+00 -0.00000000000E+00 -0.50000000000E+03  0.50000000000E+03  0.00000000000E+00 0. -1.
        -11    1    1    2    0    0 -0.25418914343E+03 -0.28983481601E+03  0.25514709544E+03  0.46229469121E+03  0.00000000000E+00 0. -1.
         11    1    1    2    0    0  0.18798085348E+03  0.12948189080E+03 -0.16544370304E+03  0.28191129845E+03  0.00000000000E+00 0. -1.
        -15    1    1    2    0    0  0.45408818165E+02  0.10703416343E+03 -0.13830257753E+03  0.18069043579E+03  0.17770000000E+01 0.  1.
         15    1    1    2    0    0  0.20799471786E+02  0.53318761784E+02  0.48599185133E+02  0.75103574544E+02  0.17770000000E+01 0. -1.
</event>
<event>
 7    1  0.5285153E-006  0.5171106E+03  0.7546771E-02  0.9362317E-01
        -11   -1    0    0    0    0  0.00000000000E+00  0.00000000000E+00  0.50000000000E+03  0.50000000000E+03  0.00000000000E+00 0. -1.
         11   -1    0    0    0    0 -0.00000000000E+00 -0.00000000000E+00 -0.50000000000E+03  0.50000000000E+03  0.00000000000E+00 0.  1.
         23    2    1    2    0    0  0.67595207147E+02  0.13289703145E+03  0.32458995751E+03  0.36877433849E+03  0.91679546344E+02 0.  0.
        -11    1    1    2    0    0  0.27602563502E+02 -0.41085442647E+02  0.13983463901E+03  0.14833624432E+03  0.00000000000E+00 0. -1.
         11    1    1    2    0    0 -0.95197770649E+02 -0.91811588802E+02 -0.46442459653E+03  0.48288941719E+03  0.00000000000E+00 0.  1.
        -15    1    3    3    0    0  0.78247826974E+02  0.54052849772E+02  0.18797917487E+03  0.21067453787E+03  0.17770000000E+01 0.  1.
         15    1    3    3    0    0 -0.10652619827E+02  0.78844181677E+02  0.13661078265E+03  0.15809980062E+03  0.17770000000E+01 0. -1.
</event>
<event>
 7    1  0.5285153E-006  0.4157267E+03  0.7546771E-02  0.9611042E-01
        -11   -1    0    0    0    0  0.00000000000E+00  0.00000000000E+00  0.50000000000E+03  0.50000000000E+03  0.00000000000E+00 0. -1.
         11   -1    0    0    0    0 -0.00000000000E+00 -0.00000000000E+00 -0.50000000000E+03  0.50000000000E+03  0.00000000000E+00 0. -1.
         23    2    1    2    0    0  0.71722962164E+02  0.14971826081E+03 -0.39031825018E+03  0.43666081177E+03  0.10375252859E+03 0.  0.
        -11    1    1    2    0    0 -0.16014133110E+03  0.13664728941E+02  0.38170530285E+02  0.16519370486E+03  0.00000000000E+00 0. -1.
         11    1    1    2    0    0  0.88418368935E+02 -0.16338298975E+03  0.35214771989E+03  0.39814548337E+03  0.00000000000E+00 0. -1.
        -15    1    3    3    0    0 -0.15789191448E+02  0.78555456594E+02 -0.12671271472E+03  0.14993174489E+03  0.17770000000E+01 0.  1.
         15    1    3    3    0    0  0.87512153612E+02  0.71162804216E+02 -0.26360553546E+03  0.28672906687E+03  0.17770000000E+01 0. -1.
</event>
<event>
 7    1  0.5285153E-006  0.5112998E+03  0.7546771E-02  0.9374875E-01
        -11   -1    0    0    0    0  0.00000000000E+00  0.00000000000E+00  0.50000000000E+03  0.50000000000E+03  0.00000000000E+00 0.  1.
         11   -1    0    0    0    0 -0.00000000000E+00 -0.00000000000E+00 -0.50000000000E+03  0.50000000000E+03  0.00000000000E+00 0. -1.
         23    2    1    2    0    0  0.19929725768E+02 -0.82530451891E+02 -0.25668405222E+03  0.28736604429E+03  0.97386196605E+02 0.  0.
        -11    1    1    2    0    0 -0.10210984973E+03  0.14251002767E+03  0.45617140890E+03  0.48870019818E+03  0.00000000000E+00 0.  1.
         11    1    1    2    0    0  0.82180123962E+02 -0.59979575775E+02 -0.19948735669E+03  0.22393375753E+03  0.00000000000E+00 0. -1.
        -15    1    3    3    0    0  0.22407190070E+02  0.18008919352E+01 -0.67011777250E+01  0.23524219232E+02  0.17770000000E+01 0.  1.
         15    1    3    3    0    0 -0.24774643014E+01 -0.84331343826E+02 -0.24998287449E+03  0.26384182506E+03  0.17770000000E+01 0. -1.
</event>
<event>
 7    1  0.5285153E-006  0.5162493E+03  0.7546771E-02  0.9364167E-01
        -11   -1    0    0    0    0  0.00000000000E+00  0.00000000000E+00  0.50000000000E+03  0.50000000000E+03  0.00000000000E+00 0. -1.
         11   -1    0    0    0    0 -0.00000000000E+00 -0.00000000000E+00 -0.50000000000E+03  0.50000000000E+03  0.00000000000E+00 0. -1.
         23    2    1    2    0    0 -0.92653495629E+01  0.69482875907E+02  0.16531060544E+03  0.20092583899E+03  0.90165845853E+02 0.  0.
        -11    1    1    2    0    0  0.72900636566E+02  0.17503927419E+02  0.30628092434E+03  0.31532347661E+03  0.00000000000E+00 0. -1.
         11    1    1    2    0    0 -0.63635287004E+02 -0.86986803326E+02 -0.47159152977E+03  0.48375068440E+03  0.00000000000E+00 0. -1.
        -15    1    3    3    0    0  0.25717222079E+02  0.28454092120E+02  0.13212072751E+03  0.13758653726E+03  0.17770000000E+01 0.  1.
         15    1    3    3    0    0 -0.34982571642E+02  0.41028783787E+02  0.33189877929E+02  0.63339301730E+02  0.17770000000E+01 0. -1.
</event>
<event>
 7    1  0.5285153E-006  0.5341770E+03  0.7546771E-02  0.9326424E-01
        -11   -1    0    0    0    0  0.00000000000E+00  0.00000000000E+00  0.50000000000E+03  0.50000000000E+03  0.00000000000E+00 0. -1.
         11   -1    0    0    0    0 -0.00000000000E+00 -0.00000000000E+00 -0.50000000000E+03  0.50000000000E+03  0.00000000000E+00 0.  1.
         23    2    1    2    0    0 -0.15103362281E+02  0.96223798974E+02 -0.73215579390E+02  0.14876034952E+03  0.85334573783E+02 0.  0.
        -11    1    1    2    0    0  0.13952825034E+03 -0.77988413821E+02  0.43753945434E+03  0.46582303447E+03  0.00000000000E+00 0. -1.
         11    1    1    2    0    0 -0.12442488806E+03 -0.18235385152E+02 -0.36432387495E+03  0.38541661601E+03  0.00000000000E+00 0.  1.
        -15    1    3    3    0    0 -0.28525494677E+02  0.95608028474E+02 -0.84782639456E+02  0.13094217288E+03  0.17770000000E+01 0.  1.
         15    1    3    3    0    0  0.13422132396E+02  0.61577049982E+00  0.11567060066E+02  0.17818176644E+02  0.17770000000E+01 0. -1.
</event>
<event>
 7    1  0.5285153E-006  0.5230045E+03  0.7546771E-02  0.9349757E-01
        -11   -1    0    0    0    0  0.00000000000E+00  0.00000000000E+00  0.50000000000E+03  0.50000000000E+03  0.00000000000E+00 0.  1.
         11   -1    0    0    0    0 -0.00000000000E+00 -0.00000000000E+00 -0.50000000000E+03  0.50000000000E+03  0.00000000000E+00 0. -1.
         23    2    1    2    0    0 -0.11510866423E+03  0.63544822752E+01  0.13274943532E+03  0.18629395573E+03  0.61584424468E+02 0.  0.
        -11    1    1    2    0    0  0.19204333663E+02  0.80837208258E+02  0.32629818086E+03  0.33671050400E+03  0.00000000000E+00 0.  1.
         11    1    1    2    0    0  0.95904330564E+02 -0.87191690533E+02 -0.45904761618E+03  0.47699554027E+03  0.00000000000E+00 0. -1.
        -15    1    3    3    0    0 -0.33241049222E+02 -0.15626675165E+01  0.84702655057E+02  0.91022561961E+02  0.17770000000E+01 0.  1.
         15    1    3    3    0    0 -0.81867615006E+02  0.79171497918E+01  0.48046780267E+02  0.95271393768E+02  0.17770000000E+01 0. -1.
</event>
<event>
 7    1  0.5285153E-006  0.4435019E+03  0.7546771E-02  0.9535937E-01
        -11   -1    0    0    0    0  0.00000000000E+00  0.00000000000E+00  0.50000000000E+03  0.50000000000E+03  0.00000000000E+00 0.  1.
         11   -1    0    0    0    0 -0.00000000000E+00 -0.00000000000E+00 -0.50000000000E+03  0.50000000000E+03  0.00000000000E+00 0. -1.
         23    2    1    2    0    0 -0.19937044351E+03  0.10243306666E+03 -0.36257151767E+03  0.43566443455E+03  0.90023814710E+02 0.  0.
        -11    1    1    2    0    0  0.12919783665E+03 -0.40234444500E+02  0.42872860330E+03  0.44957658614E+03  0.00000000000E+00 0.  1.
         11    1    1    2    0    0  0.70172606861E+02 -0.62198622158E+02 -0.66157085634E+02  0.11475897931E+03  0.00000000000E+00 0. -1.
        -15    1    3    3    0    0 -0.85616220930E+01  0.12787245066E+02  0.85433596778E+00  0.15514594039E+02  0.17770000000E+01 0.  1.
         15    1    3    3    0    0 -0.19080882142E+03  0.89645821592E+02 -0.36342585364E+03  0.42014984051E+03  0.17770000000E+01 0. -1.
</event>
<event>
 7    1  0.5285153E-006  0.3820130E+03  0.7546771E-02  0.9711092E-01
        -11   -1    0    0    0    0  0.00000000000E+00  0.00000000000E+00  0.50000000000E+03  0.50000000000E+03  0.00000000000E+00 0.  1.
         11   -1    0    0    0    0 -0.00000000000E+00 -0.00000000000E+00 -0.50000000000E+03  0.50000000000E+03  0.00000000000E+00 0. -1.
         23    2    1    2    0    0  0.88059113426E+02  0.16025477645E+03 -0.27312459327E+03  0.34055352260E+03  0.89127198285E+02 0.  0.
        -11    1    1    2    0    0  0.60751721351E+02 -0.11607942541E+03  0.42351283412E+03  0.44331515349E+03  0.00000000000E+00 0.  1.
         11    1    1    2    0    0 -0.14881083478E+03 -0.44175351043E+02 -0.15038824085E+03  0.21613132390E+03  0.00000000000E+00 0. -1.
        -15    1    3    3    0    0  0.50896405390E+02  0.15814641048E+03 -0.22444008947E+03  0.27924405584E+03  0.17770000000E+01 0. -1.
         15    1    3    3    0    0  0.37162708036E+02  0.21083659697E+01 -0.48684503802E+02  0.61309466765E+02  0.17770000000E+01 0.  1.
</event>
<event>
 7    1  0.5285153E-006  0.4172880E+03  0.7546771E-02  0.9606656E-01
        -11   -1    0    0    0    0  0.00000000000E+00  0.00000000000E+00  0.50000000000E+03  0.50000000000E+03  0.00000000000E+00 0. -1.
         11   -1    0    0    0    0 -0.00000000000E+00 -0.00000000000E+00 -0.50000000000E+03  0.50000000000E+03  0.00000000000E+00 0. -1.
         23    2    1    2    0    0 -0.52290915860E+01  0.41884609556E+02 -0.36637834286E+03  0.37883914162E+03  0.86627600631E+02 0.  0.
        -11    1    1    2    0    0 -0.10560946433E+03  0.38265385512E+02  0.44800649654E+03  0.46187381353E+03  0.00000000000E+00 0. -1.
         11    1    1    2    0    0  0.11083855591E+03 -0.80149995068E+02 -0.81628153679E+02  0.15928704486E+03  0.00000000000E+00 0. -1.
        -15    1    3    3    0    0 -0.18217737599E+02  0.66147657928E+02 -0.27074054350E+03  0.27930449018E+03  0.17770000000E+01 0. -1.
         15    1    3    3    0    0  0.12988646013E+02 -0.24263048372E+02 -0.95637799359E+02  0.99534651438E+02  0.17770000000E+01 0.  1.
</event>
<event>
 7    1  0.5285153E-006  0.5219312E+03  0.7546771E-02  0.9352031E-01
        -11   -1    0    0    0    0  0.00000000000E+00  0.00000000000E+00  0.50000000000E+03  0.50000000000E+03  0.00000000000E+00 0.  1.
         11   -1    0    0    0    0 -0.00000000000E+00 -0.00000000000E+00 -0.50000000000E+03  0.50000000000E+03  0.00000000000E+00 0.  1.
         23    2    1    2    0    0 -0.83242094178E+02 -0.90537450414E+02 -0.30151076133E+03  0.33800830307E+03  0.90634417172E+02 0.  0.
        -11    1    1    2    0    0  0.94831756358E+02  0.14019614851E+02  0.46835900411E+03  0.47806879039E+03  0.00000000000E+00 0.  1.
         11    1    1    2    0    0 -0.11589662180E+02  0.76517835562E+02 -0.16684824278E+03  0.18392290654E+03  0.00000000000E+00 0.  1.
        -15    1    3    3    0    0 -0.80349401332E+01  0.10673211533E+02 -0.27941504443E+01  0.13763818986E+02  0.17770000000E+01 0. -1.
         15    1    3    3    0    0 -0.75207154045E+02 -0.10121066195E+03 -0.29871661089E+03  0.32424448409E+03  0.17770000000E+01 0.  1.
</event>
<event>
 7    1  0.5285153E-006  0.3353563E+03  0.7546771E-02  0.9869413E-01
        -11   -1    0    0    0    0  0.00000000000E+00  0.00000000000E+00  0.50000000000E+03  0.50000000000E+03  0.00000000000E+00 0.  1.
         11   -1    0    0    0    0 -0.00000000000E+00 -0.00000000000E+00 -0.50000000000E+03  0.50000000000E+03  0.00000000000E+00 0. -1.
         23    2    1    2    0    0 -0.20436552326E+03  0.26453346617E+03 -0.20607654132E+03  0.40460334093E+03  0.97432544840E+02 0.  0.
        -11    1    1    2    0    0  0.19193613804E+02 -0.70741565877E+02  0.30195733647E+03  0.31072656308E+03  0.00000000000E+00 0.  1.
         11    1    1    2    0    0  0.18517190945E+03 -0.19379190029E+03 -0.95880795154E+02  0.28467009599E+03  0.00000000000E+00 0. -1.
        -15    1    3    3    0    0 -0.58326208067E+02  0.15421949806E+03 -0.10563482639E+03  0.19582511178E+03  0.17770000000E+01 0.  1.
         15    1    3    3    0    0 -0.14603931519E+03  0.11031396811E+03 -0.10044171493E+03  0.20877822915E+03  0.17770000000E+01 0. -1.
</event>
<event>
 7    1  0.5285153E-006  0.5329303E+03  0.7546771E-02  0.9328998E-01
        -11   -1    0    0    0    0  0.00000000000E+00  0.00000000000E+00  0.50000000000E+03  0.50000000000E+03  0.00000000000E+00 0. -1.
         11   -1    0    0    0    0 -0.00000000000E+00 -0.00000000000E+00 -0.50000000000E+03  0.50000000000E+03  0.00000000000E+00 0.  1.
         23    2    1    2    0    0  0.13145882573E+02 -0.32165484307E+02 -0.23257600193E+03  0.25465019265E+03  0.97712288543E+02 0.  0.
        -11    1    1    2    0    0  0.16684513042E+03  0.14810299043E+03  0.41034418265E+03  0.46706973950E+03  0.00000000000E+00 0. -1.
         11    1    1    2    0    0 -0.17999101300E+03 -0.11593750612E+03 -0.17776818072E+03  0.27828006785E+03  0.00000000000E+00 0.  1.
        -15    1    3    3    0    0  0.70325083429E+01  0.19995856311E+02 -0.60577151679E+01  0.22116602028E+02  0.17770000000E+01 0. -1.
         15    1    3    3    0    0  0.61133742301E+01 -0.52161340618E+02 -0.22651828677E+03  0.23253359062E+03  0.17770000000E+01 0.  1.
</event>
<event>
 7    1  0.5285153E-006  0.5349526E+03  0.7546771E-02  0.9324827E-01
        -11   -1    0    0    0    0  0.00000000000E+00  0.00000000000E+00  0.50000000000E+03  0.50000000000E+03  0.00000000000E+00 0.  1.
         11   -1    0    0    0    0 -0.00000000000E+00 -0.00000000000E+00 -0.50000000000E+03  0.50000000000E+03  0.00000000000E+00 0. -1.
         23    2    1    2    0    0  0.81505785199E+01  0.16720515696E+03  0.22155565689E+03  0.29359251337E+03  0.95318719899E+02 0.  0.
        -11    1    1    2    0    0 -0.27278023624E+02 -0.63254171667E+02  0.23132119742E+03  0.24136005714E+03  0.00000000000E+00 0.  1.
         11    1    1    2    0    0  0.19127445104E+02 -0.10395098530E+03 -0.45287685431E+03  0.46504742949E+03  0.00000000000E+00 0. -1.
        -15    1    3    3    0    0  0.38978925320E+02  0.36676288528E+02  0.95682478944E+02  0.10964853517E+03  0.17770000000E+01 0. -1.
         15    1    3    3    0    0 -0.30828346800E+02  0.13052886843E+03  0.12587317795E+03  0.18394397820E+03  0.17770000000E+01 0.  1.
</event>
<event>
 7    1  0.5285153E-006  0.4695604E+03  0.7546771E-02  0.9470621E-01
        -11   -1    0    0    0    0  0.00000000000E+00  0.00000000000E+00  0.50000000000E+03  0.50000000000E+03  0.00000000000E+00 0.  1.
         11   -1    0    0    0    0 -0.00000000000E+00 -0.00000000000E+00 -0.50000000000E+03  0.50000000000E+03  0.00000000000E+00 0. -1.
         23    2    1    2    0    0 -0.35709720759E+02 -0.36947422871E+02 -0.45137398518E+03  0.46335739171E+03  0.91221169372E+02 0.  0.
        -11    1    1    2    0    0  0.49523319304E+02  0.10279429610E+03  0.45517173826E+03  0.46925530128E+03  0.00000000000E+00 0.  1.
         11    1    1    2    0    0 -0.13813598545E+02 -0.65846873226E+02 -0.37977530807E+01  0.67387307016E+02  0.00000000000E+00 0. -1.
        -15    1    3    3    0    0  0.10775146705E+01 -0.59674612770E+02 -0.21936035761E+03  0.22734191137E+03  0.17770000000E+01 0.  1.
         15    1    3    3    0    0 -0.36787235429E+02  0.22727189900E+02 -0.23201362757E+03  0.23601548034E+03  0.17770000000E+01 0. -1.
</event>
<event>
 7    1  0.5285153E-006  0.3457589E+03  0.7546771E-02  0.9831814E-01
        -11   -1    0    0    0    0  0.00000000000E+00  0.00000000000E+00  0.50000000000E+03  0.50000000000E+03  0.00000000000E+00 0. -1.
         11   -1    0    0    0    0 -0.00000000000E+00 -0.00000000000E+00 -0.50000000000E+03  0.50000000000E+03  0.00000000000E+00 0.  1.
         23    2    1    2    0    0  0.24235686507E+02  0.24872675417E+03 -0.29254827407E+02  0.26412971869E+03  0.80351083551E+02 0.  0.
        -11    1    1    2    0    0 -0.77195126661E+02  0.22321017039E+02  0.32290576152E+03  0.33275433311E+03  0.00000000000E+00 0. -1.
         11    1    1    2    0    0  0.52959440154E+02 -0.27104777121E+03 -0.29365093412E+03  0.40311594819E+03  0.00000000000E+00 0.  1.
        -15    1    3    3    0    0  0.76973949082E+01  0.18704817835E+03  0.12792756307E+02  0.18765149415E+03  0.17770000000E+01 0.  1.
         15    1    3    3    0    0  0.16538291599E+02  0.61678575824E+02 -0.42047583714E+02  0.76478224546E+02  0.17770000000E+01 0. -1.
</event>
<event>
 7    1  0.5285153E-006  0.5288123E+03  0.7546771E-02  0.9337552E-01
        -11   -1    0    0    0    0  0.00000000000E+00  0.00000000000E+00  0.50000000000E+03  0.50000000000E+03  0.00000000000E+00 0.  1.
         11   -1    0    0    0    0 -0.00000000000E+00 -0.00000000000E+00 -0.50000000000E+03  0.50000000000E+03  0.00000000000E+00 0. -1.
         23    2    1    2    0    0  0.42712341711E+02  0.50209652194E+02 -0.18413679124E+03  0.21589552867E+03  0.91428486275E+02 0.  0.
        -11    1    1    2    0    0  0.74685490544E+02  0.23676617194E+02  0.46462822554E+03  0.47118774673E+03  0.00000000000E+00 0.  1.
         11    1    1    2    0    0 -0.11739783226E+03 -0.73886269389E+02 -0.28049143430E+03  0.31291672460E+03  0.00000000000E+00 0. -1.
        -15    1    3    3    0    0  0.72660679363E+01  0.31204316903E+02 -0.17034286970E+03  0.17333884771E+03  0.17770000000E+01 0. -1.
         15    1    3    3    0    0  0.35446273775E+02  0.19005335291E+02 -0.13793921538E+02  0.42556680961E+02  0.17770000000E+01 0.  1.
</event>
<event>
 7    1  0.6134975E-006  0.5091292E+03  0.7546771E-02  0.9379611E-01
        -11   -1    0    0    0    0  0.00000000000E+00  0.00000000000E+00  0.50000000000E+03  0.50000000000E+03  0.00000000000E+00 0. -1.
         11   -1    0    0    0    0 -0.00000000000E+00 -0.00000000000E+00 -0.50000000000E+03  0.50000000000E+03  0.00000000000E+00 0.  1.
         23    2    1    2    0    0 -0.67265188464E+02  0.29275473564E+02  0.33718254332E+03  0.35816776756E+03  0.95970950101E+02 0.  0.
        -11    1    1    2    0    0 -0.31461398368E+01  0.51607293713E+02  0.14183139881E+03  0.15096144094E+03  0.00000000000E+00 0. -1.
         11    1    1    2    0    0  0.70411328301E+02 -0.80882767277E+02 -0.47901394214E+03  0.49087079151E+03  0.00000000000E+00 0.  1.
        -15    1    3    3    0    0  0.21694386535E+02  0.14387629228E+02  0.12342607257E+03  0.12615388778E+03  0.17770000000E+01 0.  1.
         15    1    3    3    0    0 -0.88959574999E+02  0.14887844336E+02  0.21375647075E+03  0.23201387978E+03  0.17770000000E+01 0. -1.
</event>
<event>
 7    1  0.5285153E-006  0.4718145E+03  0.7546771E-02  0.9465184E-01
        -11   -1    0    0    0    0  0.00000000000E+00  0.00000000000E+00  0.50000000000E+03  0.50000000000E+03  0.00000000000E+00 0.  1.
         11   -1    0    0    0    0 -0.00000000000E+00 -0.00000000000E+00 -0.50000000000E+03  0.50000000000E+03  0.00000000000E+00 0. -1.
         23    2    1    2    0    0 -0.43470092087E+02 -0.33490496185E+02 -0.45105548057E+03  0.46316082105E+03  0.89753202558E+02 0.  0.
        -11    1    1    2    0    0  0.54364551111E+02  0.94570950112E+02  0.46124070927E+03  0.47396430341E+03  0.00000000000E+00 0.  1.
         11    1    1    2    0    0 -0.10894459024E+02 -0.61080453927E+02 -0.10185228705E+02  0.62874875532E+02  0.00000000000E+00 0. -1.
        -15    1    3    3    0    0  0.22602599930E+02 -0.21020205868E+02 -0.74756598073E+02  0.80897671554E+02  0.17770000000E+01 0.  1.
         15    1    3    3    0    0 -0.66072692017E+02 -0.12470290316E+02 -0.37629888249E+03  0.38226314950E+03  0.17770000000E+01 0. -1.
</event>
<event>
 7    1  0.5285153E-006  0.3762146E+03  0.7546771E-02  0.9729413E-01
        -11   -1    0    0    0    0  0.00000000000E+00  0.00000000000E+00  0.50000000000E+03  0.50000000000E+03  0.00000000000E+00 0. -1.
         11   -1    0    0    0    0 -0.00000000000E+00 -0.00000000000E+00 -0.50000000000E+03  0.50000000000E+03  0.00000000000E+00 0. -1.
         23    2    1    2    0    0  0.11244422098E+02 -0.27976408105E+02 -0.44292516249E+03  0.45347382841E+03  0.92448347987E+02 0.  0.
        -11    1    1    2    0    0  0.12894097341E+03  0.93281345910E+02  0.27875788086E+03  0.32098775718E+03  0.00000000000E+00 0. -1.
         11    1    1    2    0    0 -0.14018539550E+03 -0.65304937805E+02  0.16416728164E+03  0.22553841441E+03  0.00000000000E+00 0. -1.
        -15    1    3    3    0    0 -0.40472080284E+01 -0.60533143197E+02 -0.30031173781E+03  0.30638364662E+03  0.17770000000E+01 0. -1.
         15    1    3    3    0    0  0.15291630126E+02  0.32556735092E+02 -0.14261342468E+03  0.14709018180E+03  0.17770000000E+01 0.  1.
</event>
<event>
 7    1  0.5285153E-006  0.3873470E+03  0.7546771E-02  0.9694543E-01
        -11   -1    0    0    0    0  0.00000000000E+00  0.00000000000E+00  0.50000000000E+03  0.50000000000E+03  0.00000000000E+00 0. -1.
         11   -1    0    0    0    0 -0.00000000000E+00 -0.00000000000E+00 -0.50000000000E+03  0.50000000000E+03  0.00000000000E+00 0.  1.
         23    2    1    2    0    0 -0.10373862687E+03 -0.12785361412E+03 -0.80962721577E+02  0.20387567943E+03  0.88893650110E+02 0.  0.
        -11    1    1    2    0    0  0.14468979274E+03 -0.50106241309E+02  0.40012002308E+03  0.42841779190E+03  0.00000000000E+00 0. -1.
         11    1    1    2    0    0 -0.40951165878E+02  0.17795985542E+03 -0.31915730150E+03  0.36770652868E+03  0.00000000000E+00 0.  1.
        -15    1    3    3    0    0 -0.76734280919E+02 -0.99582076568E+02 -0.99721954342E+02  0.16047543659E+03  0.17770000000E+01 0. -1.
         15    1    3    3    0    0 -0.27004345948E+02 -0.28271537548E+02  0.18759232765E+02  0.43400242837E+02  0.17770000000E+01 0.  1.
</event>
<event>
 7    1  0.5285153E-006  0.3900153E+03  0.7546771E-02  0.9686371E-01
        -11   -1    0    0    0    0  0.00000000000E+00  0.00000000000E+00  0.50000000000E+03  0.50000000000E+03  0.00000000000E+00 0.  1.
         11   -1    0    0    0    0 -0.00000000000E+00 -0.00000000000E+00 -0.50000000000E+03  0.50000000000E+03  0.00000000000E+00 0. -1.
         23    2    1    2    0    0  0.25586386639E+02  0.16701520887E+03 -0.52043560984E+02  0.20018434093E+03  0.93896192359E+02 0.  0.
        -11    1    1    2    0    0  0.21376679917E+02 -0.71034460763E+02  0.41493788430E+03  0.42151667213E+03  0.00000000000E+00 0.  1.
         11    1    1    2    0    0 -0.46963066557E+02 -0.95980748105E+02 -0.36289432331E+03  0.37829898694E+03  0.00000000000E+00 0. -1.
        -15    1    3    3    0    0  0.77940211780E+01  0.16488240550E+03 -0.23935068752E+02  0.16680227713E+03  0.17770000000E+01 0.  1.
         15    1    3    3    0    0  0.17792365461E+02  0.21328033630E+01 -0.28108492232E+02  0.33382063799E+02  0.17770000000E+01 0. -1.
</event>
<event>
 7    1  0.5285153E-006  0.3783759E+03  0.7546771E-02  0.9722543E-01
        -11   -1    0    0    0    0  0.00000000000E+00  0.00000000000E+00  0.50000000000E+03  0.50000000000E+03  0.00000000000E+00 0.  1.
         11   -1    0    0    0    0 -0.00000000000E+00 -0.00000000000E+00 -0.50000000000E+03  0.50000000000E+03  0.00000000000E+00 0.  1.
         23    2    1    2    0    0  0.84407264882E+02  0.30979531874E+01 -0.18568881669E+03  0.21623487994E+03  0.71714733359E+02 0.  0.
        -11    1    1    2    0    0 -0.19796408560E+02  0.28626018824E+03  0.34375543647E+03  0.44777739253E+03  0.00000000000E+00 0.  1.
         11    1    1    2    0    0 -0.64610856322E+02 -0.28935814142E+03 -0.15806661978E+03  0.33598772753E+03  0.00000000000E+00 0.  1.
        -15    1    3    3    0    0 -0.10673474328E+02  0.80382766307E+01 -0.39777529377E+02  0.41999363302E+02  0.17770000000E+01 0.  1.
         15    1    3    3    0    0  0.95080739210E+02 -0.49403234433E+01 -0.14591128731E+03  0.17423551664E+03  0.17770000000E+01 0. -1.
</event>
<event>
 7    1  0.5285153E-006  0.4193593E+03  0.7546771E-02  0.9600868E-01
        -11   -1    0    0    0    0  0.00000000000E+00  0.00000000000E+00  0.50000000000E+03  0.50000000000E+03  0.00000000000E+00 0. -1.
         11   -1    0    0    0    0 -0.00000000000E+00 -0.00000000000E+00 -0.50000000000E+03  0.50000000000E+03  0.00000000000E+00 0.  1.
         23    2    1    2    0    0 -0.17510305269E+02  0.11294342279E+03 -0.43639762657E+02  0.15240563111E+03  0.90885752282E+02 0.  0.
        -11    1    1    2    0    0 -0.12377908581E+03  0.37564890948E+01  0.41521479628E+03  0.43328824164E+03  0.00000000000E+00 0. -1.
         11    1    1    2    0    0  0.14128939108E+03 -0.11669991189E+03 -0.37157503362E+03  0.41430612725E+03  0.00000000000E+00 0.  1.
        -15    1    3    3    0    0 -0.98739259751E+01  0.91469519923E+01  0.24488774252E+02  0.28000338181E+02  0.17770000000E+01 0. -1.
         15    1    3    3    0    0 -0.76363792940E+01  0.10379647080E+03 -0.68128536909E+02  0.12440529293E+03  0.17770000000E+01 0.  1.
</event>
<event>
 7    1  0.5285153E-006  0.5381017E+03  0.7546771E-02  0.9318371E-01
        -11   -1    0    0    0    0  0.00000000000E+00  0.00000000000E+00  0.50000000000E+03  0.50000000000E+03  0.00000000000E+00 0.  1.
         11   -1    0    0    0    0 -0.00000000000E+00 -0.00000000000E+00 -0.50000000000E+03  0.50000000000E+03  0.00000000000E+00 0.  1.
         23    2    1    2    0    0  0.90585687087E+02 -0.17958885529E+02 -0.86423859568E+02  0.15611732800E+03  0.91516382825E+02 0.  0.
        -11    1    1    2    0    0 -0.23163141745E+02  0.19564150523E+03  0.41777735612E+03  0.46189831022E+03  0.00000000000E+00 0.  1.
         11    1    1    2    0    0 -0.67422545342E+02 -0.17768261970E+03 -0.33135349655E+03  0.38198436177E+03  0.00000000000E+00 0.  1.
        -15    1    3    3    0    0  0.82317624601E+02 -0.35240011777E+02 -0.98713654702E+02  0.13328763297E+03  0.17770000000E+01 0. -1.
         15    1    3    3    0    0  0.82680624863E+01  0.17281126248E+02  0.12289795134E+02  0.22829695029E+02  0.17770000000E+01 0.  1.
</event>
<event>
 7    1  0.5285153E-006  0.3451334E+03  0.7546771E-02  0.9834035E-01
        -11   -1    0    0    0    0  0.00000000000E+00  0.00000000000E+00  0.50000000000E+03  0.50000000000E+03  0.00000000000E+00 0.  1.
         11   -1    0    0    0    0 -0.00000000000E+00 -0.00000000000E+00 -0.50000000000E+03  0.50000000000E+03  0.00000000000E+00 0. -1.
         23    2    1    2    0    0 -0.98090932426E+02  0.35303070092E+02 -0.23778983919E+03  0.27532150897E+03  0.91595785363E+02 0.  0.
        -11    1    1    2    0    0  0.40759684930E+02  0.14825493573E+03  0.42764525808E+03  0.45444619554E+03  0.00000000000E+00 0.  1.
         11    1    1    2    0    0  0.57331247497E+02 -0.18355800582E+03 -0.18985541889E+03  0.27023229549E+03  0.00000000000E+00 0. -1.
        -15    1    3    3    0    0 -0.58551323464E+02  0.31402590409E+02 -0.49486691000E+02  0.82864168848E+02  0.17770000000E+01 0. -1.
         15    1    3    3    0    0 -0.39539608962E+02  0.39004796827E+01 -0.18830314819E+03  0.19245734012E+03  0.17770000000E+01 0.  1.
</event>
<event>
 7    1  0.5285153E-006  0.4602750E+03  0.7546771E-02  0.9493366E-01
        -11   -1    0    0    0    0  0.00000000000E+00  0.00000000000E+00  0.50000000000E+03  0.50000000000E+03  0.00000000000E+00 0.  1.
         11   -1    0    0    0    0 -0.00000000000E+00 -0.00000000000E+00 -0.50000000000E+03  0.50000000000E+03  0.00000000000E+00 0. -1.
         23    2    1    2    0    0 -0.63044858929E+02  0.17178069677E+03  0.38267253918E+03  0.43530282067E+03  0.97811100709E+02 0.  0.
        -11    1    1    2    0    0  0.43239509645E+02 -0.20833897001E+02  0.71259252091E+02  0.85916165342E+02  0.00000000000E+00 0.  1.
         11    1    1    2    0    0  0.19805349284E+02 -0.15094679977E+03 -0.45393179127E+03  0.47878101398E+03  0.00000000000E+00 0. -1.
        -15    1    3    3    0    0 -0.16722505260E+01  0.13119376780E+03  0.27721080184E+03  0.30669787661E+03  0.17770000000E+01 0.  1.
         15    1    3    3    0    0 -0.61372608403E+02  0.40586928972E+02  0.10546173735E+03  0.12860494407E+03  0.17770000000E+01 0. -1.
</event>
<event>
 7    1  0.5285153E-006  0.5208123E+03  0.7546771E-02  0.9354408E-01
        -11   -1    0    0    0    0  0.00000000000E+00  0.00000000000E+00  0.50000000000E+03  0.50000000000E+03  0.00000000000E+00 0. -1.
         11   -1    0    0    0    0 -0.00000000000E+00 -0.00000000000E+00 -0.50000000000E+03  0.50000000000E+03  0.00000000000E+00 0. -1.
         23    2    1    2    0    0 -0.47111548863E+02 -0.76683684664E+01 -0.29278271726E+03  0.31055668043E+03  0.91899022420E+02 0.  0.
        -11    1    1    2    0    0  0.66496585189E+02  0.14305640128E+03  0.45247532297E+03  0.47918769567E+03  0.00000000000E+00 0. -1.
         11    1    1    2    0    0 -0.19385036326E+02 -0.13538803282E+03 -0.15969260571E+03  0.21025562390E+03  0.00000000000E+00 0. -1.
        -15    1    3    3    0    0 -0.73253620994E+02 -0.61942798257E+01 -0.17385083386E+03  0.18876369422E+03  0.17770000000E+01 0. -1.
         15    1    3    3    0    0  0.26142072131E+02 -0.14740886407E+01 -0.11893188340E+03  0.12179298621E+03  0.17770000000E+01 0.  1.
</event>
<event>
 7    1  0.5285153E-006  0.5357814E+03  0.7546771E-02  0.9323123E-01
        -11   -1    0    0    0    0  0.00000000000E+00  0.00000000000E+00  0.50000000000E+03  0.50000000000E+03  0.00000000000E+00 0. -1.
         11   -1    0    0    0    0 -0.00000000000E+00 -0.00000000000E+00 -0.50000000000E+03  0.50000000000E+03  0.00000000000E+00 0. -1.
         23    2    1    2    0    0  0.72620150064E+02 -0.16669538276E+03 -0.10639066731E+02  0.20338380029E+03  0.90502727310E+02 0.  0.
        -11    1    1    2    0    0 -0.10842642816E+03  0.34897631558E+03  0.28628330872E+03  0.46421858215E+03  0.00000000000E+00 0. -1.
         11    1    1    2    0    0  0.35806278096E+02 -0.18228093282E+03 -0.27564424199E+03  0.33239761757E+03  0.00000000000E+00 0. -1.
        -15    1    3    3    0    0  0.11020971709E+02  0.16806433138E+01  0.18559229582E+02  0.21723008793E+02  0.17770000000E+01 0. -1.
         15    1    3    3    0    0  0.61599178355E+02 -0.16837602607E+03 -0.29198296314E+02  0.18166079149E+03  0.17770000000E+01 0.  1.
</event>
<event>
 7    1  0.5285153E-006  0.4098059E+03  0.7546771E-02  0.9627863E-01
        -11   -1    0    0    0    0  0.00000000000E+00  0.00000000000E+00  0.50000000000E+03  0.50000000000E+03  0.00000000000E+00 0.  1.
         11   -1    0    0    0    0 -0.00000000000E+00 -0.00000000000E+00 -0.50000000000E+03  0.50000000000E+03  0.00000000000E+00 0. -1.
         23    2    1    2    0    0 -0.11345766374E+03  0.64726631236E+02 -0.34996268726E+03  0.38882436990E+03  0.10792742889E+03 0.  0.
        -11    1    1    2    0    0  0.23713793324E+03  0.59897691679E+02  0.36009417717E+03  0.43530443287E+03  0.00000000000E+00 0.  1.
         11    1    1    2    0    0 -0.12368026950E+03 -0.12462432291E+03 -0.10131489906E+02  0.17587119723E+03  0.00000000000E+00 0. -1.
        -15    1    3    3    0    0 -0.11848255923E+03  0.83130971019E+02 -0.33351874732E+03  0.36357500977E+03  0.17770000000E+01 0.  1.
         15    1    3    3    0    0  0.50248954959E+01 -0.18404339783E+02 -0.16443939940E+02  0.25249360138E+02  0.17770000000E+01 0. -1.
</event>
<event>
 7    1  0.5285153E-006  0.4108648E+03  0.7546771E-02  0.9624832E-01
        -11   -1    0    0    0    0  0.00000000000E+00  0.00000000000E+00  0.50000000000E+03  0.50000000000E+03  0.00000000000E+00 0.  1.
         11   -1    0    0    0    0 -0.00000000000E+00 -0.00000000000E+00 -0.50000000000E+03  0.50000000000E+03  0.00000000000E+00 0. -1.
         23    2    1    2    0    0 -0.52745213714E+02 -0.58645647710E+02 -0.11613470614E+03  0.16636439905E+03  0.89266307965E+02 0.  0.
        -11    1    1    2    0    0 -0.10393867814E+03 -0.24391891533E+03  0.33608662275E+03  0.42808165583E+03  0.00000000000E+00 0.  1.
         11    1    1    2    0    0  0.15668389185E+03  0.30256456304E+03 -0.21995191662E+03  0.40555394511E+03  0.00000000000E+00 0. -1.
        -15    1    3    3    0    0 -0.75302131028E+02 -0.27183573347E+02 -0.83597989097E+02  0.11576328912E+03  0.17770000000E+01 0. -1.
         15    1    3    3    0    0  0.22556917314E+02 -0.31462074363E+02 -0.32536717039E+02  0.50601109934E+02  0.17770000000E+01 0.  1.
</event>
<event>
 7    1  0.5285153E-006  0.4363409E+03  0.7546771E-02  0.9554728E-01
        -11   -1    0    0    0    0  0.00000000000E+00  0.00000000000E+00  0.50000000000E+03  0.50000000000E+03  0.00000000000E+00 0. -1.
         11   -1    0    0    0    0 -0.00000000000E+00 -0.00000000000E+00 -0.50000000000E+03  0.50000000000E+03  0.00000000000E+00 0.  1.
         23    2    1    2    0    0 -0.12090528315E+03 -0.63134934349E+02 -0.37093011672E+03  0.40696311878E+03  0.97086153116E+02 0.  0.
        -11    1    1    2    0    0  0.24847756650E+03  0.60047264226E+02  0.38763786978E+03  0.46433812366E+03  0.00000000000E+00 0. -1.
         11    1    1    2    0    0 -0.12757228335E+03  0.30876701227E+01 -0.16707753055E+02  0.12869875756E+03  0.00000000000E+00 0.  1.
        -15    1    3    3    0    0 -0.27159796172E+02 -0.65042400271E+02 -0.12137210601E+03  0.14036564468E+03  0.17770000000E+01 0. -1.
         15    1    3    3    0    0 -0.93745486977E+02  0.19074659219E+01 -0.24955801072E+03  0.26659747410E+03  0.17770000000E+01 0.  1.
</event>
<event>
 7    1  0.5285153E-006  0.4297741E+03  0.7546771E-02  0.9572301E-01
        -11   -1    0    0    0    0  0.00000000000E+00  0.00000000000E+00  0.50000000000E+03  0.50000000000E+03  0.00000000000E+00 0. -1.
         11   -1    0    0    0    0 -0.00000000000E+00 -0.00000000000E+00 -0.50000000000E+03  0.50000000000E+03  0.00000000000E+00 0. -1.
         23    2    1    2    0    0 -0.15636118053E+02 -0.96548091910E+02 -0.45434910173E+03  0.46994561321E+03  0.69640152877E+02 0.  0.
        -11    1    1    2    0    0  0.11850417442E+03  0.79736989646E+02  0.36784236977E+03  0.39460009614E+03  0.00000000000E+00 0. -1.
         11    1    1    2    0    0 -0.10286805637E+03  0.16811102264E+02  0.86506731963E+02  0.13545429065E+03  0.00000000000E+00 0. -1.
        -15    1    3    3    0    0 -0.33706406443E+02 -0.32168493782E+02 -0.26636030177E+03  0.27041061724E+03  0.17770000000E+01 0. -1.
         15    1    3    3    0    0  0.18070288390E+02 -0.64379598128E+02 -0.18798879996E+03  0.19953499597E+03  0.17770000000E+01 0.  1.
</event>
<event>
 7    1  0.5285153E-006  0.5363616E+03  0.7546771E-02  0.9321933E-01
        -11   -1    0    0    0    0  0.00000000000E+00  0.00000000000E+00  0.50000000000E+03  0.50000000000E+03  0.00000000000E+00 0. -1.
         11   -1    0    0    0    0 -0.00000000000E+00 -0.00000000000E+00 -0.50000000000E+03  0.50000000000E+03  0.00000000000E+00 0.  1.
         23    2    1    2    0    0  0.69797812707E+02 -0.11938865295E+03  0.21181567524E+03  0.26996293747E+03  0.94280020240E+02 0.  0.
        -11    1    1    2    0    0  0.62133635375E+02  0.11399249549E+03  0.23262279221E+03  0.26639865076E+03  0.00000000000E+00 0. -1.
         11    1    1    2    0    0 -0.13193144808E+03  0.53961574629E+01 -0.44443846746E+03  0.46363841177E+03  0.00000000000E+00 0.  1.
        -15    1    3    3    0    0  0.40302213280E+01  0.10982917450E+02  0.52619096692E+02  0.53933238595E+02  0.17770000000E+01 0.  1.
         15    1    3    3    0    0  0.65767591379E+02 -0.13037157040E+03  0.15919657855E+03  0.21602969887E+03  0.17770000000E+01 0. -1.
</event>
<event>
 7    1  0.5285153E-006  0.5305359E+03  0.7546771E-02  0.9333962E-01
        -11   -1    0    0    0    0  0.00000000000E+00  0.00000000000E+00  0.50000000000E+03  0.50000000000E+03  0.00000000000E+00 0. -1.
         11   -1    0    0    0    0 -0.00000000000E+00 -0.00000000000E+00 -0.50000000000E+03  0.50000000000E+03  0.00000000000E+00 0. -1.
         23    2    1    2    0    0 -0.80533543146E+02 -0.47973727173E+01 -0.20607461747E+03  0.23978083083E+03  0.92300771989E+02 0.  0.
        -11    1    1    2    0    0 -0.31413799136E+02 -0.74370623853E+02  0.46247025567E+03  0.46946411348E+03  0.00000000000E+00 0. -1.
         11    1    1    2    0    0  0.11194734228E+03  0.79167996571E+02 -0.25639563820E+03  0.29075505569E+03  0.00000000000E+00 0. -1.
        -15    1    3    3    0    0  0.15125258284E+02 -0.14930098821E+02 -0.69659706664E+02  0.72851312621E+02  0.17770000000E+01 0.  1.
         15    1    3    3    0    0 -0.95658801430E+02  0.10132726104E+02 -0.13641491081E+03  0.16692951821E+03  0.17770000000E+01 0. -1.
</event>
<event>
 7    1  0.5285153E-006  0.4191819E+03  0.7546771E-02  0.9601363E-01
        -11   -1    0    0    0    0  0.00000000000E+00  0.00000000000E+00  0.50000000000E+03  0.50000000000E+03  0.00000000000E+00 0.  1.
         11   -1    0    0    0    0 -0.00000000000E+00 -0.00000000000E+00 -0.50000000000E+03  0.50000000000E+03  0.00000000000E+00 0. -1.
         23    2    1    2    0    0 -0.95725460903E+02 -0.53526410891E+02 -0.67361295092E+02  0.15181370028E+03  0.80507235632E+02 0.  0.
        -11    1    1    2    0    0  0.57197211540E+02 -0.50854061664E+02  0.44652395844E+03  0.45303565208E+03  0.00000000000E+00 0.  1.
         11    1    1    2    0    0  0.38528249363E+02  0.10438047255E+03 -0.37916266335E+03  0.39515064764E+03  0.00000000000E+00 0. -1.
        -15    1    3    3    0    0 -0.34755310807E+02 -0.45016195166E+02  0.46134491166E+01  0.57086172566E+02  0.17770000000E+01 0.  1.
         15    1    3    3    0    0 -0.60970150096E+02 -0.85102157247E+01 -0.71974744208E+02  0.94727527716E+02  0.17770000000E+01 0. -1.
</event>
<event>
 7    1  0.5285153E-006  0.5178237E+03  0.7546771E-02  0.9360788E-01
        -11   -1    0    0    0    0  0.00000000000E+00  0.00000000000E+00  0.50000000000E+03  0.50000000000E+03  0.00000000000E+00 0. -1.
         11   -1    0    0    0    0 -0.00000000000E+00 -0.00000000000E+00 -0.50000000000E+03  0.50000000000E+03  0.00000000000E+00 0.  1.
         23    2    1    2    0    0  0.97702960394E+01 -0.40039018678E+01 -0.38365537531E+03  0.39313914166E+03  0.85178916322E+02 0.  0.
        -11    1    1    2    0    0 -0.12586312226E+02 -0.80566653467E+02  0.47523113048E+03  0.48217634562E+03  0.00000000000E+00 0. -1.
         11    1    1    2    0    0  0.28160161861E+01  0.84570555335E+02 -0.91575755167E+02  0.12468451272E+03  0.00000000000E+00 0.  1.
        -15    1    3    3    0    0  0.43427913151E+02  0.12957185123E+02 -0.25743825054E+03  0.26140291287E+03  0.17770000000E+01 0. -1.
         15    1    3    3    0    0 -0.33657617111E+02 -0.16961086991E+02 -0.12621712477E+03  0.13173622879E+03  0.17770000000E+01 0.  1.
</event>
<event>
 7    1  0.5285153E-006  0.3072932E+03  0.7546771E-02  0.9978612E-01
        -11   -1    0    0    0    0  0.00000000000E+00  0.00000000000E+00  0.50000000000E+03  0.50000000000E+03  0.00000000000E+00 0.  1.
         11   -1    0    0    0    0 -0.00000000000E+00 -0.00000000000E+00 -0.50000000000E+03  0.50000000000E+03  0.00000000000E+00 0. -1.
         23    2    1    2    0    0 -0.31013729001E+03  0.58291943393E+02 -0.10548953628E+03  0.34520850356E+03  0.91966185870E+02 0.  0.
        -11    1    1    2    0    0  0.78375774135E+02 -0.32434712303E+02  0.32417951947E+03  0.33509272356E+03  0.00000000000E+00 0.  1.
         11    1    1    2    0    0  0.23176151587E+03 -0.25857231090E+02 -0.21868998319E+03  0.31969877289E+03  0.00000000000E+00 0. -1.
        -15    1    3    3    0    0 -0.26801657570E+03  0.78893352785E+02 -0.10443775845E+03  0.29827411735E+03  0.17770000000E+01 0.  1.
         15    1    3    3    0    0 -0.42120714312E+02 -0.20601409391E+02 -0.10517778378E+01  0.46934386207E+02  0.17770000000E+01 0. -1.
</event>
<event>
 7    1  0.5285153E-006  0.5245966E+03  0.7546771E-02  0.9346395E-01
        -11   -1    0    0    0    0  0.00000000000E+00  0.00000000000E+00  0.50000000000E+03  0.50000000000E+03  0.00000000000E+00 0. -1.
         11   -1    0    0    0    0 -0.00000000000E+00 -0.00000000000E+00 -0.50000000000E+03  0.50000000000E+03  0.00000000000E+00 0.  1.
         23    2    1    2    0    0  0.38316062582E+02  0.93206394649E+02 -0.15382029975E+03  0.20710523769E+03  0.95269838918E+02 0.  0.
        -11    1    1    2    0    0  0.17205585947E+02 -0.90426786406E+02  0.46640688110E+03  0.47540342303E+03  0.00000000000E+00 0. -1.
         11    1    1    2    0    0 -0.55521648529E+02 -0.27796082426E+01 -0.31258658135E+03  0.31749133928E+03  0.00000000000E+00 0.  1.
        -15    1    3    3    0    0 -0.11431824308E+02  0.42031733147E+02 -0.74153328500E+01  0.44221014107E+02  0.17770000000E+01 0. -1.
         15    1    3    3    0    0  0.49747886890E+02  0.51174661502E+02 -0.14640496690E+03  0.16288422358E+03  0.17770000000E+01 0.  1.
</event>
<event>
 7    1  0.5285153E-006  0.5206444E+03  0.7546771E-02  0.9354765E-01
        -11   -1    0    0    0    0  0.00000000000E+00  0.00000000000E+00  0.50000000000E+03  0.50000000000E+03  0.00000000000E+00 0. -1.
         11   -1    0    0    0    0 -0.00000000000E+00 -0.00000000000E+00 -0.50000000000E+03  0.50000000000E+03  0.00000000000E+00 0. -1.
         23    2    1    2    0    0 -0.41430547754E+01 -0.26461422326E+02 -0.12794435096E+03  0.16158260488E+03  0.94983206314E+02 0.  0.
        -11    1    1    2    0    0  0.17567566946E+03  0.10369675980E+03  0.43378198141E+03  0.47935557390E+03  0.00000000000E+00 0. -1.
         11    1    1    2    0    0 -0.17153261469E+03 -0.77235337474E+02 -0.30583763045E+03  0.35906182122E+03  0.00000000000E+00 0. -1.
        -15    1    3    3    0    0 -0.21905311496E+02  0.30373540601E+02 -0.35666410668E+02  0.51745968146E+02  0.17770000000E+01 0.  1.
         15    1    3    3    0    0  0.17762256721E+02 -0.56834962927E+02 -0.92277940295E+02  0.10983663673E+03  0.17770000000E+01 0. -1.
</event>
<event>
 7    1  0.5285153E-006  0.5148075E+03  0.7546771E-02  0.9367273E-01
        -11   -1    0    0    0    0  0.00000000000E+00  0.00000000000E+00  0.50000000000E+03  0.50000000000E+03  0.00000000000E+00 0.  1.
         11   -1    0    0    0    0 -0.00000000000E+00 -0.00000000000E+00 -0.50000000000E+03  0.50000000000E+03  0.00000000000E+00 0.  1.
         23    2    1    2    0    0 -0.11899402173E+03  0.35750026564E+03 -0.26706775367E+02  0.38874550048E+03  0.91890125452E+02 0.  0.
        -11    1    1    2    0    0  0.16935155503E+03 -0.44234662255E+03  0.10517239829E+03  0.48519245360E+03  0.00000000000E+00 0.  1.
         11    1    1    2    0    0 -0.50357533302E+02  0.84846356910E+02 -0.78465622921E+02  0.12606204592E+03  0.00000000000E+00 0.  1.
        -15    1    3    3    0    0  0.10083067524E+02  0.69571598791E+01  0.60072740493E+01  0.13759193100E+02  0.17770000000E+01 0. -1.
         15    1    3    3    0    0 -0.12907708925E+03  0.35054310576E+03 -0.32714049417E+02  0.37498630738E+03  0.17770000000E+01 0.  1.
</event>
<event>
 7    1  0.5285153E-006  0.3507920E+03  0.7546771E-02  0.9814128E-01
        -11   -1    0    0    0    0  0.00000000000E+00  0.00000000000E+00  0.50000000000E+03  0.50000000000E+03  0.00000000000E+00 0. -1.
         11   -1    0    0    0    0 -0.00000000000E+00 -0.00000000000E+00 -0.50000000000E+03  0.50000000000E+03  0.00000000000E+00 0. -1.
         23    2    1    2    0    0  0.71906934820E+02  0.21598649282E+03 -0.33206005621E+03  0.41383612400E+03  0.95789791964E+02 0.  0.
        -11    1    1    2    0    0 -0.13902032679E+03  0.34876142493E+02  0.28946855194E+03  0.32300934837E+03  0.00000000000E+00 0. -1.
         11    1    1    2    0    0  0.67113391965E+02 -0.25086263531E+03  0.42591504268E+02  0.26315452763E+03  0.00000000000E+00 0. -1.
        -15    1    3    3    0    0  0.25211436802E+02  0.14658804776E+03 -0.13968610678E+03  0.20405645897E+03  0.17770000000E+01 0.  1.
         15    1    3    3    0    0  0.46695498019E+02  0.69398445053E+02 -0.19237394943E+03  0.20977966503E+03  0.17770000000E+01 0. -1.
</event>
<event>
 7    1  0.5285153E-006  0.5116265E+03  0.7546771E-02  0.9374164E-01
        -11   -1    0    0    0    0  0.00000000000E+00  0.00000000000E+00  0.50000000000E+03  0.50000000000E+03  0.00000000000E+00 0.  1.
         11   -1    0    0    0    0 -0.00000000000E+00 -0.00000000000E+00 -0.50000000000E+03  0.50000000000E+03  0.00000000000E+00 0. -1.
         23    2    1    2    0    0  0.39180401957E+02  0.58999403468E+02 -0.28352480523E+03  0.30526482137E+03  0.88228467505E+02 0.  0.
        -11    1    1    2    0    0 -0.14637668037E+03 -0.97529739622E+02  0.45559900493E+03  0.48837345952E+03  0.00000000000E+00 0.  1.
         11    1    1    2    0    0  0.10719627842E+03  0.38530336154E+02 -0.17207419971E+03  0.20636171911E+03  0.00000000000E+00 0. -1.
        -15    1    3    3    0    0  0.55190872259E+01  0.74949330682E+02 -0.20461901708E+03  0.21799073919E+03  0.17770000000E+01 0. -1.
         15    1    3    3    0    0  0.33661314731E+02 -0.15949927214E+02 -0.78905788149E+02  0.87274082177E+02  0.17770000000E+01 0.  1.
</event>
<event>
 7    1  0.5285153E-006  0.5090504E+03  0.7546771E-02  0.9379783E-01
        -11   -1    0    0    0    0  0.00000000000E+00  0.00000000000E+00  0.50000000000E+03  0.50000000000E+03  0.00000000000E+00 0.  1.
         11   -1    0    0    0    0 -0.00000000000E+00 -0.00000000000E+00 -0.50000000000E+03  0.50000000000E+03  0.00000000000E+00 0.  1.
         23    2    1    2    0    0 -0.84203978099E+02 -0.31118038240E+02 -0.35894676211E+03  0.38105090436E+03  0.91095397541E+02 0.  0.
        -11    1    1    2    0    0  0.15152942161E+03  0.64832281679E+02  0.46245767721E+03  0.49094958353E+03  0.00000000000E+00 0.  1.
         11    1    1    2    0    0 -0.67325443512E+02 -0.33714243438E+02 -0.10351091510E+03  0.12799951211E+03  0.00000000000E+00 0.  1.
        -15    1    3    3    0    0 -0.98034911119E+02 -0.79843716203E+01 -0.30880922513E+03  0.32410012225E+03  0.17770000000E+01 0.  1.
         15    1    3    3    0    0  0.13830933021E+02 -0.23133666620E+02 -0.50137536974E+02  0.56950782104E+02  0.17770000000E+01 0. -1.
</event>
<event>
 7    1  0.5285153E-006  0.3750403E+03  0.7546771E-02  0.9733167E-01
        -11   -1    0    0    0    0  0.00000000000E+00  0.00000000000E+00  0.50000000000E+03  0.50000000000E+03  0.00000000000E+00 0. -1.
         11   -1    0    0    0    0 -0.00000000000E+00 -0.00000000000E+00 -0.50000000000E+03  0.50000000000E+03  0.00000000000E+00 0.  1.
         23    2    1    2    0    0  0.36952565475E+02  0.32281168970E+01 -0.19921392369E+03  0.22302954175E+03  0.93166926898E+02 0.  0.
        -11    1    1    2    0    0  0.17064010278E+03  0.13959041256E+03  0.39869663124E+03  0.45559031126E+03  0.00000000000E+00 0. -1.
         11    1    1    2    0    0 -0.20759266825E+03 -0.14281852946E+03 -0.19948270755E+03  0.32138014699E+03  0.00000000000E+00 0.  1.
        -15    1    3    3    0    0  0.62011720927E+02  0.13831571771E+02 -0.88201434049E+02  0.10871714036E+03  0.17770000000E+01 0. -1.
         15    1    3    3    0    0 -0.25059155452E+02 -0.10603454874E+02 -0.11101248964E+03  0.11431240139E+03  0.17770000000E+01 0.  1.
</event>
<event>
 7    1  0.5285153E-006  0.4636683E+03  0.7546771E-02  0.9484988E-01
        -11   -1    0    0    0    0  0.00000000000E+00  0.00000000000E+00  0.50000000000E+03  0.50000000000E+03  0.00000000000E+00 0. -1.
         11   -1    0    0    0    0 -0.00000000000E+00 -0.00000000000E+00 -0.50000000000E+03  0.50000000000E+03  0.00000000000E+00 0.  1.
         23    2    1    2    0    0  0.13145144901E+03  0.17629243420E+03 -0.38136253888E+03  0.45014003830E+03  0.93968942857E+02 0.  0.
        -11    1    1    2    0    0 -0.10185575217E+03 -0.13285243690E+03  0.44020342130E+03  0.47096010061E+03  0.00000000000E+00 0. -1.
         11    1    1    2    0    0 -0.29595696840E+02 -0.43439997294E+02 -0.58840882421E+02  0.78899861093E+02  0.00000000000E+00 0.  1.
        -15    1    3    3    0    0  0.12896232876E+02 -0.82625040626E+01 -0.53380595393E+02  0.55562824706E+02  0.17770000000E+01 0. -1.
         15    1    3    3    0    0  0.11855521614E+03  0.18455493826E+03 -0.32798194348E+03  0.39457721359E+03  0.17770000000E+01 0.  1.
</event>
<event>
 7    1  0.5285153E-006  0.4743821E+03  0.7546771E-02  0.9459030E-01
        -11   -1    0    0    0    0  0.00000000000E+00  0.00000000000E+00  0.50000000000E+03  0.50000000000E+03  0.00000000000E+00 0.  1.
         11   -1    0    0    0    0 -0.00000000000E+00 -0.00000000000E+00 -0.50000000000E+03  0.50000000000E+03  0.00000000000E+00 0.  1.
         23    2    1    2    0    0 -0.65701906733E+02  0.41473421744E+03  0.14072125065E+03  0.45176181350E+03  0.89247151741E+02 0.  0.
        -11    1    1    2    0    0 -0.25404781278E+02  0.31173428771E+02  0.41689663998E+02  0.57924206143E+02  0.00000000000E+00 0.  1.
         11    1    1    2    0    0  0.91106688011E+02 -0.44590764621E+03 -0.18241091464E+03  0.49031398035E+03  0.00000000000E+00 0.  1.
        -15    1    3    3    0    0 -0.60525761757E+02  0.25301501583E+03  0.45790682612E+02  0.26415887344E+03  0.17770000000E+01 0.  1.
         15    1    3    3    0    0 -0.51761449758E+01  0.16171920160E+03  0.94930568034E+02  0.18760294006E+03  0.17770000000E+01 0. -1.
</event>
<event>
 6    1  0.5285153E-006  0.4771797E+03  0.7546771E-02  0.9452371E-01
        -11   -1    0    0    0    0  0.00000000000E+00  0.00000000000E+00  0.50000000000E+03  0.50000000000E+03  0.00000000000E+00 0. -1.
         11   -1    0    0    0    0 -0.00000000000E+00 -0.00000000000E+00 -0.50000000000E+03  0.50000000000E+03  0.00000000000E+00 0.  1.
        -11    1    1    2    0    0 -0.75812950745E+02  0.61132934566E+02  0.41047781414E+03  0.42187305566E+03  0.00000000000E+00 0. -1.
         11    1    1    2    0    0  0.43126350733E+02  0.88561511903E+02 -0.25457735833E+02  0.10174045327E+03  0.00000000000E+00 0.  1.
        -15    1    1    2    0    0 -0.44627185857E+02 -0.51596276536E+01  0.12272768018E+02  0.46604571009E+02  0.17770000000E+01 0. -1.
         15    1    1    2    0    0  0.77313785869E+02 -0.14453481882E+03 -0.39729284633E+03  0.42978192006E+03  0.17770000000E+01 0.  1.
</event>
<event>
 7    1  0.5285153E-006  0.3803285E+03  0.7546771E-02  0.9716379E-01
        -11   -1    0    0    0    0  0.00000000000E+00  0.00000000000E+00  0.50000000000E+03  0.50000000000E+03  0.00000000000E+00 0.  1.
         11   -1    0    0    0    0 -0.00000000000E+00 -0.00000000000E+00 -0.50000000000E+03  0.50000000000E+03  0.00000000000E+00 0. -1.
         23    2    1    2    0    0  0.62175986140E+02  0.70731418701E+02 -0.34355211963E+03  0.36705563953E+03  0.88504218913E+02 0.  0.
        -11    1    1    2    0    0  0.92663433129E+02  0.73995926761E+02  0.39702565302E+03  0.41435646269E+03  0.00000000000E+00 0.  1.
         11    1    1    2    0    0 -0.15483941927E+03 -0.14472734546E+03 -0.53473533390E+02  0.21858789778E+03  0.00000000000E+00 0. -1.
        -15    1    3    3    0    0 -0.17675279065E+02  0.76643697541E+00 -0.96922451472E+02  0.98539952527E+02  0.17770000000E+01 0.  1.
         15    1    3    3    0    0  0.79851265204E+02  0.69964981725E+02 -0.24662966816E+03  0.26851568700E+03  0.17770000000E+01 0. -1.
</event>
<event>
 7    1  0.5285153E-006  0.5010525E+03  0.7546771E-02  0.9397458E-01
        -11   -1    0    0    0    0  0.00000000000E+00  0.00000000000E+00  0.50000000000E+03  0.50000000000E+03  0.00000000000E+00 0.  1.
         11   -1    0    0    0    0 -0.00000000000E+00 -0.00000000000E+00 -0.50000000000E+03  0.50000000000E+03  0.00000000000E+00 0. -1.
         23    2    1    2    0    0  0.11378715255E+03  0.18496906788E+02 -0.47675278289E+03  0.49894752289E+03  0.91464544800E+02 0.  0.
        -11    1    1    2    0    0 -0.74625786781E+02 -0.77753626368E+01  0.43979291213E+03  0.44614713926E+03  0.00000000000E+00 0.  1.
         11    1    1    2    0    0 -0.39161365769E+02 -0.10721544151E+02  0.36959870763E+02  0.54905337852E+02  0.00000000000E+00 0. -1.
        -15    1    3    3    0    0 -0.42028635583E+01 -0.21637681944E+02 -0.59523519568E+02  0.63498507484E+02  0.17770000000E+01 0.  1.
         15    1    3    3    0    0  0.11799001611E+03  0.40134588731E+02 -0.41722926332E+03  0.43544901540E+03  0.17770000000E+01 0. -1.
</event>
<event>
 7    1  0.5285153E-006  0.5089244E+03  0.7546771E-02  0.9380059E-01
        -11   -1    0    0    0    0  0.00000000000E+00  0.00000000000E+00  0.50000000000E+03  0.50000000000E+03  0.00000000000E+00 0. -1.
         11   -1    0    0    0    0 -0.00000000000E+00 -0.00000000000E+00 -0.50000000000E+03  0.50000000000E+03  0.00000000000E+00 0.  1.
         23    2    1    2    0    0  0.10546235481E+02 -0.78024348680E+02  0.26785650338E+03  0.29369333225E+03  0.91157253897E+02 0.  0.
        -11    1    1    2    0    0  0.46496351129E+02 -0.27516248843E+02  0.20833947959E+03  0.21523102326E+03  0.00000000000E+00 0. -1.
         11    1    1    2    0    0 -0.57042586610E+02  0.10554059752E+03 -0.47619598297E+03  0.49107564449E+03  0.00000000000E+00 0.  1.
        -15    1    3    3    0    0  0.12476071506E+02  0.17632342216E+02  0.79793052807E+02  0.82683981868E+02  0.17770000000E+01 0. -1.
         15    1    3    3    0    0 -0.19298360246E+01 -0.95656690896E+02  0.18806345057E+03  0.21100935038E+03  0.17770000000E+01 0.  1.
</event>
<event>
 7    1  0.5285153E-006  0.3312678E+03  0.7546771E-02  0.9884594E-01
        -11   -1    0    0    0    0  0.00000000000E+00  0.00000000000E+00  0.50000000000E+03  0.50000000000E+03  0.00000000000E+00 0.  1.
         11   -1    0    0    0    0 -0.00000000000E+00 -0.00000000000E+00 -0.50000000000E+03  0.50000000000E+03  0.00000000000E+00 0. -1.
         23    2    1    2    0    0 -0.12727949540E+03 -0.17124142933E+02 -0.25397942423E+03  0.29881179525E+03  0.91047431770E+02 0.  0.
        -11    1    1    2    0    0 -0.25954890363E+03  0.52087820626E+02  0.11567694245E+03  0.28889432228E+03  0.00000000000E+00 0.  1.
         11    1    1    2    0    0  0.38682839903E+03 -0.34963677693E+02  0.13830248177E+03  0.41229388246E+03  0.00000000000E+00 0. -1.
        -15    1    3    3    0    0 -0.94021681707E+02  0.23853128312E+02 -0.20495860168E+03  0.22676030184E+03  0.17770000000E+01 0.  1.
         15    1    3    3    0    0 -0.33257813693E+02 -0.40977271245E+02 -0.49020822549E+02  0.72051493411E+02  0.17770000000E+01 0. -1.
</event>
<event>
 7    1  0.5285153E-006  0.3998326E+03  0.7546771E-02  0.9656895E-01
        -11   -1    0    0    0    0  0.00000000000E+00  0.00000000000E+00  0.50000000000E+03  0.50000000000E+03  0.00000000000E+00 0.  1.
         11   -1    0    0    0    0 -0.00000000000E+00 -0.00000000000E+00 -0.50000000000E+03  0.50000000000E+03  0.00000000000E+00 0.  1.
         23    2    1    2    0    0  0.11071863676E+03  0.80724468687E+02  0.85233481036E+02  0.18421551336E+03  0.88856922647E+02 0.  0.
        -11    1    1    2    0    0 -0.64171250314E+02 -0.92773954165E+01  0.35830455696E+03  0.36412384565E+03  0.00000000000E+00 0.  1.
         11    1    1    2    0    0 -0.46547386450E+02 -0.71447073270E+02 -0.44353803800E+03  0.45166064099E+03  0.00000000000E+00 0.  1.
        -15    1    3    3    0    0  0.69757901702E+02  0.66557591859E+02  0.94485962614E+01  0.96894332054E+02  0.17770000000E+01 0.  1.
         15    1    3    3    0    0  0.40960735062E+02  0.14166876828E+02  0.75784884774E+02  0.87321181309E+02  0.17770000000E+01 0. -1.
</event>
<event>
 7    1  0.5285153E-006  0.4606507E+03  0.7546771E-02  0.9492435E-01
        -11   -1    0    0    0    0  0.00000000000E+00  0.00000000000E+00  0.50000000000E+03  0.50000000000E+03  0.00000000000E+00 0.  1.
         11   -1    0    0    0    0 -0.00000000000E+00 -0.00000000000E+00 -0.50000000000E+03  0.50000000000E+03  0.00000000000E+00 0. -1.
         23    2    1    2    0    0  0.92338344060E+02 -0.77923613555E+02  0.39360138041E+03  0.42160509071E+03  0.90721257258E+02 0.  0.
        -11    1    1    2    0    0  0.76667371703E+01 -0.25524584416E+02  0.79525961032E+02  0.83872890414E+02  0.00000000000E+00 0.  1.
         11    1    1    2    0    0 -0.10000508123E+03  0.10344819797E+03 -0.47312734144E+03  0.49452201888E+03  0.00000000000E+00 0. -1.
        -15    1    3    3    0    0  0.10867767108E+03 -0.53393552457E+02  0.30254351354E+03  0.32587949146E+03  0.17770000000E+01 0. -1.
         15    1    3    3    0    0 -0.16339327023E+02 -0.24530061098E+02  0.91057866866E+02  0.95725599253E+02  0.17770000000E+01 0.  1.
</event>
<event>
 7    1  0.5285153E-006  0.5364133E+03  0.7546771E-02  0.9321827E-01
        -11   -1    0    0    0    0  0.00000000000E+00  0.00000000000E+00  0.50000000000E+03  0.50000000000E+03  0.00000000000E+00 0. -1.
         11   -1    0    0    0    0 -0.00000000000E+00 -0.00000000000E+00 -0.50000000000E+03  0.50000000000E+03  0.00000000000E+00 0.  1.
         23    2    1    2    0    0  0.24035900723E+02 -0.25676770649E+01  0.21171479403E+02  0.99018789188E+02  0.93659871787E+02 0.  0.
        -11    1    1    2    0    0  0.89575456375E+02 -0.55345725548E+02  0.42453151947E+03  0.43739447041E+03  0.00000000000E+00 0. -1.
         11    1    1    2    0    0 -0.11361135710E+03  0.57913402613E+02 -0.44570299888E+03  0.46358674040E+03  0.00000000000E+00 0.  1.
        -15    1    3    3    0    0  0.39359066225E+02  0.66164818873E+01 -0.26592689983E+02  0.47992112020E+02  0.17770000000E+01 0. -1.
         15    1    3    3    0    0 -0.15323165501E+02 -0.91841589522E+01  0.47764169386E+02  0.51026677168E+02  0.17770000000E+01 0.  1.
</event>
<event>
 7    1  0.5285153E-006  0.3550997E+03  0.7546771E-02  0.9799242E-01
        -11   -1    0    0    0    0  0.00000000000E+00  0.00000000000E+00  0.50000000000E+03  0.50000000000E+03  0.00000000000E+00 0. -1.
         11   -1    0    0    0    0 -0.00000000000E+00 -0.00000000000E+00 -0.50000000000E+03  0.50000000000E+03  0.00000000000E+00 0.  1.
         23    2    1    2    0    0 -0.36500949820E+02  0.24680646959E+03 -0.20196320796E+03  0.33370702259E+03  0.91244105501E+02 0.  0.
        -11    1    1    2    0    0  0.10261451805E+02 -0.87125328128E+02  0.40059459009E+03  0.41008797325E+03  0.00000000000E+00 0. -1.
         11    1    1    2    0    0  0.26239498015E+02 -0.15968114146E+03 -0.19863138213E+03  0.25620500417E+03  0.00000000000E+00 0.  1.
        -15    1    3    3    0    0  0.25989529912E+02  0.12343147522E+03 -0.80607000968E+02  0.14970447914E+03  0.17770000000E+01 0.  1.
         15    1    3    3    0    0 -0.62490479732E+02  0.12337499437E+03 -0.12135620699E+03  0.18400254345E+03  0.17770000000E+01 0. -1.
</event>
<event>
 7    1  0.5285153E-006  0.3544767E+03  0.7546771E-02  0.9801381E-01
        -11   -1    0    0    0    0  0.00000000000E+00  0.00000000000E+00  0.50000000000E+03  0.50000000000E+03  0.00000000000E+00 0.  1.
         11   -1    0    0    0    0 -0.00000000000E+00 -0.00000000000E+00 -0.50000000000E+03  0.50000000000E+03  0.00000000000E+00 0. -1.
         23    2    1    2    0    0  0.42481093240E+02  0.51943170368E+02 -0.22609526484E+03  0.25284755230E+03  0.91159638494E+02 0.  0.
        -11    1    1    2    0    0 -0.13513320315E+03 -0.36063985609E+03  0.16561393567E+03  0.41922555276E+03  0.00000000000E+00 0.  1.
         11    1    1    2    0    0  0.92652109907E+02  0.30869668573E+03  0.60481329169E+02  0.32792689494E+03  0.00000000000E+00 0. -1.
        -15    1    3    3    0    0 -0.12141600449E+02 -0.12589334978E+02 -0.87643798202E+01  0.19643876891E+02  0.17770000000E+01 0.  1.
         15    1    3    3    0    0  0.54622693689E+02  0.64532505345E+02 -0.21733088502E+03  0.23320367541E+03  0.17770000000E+01 0. -1.
</event>
<event>
 7    1  0.5285153E-006  0.3989462E+03  0.7546771E-02  0.9659520E-01
        -11   -1    0    0    0    0  0.00000000000E+00  0.00000000000E+00  0.50000000000E+03  0.50000000000E+03  0.00000000000E+00 0.  1.
         11   -1    0    0    0    0 -0.00000000000E+00 -0.00000000000E+00 -0.50000000000E+03  0.50000000000E+03  0.00000000000E+00 0. -1.
         23    2    1    2    0    0  0.15181060947E+03 -0.29367589405E+02  0.36863754827E+02  0.18642758685E+03  0.97403245641E+02 0.  0.
        -11    1    1    2    0    0 -0.14687767336E+02  0.63428584091E+02  0.37372492213E+03  0.37935370462E+03  0.00000000000E+00 0.  1.
         11    1    1    2    0    0 -0.13712284214E+03 -0.34060994685E+02 -0.41058867696E+03  0.43421870853E+03  0.00000000000E+00 0. -1.
        -15    1    3    3    0    0  0.41942043717E+02 -0.55339825015E+02  0.19857451657E+02  0.72243389865E+02  0.17770000000E+01 0.  1.
         15    1    3    3    0    0  0.10986856576E+03  0.25972235610E+02  0.17006303170E+02  0.11418419698E+03  0.17770000000E+01 0. -1.
</event>
<event>
 7    1  0.5285153E-006  0.3368652E+03  0.7546771E-02  0.9863869E-01
        -11   -1    0    0    0    0  0.00000000000E+00  0.00000000000E+00  0.50000000000E+03  0.50000000000E+03  0.00000000000E+00 0.  1.
         11   -1    0    0    0    0 -0.00000000000E+00 -0.00000000000E+00 -0.50000000000E+03  0.50000000000E+03  0.00000000000E+00 0.  1.
         23    2    1    2    0    0 -0.41534703638E+02  0.28234400534E+03 -0.28086595208E+03  0.41058714604E+03  0.90845211757E+02 0.  0.
        -11    1    1    2    0    0 -0.52466739883E+02 -0.18061286241E+02  0.30299958913E+03  0.30803850387E+03  0.00000000000E+00 0.  1.
         11    1    1    2    0    0  0.94001443522E+02 -0.26428271910E+03 -0.22133637045E+02  0.28137435009E+03  0.00000000000E+00 0.  1.
        -15    1    3    3    0    0 -0.32874586795E+02  0.26953179851E+03 -0.28583227116E+03  0.39424785837E+03  0.17770000000E+01 0.  1.
         15    1    3    3    0    0 -0.86601168431E+01  0.12812206827E+02  0.49663190736E+01  0.16339287673E+02  0.17770000000E+01 0. -1.
</event>
<event>
 7    1  0.5285153E-006  0.5243263E+03  0.7546771E-02  0.9346965E-01
        -11   -1    0    0    0    0  0.00000000000E+00  0.00000000000E+00  0.50000000000E+03  0.50000000000E+03  0.00000000000E+00 0. -1.
         11   -1    0    0    0    0 -0.00000000000E+00 -0.00000000000E+00 -0.50000000000E+03  0.50000000000E+03  0.00000000000E+00 0.  1.
         23    2    1    2    0    0 -0.44695076840E+02 -0.14994198719E+03 -0.38853260844E+03  0.42876927159E+03  0.91680156106E+02 0.  0.
        -11    1    1    2    0    0  0.49305167783E+02  0.91690801741E+02  0.46414142426E+03  0.47567369531E+03  0.00000000000E+00 0. -1.
         11    1    1    2    0    0 -0.46100909429E+01  0.58251185447E+02 -0.75608815821E+02  0.95557033097E+02  0.00000000000E+00 0.  1.
        -15    1    3    3    0    0 -0.59516920045E+02 -0.55618996927E+02 -0.22623745824E+03  0.24046264124E+03  0.17770000000E+01 0. -1.
         15    1    3    3    0    0  0.14821843205E+02 -0.94322990261E+02 -0.16229515020E+03  0.18830663036E+03  0.17770000000E+01 0.  1.
</event>
<event>
 7    1  0.5285153E-006  0.4894491E+03  0.7546771E-02  0.9423733E-01
        -11   -1    0    0    0    0  0.00000000000E+00  0.00000000000E+00  0.50000000000E+03  0.50000000000E+03  0.00000000000E+00 0.  1.
         11   -1    0    0    0    0 -0.00000000000E+00 -0.00000000000E+00 -0.50000000000E+03  0.50000000000E+03  0.00000000000E+00 0. -1.
         23    2    1    2    0    0  0.17149125315E+03  0.88526975980E+02 -0.44565154091E+03  0.49407768138E+03  0.90891055342E+02 0.  0.
        -11    1    1    2    0    0 -0.14239664203E+03 -0.90704305641E+02  0.44585015718E+03  0.47674567369E+03  0.00000000000E+00 0.  1.
         11    1    1    2    0    0 -0.29094611122E+02  0.21773296618E+01 -0.19861627146E+00  0.29176644928E+02  0.00000000000E+00 0. -1.
        -15    1    3    3    0    0  0.34581934417E+02  0.39264272474E+02 -0.49507686942E+02  0.72053883145E+02  0.17770000000E+01 0.  1.
         15    1    3    3    0    0  0.13690931873E+03  0.49262703506E+02 -0.39614385397E+03  0.42202379824E+03  0.17770000000E+01 0. -1.
</event>
<event>
 7    1  0.5285153E-006  0.5115793E+03  0.7546771E-02  0.9374267E-01
        -11   -1    0    0    0    0  0.00000000000E+00  0.00000000000E+00  0.50000000000E+03  0.50000000000E+03  0.00000000000E+00 0. -1.
         11   -1    0    0    0    0 -0.00000000000E+00 -0.00000000000E+00 -0.50000000000E+03  0.50000000000E+03  0.00000000000E+00 0. -1.
         23    2    1    2    0    0 -0.17874574980E+02 -0.66713182256E+02 -0.16070122097E+03  0.19707786128E+03  0.90800065338E+02 0.  0.
        -11    1    1    2    0    0  0.89684052092E+02  0.17356176277E+03  0.44764706372E+03  0.48842072883E+03  0.00000000000E+00 0. -1.
         11    1    1    2    0    0 -0.71809477112E+02 -0.10684858051E+03 -0.28694584274E+03  0.31450140990E+03  0.00000000000E+00 0. -1.
        -15    1    3    3    0    0  0.28530199437E+02 -0.58865196813E+02 -0.77134998872E+02  0.10115359339E+03  0.17770000000E+01 0.  1.
         15    1    3    3    0    0 -0.46404774417E+02 -0.78479854428E+01 -0.83566222101E+02  0.95924267885E+02  0.17770000000E+01 0. -1.
</event>
<event>
 7    1  0.5285153E-006  0.5192313E+03  0.7546771E-02  0.9357777E-01
        -11   -1    0    0    0    0  0.00000000000E+00  0.00000000000E+00  0.50000000000E+03  0.50000000000E+03  0.00000000000E+00 0. -1.
         11   -1    0    0    0    0 -0.00000000000E+00 -0.00000000000E+00 -0.50000000000E+03  0.50000000000E+03  0.00000000000E+00 0.  1.
         23    2    1    2    0    0  0.12873264689E+03  0.33433997772E+02  0.36049052588E+03  0.39581441118E+03  0.95003696056E+02 0.  0.
        -11    1    1    2    0    0  0.32657352770E+02  0.92894124574E+02  0.74403711210E+02  0.12341690853E+03  0.00000000000E+00 0. -1.
         11    1    1    2    0    0 -0.16138999966E+03 -0.12632812235E+03 -0.43489423709E+03  0.48076868028E+03  0.00000000000E+00 0.  1.
        -15    1    3    3    0    0  0.90108321560E+02  0.13898996677E+02  0.33119185329E+03  0.34351694738E+03  0.17770000000E+01 0. -1.
         15    1    3    3    0    0  0.38624325332E+02  0.19535001095E+02  0.29298672591E+02  0.52297463798E+02  0.17770000000E+01 0.  1.
</event>
<event>
 7    1  0.5285153E-006  0.5210491E+03  0.7546771E-02  0.9353905E-01
        -11   -1    0    0    0    0  0.00000000000E+00  0.00000000000E+00  0.50000000000E+03  0.50000000000E+03  0.00000000000E+00 0.  1.
         11   -1    0    0    0    0 -0.00000000000E+00 -0.00000000000E+00 -0.50000000000E+03  0.50000000000E+03  0.00000000000E+00 0. -1.
         23    2    1    2    0    0 -0.29114741522E+02  0.11581234880E+03 -0.34636168411E+03  0.37757772145E+03  0.91314572832E+02 0.  0.
        -11    1    1    2    0    0 -0.60652647369E+02 -0.12748952474E+03  0.45766979622E+03  0.47895090033E+03  0.00000000000E+00 0.  1.
         11    1    1    2    0    0  0.89767388891E+02  0.11677175934E+02 -0.11130811212E+03  0.14347137822E+03  0.00000000000E+00 0. -1.
        -15    1    3    3    0    0 -0.18963487140E+02  0.12842013205E+03 -0.32942007286E+03  0.35407920906E+03  0.17770000000E+01 0. -1.
         15    1    3    3    0    0 -0.10151254382E+02 -0.12607783245E+02 -0.16941611250E+02  0.23498512392E+02  0.17770000000E+01 0.  1.
</event>
<event>
 7    1  0.5285153E-006  0.5147743E+03  0.7546771E-02  0.9367345E-01
        -11   -1    0    0    0    0  0.00000000000E+00  0.00000000000E+00  0.50000000000E+03  0.50000000000E+03  0.00000000000E+00 0.  1.
         11   -1    0    0    0    0 -0.00000000000E+00 -0.00000000000E+00 -0.50000000000E+03  0.50000000000E+03  0.00000000000E+00 0. -1.
         23    2    1    2    0    0  0.12925133366E+02 -0.10901841584E+02 -0.27605447740E+03  0.29052662606E+03  0.88959185796E+02 0.  0.
        -11    1    1    2    0    0  0.50268412759E+02  0.98997072871E+02  0.47235226063E+03  0.48522571230E+03  0.00000000000E+00 0.  1.
         11    1    1    2    0    0 -0.63193546126E+02 -0.88095231287E+02 -0.19629778323E+03  0.22424766164E+03  0.00000000000E+00 0. -1.
        -15    1    3    3    0    0 -0.27603935687E+02 -0.26176044528E+02 -0.19423773208E+03  0.19793589080E+03  0.17770000000E+01 0.  1.
         15    1    3    3    0    0  0.40529069053E+02  0.15274202944E+02 -0.81816745318E+02  0.92590735267E+02  0.17770000000E+01 0. -1.
</event>
<event>
 7    1  0.5285153E-006  0.3196380E+03  0.7546771E-02  0.9929093E-01
        -11   -1    0    0    0    0  0.00000000000E+00  0.00000000000E+00  0.50000000000E+03  0.50000000000E+03  0.00000000000E+00 0.  1.
         11   -1    0    0    0    0 -0.00000000000E+00 -0.00000000000E+00 -0.50000000000E+03  0.50000000000E+03  0.00000000000E+00 0.  1.
         23    2    1    2    0    0 -0.15165232236E+03  0.17086259459E+03 -0.27435141637E+03  0.36852078947E+03  0.91358740664E+02 0.  0.
        -11    1    1    2    0    0 -0.10335222218E+03 -0.91789606785E+01  0.31050318666E+03  0.32738076314E+03  0.00000000000E+00 0.  1.
         11    1    1    2    0    0  0.25500454454E+03 -0.16168363391E+03 -0.36151770289E+02  0.30409844739E+03  0.00000000000E+00 0.  1.
        -15    1    3    3    0    0 -0.17010922484E+02  0.63785252440E+02 -0.12197349549E+03  0.13870335700E+03  0.17770000000E+01 0. -1.
         15    1    3    3    0    0 -0.13464139988E+03  0.10707734215E+03 -0.15237792088E+03  0.22981743247E+03  0.17770000000E+01 0.  1.
</event>
<event>
 7    1  0.5285153E-006  0.4665939E+03  0.7546771E-02  0.9477826E-01
        -11   -1    0    0    0    0  0.00000000000E+00  0.00000000000E+00  0.50000000000E+03  0.50000000000E+03  0.00000000000E+00 0.  1.
         11   -1    0    0    0    0 -0.00000000000E+00 -0.00000000000E+00 -0.50000000000E+03  0.50000000000E+03  0.00000000000E+00 0. -1.
         23    2    1    2    0    0  0.11553145224E+02 -0.83655534940E+02  0.42321795478E+03  0.44117849844E+03  0.91614990832E+02 0.  0.
        -11    1    1    2    0    0 -0.12333186660E+02 -0.59032557304E+02  0.41160812359E+02  0.73014812121E+02  0.00000000000E+00 0.  1.
         11    1    1    2    0    0  0.78004143640E+00  0.14268809224E+03 -0.46437876714E+03  0.48580668944E+03  0.00000000000E+00 0. -1.
        -15    1    3    3    0    0 -0.34565142919E+02 -0.18834747072E+02  0.20849079842E+03  0.21218168525E+03  0.17770000000E+01 0.  1.
         15    1    3    3    0    0  0.46118288143E+02 -0.64820787868E+02  0.21472715636E+03  0.22899681319E+03  0.17770000000E+01 0. -1.
</event>
<event>
 7    1  0.6835866E-006  0.4879453E+03  0.7546771E-02  0.9427194E-01
        -11   -1    0    0    0    0  0.00000000000E+00  0.00000000000E+00  0.50000000000E+03  0.50000000000E+03  0.00000000000E+00 0.  1.
         11   -1    0    0    0    0 -0.00000000000E+00 -0.00000000000E+00 -0.50000000000E+03  0.50000000000E+03  0.00000000000E+00 0.  1.
         23    2    1    2    0    0  0.60363091194E+02  0.53602064332E+02  0.45825763349E+03  0.47405160349E+03  0.90597903072E+02 0.  0.
        -11    1    1    2    0    0  0.80242360878E+01 -0.11034986559E+02  0.29014722904E+02  0.32062648648E+02  0.00000000000E+00 0.  1.
         11    1    1    2    0    0 -0.68387327282E+02 -0.42567077773E+02 -0.48727235639E+03  0.49388574787E+03  0.00000000000E+00 0.  1.
        -15    1    3    3    0    0  0.55387789323E+02 -0.63767441522E+01  0.15155765992E+03  0.16149722005E+03  0.17770000000E+01 0. -1.
         15    1    3    3    0    0  0.49753018712E+01  0.59978808484E+02  0.30669997356E+03  0.31255438344E+03  0.17770000000E+01 0.  1.
</event>
<event>
 7    1  0.5285153E-006  0.5180049E+03  0.7546771E-02  0.9360400E-01
        -11   -1    0    0    0    0  0.00000000000E+00  0.00000000000E+00  0.50000000000E+03  0.50000000000E+03  0.00000000000E+00 0. -1.
         11   -1    0    0    0    0 -0.00000000000E+00 -0.00000000000E+00 -0.50000000000E+03  0.50000000000E+03  0.00000000000E+00 0.  1.
         23    2    1    2    0    0  0.43003251012E+02  0.64681012424E+02  0.94768460648E+02  0.15275519755E+03  0.91215000298E+02 0.  0.
        -11    1    1    2    0    0  0.24944414463E+02  0.13758307099E+03  0.33742554590E+03  0.36524967387E+03  0.00000000000E+00 0. -1.
         11    1    1    2    0    0 -0.67947665475E+02 -0.20226408341E+03 -0.43219400655E+03  0.48199512858E+03  0.00000000000E+00 0.  1.
        -15    1    3    3    0    0 -0.17588584574E+02  0.49727529070E+02  0.64587788727E+02  0.83408186867E+02  0.17770000000E+01 0.  1.
         15    1    3    3    0    0  0.60591835587E+02  0.14953483354E+02  0.30180671921E+02  0.69347010684E+02  0.17770000000E+01 0. -1.
</event>
<event>
 7    1  0.5285153E-006  0.5171423E+03  0.7546771E-02  0.9362249E-01
        -11   -1    0    0    0    0  0.00000000000E+00  0.00000000000E+00  0.50000000000E+03  0.50000000000E+03  0.00000000000E+00 0. -1.
         11   -1    0    0    0    0 -0.00000000000E+00 -0.00000000000E+00 -0.50000000000E+03  0.50000000000E+03  0.00000000000E+00 0. -1.
         23    2    1    2    0    0  0.26243367518E+02 -0.13507862872E+02 -0.34558048640E+03  0.35890351167E+03  0.92275031323E+02 0.  0.
        -11    1    1    2    0    0  0.45201232085E+02  0.67743111639E+02  0.47594043226E+03  0.48285771778E+03  0.00000000000E+00 0. -1.
         11    1    1    2    0    0 -0.71444599603E+02 -0.54235248767E+02 -0.13035994586E+03  0.15823877055E+03  0.00000000000E+00 0. -1.
        -15    1    3    3    0    0 -0.33630131895E+02  0.42353798012E+01 -0.13894652867E+03  0.14303223333E+03  0.17770000000E+01 0. -1.
         15    1    3    3    0    0  0.59873499413E+02 -0.17743242673E+02 -0.20663395774E+03  0.21587127834E+03  0.17770000000E+01 0.  1.
</event>
<event>
 7    1  0.5285153E-006  0.5141425E+03  0.7546771E-02  0.9368709E-01
        -11   -1    0    0    0    0  0.00000000000E+00  0.00000000000E+00  0.50000000000E+03  0.50000000000E+03  0.00000000000E+00 0. -1.
         11   -1    0    0    0    0 -0.00000000000E+00 -0.00000000000E+00 -0.50000000000E+03  0.50000000000E+03  0.00000000000E+00 0.  1.
         23    2    1    2    0    0  0.18231468969E+02 -0.45235105173E+01 -0.37505254750E+03  0.38634008617E+03  0.90782157865E+02 0.  0.
        -11    1    1    2    0    0 -0.86008948765E+02 -0.31823242327E+02  0.47712397103E+03  0.48585753236E+03  0.00000000000E+00 0. -1.
         11    1    1    2    0    0  0.67777479796E+02  0.36346752844E+02 -0.10207142353E+03  0.12780238148E+03  0.00000000000E+00 0.  1.
        -15    1    3    3    0    0  0.41698069046E+02 -0.34515280091E+02 -0.23798067149E+03  0.24406554704E+03  0.17770000000E+01 0.  1.
         15    1    3    3    0    0 -0.23466600077E+02  0.29991769574E+02 -0.13707187601E+03  0.14227453912E+03  0.17770000000E+01 0. -1.
</event>
<event>
 7    1  0.5285153E-006  0.5330889E+03  0.7546771E-02  0.9328670E-01
        -11   -1    0    0    0    0  0.00000000000E+00  0.00000000000E+00  0.50000000000E+03  0.50000000000E+03  0.00000000000E+00 0. -1.
         11   -1    0    0    0    0 -0.00000000000E+00 -0.00000000000E+00 -0.50000000000E+03  0.50000000000E+03  0.00000000000E+00 0.  1.
         23    2    1    2    0    0 -0.53583923817E+02 -0.30773940041E+02  0.46221746435E+02  0.12092253846E+03  0.93099614316E+02 0.  0.
        -11    1    1    2    0    0  0.31654887788E+02 -0.20752336395E+03  0.35470150746E+03  0.41216639589E+03  0.00000000000E+00 0. -1.
         11    1    1    2    0    0  0.21929036029E+02  0.23829730399E+03 -0.40092325390E+03  0.46691106565E+03  0.00000000000E+00 0.  1.
        -15    1    3    3    0    0  0.26700200778E+02 -0.39962035049E+01  0.99397519154E+01  0.28824065660E+02  0.17770000000E+01 0.  1.
         15    1    3    3    0    0 -0.80284124595E+02 -0.26777736537E+02  0.36281994520E+02  0.92098472796E+02  0.17770000000E+01 0. -1.
</event>
<event>
 7    1  0.5285153E-006  0.5075455E+03  0.7546771E-02  0.9383083E-01
        -11   -1    0    0    0    0  0.00000000000E+00  0.00000000000E+00  0.50000000000E+03  0.50000000000E+03  0.00000000000E+00 0. -1.
         11   -1    0    0    0    0 -0.00000000000E+00 -0.00000000000E+00 -0.50000000000E+03  0.50000000000E+03  0.00000000000E+00 0. -1.
         23    2    1    2    0    0 -0.67773409634E+02 -0.24878326138E+02 -0.34400414135E+03  0.36320853741E+03  0.91484568200E+02 0.  0.
        -11    1    1    2    0    0  0.12992687365E+03  0.41957015619E+02  0.47314909601E+03  0.49245451639E+03  0.00000000000E+00 0. -1.
         11    1    1    2    0    0 -0.62153464018E+02 -0.17078689481E+02 -0.12914495466E+03  0.14433694620E+03  0.00000000000E+00 0. -1.
        -15    1    3    3    0    0 -0.36982505442E+01  0.12921361159E+02 -0.26199889083E+01  0.13807994140E+02  0.17770000000E+01 0.  1.
         15    1    3    3    0    0 -0.64075159090E+02 -0.37799687296E+02 -0.34138415244E+03  0.34940054327E+03  0.17770000000E+01 0. -1.
</event>
<event>
 7    1  0.5285153E-006  0.4651422E+03  0.7546771E-02  0.9481373E-01
        -11   -1    0    0    0    0  0.00000000000E+00  0.00000000000E+00  0.50000000000E+03  0.50000000000E+03  0.00000000000E+00 0. -1.
         11   -1    0    0    0    0 -0.00000000000E+00 -0.00000000000E+00 -0.50000000000E+03  0.50000000000E+03  0.00000000000E+00 0.  1.
         23    2    1    2    0    0 -0.16279809370E+03  0.17328504972E+03 -0.38155326258E+03  0.45782414999E+03  0.86539773268E+02 0.  0.
        -11    1    1    2    0    0  0.99702440638E+02 -0.17510282695E+03  0.42170069252E+03  0.46736821752E+03  0.00000000000E+00 0. -1.
         11    1    1    2    0    0  0.63095653060E+02  0.18177772295E+01 -0.40147429938E+02  0.74807632496E+02  0.00000000000E+00 0.  1.
        -15    1    3    3    0    0 -0.16690261104E+03  0.14089504546E+03 -0.34876175387E+03  0.41151648096E+03  0.17770000000E+01 0.  1.
         15    1    3    3    0    0  0.41045173409E+01  0.32390004259E+02 -0.32791508707E+02  0.46307669028E+02  0.17770000000E+01 0. -1.
</event>
<event>
 7    1  0.5285153E-006  0.5166471E+03  0.7546771E-02  0.9363312E-01
        -11   -1    0    0    0    0  0.00000000000E+00  0.00000000000E+00  0.50000000000E+03  0.50000000000E+03  0.00000000000E+00 0.  1.
         11   -1    0    0    0    0 -0.00000000000E+00 -0.00000000000E+00 -0.50000000000E+03  0.50000000000E+03  0.00000000000E+00 0. -1.
         23    2    1    2    0    0 -0.32201486425E+02  0.11305096797E+02 -0.37525994867E+03  0.38647898072E+03  0.85914099665E+02 0.  0.
        -11    1    1    2    0    0  0.91483793898E+02  0.53033444228E+02  0.47164411136E+03  0.48335287165E+03  0.00000000000E+00 0.  1.
         11    1    1    2    0    0 -0.59282307473E+02 -0.64338541025E+02 -0.96384162692E+02  0.13016814763E+03  0.00000000000E+00 0. -1.
        -15    1    3    3    0    0 -0.58478592761E+02  0.17969557321E+02 -0.30641606919E+03  0.31246858401E+03  0.17770000000E+01 0. -1.
         15    1    3    3    0    0  0.26277106335E+02 -0.66644605240E+01 -0.68843879473E+02  0.74010396711E+02  0.17770000000E+01 0.  1.
</event>
<event>
 7    1  0.5285153E-006  0.5211100E+03  0.7546771E-02  0.9353775E-01
        -11   -1    0    0    0    0  0.00000000000E+00  0.00000000000E+00  0.50000000000E+03  0.50000000000E+03  0.00000000000E+00 0.  1.
         11   -1    0    0    0    0 -0.00000000000E+00 -0.00000000000E+00 -0.50000000000E+03  0.50000000000E+03  0.00000000000E+00 0. -1.
         23    2    1    2    0    0 -0.74212089302E+02 -0.15941298974E+03  0.28109565922E+03  0.34312387909E+03  0.88313596191E+02 0.  0.
        -11    1    1    2    0    0  0.19445541222E+02  0.24715320346E+02  0.17518584050E+03  0.17798610858E+03  0.00000000000E+00 0.  1.
         11    1    1    2    0    0  0.54766548080E+02  0.13469766940E+03 -0.45628149972E+03  0.47889001234E+03  0.00000000000E+00 0. -1.
        -15    1    3    3    0    0 -0.26811256334E+02 -0.18759209054E+01  0.16617720799E+02  0.31649153527E+02  0.17770000000E+01 0.  1.
         15    1    3    3    0    0 -0.47400832968E+02 -0.15753706884E+03  0.26447793842E+03  0.31147472556E+03  0.17770000000E+01 0. -1.
</event>
<event>
 7    1  0.5285153E-006  0.4789642E+03  0.7546771E-02  0.9448149E-01
        -11   -1    0    0    0    0  0.00000000000E+00  0.00000000000E+00  0.50000000000E+03  0.50000000000E+03  0.00000000000E+00 0.  1.
         11   -1    0    0    0    0 -0.00000000000E+00 -0.00000000000E+00 -0.50000000000E+03  0.50000000000E+03  0.00000000000E+00 0. -1.
         23    2    1    2    0    0  0.10042603620E+03 -0.29527315706E+02 -0.44830090353E+03  0.46936399267E+03  0.91496482966E+02 0.  0.
        -11    1    1    2    0    0 -0.14932945684E+03  0.27966245482E+02  0.45641769805E+03  0.48103899287E+03  0.00000000000E+00 0.  1.
         11    1    1    2    0    0  0.48903420634E+02  0.15610702245E+01 -0.81167945220E+01  0.49597014459E+02  0.00000000000E+00 0. -1.
        -15    1    3    3    0    0  0.10647676948E+03 -0.62149959346E+01 -0.41327046700E+03  0.42681561035E+03  0.17770000000E+01 0. -1.
         15    1    3    3    0    0 -0.60507332752E+01 -0.23312319771E+02 -0.35030436528E+02  0.42548382327E+02  0.17770000000E+01 0.  1.
</event>
<event>
 7    1  0.5285153E-006  0.5153561E+03  0.7546771E-02  0.9366090E-01
        -11   -1    0    0    0    0  0.00000000000E+00  0.00000000000E+00  0.50000000000E+03  0.50000000000E+03  0.00000000000E+00 0.  1.
         11   -1    0    0    0    0 -0.00000000000E+00 -0.00000000000E+00 -0.50000000000E+03  0.50000000000E+03  0.00000000000E+00 0. -1.
         23    2    1    2    0    0 -0.23746748508E+01 -0.52187158721E+02 -0.36362188237E+03  0.38010132591E+03  0.97606382986E+02 0.  0.
        -11    1    1    2    0    0  0.86247410358E+01  0.14411015105E+03  0.46264191540E+03  0.48464385241E+03  0.00000000000E+00 0.  1.
         11    1    1    2    0    0 -0.62500661850E+01 -0.91922992332E+02 -0.99020033030E+02  0.13525482168E+03  0.00000000000E+00 0. -1.
        -15    1    3    3    0    0 -0.29354252180E+02 -0.55811203831E+02 -0.33369922806E+03  0.33960991613E+03  0.17770000000E+01 0. -1.
         15    1    3    3    0    0  0.26979577329E+02  0.36240451102E+01 -0.29922654308E+02  0.40491409776E+02  0.17770000000E+01 0.  1.
</event>
<event>
 7    1  0.5285153E-006  0.3570466E+03  0.7546771E-02  0.9792589E-01
        -11   -1    0    0    0    0  0.00000000000E+00  0.00000000000E+00  0.50000000000E+03  0.50000000000E+03  0.00000000000E+00 0. -1.
         11   -1    0    0    0    0 -0.00000000000E+00 -0.00000000000E+00 -0.50000000000E+03  0.50000000000E+03  0.00000000000E+00 0.  1.
         23    2    1    2    0    0  0.11479337295E+03 -0.91493478161E+02 -0.17956732756E+03  0.24918576699E+03  0.91107334068E+02 0.  0.
        -11    1    1    2    0    0  0.16364441550E+03  0.24004961802E+00  0.36779317836E+03  0.40255605125E+03  0.00000000000E+00 0. -1.
         11    1    1    2    0    0 -0.27843778845E+03  0.91253428543E+02 -0.18822585080E+03  0.34825818177E+03  0.00000000000E+00 0.  1.
        -15    1    3    3    0    0  0.96046026392E+02 -0.88775701474E+02 -0.92852028646E+02  0.16040767223E+03  0.17770000000E+01 0.  1.
         15    1    3    3    0    0  0.18747346559E+02 -0.27177766872E+01 -0.86715298917E+02  0.88778094755E+02  0.17770000000E+01 0. -1.
</event>
<event>
 7    1  0.5285153E-006  0.5191912E+03  0.7546771E-02  0.9357863E-01
        -11   -1    0    0    0    0  0.00000000000E+00  0.00000000000E+00  0.50000000000E+03  0.50000000000E+03  0.00000000000E+00 0.  1.
         11   -1    0    0    0    0 -0.00000000000E+00 -0.00000000000E+00 -0.50000000000E+03  0.50000000000E+03  0.00000000000E+00 0.  1.
         23    2    1    2    0    0  0.44188172389E+02  0.76792652724E+02  0.16896454315E+03  0.21129968952E+03  0.90823101995E+02 0.  0.
        -11    1    1    2    0    0  0.47532558531E+02 -0.39908151201E+02  0.30157122141E+03  0.30789154947E+03  0.00000000000E+00 0.  1.
         11    1    1    2    0    0 -0.91720730919E+02 -0.36884501524E+02 -0.47053576456E+03  0.48080876101E+03  0.00000000000E+00 0.  1.
        -15    1    3    3    0    0 -0.11812079563E+02  0.69289011866E+02  0.96301962215E+02  0.11923807296E+03  0.17770000000E+01 0.  1.
         15    1    3    3    0    0  0.56000251952E+02  0.75036408584E+01  0.72662580939E+02  0.92061616554E+02  0.17770000000E+01 0. -1.
</event>
<event>
 7    1  0.5285153E-006  0.4911583E+03  0.7546771E-02  0.9419814E-01
        -11   -1    0    0    0    0  0.00000000000E+00  0.00000000000E+00  0.50000000000E+03  0.50000000000E+03  0.00000000000E+00 0.  1.
         11   -1    0    0    0    0 -0.00000000000E+00 -0.00000000000E+00 -0.50000000000E+03  0.50000000000E+03  0.00000000000E+00 0. -1.
         23    2    1    2    0    0  0.68922748402E+02  0.44826042946E+02 -0.46483867244E+03  0.48047717701E+03  0.89574588242E+02 0.  0.
        -11    1    1    2    0    0 -0.77812346025E+02 -0.34602420570E+02  0.48654176105E+03  0.49393822888E+03  0.00000000000E+00 0.  1.
         11    1    1    2    0    0  0.88895976226E+01 -0.10223622376E+02 -0.21703088613E+02  0.25584594109E+02  0.00000000000E+00 0. -1.
        -15    1    3    3    0    0  0.54355508801E+02  0.70114103984E+02 -0.39347753916E+03  0.40335869950E+03  0.17770000000E+01 0. -1.
         15    1    3    3    0    0  0.14567239601E+02 -0.25288061038E+02 -0.71361133281E+02  0.77118477505E+02  0.17770000000E+01 0.  1.
</event>
<event>
 7    1  0.5285153E-006  0.5135640E+03  0.7546771E-02  0.9369961E-01
        -11   -1    0    0    0    0  0.00000000000E+00  0.00000000000E+00  0.50000000000E+03  0.50000000000E+03  0.00000000000E+00 0.  1.
         11   -1    0    0    0    0 -0.00000000000E+00 -0.00000000000E+00 -0.50000000000E+03  0.50000000000E+03  0.00000000000E+00 0. -1.
         23    2    1    2    0    0  0.13007344970E+02  0.17797662314E+02 -0.27482666188E+03  0.28939267898E+03  0.87934525435E+02 0.  0.
        -11    1    1    2    0    0  0.77645107398E+02 -0.43738027181E+02  0.47820314214E+03  0.48643604192E+03  0.00000000000E+00 0.  1.
         11    1    1    2    0    0 -0.90652452369E+02  0.25940364867E+02 -0.20337648026E+03  0.22417127910E+03  0.00000000000E+00 0. -1.
        -15    1    3    3    0    0  0.28798054027E+02 -0.27769562204E+02 -0.15789660801E+03  0.16289558942E+03  0.17770000000E+01 0. -1.
         15    1    3    3    0    0 -0.15790709057E+02  0.45567224518E+02 -0.11693005386E+03  0.12649708957E+03  0.17770000000E+01 0.  1.
</event>
<event>
 7    1  0.5285153E-006  0.5222496E+03  0.7546771E-02  0.9351356E-01
        -11   -1    0    0    0    0  0.00000000000E+00  0.00000000000E+00  0.50000000000E+03  0.50000000000E+03  0.00000000000E+00 0. -1.
         11   -1    0    0    0    0 -0.00000000000E+00 -0.00000000000E+00 -0.50000000000E+03  0.50000000000E+03  0.00000000000E+00 0. -1.
         23    2    1    2    0    0 -0.35280071757E+02 -0.53338074107E+00  0.23571532680E+03  0.25511320112E+03  0.90972864843E+02 0.  0.
        -11    1    1    2    0    0  0.12202461447E+03 -0.58142017318E+02  0.23041559817E+03  0.26713638575E+03  0.00000000000E+00 0. -1.
         11    1    1    2    0    0 -0.86744542710E+02  0.58675398059E+02 -0.46613092497E+03  0.47775041313E+03  0.00000000000E+00 0. -1.
        -15    1    3    3    0    0 -0.22510433483E+02 -0.37580588742E+02  0.18944965290E+03  0.19445654779E+03  0.17770000000E+01 0. -1.
         15    1    3    3    0    0 -0.12769638274E+02  0.37047208001E+02  0.46265673900E+02  0.60656653327E+02  0.17770000000E+01 0.  1.
</event>
<event>
 7    1  0.5285153E-006  0.4468766E+03  0.7546771E-02  0.9527213E-01
        -11   -1    0    0    0    0  0.00000000000E+00  0.00000000000E+00  0.50000000000E+03  0.50000000000E+03  0.00000000000E+00 0. -1.
         11   -1    0    0    0    0 -0.00000000000E+00 -0.00000000000E+00 -0.50000000000E+03  0.50000000000E+03  0.00000000000E+00 0.  1.
         23    2    1    2    0    0  0.29221889147E+03  0.10915844602E+03  0.28122464261E+03  0.42970993285E+03  0.90861872689E+02 0.  0.
        -11    1    1    2    0    0 -0.18412634582E+02 -0.62579110415E+02  0.87203674439E+02  0.10890202481E+03  0.00000000000E+00 0. -1.
         11    1    1    2    0    0 -0.27380625689E+03 -0.46579335605E+02 -0.36842831704E+03  0.46138804234E+03  0.00000000000E+00 0.  1.
        -15    1    3    3    0    0  0.62204262541E+02  0.14930095188E+01  0.20016471677E+02  0.65386667014E+02  0.17770000000E+01 0.  1.
         15    1    3    3    0    0  0.23001462893E+03  0.10766543650E+03  0.26120817093E+03  0.36432326583E+03  0.17770000000E+01 0. -1.
</event>
<event>
 7    1  0.5285153E-006  0.5384145E+03  0.7546771E-02  0.9317733E-01
        -11   -1    0    0    0    0  0.00000000000E+00  0.00000000000E+00  0.50000000000E+03  0.50000000000E+03  0.00000000000E+00 0.  1.
         11   -1    0    0    0    0 -0.00000000000E+00 -0.00000000000E+00 -0.50000000000E+03  0.50000000000E+03  0.00000000000E+00 0.  1.
         23    2    1    2    0    0 -0.11999492433E+02 -0.19039254779E+02 -0.27503062629E+02  0.10706182207E+03  0.10099175338E+03 0.  0.
        -11    1    1    2    0    0 -0.40866291536E+01  0.91041033633E+02  0.45249969696E+03  0.46158546997E+03  0.00000000000E+00 0.  1.
         11    1    1    2    0    0  0.16086121586E+02 -0.72001778854E+02 -0.42499663433E+03  0.43135270795E+03  0.00000000000E+00 0.  1.
        -15    1    3    3    0    0  0.18662777661E+02  0.10706443516E+02  0.29031907946E+02  0.36179228996E+02  0.17770000000E+01 0.  1.
         15    1    3    3    0    0 -0.30662270093E+02 -0.29745698295E+02 -0.56534970575E+02  0.70882593077E+02  0.17770000000E+01 0. -1.
</event>
<event>
 7    1  0.5285153E-006  0.4160768E+03  0.7546771E-02  0.9610057E-01
        -11   -1    0    0    0    0  0.00000000000E+00  0.00000000000E+00  0.50000000000E+03  0.50000000000E+03  0.00000000000E+00 0.  1.
         11   -1    0    0    0    0 -0.00000000000E+00 -0.00000000000E+00 -0.50000000000E+03  0.50000000000E+03  0.00000000000E+00 0.  1.
         23    2    1    2    0    0 -0.84470251753E+02 -0.57765891758E+02 -0.76765795185E+02  0.15807091592E+03  0.92850985276E+02 0.  0.
        -11    1    1    2    0    0 -0.13955535440E+03  0.18218657788E+02  0.41280036036E+03  0.43613272515E+03  0.00000000000E+00 0.  1.
         11    1    1    2    0    0  0.22402560616E+03  0.39547233970E+02 -0.33603456518E+03  0.40579635893E+03  0.00000000000E+00 0.  1.
        -15    1    3    3    0    0  0.47255990051E+01 -0.31597769023E+02  0.71958312742E+01  0.32797682996E+02  0.17770000000E+01 0.  1.
         15    1    3    3    0    0 -0.89195850758E+02 -0.26168122735E+02 -0.83961626459E+02  0.12527323292E+03  0.17770000000E+01 0. -1.
</event>
<event>
 7    1  0.5285153E-006  0.3661912E+03  0.7546771E-02  0.9761933E-01
        -11   -1    0    0    0    0  0.00000000000E+00  0.00000000000E+00  0.50000000000E+03  0.50000000000E+03  0.00000000000E+00 0.  1.
         11   -1    0    0    0    0 -0.00000000000E+00 -0.00000000000E+00 -0.50000000000E+03  0.50000000000E+03  0.00000000000E+00 0.  1.
         23    2    1    2    0    0  0.21683416712E+03 -0.12305343493E+02  0.21129268286E+02  0.23580179111E+03  0.89373157042E+02 0.  0.
        -11    1    1    2    0    0 -0.97918676252E+02  0.36483260096E+02  0.35443419731E+03  0.36951684082E+03  0.00000000000E+00 0.  1.
         11    1    1    2    0    0 -0.11891549087E+03 -0.24177916603E+02 -0.37556346559E+03  0.39468136808E+03  0.00000000000E+00 0.  1.
        -15    1    3    3    0    0  0.14117904313E+03  0.13355401914E+02  0.50681030617E+02  0.15060416187E+03  0.17770000000E+01 0.  1.
         15    1    3    3    0    0  0.75655123997E+02 -0.25660745407E+02 -0.29551762332E+02  0.85197629238E+02  0.17770000000E+01 0. -1.
</event>
<event>
 7    1  0.5285153E-006  0.5196209E+03  0.7546771E-02  0.9356946E-01
        -11   -1    0    0    0    0  0.00000000000E+00  0.00000000000E+00  0.50000000000E+03  0.50000000000E+03  0.00000000000E+00 0.  1.
         11   -1    0    0    0    0 -0.00000000000E+00 -0.00000000000E+00 -0.50000000000E+03  0.50000000000E+03  0.00000000000E+00 0. -1.
         23    2    1    2    0    0  0.93995240948E+01 -0.39176059300E+01 -0.10129753222E+03  0.13719863317E+03  0.91970518203E+02 0.  0.
        -11    1    1    2    0    0  0.15673177630E+01 -0.89607628129E+02  0.47194500956E+03  0.48037909567E+03  0.00000000000E+00 0.  1.
         11    1    1    2    0    0 -0.10966841858E+02  0.93525234059E+02 -0.37064747734E+03  0.38242227117E+03  0.00000000000E+00 0. -1.
        -15    1    3    3    0    0 -0.29991240386E+02 -0.66276873356E+01 -0.91421507887E+02  0.96459579994E+02  0.17770000000E+01 0. -1.
         15    1    3    3    0    0  0.39390764481E+02  0.27100814055E+01 -0.98760243363E+01  0.40739053171E+02  0.17770000000E+01 0.  1.
</event>
<event>
 7    1  0.5285153E-006  0.4920311E+03  0.7546771E-02  0.9417819E-01
        -11   -1    0    0    0    0  0.00000000000E+00  0.00000000000E+00  0.50000000000E+03  0.50000000000E+03  0.00000000000E+00 0. -1.
         11   -1    0    0    0    0 -0.00000000000E+00 -0.00000000000E+00 -0.50000000000E+03  0.50000000000E+03  0.00000000000E+00 0.  1.
         23    2    1    2    0    0 -0.98742917287E+02 -0.21401023277E+03 -0.42872545807E+03  0.49758092639E+03  0.90723296162E+02 0.  0.
        -11    1    1    2    0    0  0.11647774407E+03  0.20211430852E+03  0.41760487207E+03  0.47834201964E+03  0.00000000000E+00 0. -1.
         11    1    1    2    0    0 -0.17734826786E+02  0.11895924250E+02  0.11120585998E+02  0.24077053969E+02  0.00000000000E+00 0.  1.
        -15    1    3    3    0    0 -0.37355678964E+02 -0.14896015214E+03 -0.33214373976E+03  0.36593332079E+03  0.17770000000E+01 0.  1.
         15    1    3    3    0    0 -0.61387238323E+02 -0.65050080631E+02 -0.96581718310E+02  0.13164760560E+03  0.17770000000E+01 0. -1.
</event>
<event>
 7    1  0.5285153E-006  0.5228244E+03  0.7546771E-02  0.9350139E-01
        -11   -1    0    0    0    0  0.00000000000E+00  0.00000000000E+00  0.50000000000E+03  0.50000000000E+03  0.00000000000E+00 0. -1.
         11   -1    0    0    0    0 -0.00000000000E+00 -0.00000000000E+00 -0.50000000000E+03  0.50000000000E+03  0.00000000000E+00 0. -1.
         23    2    1    2    0    0 -0.60952217466E+02  0.53620900309E+02 -0.27130494345E+03  0.29884362420E+03  0.95450330630E+02 0.  0.
        -11    1    1    2    0    0  0.18534609692E+03  0.27799934220E+02  0.43882863131E+03  0.47717562767E+03  0.00000000000E+00 0. -1.
         11    1    1    2    0    0 -0.12439387946E+03 -0.81420834529E+02 -0.16752368786E+03  0.22398074813E+03  0.00000000000E+00 0. -1.
        -15    1    3    3    0    0 -0.52931245209E+02 -0.10375896953E+02 -0.76416915355E+02  0.93552544799E+02  0.17770000000E+01 0.  1.
         15    1    3    3    0    0 -0.80209722569E+01  0.63996797262E+02 -0.19488802810E+03  0.20529107940E+03  0.17770000000E+01 0. -1.
</event>
<event>
 7    1  0.5285153E-006  0.5408030E+03  0.7546771E-02  0.9312871E-01
        -11   -1    0    0    0    0  0.00000000000E+00  0.00000000000E+00  0.50000000000E+03  0.50000000000E+03  0.00000000000E+00 0.  1.
         11   -1    0    0    0    0 -0.00000000000E+00 -0.00000000000E+00 -0.50000000000E+03  0.50000000000E+03  0.00000000000E+00 0. -1.
         23    2    1    2    0    0  0.37377122744E+02  0.11860967125E+03 -0.15823875361E+03  0.22083420220E+03  0.90900705710E+02 0.  0.
        -11    1    1    2    0    0  0.11640842926E+03 -0.82419008923E+02  0.43648374763E+03  0.45919699191E+03  0.00000000000E+00 0.  1.
         11    1    1    2    0    0 -0.15378555200E+03 -0.36190662323E+02 -0.27824499402E+03  0.31996880589E+03  0.00000000000E+00 0. -1.
        -15    1    3    3    0    0  0.36022664988E+02  0.52734691109E+02 -0.13769372551E+03  0.15179360927E+03  0.17770000000E+01 0.  1.
         15    1    3    3    0    0  0.13544577563E+01  0.65874980137E+02 -0.20545028096E+02  0.69040592931E+02  0.17770000000E+01 0. -1.
</event>
<event>
 7    1  0.5285153E-006  0.5168679E+03  0.7546771E-02  0.9362838E-01
        -11   -1    0    0    0    0  0.00000000000E+00  0.00000000000E+00  0.50000000000E+03  0.50000000000E+03  0.00000000000E+00 0.  1.
         11   -1    0    0    0    0 -0.00000000000E+00 -0.00000000000E+00 -0.50000000000E+03  0.50000000000E+03  0.00000000000E+00 0. -1.
         23    2    1    2    0    0  0.43655286866E+02 -0.61259521626E+02  0.18248562161E+03  0.21723734733E+03  0.90733400243E+02 0.  0.
        -11    1    1    2    0    0 -0.18462732935E+02 -0.19683271676E+03  0.22515435302E+03  0.29963056182E+03  0.00000000000E+00 0.  1.
         11    1    1    2    0    0 -0.25192553931E+02  0.25809223838E+03 -0.40763997463E+03  0.48313209085E+03  0.00000000000E+00 0. -1.
        -15    1    3    3    0    0 -0.13820507089E+02 -0.57253738728E+02  0.10826720895E+03  0.12326371436E+03  0.17770000000E+01 0. -1.
         15    1    3    3    0    0  0.57475793955E+02 -0.40057828984E+01  0.74218412664E+02  0.93973632976E+02  0.17770000000E+01 0.  1.
</event>
<event>
 7    1  0.5285153E-006  0.3438400E+03  0.7546771E-02  0.9838642E-01
        -11   -1    0    0    0    0  0.00000000000E+00  0.00000000000E+00  0.50000000000E+03  0.50000000000E+03  0.00000000000E+00 0.  1.
         11   -1    0    0    0    0 -0.00000000000E+00 -0.00000000000E+00 -0.50000000000E+03  0.50000000000E+03  0.00000000000E+00 0. -1.
         23    2    1    2    0    0  0.11396619829E+03 -0.82430455730E+02 -0.20809645606E+03  0.26788598041E+03  0.93143379215E+02 0.  0.
        -11    1    1    2    0    0 -0.57194791221E+02 -0.11308667263E+03  0.41973345240E+03  0.43844727247E+03  0.00000000000E+00 0.  1.
         11    1    1    2    0    0 -0.56771407070E+02  0.19551712836E+03 -0.21163699635E+03  0.29366674712E+03  0.00000000000E+00 0. -1.
        -15    1    3    3    0    0  0.14234685806E+02 -0.65913277298E+02 -0.78053576866E+02  0.10316348673E+03  0.17770000000E+01 0.  1.
         15    1    3    3    0    0  0.99731512485E+02 -0.16517178432E+02 -0.13004287919E+03  0.16472249368E+03  0.17770000000E+01 0. -1.
</event>
<event>
 7    1  0.5285153E-006  0.4889368E+03  0.7546771E-02  0.9424910E-01
        -11   -1    0    0    0    0  0.00000000000E+00  0.00000000000E+00  0.50000000000E+03  0.50000000000E+03  0.00000000000E+00 0.  1.
         11   -1    0    0    0    0 -0.00000000000E+00 -0.00000000000E+00 -0.50000000000E+03  0.50000000000E+03  0.00000000000E+00 0. -1.
         23    2    1    2    0    0  0.14517316680E+03 -0.79678345438E+02 -0.44482241173E+03  0.48332712705E+03  0.91182491081E+02 0.  0.
        -11    1    1    2    0    0 -0.12209821726E+03  0.87717099133E+02  0.46262502283E+03  0.48644031071E+03  0.00000000000E+00 0.  1.
         11    1    1    2    0    0 -0.23074949538E+02 -0.80387536951E+01 -0.17802611102E+02  0.30232562234E+02  0.00000000000E+00 0. -1.
        -15    1    3    3    0    0  0.15411812483E+03 -0.65127670047E+02 -0.42683020056E+03  0.45845521880E+03  0.17770000000E+01 0. -1.
         15    1    3    3    0    0 -0.89449580264E+01 -0.14550675391E+02 -0.17992211164E+02  0.24871908250E+02  0.17770000000E+01 0.  1.
</event>
<event>
 7    1  0.5285153E-006  0.5276807E+03  0.7546771E-02  0.9339917E-01
        -11   -1    0    0    0    0  0.00000000000E+00  0.00000000000E+00  0.50000000000E+03  0.50000000000E+03  0.00000000000E+00 0.  1.
         11   -1    0    0    0    0 -0.00000000000E+00 -0.00000000000E+00 -0.50000000000E+03  0.50000000000E+03  0.00000000000E+00 0. -1.
         23    2    1    2    0    0 -0.15318766097E+02  0.46097790607E+02 -0.30829462213E+03  0.32765662052E+03  0.99767810637E+02 0.  0.
        -11    1    1    2    0    0  0.25838965408E+02  0.77515698294E+02  0.46519799412E+03  0.47231928750E+03  0.00000000000E+00 0.  1.
         11    1    1    2    0    0 -0.10520199312E+02 -0.12361348890E+03 -0.15690337199E+03  0.20002409198E+03  0.00000000000E+00 0. -1.
        -15    1    3    3    0    0  0.11488873610E+02  0.70433487226E+02 -0.16371393048E+03  0.17860089334E+03  0.17770000000E+01 0.  1.
         15    1    3    3    0    0 -0.26807639706E+02 -0.24335696619E+02 -0.14458069165E+03  0.14905572718E+03  0.17770000000E+01 0. -1.
</event>
<event>
 6    1  0.5285153E-006  0.3605730E+03  0.7546771E-02  0.9780652E-01
        -11   -1    0    0    0    0  0.00000000000E+00  0.00000000000E+00  0.50000000000E+03  0.50000000000E+03  0.00000000000E+00 0.  1.
         11   -1    0    0    0    0 -0.00000000000E+00 -0.00000000000E+00 -0.50000000000E+03  0.50000000000E+03  0.00000000000E+00 0. -1.
        -11    1    1    2    0    0 -0.45768195047E+02  0.71052975307E+02  0.39014780289E+03  0.39919739613E+03  0.00000000000E+00 0.  1.
         11    1    1    2    0    0  0.21230776482E+03 -0.30738955468E+02 -0.16356722481E+03  0.26976602347E+03  0.00000000000E+00 0. -1.
        -15    1    1    2    0    0 -0.56525242988E+02 -0.28875110636E+02  0.15076484673E+02  0.65263567388E+02  0.17770000000E+01 0.  1.
         15    1    1    2    0    0 -0.11001432679E+03 -0.11438909203E+02 -0.24165706274E+03  0.26577301301E+03  0.17770000000E+01 0. -1.
</event>
<event>
 7    1  0.5285153E-006  0.5387426E+03  0.7546771E-02  0.9317063E-01
        -11   -1    0    0    0    0  0.00000000000E+00  0.00000000000E+00  0.50000000000E+03  0.50000000000E+03  0.00000000000E+00 0.  1.
         11   -1    0    0    0    0 -0.00000000000E+00 -0.00000000000E+00 -0.50000000000E+03  0.50000000000E+03  0.00000000000E+00 0. -1.
         23    2    1    2    0    0  0.91402120222E+00  0.70747908138E+02 -0.28481411797E+03  0.30664597762E+03  0.88918906055E+02 0.  0.
        -11    1    1    2    0    0  0.19489556730E+03 -0.10329362961E+03  0.40509812812E+03  0.46125735710E+03  0.00000000000E+00 0.  1.
         11    1    1    2    0    0 -0.19580958850E+03  0.32545721475E+02 -0.12028401016E+03  0.23209666528E+03  0.00000000000E+00 0. -1.
        -15    1    3    3    0    0 -0.38856934729E+02  0.51820113737E+02 -0.12411101367E+03  0.14000673915E+03  0.17770000000E+01 0.  1.
         15    1    3    3    0    0  0.39770955931E+02  0.18927794400E+02 -0.16070310430E+03  0.16663923847E+03  0.17770000000E+01 0. -1.
</event>
<event>
 7    1  0.5285153E-006  0.5233162E+03  0.7546771E-02  0.9349098E-01
        -11   -1    0    0    0    0  0.00000000000E+00  0.00000000000E+00  0.50000000000E+03  0.50000000000E+03  0.00000000000E+00 0.  1.
         11   -1    0    0    0    0 -0.00000000000E+00 -0.00000000000E+00 -0.50000000000E+03  0.50000000000E+03  0.00000000000E+00 0.  1.
         23    2    1    2    0    0 -0.97371986377E+02 -0.88658149611E+02  0.33982030866E+02  0.16449848146E+03  0.92538644662E+02 0.  0.
        -11    1    1    2    0    0 -0.17563367392E+03 -0.15370555863E+03  0.27253909585E+03  0.35881770432E+03  0.00000000000E+00 0.  1.
         11    1    1    2    0    0  0.27300566030E+03  0.24236370824E+03 -0.30652112671E+03  0.47668381423E+03  0.00000000000E+00 0.  1.
        -15    1    3    3    0    0 -0.43728576109E+02  0.37709863887E+01 -0.15680191113E+02  0.46641556891E+02  0.17770000000E+01 0.  1.
         15    1    3    3    0    0 -0.53643410268E+02 -0.92429136000E+02  0.49662221980E+02  0.11785692456E+03  0.17770000000E+01 0. -1.
</event>
<event>
 7    1  0.5285153E-006  0.5453075E+03  0.7546771E-02  0.9303774E-01
        -11   -1    0    0    0    0  0.00000000000E+00  0.00000000000E+00  0.50000000000E+03  0.50000000000E+03  0.00000000000E+00 0.  1.
         11   -1    0    0    0    0 -0.00000000000E+00 -0.00000000000E+00 -0.50000000000E+03  0.50000000000E+03  0.00000000000E+00 0. -1.
         23    2    1    2    0    0 -0.18514742602E+02 -0.28113692876E+02 -0.58051962174E+02  0.13841654130E+03  0.12106169159E+03 0.  0.
        -11    1    1    2    0    0 -0.32862612241E+02 -0.85457489796E+02  0.44537891499E+03  0.45469254642E+03  0.00000000000E+00 0.  1.
         11    1    1    2    0    0  0.51377354843E+02  0.11357118267E+03 -0.38732695282E+03  0.40689091229E+03  0.00000000000E+00 0. -1.
        -15    1    3    3    0    0  0.17856398067E+02  0.40937311918E+02 -0.72612110659E+01  0.45283522104E+02  0.17770000000E+01 0.  1.
         15    1    3    3    0    0 -0.36371140669E+02 -0.69051004794E+02 -0.50790751108E+02  0.93133019191E+02  0.17770000000E+01 0. -1.
</event>
<event>
 7    1  0.5285153E-006  0.3432592E+03  0.7546771E-02  0.9840718E-01
        -11   -1    0    0    0    0  0.00000000000E+00  0.00000000000E+00  0.50000000000E+03  0.50000000000E+03  0.00000000000E+00 0. -1.
         11   -1    0    0    0    0 -0.00000000000E+00 -0.00000000000E+00 -0.50000000000E+03  0.50000000000E+03  0.00000000000E+00 0. -1.
         23    2    1    2    0    0  0.66451737714E+02  0.12590848941E+03 -0.20748937191E+03  0.26881728587E+03  0.94562744118E+02 0.  0.
        -11    1    1    2    0    0 -0.71292859857E+02  0.57874525421E+02  0.43162932238E+03  0.44128902603E+03  0.00000000000E+00 0. -1.
         11    1    1    2    0    0  0.48411221429E+01 -0.18378301483E+03 -0.22413995047E+03  0.28989368810E+03  0.00000000000E+00 0. -1.
        -15    1    3    3    0    0  0.51859243024E+02  0.26021299979E+02 -0.12720676542E+03  0.13982563440E+03  0.17770000000E+01 0.  1.
         15    1    3    3    0    0  0.14592494691E+02  0.99887189426E+02 -0.80282606496E+02  0.12899165146E+03  0.17770000000E+01 0. -1.
</event>
<event>
 7    1  0.5285153E-006  0.5234676E+03  0.7546771E-02  0.9348778E-01
        -11   -1    0    0    0    0  0.00000000000E+00  0.00000000000E+00  0.50000000000E+03  0.50000000000E+03  0.00000000000E+00 0.  1.
         11   -1    0    0    0    0 -0.00000000000E+00 -0.00000000000E+00 -0.50000000000E+03  0.50000000000E+03  0.00000000000E+00 0.  1.
         23    2    1    2    0    0  0.28506940175E+02 -0.30451217615E+02 -0.16742056837E+03  0.20631616452E+03  0.11312290103E+03 0.  0.
        -11    1    1    2    0    0 -0.51406490893E+02  0.22471176519E+03  0.41706728722E+03  0.47653239847E+03  0.00000000000E+00 0.  1.
         11    1    1    2    0    0  0.22899550718E+02 -0.19426054757E+03 -0.24964671885E+03  0.31715143701E+03  0.00000000000E+00 0.  1.
        -15    1    3    3    0    0  0.71825174454E+02 -0.10433399055E+02 -0.10695185138E+03  0.12926549324E+03  0.17770000000E+01 0. -1.
         15    1    3    3    0    0 -0.43318234279E+02 -0.20017818560E+02 -0.60468716994E+02  0.77050671281E+02  0.17770000000E+01 0.  1.
</event>
<event>
 7    1  0.5285153E-006  0.5268217E+03  0.7546771E-02  0.9341716E-01
        -11   -1    0    0    0    0  0.00000000000E+00  0.00000000000E+00  0.50000000000E+03  0.50000000000E+03  0.00000000000E+00 0.  1.
         11   -1    0    0    0    0 -0.00000000000E+00 -0.00000000000E+00 -0.50000000000E+03  0.50000000000E+03  0.00000000000E+00 0. -1.
         23    2    1    2    0    0 -0.11549503279E+03  0.19753059545E+03  0.28197395175E+03  0.37427587560E+03  0.90640404063E+02 0.  0.
        -11    1    1    2    0    0  0.54268877519E+02  0.13318771715E+03  0.50854077753E+02  0.15254578424E+03  0.00000000000E+00 0.  1.
         11    1    1    2    0    0  0.61226155271E+02 -0.33071831260E+03 -0.33282802950E+03  0.47317834016E+03  0.00000000000E+00 0. -1.
        -15    1    3    3    0    0 -0.91144287840E+02  0.10508609409E+03  0.10938193078E+03  0.17696873421E+03  0.17770000000E+01 0. -1.
         15    1    3    3    0    0 -0.24350744951E+02  0.92444501365E+02  0.17259202097E+03  0.19730714139E+03  0.17770000000E+01 0.  1.
</event>
<event>
 7    1  0.5285153E-006  0.4325145E+03  0.7546771E-02  0.9564927E-01
        -11   -1    0    0    0    0  0.00000000000E+00  0.00000000000E+00  0.50000000000E+03  0.50000000000E+03  0.00000000000E+00 0. -1.
         11   -1    0    0    0    0 -0.00000000000E+00 -0.00000000000E+00 -0.50000000000E+03  0.50000000000E+03  0.00000000000E+00 0. -1.
         23    2    1    2    0    0  0.33621285334E+02  0.70331943744E+02 -0.43462092627E+03  0.45083754883E+03  0.91006443401E+02 0.  0.
        -11    1    1    2    0    0 -0.71282870392E+02  0.55033001945E+02  0.40508156437E+03  0.41497102634E+03  0.00000000000E+00 0. -1.
         11    1    1    2    0    0  0.37661585058E+02 -0.12536494569E+03  0.29539361903E+02  0.13419142483E+03  0.00000000000E+00 0. -1.
        -15    1    3    3    0    0  0.11666742211E+02 -0.21931619777E+02 -0.96698976273E+02  0.99854687227E+02  0.17770000000E+01 0.  1.
         15    1    3    3    0    0  0.21954543123E+02  0.92263563520E+02 -0.33792195000E+03  0.35098286160E+03  0.17770000000E+01 0. -1.
</event>
<event>
 7    1  0.5285153E-006  0.3525807E+03  0.7546771E-02  0.9807920E-01
        -11   -1    0    0    0    0  0.00000000000E+00  0.00000000000E+00  0.50000000000E+03  0.50000000000E+03  0.00000000000E+00 0. -1.
         11   -1    0    0    0    0 -0.00000000000E+00 -0.00000000000E+00 -0.50000000000E+03  0.50000000000E+03  0.00000000000E+00 0.  1.
         23    2    1    2    0    0  0.38780894258E+02  0.30988651946E+03 -0.32119504170E+03  0.45740065607E+03  0.92279427059E+02 0.  0.
        -11    1    1    2    0    0  0.13155179304E+03 -0.16852495430E+03  0.18486690558E+03  0.28263458255E+03  0.00000000000E+00 0. -1.
         11    1    1    2    0    0 -0.17033268730E+03 -0.14136156515E+03  0.13632813612E+03  0.25996476138E+03  0.00000000000E+00 0.  1.
        -15    1    3    3    0    0  0.53365710877E+02  0.20733176313E+03 -0.26101250181E+03  0.33758708940E+03  0.17770000000E+01 0.  1.
         15    1    3    3    0    0 -0.14584816620E+02  0.10255475632E+03 -0.60182539888E+02  0.11981356666E+03  0.17770000000E+01 0. -1.
</event>
<event>
 7    1  0.5285153E-006  0.4946296E+03  0.7546771E-02  0.9411907E-01
        -11   -1    0    0    0    0  0.00000000000E+00  0.00000000000E+00  0.50000000000E+03  0.50000000000E+03  0.00000000000E+00 0. -1.
         11   -1    0    0    0    0 -0.00000000000E+00 -0.00000000000E+00 -0.50000000000E+03  0.50000000000E+03  0.00000000000E+00 0. -1.
         23    2    1    2    0    0 -0.12913436251E+03  0.11089090283E+03  0.44582665321E+03  0.48595177099E+03  0.91734634193E+02 0.  0.
        -11    1    1    2    0    0 -0.10285634648E+02  0.82883398236E+01  0.13844240924E+02  0.19135147345E+02  0.00000000000E+00 0. -1.
         11    1    1    2    0    0  0.13941999716E+03 -0.11917924265E+03 -0.45967089413E+03  0.49491308166E+03  0.00000000000E+00 0. -1.
        -15    1    3    3    0    0 -0.11460397466E+03  0.10053419209E+03  0.44208180805E+03  0.46763305863E+03  0.17770000000E+01 0. -1.
         15    1    3    3    0    0 -0.14530387850E+02  0.10356710741E+02  0.37448451606E+01  0.18318712366E+02  0.17770000000E+01 0.  1.
</event>
<event>
 7    1  0.5285153E-006  0.4142826E+03  0.7546771E-02  0.9615117E-01
        -11   -1    0    0    0    0  0.00000000000E+00  0.00000000000E+00  0.50000000000E+03  0.50000000000E+03  0.00000000000E+00 0.  1.
         11   -1    0    0    0    0 -0.00000000000E+00 -0.00000000000E+00 -0.50000000000E+03  0.50000000000E+03  0.00000000000E+00 0. -1.
         23    2    1    2    0    0  0.16722058206E+03 -0.30648452134E+03  0.16137772592E+03  0.39504374209E+03  0.90118271486E+02 0.  0.
        -11    1    1    2    0    0 -0.64016355925E+02  0.14536637374E+02  0.15128130911E+03  0.16491040640E+03  0.00000000000E+00 0.  1.
         11    1    1    2    0    0 -0.10320422613E+03  0.29194788397E+03 -0.31265903503E+03  0.44004585151E+03  0.00000000000E+00 0. -1.
        -15    1    3    3    0    0 -0.75510334271E+01 -0.33012256858E+02  0.28668127584E+02  0.44405478005E+02  0.17770000000E+01 0. -1.
         15    1    3    3    0    0  0.17477161549E+03 -0.27347226448E+03  0.13270959834E+03  0.35063826409E+03  0.17770000000E+01 0.  1.
</event>
<event>
 7    1  0.5285153E-006  0.5257128E+03  0.7546771E-02  0.9344045E-01
        -11   -1    0    0    0    0  0.00000000000E+00  0.00000000000E+00  0.50000000000E+03  0.50000000000E+03  0.00000000000E+00 0. -1.
         11   -1    0    0    0    0 -0.00000000000E+00 -0.00000000000E+00 -0.50000000000E+03  0.50000000000E+03  0.00000000000E+00 0.  1.
         23    2    1    2    0    0  0.19302265511E+02  0.14290613954E+02  0.74205590880E+02  0.12057368200E+03  0.91949681735E+02 0.  0.
        -11    1    1    2    0    0 -0.10481509658E+03  0.30414828414E+02  0.39016207011E+03  0.40513912081E+03  0.00000000000E+00 0. -1.
         11    1    1    2    0    0  0.85512831072E+02 -0.44705442368E+02 -0.46436766099E+03  0.47428719720E+03  0.00000000000E+00 0.  1.
        -15    1    3    3    0    0  0.46347171878E+02  0.37236567928E+02  0.48214501597E+02  0.76566430147E+02  0.17770000000E+01 0.  1.
         15    1    3    3    0    0 -0.27044906367E+02 -0.22945953974E+02  0.25991089283E+02  0.44007251849E+02  0.17770000000E+01 0. -1.
</event>
<event>
 7    1  0.5285153E-006  0.5153435E+03  0.7546771E-02  0.9366117E-01
        -11   -1    0    0    0    0  0.00000000000E+00  0.00000000000E+00  0.50000000000E+03  0.50000000000E+03  0.00000000000E+00 0.  1.
         11   -1    0    0    0    0 -0.00000000000E+00 -0.00000000000E+00 -0.50000000000E+03  0.50000000000E+03  0.00000000000E+00 0.  1.
         23    2    1    2    0    0 -0.91354842521E+02  0.28031255675E+02  0.25256984291E+03  0.28630533790E+03  0.95119726738E+02 0.  0.
        -11    1    1    2    0    0 -0.13077928486E+02 -0.64890507034E+02  0.21926393142E+03  0.22903816655E+03  0.00000000000E+00 0.  1.
         11    1    1    2    0    0  0.10443277101E+03  0.36859251359E+02 -0.47183377433E+03  0.48465649554E+03  0.00000000000E+00 0.  1.
        -15    1    3    3    0    0 -0.87655422002E+02  0.45276277220E+02  0.24951479030E+03  0.26831735425E+03  0.17770000000E+01 0.  1.
         15    1    3    3    0    0 -0.36994205187E+01 -0.17245021545E+02  0.30550526125E+01  0.17987983649E+02  0.17770000000E+01 0. -1.
</event>
<event>
 7    1  0.5285153E-006  0.4903914E+03  0.7546771E-02  0.9421570E-01
        -11   -1    0    0    0    0  0.00000000000E+00  0.00000000000E+00  0.50000000000E+03  0.50000000000E+03  0.00000000000E+00 0.  1.
         11   -1    0    0    0    0 -0.00000000000E+00 -0.00000000000E+00 -0.50000000000E+03  0.50000000000E+03  0.00000000000E+00 0.  1.
         23    2    1    2    0    0  0.67260186980E+02  0.16262861626E+02 -0.46870951683E+03  0.48311615375E+03  0.94467949201E+02 0.  0.
        -11    1    1    2    0    0 -0.82116713423E+02  0.34482913107E+01  0.48192675311E+03  0.48888489514E+03  0.00000000000E+00 0.  1.
         11    1    1    2    0    0  0.14856526443E+02 -0.19711152937E+02 -0.13217236281E+02  0.27998951104E+02  0.00000000000E+00 0.  1.
        -15    1    3    3    0    0  0.85387762612E+02  0.20527800797E+02 -0.44113271652E+03  0.44979294339E+03  0.17770000000E+01 0.  1.
         15    1    3    3    0    0 -0.18127575632E+02 -0.42649391712E+01 -0.27576800312E+02  0.33323210363E+02  0.17770000000E+01 0. -1.
</event>
<event>
 7    1  0.5285153E-006  0.5328266E+03  0.7546771E-02  0.9329212E-01
        -11   -1    0    0    0    0  0.00000000000E+00  0.00000000000E+00  0.50000000000E+03  0.50000000000E+03  0.00000000000E+00 0. -1.
         11   -1    0    0    0    0 -0.00000000000E+00 -0.00000000000E+00 -0.50000000000E+03  0.50000000000E+03  0.00000000000E+00 0.  1.
         23    2    1    2    0    0  0.20668811052E+02  0.30752686658E+02  0.42097210826E+02  0.10722052820E+03  0.91384566647E+02 0.  0.
        -11    1    1    2    0    0  0.34650703714E+03  0.24028665945E+03  0.57755557282E+02  0.42560605011E+03  0.00000000000E+00 0. -1.
         11    1    1    2    0    0 -0.36717584819E+03 -0.27103934611E+03 -0.99852768108E+02  0.46717342169E+03  0.00000000000E+00 0.  1.
        -15    1    3    3    0    0  0.35613406845E+02 -0.22524580366E+02  0.26078648351E+02  0.49587549814E+02  0.17770000000E+01 0.  1.
         15    1    3    3    0    0 -0.14944595792E+02  0.53277267024E+02  0.16018562475E+02  0.57632978387E+02  0.17770000000E+01 0. -1.
</event>
<event>
 7    1  0.5285153E-006  0.5163853E+03  0.7546771E-02  0.9363875E-01
        -11   -1    0    0    0    0  0.00000000000E+00  0.00000000000E+00  0.50000000000E+03  0.50000000000E+03  0.00000000000E+00 0. -1.
         11   -1    0    0    0    0 -0.00000000000E+00 -0.00000000000E+00 -0.50000000000E+03  0.50000000000E+03  0.00000000000E+00 0.  1.
         23    2    1    2    0    0 -0.10015847983E+03  0.70073120217E+02 -0.27957664676E+03  0.31769091349E+03  0.88444625855E+02 0.  0.
        -11    1    1    2    0    0  0.54490872568E+02 -0.14202245981E+03  0.45906816684E+03  0.48361473933E+03  0.00000000000E+00 0. -1.
         11    1    1    2    0    0  0.45667607259E+02  0.71949339596E+02 -0.17949152009E+03  0.19869434719E+03  0.00000000000E+00 0.  1.
        -15    1    3    3    0    0 -0.70866419033E+02  0.90502328740E+02 -0.20683052868E+03  0.23663209034E+03  0.17770000000E+01 0.  1.
         15    1    3    3    0    0 -0.29292060795E+02 -0.20429208523E+02 -0.72746118073E+02  0.81058823148E+02  0.17770000000E+01 0. -1.
</event>
<event>
 7    1  0.5285153E-006  0.4779811E+03  0.7546771E-02  0.9450473E-01
        -11   -1    0    0    0    0  0.00000000000E+00  0.00000000000E+00  0.50000000000E+03  0.50000000000E+03  0.00000000000E+00 0. -1.
         11   -1    0    0    0    0 -0.00000000000E+00 -0.00000000000E+00 -0.50000000000E+03  0.50000000000E+03  0.00000000000E+00 0. -1.
         23    2    1    2    0    0 -0.12335912996E+03  0.10117523502E+03 -0.43873066781E+03  0.47886059702E+03  0.10662536929E+03 0.  0.
        -11    1    1    2    0    0  0.70882116312E+02 -0.11333581750E+03  0.44707270834E+03  0.46662971239E+03  0.00000000000E+00 0. -1.
         11    1    1    2    0    0  0.52477013649E+02  0.12160582484E+02 -0.83420405378E+01  0.54509690590E+02  0.00000000000E+00 0. -1.
        -15    1    3    3    0    0 -0.38786519173E+02 -0.11703443891E+02 -0.44757907914E+02  0.60396959512E+02  0.17770000000E+01 0.  1.
         15    1    3    3    0    0 -0.84572610788E+02  0.11287867891E+03 -0.39397275989E+03  0.41846363750E+03  0.17770000000E+01 0. -1.
</event>
<event>
 7    1  0.5285153E-006  0.3128320E+03  0.7546771E-02  0.9956090E-01
        -11   -1    0    0    0    0  0.00000000000E+00  0.00000000000E+00  0.50000000000E+03  0.50000000000E+03  0.00000000000E+00 0.  1.
         11   -1    0    0    0    0 -0.00000000000E+00 -0.00000000000E+00 -0.50000000000E+03  0.50000000000E+03  0.00000000000E+00 0.  1.
         23    2    1    2    0    0 -0.17130156242E+03  0.15088855064E+03 -0.22572200433E+03  0.33277241957E+03  0.87609816731E+02 0.  0.
        -11    1    1    2    0    0  0.12307525089E+02  0.90495044331E+02  0.34325978363E+03  0.35520150237E+03  0.00000000000E+00 0.  1.
         11    1    1    2    0    0  0.15899403733E+03 -0.24138359497E+03 -0.11753777930E+03  0.31202607806E+03  0.00000000000E+00 0.  1.
        -15    1    3    3    0    0 -0.10670674109E+03  0.13811377765E+03 -0.13499224119E+03  0.22065313749E+03  0.17770000000E+01 0.  1.
         15    1    3    3    0    0 -0.64594821328E+02  0.12774772988E+02 -0.90729763142E+02  0.11211928209E+03  0.17770000000E+01 0. -1.
</event>
<event>
 7    1  0.5285153E-006  0.5196445E+03  0.7546771E-02  0.9356896E-01
        -11   -1    0    0    0    0  0.00000000000E+00  0.00000000000E+00  0.50000000000E+03  0.50000000000E+03  0.00000000000E+00 0.  1.
         11   -1    0    0    0    0 -0.00000000000E+00 -0.00000000000E+00 -0.50000000000E+03  0.50000000000E+03  0.00000000000E+00 0. -1.
         23    2    1    2    0    0 -0.26193963804E+02 -0.87762852965E+02  0.15693899009E+03  0.20453656659E+03  0.93898447077E+02 0.  0.
        -11    1    1    2    0    0 -0.18953271894E+03 -0.73860164546E+02  0.24065548193E+03  0.31510797584E+03  0.00000000000E+00 0.  1.
         11    1    1    2    0    0  0.21572668275E+03  0.16162301751E+03 -0.39759447201E+03  0.48035545757E+03  0.00000000000E+00 0. -1.
        -15    1    3    3    0    0  0.11577750931E+02 -0.85888616483E+02  0.13598820189E+03  0.16126638689E+03  0.17770000000E+01 0.  1.
         15    1    3    3    0    0 -0.37771714736E+02 -0.18742364817E+01  0.20950788198E+02  0.43270179703E+02  0.17770000000E+01 0. -1.
</event>
<event>
 7    1  0.5285153E-006  0.4257728E+03  0.7546771E-02  0.9583173E-01
        -11   -1    0    0    0    0  0.00000000000E+00  0.00000000000E+00  0.50000000000E+03  0.50000000000E+03  0.00000000000E+00 0.  1.
         11   -1    0    0    0    0 -0.00000000000E+00 -0.00000000000E+00 -0.50000000000E+03  0.50000000000E+03  0.00000000000E+00 0.  1.
         23    2    1    2    0    0 -0.11604331178E+03  0.84484040317E+02 -0.35461506031E+03  0.39333284818E+03  0.91407249057E+02 0.  0.
        -11    1    1    2    0    0  0.20573596479E+03  0.15129194059E+02  0.41207497530E+03  0.46082747855E+03  0.00000000000E+00 0.  1.
         11    1    1    2    0    0 -0.89692653013E+02 -0.99613234376E+02 -0.57459914987E+02  0.14583967326E+03  0.00000000000E+00 0.  1.
        -15    1    3    3    0    0  0.48130956211E+01 -0.12958422147E+02 -0.42652185043E+02  0.44871518940E+02  0.17770000000E+01 0. -1.
         15    1    3    3    0    0 -0.12085640740E+03  0.97442462464E+02 -0.31196287527E+03  0.34846132924E+03  0.17770000000E+01 0.  1.
</event>
<event>
 7    1  0.5285153E-006  0.4589371E+03  0.7546771E-02  0.9496690E-01
        -11   -1    0    0    0    0  0.00000000000E+00  0.00000000000E+00  0.50000000000E+03  0.50000000000E+03  0.00000000000E+00 0. -1.
         11   -1    0    0    0    0 -0.00000000000E+00 -0.00000000000E+00 -0.50000000000E+03  0.50000000000E+03  0.00000000000E+00 0.  1.
         23    2    1    2    0    0 -0.22712774795E+00 -0.11199496175E+03 -0.42378708239E+03  0.44788136421E+03  0.91974464751E+02 0.  0.
        -11    1    1    2    0    0  0.56940498350E+02  0.55218408794E+02  0.45804567776E+03  0.46486249143E+03  0.00000000000E+00 0. -1.
         11    1    1    2    0    0 -0.56713370602E+02  0.56776552961E+02 -0.34258595376E+02  0.87256144358E+02  0.00000000000E+00 0.  1.
        -15    1    3    3    0    0  0.26851562760E+02 -0.26529429917E+01 -0.13928198250E+03  0.14188260255E+03  0.17770000000E+01 0.  1.
         15    1    3    3    0    0 -0.27078690508E+02 -0.10934201876E+03 -0.28450509988E+03  0.30599876166E+03  0.17770000000E+01 0. -1.
</event>
<event>
 7    1  0.5285153E-006  0.4278253E+03  0.7546771E-02  0.9577580E-01
        -11   -1    0    0    0    0  0.00000000000E+00  0.00000000000E+00  0.50000000000E+03  0.50000000000E+03  0.00000000000E+00 0.  1.
         11   -1    0    0    0    0 -0.00000000000E+00 -0.00000000000E+00 -0.50000000000E+03  0.50000000000E+03  0.00000000000E+00 0.  1.
         23    2    1    2    0    0  0.12799433491E+03  0.13665974311E+03 -0.33041670490E+03  0.39053980808E+03  0.91036847834E+02 0.  0.
        -11    1    1    2    0    0 -0.13651118752E+03 -0.51229356304E+02  0.44385804855E+03  0.46719344872E+03  0.00000000000E+00 0.  1.
         11    1    1    2    0    0  0.85168526142E+01 -0.85430386810E+02 -0.11344134365E+03  0.14226674319E+03  0.00000000000E+00 0.  1.
        -15    1    3    3    0    0  0.10531495439E+03  0.14566239614E+03 -0.31137972065E+03  0.35954034743E+03  0.17770000000E+01 0.  1.
         15    1    3    3    0    0  0.22679380522E+02 -0.90026530307E+01 -0.19036984248E+02  0.30999460652E+02  0.17770000000E+01 0. -1.
</event>
<event>
 7    1  0.5285153E-006  0.5298573E+03  0.7546771E-02  0.9335373E-01
        -11   -1    0    0    0    0  0.00000000000E+00  0.00000000000E+00  0.50000000000E+03  0.50000000000E+03  0.00000000000E+00 0.  1.
         11   -1    0    0    0    0 -0.00000000000E+00 -0.00000000000E+00 -0.50000000000E+03  0.50000000000E+03  0.00000000000E+00 0. -1.
         23    2    1    2    0    0 -0.83509610930E+02  0.12921686325E+03  0.19538866229E+03  0.26012633046E+03  0.76276638519E+02 0.  0.
        -11    1    1    2    0    0 -0.14483756307E+02 -0.68711772802E+02  0.26042989404E+03  0.26973100791E+03  0.00000000000E+00 0.  1.
         11    1    1    2    0    0  0.97993367237E+02 -0.60505090448E+02 -0.45581855633E+03  0.47014266163E+03  0.00000000000E+00 0. -1.
        -15    1    3    3    0    0  0.55801200277E+01  0.40995839639E+02  0.24325270133E+02  0.48027836754E+02  0.17770000000E+01 0.  1.
         15    1    3    3    0    0 -0.89089730958E+02  0.88221023611E+02  0.17106339215E+03  0.21209849371E+03  0.17770000000E+01 0. -1.
</event>
<event>
 7    1  0.5285153E-006  0.3573703E+03  0.7546771E-02  0.9791487E-01
        -11   -1    0    0    0    0  0.00000000000E+00  0.00000000000E+00  0.50000000000E+03  0.50000000000E+03  0.00000000000E+00 0. -1.
         11   -1    0    0    0    0 -0.00000000000E+00 -0.00000000000E+00 -0.50000000000E+03  0.50000000000E+03  0.00000000000E+00 0. -1.
         23    2    1    2    0    0  0.22420684416E+03  0.22515946325E+03 -0.23777928570E+03  0.40723185956E+03  0.91286942512E+02 0.  0.
        -11    1    1    2    0    0  0.42494866760E+02 -0.14911843695E+02  0.24893564514E+03  0.25297654477E+03  0.00000000000E+00 0. -1.
         11    1    1    2    0    0 -0.26670171092E+03 -0.21024761955E+03 -0.11156359440E+02  0.33979159568E+03  0.00000000000E+00 0. -1.
        -15    1    3    3    0    0  0.99041894783E+02  0.99564244288E+02 -0.16197229030E+03  0.21438403909E+03  0.17770000000E+01 0. -1.
         15    1    3    3    0    0  0.12516494938E+03  0.12559521896E+03 -0.75806995396E+02  0.19284782047E+03  0.17770000000E+01 0.  1.
</event>
<event>
 7    1  0.5285153E-006  0.5100275E+03  0.7546771E-02  0.9377648E-01
        -11   -1    0    0    0    0  0.00000000000E+00  0.00000000000E+00  0.50000000000E+03  0.50000000000E+03  0.00000000000E+00 0. -1.
         11   -1    0    0    0    0 -0.00000000000E+00 -0.00000000000E+00 -0.50000000000E+03  0.50000000000E+03  0.00000000000E+00 0.  1.
         23    2    1    2    0    0  0.10742598011E+03  0.15102023676E+03  0.28944202266E+03  0.35583004268E+03  0.92145980258E+02 0.  0.
        -11    1    1    2    0    0 -0.10578758207E+02  0.71195642380E+02  0.13636756918E+03  0.15419741744E+03  0.00000000000E+00 0. -1.
         11    1    1    2    0    0 -0.96847221905E+02 -0.22221587914E+03 -0.42580959184E+03  0.48997253988E+03  0.00000000000E+00 0.  1.
        -15    1    3    3    0    0  0.73767616961E+02  0.10320448320E+03  0.26223266711E+03  0.29131075520E+03  0.17770000000E+01 0. -1.
         15    1    3    3    0    0  0.33658363151E+02  0.47815753562E+02  0.27209355546E+02  0.64519287480E+02  0.17770000000E+01 0.  1.
</event>
<event>
 7    1  0.5285153E-006  0.3451587E+03  0.7546771E-02  0.9833945E-01
        -11   -1    0    0    0    0  0.00000000000E+00  0.00000000000E+00  0.50000000000E+03  0.50000000000E+03  0.00000000000E+00 0. -1.
         11   -1    0    0    0    0 -0.00000000000E+00 -0.00000000000E+00 -0.50000000000E+03  0.50000000000E+03  0.00000000000E+00 0. -1.
         23    2    1    2    0    0 -0.15831232533E+03  0.33143968459E+02 -0.29943052441E+03  0.35219408326E+03  0.90668177084E+02 0.  0.
        -11    1    1    2    0    0 -0.93069050940E+02  0.41564863950E+02  0.36377024153E+03  0.37778072315E+03  0.00000000000E+00 0. -1.
         11    1    1    2    0    0  0.25138137627E+03 -0.74708832408E+02 -0.64339717124E+02  0.27002519359E+03  0.00000000000E+00 0. -1.
        -15    1    3    3    0    0  0.35810279451E+00 -0.18315938379E+02 -0.25083992543E+02  0.31112155939E+02  0.17770000000E+01 0.  1.
         15    1    3    3    0    0 -0.15867042812E+03  0.51459906838E+02 -0.27434653187E+03  0.32108192732E+03  0.17770000000E+01 0. -1.
</event>
<event>
 7    1  0.6661518E-006  0.5185160E+03  0.7546771E-02  0.9359306E-01
        -11   -1    0    0    0    0  0.00000000000E+00  0.00000000000E+00  0.50000000000E+03  0.50000000000E+03  0.00000000000E+00 0.  1.
         11   -1    0    0    0    0 -0.00000000000E+00 -0.00000000000E+00 -0.50000000000E+03  0.50000000000E+03  0.00000000000E+00 0. -1.
         23    2    1    2    0    0 -0.12567812147E+03 -0.94385150426E+01  0.21367332835E+03  0.26758409462E+03  0.10030394141E+03 0.  0.
        -11    1    1    2    0    0 -0.21792918535E+03  0.14225912310E+02  0.12357720386E+03  0.25093192647E+03  0.00000000000E+00 0.  1.
         11    1    1    2    0    0  0.34360730683E+03 -0.47873972671E+01 -0.33725053221E+03  0.48148397891E+03  0.00000000000E+00 0. -1.
        -15    1    3    3    0    0 -0.78542266537E+02 -0.46803101691E+02  0.17065945870E+03  0.19361618356E+03  0.17770000000E+01 0.  1.
         15    1    3    3    0    0 -0.47135854937E+02  0.37364586649E+02  0.43013869641E+02  0.73967911060E+02  0.17770000000E+01 0. -1.
</event>
<event>
 7    1  0.5285153E-006  0.5293033E+03  0.7546771E-02  0.9336528E-01
        -11   -1    0    0    0    0  0.00000000000E+00  0.00000000000E+00  0.50000000000E+03  0.50000000000E+03  0.00000000000E+00 0. -1.
         11   -1    0    0    0    0 -0.00000000000E+00 -0.00000000000E+00 -0.50000000000E+03  0.50000000000E+03  0.00000000000E+00 0.  1.
         23    2    1    2    0    0 -0.17054730728E+03 -0.77530255690E+02  0.23279811607E+03  0.31509887154E+03  0.99975054056E+02 0.  0.
        -11    1    1    2    0    0  0.39429703956E+02 -0.12774823762E+02  0.21015622673E+03  0.21420442878E+03  0.00000000000E+00 0. -1.
         11    1    1    2    0    0  0.13111760332E+03  0.90305079453E+02 -0.44295434280E+03  0.47069669967E+03  0.00000000000E+00 0.  1.
        -15    1    3    3    0    0 -0.15449518694E+03 -0.38950319953E+02  0.21945083945E+03  0.27119682682E+03  0.17770000000E+01 0. -1.
         15    1    3    3    0    0 -0.16052120334E+02 -0.38579935737E+02  0.13347276627E+02  0.43902044725E+02  0.17770000000E+01 0.  1.
</event>
<event>
 7    1  0.5285153E-006  0.5078052E+03  0.7546771E-02  0.9382512E-01
        -11   -1    0    0    0    0  0.00000000000E+00  0.00000000000E+00  0.50000000000E+03  0.50000000000E+03  0.00000000000E+00 0.  1.
         11   -1    0    0    0    0 -0.00000000000E+00 -0.00000000000E+00 -0.50000000000E+03  0.50000000000E+03  0.00000000000E+00 0.  1.
         23    2    1    2    0    0  0.47091312387E+02  0.60601719920E+02 -0.36327138490E+03  0.37640750982E+03  0.61857531448E+02 0.  0.
        -11    1    1    2    0    0 -0.33183694451E+01 -0.80763520238E+02  0.48551206477E+03  0.49219480169E+03  0.00000000000E+00 0.  1.
         11    1    1    2    0    0 -0.43772942942E+02  0.20161800317E+02 -0.12224067987E+03  0.13139768849E+03  0.00000000000E+00 0.  1.
        -15    1    3    3    0    0 -0.13772315685E+02  0.19080829485E+02 -0.64532210341E+02  0.68711852206E+02  0.17770000000E+01 0. -1.
         15    1    3    3    0    0  0.60863628073E+02  0.41520890435E+02 -0.29873917456E+03  0.30769565761E+03  0.17770000000E+01 0.  1.
</event>
<event>
 7    1  0.5285153E-006  0.3992614E+03  0.7546771E-02  0.9658586E-01
        -11   -1    0    0    0    0  0.00000000000E+00  0.00000000000E+00  0.50000000000E+03  0.50000000000E+03  0.00000000000E+00 0.  1.
         11   -1    0    0    0    0 -0.00000000000E+00 -0.00000000000E+00 -0.50000000000E+03  0.50000000000E+03  0.00000000000E+00 0.  1.
         23    2    1    2    0    0 -0.97554455036E+01 -0.32530912295E+02 -0.34473909515E+03  0.35854500350E+03  0.92498901829E+02 0.  0.
        -11    1    1    2    0    0  0.17676839136E+03 -0.24052993055E+02  0.41493428715E+03  0.45165924468E+03  0.00000000000E+00 0.  1.
         11    1    1    2    0    0 -0.16701294585E+03  0.56583905350E+02 -0.70195191998E+02  0.18979575181E+03  0.00000000000E+00 0.  1.
        -15    1    3    3    0    0  0.35722356627E+02 -0.31520163012E+02 -0.11772829699E+03  0.12701463333E+03  0.17770000000E+01 0. -1.
         15    1    3    3    0    0 -0.45477802131E+02 -0.10107492830E+01 -0.22701079816E+03  0.23153037017E+03  0.17770000000E+01 0.  1.
</event>
<event>
 7    1  0.5285153E-006  0.3931343E+03  0.7546771E-02  0.9676907E-01
        -11   -1    0    0    0    0  0.00000000000E+00  0.00000000000E+00  0.50000000000E+03  0.50000000000E+03  0.00000000000E+00 0. -1.
         11   -1    0    0    0    0 -0.00000000000E+00 -0.00000000000E+00 -0.50000000000E+03  0.50000000000E+03  0.00000000000E+00 0.  1.
         23    2    1    2    0    0 -0.14422095419E+03  0.99306607751E+01  0.53752487324E+02  0.19874728189E+03  0.12535090951E+03 0.  0.
        -11    1    1    2    0    0  0.78130560848E+02  0.91980934492E+02  0.35493771152E+03  0.37489419295E+03  0.00000000000E+00 0. -1.
         11    1    1    2    0    0  0.66090393339E+02 -0.10191159527E+03 -0.40869019885E+03  0.42635852516E+03  0.00000000000E+00 0.  1.
        -15    1    3    3    0    0 -0.27560135377E+02  0.25569491597E+02  0.70428504225E+02  0.79854191492E+02  0.17770000000E+01 0. -1.
         15    1    3    3    0    0 -0.11666081881E+03 -0.15638830822E+02 -0.16676016901E+02  0.11889309039E+03  0.17770000000E+01 0.  1.
</event>
<event>
 7    1  0.5285153E-006  0.4611696E+03  0.7546771E-02  0.9491150E-01
        -11   -1    0    0    0    0  0.00000000000E+00  0.00000000000E+00  0.50000000000E+03  0.50000000000E+03  0.00000000000E+00 0.  1.
         11   -1    0    0    0    0 -0.00000000000E+00 -0.00000000000E+00 -0.50000000000E+03  0.50000000000E+03  0.00000000000E+00 0. -1.
         23    2    1    2    0    0 -0.38495165413E+02  0.87528111425E+02 -0.44106924514E+03  0.46048066026E+03  0.91418331918E+02 0.  0.
        -11    1    1    2    0    0  0.89713253976E+02 -0.22429760887E+02  0.44700981678E+03  0.45647490447E+03  0.00000000000E+00 0.  1.
         11    1    1    2    0    0 -0.51218088562E+02 -0.65098350539E+02 -0.59405716370E+01  0.83044435275E+02  0.00000000000E+00 0. -1.
        -15    1    3    3    0    0 -0.40617766341E+02  0.98431267234E+02 -0.43469637414E+03  0.44755179893E+03  0.17770000000E+01 0. -1.
         15    1    3    3    0    0  0.21226009277E+01 -0.10903155809E+02 -0.63728710056E+01  0.12928861324E+02  0.17770000000E+01 0.  1.
</event>
<event>
 7    1  0.5285153E-006  0.3340934E+03  0.7546771E-02  0.9874078E-01
        -11   -1    0    0    0    0  0.00000000000E+00  0.00000000000E+00  0.50000000000E+03  0.50000000000E+03  0.00000000000E+00 0.  1.
         11   -1    0    0    0    0 -0.00000000000E+00 -0.00000000000E+00 -0.50000000000E+03  0.50000000000E+03  0.00000000000E+00 0. -1.
         23    2    1    2    0    0  0.23643114121E+02  0.20504443828E+03 -0.18446594521E+03  0.29144436687E+03  0.91158738042E+02 0.  0.
        -11    1    1    2    0    0  0.12316033513E+03 -0.83275890860E+02  0.39644166650E+03  0.42340209858E+03  0.00000000000E+00 0.  1.
         11    1    1    2    0    0 -0.14680344925E+03 -0.12176854742E+03 -0.21197572128E+03  0.28515353455E+03  0.00000000000E+00 0. -1.
        -15    1    3    3    0    0 -0.24855855239E+02  0.50420149539E+02 -0.82929227795E+02  0.10020189405E+03  0.17770000000E+01 0.  1.
         15    1    3    3    0    0  0.48498969360E+02  0.15462428874E+03 -0.10153671742E+03  0.19124247282E+03  0.17770000000E+01 0. -1.
</event>
<event>
 7    1  0.5285153E-006  0.5229731E+03  0.7546771E-02  0.9349824E-01
        -11   -1    0    0    0    0  0.00000000000E+00  0.00000000000E+00  0.50000000000E+03  0.50000000000E+03  0.00000000000E+00 0. -1.
         11   -1    0    0    0    0 -0.00000000000E+00 -0.00000000000E+00 -0.50000000000E+03  0.50000000000E+03  0.00000000000E+00 0. -1.
         23    2    1    2    0    0 -0.25069727972E+01 -0.11764960891E+01  0.21640845355E+03  0.23476687795E+03  0.90968121671E+02 0.  0.
        -11    1    1    2    0    0 -0.55459533264E+02  0.17016394620E+03  0.22590112034E+03  0.28820625355E+03  0.00000000000E+00 0. -1.
         11    1    1    2    0    0  0.57966506061E+02 -0.16898745012E+03 -0.44230957388E+03  0.47702686850E+03  0.00000000000E+00 0. -1.
        -15    1    3    3    0    0  0.43124407852E+02 -0.86737309119E+01  0.90926610071E+02  0.10102353344E+03  0.17770000000E+01 0.  1.
         15    1    3    3    0    0 -0.45631380649E+02  0.74972348227E+01  0.12548184348E+03  0.13374334451E+03  0.17770000000E+01 0. -1.
</event>
<event>
 7    1  0.5285153E-006  0.5141598E+03  0.7546771E-02  0.9368672E-01
        -11   -1    0    0    0    0  0.00000000000E+00  0.00000000000E+00  0.50000000000E+03  0.50000000000E+03  0.00000000000E+00 0.  1.
         11   -1    0    0    0    0 -0.00000000000E+00 -0.00000000000E+00 -0.50000000000E+03  0.50000000000E+03  0.00000000000E+00 0. -1.
         23    2    1    2    0    0  0.18698659817E+03 -0.52393533038E+02  0.27512417984E+03  0.34856224864E+03  0.89962529142E+02 0.  0.
        -11    1    1    2    0    0  0.62644097513E+02  0.58638715985E+02  0.14163255350E+03  0.16559759110E+03  0.00000000000E+00 0.  1.
         11    1    1    2    0    0 -0.24963069568E+03 -0.62451829467E+01 -0.41675673334E+03  0.48584016026E+03  0.00000000000E+00 0. -1.
        -15    1    3    3    0    0  0.19615320840E+03 -0.47492350026E+02  0.24990988408E+03  0.32123155568E+03  0.17770000000E+01 0.  1.
         15    1    3    3    0    0 -0.91666102343E+01 -0.49011830124E+01  0.25214295757E+02  0.27330692959E+02  0.17770000000E+01 0. -1.
</event>
<event>
 7    1  0.5285153E-006  0.4680769E+03  0.7546771E-02  0.9474217E-01
        -11   -1    0    0    0    0  0.00000000000E+00  0.00000000000E+00  0.50000000000E+03  0.50000000000E+03  0.00000000000E+00 0. -1.
         11   -1    0    0    0    0 -0.00000000000E+00 -0.00000000000E+00 -0.50000000000E+03  0.50000000000E+03  0.00000000000E+00 0. -1.
         23    2    1    2    0    0 -0.93112905255E+02 -0.80753145606E+02 -0.46001325035E+03  0.48499639452E+03  0.91750904908E+02 0.  0.
        -11    1    1    2    0    0  0.10312455668E+03  0.16970286032E+02  0.43228179221E+03  0.44473611577E+03  0.00000000000E+00 0. -1.
         11    1    1    2    0    0 -0.10011651422E+02  0.63782859574E+02  0.27731458138E+02  0.70267489710E+02  0.00000000000E+00 0. -1.
        -15    1    3    3    0    0  0.13518810163E+02 -0.11595319629E+01 -0.14094427176E+02  0.19644677371E+02  0.17770000000E+01 0.  1.
         15    1    3    3    0    0 -0.10663171542E+03 -0.79593613643E+02 -0.44591882317E+03  0.46535171715E+03  0.17770000000E+01 0. -1.
</event>
<event>
 7    1  0.5285153E-006  0.5074585E+03  0.7546771E-02  0.9383274E-01
        -11   -1    0    0    0    0  0.00000000000E+00  0.00000000000E+00  0.50000000000E+03  0.50000000000E+03  0.00000000000E+00 0. -1.
         11   -1    0    0    0    0 -0.00000000000E+00 -0.00000000000E+00 -0.50000000000E+03  0.50000000000E+03  0.00000000000E+00 0.  1.
         23    2    1    2    0    0 -0.44010043912E+02  0.10071350800E+03  0.32057737791E+03  0.35296361822E+03  0.98657822304E+02 0.  0.
        -11    1    1    2    0    0 -0.15684412824E+02  0.27566104870E+02  0.15120440957E+03  0.15449486857E+03  0.00000000000E+00 0. -1.
         11    1    1    2    0    0  0.59694456736E+02 -0.12827961287E+03 -0.47178178747E+03  0.49254151321E+03  0.00000000000E+00 0.  1.
        -15    1    3    3    0    0 -0.30031222251E+02  0.11675199871E+03  0.22754172212E+03  0.25750979893E+03  0.17770000000E+01 0. -1.
         15    1    3    3    0    0 -0.13978821662E+02 -0.16038490712E+02  0.93035655789E+02  0.95453819287E+02  0.17770000000E+01 0.  1.
</event>
<event>
 7    1  0.5285153E-006  0.5140421E+03  0.7546771E-02  0.9368926E-01
        -11   -1    0    0    0    0  0.00000000000E+00  0.00000000000E+00  0.50000000000E+03  0.50000000000E+03  0.00000000000E+00 0.  1.
         11   -1    0    0    0    0 -0.00000000000E+00 -0.00000000000E+00 -0.50000000000E+03  0.50000000000E+03  0.00000000000E+00 0. -1.
         23    2    1    2    0    0  0.48186332366E+02  0.46314854030E+02 -0.29907591828E+03  0.31966513972E+03  0.90952780761E+02 0.  0.
        -11    1    1    2    0    0 -0.15707641001E+03 -0.11229228866E+03  0.44595120594E+03  0.48595785286E+03  0.00000000000E+00 0.  1.
         11    1    1    2    0    0  0.10889007764E+03  0.65977434630E+02 -0.14687528766E+03  0.19437700742E+03  0.00000000000E+00 0. -1.
        -15    1    3    3    0    0  0.49109242699E+02 -0.28586644553E-01 -0.23772945561E+03  0.24275537137E+03  0.17770000000E+01 0. -1.
         15    1    3    3    0    0 -0.92291033236E+00  0.46343440674E+02 -0.61346462676E+02  0.76909768358E+02  0.17770000000E+01 0.  1.
</event>
<event>
 7    1  0.5285153E-006  0.4328908E+03  0.7546771E-02  0.9563919E-01
        -11   -1    0    0    0    0  0.00000000000E+00  0.00000000000E+00  0.50000000000E+03  0.50000000000E+03  0.00000000000E+00 0.  1.
         11   -1    0    0    0    0 -0.00000000000E+00 -0.00000000000E+00 -0.50000000000E+03  0.50000000000E+03  0.00000000000E+00 0. -1.
         23    2    1    2    0    0 -0.31719562521E+02  0.37558663789E+02 -0.15074293629E+02  0.13269271323E+03  0.12232472336E+03 0.  0.
        -11    1    1    2    0    0 -0.13060145729E+03 -0.23599685569E+02  0.41487494339E+03  0.43558570277E+03  0.00000000000E+00 0.  1.
         11    1    1    2    0    0  0.16232101981E+03 -0.13958978219E+02 -0.39980064976E+03  0.43172158400E+03  0.00000000000E+00 0. -1.
        -15    1    3    3    0    0  0.48036000941E+01 -0.38767449333E+02  0.16389668642E+02  0.42400102227E+02  0.17770000000E+01 0.  1.
         15    1    3    3    0    0 -0.36523162615E+02  0.76326113122E+02 -0.31463962271E+02  0.90292611007E+02  0.17770000000E+01 0. -1.
</event>
<event>
 7    1  0.5285153E-006  0.5162532E+03  0.7546771E-02  0.9364159E-01
        -11   -1    0    0    0    0  0.00000000000E+00  0.00000000000E+00  0.50000000000E+03  0.50000000000E+03  0.00000000000E+00 0. -1.
         11   -1    0    0    0    0 -0.00000000000E+00 -0.00000000000E+00 -0.50000000000E+03  0.50000000000E+03  0.00000000000E+00 0. -1.
         23    2    1    2    0    0  0.18529816543E+02 -0.13226372908E+03 -0.39601795566E+03  0.42635110504E+03  0.84308928550E+02 0.  0.
        -11    1    1    2    0    0 -0.46990737183E+02  0.93948344184E+02  0.47220390011E+03  0.48374677677E+03  0.00000000000E+00 0. -1.
         11    1    1    2    0    0  0.28460920641E+02  0.38315384894E+02 -0.76185944448E+02  0.89902118188E+02  0.00000000000E+00 0. -1.
        -15    1    3    3    0    0  0.41331899885E+02 -0.12799605503E+03 -0.33056912158E+03  0.35688992410E+03  0.17770000000E+01 0. -1.
         15    1    3    3    0    0 -0.22802083342E+02 -0.42676740485E+01 -0.65448834082E+02  0.69461180945E+02  0.17770000000E+01 0.  1.
</event>
<event>
 7    1  0.5285153E-006  0.4413521E+03  0.7546771E-02  0.9541539E-01
        -11   -1    0    0    0    0  0.00000000000E+00  0.00000000000E+00  0.50000000000E+03  0.50000000000E+03  0.00000000000E+00 0.  1.
         11   -1    0    0    0    0 -0.00000000000E+00 -0.00000000000E+00 -0.50000000000E+03  0.50000000000E+03  0.00000000000E+00 0. -1.
         23    2    1    2    0    0  0.14968540479E+02 -0.46297570233E+02  0.51368115064E+02  0.11446453779E+03  0.89977358007E+02 0.  0.
        -11    1    1    2    0    0 -0.33022073346E+03  0.13094329030E+03  0.25545728317E+03  0.43755034180E+03  0.00000000000E+00 0.  1.
         11    1    1    2    0    0  0.31525219298E+03 -0.84645720067E+02 -0.30682539824E+03  0.44798512041E+03  0.00000000000E+00 0. -1.
        -15    1    3    3    0    0  0.40926592102E+02 -0.52221524509E+02  0.12847354458E+02  0.67603889006E+02  0.17770000000E+01 0.  1.
         15    1    3    3    0    0 -0.25958051622E+02  0.59239542769E+01  0.38520760605E+02  0.46860648789E+02  0.17770000000E+01 0. -1.
</event>
<event>
 7    1  0.5285153E-006  0.5133452E+03  0.7546771E-02  0.9370434E-01
        -11   -1    0    0    0    0  0.00000000000E+00  0.00000000000E+00  0.50000000000E+03  0.50000000000E+03  0.00000000000E+00 0. -1.
         11   -1    0    0    0    0 -0.00000000000E+00 -0.00000000000E+00 -0.50000000000E+03  0.50000000000E+03  0.00000000000E+00 0.  1.
         23    2    1    2    0    0 -0.13363868421E+03 -0.21461233763E+02  0.26474365097E+03  0.31115236184E+03  0.91688107597E+02 0.  0.
        -11    1    1    2    0    0 -0.39460914627E+02  0.62367406928E+02  0.18824210757E+03  0.20219284926E+03  0.00000000000E+00 0. -1.
         11    1    1    2    0    0  0.17309959883E+03 -0.40906173165E+02 -0.45298575854E+03  0.48665478890E+03  0.00000000000E+00 0.  1.
        -15    1    3    3    0    0 -0.27698874549E+02  0.18491511266E+02  0.13446626854E+03  0.13854060323E+03  0.17770000000E+01 0.  1.
         15    1    3    3    0    0 -0.10593980966E+03 -0.39952745029E+02  0.13027738243E+03  0.17261175860E+03  0.17770000000E+01 0. -1.
</event>
<event>
 7    1  0.5285153E-006  0.5097252E+03  0.7546771E-02  0.9378308E-01
        -11   -1    0    0    0    0  0.00000000000E+00  0.00000000000E+00  0.50000000000E+03  0.50000000000E+03  0.00000000000E+00 0. -1.
         11   -1    0    0    0    0 -0.00000000000E+00 -0.00000000000E+00 -0.50000000000E+03  0.50000000000E+03  0.00000000000E+00 0. -1.
         23    2    1    2    0    0  0.23293829953E+02 -0.14060792882E+03  0.22722519688E+03  0.28432896784E+03  0.94331753388E+02 0.  0.
        -11    1    1    2    0    0 -0.35754480533E+01 -0.75970016097E+02  0.21217733586E+03  0.22539620455E+03  0.00000000000E+00 0. -1.
         11    1    1    2    0    0 -0.19718381900E+02  0.21657794492E+03 -0.43940253273E+03  0.49027482761E+03  0.00000000000E+00 0. -1.
        -15    1    3    3    0    0  0.30980572281E+01 -0.85826955289E+02  0.53865175313E+02  0.10139269724E+03  0.17770000000E+01 0.  1.
         15    1    3    3    0    0  0.20195772725E+02 -0.54780973534E+02  0.17336002156E+03  0.18293627060E+03  0.17770000000E+01 0. -1.
</event>
<event>
 7    1  0.5285153E-006  0.5235127E+03  0.7546771E-02  0.9348683E-01
        -11   -1    0    0    0    0  0.00000000000E+00  0.00000000000E+00  0.50000000000E+03  0.50000000000E+03  0.00000000000E+00 0.  1.
         11   -1    0    0    0    0 -0.00000000000E+00 -0.00000000000E+00 -0.50000000000E+03  0.50000000000E+03  0.00000000000E+00 0. -1.
         23    2    1    2    0    0 -0.16902704573E+03  0.55531025445E+02  0.27310818471E+03  0.33828215829E+03  0.90514645673E+02 0.  0.
        -11    1    1    2    0    0  0.35191314348E+02 -0.77334999265E+01  0.18169236875E+03  0.18523053876E+03  0.00000000000E+00 0.  1.
         11    1    1    2    0    0  0.13383573138E+03 -0.47797525518E+02 -0.45480055347E+03  0.47648730295E+03  0.00000000000E+00 0. -1.
        -15    1    3    3    0    0 -0.44058689471E+02  0.58402853289E+02  0.81878267372E+02  0.10981470661E+03  0.17770000000E+01 0. -1.
         15    1    3    3    0    0 -0.12496835626E+03 -0.28718278441E+01  0.19122991734E+03  0.22846745168E+03  0.17770000000E+01 0.  1.
</event>
<event>
 7    1  0.5285153E-006  0.4710302E+03  0.7546771E-02  0.9467072E-01
        -11   -1    0    0    0    0  0.00000000000E+00  0.00000000000E+00  0.50000000000E+03  0.50000000000E+03  0.00000000000E+00 0.  1.
         11   -1    0    0    0    0 -0.00000000000E+00 -0.00000000000E+00 -0.50000000000E+03  0.50000000000E+03  0.00000000000E+00 0. -1.
         23    2    1    2    0    0  0.25207231767E+02  0.15917567962E+03  0.41296037710E+03  0.45150487981E+03  0.85720953823E+02 0.  0.
        -11    1    1    2    0    0  0.27723713208E+02 -0.27004629203E+02  0.50519401304E+02  0.63640114555E+02  0.00000000000E+00 0.  1.
         11    1    1    2    0    0 -0.52930944975E+02 -0.13217105042E+03 -0.46347977840E+03  0.48485500564E+03  0.00000000000E+00 0. -1.
        -15    1    3    3    0    0  0.21342944292E+02  0.10496878066E+03  0.15856423524E+03  0.19136285066E+03  0.17770000000E+01 0.  1.
         15    1    3    3    0    0  0.38642874744E+01  0.54206898959E+02  0.25439614185E+03  0.26014202915E+03  0.17770000000E+01 0. -1.
</event>
<event>
 7    1  0.5285153E-006  0.5220918E+03  0.7546771E-02  0.9351691E-01
        -11   -1    0    0    0    0  0.00000000000E+00  0.00000000000E+00  0.50000000000E+03  0.50000000000E+03  0.00000000000E+00 0. -1.
         11   -1    0    0    0    0 -0.00000000000E+00 -0.00000000000E+00 -0.50000000000E+03  0.50000000000E+03  0.00000000000E+00 0. -1.
         23    2    1    2    0    0  0.77100906022E+02 -0.10049223982E+03  0.37443591607E+03  0.40547214851E+03  0.90344717607E+02 0.  0.
        -11    1    1    2    0    0 -0.73471182287E+02 -0.14735974311E+02  0.89358757149E+02  0.11661968549E+03  0.00000000000E+00 0. -1.
         11    1    1    2    0    0 -0.36297237355E+01  0.11522821413E+03 -0.46379467322E+03  0.47790816600E+03  0.00000000000E+00 0. -1.
        -15    1    3    3    0    0  0.69736856381E+02 -0.52426197122E+02  0.13224377271E+03  0.15844023615E+03  0.17770000000E+01 0.  1.
         15    1    3    3    0    0  0.73640496407E+01 -0.48066042695E+02  0.24219214336E+03  0.24703191235E+03  0.17770000000E+01 0. -1.
</event>
<event>
 7    1  0.5285153E-006  0.4254312E+03  0.7546771E-02  0.9584107E-01
        -11   -1    0    0    0    0  0.00000000000E+00  0.00000000000E+00  0.50000000000E+03  0.50000000000E+03  0.00000000000E+00 0. -1.
         11   -1    0    0    0    0 -0.00000000000E+00 -0.00000000000E+00 -0.50000000000E+03  0.50000000000E+03  0.00000000000E+00 0.  1.
         23    2    1    2    0    0  0.62070598812E+02  0.86647771542E+02 -0.21599988827E+02  0.14221558407E+03  0.91641242264E+02 0.  0.
        -11    1    1    2    0    0 -0.17183714399E+03 -0.61849460326E+02  0.41244044985E+03  0.45106594248E+03  0.00000000000E+00 0. -1.
         11    1    1    2    0    0  0.10976654518E+03 -0.24798311215E+02 -0.39084046102E+03  0.40671847345E+03  0.00000000000E+00 0.  1.
        -15    1    3    3    0    0 -0.29149215347E+01 -0.17468375445E+02 -0.19126496461E+01  0.17901309056E+02  0.17770000000E+01 0.  1.
         15    1    3    3    0    0  0.64985520347E+02  0.10411614699E+03 -0.19687339181E+02  0.12431427501E+03  0.17770000000E+01 0. -1.
</event>
<event>
 6    1  0.5285153E-006  0.3349660E+03  0.7546771E-02  0.9870852E-01
        -11   -1    0    0    0    0  0.00000000000E+00  0.00000000000E+00  0.50000000000E+03  0.50000000000E+03  0.00000000000E+00 0.  1.
         11   -1    0    0    0    0 -0.00000000000E+00 -0.00000000000E+00 -0.50000000000E+03  0.50000000000E+03  0.00000000000E+00 0. -1.
        -11    1    1    2    0    0  0.47490786366E+02 -0.52473735212E+02  0.29476111398E+03  0.30313855247E+03  0.00000000000E+00 0.  1.
         11    1    1    2    0    0 -0.14229673069E+03 -0.24212537839E+03 -0.14787937317E+03  0.31739780629E+03  0.00000000000E+00 0. -1.
        -15    1    1    2    0    0  0.12209072031E+03  0.29720052004E+03 -0.14312562712E+03  0.35174194514E+03  0.17770000000E+01 0.  1.
         15    1    1    2    0    0 -0.27284775984E+02 -0.26014064429E+01 -0.37561136888E+01  0.27721696106E+02  0.17770000000E+01 0. -1.
</event>
<event>
 7    1  0.5285153E-006  0.4783081E+03  0.7546771E-02  0.9449699E-01
        -11   -1    0    0    0    0  0.00000000000E+00  0.00000000000E+00  0.50000000000E+03  0.50000000000E+03  0.00000000000E+00 0.  1.
         11   -1    0    0    0    0 -0.00000000000E+00 -0.00000000000E+00 -0.50000000000E+03  0.50000000000E+03  0.00000000000E+00 0. -1.
         23    2    1    2    0    0  0.19436474642E+03 -0.15137547411E+03  0.39260817787E+03  0.47035387734E+03  0.79996248547E+02 0.  0.
        -11    1    1    2    0    0  0.22931523777E+02  0.37731162708E+02  0.20935009823E+02  0.48864814114E+02  0.00000000000E+00 0.  1.
         11    1    1    2    0    0 -0.21729627020E+03  0.11364431140E+03 -0.41354318770E+03  0.48078130855E+03  0.00000000000E+00 0. -1.
        -15    1    3    3    0    0  0.12776153209E+03 -0.14003727436E+03  0.31294555886E+03  0.36588458266E+03  0.17770000000E+01 0. -1.
         15    1    3    3    0    0  0.66603214333E+02 -0.11338199749E+02  0.79662619018E+02  0.10446929468E+03  0.17770000000E+01 0.  1.
</event>
<event>
 7    1  0.5285153E-006  0.4587630E+03  0.7546771E-02  0.9497124E-01
        -11   -1    0    0    0    0  0.00000000000E+00  0.00000000000E+00  0.50000000000E+03  0.50000000000E+03  0.00000000000E+00 0.  1.
         11   -1    0    0    0    0 -0.00000000000E+00 -0.00000000000E+00 -0.50000000000E+03  0.50000000000E+03  0.00000000000E+00 0. -1.
         23    2    1    2    0    0 -0.18215095091E+03  0.26891999443E+03 -0.25482662819E+03  0.42280075907E+03  0.91252063611E+02 0.  0.
        -11    1    1    2    0    0  0.17566216146E+03 -0.33894885599E+03  0.30678767128E+03  0.48975728396E+03  0.00000000000E+00 0.  1.
         11    1    1    2    0    0  0.64887894474E+01  0.70028861559E+02 -0.51961043094E+02  0.87441956973E+02  0.00000000000E+00 0. -1.
        -15    1    3    3    0    0 -0.13475238797E+03  0.21306100110E+03 -0.23991914230E+03  0.34801946616E+03  0.17770000000E+01 0.  1.
         15    1    3    3    0    0 -0.47398562941E+02  0.55858993323E+02 -0.14907485882E+02  0.74781292903E+02  0.17770000000E+01 0. -1.
</event>
<event>
 7    1  0.5285153E-006  0.5274125E+03  0.7546771E-02  0.9340478E-01
        -11   -1    0    0    0    0  0.00000000000E+00  0.00000000000E+00  0.50000000000E+03  0.50000000000E+03  0.00000000000E+00 0.  1.
         11   -1    0    0    0    0 -0.00000000000E+00 -0.00000000000E+00 -0.50000000000E+03  0.50000000000E+03  0.00000000000E+00 0. -1.
         23    2    1    2    0    0 -0.58639472419E+01 -0.52337770497E+02  0.69579930274E+02  0.12614671795E+03  0.91093356807E+02 0.  0.
        -11    1    1    2    0    0  0.94647767770E+02 -0.15254616064E+02  0.38964512370E+03  0.40126577935E+03  0.00000000000E+00 0.  1.
         11    1    1    2    0    0 -0.88783820528E+02  0.67592386561E+02 -0.45922505398E+03  0.47258750270E+03  0.00000000000E+00 0. -1.
        -15    1    3    3    0    0 -0.41904082555E+02 -0.52798702494E+02  0.34190455801E+02  0.75602910769E+02  0.17770000000E+01 0. -1.
         15    1    3    3    0    0  0.36040135313E+02  0.46093199657E+00  0.35389474474E+02  0.50543807180E+02  0.17770000000E+01 0.  1.
</event>
<event>
 7    1  0.5285153E-006  0.4208726E+03  0.7546771E-02  0.9596663E-01
        -11   -1    0    0    0    0  0.00000000000E+00  0.00000000000E+00  0.50000000000E+03  0.50000000000E+03  0.00000000000E+00 0.  1.
         11   -1    0    0    0    0 -0.00000000000E+00 -0.00000000000E+00 -0.50000000000E+03  0.50000000000E+03  0.00000000000E+00 0. -1.
         23    2    1    2    0    0 -0.56490069640E+02 -0.40641128096E+02 -0.10005639538E+03  0.14947711003E+03  0.86540712407E+02 0.  0.
        -11    1    1    2    0    0 -0.13604250939E+03 -0.12609318569E+03  0.40961331757E+03  0.44965556348E+03  0.00000000000E+00 0.  1.
         11    1    1    2    0    0  0.19253257903E+03  0.16673431378E+03 -0.30955692218E+03  0.40086732650E+03  0.00000000000E+00 0. -1.
        -15    1    3    3    0    0 -0.65434198918E+02 -0.21033749200E+01 -0.37583871472E+02  0.75510023824E+02  0.17770000000E+01 0. -1.
         15    1    3    3    0    0  0.89441292779E+01 -0.38537753176E+02 -0.62472523910E+02  0.73967086202E+02  0.17770000000E+01 0.  1.
</event>
<event>
 7    1  0.5285153E-006  0.5147109E+03  0.7546771E-02  0.9367481E-01
        -11   -1    0    0    0    0  0.00000000000E+00  0.00000000000E+00  0.50000000000E+03  0.50000000000E+03  0.00000000000E+00 0. -1.
         11   -1    0    0    0    0 -0.00000000000E+00 -0.00000000000E+00 -0.50000000000E+03  0.50000000000E+03  0.00000000000E+00 0. -1.
         23    2    1    2    0    0  0.12048447535E+00 -0.70701826163E+02  0.24861986956E+03  0.27384764014E+03  0.90454008907E+02 0.  0.
        -11    1    1    2    0    0  0.10758053245E+03 -0.34513812433E+02  0.21272128005E+03  0.24086327490E+03  0.00000000000E+00 0. -1.
         11    1    1    2    0    0 -0.10770101693E+03  0.10521563860E+03 -0.46134114961E+03  0.48528908496E+03  0.00000000000E+00 0. -1.
        -15    1    3    3    0    0  0.30829211573E+02 -0.69432945511E+01  0.28384155598E+02  0.42514322804E+02  0.17770000000E+01 0.  1.
         15    1    3    3    0    0 -0.30708727098E+02 -0.63758531612E+02  0.22023571397E+03  0.23133331733E+03  0.17770000000E+01 0. -1.
</event>
<event>
 7    1  0.5285153E-006  0.4831373E+03  0.7546771E-02  0.9438352E-01
        -11   -1    0    0    0    0  0.00000000000E+00  0.00000000000E+00  0.50000000000E+03  0.50000000000E+03  0.00000000000E+00 0. -1.
         11   -1    0    0    0    0 -0.00000000000E+00 -0.00000000000E+00 -0.50000000000E+03  0.50000000000E+03  0.00000000000E+00 0.  1.
         23    2    1    2    0    0  0.44958965369E+02  0.13840829078E+03 -0.43863883093E+03  0.47101864023E+03  0.90974567442E+02 0.  0.
        -11    1    1    2    0    0 -0.43673687859E+02 -0.11383331078E+03  0.47201860277E+03  0.48751099989E+03  0.00000000000E+00 0. -1.
         11    1    1    2    0    0 -0.12852775099E+01 -0.24574980004E+02 -0.33379771840E+02  0.41470359880E+02  0.00000000000E+00 0.  1.
        -15    1    3    3    0    0  0.47000284805E+01 -0.13295556937E+02 -0.27960830215E+02  0.31366030308E+02  0.17770000000E+01 0. -1.
         15    1    3    3    0    0  0.40258936889E+02  0.15170384772E+03 -0.41067800071E+03  0.43965260992E+03  0.17770000000E+01 0.  1.
</event>
<event>
 7    1  0.5285153E-006  0.3303891E+03  0.7546771E-02  0.9887887E-01
        -11   -1    0    0    0    0  0.00000000000E+00  0.00000000000E+00  0.50000000000E+03  0.50000000000E+03  0.00000000000E+00 0. -1.
         11   -1    0    0    0    0 -0.00000000000E+00 -0.00000000000E+00 -0.50000000000E+03  0.50000000000E+03  0.00000000000E+00 0.  1.
         23    2    1    2    0    0  0.19463515172E+03 -0.13652432212E+03  0.11593575686E+03  0.28824811144E+03  0.11456064429E+03 0.  0.
        -11    1    1    2    0    0 -0.73908178796E+02  0.97969929430E+02  0.27481041435E+03  0.30096725703E+03  0.00000000000E+00 0. -1.
         11    1    1    2    0    0 -0.12072697292E+03  0.38554392690E+02 -0.39074617121E+03  0.41078463153E+03  0.00000000000E+00 0.  1.
        -15    1    3    3    0    0  0.25092070370E+02 -0.81580683964E+02  0.31144355143E+02  0.90874355996E+02  0.17770000000E+01 0. -1.
         15    1    3    3    0    0  0.16954308134E+03 -0.54943638156E+02  0.84791401714E+02  0.19737375545E+03  0.17770000000E+01 0.  1.
</event>
<event>
 7    1  0.5285153E-006  0.5119844E+03  0.7546771E-02  0.9373386E-01
        -11   -1    0    0    0    0  0.00000000000E+00  0.00000000000E+00  0.50000000000E+03  0.50000000000E+03  0.00000000000E+00 0. -1.
         11   -1    0    0    0    0 -0.00000000000E+00 -0.00000000000E+00 -0.50000000000E+03  0.50000000000E+03  0.00000000000E+00 0. -1.
         23    2    1    2    0    0 -0.33589341860E+00  0.46375076178E+02  0.22004720596E+03  0.24264425936E+03  0.91130144513E+02 0.  0.
        -11    1    1    2    0    0 -0.75088754060E+02  0.91070616431E+02  0.24209895987E+03  0.26934009084E+03  0.00000000000E+00 0. -1.
         11    1    1    2    0    0  0.75424647478E+02 -0.13744569261E+03 -0.46214616582E+03  0.48801564980E+03  0.00000000000E+00 0. -1.
        -15    1    3    3    0    0  0.24885787549E+02  0.65751518759E+02  0.14719587551E+03  0.16313291556E+03  0.17770000000E+01 0. -1.
         15    1    3    3    0    0 -0.25221680967E+02 -0.19376442581E+02  0.72851330442E+02  0.79511343808E+02  0.17770000000E+01 0.  1.
</event>
<event>
 7    1  0.5285153E-006  0.5090612E+03  0.7546771E-02  0.9379760E-01
        -11   -1    0    0    0    0  0.00000000000E+00  0.00000000000E+00  0.50000000000E+03  0.50000000000E+03  0.00000000000E+00 0. -1.
         11   -1    0    0    0    0 -0.00000000000E+00 -0.00000000000E+00 -0.50000000000E+03  0.50000000000E+03  0.00000000000E+00 0.  1.
         23    2    1    2    0    0  0.35877920337E+02  0.26705016221E+02 -0.29377799168E+03  0.31126401260E+03  0.92625018686E+02 0.  0.
        -11    1    1    2    0    0 -0.45415980976E+02 -0.92905849782E+02  0.47992369140E+03  0.49093875160E+03  0.00000000000E+00 0. -1.
         11    1    1    2    0    0  0.95380606391E+01  0.66200833561E+02 -0.18614569972E+03  0.19779723580E+03  0.00000000000E+00 0.  1.
        -15    1    3    3    0    0  0.50354312572E+02 -0.82544577106E+01 -0.24069907032E+03  0.24605465460E+03  0.17770000000E+01 0.  1.
         15    1    3    3    0    0 -0.14476392235E+02  0.34959473932E+02 -0.53078921360E+02  0.65209358005E+02  0.17770000000E+01 0. -1.
</event>
<event>
 7    1  0.5285153E-006  0.5156691E+03  0.7546771E-02  0.9365416E-01
        -11   -1    0    0    0    0  0.00000000000E+00  0.00000000000E+00  0.50000000000E+03  0.50000000000E+03  0.00000000000E+00 0. -1.
         11   -1    0    0    0    0 -0.00000000000E+00 -0.00000000000E+00 -0.50000000000E+03  0.50000000000E+03  0.00000000000E+00 0. -1.
         23    2    1    2    0    0  0.10665779578E+03  0.62392791659E+01  0.22820429270E+03  0.26868691424E+03  0.93277246269E+02 0.  0.
        -11    1    1    2    0    0 -0.72354824700E+01  0.40931776464E+02  0.24345929181E+03  0.24698216393E+03  0.00000000000E+00 0. -1.
         11    1    1    2    0    0 -0.99422313314E+02 -0.47171055630E+02 -0.47166358452E+03  0.48433092182E+03  0.00000000000E+00 0. -1.
        -15    1    3    3    0    0  0.56348194868E+02 -0.38484730759E+02  0.75428190064E+02  0.10172887079E+03  0.17770000000E+01 0.  1.
         15    1    3    3    0    0  0.50309600917E+02  0.44724009924E+02  0.15277610264E+03  0.16695804345E+03  0.17770000000E+01 0. -1.
</event>
<event>
 7    1  0.5285153E-006  0.4359721E+03  0.7546771E-02  0.9555706E-01
        -11   -1    0    0    0    0  0.00000000000E+00  0.00000000000E+00  0.50000000000E+03  0.50000000000E+03  0.00000000000E+00 0.  1.
         11   -1    0    0    0    0 -0.00000000000E+00 -0.00000000000E+00 -0.50000000000E+03  0.50000000000E+03  0.00000000000E+00 0. -1.
         23    2    1    2    0    0  0.18560611277E+02 -0.18901016622E+03 -0.41256785279E+03  0.46344251644E+03  0.92181308653E+02 0.  0.
        -11    1    1    2    0    0 -0.11597508091E+03  0.11470556846E+03  0.37414271729E+03  0.40815482323E+03  0.00000000000E+00 0.  1.
         11    1    1    2    0    0  0.97414469636E+02  0.74304597757E+02  0.38425135500E+02  0.12840266033E+03  0.00000000000E+00 0. -1.
        -15    1    3    3    0    0  0.41717411402E+02 -0.94770964075E+02 -0.14022823389E+03  0.17432439117E+03  0.17770000000E+01 0.  1.
         15    1    3    3    0    0 -0.23156800125E+02 -0.94239202143E+02 -0.27233961889E+03  0.28911812527E+03  0.17770000000E+01 0. -1.
</event>
<event>
 7    1  0.5285153E-006  0.3980970E+03  0.7546771E-02  0.9662040E-01
        -11   -1    0    0    0    0  0.00000000000E+00  0.00000000000E+00  0.50000000000E+03  0.50000000000E+03  0.00000000000E+00 0. -1.
         11   -1    0    0    0    0 -0.00000000000E+00 -0.00000000000E+00 -0.50000000000E+03  0.50000000000E+03  0.00000000000E+00 0.  1.
         23    2    1    2    0    0 -0.31646659905E+03 -0.86481875959E+02  0.98916674519E+02  0.35463920631E+03  0.91401504176E+02 0.  0.
        -11    1    1    2    0    0 -0.98360266369E+02  0.14585476439E+03  0.75525503313E+02  0.19144831142E+03  0.00000000000E+00 0. -1.
         11    1    1    2    0    0  0.41482686542E+03 -0.59372888428E+02 -0.17444217783E+03  0.45391248227E+03  0.00000000000E+00 0.  1.
        -15    1    3    3    0    0 -0.24116999902E+03 -0.66410487409E+02  0.32540450269E+02  0.25226050008E+03  0.17770000000E+01 0. -1.
         15    1    3    3    0    0 -0.75296600033E+02 -0.20071388550E+02  0.66376224250E+02  0.10237870623E+03  0.17770000000E+01 0.  1.
</event>
<event>
 7    1  0.5285153E-006  0.5235889E+03  0.7546771E-02  0.9348522E-01
        -11   -1    0    0    0    0  0.00000000000E+00  0.00000000000E+00  0.50000000000E+03  0.50000000000E+03  0.00000000000E+00 0. -1.
         11   -1    0    0    0    0 -0.00000000000E+00 -0.00000000000E+00 -0.50000000000E+03  0.50000000000E+03  0.00000000000E+00 0.  1.
         23    2    1    2    0    0 -0.12620972240E+03 -0.86888577197E+02  0.48041970323E+02  0.18402162632E+03  0.89874407739E+02 0.  0.
        -11    1    1    2    0    0 -0.82934998351E+02 -0.30477414573E+03  0.12466117567E+03  0.33956722836E+03  0.00000000000E+00 0. -1.
         11    1    1    2    0    0  0.20914472075E+03  0.39166272293E+03 -0.17270314599E+03  0.47641114532E+03  0.00000000000E+00 0.  1.
        -15    1    3    3    0    0 -0.26117851715E+02 -0.65450736342E+02 -0.10115157364E+01  0.70499091902E+02  0.17770000000E+01 0.  1.
         15    1    3    3    0    0 -0.10009187068E+03 -0.21437840854E+02  0.49053486059E+02  0.11352253442E+03  0.17770000000E+01 0. -1.
</event>
<event>
 6    1  0.5285153E-006  0.3906497E+03  0.7546771E-02  0.9684439E-01
        -11   -1    0    0    0    0  0.00000000000E+00  0.00000000000E+00  0.50000000000E+03  0.50000000000E+03  0.00000000000E+00 0. -1.
         11   -1    0    0    0    0 -0.00000000000E+00 -0.00000000000E+00 -0.50000000000E+03  0.50000000000E+03  0.00000000000E+00 0. -1.
        -11    1    1    2    0    0 -0.90506092226E+01 -0.10909337695E+03  0.23600014445E+03  0.26015254486E+03  0.00000000000E+00 0. -1.
         11    1    1    2    0    0  0.73334106913E+02 -0.23535502625E+03 -0.18378739755E+03  0.30748607630E+03  0.00000000000E+00 0. -1.
        -15    1    1    2    0    0 -0.45652069051E+02  0.38102477469E+03 -0.28238443339E+02  0.38479157702E+03  0.17770000000E+01 0.  1.
         15    1    1    2    0    0 -0.18631428639E+02 -0.36576371497E+02 -0.23974303552E+02  0.47569801816E+02  0.17770000000E+01 0. -1.
</event>
<event>
 7    1  0.5285153E-006  0.5183263E+03  0.7546771E-02  0.9359712E-01
        -11   -1    0    0    0    0  0.00000000000E+00  0.00000000000E+00  0.50000000000E+03  0.50000000000E+03  0.00000000000E+00 0. -1.
         11   -1    0    0    0    0 -0.00000000000E+00 -0.00000000000E+00 -0.50000000000E+03  0.50000000000E+03  0.00000000000E+00 0.  1.
         23    2    1    2    0    0 -0.20233333571E+02  0.70257563776E+02  0.16763859277E+03  0.20400021429E+03  0.90376305458E+02 0.  0.
        -11    1    1    2    0    0  0.12379887941E+03  0.13018546567E+03  0.25792727577E+03  0.31432610073E+03  0.00000000000E+00 0. -1.
         11    1    1    2    0    0 -0.10356554584E+03 -0.20044302945E+03 -0.42556586854E+03  0.48167368498E+03  0.00000000000E+00 0.  1.
        -15    1    3    3    0    0 -0.38902953461E+02  0.13036136458E+02  0.12116577666E+03  0.12793624899E+03  0.17770000000E+01 0. -1.
         15    1    3    3    0    0  0.18669619890E+02  0.57221427318E+02  0.46472816106E+02  0.76063965299E+02  0.17770000000E+01 0.  1.
</event>
<event>
 7    1  0.5285153E-006  0.3101598E+03  0.7546771E-02  0.9966893E-01
        -11   -1    0    0    0    0  0.00000000000E+00  0.00000000000E+00  0.50000000000E+03  0.50000000000E+03  0.00000000000E+00 0.  1.
         11   -1    0    0    0    0 -0.00000000000E+00 -0.00000000000E+00 -0.50000000000E+03  0.50000000000E+03  0.00000000000E+00 0.  1.
         23    2    1    2    0    0  0.41081536374E+02 -0.20777180540E+03 -0.21010842694E+03  0.31166961846E+03  0.90197473619E+02 0.  0.
        -11    1    1    2    0    0  0.16949886898E+03 -0.78245715925E+02  0.26988223786E+03  0.32815953583E+03  0.00000000000E+00 0.  1.
         11    1    1    2    0    0 -0.21058040536E+03  0.28601752133E+03 -0.59773810912E+02  0.36017084571E+03  0.00000000000E+00 0.  1.
        -15    1    3    3    0    0  0.46836133418E+02 -0.10813373294E+03 -0.62287738348E+02  0.13330209177E+03  0.17770000000E+01 0.  1.
         15    1    3    3    0    0 -0.57545970442E+01 -0.99638072463E+02 -0.14782068860E+03  0.17836752669E+03  0.17770000000E+01 0. -1.
</event>
<event>
 7    1  0.5285153E-006  0.4311272E+03  0.7546771E-02  0.9568653E-01
        -11   -1    0    0    0    0  0.00000000000E+00  0.00000000000E+00  0.50000000000E+03  0.50000000000E+03  0.00000000000E+00 0.  1.
         11   -1    0    0    0    0 -0.00000000000E+00 -0.00000000000E+00 -0.50000000000E+03  0.50000000000E+03  0.00000000000E+00 0.  1.
         23    2    1    2    0    0  0.48854885496E+02 -0.11897350943E+03 -0.39985218431E+03  0.42881581844E+03  0.86369792525E+02 0.  0.
        -11    1    1    2    0    0 -0.11423660706E+03  0.17462611368E+01  0.42017148118E+03  0.43542752028E+03  0.00000000000E+00 0.  1.
         11    1    1    2    0    0  0.65381721561E+02  0.11722724829E+03 -0.20319296868E+02  0.13575666128E+03  0.00000000000E+00 0.  1.
        -15    1    3    3    0    0 -0.24867633234E+02 -0.36883553863E+02 -0.10982916376E+03  0.11850906577E+03  0.17770000000E+01 0. -1.
         15    1    3    3    0    0  0.73722518730E+02 -0.82089955566E+02 -0.29002302056E+03  0.31030675267E+03  0.17770000000E+01 0.  1.
</event>
<event>
 7    1  0.5285153E-006  0.4054902E+03  0.7546771E-02  0.9640317E-01
        -11   -1    0    0    0    0  0.00000000000E+00  0.00000000000E+00  0.50000000000E+03  0.50000000000E+03  0.00000000000E+00 0.  1.
         11   -1    0    0    0    0 -0.00000000000E+00 -0.00000000000E+00 -0.50000000000E+03  0.50000000000E+03  0.00000000000E+00 0.  1.
         23    2    1    2    0    0 -0.11582962822E+03 -0.84345141649E+02 -0.40746715119E+03  0.44119483034E+03  0.89959954011E+02 0.  0.
        -11    1    1    2    0    0  0.12967917285E+03 -0.83767989916E+02  0.34668571681E+03  0.37950592913E+03  0.00000000000E+00 0.  1.
         11    1    1    2    0    0 -0.13849544628E+02  0.16811313156E+03  0.60781434382E+02  0.17929924054E+03  0.00000000000E+00 0.  1.
        -15    1    3    3    0    0 -0.34661368316E+01 -0.50207516726E+02 -0.97808106058E+02  0.11001087301E+03  0.17770000000E+01 0. -1.
         15    1    3    3    0    0 -0.11236349139E+03 -0.34137624924E+02 -0.30965904513E+03  0.33118395733E+03  0.17770000000E+01 0.  1.
</event>
<event>
 7    1  0.5285153E-006  0.4180652E+03  0.7546771E-02  0.9604480E-01
        -11   -1    0    0    0    0  0.00000000000E+00  0.00000000000E+00  0.50000000000E+03  0.50000000000E+03  0.00000000000E+00 0.  1.
         11   -1    0    0    0    0 -0.00000000000E+00 -0.00000000000E+00 -0.50000000000E+03  0.50000000000E+03  0.00000000000E+00 0. -1.
         23    2    1    2    0    0 -0.12758212050E+03 -0.13704182397E+02 -0.37789052621E+03  0.40955171482E+03  0.92012799230E+02 0.  0.
        -11    1    1    2    0    0  0.14211648253E+03 -0.14456323587E+03  0.38090010456E+03  0.43148640005E+03  0.00000000000E+00 0.  1.
         11    1    1    2    0    0 -0.14534362027E+02  0.15826741826E+03 -0.30095783541E+01  0.15896188513E+03  0.00000000000E+00 0. -1.
        -15    1    3    3    0    0 -0.11563451979E+03 -0.98415135544E+01 -0.37942240916E+03  0.39677792260E+03  0.17770000000E+01 0. -1.
         15    1    3    3    0    0 -0.11947600710E+02 -0.38626688427E+01  0.15318829510E+01  0.12773792220E+02  0.17770000000E+01 0.  1.
</event>
<event>
 7    1  0.5285153E-006  0.4926379E+03  0.7546771E-02  0.9416435E-01
        -11   -1    0    0    0    0  0.00000000000E+00  0.00000000000E+00  0.50000000000E+03  0.50000000000E+03  0.00000000000E+00 0.  1.
         11   -1    0    0    0    0 -0.00000000000E+00 -0.00000000000E+00 -0.50000000000E+03  0.50000000000E+03  0.00000000000E+00 0. -1.
         23    2    1    2    0    0 -0.17611696362E+03 -0.59584493478E+02 -0.44109461047E+03  0.48713555378E+03  0.90383049431E+02 0.  0.
        -11    1    1    2    0    0  0.18316920435E+03  0.41215101647E+02  0.45265222077E+03  0.49004456429E+03  0.00000000000E+00 0.  1.
         11    1    1    2    0    0 -0.70522407268E+01  0.18369391831E+02 -0.11557610298E+02  0.22819881930E+02  0.00000000000E+00 0. -1.
        -15    1    3    3    0    0 -0.73389566191E+02  0.12013222996E+02 -0.22956463183E+03  0.24131602489E+03  0.17770000000E+01 0.  1.
         15    1    3    3    0    0 -0.10272739743E+03 -0.71597716474E+02 -0.21152997864E+03  0.24581952888E+03  0.17770000000E+01 0. -1.
</event>
<event>
 7    1  0.5285153E-006  0.5128985E+03  0.7546771E-02  0.9371402E-01
        -11   -1    0    0    0    0  0.00000000000E+00  0.00000000000E+00  0.50000000000E+03  0.50000000000E+03  0.00000000000E+00 0.  1.
         11   -1    0    0    0    0 -0.00000000000E+00 -0.00000000000E+00 -0.50000000000E+03  0.50000000000E+03  0.00000000000E+00 0.  1.
         23    2    1    2    0    0 -0.68564494712E+02 -0.55416915308E+02 -0.39396967743E+03  0.41301397163E+03  0.87156810376E+02 0.  0.
        -11    1    1    2    0    0  0.82934105522E+02  0.66422595943E+01  0.47994337044E+03  0.48710145175E+03  0.00000000000E+00 0.  1.
         11    1    1    2    0    0 -0.14369610810E+02  0.48774655713E+02 -0.85973693013E+02  0.99884576612E+02  0.00000000000E+00 0.  1.
        -15    1    3    3    0    0 -0.33572257942E+02 -0.76086546676E+02 -0.27250776575E+03  0.28492086483E+03  0.17770000000E+01 0.  1.
         15    1    3    3    0    0 -0.34992236771E+02  0.20669631368E+02 -0.12146191167E+03  0.12809310681E+03  0.17770000000E+01 0. -1.
</event>
<event>
 7    1  0.5285153E-006  0.4066743E+03  0.7546771E-02  0.9636883E-01
        -11   -1    0    0    0    0  0.00000000000E+00  0.00000000000E+00  0.50000000000E+03  0.50000000000E+03  0.00000000000E+00 0.  1.
         11   -1    0    0    0    0 -0.00000000000E+00 -0.00000000000E+00 -0.50000000000E+03  0.50000000000E+03  0.00000000000E+00 0.  1.
         23    2    1    2    0    0  0.34423208366E+03  0.13840286879E+03 -0.11546407686E+03  0.39908780687E+03  0.91038689802E+02 0.  0.
        -11    1    1    2    0    0  0.48786578084E+02  0.89837299831E+01  0.17050349159E+03  0.17757330388E+03  0.00000000000E+00 0.  1.
         11    1    1    2    0    0 -0.39301866175E+03 -0.14738659877E+03 -0.55039414734E+02  0.42333888925E+03  0.00000000000E+00 0.  1.
        -15    1    3    3    0    0  0.30895398036E+03  0.10048887768E+03 -0.75238467321E+02  0.33348847238E+03  0.17770000000E+01 0.  1.
         15    1    3    3    0    0  0.35278103299E+02  0.37913991107E+02 -0.40225609535E+02  0.65599334489E+02  0.17770000000E+01 0. -1.
</event>
<event>
 7    1  0.5285153E-006  0.3599628E+03  0.7546771E-02  0.9782707E-01
        -11   -1    0    0    0    0  0.00000000000E+00  0.00000000000E+00  0.50000000000E+03  0.50000000000E+03  0.00000000000E+00 0.  1.
         11   -1    0    0    0    0 -0.00000000000E+00 -0.00000000000E+00 -0.50000000000E+03  0.50000000000E+03  0.00000000000E+00 0. -1.
         23    2    1    2    0    0  0.39119565996E+02  0.81842227877E+02 -0.31290298613E+03  0.33811020544E+03  0.90452979984E+02 0.  0.
        -11    1    1    2    0    0 -0.26723834035E+03  0.18218982166E+02  0.31407882161E+03  0.41278780027E+03  0.00000000000E+00 0.  1.
         11    1    1    2    0    0  0.22811877436E+03 -0.10006121004E+03 -0.11758354838E+01  0.24910199429E+03  0.00000000000E+00 0. -1.
        -15    1    3    3    0    0 -0.27248054630E+02  0.14464065310E+02 -0.50790470199E+02  0.59451621159E+02  0.17770000000E+01 0.  1.
         15    1    3    3    0    0  0.66367620626E+02  0.67378162567E+02 -0.26211251593E+03  0.27865858428E+03  0.17770000000E+01 0. -1.
</event>
<event>
 7    1  0.5285153E-006  0.5234491E+03  0.7546771E-02  0.9348817E-01
        -11   -1    0    0    0    0  0.00000000000E+00  0.00000000000E+00  0.50000000000E+03  0.50000000000E+03  0.00000000000E+00 0. -1.
         11   -1    0    0    0    0 -0.00000000000E+00 -0.00000000000E+00 -0.50000000000E+03  0.50000000000E+03  0.00000000000E+00 0. -1.
         23    2    1    2    0    0 -0.56688029443E+02  0.16796128965E+03 -0.20003343933E+03  0.28112814894E+03  0.87150053231E+02 0.  0.
        -11    1    1    2    0    0  0.23669378160E+03 -0.20882280915E+03  0.35702925796E+03  0.47655094471E+03  0.00000000000E+00 0. -1.
         11    1    1    2    0    0 -0.18000575215E+03  0.40861519507E+02 -0.15699581863E+03  0.24232090634E+03  0.00000000000E+00 0. -1.
        -15    1    3    3    0    0 -0.33536692720E+02  0.12509055749E+03 -0.19217024482E+03  0.23174321577E+03  0.17770000000E+01 0. -1.
         15    1    3    3    0    0 -0.23151336723E+02  0.42870732161E+02 -0.78631945058E+01  0.49384933177E+02  0.17770000000E+01 0.  1.
</event>
<event>
 7    1  0.5285153E-006  0.4524184E+03  0.7546771E-02  0.9513062E-01
        -11   -1    0    0    0    0  0.00000000000E+00  0.00000000000E+00  0.50000000000E+03  0.50000000000E+03  0.00000000000E+00 0. -1.
         11   -1    0    0    0    0 -0.00000000000E+00 -0.00000000000E+00 -0.50000000000E+03  0.50000000000E+03  0.00000000000E+00 0.  1.
         23    2    1    2    0    0  0.25593544178E+02  0.80512286064E+00 -0.38110798875E+01  0.94792851943E+02  0.91189268684E+02 0.  0.
        -11    1    1    2    0    0  0.57412201426E+02 -0.96722646353E+02  0.43834063228E+03  0.45254164571E+03  0.00000000000E+00 0. -1.
         11    1    1    2    0    0 -0.83005745603E+02  0.95917523493E+02 -0.43452955239E+03  0.45266550235E+03  0.00000000000E+00 0.  1.
        -15    1    3    3    0    0 -0.71488825564E+01  0.41584769478E+02  0.10024214315E+01  0.42244078307E+02  0.17770000000E+01 0. -1.
         15    1    3    3    0    0  0.32742426734E+02 -0.40779646617E+02 -0.48135013190E+01  0.52548773635E+02  0.17770000000E+01 0.  1.
</event>
<event>
 7    1  0.5285153E-006  0.3846248E+03  0.7546771E-02  0.9702953E-01
        -11   -1    0    0    0    0  0.00000000000E+00  0.00000000000E+00  0.50000000000E+03  0.50000000000E+03  0.00000000000E+00 0.  1.
         11   -1    0    0    0    0 -0.00000000000E+00 -0.00000000000E+00 -0.50000000000E+03  0.50000000000E+03  0.00000000000E+00 0. -1.
         23    2    1    2    0    0 -0.28735028984E+02  0.51162543431E+02 -0.39834131691E+03  0.41302857517E+03  0.92051569312E+02 0.  0.
        -11    1    1    2    0    0 -0.16597536021E+03  0.67659983957E+01  0.33542928235E+03  0.37430789784E+03  0.00000000000E+00 0.  1.
         11    1    1    2    0    0  0.19471038919E+03 -0.57928541826E+02  0.62912034558E+02  0.21266352699E+03  0.00000000000E+00 0. -1.
        -15    1    3    3    0    0 -0.10086457819E+02 -0.15060372511E+02 -0.15104318823E+02  0.23661141722E+02  0.17770000000E+01 0.  1.
         15    1    3    3    0    0 -0.18648571166E+02  0.66222915941E+02 -0.38323699808E+03  0.38936743345E+03  0.17770000000E+01 0. -1.
</event>
<event>
 6    1  0.1400880E-005  0.3618517E+03  0.7546771E-02  0.9776359E-01
        -11   -1    0    0    0    0  0.00000000000E+00  0.00000000000E+00  0.50000000000E+03  0.50000000000E+03  0.00000000000E+00 0. -1.
         11   -1    0    0    0    0 -0.00000000000E+00 -0.00000000000E+00 -0.50000000000E+03  0.50000000000E+03  0.00000000000E+00 0.  1.
        -11    1    1    2    0    0  0.50561083865E+02 -0.31784170944E+01  0.25835177642E+03  0.26327203786E+03  0.00000000000E+00 0. -1.
         11    1    1    2    0    0  0.87080783306E+02 -0.15164663686E+03 -0.40313220745E+03  0.43942615076E+03  0.00000000000E+00 0.  1.
        -15    1    1    2    0    0 -0.11395805297E+03  0.14140727084E+03  0.35999602682E+02  0.18515286443E+03  0.17770000000E+01 0. -1.
         15    1    1    2    0    0 -0.23683814204E+02  0.13417783114E+02  0.10878082834E+03  0.11214894695E+03  0.17770000000E+01 0.  1.
</event>
<event>
 7    1  0.5285153E-006  0.5247304E+03  0.7546771E-02  0.9346113E-01
        -11   -1    0    0    0    0  0.00000000000E+00  0.00000000000E+00  0.50000000000E+03  0.50000000000E+03  0.00000000000E+00 0.  1.
         11   -1    0    0    0    0 -0.00000000000E+00 -0.00000000000E+00 -0.50000000000E+03  0.50000000000E+03  0.00000000000E+00 0. -1.
         23    2    1    2    0    0  0.10546088608E+03 -0.88729361995E+01  0.21627038129E+03  0.25817272836E+03  0.93164115175E+02 0.  0.
        -11    1    1    2    0    0 -0.43371659092E+02  0.85869846020E+02  0.24859258342E+03  0.26655769319E+03  0.00000000000E+00 0.  1.
         11    1    1    2    0    0 -0.62089226992E+02 -0.76996909821E+02 -0.46486296471E+03  0.47526957844E+03  0.00000000000E+00 0. -1.
        -15    1    3    3    0    0  0.81073536522E+02 -0.33025491359E+02  0.83376935479E+02  0.12090687533E+03  0.17770000000E+01 0. -1.
         15    1    3    3    0    0  0.24387349561E+02  0.24152555160E+02  0.13289344581E+03  0.13726585303E+03  0.17770000000E+01 0.  1.
</event>
<event>
 7    1  0.5285153E-006  0.5311709E+03  0.7546771E-02  0.9332643E-01
        -11   -1    0    0    0    0  0.00000000000E+00  0.00000000000E+00  0.50000000000E+03  0.50000000000E+03  0.00000000000E+00 0.  1.
         11   -1    0    0    0    0 -0.00000000000E+00 -0.00000000000E+00 -0.50000000000E+03  0.50000000000E+03  0.00000000000E+00 0. -1.
         23    2    1    2    0    0 -0.58937045379E+02  0.92284644911E+02 -0.11158481326E+03  0.18093423119E+03  0.91082349895E+02 0.  0.
        -11    1    1    2    0    0  0.12364713093E+03 -0.43642140615E+03  0.11852641908E+03  0.46882914665E+03  0.00000000000E+00 0.  1.
         11    1    1    2    0    0 -0.64710085550E+02  0.34413676124E+03 -0.69416058207E+01  0.35023662215E+03  0.00000000000E+00 0. -1.
        -15    1    3    3    0    0  0.23572782060E+01  0.77983943498E+02 -0.74325764755E+02  0.10777072534E+03  0.17770000000E+01 0. -1.
         15    1    3    3    0    0 -0.61294323585E+02  0.14300701413E+02 -0.37259048505E+02  0.73163505856E+02  0.17770000000E+01 0.  1.
</event>
<event>
 6    1  0.5285153E-006  0.3789704E+03  0.7546771E-02  0.9720662E-01
        -11   -1    0    0    0    0  0.00000000000E+00  0.00000000000E+00  0.50000000000E+03  0.50000000000E+03  0.00000000000E+00 0.  1.
         11   -1    0    0    0    0 -0.00000000000E+00 -0.00000000000E+00 -0.50000000000E+03  0.50000000000E+03  0.00000000000E+00 0. -1.
        -11    1    1    2    0    0 -0.46717094720E+00 -0.75057272176E+02  0.23433316169E+03  0.24606064908E+03  0.00000000000E+00 0.  1.
         11    1    1    2    0    0 -0.29585821017E+03  0.90453412943E+02 -0.26276672735E+03  0.40590670535E+03  0.00000000000E+00 0. -1.
        -15    1    1    2    0    0  0.12115532667E+03  0.73095659743E+02  0.51131401792E+02  0.15046317367E+03  0.17770000000E+01 0.  1.
         15    1    1    2    0    0  0.17517005445E+03 -0.88491800510E+02 -0.22697836130E+02  0.19756947191E+03  0.17770000000E+01 0. -1.
</event>
<event>
 7    1  0.5285153E-006  0.5159064E+03  0.7546771E-02  0.9364905E-01
        -11   -1    0    0    0    0  0.00000000000E+00  0.00000000000E+00  0.50000000000E+03  0.50000000000E+03  0.00000000000E+00 0.  1.
         11   -1    0    0    0    0 -0.00000000000E+00 -0.00000000000E+00 -0.50000000000E+03  0.50000000000E+03  0.00000000000E+00 0. -1.
         23    2    1    2    0    0  0.90857485573E+02 -0.12134575000E+03 -0.34876353030E+03  0.39094132118E+03  0.90660039781E+02 0.  0.
        -11    1    1    2    0    0 -0.43340412829E+02  0.18495451861E+03  0.44526397022E+03  0.48409355348E+03  0.00000000000E+00 0.  1.
         11    1    1    2    0    0 -0.47517072744E+02 -0.63608768611E+02 -0.96500439927E+02  0.12496512535E+03  0.00000000000E+00 0. -1.
        -15    1    3    3    0    0  0.29323374300E+02 -0.51771508634E+02 -0.48957954492E+02  0.77072617859E+02  0.17770000000E+01 0.  1.
         15    1    3    3    0    0  0.61534111273E+02 -0.69574241366E+02 -0.29980557580E+03  0.31386870332E+03  0.17770000000E+01 0. -1.
</event>
<event>
 7    1  0.5285153E-006  0.5124066E+03  0.7546771E-02  0.9372469E-01
        -11   -1    0    0    0    0  0.00000000000E+00  0.00000000000E+00  0.50000000000E+03  0.50000000000E+03  0.00000000000E+00 0.  1.
         11   -1    0    0    0    0 -0.00000000000E+00 -0.00000000000E+00 -0.50000000000E+03  0.50000000000E+03  0.00000000000E+00 0. -1.
         23    2    1    2    0    0  0.86212832973E+02  0.12562452688E+02 -0.29423395914E+03  0.32046439282E+03  0.92376060559E+02 0.  0.
        -11    1    1    2    0    0 -0.12098324177E+03  0.59921528118E+02  0.46852939686E+03  0.48759340648E+03  0.00000000000E+00 0.  1.
         11    1    1    2    0    0  0.34770408796E+02 -0.72483980806E+02 -0.17429543772E+03  0.19194220070E+03  0.00000000000E+00 0. -1.
        -15    1    3    3    0    0  0.55243524358E+02 -0.16991748771E+02 -0.63900923140E+02  0.86180347046E+02  0.17770000000E+01 0. -1.
         15    1    3    3    0    0  0.30969308615E+02  0.29554201459E+02 -0.23033303600E+03  0.23428404577E+03  0.17770000000E+01 0.  1.
</event>
<event>
 7    1  0.5285153E-006  0.5106061E+03  0.7546771E-02  0.9376386E-01
        -11   -1    0    0    0    0  0.00000000000E+00  0.00000000000E+00  0.50000000000E+03  0.50000000000E+03  0.00000000000E+00 0.  1.
         11   -1    0    0    0    0 -0.00000000000E+00 -0.00000000000E+00 -0.50000000000E+03  0.50000000000E+03  0.00000000000E+00 0. -1.
         23    2    1    2    0    0  0.30613818768E+02 -0.95795222512E+02  0.17213680727E+03  0.21937755118E+03  0.91550526987E+02 0.  0.
        -11    1    1    2    0    0  0.29268819778E+02 -0.17319803633E+03  0.23229255395E+03  0.29122852577E+03  0.00000000000E+00 0.  1.
         11    1    1    2    0    0 -0.59882638545E+02  0.26899325884E+03 -0.40442936122E+03  0.48939392305E+03  0.00000000000E+00 0. -1.
        -15    1    3    3    0    0  0.45796524348E+02 -0.19614443697E+02  0.10678742818E+03  0.11785058587E+03  0.17770000000E+01 0. -1.
         15    1    3    3    0    0 -0.15182705580E+02 -0.76180778815E+02  0.65349379088E+02  0.10152696531E+03  0.17770000000E+01 0.  1.
</event>
<event>
 7    1  0.5285153E-006  0.4933776E+03  0.7546771E-02  0.9414751E-01
        -11   -1    0    0    0    0  0.00000000000E+00  0.00000000000E+00  0.50000000000E+03  0.50000000000E+03  0.00000000000E+00 0.  1.
         11   -1    0    0    0    0 -0.00000000000E+00 -0.00000000000E+00 -0.50000000000E+03  0.50000000000E+03  0.00000000000E+00 0. -1.
         23    2    1    2    0    0  0.51759233380E+02  0.51880971513E+02 -0.47850542517E+03  0.49287950526E+03  0.92693642400E+02 0.  0.
        -11    1    1    2    0    0 -0.70833932558E+02 -0.41352956191E+02  0.47835169221E+03  0.48533272548E+03  0.00000000000E+00 0.  1.
         11    1    1    2    0    0  0.19074699178E+02 -0.10528015322E+02  0.15373296510E+00  0.21787769256E+02  0.00000000000E+00 0. -1.
        -15    1    3    3    0    0  0.77538317118E+02  0.26577175397E+02 -0.33524116590E+03  0.34512075266E+03  0.17770000000E+01 0. -1.
         15    1    3    3    0    0 -0.25779083738E+02  0.25303796116E+02 -0.14326425927E+03  0.14775875260E+03  0.17770000000E+01 0.  1.
</event>
<event>
 7    1  0.5285153E-006  0.5359315E+03  0.7546771E-02  0.9322815E-01
        -11   -1    0    0    0    0  0.00000000000E+00  0.00000000000E+00  0.50000000000E+03  0.50000000000E+03  0.00000000000E+00 0.  1.
         11   -1    0    0    0    0 -0.00000000000E+00 -0.00000000000E+00 -0.50000000000E+03  0.50000000000E+03  0.00000000000E+00 0. -1.
         23    2    1    2    0    0  0.12229011212E+02 -0.43929382927E+02 -0.21829202583E+03  0.24158424642E+03  0.92909634481E+02 0.  0.
        -11    1    1    2    0    0  0.20929412066E+03  0.41565476925E+02  0.41210176329E+03  0.46406850908E+03  0.00000000000E+00 0.  1.
         11    1    1    2    0    0 -0.22152313188E+03  0.23639060016E+01 -0.19380973746E+03  0.29434724450E+03  0.00000000000E+00 0. -1.
        -15    1    3    3    0    0 -0.12361534824E+02 -0.64760215423E+02 -0.17882532204E+03  0.19059996479E+03  0.17770000000E+01 0. -1.
         15    1    3    3    0    0  0.24590546036E+02  0.20830832497E+02 -0.39466703782E+02  0.50984281630E+02  0.17770000000E+01 0.  1.
</event>
<event>
 7    1  0.5285153E-006  0.4515465E+03  0.7546771E-02  0.9515274E-01
        -11   -1    0    0    0    0  0.00000000000E+00  0.00000000000E+00  0.50000000000E+03  0.50000000000E+03  0.00000000000E+00 0. -1.
         11   -1    0    0    0    0 -0.00000000000E+00 -0.00000000000E+00 -0.50000000000E+03  0.50000000000E+03  0.00000000000E+00 0.  1.
         23    2    1    2    0    0 -0.53357949427E+02  0.20297663207E+03 -0.41755280201E+03  0.47568442810E+03  0.88762315941E+02 0.  0.
        -11    1    1    2    0    0 -0.29015389456E+02 -0.15048237113E+03  0.39553426172E+03  0.42418650266E+03  0.00000000000E+00 0. -1.
         11    1    1    2    0    0  0.82373338883E+02 -0.52494260942E+02  0.22018540295E+02  0.10012906924E+03  0.00000000000E+00 0.  1.
        -15    1    3    3    0    0 -0.38537962895E+02  0.20390387239E+03 -0.40853658500E+03  0.45822184886E+03  0.17770000000E+01 0.  1.
         15    1    3    3    0    0 -0.14819986533E+02 -0.92724031513E+00 -0.90162170103E+01  0.17462579237E+02  0.17770000000E+01 0. -1.
</event>
<event>
 7    1  0.5285153E-006  0.4245012E+03  0.7546771E-02  0.9586655E-01
        -11   -1    0    0    0    0  0.00000000000E+00  0.00000000000E+00  0.50000000000E+03  0.50000000000E+03  0.00000000000E+00 0. -1.
         11   -1    0    0    0    0 -0.00000000000E+00 -0.00000000000E+00 -0.50000000000E+03  0.50000000000E+03  0.00000000000E+00 0. -1.
         23    2    1    2    0    0  0.20366376075E+03  0.36371625004E+03  0.40512690094E+02  0.43019820149E+03  0.98289249263E+02 0.  0.
        -11    1    1    2    0    0 -0.26470577420E+02 -0.29943812324E+02  0.14387685725E+03  0.14932472473E+03  0.00000000000E+00 0. -1.
         11    1    1    2    0    0 -0.17719318333E+03 -0.33377243772E+03 -0.18438954734E+03  0.42047707377E+03  0.00000000000E+00 0. -1.
        -15    1    3    3    0    0  0.91447572555E+02  0.20587358110E+03  0.66260161535E+02  0.23481941286E+03  0.17770000000E+01 0.  1.
         15    1    3    3    0    0  0.11221618820E+03  0.15784266894E+03 -0.25747471440E+02  0.19537878863E+03  0.17770000000E+01 0. -1.
</event>
<event>
 7    1  0.5285153E-006  0.3771710E+03  0.7546771E-02  0.9726367E-01
        -11   -1    0    0    0    0  0.00000000000E+00  0.00000000000E+00  0.50000000000E+03  0.50000000000E+03  0.00000000000E+00 0.  1.
         11   -1    0    0    0    0 -0.00000000000E+00 -0.00000000000E+00 -0.50000000000E+03  0.50000000000E+03  0.00000000000E+00 0. -1.
         23    2    1    2    0    0 -0.16221795022E+03 -0.32399872773E+03 -0.17235575750E+03  0.41210611215E+03  0.93995221069E+02 0.  0.
        -11    1    1    2    0    0 -0.10862667964E+01  0.22214917192E+03  0.28772151044E+03  0.36350392313E+03  0.00000000000E+00 0.  1.
         11    1    1    2    0    0  0.16330421702E+03  0.10184955581E+03 -0.11536575294E+03  0.22438996472E+03  0.00000000000E+00 0. -1.
        -15    1    3    3    0    0 -0.42611630123E+02 -0.21998962406E+02 -0.10227969241E+02  0.49066021364E+02  0.17770000000E+01 0.  1.
         15    1    3    3    0    0 -0.11960632010E+03 -0.30199976532E+03 -0.16212778826E+03  0.36304009079E+03  0.17770000000E+01 0. -1.
</event>
<event>
 7    1  0.5285153E-006  0.5384724E+03  0.7546771E-02  0.9317614E-01
        -11   -1    0    0    0    0  0.00000000000E+00  0.00000000000E+00  0.50000000000E+03  0.50000000000E+03  0.00000000000E+00 0. -1.
         11   -1    0    0    0    0 -0.00000000000E+00 -0.00000000000E+00 -0.50000000000E+03  0.50000000000E+03  0.00000000000E+00 0.  1.
         23    2    1    2    0    0 -0.19764057594E+03 -0.70488322103E+02 -0.24128125841E+03  0.33233507083E+03  0.90551382300E+02 0.  0.
        -11    1    1    2    0    0  0.23765030773E+03 -0.66525926221E+02  0.39000557105E+03  0.46152758647E+03  0.00000000000E+00 0. -1.
         11    1    1    2    0    0 -0.40009731791E+02  0.13701424832E+03 -0.14872431264E+03  0.20613734269E+03  0.00000000000E+00 0.  1.
        -15    1    3    3    0    0 -0.59112565850E+02 -0.28891129617E+02 -0.14310290279E+03  0.15751378139E+03  0.17770000000E+01 0. -1.
         15    1    3    3    0    0 -0.13852801009E+03 -0.41597192486E+02 -0.98178355620E+02  0.17482128944E+03  0.17770000000E+01 0.  1.
</event>
<event>
 7    1  0.6841690E-006  0.5093457E+03  0.7546771E-02  0.9379137E-01
        -11   -1    0    0    0    0  0.00000000000E+00  0.00000000000E+00  0.50000000000E+03  0.50000000000E+03  0.00000000000E+00 0. -1.
         11   -1    0    0    0    0 -0.00000000000E+00 -0.00000000000E+00 -0.50000000000E+03  0.50000000000E+03  0.00000000000E+00 0.  1.
         23    2    1    2    0    0  0.81939249646E+02 -0.45188716651E+02  0.28400027652E+03  0.30672856940E+03  0.68338843111E+02 0.  0.
        -11    1    1    2    0    0 -0.30136628150E+02 -0.27464989207E+02  0.19847206857E+03  0.20261713647E+03  0.00000000000E+00 0. -1.
         11    1    1    2    0    0 -0.51802621497E+02  0.72653705858E+02 -0.48247234509E+03  0.49065429413E+03  0.00000000000E+00 0.  1.
        -15    1    3    3    0    0  0.36960621170E+02 -0.55680546027E+02  0.19963329278E+03  0.21053033045E+03  0.17770000000E+01 0. -1.
         15    1    3    3    0    0  0.44978628477E+02  0.10491829376E+02  0.84366983742E+02  0.96198238955E+02  0.17770000000E+01 0.  1.
</event>
<event>
 7    1  0.5285153E-006  0.3480001E+03  0.7546771E-02  0.9823899E-01
        -11   -1    0    0    0    0  0.00000000000E+00  0.00000000000E+00  0.50000000000E+03  0.50000000000E+03  0.00000000000E+00 0.  1.
         11   -1    0    0    0    0 -0.00000000000E+00 -0.00000000000E+00 -0.50000000000E+03  0.50000000000E+03  0.00000000000E+00 0. -1.
         23    2    1    2    0    0 -0.15395904715E+01 -0.14182921592E+03 -0.22802720594E+03  0.28348083373E+03  0.90813433002E+02 0.  0.
        -11    1    1    2    0    0  0.77328095428E+02  0.55817318265E+01  0.44368469732E+03  0.45040748296E+03  0.00000000000E+00 0.  1.
         11    1    1    2    0    0 -0.75788504956E+02  0.13624748410E+03 -0.21565749138E+03  0.26611168331E+03  0.00000000000E+00 0. -1.
        -15    1    3    3    0    0  0.40350989111E+02 -0.10048821048E+03 -0.16360769105E+03  0.19620580284E+03  0.17770000000E+01 0. -1.
         15    1    3    3    0    0 -0.41890579583E+02 -0.41341005438E+02 -0.64419514887E+02  0.87275030883E+02  0.17770000000E+01 0.  1.
</event>
<event>
 7    1  0.7058120E-006  0.5083640E+03  0.7546771E-02  0.9381287E-01
        -11   -1    0    0    0    0  0.00000000000E+00  0.00000000000E+00  0.50000000000E+03  0.50000000000E+03  0.00000000000E+00 0. -1.
         11   -1    0    0    0    0 -0.00000000000E+00 -0.00000000000E+00 -0.50000000000E+03  0.50000000000E+03  0.00000000000E+00 0.  1.
         23    2    1    2    0    0  0.44261421971E+02 -0.78905424432E+00  0.33232317410E+03  0.34698236949E+03  0.89433643590E+02 0.  0.
        -11    1    1    2    0    0  0.22442338524E+02 -0.48545530772E+02  0.15226191180E+03  0.16138158787E+03  0.00000000000E+00 0. -1.
         11    1    1    2    0    0 -0.66703760495E+02  0.49334585017E+02 -0.48458508591E+03  0.49163604265E+03  0.00000000000E+00 0.  1.
        -15    1    3    3    0    0  0.67112235104E+01  0.40338225902E+02  0.99613115708E+02  0.10769467740E+03  0.17770000000E+01 0.  1.
         15    1    3    3    0    0  0.37550198461E+02 -0.41127280146E+02  0.23271005840E+03  0.23928769209E+03  0.17770000000E+01 0. -1.
</event>
<event>
 7    1  0.5285153E-006  0.5151513E+03  0.7546771E-02  0.9366532E-01
        -11   -1    0    0    0    0  0.00000000000E+00  0.00000000000E+00  0.50000000000E+03  0.50000000000E+03  0.00000000000E+00 0. -1.
         11   -1    0    0    0    0 -0.00000000000E+00 -0.00000000000E+00 -0.50000000000E+03  0.50000000000E+03  0.00000000000E+00 0.  1.
         23    2    1    2    0    0 -0.31224698485E+01  0.46485407072E+02 -0.15394018271E+03  0.18477942097E+03  0.90968190460E+02 0.  0.
        -11    1    1    2    0    0 -0.57965418806E+02 -0.22169286772E+03  0.42728277858E+03  0.48484872924E+03  0.00000000000E+00 0. -1.
         11    1    1    2    0    0  0.61087888655E+02  0.17520746065E+03 -0.27334259588E+03  0.33037184978E+03  0.00000000000E+00 0.  1.
        -15    1    3    3    0    0 -0.22724318426E+02  0.35734545103E+01  0.71068758816E+00  0.23083046395E+02  0.17770000000E+01 0.  1.
         15    1    3    3    0    0  0.19601848577E+02  0.42911952562E+02 -0.15465087029E+03  0.16169637458E+03  0.17770000000E+01 0. -1.
</event>
<event>
 7    1  0.5285153E-006  0.4500099E+03  0.7546771E-02  0.9519185E-01
        -11   -1    0    0    0    0  0.00000000000E+00  0.00000000000E+00  0.50000000000E+03  0.50000000000E+03  0.00000000000E+00 0.  1.
         11   -1    0    0    0    0 -0.00000000000E+00 -0.00000000000E+00 -0.50000000000E+03  0.50000000000E+03  0.00000000000E+00 0. -1.
         23    2    1    2    0    0  0.33640737659E+02  0.77373310178E+02 -0.44298970137E+03  0.46027898701E+03  0.92187537129E+02 0.  0.
        -11    1    1    2    0    0 -0.92908600233E+02 -0.14993193274E+03  0.39894147311E+03  0.43619478610E+03  0.00000000000E+00 0.  1.
         11    1    1    2    0    0  0.59267862574E+02  0.72558622561E+02  0.44048228255E+02  0.10352622689E+03  0.00000000000E+00 0. -1.
        -15    1    3    3    0    0 -0.18959058977E+01  0.13157048776E+02 -0.24118430974E+01  0.13626338752E+02  0.17770000000E+01 0.  1.
         15    1    3    3    0    0  0.35536643557E+02  0.64216261402E+02 -0.44057785827E+03  0.44665264825E+03  0.17770000000E+01 0. -1.
</event>
<event>
 7    1  0.5285153E-006  0.4662181E+03  0.7546771E-02  0.9478743E-01
        -11   -1    0    0    0    0  0.00000000000E+00  0.00000000000E+00  0.50000000000E+03  0.50000000000E+03  0.00000000000E+00 0.  1.
         11   -1    0    0    0    0 -0.00000000000E+00 -0.00000000000E+00 -0.50000000000E+03  0.50000000000E+03  0.00000000000E+00 0. -1.
         23    2    1    2    0    0 -0.64632055523E+02 -0.22444195575E+03 -0.40451874890E+03  0.47620332335E+03  0.92642824100E+02 0.  0.
        -11    1    1    2    0    0  0.68613886875E+02  0.15186311778E+03  0.41788785577E+03  0.44988946644E+03  0.00000000000E+00 0.  1.
         11    1    1    2    0    0 -0.39818313523E+01  0.72578837970E+02 -0.13369106876E+02  0.73907210208E+02  0.00000000000E+00 0. -1.
        -15    1    3    3    0    0 -0.50495116206E+02 -0.86093578020E+02 -0.99361555930E+02  0.14084650320E+03  0.17770000000E+01 0. -1.
         15    1    3    3    0    0 -0.14136939316E+02 -0.13834837773E+03 -0.30515719297E+03  0.33535682015E+03  0.17770000000E+01 0.  1.
</event>
<event>
 7    1  0.5285153E-006  0.5154991E+03  0.7546771E-02  0.9365782E-01
        -11   -1    0    0    0    0  0.00000000000E+00  0.00000000000E+00  0.50000000000E+03  0.50000000000E+03  0.00000000000E+00 0.  1.
         11   -1    0    0    0    0 -0.00000000000E+00 -0.00000000000E+00 -0.50000000000E+03  0.50000000000E+03  0.00000000000E+00 0. -1.
         23    2    1    2    0    0  0.30732227438E+02  0.83500069567E+02 -0.38408686671E+03  0.40494904249E+03  0.92435244447E+02 0.  0.
        -11    1    1    2    0    0 -0.66132100395E+02 -0.16400047893E+03  0.45107820652E+03  0.48450093931E+03  0.00000000000E+00 0.  1.
         11    1    1    2    0    0  0.35399872958E+02  0.80500409364E+02 -0.66991339816E+02  0.11055001820E+03  0.00000000000E+00 0. -1.
        -15    1    3    3    0    0  0.60328315697E+02  0.34772502109E+02 -0.24247690634E+03  0.25228325433E+03  0.17770000000E+01 0.  1.
         15    1    3    3    0    0 -0.29596088260E+02  0.48727567458E+02 -0.14160996036E+03  0.15266578816E+03  0.17770000000E+01 0. -1.
</event>
<event>
 7    1  0.5285153E-006  0.5185126E+03  0.7546771E-02  0.9359313E-01
        -11   -1    0    0    0    0  0.00000000000E+00  0.00000000000E+00  0.50000000000E+03  0.50000000000E+03  0.00000000000E+00 0. -1.
         11   -1    0    0    0    0 -0.00000000000E+00 -0.00000000000E+00 -0.50000000000E+03  0.50000000000E+03  0.00000000000E+00 0. -1.
         23    2    1    2    0    0  0.10682627747E+03  0.44532898199E+02 -0.31164470339E+03  0.34569020396E+03  0.94785354302E+02 0.  0.
        -11    1    1    2    0    0 -0.11652195704E+03 -0.16172972034E+03  0.43828784213E+03  0.48148738454E+03  0.00000000000E+00 0. -1.
         11    1    1    2    0    0  0.96956795769E+01  0.11719682214E+03 -0.12664313875E+03  0.17282241149E+03  0.00000000000E+00 0. -1.
        -15    1    3    3    0    0  0.48465310472E+02 -0.13243219924E+02 -0.47859230919E+02  0.69411331253E+02  0.17770000000E+01 0.  1.
         15    1    3    3    0    0  0.58360966994E+02  0.57776118123E+02 -0.26378547247E+03  0.27627887271E+03  0.17770000000E+01 0. -1.
</event>
<event>
 7    1  0.5285153E-006  0.4263840E+03  0.7546771E-02  0.9581504E-01
        -11   -1    0    0    0    0  0.00000000000E+00  0.00000000000E+00  0.50000000000E+03  0.50000000000E+03  0.00000000000E+00 0. -1.
         11   -1    0    0    0    0 -0.00000000000E+00 -0.00000000000E+00 -0.50000000000E+03  0.50000000000E+03  0.00000000000E+00 0.  1.
         23    2    1    2    0    0  0.12028764197E+03 -0.17356993140E+03 -0.32889232820E+03  0.39962711554E+03  0.83282831533E+02 0.  0.
        -11    1    1    2    0    0 -0.12297366387E+03  0.75680439759E+02  0.43359871146E+03  0.45700973026E+03  0.00000000000E+00 0. -1.
         11    1    1    2    0    0  0.26860218958E+01  0.97889491638E+02 -0.10470638326E+03  0.14336315420E+03  0.00000000000E+00 0.  1.
        -15    1    3    3    0    0  0.55235634840E+02 -0.76299494559E+02 -0.76274485034E+02  0.12121692548E+03  0.17770000000E+01 0.  1.
         15    1    3    3    0    0  0.65052007135E+02 -0.97270436838E+02 -0.25261784317E+03  0.27841019006E+03  0.17770000000E+01 0. -1.
</event>
<event>
 7    1  0.5285153E-006  0.4313492E+03  0.7546771E-02  0.9568055E-01
        -11   -1    0    0    0    0  0.00000000000E+00  0.00000000000E+00  0.50000000000E+03  0.50000000000E+03  0.00000000000E+00 0.  1.
         11   -1    0    0    0    0 -0.00000000000E+00 -0.00000000000E+00 -0.50000000000E+03  0.50000000000E+03  0.00000000000E+00 0. -1.
         23    2    1    2    0    0 -0.62374337579E+01  0.71144379529E+02  0.65045439829E+02  0.13191013569E+03  0.89827313976E+02 0.  0.
        -11    1    1    2    0    0  0.66823355881E+02 -0.12957836165E+03  0.38424914590E+03  0.41097848949E+03  0.00000000000E+00 0.  1.
         11    1    1    2    0    0 -0.60585922123E+02  0.58433982122E+02 -0.44929458573E+03  0.45711137482E+03  0.00000000000E+00 0. -1.
        -15    1    3    3    0    0  0.33593575295E+02  0.64559623461E+02  0.51937417050E+02  0.89426653194E+02  0.17770000000E+01 0. -1.
         15    1    3    3    0    0 -0.39831009053E+02  0.65847560676E+01  0.13108022779E+02  0.42483482494E+02  0.17770000000E+01 0.  1.
</event>
<event>
 7    1  0.5285153E-006  0.4259533E+03  0.7546771E-02  0.9582680E-01
        -11   -1    0    0    0    0  0.00000000000E+00  0.00000000000E+00  0.50000000000E+03  0.50000000000E+03  0.00000000000E+00 0. -1.
         11   -1    0    0    0    0 -0.00000000000E+00 -0.00000000000E+00 -0.50000000000E+03  0.50000000000E+03  0.00000000000E+00 0. -1.
         23    2    1    2    0    0  0.14196924817E+01  0.52223362577E+02 -0.39103756719E+03  0.40436133771E+03  0.88704099957E+02 0.  0.
        -11    1    1    2    0    0 -0.13623982217E+03 -0.14812594202E+02  0.42925371016E+03  0.45059898999E+03  0.00000000000E+00 0. -1.
         11    1    1    2    0    0  0.13482012969E+03 -0.37410768375E+02 -0.38216142966E+02  0.14503967231E+03  0.00000000000E+00 0. -1.
        -15    1    3    3    0    0 -0.24686133627E+02 -0.16252171764E+02 -0.11708329018E+03  0.12076917176E+03  0.17770000000E+01 0.  1.
         15    1    3    3    0    0  0.26105826108E+02  0.68475534340E+02 -0.27395427702E+03  0.28359216595E+03  0.17770000000E+01 0. -1.
</event>
<event>
 7    1  0.5285153E-006  0.5092867E+03  0.7546771E-02  0.9379266E-01
        -11   -1    0    0    0    0  0.00000000000E+00  0.00000000000E+00  0.50000000000E+03  0.50000000000E+03  0.00000000000E+00 0. -1.
         11   -1    0    0    0    0 -0.00000000000E+00 -0.00000000000E+00 -0.50000000000E+03  0.50000000000E+03  0.00000000000E+00 0. -1.
         23    2    1    2    0    0 -0.98997706468E+01  0.15095981418E+03 -0.45793584642E+03  0.49071329860E+03  0.90594873067E+02 0.  0.
        -11    1    1    2    0    0 -0.24803998332E+02 -0.62723058984E+02  0.38172708037E+03  0.38764027699E+03  0.00000000000E+00 0. -1.
         11    1    1    2    0    0  0.34703768979E+02 -0.88236755191E+02  0.76208766055E+02  0.12164642441E+03  0.00000000000E+00 0. -1.
        -15    1    3    3    0    0  0.30872767684E+02  0.32023335900E+02 -0.18380127567E+03  0.18911554271E+03  0.17770000000E+01 0.  1.
         15    1    3    3    0    0 -0.40772538331E+02  0.11893647828E+03 -0.27413457075E+03  0.30159775589E+03  0.17770000000E+01 0. -1.
</event>
<event>
 7    1  0.5285153E-006  0.3284065E+03  0.7546771E-02  0.9895358E-01
        -11   -1    0    0    0    0  0.00000000000E+00  0.00000000000E+00  0.50000000000E+03  0.50000000000E+03  0.00000000000E+00 0. -1.
         11   -1    0    0    0    0 -0.00000000000E+00 -0.00000000000E+00 -0.50000000000E+03  0.50000000000E+03  0.00000000000E+00 0.  1.
         23    2    1    2    0    0 -0.22333056176E+03  0.12784363344E+03 -0.94161837131E+02  0.28831871386E+03  0.89669921159E+02 0.  0.
        -11    1    1    2    0    0 -0.11274060790E+02 -0.13280431388E+03  0.34400350998E+03  0.36892073012E+03  0.00000000000E+00 0. -1.
         11    1    1    2    0    0  0.23460462255E+03  0.49606804359E+01 -0.24984167285E+03  0.34276055602E+03  0.00000000000E+00 0.  1.
        -15    1    3    3    0    0 -0.10493809913E+03  0.10317756875E+02 -0.42129305056E+02  0.11356274402E+03  0.17770000000E+01 0. -1.
         15    1    3    3    0    0 -0.11839246263E+03  0.11752587656E+03 -0.52032532075E+02  0.17475596984E+03  0.17770000000E+01 0.  1.
</event>
<event>
 7    1  0.5285153E-006  0.4721800E+03  0.7546771E-02  0.9464305E-01
        -11   -1    0    0    0    0  0.00000000000E+00  0.00000000000E+00  0.50000000000E+03  0.50000000000E+03  0.00000000000E+00 0. -1.
         11   -1    0    0    0    0 -0.00000000000E+00 -0.00000000000E+00 -0.50000000000E+03  0.50000000000E+03  0.00000000000E+00 0.  1.
         23    2    1    2    0    0 -0.69657513735E+02  0.73428439731E+02  0.42564525606E+03  0.44696515533E+03  0.91433369666E+02 0.  0.
        -11    1    1    2    0    0 -0.39796457505E+02  0.21852573105E+02  0.42941481919E+02  0.62492110308E+02  0.00000000000E+00 0. -1.
         11    1    1    2    0    0  0.10945397124E+03 -0.95281012836E+02 -0.46858673798E+03  0.49054273436E+03  0.00000000000E+00 0.  1.
        -15    1    3    3    0    0 -0.67395732558E+02  0.40809943526E+02  0.39264503332E+03  0.40047586216E+03  0.17770000000E+01 0. -1.
         15    1    3    3    0    0 -0.22617811768E+01  0.32618496205E+02  0.33000222744E+02  0.46489293164E+02  0.17770000000E+01 0.  1.
</event>
<event>
 7    1  0.5285153E-006  0.4746706E+03  0.7546771E-02  0.9458341E-01
        -11   -1    0    0    0    0  0.00000000000E+00  0.00000000000E+00  0.50000000000E+03  0.50000000000E+03  0.00000000000E+00 0.  1.
         11   -1    0    0    0    0 -0.00000000000E+00 -0.00000000000E+00 -0.50000000000E+03  0.50000000000E+03  0.00000000000E+00 0. -1.
         23    2    1    2    0    0  0.40311705510E+02  0.18210155110E+02 -0.45419805037E+03  0.46466411188E+03  0.87522708839E+02 0.  0.
        -11    1    1    2    0    0 -0.74372677713E+02 -0.61743116882E+02  0.46839690804E+03  0.47826684093E+03  0.00000000000E+00 0.  1.
         11    1    1    2    0    0  0.34060972203E+02  0.43532961773E+02 -0.14198857673E+02  0.57069047191E+02  0.00000000000E+00 0. -1.
        -15    1    3    3    0    0  0.47664223109E+02  0.44238704318E+02 -0.38290947649E+03  0.38839640323E+03  0.17770000000E+01 0. -1.
         15    1    3    3    0    0 -0.73525175989E+01 -0.26028549208E+02 -0.71288573872E+02  0.76267708650E+02  0.17770000000E+01 0.  1.
</event>
<event>
 7    1  0.5285153E-006  0.3866524E+03  0.7546771E-02  0.9696682E-01
        -11   -1    0    0    0    0  0.00000000000E+00  0.00000000000E+00  0.50000000000E+03  0.50000000000E+03  0.00000000000E+00 0. -1.
         11   -1    0    0    0    0 -0.00000000000E+00 -0.00000000000E+00 -0.50000000000E+03  0.50000000000E+03  0.00000000000E+00 0.  1.
         23    2    1    2    0    0  0.12264050322E+03  0.10681649232E+03 -0.31215021094E+03  0.36213224020E+03  0.85156028227E+02 0.  0.
        -11    1    1    2    0    0  0.48811972406E+02 -0.63169178930E+02  0.42208829942E+03  0.42957128200E+03  0.00000000000E+00 0. -1.
         11    1    1    2    0    0 -0.17145247562E+03 -0.43647313387E+02 -0.10993808848E+03  0.20829647779E+03  0.00000000000E+00 0.  1.
        -15    1    3    3    0    0  0.11662058283E+03  0.55559990883E+02 -0.24932102429E+03  0.28080492127E+03  0.17770000000E+01 0.  1.
         15    1    3    3    0    0  0.60199203874E+01  0.51256501435E+02 -0.62829186649E+02  0.81327318933E+02  0.17770000000E+01 0. -1.
</event>
<event>
 7    1  0.5285153E-006  0.3840621E+03  0.7546771E-02  0.9704701E-01
        -11   -1    0    0    0    0  0.00000000000E+00  0.00000000000E+00  0.50000000000E+03  0.50000000000E+03  0.00000000000E+00 0.  1.
         11   -1    0    0    0    0 -0.00000000000E+00 -0.00000000000E+00 -0.50000000000E+03  0.50000000000E+03  0.00000000000E+00 0.  1.
         23    2    1    2    0    0  0.14531570397E+03  0.31062420489E+01 -0.27908074385E+03  0.33086346847E+03  0.10226568640E+03 0.  0.
        -11    1    1    2    0    0 -0.44363389368E+02  0.97557253280E+02  0.44074704022E+03  0.45358955174E+03  0.00000000000E+00 0.  1.
         11    1    1    2    0    0 -0.10095231460E+03 -0.10066349533E+03 -0.16166629637E+03  0.21554697979E+03  0.00000000000E+00 0.  1.
        -15    1    3    3    0    0  0.33694771507E+02 -0.44677638824E+02 -0.79290562503E+02  0.97064824055E+02  0.17770000000E+01 0. -1.
         15    1    3    3    0    0  0.11162093246E+03  0.47783880873E+02 -0.19979018135E+03  0.23379864441E+03  0.17770000000E+01 0.  1.
</event>
<event>
 7    1  0.5285153E-006  0.4334727E+03  0.7546771E-02  0.9562363E-01
        -11   -1    0    0    0    0  0.00000000000E+00  0.00000000000E+00  0.50000000000E+03  0.50000000000E+03  0.00000000000E+00 0.  1.
         11   -1    0    0    0    0 -0.00000000000E+00 -0.00000000000E+00 -0.50000000000E+03  0.50000000000E+03  0.00000000000E+00 0. -1.
         23    2    1    2    0    0  0.14289462341E+03 -0.11872315497E+03 -0.35119064403E+03  0.40669744927E+03  0.86913093716E+02 0.  0.
        -11    1    1    2    0    0 -0.45311911909E+02  0.14484499007E+03  0.43583885776E+03  0.46150704268E+03  0.00000000000E+00 0.  1.
         11    1    1    2    0    0 -0.97582711504E+02 -0.26121835102E+02 -0.84648213735E+02  0.13179550805E+03  0.00000000000E+00 0. -1.
        -15    1    3    3    0    0  0.64487119877E+02 -0.23139592423E+02 -0.19983140509E+03  0.21125760947E+03  0.17770000000E+01 0.  1.
         15    1    3    3    0    0  0.78407503537E+02 -0.95583562549E+02 -0.15135923894E+03  0.19543983980E+03  0.17770000000E+01 0. -1.
</event>
<event>
 7    1  0.5285153E-006  0.5048175E+03  0.7546771E-02  0.9389094E-01
        -11   -1    0    0    0    0  0.00000000000E+00  0.00000000000E+00  0.50000000000E+03  0.50000000000E+03  0.00000000000E+00 0.  1.
         11   -1    0    0    0    0 -0.00000000000E+00 -0.00000000000E+00 -0.50000000000E+03  0.50000000000E+03  0.00000000000E+00 0. -1.
         23    2    1    2    0    0  0.49161353597E+02  0.15003489585E+03 -0.46129241300E+03  0.49518253053E+03  0.86531725958E+02 0.  0.
        -11    1    1    2    0    0 -0.43588358424E+01 -0.14694897223E+03  0.41522492970E+03  0.44048239708E+03  0.00000000000E+00 0.  1.
         11    1    1    2    0    0 -0.44802517755E+02 -0.30859236135E+01  0.46067483299E+02  0.64335072389E+02  0.00000000000E+00 0. -1.
        -15    1    3    3    0    0  0.27847445352E+02  0.66173052375E+02 -0.33144249655E+03  0.33913365997E+03  0.17770000000E+01 0. -1.
         15    1    3    3    0    0  0.21313908245E+02  0.83861843470E+02 -0.12984991645E+03  0.15604887057E+03  0.17770000000E+01 0.  1.
</event>
<event>
 7    1  0.5285153E-006  0.5051462E+03  0.7546771E-02  0.9388368E-01
        -11   -1    0    0    0    0  0.00000000000E+00  0.00000000000E+00  0.50000000000E+03  0.50000000000E+03  0.00000000000E+00 0.  1.
         11   -1    0    0    0    0 -0.00000000000E+00 -0.00000000000E+00 -0.50000000000E+03  0.50000000000E+03  0.00000000000E+00 0. -1.
         23    2    1    2    0    0  0.70522589083E+02 -0.18453452400E+03 -0.44483415881E+03  0.49485381715E+03  0.89310947772E+02 0.  0.
        -11    1    1    2    0    0 -0.10340390204E+03  0.16569980955E+03  0.40779841815E+03  0.45215964403E+03  0.00000000000E+00 0.  1.
         11    1    1    2    0    0  0.32881312959E+02  0.18834714451E+02  0.37035740658E+02  0.52986538823E+02  0.00000000000E+00 0. -1.
        -15    1    3    3    0    0  0.87502744348E+02 -0.11325041322E+03 -0.30767583151E+03  0.33933753313E+03  0.17770000000E+01 0. -1.
         15    1    3    3    0    0 -0.16980155266E+02 -0.71284110775E+02 -0.13715832729E+03  0.15551628402E+03  0.17770000000E+01 0.  1.
</event>
<event>
 7    1  0.5285153E-006  0.3183941E+03  0.7546771E-02  0.9933973E-01
        -11   -1    0    0    0    0  0.00000000000E+00  0.00000000000E+00  0.50000000000E+03  0.50000000000E+03  0.00000000000E+00 0. -1.
         11   -1    0    0    0    0 -0.00000000000E+00 -0.00000000000E+00 -0.50000000000E+03  0.50000000000E+03  0.00000000000E+00 0. -1.
         23    2    1    2    0    0  0.94715982032E+02 -0.12965594684E+03 -0.27138788836E+03  0.32821543903E+03  0.91061554262E+02 0.  0.
        -11    1    1    2    0    0  0.29866991405E+01  0.35502675497E+03  0.89529479335E+02  0.36615358087E+03  0.00000000000E+00 0. -1.
         11    1    1    2    0    0 -0.97702681173E+02 -0.22537080813E+03  0.18185840902E+03  0.30563098010E+03  0.00000000000E+00 0. -1.
        -15    1    3    3    0    0  0.66908166937E+02 -0.13451278218E+03 -0.19109362974E+03  0.24308501482E+03  0.17770000000E+01 0. -1.
         15    1    3    3    0    0  0.27807815095E+02  0.48568353416E+01 -0.80294258615E+02  0.85130424206E+02  0.17770000000E+01 0.  1.
</event>
<event>
 7    1  0.5285153E-006  0.5097713E+03  0.7546771E-02  0.9378207E-01
        -11   -1    0    0    0    0  0.00000000000E+00  0.00000000000E+00  0.50000000000E+03  0.50000000000E+03  0.00000000000E+00 0.  1.
         11   -1    0    0    0    0 -0.00000000000E+00 -0.00000000000E+00 -0.50000000000E+03  0.50000000000E+03  0.00000000000E+00 0. -1.
         23    2    1    2    0    0  0.44637789356E+02 -0.20623849363E+01  0.21332509238E+03  0.23659119315E+03  0.92038100630E+02 0.  0.
        -11    1    1    2    0    0  0.53618639487E+02 -0.35837485384E+02  0.26545823499E+03  0.27318008417E+03  0.00000000000E+00 0.  1.
         11    1    1    2    0    0 -0.98256428844E+02  0.37899870321E+02 -0.47878332737E+03  0.49022872269E+03  0.00000000000E+00 0. -1.
        -15    1    3    3    0    0  0.30275810336E+02 -0.45794195717E+02  0.13466604254E+03  0.14543670030E+03  0.17770000000E+01 0. -1.
         15    1    3    3    0    0  0.14361979021E+02  0.43731810780E+02  0.78659049837E+02  0.91154492845E+02  0.17770000000E+01 0.  1.
</event>
<event>
 7    1  0.5285153E-006  0.3833708E+03  0.7546771E-02  0.9706852E-01
        -11   -1    0    0    0    0  0.00000000000E+00  0.00000000000E+00  0.50000000000E+03  0.50000000000E+03  0.00000000000E+00 0. -1.
         11   -1    0    0    0    0 -0.00000000000E+00 -0.00000000000E+00 -0.50000000000E+03  0.50000000000E+03  0.00000000000E+00 0.  1.
         23    2    1    2    0    0  0.79544286979E+02 -0.38497250353E+02 -0.41756813264E+03  0.43652736876E+03  0.91562363506E+02 0.  0.
        -11    1    1    2    0    0  0.11255792932E+03  0.60556818995E+02  0.32472498989E+03  0.34897383117E+03  0.00000000000E+00 0. -1.
         11    1    1    2    0    0 -0.19210221630E+03 -0.22059568643E+02  0.92843142745E+02  0.21449880007E+03  0.00000000000E+00 0.  1.
        -15    1    3    3    0    0  0.40105001075E+02  0.15013654599E+02 -0.65792035318E+02  0.78521147316E+02  0.17770000000E+01 0. -1.
         15    1    3    3    0    0  0.39439285904E+02 -0.53510904952E+02 -0.35177609732E+03  0.35800622145E+03  0.17770000000E+01 0.  1.
</event>
<event>
 7    1  0.5285153E-006  0.4726141E+03  0.7546771E-02  0.9463263E-01
        -11   -1    0    0    0    0  0.00000000000E+00  0.00000000000E+00  0.50000000000E+03  0.50000000000E+03  0.00000000000E+00 0. -1.
         11   -1    0    0    0    0 -0.00000000000E+00 -0.00000000000E+00 -0.50000000000E+03  0.50000000000E+03  0.00000000000E+00 0.  1.
         23    2    1    2    0    0  0.82989747245E+02  0.36630468683E+02 -0.43009918735E+03  0.44883744979E+03  0.90778058967E+02 0.  0.
        -11    1    1    2    0    0 -0.12779828651E+03 -0.29609062133E+02  0.47170983396E+03  0.48961134184E+03  0.00000000000E+00 0. -1.
         11    1    1    2    0    0  0.44808539266E+02 -0.70214065507E+01 -0.41610646616E+02  0.61551208379E+02  0.00000000000E+00 0.  1.
        -15    1    3    3    0    0  0.57120710070E+02  0.67187901970E+02 -0.28969179892E+03  0.30282253182E+03  0.17770000000E+01 0.  1.
         15    1    3    3    0    0  0.25869037175E+02 -0.30557433286E+02 -0.14040738843E+03  0.14601491796E+03  0.17770000000E+01 0. -1.
</event>
<event>
 7    1  0.5285153E-006  0.4138958E+03  0.7546771E-02  0.9616211E-01
        -11   -1    0    0    0    0  0.00000000000E+00  0.00000000000E+00  0.50000000000E+03  0.50000000000E+03  0.00000000000E+00 0.  1.
         11   -1    0    0    0    0 -0.00000000000E+00 -0.00000000000E+00 -0.50000000000E+03  0.50000000000E+03  0.00000000000E+00 0. -1.
         23    2    1    2    0    0 -0.11845377101E+03  0.31723859781E+02 -0.51750464506E+02  0.16157602877E+03  0.91602419991E+02 0.  0.
        -11    1    1    2    0    0 -0.37776162016E+02  0.11905085574E+03  0.40497911610E+03  0.42380211083E+03  0.00000000000E+00 0.  1.
         11    1    1    2    0    0  0.15622993303E+03 -0.15077471552E+03 -0.35322865159E+03  0.41462186040E+03  0.00000000000E+00 0. -1.
        -15    1    3    3    0    0 -0.12040797853E+03  0.44211283651E+02 -0.23280482256E+02  0.13037583165E+03  0.17770000000E+01 0. -1.
         15    1    3    3    0    0  0.19542075117E+01 -0.12487423870E+02 -0.28469982250E+02  0.31200197118E+02  0.17770000000E+01 0.  1.
</event>
<event>
 7    1  0.5285153E-006  0.5139973E+03  0.7546771E-02  0.9369023E-01
        -11   -1    0    0    0    0  0.00000000000E+00  0.00000000000E+00  0.50000000000E+03  0.50000000000E+03  0.00000000000E+00 0.  1.
         11   -1    0    0    0    0 -0.00000000000E+00 -0.00000000000E+00 -0.50000000000E+03  0.50000000000E+03  0.00000000000E+00 0.  1.
         23    2    1    2    0    0  0.61476156749E+01 -0.38876562262E+01 -0.16243261486E+03  0.18607068969E+03  0.90471211680E+02 0.  0.
        -11    1    1    2    0    0  0.65848337011E+02  0.52339454830E+02  0.47866811648E+03  0.48600266229E+03  0.00000000000E+00 0.  1.
         11    1    1    2    0    0 -0.71995952686E+02 -0.48451798604E+02 -0.31623550162E+03  0.32792664801E+03  0.00000000000E+00 0.  1.
        -15    1    3    3    0    0  0.37955805255E+02  0.26464651405E+02 -0.92576070757E+02  0.10351090538E+03  0.17770000000E+01 0. -1.
         15    1    3    3    0    0 -0.31808189580E+02 -0.30352307631E+02 -0.69856544105E+02  0.82559784316E+02  0.17770000000E+01 0.  1.
</event>
<event>
 7    1  0.5285153E-006  0.5351484E+03  0.7546771E-02  0.9324424E-01
        -11   -1    0    0    0    0  0.00000000000E+00  0.00000000000E+00  0.50000000000E+03  0.50000000000E+03  0.00000000000E+00 0. -1.
         11   -1    0    0    0    0 -0.00000000000E+00 -0.00000000000E+00 -0.50000000000E+03  0.50000000000E+03  0.00000000000E+00 0. -1.
         23    2    1    2    0    0  0.22536852034E+02  0.47505001697E+02  0.42379612643E+02  0.11275048102E+03  0.90288451732E+02 0.  0.
        -11    1    1    2    0    0 -0.76651647623E+02  0.41408684725E+03 -0.32812101784E+02  0.42239794764E+03  0.00000000000E+00 0. -1.
         11    1    1    2    0    0  0.54114795590E+02 -0.46159184895E+03 -0.95675108591E+01  0.46485157134E+03  0.00000000000E+00 0. -1.
        -15    1    3    3    0    0  0.49393891879E+02 -0.24373486094E+00  0.23944425450E+02  0.54920935905E+02  0.17770000000E+01 0. -1.
         15    1    3    3    0    0 -0.26857039845E+02  0.47748736558E+02  0.18435187193E+02  0.57829545113E+02  0.17770000000E+01 0.  1.
</event>
<event>
 7    1  0.5285153E-006  0.5164920E+03  0.7546771E-02  0.9363645E-01
        -11   -1    0    0    0    0  0.00000000000E+00  0.00000000000E+00  0.50000000000E+03  0.50000000000E+03  0.00000000000E+00 0.  1.
         11   -1    0    0    0    0 -0.00000000000E+00 -0.00000000000E+00 -0.50000000000E+03  0.50000000000E+03  0.00000000000E+00 0. -1.
         23    2    1    2    0    0 -0.43997341283E+02 -0.17321164293E+03  0.27970196119E+03  0.34440133137E+03  0.91875190706E+02 0.  0.
        -11    1    1    2    0    0 -0.40851776709E+02  0.86385904778E+01  0.16694818250E+03  0.17209064049E+03  0.00000000000E+00 0.  1.
         11    1    1    2    0    0  0.84849117992E+02  0.16457305245E+03 -0.44665014369E+03  0.48350802814E+03  0.00000000000E+00 0. -1.
        -15    1    3    3    0    0 -0.70110278219E+02 -0.11291815042E+03  0.16164822253E+03  0.20928274029E+03  0.17770000000E+01 0. -1.
         15    1    3    3    0    0  0.26112936936E+02 -0.60293492509E+02  0.11805373866E+03  0.13511859108E+03  0.17770000000E+01 0.  1.
</event>
<event>
 7    1  0.5285153E-006  0.5368825E+03  0.7546771E-02  0.9320865E-01
        -11   -1    0    0    0    0  0.00000000000E+00  0.00000000000E+00  0.50000000000E+03  0.50000000000E+03  0.00000000000E+00 0. -1.
         11   -1    0    0    0    0 -0.00000000000E+00 -0.00000000000E+00 -0.50000000000E+03  0.50000000000E+03  0.00000000000E+00 0.  1.
         23    2    1    2    0    0  0.26636636270E+02 -0.39193979977E+02  0.15578125339E+02  0.10334092961E+03  0.90504095405E+02 0.  0.
        -11    1    1    2    0    0  0.17887826988E+03 -0.28442084271E+02  0.39389325718E+03  0.43354156161E+03  0.00000000000E+00 0. -1.
         11    1    1    2    0    0 -0.20551490615E+03  0.67636064248E+02 -0.40947138252E+03  0.46311750878E+03  0.00000000000E+00 0.  1.
        -15    1    3    3    0    0  0.40424986089E+02 -0.57631946076E+02 -0.73481806871E+01  0.70800947715E+02  0.17770000000E+01 0. -1.
         15    1    3    3    0    0 -0.13788349820E+02  0.18437966099E+02  0.22926306026E+02  0.32539981894E+02  0.17770000000E+01 0.  1.
</event>
<event>
 7    1  0.5285153E-006  0.4482781E+03  0.7546771E-02  0.9523614E-01
        -11   -1    0    0    0    0  0.00000000000E+00  0.00000000000E+00  0.50000000000E+03  0.50000000000E+03  0.00000000000E+00 0. -1.
         11   -1    0    0    0    0 -0.00000000000E+00 -0.00000000000E+00 -0.50000000000E+03  0.50000000000E+03  0.00000000000E+00 0.  1.
         23    2    1    2    0    0 -0.45514509886E+02  0.14500406834E+02 -0.92147660343E+01  0.10212492474E+03  0.89792850117E+02 0.  0.
        -11    1    1    2    0    0 -0.15068000761E+03  0.26579301535E+03  0.31512378265E+03  0.43892298880E+03  0.00000000000E+00 0. -1.
         11    1    1    2    0    0  0.19619451750E+03 -0.28029342219E+03 -0.30590901662E+03  0.45895208646E+03  0.00000000000E+00 0.  1.
        -15    1    3    3    0    0 -0.41236293220E+02  0.34364393743E+01 -0.46904013880E+02  0.62573039251E+02  0.17770000000E+01 0.  1.
         15    1    3    3    0    0 -0.42782166664E+01  0.11063967460E+02  0.37689247845E+02  0.39551885492E+02  0.17770000000E+01 0. -1.
</event>
<event>
 7    1  0.5285153E-006  0.5311443E+03  0.7546771E-02  0.9332698E-01
        -11   -1    0    0    0    0  0.00000000000E+00  0.00000000000E+00  0.50000000000E+03  0.50000000000E+03  0.00000000000E+00 0. -1.
         11   -1    0    0    0    0 -0.00000000000E+00 -0.00000000000E+00 -0.50000000000E+03  0.50000000000E+03  0.00000000000E+00 0. -1.
         23    2    1    2    0    0  0.63941559525E+01  0.12474814646E+03 -0.13057360439E+03  0.20217001927E+03  0.90665678482E+02 0.  0.
        -11    1    1    2    0    0 -0.25975061720E+03 -0.27656893865E+03  0.27543578652E+03  0.46885566378E+03  0.00000000000E+00 0. -1.
         11    1    1    2    0    0  0.25335646125E+03  0.15182079219E+03 -0.14486218213E+03  0.32897431695E+03  0.00000000000E+00 0. -1.
        -15    1    3    3    0    0 -0.14528329974E+02  0.10578562339E+02  0.93708905481E+01  0.20345753160E+02  0.17770000000E+01 0.  1.
         15    1    3    3    0    0  0.20922485926E+02  0.11416958412E+03 -0.13994449494E+03  0.18182426611E+03  0.17770000000E+01 0. -1.
</event>
<event>
 7    1  0.5285153E-006  0.5225979E+03  0.7546771E-02  0.9350618E-01
        -11   -1    0    0    0    0  0.00000000000E+00  0.00000000000E+00  0.50000000000E+03  0.50000000000E+03  0.00000000000E+00 0.  1.
         11   -1    0    0    0    0 -0.00000000000E+00 -0.00000000000E+00 -0.50000000000E+03  0.50000000000E+03  0.00000000000E+00 0.  1.
         23    2    1    2    0    0 -0.11668845385E+03 -0.87764530447E+02  0.24895227826E+03  0.30187702244E+03  0.88508145167E+02 0.  0.
        -11    1    1    2    0    0  0.41598843625E+02  0.12243136262E+02  0.21641940856E+03  0.22072090652E+03  0.00000000000E+00 0.  1.
         11    1    1    2    0    0  0.75089610227E+02  0.75521394185E+02 -0.46537168681E+03  0.47740207104E+03  0.00000000000E+00 0.  1.
        -15    1    3    3    0    0 -0.14960220477E+02 -0.23345424707E+02  0.12880751052E+03  0.13177006317E+03  0.17770000000E+01 0. -1.
         15    1    3    3    0    0 -0.10172823338E+03 -0.64419105740E+02  0.12014476774E+03  0.17010695928E+03  0.17770000000E+01 0.  1.
</event>
<event>
 7    1  0.5285153E-006  0.4856570E+03  0.7546771E-02  0.9432488E-01
        -11   -1    0    0    0    0  0.00000000000E+00  0.00000000000E+00  0.50000000000E+03  0.50000000000E+03  0.00000000000E+00 0.  1.
         11   -1    0    0    0    0 -0.00000000000E+00 -0.00000000000E+00 -0.50000000000E+03  0.50000000000E+03  0.00000000000E+00 0. -1.
         23    2    1    2    0    0 -0.13757745664E+03  0.24122395185E+03  0.38015751138E+03  0.47942911335E+03  0.90642097015E+02 0.  0.
        -11    1    1    2    0    0  0.22585519533E+02 -0.73652577516E+01  0.27746356411E+02  0.36526880629E+02  0.00000000000E+00 0.  1.
         11    1    1    2    0    0  0.11499193710E+03 -0.23385869410E+03 -0.40790386779E+03  0.48404400602E+03  0.00000000000E+00 0. -1.
        -15    1    3    3    0    0 -0.42215999848E+02  0.13996880987E+03  0.14316115692E+03  0.20462583649E+03  0.17770000000E+01 0.  1.
         15    1    3    3    0    0 -0.95361456790E+02  0.10125514198E+03  0.23699635446E+03  0.27480327686E+03  0.17770000000E+01 0. -1.
</event>
<event>
 7    1  0.7240515E-006  0.4614488E+03  0.7546771E-02  0.9490459E-01
        -11   -1    0    0    0    0  0.00000000000E+00  0.00000000000E+00  0.50000000000E+03  0.50000000000E+03  0.00000000000E+00 0.  1.
         11   -1    0    0    0    0 -0.00000000000E+00 -0.00000000000E+00 -0.50000000000E+03  0.50000000000E+03  0.00000000000E+00 0. -1.
         23    2    1    2    0    0  0.53772693477E+02  0.36853228375E+02  0.40820733803E+03  0.42344916320E+03  0.91794879956E+02 0.  0.
        -11    1    1    2    0    0  0.18112880389E+02  0.25283396227E+02  0.76519510188E+02  0.82598801445E+02  0.00000000000E+00 0.  1.
         11    1    1    2    0    0 -0.71885573866E+02 -0.62136624602E+02 -0.48472684822E+03  0.49395203536E+03  0.00000000000E+00 0. -1.
        -15    1    3    3    0    0  0.68661678433E+02  0.97570150932E+01  0.35641911670E+03  0.36310793148E+03  0.17770000000E+01 0.  1.
         15    1    3    3    0    0 -0.14888984956E+02  0.27096213282E+02  0.51788221334E+02  0.60341231718E+02  0.17770000000E+01 0. -1.
</event>
<event>
 7    1  0.5285153E-006  0.5178717E+03  0.7546771E-02  0.9360685E-01
        -11   -1    0    0    0    0  0.00000000000E+00  0.00000000000E+00  0.50000000000E+03  0.50000000000E+03  0.00000000000E+00 0.  1.
         11   -1    0    0    0    0 -0.00000000000E+00 -0.00000000000E+00 -0.50000000000E+03  0.50000000000E+03  0.00000000000E+00 0. -1.
         23    2    1    2    0    0  0.16829347079E+02 -0.12145867638E+02  0.16247368070E+03  0.18697061910E+03  0.90164108518E+02 0.  0.
        -11    1    1    2    0    0 -0.11483283064E+03 -0.69126578140E+02  0.30254005362E+03  0.33090111339E+03  0.00000000000E+00 0.  1.
         11    1    1    2    0    0  0.98003483558E+02  0.81272445778E+02 -0.46501373431E+03  0.48212826751E+03  0.00000000000E+00 0. -1.
        -15    1    3    3    0    0 -0.13926971189E+02 -0.45119581579E+02  0.77921245393E+02  0.91129662465E+02  0.17770000000E+01 0.  1.
         15    1    3    3    0    0  0.30756318268E+02  0.32973713941E+02  0.84552435305E+02  0.95840956639E+02  0.17770000000E+01 0. -1.
</event>
<event>
 6    1  0.5285153E-006  0.5510016E+03  0.7546771E-02  0.9292406E-01
        -11   -1    0    0    0    0  0.00000000000E+00  0.00000000000E+00  0.50000000000E+03  0.50000000000E+03  0.00000000000E+00 0.  1.
         11   -1    0    0    0    0 -0.00000000000E+00 -0.00000000000E+00 -0.50000000000E+03  0.50000000000E+03  0.00000000000E+00 0. -1.
        -11    1    1    2    0    0 -0.60223072917E+02 -0.67965694793E+00  0.27029506791E+03  0.27692364323E+03  0.00000000000E+00 0.  1.
         11    1    1    2    0    0 -0.98793781083E+01  0.16867061460E+03 -0.41599544755E+03  0.44899843065E+03  0.00000000000E+00 0. -1.
        -15    1    1    2    0    0  0.81765424707E+02 -0.21790944208E+02  0.42299812045E+02  0.94619563278E+02  0.17770000000E+01 0.  1.
         15    1    1    2    0    0 -0.11662973681E+02 -0.14620001344E+03  0.10340056760E+03  0.17945836284E+03  0.17770000000E+01 0. -1.
</event>
<event>
 7    1  0.5285153E-006  0.3944650E+03  0.7546771E-02  0.9672898E-01
        -11   -1    0    0    0    0  0.00000000000E+00  0.00000000000E+00  0.50000000000E+03  0.50000000000E+03  0.00000000000E+00 0.  1.
         11   -1    0    0    0    0 -0.00000000000E+00 -0.00000000000E+00 -0.50000000000E+03  0.50000000000E+03  0.00000000000E+00 0.  1.
         23    2    1    2    0    0  0.17543660762E+02 -0.10986947789E+02 -0.16808219339E+03  0.19309819604E+03  0.92772822128E+02 0.  0.
        -11    1    1    2    0    0  0.78851569164E+02 -0.35079482524E+03  0.23084348529E+03  0.42727426095E+03  0.00000000000E+00 0.  1.
         11    1    1    2    0    0 -0.96395229926E+02  0.36178177303E+03 -0.62761291900E+02  0.37962754301E+03  0.00000000000E+00 0.  1.
        -15    1    3    3    0    0  0.49143730648E+02  0.13247066595E+02 -0.64991591366E+02  0.82569096596E+02  0.17770000000E+01 0. -1.
         15    1    3    3    0    0 -0.31600069886E+02 -0.24234014384E+02 -0.10309060202E+03  0.11052909945E+03  0.17770000000E+01 0.  1.
</event>
<event>
 7    1  0.5285153E-006  0.3811034E+03  0.7546771E-02  0.9713943E-01
        -11   -1    0    0    0    0  0.00000000000E+00  0.00000000000E+00  0.50000000000E+03  0.50000000000E+03  0.00000000000E+00 0.  1.
         11   -1    0    0    0    0 -0.00000000000E+00 -0.00000000000E+00 -0.50000000000E+03  0.50000000000E+03  0.00000000000E+00 0. -1.
         23    2    1    2    0    0  0.32579533203E+02  0.16347679994E+03 -0.70758306337E+02  0.21657677971E+03  0.11879677391E+03 0.  0.
        -11    1    1    2    0    0 -0.26107790616E+02 -0.98834343194E+02  0.41791724282E+03  0.43023791787E+03  0.00000000000E+00 0.  1.
         11    1    1    2    0    0 -0.64717425876E+01 -0.64642456743E+02 -0.34715893648E+03  0.35318530242E+03  0.00000000000E+00 0. -1.
        -15    1    3    3    0    0  0.75336258613E+02  0.85986046444E+02 -0.54155768992E+02  0.12651148995E+03  0.17770000000E+01 0. -1.
         15    1    3    3    0    0 -0.42756725409E+02  0.77490753493E+02 -0.16602537346E+02  0.90065289762E+02  0.17770000000E+01 0.  1.
</event>
<event>
 7    1  0.5285153E-006  0.5245845E+03  0.7546771E-02  0.9346420E-01
        -11   -1    0    0    0    0  0.00000000000E+00  0.00000000000E+00  0.50000000000E+03  0.50000000000E+03  0.00000000000E+00 0.  1.
         11   -1    0    0    0    0 -0.00000000000E+00 -0.00000000000E+00 -0.50000000000E+03  0.50000000000E+03  0.00000000000E+00 0. -1.
         23    2    1    2    0    0  0.90025117544E+02  0.77784392188E+01  0.35801060190E+02  0.13359948142E+03  0.91662858445E+02 0.  0.
        -11    1    1    2    0    0  0.23037886032E+03 -0.21903426672E+02  0.31514295490E+03  0.39098498872E+03  0.00000000000E+00 0.  1.
         11    1    1    2    0    0 -0.32040397786E+03  0.14124987453E+02 -0.35094401509E+03  0.47541552986E+03  0.00000000000E+00 0. -1.
        -15    1    3    3    0    0  0.25524204071E+02  0.56718368823E+00  0.59271347368E+02  0.64560491313E+02  0.17770000000E+01 0.  1.
         15    1    3    3    0    0  0.64500913473E+02  0.72112555306E+01 -0.23470287178E+02  0.69038990102E+02  0.17770000000E+01 0. -1.
</event>
<event>
 7    1  0.5285153E-006  0.5380341E+03  0.7546771E-02  0.9318509E-01
        -11   -1    0    0    0    0  0.00000000000E+00  0.00000000000E+00  0.50000000000E+03  0.50000000000E+03  0.00000000000E+00 0. -1.
         11   -1    0    0    0    0 -0.00000000000E+00 -0.00000000000E+00 -0.50000000000E+03  0.50000000000E+03  0.00000000000E+00 0.  1.
         23    2    1    2    0    0  0.47429324443E+02  0.96572650308E+02 -0.97722870434E+02  0.16784447850E+03  0.83941598462E+02 0.  0.
        -11    1    1    2    0    0 -0.10052565354E+03  0.84637958796E+00  0.45089511896E+03  0.46196594212E+03  0.00000000000E+00 0. -1.
         11    1    1    2    0    0  0.53096329095E+02 -0.97419029896E+02 -0.35317224853E+03  0.37018957938E+03  0.00000000000E+00 0.  1.
        -15    1    3    3    0    0  0.69530250370E+02  0.74081177050E+02 -0.57676627963E+02  0.11684274754E+03  0.17770000000E+01 0. -1.
         15    1    3    3    0    0 -0.22100925928E+02  0.22491473258E+02 -0.40046242471E+02  0.51001730963E+02  0.17770000000E+01 0.  1.
</event>
<event>
 7    1  0.5285153E-006  0.3832291E+03  0.7546771E-02  0.9707294E-01
        -11   -1    0    0    0    0  0.00000000000E+00  0.00000000000E+00  0.50000000000E+03  0.50000000000E+03  0.00000000000E+00 0.  1.
         11   -1    0    0    0    0 -0.00000000000E+00 -0.00000000000E+00 -0.50000000000E+03  0.50000000000E+03  0.00000000000E+00 0. -1.
         23    2    1    2    0    0  0.66768936499E+02 -0.14593167209E+03 -0.77781186982E+02  0.21306776988E+03  0.11659252854E+03 0.  0.
        -11    1    1    2    0    0 -0.58773480059E+02 -0.59516575778E+02  0.39783216823E+03  0.40653041563E+03  0.00000000000E+00 0.  1.
         11    1    1    2    0    0 -0.79954564405E+01  0.20544824787E+03 -0.32005098125E+03  0.38040181450E+03  0.00000000000E+00 0. -1.
        -15    1    3    3    0    0  0.30037958762E+02 -0.13130354534E+03 -0.10635554144E+02  0.13512650638E+03  0.17770000000E+01 0.  1.
         15    1    3    3    0    0  0.36730977738E+02 -0.14628126753E+02 -0.67145632838E+02  0.77941263501E+02  0.17770000000E+01 0. -1.
</event>
<event>
 7    1  0.5285153E-006  0.4390547E+03  0.7546771E-02  0.9547562E-01
        -11   -1    0    0    0    0  0.00000000000E+00  0.00000000000E+00  0.50000000000E+03  0.50000000000E+03  0.00000000000E+00 0.  1.
         11   -1    0    0    0    0 -0.00000000000E+00 -0.00000000000E+00 -0.50000000000E+03  0.50000000000E+03  0.00000000000E+00 0.  1.
         23    2    1    2    0    0 -0.22017735867E+02  0.22161407086E+02 -0.67656224653E+02  0.11873419510E+03  0.92436657747E+02 0.  0.
        -11    1    1    2    0    0 -0.23963687650E+03  0.99046790748E+02  0.37751231325E+03  0.45798651290E+03  0.00000000000E+00 0.  1.
         11    1    1    2    0    0  0.26165461237E+03 -0.12120819783E+03 -0.30985608860E+03  0.42327929200E+03  0.00000000000E+00 0.  1.
        -15    1    3    3    0    0 -0.10697879443E+02  0.54608888951E+02 -0.62891705842E+02  0.83994641315E+02  0.17770000000E+01 0.  1.
         15    1    3    3    0    0 -0.11319856424E+02 -0.32447481864E+02 -0.47645188113E+01  0.34739553787E+02  0.17770000000E+01 0. -1.
</event>
<event>
 7    1  0.5285153E-006  0.4716532E+03  0.7546771E-02  0.9465572E-01
        -11   -1    0    0    0    0  0.00000000000E+00  0.00000000000E+00  0.50000000000E+03  0.50000000000E+03  0.00000000000E+00 0.  1.
         11   -1    0    0    0    0 -0.00000000000E+00 -0.00000000000E+00 -0.50000000000E+03  0.50000000000E+03  0.00000000000E+00 0. -1.
         23    2    1    2    0    0  0.33602698635E+03  0.90809361829E+01  0.29942377489E+03  0.45892284155E+03  0.89213107586E+02 0.  0.
        -11    1    1    2    0    0 -0.19625276620E+02 -0.11408285577E+02  0.58855743930E+02  0.63081685581E+02  0.00000000000E+00 0.  1.
         11    1    1    2    0    0 -0.31640170973E+03  0.23273493944E+01 -0.35827951882E+03  0.47799547287E+03  0.00000000000E+00 0. -1.
        -15    1    3    3    0    0  0.71797044712E+02 -0.33236935955E+02  0.83776611532E+02  0.11524403633E+03  0.17770000000E+01 0. -1.
         15    1    3    3    0    0  0.26422994164E+03  0.42317872138E+02  0.21564716336E+03  0.34367880522E+03  0.17770000000E+01 0.  1.
</event>
<event>
 7    1  0.5285153E-006  0.4057596E+03  0.7546771E-02  0.9639534E-01
        -11   -1    0    0    0    0  0.00000000000E+00  0.00000000000E+00  0.50000000000E+03  0.50000000000E+03  0.00000000000E+00 0. -1.
         11   -1    0    0    0    0 -0.00000000000E+00 -0.00000000000E+00 -0.50000000000E+03  0.50000000000E+03  0.00000000000E+00 0.  1.
         23    2    1    2    0    0 -0.25665051901E+02 -0.36037338369E+03 -0.21525181100E+03  0.42992032389E+03  0.89277501046E+02 0.  0.
        -11    1    1    2    0    0 -0.89188970762E+02  0.24617446890E+03  0.29084629173E+03  0.39134142006E+03  0.00000000000E+00 0. -1.
         11    1    1    2    0    0  0.11485402266E+03  0.11419891478E+03 -0.75594480728E+02  0.17873825605E+03  0.00000000000E+00 0.  1.
        -15    1    3    3    0    0 -0.74761168277E+00 -0.33922487099E+03 -0.20013888594E+03  0.39386901810E+03  0.17770000000E+01 0.  1.
         15    1    3    3    0    0 -0.24917440218E+02 -0.21148512695E+02 -0.15112925058E+02  0.36051305788E+02  0.17770000000E+01 0. -1.
</event>
<event>
 7    1  0.5285153E-006  0.5138287E+03  0.7546771E-02  0.9369388E-01
        -11   -1    0    0    0    0  0.00000000000E+00  0.00000000000E+00  0.50000000000E+03  0.50000000000E+03  0.00000000000E+00 0. -1.
         11   -1    0    0    0    0 -0.00000000000E+00 -0.00000000000E+00 -0.50000000000E+03  0.50000000000E+03  0.00000000000E+00 0. -1.
         23    2    1    2    0    0 -0.21632951307E+02 -0.39468596467E+02 -0.32982985613E+03  0.34513563644E+03  0.91132424862E+02 0.  0.
        -11    1    1    2    0    0 -0.52943993252E+02  0.67089068514E+02  0.47860060085E+03  0.48617131206E+03  0.00000000000E+00 0. -1.
         11    1    1    2    0    0  0.74576944558E+02 -0.27620472047E+02 -0.14877074473E+03  0.16869305150E+03  0.00000000000E+00 0. -1.
        -15    1    3    3    0    0 -0.42296517829E+02 -0.48252038732E+02 -0.30470646203E+03  0.31139434869E+03  0.17770000000E+01 0. -1.
         15    1    3    3    0    0  0.20663566522E+02  0.87834422649E+01 -0.25123394091E+02  0.33741287751E+02  0.17770000000E+01 0.  1.
</event>
<event>
 7    1  0.5285153E-006  0.4316613E+03  0.7546771E-02  0.9567216E-01
        -11   -1    0    0    0    0  0.00000000000E+00  0.00000000000E+00  0.50000000000E+03  0.50000000000E+03  0.00000000000E+00 0. -1.
         11   -1    0    0    0    0 -0.00000000000E+00 -0.00000000000E+00 -0.50000000000E+03  0.50000000000E+03  0.00000000000E+00 0. -1.
         23    2    1    2    0    0  0.20366000176E+03 -0.13578287250E+02 -0.35529034506E+03  0.41967304920E+03  0.90732974883E+02 0.  0.
        -11    1    1    2    0    0 -0.93815458890E+02  0.25202250908E+02  0.43397163624E+03  0.44471100148E+03  0.00000000000E+00 0. -1.
         11    1    1    2    0    0 -0.10984454287E+03 -0.11623963658E+02 -0.78681291181E+02  0.13561594932E+03  0.00000000000E+00 0. -1.
        -15    1    3    3    0    0  0.27535604023E+02  0.29409404841E+02 -0.86675223844E+02  0.95597461993E+02  0.17770000000E+01 0.  1.
         15    1    3    3    0    0  0.17612439773E+03 -0.42987692091E+02 -0.26861512121E+03  0.32407558720E+03  0.17770000000E+01 0. -1.
</event>
<event>
 7    1  0.5285153E-006  0.5168804E+03  0.7546771E-02  0.9362811E-01
        -11   -1    0    0    0    0  0.00000000000E+00  0.00000000000E+00  0.50000000000E+03  0.50000000000E+03  0.00000000000E+00 0. -1.
         11   -1    0    0    0    0 -0.00000000000E+00 -0.00000000000E+00 -0.50000000000E+03  0.50000000000E+03  0.00000000000E+00 0.  1.
         23    2    1    2    0    0  0.10650601818E+03  0.84331784332E+02 -0.92193405738E+02  0.19755008736E+03  0.10986824472E+03 0.  0.
        -11    1    1    2    0    0 -0.31009399990E+03 -0.26917844088E+03  0.25453722220E+03  0.48311957039E+03  0.00000000000E+00 0. -1.
         11    1    1    2    0    0  0.20358798172E+03  0.18484665654E+03 -0.16234381646E+03  0.31933034225E+03  0.00000000000E+00 0.  1.
        -15    1    3    3    0    0  0.42907297844E+02  0.36714472976E+02  0.20111579477E+02  0.59971844162E+02  0.17770000000E+01 0. -1.
         15    1    3    3    0    0  0.63598720335E+02  0.47617311356E+02 -0.11230498521E+03  0.13757824320E+03  0.17770000000E+01 0.  1.
</event>
<event>
 7    1  0.5285153E-006  0.4814353E+03  0.7546771E-02  0.9442335E-01
        -11   -1    0    0    0    0  0.00000000000E+00  0.00000000000E+00  0.50000000000E+03  0.50000000000E+03  0.00000000000E+00 0. -1.
         11   -1    0    0    0    0 -0.00000000000E+00 -0.00000000000E+00 -0.50000000000E+03  0.50000000000E+03  0.00000000000E+00 0. -1.
         23    2    1    2    0    0  0.82683970474E+02 -0.19980930950E+03 -0.40195124979E+03  0.46539368933E+03  0.90917983513E+02 0.  0.
        -11    1    1    2    0    0  0.15772517660E+02 -0.39458755178E+02 -0.14008431234E+02  0.44743734971E+02  0.00000000000E+00 0. -1.
         11    1    1    2    0    0 -0.98456488135E+02  0.23926806468E+03  0.41595968102E+03  0.48986257570E+03  0.00000000000E+00 0. -1.
        -15    1    3    3    0    0 -0.14407883799E+02 -0.42721765069E+02 -0.46289450570E+02  0.64642147932E+02  0.17770000000E+01 0.  1.
         15    1    3    3    0    0  0.97091854273E+02 -0.15708754443E+03 -0.35566179922E+03  0.40075154140E+03  0.17770000000E+01 0. -1.
</event>
<event>
 7    1  0.5285153E-006  0.5263205E+03  0.7546771E-02  0.9342768E-01
        -11   -1    0    0    0    0  0.00000000000E+00  0.00000000000E+00  0.50000000000E+03  0.50000000000E+03  0.00000000000E+00 0.  1.
         11   -1    0    0    0    0 -0.00000000000E+00 -0.00000000000E+00 -0.50000000000E+03  0.50000000000E+03  0.00000000000E+00 0. -1.
         23    2    1    2    0    0  0.62033806211E+02  0.46450302866E+02 -0.20662673942E+03  0.23939748646E+03  0.92793983273E+02 0.  0.
        -11    1    1    2    0    0 -0.99748839401E+02  0.95511402569E+02  0.45310042243E+03  0.47367948213E+03  0.00000000000E+00 0.  1.
         11    1    1    2    0    0  0.37715033190E+02 -0.14196170543E+03 -0.24647368301E+03  0.28692303141E+03  0.00000000000E+00 0. -1.
        -15    1    3    3    0    0  0.83317699598E+02  0.31022583765E+02 -0.12341329026E+03  0.15211258236E+03  0.17770000000E+01 0. -1.
         15    1    3    3    0    0 -0.21283893387E+02  0.15427719101E+02 -0.83213449162E+02  0.87284904106E+02  0.17770000000E+01 0.  1.
</event>
<event>
 7    1  0.5285153E-006  0.3538034E+03  0.7546771E-02  0.9803698E-01
        -11   -1    0    0    0    0  0.00000000000E+00  0.00000000000E+00  0.50000000000E+03  0.50000000000E+03  0.00000000000E+00 0.  1.
         11   -1    0    0    0    0 -0.00000000000E+00 -0.00000000000E+00 -0.50000000000E+03  0.50000000000E+03  0.00000000000E+00 0. -1.
         23    2    1    2    0    0  0.16610920313E+03 -0.17811506853E+03 -0.34159513451E+03  0.42943784656E+03  0.91719044559E+02 0.  0.
        -11    1    1    2    0    0 -0.10795940683E+03 -0.67027778148E+02  0.28542034966E+03  0.31243036435E+03  0.00000000000E+00 0.  1.
         11    1    1    2    0    0 -0.58149796301E+02  0.24514284668E+03  0.56174784846E+02  0.25813178909E+03  0.00000000000E+00 0. -1.
        -15    1    3    3    0    0  0.10561915902E+03 -0.14113588554E+03 -0.17511729912E+03  0.24848334173E+03  0.17770000000E+01 0.  1.
         15    1    3    3    0    0  0.60490044109E+02 -0.36979182990E+02 -0.16647783539E+03  0.18095450482E+03  0.17770000000E+01 0. -1.
</event>
<event>
 7    1  0.5285153E-006  0.5366748E+03  0.7546771E-02  0.9321291E-01
        -11   -1    0    0    0    0  0.00000000000E+00  0.00000000000E+00  0.50000000000E+03  0.50000000000E+03  0.00000000000E+00 0. -1.
         11   -1    0    0    0    0 -0.00000000000E+00 -0.00000000000E+00 -0.50000000000E+03  0.50000000000E+03  0.00000000000E+00 0.  1.
         23    2    1    2    0    0 -0.13244125921E+03 -0.46374813861E+02  0.16143065514E+03  0.23627176356E+03  0.10036522971E+03 0.  0.
        -11    1    1    2    0    0  0.56278131390E+02  0.16568939880E+02  0.29461874866E+03  0.30040300416E+03  0.00000000000E+00 0. -1.
         11    1    1    2    0    0  0.76163127819E+02  0.29805873981E+02 -0.45604940380E+03  0.46332523229E+03  0.00000000000E+00 0.  1.
        -15    1    3    3    0    0 -0.13271266220E+03 -0.33017392096E+02  0.90334468383E+02  0.16390934323E+03  0.17770000000E+01 0.  1.
         15    1    3    3    0    0  0.27140299421E+00 -0.13357421765E+02  0.71096186758E+02  0.72362420332E+02  0.17770000000E+01 0. -1.
</event>
<event>
 7    1  0.5285153E-006  0.3641896E+03  0.7546771E-02  0.9768560E-01
        -11   -1    0    0    0    0  0.00000000000E+00  0.00000000000E+00  0.50000000000E+03  0.50000000000E+03  0.00000000000E+00 0.  1.
         11   -1    0    0    0    0 -0.00000000000E+00 -0.00000000000E+00 -0.50000000000E+03  0.50000000000E+03  0.00000000000E+00 0. -1.
         23    2    1    2    0    0 -0.15882754369E+02  0.16898113099E+03 -0.13966511911E+03  0.23917832856E+03  0.94302931221E+02 0.  0.
        -11    1    1    2    0    0 -0.23857653469E+03 -0.22124809078E+03  0.31062503110E+03  0.44984151712E+03  0.00000000000E+00 0.  1.
         11    1    1    2    0    0  0.25445928906E+03  0.52266959790E+02 -0.17095991199E+03  0.31098015432E+03  0.00000000000E+00 0. -1.
        -15    1    3    3    0    0 -0.31579720795E+02  0.12833740798E+02 -0.99158911439E+01  0.35545271057E+02  0.17770000000E+01 0.  1.
         15    1    3    3    0    0  0.15696966426E+02  0.15614739020E+03 -0.12974922797E+03  0.20363305750E+03  0.17770000000E+01 0. -1.
</event>
<event>
 7    1  0.5285153E-006  0.5356464E+03  0.7546771E-02  0.9323401E-01
        -11   -1    0    0    0    0  0.00000000000E+00  0.00000000000E+00  0.50000000000E+03  0.50000000000E+03  0.00000000000E+00 0.  1.
         11   -1    0    0    0    0 -0.00000000000E+00 -0.00000000000E+00 -0.50000000000E+03  0.50000000000E+03  0.00000000000E+00 0. -1.
         23    2    1    2    0    0  0.35482657890E+02  0.13858001589E+03 -0.15428972658E+03  0.22973063463E+03  0.92235594773E+02 0.  0.
        -11    1    1    2    0    0  0.15797981410E+03 -0.22159643459E+03  0.37624686992E+03  0.46435364606E+03  0.00000000000E+00 0.  1.
         11    1    1    2    0    0 -0.19346247199E+03  0.83016418704E+02 -0.22195714334E+03  0.30591571931E+03  0.00000000000E+00 0. -1.
        -15    1    3    3    0    0  0.91611119584E+01  0.35691113215E+02  0.60667183550E+01  0.37386419131E+02  0.17770000000E+01 0.  1.
         15    1    3    3    0    0  0.26321545931E+02  0.10288890268E+03 -0.16035644493E+03  0.19234421550E+03  0.17770000000E+01 0. -1.
</event>
<event>
 7    1  0.5285153E-006  0.3596935E+03  0.7546771E-02  0.9783615E-01
        -11   -1    0    0    0    0  0.00000000000E+00  0.00000000000E+00  0.50000000000E+03  0.50000000000E+03  0.00000000000E+00 0.  1.
         11   -1    0    0    0    0 -0.00000000000E+00 -0.00000000000E+00 -0.50000000000E+03  0.50000000000E+03  0.00000000000E+00 0. -1.
         23    2    1    2    0    0 -0.87239669475E+02  0.25617188576E+03  0.97695232295E+02  0.30326162690E+03  0.95856460158E+02 0.  0.
        -11    1    1    2    0    0  0.12110347350E+03  0.66072880926E+02  0.20910690216E+03  0.25051421800E+03  0.00000000000E+00 0.  1.
         11    1    1    2    0    0 -0.33863804028E+02 -0.32224476669E+03 -0.30680213446E+03  0.44622415509E+03  0.00000000000E+00 0. -1.
        -15    1    3    3    0    0 -0.34479411307E+02  0.31902126143E+02  0.48747763800E+02  0.67720585209E+02  0.17770000000E+01 0.  1.
         15    1    3    3    0    0 -0.52760258168E+02  0.22426975962E+03  0.48947468495E+02  0.23554104169E+03  0.17770000000E+01 0. -1.
</event>
<event>
 7    1  0.5285153E-006  0.4306882E+03  0.7546771E-02  0.9569835E-01
        -11   -1    0    0    0    0  0.00000000000E+00  0.00000000000E+00  0.50000000000E+03  0.50000000000E+03  0.00000000000E+00 0.  1.
         11   -1    0    0    0    0 -0.00000000000E+00 -0.00000000000E+00 -0.50000000000E+03  0.50000000000E+03  0.00000000000E+00 0.  1.
         23    2    1    2    0    0 -0.30644082712E+02  0.70438192487E+02  0.60979832297E+02  0.13305802556E+03  0.89918293206E+02 0.  0.
        -11    1    1    2    0    0  0.11627331782E+03 -0.41941861589E+03  0.13749645018E+03  0.45643918939E+03  0.00000000000E+00 0.  1.
         11    1    1    2    0    0 -0.85629235108E+02  0.34898042341E+03 -0.19847628248E+03  0.41050278505E+03  0.00000000000E+00 0.  1.
        -15    1    3    3    0    0 -0.16844524511E+02 -0.19875544121E+02  0.74563442257E+01  0.27157504641E+02  0.17770000000E+01 0. -1.
         15    1    3    3    0    0 -0.13799558201E+02  0.90313736608E+02  0.53523488071E+02  0.10590052092E+03  0.17770000000E+01 0.  1.
</event>
<event>
 6    1  0.5285153E-006  0.4802439E+03  0.7546771E-02  0.9445134E-01
        -11   -1    0    0    0    0  0.00000000000E+00  0.00000000000E+00  0.50000000000E+03  0.50000000000E+03  0.00000000000E+00 0.  1.
         11   -1    0    0    0    0 -0.00000000000E+00 -0.00000000000E+00 -0.50000000000E+03  0.50000000000E+03  0.00000000000E+00 0. -1.
        -11    1    1    2    0    0  0.79970591678E+02  0.12111293618E+01  0.47369954849E+03  0.48040402226E+03  0.00000000000E+00 0.  1.
         11    1    1    2    0    0 -0.41917244624E+02 -0.65996726699E+01 -0.47697088100E+02  0.63840608467E+02  0.00000000000E+00 0. -1.
        -15    1    1    2    0    0  0.58730439365E+02 -0.18539022485E+02 -0.18285199039E+03  0.19295327927E+03  0.17770000000E+01 0.  1.
         15    1    1    2    0    0 -0.96783786419E+02  0.23927565793E+02 -0.24315047000E+03  0.26280209000E+03  0.17770000000E+01 0. -1.
</event>
<event>
 7    1  0.5285153E-006  0.5355817E+03  0.7546771E-02  0.9323534E-01
        -11   -1    0    0    0    0  0.00000000000E+00  0.00000000000E+00  0.50000000000E+03  0.50000000000E+03  0.00000000000E+00 0. -1.
         11   -1    0    0    0    0 -0.00000000000E+00 -0.00000000000E+00 -0.50000000000E+03  0.50000000000E+03  0.00000000000E+00 0. -1.
         23    2    1    2    0    0 -0.85465430092E+02  0.71538081355E+01 -0.99402843944E+02  0.16394127015E+03  0.98185019028E+02 0.  0.
        -11    1    1    2    0    0  0.17815012168E+02 -0.91504010681E+02  0.45496590655E+03  0.46441827564E+03  0.00000000000E+00 0. -1.
         11    1    1    2    0    0  0.67650417924E+02  0.84350202545E+02 -0.35556306261E+03  0.37164045421E+03  0.00000000000E+00 0. -1.
        -15    1    3    3    0    0 -0.32854881775E+02 -0.32659793372E+02 -0.84341901253E+02  0.96243542098E+02  0.17770000000E+01 0. -1.
         15    1    3    3    0    0 -0.52610548317E+02  0.39813601508E+02 -0.15060942691E+02  0.67697728049E+02  0.17770000000E+01 0.  1.
</event>
<event>
 7    1  0.5285153E-006  0.5278043E+03  0.7546771E-02  0.9339658E-01
        -11   -1    0    0    0    0  0.00000000000E+00  0.00000000000E+00  0.50000000000E+03  0.50000000000E+03  0.00000000000E+00 0.  1.
         11   -1    0    0    0    0 -0.00000000000E+00 -0.00000000000E+00 -0.50000000000E+03  0.50000000000E+03  0.00000000000E+00 0. -1.
         23    2    1    2    0    0 -0.93509281057E+02  0.84712290210E+02  0.18631216133E+03  0.24350501967E+03  0.93071560588E+02 0.  0.
        -11    1    1    2    0    0 -0.11302335387E+02 -0.74977342634E+02  0.27400135005E+03  0.28429928689E+03  0.00000000000E+00 0.  1.
         11    1    1    2    0    0  0.10481161644E+03 -0.97349475764E+01 -0.46031351138E+03  0.47219569344E+03  0.00000000000E+00 0. -1.
        -15    1    3    3    0    0 -0.32195752471E+02 -0.18809706464E+01  0.39841670378E+01  0.32544367312E+02  0.17770000000E+01 0.  1.
         15    1    3    3    0    0 -0.61313528586E+02  0.86593260856E+02  0.18232799429E+03  0.21096065236E+03  0.17770000000E+01 0. -1.
</event>
<event>
 7    1  0.5285153E-006  0.3879991E+03  0.7546771E-02  0.9692540E-01
        -11   -1    0    0    0    0  0.00000000000E+00  0.00000000000E+00  0.50000000000E+03  0.50000000000E+03  0.00000000000E+00 0.  1.
         11   -1    0    0    0    0 -0.00000000000E+00 -0.00000000000E+00 -0.50000000000E+03  0.50000000000E+03  0.00000000000E+00 0. -1.
         23    2    1    2    0    0 -0.17123137985E+03  0.72661743607E+02  0.26771420252E+03  0.33731773621E+03  0.86674370527E+02 0.  0.
        -11    1    1    2    0    0  0.76047644765E+02 -0.70738348620E+02  0.17844984251E+03  0.20647398028E+03  0.00000000000E+00 0.  1.
         11    1    1    2    0    0  0.95183735085E+02 -0.19233949867E+01 -0.44616404502E+03  0.45620828351E+03  0.00000000000E+00 0. -1.
        -15    1    3    3    0    0 -0.11629085953E+03  0.16905845077E+02  0.10877160751E+03  0.16013679133E+03  0.17770000000E+01 0.  1.
         15    1    3    3    0    0 -0.54940520321E+02  0.55755898530E+02  0.15894259501E+03  0.17718094489E+03  0.17770000000E+01 0. -1.
</event>
<event>
 7    1  0.5285153E-006  0.5135865E+03  0.7546771E-02  0.9369912E-01
        -11   -1    0    0    0    0  0.00000000000E+00  0.00000000000E+00  0.50000000000E+03  0.50000000000E+03  0.00000000000E+00 0.  1.
         11   -1    0    0    0    0 -0.00000000000E+00 -0.00000000000E+00 -0.50000000000E+03  0.50000000000E+03  0.00000000000E+00 0.  1.
         23    2    1    2    0    0  0.13114356375E+02 -0.14926431914E+03  0.32004948006E+03  0.36197665336E+03  0.78381149387E+02 0.  0.
        -11    1    1    2    0    0 -0.18921911272E+02  0.20611335963E+02  0.14900567494E+03  0.15160988444E+03  0.00000000000E+00 0.  1.
         11    1    1    2    0    0  0.58075548969E+01  0.12865298318E+03 -0.46905515500E+03  0.48641346220E+03  0.00000000000E+00 0.  1.
        -15    1    3    3    0    0 -0.30330835250E+02 -0.59477954870E+02  0.98569146035E+02  0.11906561620E+03  0.17770000000E+01 0. -1.
         15    1    3    3    0    0  0.43445191625E+02 -0.89786364273E+02  0.22148033403E+03  0.24291103716E+03  0.17770000000E+01 0.  1.
</event>
<event>
 7    1  0.5285153E-006  0.5313290E+03  0.7546771E-02  0.9332314E-01
        -11   -1    0    0    0    0  0.00000000000E+00  0.00000000000E+00  0.50000000000E+03  0.50000000000E+03  0.00000000000E+00 0.  1.
         11   -1    0    0    0    0 -0.00000000000E+00 -0.00000000000E+00 -0.50000000000E+03  0.50000000000E+03  0.00000000000E+00 0. -1.
         23    2    1    2    0    0 -0.15717190665E+03 -0.34390275451E+02 -0.32461012412E+03  0.37370566142E+03  0.91643272590E+02 0.  0.
        -11    1    1    2    0    0  0.14553421704E+03 -0.72896707801E+02  0.43949784489E+03  0.46867098695E+03  0.00000000000E+00 0.  1.
         11    1    1    2    0    0  0.11637689616E+02  0.10728698325E+03 -0.11488772077E+03  0.15762335163E+03  0.00000000000E+00 0. -1.
        -15    1    3    3    0    0 -0.84188156504E+01  0.22034282144E+02 -0.24666214252E+02  0.34175516106E+02  0.17770000000E+01 0.  1.
         15    1    3    3    0    0 -0.14875309100E+03 -0.56424557595E+02 -0.29994390987E+03  0.33953014532E+03  0.17770000000E+01 0. -1.
</event>
<event>
 7    1  0.5285153E-006  0.5321371E+03  0.7546771E-02  0.9330639E-01
        -11   -1    0    0    0    0  0.00000000000E+00  0.00000000000E+00  0.50000000000E+03  0.50000000000E+03  0.00000000000E+00 0. -1.
         11   -1    0    0    0    0 -0.00000000000E+00 -0.00000000000E+00 -0.50000000000E+03  0.50000000000E+03  0.00000000000E+00 0.  1.
         23    2    1    2    0    0 -0.49670906465E+02  0.39884898600E+02 -0.22329577730E+03  0.25054948491E+03  0.94106514877E+02 0.  0.
        -11    1    1    2    0    0  0.29766797484E+02  0.12681445190E+03  0.44936372698E+03  0.46786293567E+03  0.00000000000E+00 0. -1.
         11    1    1    2    0    0  0.19904108981E+02 -0.16669935050E+03 -0.22606794968E+03  0.28158757942E+03  0.00000000000E+00 0.  1.
        -15    1    3    3    0    0 -0.30798142615E+02 -0.26809203459E+02 -0.11411418588E+03  0.12121247512E+03  0.17770000000E+01 0.  1.
         15    1    3    3    0    0 -0.18872763850E+02  0.66694102059E+02 -0.10918159143E+03  0.12933700979E+03  0.17770000000E+01 0. -1.
</event>
<event>
 6    1  0.5285153E-006  0.1000000E+04  0.7546771E-02  0.8684367E-01
        -11   -1    0    0    0    0  0.00000000000E+00  0.00000000000E+00  0.50000000000E+03  0.50000000000E+03  0.00000000000E+00 0.  1.
         11   -1    0    0    0    0 -0.00000000000E+00 -0.00000000000E+00 -0.50000000000E+03  0.50000000000E+03  0.00000000000E+00 0.  1.
        -11    1    1    2    0    0 -0.86347247150E+02 -0.21395027942E+02  0.24711092154E+03  0.26263549238E+03  0.00000000000E+00 0.  1.
         11    1    1    2    0    0 -0.26066517760E+02 -0.63105179667E+02  0.19427562746E+03  0.20592412796E+03  0.00000000000E+00 0.  1.
        -15    1    1    2    0    0  0.46699614834E+02 -0.11461424774E+02  0.22552863424E+02  0.53141393105E+02  0.17770000000E+01 0. -1.
         15    1    1    2    0    0  0.65714150076E+02  0.95961632382E+02 -0.46393941243E+03  0.47829898656E+03  0.17770000000E+01 0.  1.
</event>
<event>
 7    1  0.5285153E-006  0.4242540E+03  0.7546771E-02  0.9587333E-01
        -11   -1    0    0    0    0  0.00000000000E+00  0.00000000000E+00  0.50000000000E+03  0.50000000000E+03  0.00000000000E+00 0.  1.
         11   -1    0    0    0    0 -0.00000000000E+00 -0.00000000000E+00 -0.50000000000E+03  0.50000000000E+03  0.00000000000E+00 0. -1.
         23    2    1    2    0    0 -0.76031759906E+02  0.80891862150E+02 -0.35694829675E+03  0.38638493453E+03  0.97759445607E+02 0.  0.
        -11    1    1    2    0    0 -0.30694584697E+02 -0.14566271573E+03  0.43944728450E+03  0.46397596936E+03  0.00000000000E+00 0.  1.
         11    1    1    2    0    0  0.10672634460E+03  0.64770853575E+02 -0.82498987757E+02  0.14963909612E+03  0.00000000000E+00 0. -1.
        -15    1    3    3    0    0  0.13112887265E+01 -0.14655976872E+02 -0.89627719466E+01  0.17320685499E+02  0.17770000000E+01 0.  1.
         15    1    3    3    0    0 -0.77343048633E+02  0.95547839023E+02 -0.34798552480E+03  0.36906424903E+03  0.17770000000E+01 0. -1.
</event>
<event>
 7    1  0.5285153E-006  0.3450846E+03  0.7546771E-02  0.9834208E-01
        -11   -1    0    0    0    0  0.00000000000E+00  0.00000000000E+00  0.50000000000E+03  0.50000000000E+03  0.00000000000E+00 0.  1.
         11   -1    0    0    0    0 -0.00000000000E+00 -0.00000000000E+00 -0.50000000000E+03  0.50000000000E+03  0.00000000000E+00 0. -1.
         23    2    1    2    0    0 -0.62743162533E+02  0.11837972815E+03  0.22808296653E+03  0.28843218565E+03  0.11498183168E+03 0.  0.
        -11    1    1    2    0    0  0.22717552177E+02  0.27180743929E+03 -0.36963794991E+02  0.27524842119E+03  0.00000000000E+00 0.  1.
         11    1    1    2    0    0  0.40025610356E+02 -0.39018716743E+03 -0.19111917154E+03  0.43631939316E+03  0.00000000000E+00 0. -1.
        -15    1    3    3    0    0 -0.66550720088E+02  0.25136885247E+02  0.15265567356E+03  0.16842735449E+03  0.17770000000E+01 0.  1.
         15    1    3    3    0    0  0.38075575551E+01  0.93242842898E+02  0.75427292979E+02  0.12000483116E+03  0.17770000000E+01 0. -1.
</event>
<event>
 7    1  0.5285153E-006  0.5208980E+03  0.7546771E-02  0.9354226E-01
        -11   -1    0    0    0    0  0.00000000000E+00  0.00000000000E+00  0.50000000000E+03  0.50000000000E+03  0.00000000000E+00 0.  1.
         11   -1    0    0    0    0 -0.00000000000E+00 -0.00000000000E+00 -0.50000000000E+03  0.50000000000E+03  0.00000000000E+00 0. -1.
         23    2    1    2    0    0  0.47104772504E+02  0.14014799347E+01 -0.12220596294E+03  0.15879060641E+03  0.89773802228E+02 0.  0.
        -11    1    1    2    0    0 -0.14603138069E+02 -0.11047531268E+03  0.46596211909E+03  0.47910201709E+03  0.00000000000E+00 0.  1.
         11    1    1    2    0    0 -0.32501634435E+02  0.10907383275E+03 -0.34375615615E+03  0.36210737651E+03  0.00000000000E+00 0. -1.
        -15    1    3    3    0    0  0.60154156074E+02 -0.96711659778E+01 -0.12705096823E+03  0.14091543635E+03  0.17770000000E+01 0. -1.
         15    1    3    3    0    0 -0.13049383570E+02  0.11072645913E+02  0.48450052965E+01  0.17875170052E+02  0.17770000000E+01 0.  1.
</event>
<event>
 7    1  0.5285153E-006  0.4329231E+03  0.7546771E-02  0.9563833E-01
        -11   -1    0    0    0    0  0.00000000000E+00  0.00000000000E+00  0.50000000000E+03  0.50000000000E+03  0.00000000000E+00 0.  1.
         11   -1    0    0    0    0 -0.00000000000E+00 -0.00000000000E+00 -0.50000000000E+03  0.50000000000E+03  0.00000000000E+00 0. -1.
         23    2    1    2    0    0 -0.41071041140E+01  0.40426788528E+01 -0.43008483412E+03  0.43974172850E+03  0.91469184374E+02 0.  0.
        -11    1    1    2    0    0  0.13512502492E+03 -0.92193454906E+01  0.40462270315E+03  0.42668876314E+03  0.00000000000E+00 0.  1.
         11    1    1    2    0    0 -0.13101792080E+03  0.51766666378E+01  0.25462130967E+02  0.13356950836E+03  0.00000000000E+00 0. -1.
        -15    1    3    3    0    0  0.22881696221E+02 -0.36017592553E+02 -0.17672650052E+03  0.18181378581E+03  0.17770000000E+01 0. -1.
         15    1    3    3    0    0 -0.26988800335E+02  0.40060271405E+02 -0.25335833360E+03  0.25792794269E+03  0.17770000000E+01 0.  1.
</event>
<event>
 7    1  0.5285153E-006  0.3500002E+03  0.7546771E-02  0.9816890E-01
        -11   -1    0    0    0    0  0.00000000000E+00  0.00000000000E+00  0.50000000000E+03  0.50000000000E+03  0.00000000000E+00 0.  1.
         11   -1    0    0    0    0 -0.00000000000E+00 -0.00000000000E+00 -0.50000000000E+03  0.50000000000E+03  0.00000000000E+00 0. -1.
         23    2    1    2    0    0  0.14912094914E+03  0.69734309752E+02 -0.20961062734E+03  0.28214895727E+03  0.92582328576E+02 0.  0.
        -11    1    1    2    0    0 -0.34595316749E+02 -0.72313466428E+02  0.44707214855E+03  0.45420213494E+03  0.00000000000E+00 0.  1.
         11    1    1    2    0    0 -0.11452563239E+03  0.25791566762E+01 -0.23746152122E+03  0.26364890780E+03  0.00000000000E+00 0. -1.
        -15    1    3    3    0    0  0.12429759018E+03  0.31626764680E+02 -0.19671957617E+03  0.23484440071E+03  0.17770000000E+01 0. -1.
         15    1    3    3    0    0  0.24823358965E+02  0.38107545072E+02 -0.12891051167E+02  0.47304556555E+02  0.17770000000E+01 0.  1.
</event>
<event>
 7    1  0.5285153E-006  0.3373720E+03  0.7546771E-02  0.9862014E-01
        -11   -1    0    0    0    0  0.00000000000E+00  0.00000000000E+00  0.50000000000E+03  0.50000000000E+03  0.00000000000E+00 0.  1.
         11   -1    0    0    0    0 -0.00000000000E+00 -0.00000000000E+00 -0.50000000000E+03  0.50000000000E+03  0.00000000000E+00 0. -1.
         23    2    1    2    0    0 -0.10703702517E+03  0.25359273943E+02 -0.23669028579E+03  0.27653492890E+03  0.91374274159E+02 0.  0.
        -11    1    1    2    0    0 -0.47190950015E+02  0.19260148409E+03  0.37392671932E+03  0.42325348062E+03  0.00000000000E+00 0.  1.
         11    1    1    2    0    0  0.15422797519E+03 -0.21796075804E+03 -0.13723643352E+03  0.30021159048E+03  0.00000000000E+00 0. -1.
        -15    1    3    3    0    0 -0.10482941065E+03  0.44734639118E+02 -0.15423432602E+03  0.19178576153E+03  0.17770000000E+01 0.  1.
         15    1    3    3    0    0 -0.22076145186E+01 -0.19375365175E+02 -0.82455959777E+02  0.84749167366E+02  0.17770000000E+01 0. -1.
</event>
<event>
 7    1  0.5285153E-006  0.4707109E+03  0.7546771E-02  0.9467842E-01
        -11   -1    0    0    0    0  0.00000000000E+00  0.00000000000E+00  0.50000000000E+03  0.50000000000E+03  0.00000000000E+00 0.  1.
         11   -1    0    0    0    0 -0.00000000000E+00 -0.00000000000E+00 -0.50000000000E+03  0.50000000000E+03  0.00000000000E+00 0. -1.
         23    2    1    2    0    0 -0.12979680564E+03 -0.10335216065E+03 -0.41407350399E+03  0.45542989587E+03  0.91818535614E+02 0.  0.
        -11    1    1    2    0    0  0.10229524007E+03  0.69840853857E+02  0.46295274126E+03  0.47923616480E+03  0.00000000000E+00 0.  1.
         11    1    1    2    0    0  0.27501565576E+02  0.33511306797E+02 -0.48879237271E+02  0.65333939331E+02  0.00000000000E+00 0. -1.
        -15    1    3    3    0    0 -0.47356223953E+02  0.64002717904E+00 -0.54936698462E+02  0.72554945722E+02  0.17770000000E+01 0.  1.
         15    1    3    3    0    0 -0.82440581688E+02 -0.10399218783E+03 -0.35913680553E+03  0.38287495015E+03  0.17770000000E+01 0. -1.
</event>
<event>
 7    1  0.5285153E-006  0.5267199E+03  0.7546771E-02  0.9341930E-01
        -11   -1    0    0    0    0  0.00000000000E+00  0.00000000000E+00  0.50000000000E+03  0.50000000000E+03  0.00000000000E+00 0.  1.
         11   -1    0    0    0    0 -0.00000000000E+00 -0.00000000000E+00 -0.50000000000E+03  0.50000000000E+03  0.00000000000E+00 0. -1.
         23    2    1    2    0    0 -0.35131656119E+02  0.35734991460E+02 -0.10038874937E+03  0.14061410936E+03  0.84753783838E+02 0.  0.
        -11    1    1    2    0    0  0.14606545440E+02  0.92993294796E+02  0.46382430265E+03  0.47328013668E+03  0.00000000000E+00 0.  1.
         11    1    1    2    0    0  0.20525110679E+02 -0.12872828626E+03 -0.36343555328E+03  0.38610575396E+03  0.00000000000E+00 0. -1.
        -15    1    3    3    0    0  0.13687885859E+02 -0.14066071874E+02 -0.17301110330E+01  0.19782912082E+02  0.17770000000E+01 0. -1.
         15    1    3    3    0    0 -0.48819541978E+02  0.49801063334E+02 -0.98658638340E+02  0.12083119728E+03  0.17770000000E+01 0.  1.
</event>
<event>
 7    1  0.5285153E-006  0.3894939E+03  0.7546771E-02  0.9687963E-01
        -11   -1    0    0    0    0  0.00000000000E+00  0.00000000000E+00  0.50000000000E+03  0.50000000000E+03  0.00000000000E+00 0. -1.
         11   -1    0    0    0    0 -0.00000000000E+00 -0.00000000000E+00 -0.50000000000E+03  0.50000000000E+03  0.00000000000E+00 0.  1.
         23    2    1    2    0    0 -0.14345841383E+03 -0.63307292325E+02 -0.87614083494E+02  0.20057128680E+03  0.89243956096E+02 0.  0.
        -11    1    1    2    0    0 -0.28977639823E+02  0.13190806750E+03  0.40767163604E+03  0.42945966599E+03  0.00000000000E+00 0. -1.
         11    1    1    2    0    0  0.17243605366E+03 -0.68600775173E+02 -0.32005755255E+03  0.36996904721E+03  0.00000000000E+00 0.  1.
        -15    1    3    3    0    0 -0.12054788968E+01 -0.15223989453E+02 -0.40285354500E+02  0.43119491537E+02  0.17770000000E+01 0.  1.
         15    1    3    3    0    0 -0.14225293494E+03 -0.48083302873E+02 -0.47328728993E+02  0.15745179526E+03  0.17770000000E+01 0. -1.
</event>
<event>
 7    1  0.5285153E-006  0.5397784E+03  0.7546771E-02  0.9314953E-01
        -11   -1    0    0    0    0  0.00000000000E+00  0.00000000000E+00  0.50000000000E+03  0.50000000000E+03  0.00000000000E+00 0. -1.
         11   -1    0    0    0    0 -0.00000000000E+00 -0.00000000000E+00 -0.50000000000E+03  0.50000000000E+03  0.00000000000E+00 0. -1.
         23    2    1    2    0    0  0.79896701638E+02  0.78589245670E+02 -0.14451267130E+03  0.20456096217E+03  0.91659820037E+02 0.  0.
        -11    1    1    2    0    0  0.51600785875E+02 -0.65612112516E+02  0.45258850383E+03  0.46022162510E+03  0.00000000000E+00 0. -1.
         11    1    1    2    0    0 -0.13149748751E+03 -0.12977133153E+02 -0.30807583253E+03  0.33521741273E+03  0.00000000000E+00 0. -1.
        -15    1    3    3    0    0  0.69110061179E+01 -0.99278355456E+01 -0.62097295301E+02  0.63289459920E+02  0.17770000000E+01 0.  1.
         15    1    3    3    0    0  0.72985695520E+02  0.88517081215E+02 -0.82415375997E+02  0.14127150225E+03  0.17770000000E+01 0. -1.
</event>
<event>
 7    1  0.5285153E-006  0.5137517E+03  0.7546771E-02  0.9369554E-01
        -11   -1    0    0    0    0  0.00000000000E+00  0.00000000000E+00  0.50000000000E+03  0.50000000000E+03  0.00000000000E+00 0.  1.
         11   -1    0    0    0    0 -0.00000000000E+00 -0.00000000000E+00 -0.50000000000E+03  0.50000000000E+03  0.00000000000E+00 0.  1.
         23    2    1    2    0    0  0.57268870680E+02  0.31045128214E+02  0.16254552161E+03  0.19872832990E+03  0.93959453893E+02 0.  0.
        -11    1    1    2    0    0  0.23022643835E+02  0.46232577784E+02  0.31076074510E+03  0.31502338655E+03  0.00000000000E+00 0.  1.
         11    1    1    2    0    0 -0.80291514515E+02 -0.77277705998E+02 -0.47330626671E+03  0.48624828355E+03  0.00000000000E+00 0.  1.
        -15    1    3    3    0    0  0.40951059455E+01  0.53245795625E+02  0.54852514910E+02  0.76575719163E+02  0.17770000000E+01 0. -1.
         15    1    3    3    0    0  0.53173764735E+02 -0.22200667411E+02  0.10769300670E+03  0.12215261074E+03  0.17770000000E+01 0.  1.
</event>
<event>
 7    1  0.5285153E-006  0.3960321E+03  0.7546771E-02  0.9668198E-01
        -11   -1    0    0    0    0  0.00000000000E+00  0.00000000000E+00  0.50000000000E+03  0.50000000000E+03  0.00000000000E+00 0. -1.
         11   -1    0    0    0    0 -0.00000000000E+00 -0.00000000000E+00 -0.50000000000E+03  0.50000000000E+03  0.00000000000E+00 0.  1.
         23    2    1    2    0    0  0.15808189116E+03 -0.43657417259E+02  0.47208749976E+02  0.18975922215E+03  0.82970126673E+02 0.  0.
        -11    1    1    2    0    0 -0.60992551082E+02  0.23775994818E+02  0.37289922597E+03  0.37860166659E+03  0.00000000000E+00 0. -1.
         11    1    1    2    0    0 -0.97089340082E+02  0.19881422441E+02 -0.42010797595E+03  0.43163911126E+03  0.00000000000E+00 0.  1.
        -15    1    3    3    0    0  0.87124662626E+01  0.19507243109E+02  0.81632516345E+01  0.22939834532E+02  0.17770000000E+01 0. -1.
         15    1    3    3    0    0  0.14936942490E+03 -0.63164660368E+02  0.39045498342E+02  0.16681938762E+03  0.17770000000E+01 0.  1.
</event>
<event>
 7    1  0.5285153E-006  0.5052416E+03  0.7546771E-02  0.9388157E-01
        -11   -1    0    0    0    0  0.00000000000E+00  0.00000000000E+00  0.50000000000E+03  0.50000000000E+03  0.00000000000E+00 0.  1.
         11   -1    0    0    0    0 -0.00000000000E+00 -0.00000000000E+00 -0.50000000000E+03  0.50000000000E+03  0.00000000000E+00 0.  1.
         23    2    1    2    0    0  0.18922901755E+02 -0.68365924736E+02 -0.47747487705E+03  0.49475844708E+03  0.10849740486E+03 0.  0.
        -11    1    1    2    0    0 -0.64203759651E+02  0.18327168908E+02  0.38507936446E+03  0.39082492859E+03  0.00000000000E+00 0.  1.
         11    1    1    2    0    0  0.45280857895E+02  0.50038755828E+02  0.92395512593E+02  0.11441662433E+03  0.00000000000E+00 0.  1.
        -15    1    3    3    0    0  0.11323056722E+02  0.28722438928E+02 -0.87507266847E+02  0.92810934656E+02  0.17770000000E+01 0. -1.
         15    1    3    3    0    0  0.75998450330E+01 -0.97088363665E+02 -0.38996761021E+03  0.40194751242E+03  0.17770000000E+01 0.  1.
</event>
<event>
 6    1  0.5285153E-006  0.5416892E+03  0.7546771E-02  0.9311073E-01
        -11   -1    0    0    0    0  0.00000000000E+00  0.00000000000E+00  0.50000000000E+03  0.50000000000E+03  0.00000000000E+00 0.  1.
         11   -1    0    0    0    0 -0.00000000000E+00 -0.00000000000E+00 -0.50000000000E+03  0.50000000000E+03  0.00000000000E+00 0.  1.
        -11    1    1    2    0    0 -0.66659218120E+02 -0.32983173804E+02  0.22282748948E+03  0.23491153906E+03  0.00000000000E+00 0.  1.
         11    1    1    2    0    0  0.11918878373E+03  0.15864547796E+03 -0.41312760441E+03  0.45831078034E+03  0.00000000000E+00 0.  1.
        -15    1    1    2    0    0  0.53767932205E+02 -0.12073015454E+03  0.85524234398E+02  0.15743034379E+03  0.17770000000E+01 0.  1.
         15    1    1    2    0    0 -0.10629749782E+03 -0.49321496157E+01  0.10477588054E+03  0.14934733681E+03  0.17770000000E+01 0. -1.
</event>
<event>
 7    1  0.5285153E-006  0.5255272E+03  0.7546771E-02  0.9344435E-01
        -11   -1    0    0    0    0  0.00000000000E+00  0.00000000000E+00  0.50000000000E+03  0.50000000000E+03  0.00000000000E+00 0. -1.
         11   -1    0    0    0    0 -0.00000000000E+00 -0.00000000000E+00 -0.50000000000E+03  0.50000000000E+03  0.00000000000E+00 0. -1.
         23    2    1    2    0    0 -0.11871298155E+03  0.96728868363E+02  0.36261478410E+03  0.40380083702E+03  0.90091000474E+02 0.  0.
        -11    1    1    2    0    0  0.71890638445E+02  0.42569870721E+02  0.88525967701E+02  0.12172635190E+03  0.00000000000E+00 0. -1.
         11    1    1    2    0    0  0.46822343104E+02 -0.13929873908E+03 -0.45114075180E+03  0.47447281108E+03  0.00000000000E+00 0. -1.
        -15    1    3    3    0    0 -0.11005286093E+03  0.67777322166E+02  0.19822243716E+03  0.23664464905E+03  0.17770000000E+01 0.  1.
         15    1    3    3    0    0 -0.86601206151E+01  0.28951546197E+02  0.16439234694E+03  0.16715618797E+03  0.17770000000E+01 0. -1.
</event>
<event>
 7    1  0.5285153E-006  0.5367789E+03  0.7546771E-02  0.9321077E-01
        -11   -1    0    0    0    0  0.00000000000E+00  0.00000000000E+00  0.50000000000E+03  0.50000000000E+03  0.00000000000E+00 0. -1.
         11   -1    0    0    0    0 -0.00000000000E+00 -0.00000000000E+00 -0.50000000000E+03  0.50000000000E+03  0.00000000000E+00 0.  1.
         23    2    1    2    0    0  0.65342679348E+02  0.21356786129E+02 -0.31470036391E+03  0.33466120342E+03  0.90752542495E+02 0.  0.
        -11    1    1    2    0    0  0.41056513508E+02  0.78285666313E+02  0.45470811724E+03  0.46322106465E+03  0.00000000000E+00 0. -1.
         11    1    1    2    0    0 -0.10639919286E+03 -0.99642452443E+02 -0.14000775333E+03  0.20211773193E+03  0.00000000000E+00 0.  1.
        -15    1    3    3    0    0  0.21180210503E+02  0.53577917223E+02 -0.13417729099E+03  0.14603389222E+03  0.17770000000E+01 0.  1.
         15    1    3    3    0    0  0.44162468845E+02 -0.32221131094E+02 -0.18052307292E+03  0.18862731120E+03  0.17770000000E+01 0. -1.
</event>
<event>
 7    1  0.5285153E-006  0.5201801E+03  0.7546771E-02  0.9355754E-01
        -11   -1    0    0    0    0  0.00000000000E+00  0.00000000000E+00  0.50000000000E+03  0.50000000000E+03  0.00000000000E+00 0.  1.
         11   -1    0    0    0    0 -0.00000000000E+00 -0.00000000000E+00 -0.50000000000E+03  0.50000000000E+03  0.00000000000E+00 0. -1.
         23    2    1    2    0    0  0.42399040330E+02 -0.36785032793E+02 -0.38003849092E+03  0.39491675826E+03  0.91537828874E+02 0.  0.
        -11    1    1    2    0    0 -0.79861192770E+02 -0.40278783479E+02  0.47140951509E+03  0.47981988436E+03  0.00000000000E+00 0.  1.
         11    1    1    2    0    0  0.37462152439E+02  0.77063816272E+02 -0.91371024175E+02  0.12526335738E+03  0.00000000000E+00 0. -1.
        -15    1    3    3    0    0  0.61939833921E+02 -0.18283907041E+02 -0.34339157446E+03  0.34941633537E+03  0.17770000000E+01 0. -1.
         15    1    3    3    0    0 -0.19540793591E+02 -0.18501125752E+02 -0.36646916457E+02  0.45500422889E+02  0.17770000000E+01 0.  1.
</event>
<event>
 7    1  0.5285153E-006  0.5194450E+03  0.7546771E-02  0.9357321E-01
        -11   -1    0    0    0    0  0.00000000000E+00  0.00000000000E+00  0.50000000000E+03  0.50000000000E+03  0.00000000000E+00 0. -1.
         11   -1    0    0    0    0 -0.00000000000E+00 -0.00000000000E+00 -0.50000000000E+03  0.50000000000E+03  0.00000000000E+00 0. -1.
         23    2    1    2    0    0 -0.88948864452E+01  0.25894831852E+02 -0.18414578499E+03  0.20757932331E+03  0.91814182000E+02 0.  0.
        -11    1    1    2    0    0  0.14505178647E+03  0.43067902666E+02  0.45611206526E+03  0.48055497196E+03  0.00000000000E+00 0. -1.
         11    1    1    2    0    0 -0.13615690002E+03 -0.68962734518E+02 -0.27196628028E+03  0.31186570472E+03  0.00000000000E+00 0. -1.
        -15    1    3    3    0    0  0.19894479175E+02  0.34444358844E+02 -0.28282483098E+02  0.48839131206E+02  0.17770000000E+01 0.  1.
         15    1    3    3    0    0 -0.28789365621E+02 -0.85495269918E+01 -0.15586330189E+03  0.15874019211E+03  0.17770000000E+01 0. -1.
</event>
<event>
 7    1  0.5285153E-006  0.5138085E+03  0.7546771E-02  0.9369431E-01
        -11   -1    0    0    0    0  0.00000000000E+00  0.00000000000E+00  0.50000000000E+03  0.50000000000E+03  0.00000000000E+00 0.  1.
         11   -1    0    0    0    0 -0.00000000000E+00 -0.00000000000E+00 -0.50000000000E+03  0.50000000000E+03  0.00000000000E+00 0. -1.
         23    2    1    2    0    0 -0.52477376388E+02 -0.44852423782E+02  0.21302477583E+03  0.24187496143E+03  0.91423885830E+02 0.  0.
        -11    1    1    2    0    0 -0.33805765826E+02 -0.15138189203E+03  0.22335746545E+03  0.27193356617E+03  0.00000000000E+00 0.  1.
         11    1    1    2    0    0  0.86283142214E+02  0.19623431581E+03 -0.43638224128E+03  0.48619147240E+03  0.00000000000E+00 0. -1.
        -15    1    3    3    0    0 -0.17079362020E+02 -0.57974580039E+02  0.18554128623E+03  0.19514477487E+03  0.17770000000E+01 0.  1.
         15    1    3    3    0    0 -0.35398014368E+02  0.13122156257E+02  0.27483489600E+02  0.46730186557E+02  0.17770000000E+01 0. -1.
</event>
<event>
 7    1  0.5285153E-006  0.4189576E+03  0.7546771E-02  0.9601988E-01
        -11   -1    0    0    0    0  0.00000000000E+00  0.00000000000E+00  0.50000000000E+03  0.50000000000E+03  0.00000000000E+00 0. -1.
         11   -1    0    0    0    0 -0.00000000000E+00 -0.00000000000E+00 -0.50000000000E+03  0.50000000000E+03  0.00000000000E+00 0.  1.
         23    2    1    2    0    0  0.27611109864E+03  0.17542240935E+02  0.25029466942E+03  0.38459809429E+03  0.93398091976E+02 0.  0.
        -11    1    1    2    0    0 -0.50969819177E+02  0.38514181606E+02  0.14421093393E+03  0.15772779754E+03  0.00000000000E+00 0. -1.
         11    1    1    2    0    0 -0.22514127946E+03 -0.56056422542E+02 -0.39450560334E+03  0.45767410817E+03  0.00000000000E+00 0.  1.
        -15    1    3    3    0    0  0.20124007332E+03  0.31897823827E+02  0.12848117337E+03  0.24088505125E+03  0.17770000000E+01 0. -1.
         15    1    3    3    0    0  0.74871025318E+02 -0.14355582892E+02  0.12181349605E+03  0.14371304304E+03  0.17770000000E+01 0.  1.
</event>
<event>
 7    1  0.5285153E-006  0.5312837E+03  0.7546771E-02  0.9332408E-01
        -11   -1    0    0    0    0  0.00000000000E+00  0.00000000000E+00  0.50000000000E+03  0.50000000000E+03  0.00000000000E+00 0.  1.
         11   -1    0    0    0    0 -0.00000000000E+00 -0.00000000000E+00 -0.50000000000E+03  0.50000000000E+03  0.00000000000E+00 0. -1.
         23    2    1    2    0    0 -0.44818894698E+01 -0.99492647891E+02 -0.20544642937E+03  0.24584255596E+03  0.91167168773E+02 0.  0.
        -11    1    1    2    0    0 -0.11250640510E+03  0.23305588073E+02  0.45441619862E+03  0.46871625019E+03  0.00000000000E+00 0.  1.
         11    1    1    2    0    0  0.11698829457E+03  0.76187059817E+02 -0.24896976925E+03  0.28544119385E+03  0.00000000000E+00 0. -1.
        -15    1    3    3    0    0 -0.34479398529E+02 -0.93138111393E+02 -0.18147314035E+03  0.20687966336E+03  0.17770000000E+01 0. -1.
         15    1    3    3    0    0  0.29997509059E+02 -0.63545364975E+01 -0.23973289022E+02  0.38962892595E+02  0.17770000000E+01 0.  1.
</event>
<event>
 7    1  0.5285153E-006  0.5139583E+03  0.7546771E-02  0.9369107E-01
        -11   -1    0    0    0    0  0.00000000000E+00  0.00000000000E+00  0.50000000000E+03  0.50000000000E+03  0.00000000000E+00 0.  1.
         11   -1    0    0    0    0 -0.00000000000E+00 -0.00000000000E+00 -0.50000000000E+03  0.50000000000E+03  0.00000000000E+00 0. -1.
         23    2    1    2    0    0  0.56422646254E+00 -0.84875910137E+02 -0.38975660861E+03  0.40857109503E+03  0.88407506814E+02 0.  0.
        -11    1    1    2    0    0 -0.56771519550E+02  0.69869186500E+02  0.47763149899E+03  0.48604172402E+03  0.00000000000E+00 0.  1.
         11    1    1    2    0    0  0.56207293087E+02  0.15006723636E+02 -0.87874890382E+02  0.10538718096E+03  0.00000000000E+00 0. -1.
        -15    1    3    3    0    0 -0.36209843529E+02 -0.35896311374E+02 -0.98383692881E+02  0.11082511761E+03  0.17770000000E+01 0.  1.
         15    1    3    3    0    0  0.36774069992E+02 -0.48979598762E+02 -0.29137291573E+03  0.29774597742E+03  0.17770000000E+01 0. -1.
</event>
<event>
 7    1  0.5285153E-006  0.5156293E+03  0.7546771E-02  0.9365501E-01
        -11   -1    0    0    0    0  0.00000000000E+00  0.00000000000E+00  0.50000000000E+03  0.50000000000E+03  0.00000000000E+00 0. -1.
         11   -1    0    0    0    0 -0.00000000000E+00 -0.00000000000E+00 -0.50000000000E+03  0.50000000000E+03  0.00000000000E+00 0.  1.
         23    2    1    2    0    0 -0.28981887489E+01 -0.16999514576E+03  0.18447081787E+03  0.26734795323E+03  0.92405066792E+02 0.  0.
        -11    1    1    2    0    0 -0.38249057232E+02 -0.66860746818E+02  0.23603025800E+03  0.24828135761E+03  0.00000000000E+00 0. -1.
         11    1    1    2    0    0  0.41147245981E+02  0.23685589258E+03 -0.42050107588E+03  0.48437068916E+03  0.00000000000E+00 0.  1.
        -15    1    3    3    0    0 -0.21306984234E+02 -0.15975858956E+03  0.12421761285E+03  0.20349439202E+03  0.17770000000E+01 0.  1.
         15    1    3    3    0    0  0.18408795485E+02 -0.10236556208E+02  0.60253205025E+02  0.63853561208E+02  0.17770000000E+01 0. -1.
</event>
<event>
 7    1  0.5285153E-006  0.5263606E+03  0.7546771E-02  0.9342684E-01
        -11   -1    0    0    0    0  0.00000000000E+00  0.00000000000E+00  0.50000000000E+03  0.50000000000E+03  0.00000000000E+00 0.  1.
         11   -1    0    0    0    0 -0.00000000000E+00 -0.00000000000E+00 -0.50000000000E+03  0.50000000000E+03  0.00000000000E+00 0.  1.
         23    2    1    2    0    0  0.12157229169E+03 -0.28549692406E+02 -0.19528553820E+03  0.24883667213E+03  0.90489451999E+02 0.  0.
        -11    1    1    2    0    0 -0.65709712587E+02  0.54246478651E+02  0.46591181972E+03  0.47363938870E+03  0.00000000000E+00 0.  1.
         11    1    1    2    0    0 -0.55862579104E+02 -0.25696786245E+02 -0.27062628152E+03  0.27752393918E+03  0.00000000000E+00 0.  1.
        -15    1    3    3    0    0  0.11928367291E+03 -0.40361950471E+02 -0.12477215869E+03  0.17728206616E+03  0.17770000000E+01 0.  1.
         15    1    3    3    0    0  0.22886187773E+01  0.11812258065E+02 -0.70513379504E+02  0.71554605964E+02  0.17770000000E+01 0. -1.
</event>
<event>
 7    1  0.5285153E-006  0.5300191E+03  0.7546771E-02  0.9335037E-01
        -11   -1    0    0    0    0  0.00000000000E+00  0.00000000000E+00  0.50000000000E+03  0.50000000000E+03  0.00000000000E+00 0.  1.
         11   -1    0    0    0    0 -0.00000000000E+00 -0.00000000000E+00 -0.50000000000E+03  0.50000000000E+03  0.00000000000E+00 0.  1.
         23    2    1    2    0    0 -0.25507206090E+03 -0.64226309062E+02 -0.28258932596E+03  0.39613410084E+03  0.88762174799E+02 0.  0.
        -11    1    1    2    0    0  0.37192825881E+03 -0.94631449460E+00  0.28731611739E+03  0.46998093209E+03  0.00000000000E+00 0.  1.
         11    1    1    2    0    0 -0.11685619791E+03  0.65172623557E+02 -0.47267914346E+01  0.13388496708E+03  0.00000000000E+00 0.  1.
        -15    1    3    3    0    0 -0.82089168694E+02 -0.25911385920E+02 -0.38005090218E+02  0.94114696773E+02  0.17770000000E+01 0. -1.
         15    1    3    3    0    0 -0.17298289220E+03 -0.38314923142E+02 -0.24458423574E+03  0.30201940406E+03  0.17770000000E+01 0.  1.
</event>
<event>
 7    1  0.5285153E-006  0.4411485E+03  0.7546771E-02  0.9542071E-01
        -11   -1    0    0    0    0  0.00000000000E+00  0.00000000000E+00  0.50000000000E+03  0.50000000000E+03  0.00000000000E+00 0. -1.
         11   -1    0    0    0    0 -0.00000000000E+00 -0.00000000000E+00 -0.50000000000E+03  0.50000000000E+03  0.00000000000E+00 0.  1.
         23    2    1    2    0    0 -0.13417153275E+03 -0.12786809162E+02 -0.38512140291E+03  0.41835597069E+03  0.92399786491E+02 0.  0.
        -11    1    1    2    0    0  0.73984802149E+02  0.95861140909E+02  0.44614114240E+03  0.46228241177E+03  0.00000000000E+00 0. -1.
         11    1    1    2    0    0  0.60186730600E+02 -0.83074331748E+02 -0.61019739494E+02  0.11936161755E+03  0.00000000000E+00 0.  1.
        -15    1    3    3    0    0 -0.50562278310E+02  0.34401209010E+02 -0.20885544867E+03  0.21763212846E+03  0.17770000000E+01 0. -1.
         15    1    3    3    0    0 -0.83609254439E+02 -0.47188018172E+02 -0.17626595424E+03  0.20072384223E+03  0.17770000000E+01 0.  1.
</event>
<event>
 7    1  0.5285153E-006  0.3432414E+03  0.7546771E-02  0.9840782E-01
        -11   -1    0    0    0    0  0.00000000000E+00  0.00000000000E+00  0.50000000000E+03  0.50000000000E+03  0.00000000000E+00 0. -1.
         11   -1    0    0    0    0 -0.00000000000E+00 -0.00000000000E+00 -0.50000000000E+03  0.50000000000E+03  0.00000000000E+00 0. -1.
         23    2    1    2    0    0 -0.21197415358E+03 -0.12926346872E+03 -0.47404357698E+02  0.26846198414E+03  0.90457601496E+02 0.  0.
        -11    1    1    2    0    0 -0.39847702907E+02  0.56554114779E+02  0.33520474257E+03  0.34226952357E+03  0.00000000000E+00 0. -1.
         11    1    1    2    0    0  0.25182185649E+03  0.72709353942E+02 -0.28780038487E+03  0.38926849229E+03  0.00000000000E+00 0. -1.
        -15    1    3    3    0    0 -0.31516448849E+02 -0.31902357244E+02  0.24542220401E+02  0.51151981946E+02  0.17770000000E+01 0.  1.
         15    1    3    3    0    0 -0.18045770474E+03 -0.97361111477E+02 -0.71946578099E+02  0.21731000220E+03  0.17770000000E+01 0. -1.
</event>
<event>
 7    1  0.5285153E-006  0.5141013E+03  0.7546771E-02  0.9368798E-01
        -11   -1    0    0    0    0  0.00000000000E+00  0.00000000000E+00  0.50000000000E+03  0.50000000000E+03  0.00000000000E+00 0.  1.
         11   -1    0    0    0    0 -0.00000000000E+00 -0.00000000000E+00 -0.50000000000E+03  0.50000000000E+03  0.00000000000E+00 0.  1.
         23    2    1    2    0    0  0.49636436965E+02  0.10227310487E+01  0.14531787107E+03  0.17821033189E+03  0.90425753439E+02 0.  0.
        -11    1    1    2    0    0  0.10950043981E+03  0.88388427604E+02  0.30499161944E+03  0.33589097693E+03  0.00000000000E+00 0.  1.
         11    1    1    2    0    0 -0.15913687677E+03 -0.89411158652E+02 -0.45030949052E+03  0.48589869118E+03  0.00000000000E+00 0.  1.
        -15    1    3    3    0    0  0.17148126153E+02 -0.44120615140E+02  0.62173968672E+02  0.78162951712E+02  0.17770000000E+01 0.  1.
         15    1    3    3    0    0  0.32488310813E+02  0.45143346189E+02  0.83143902401E+02  0.10004738018E+03  0.17770000000E+01 0. -1.
</event>
<event>
 7    1  0.5285153E-006  0.5255736E+03  0.7546771E-02  0.9344338E-01
        -11   -1    0    0    0    0  0.00000000000E+00  0.00000000000E+00  0.50000000000E+03  0.50000000000E+03  0.00000000000E+00 0.  1.
         11   -1    0    0    0    0 -0.00000000000E+00 -0.00000000000E+00 -0.50000000000E+03  0.50000000000E+03  0.00000000000E+00 0. -1.
         23    2    1    2    0    0 -0.61729347367E+02  0.97854215817E+01  0.81431989083E+02  0.13790653048E+03  0.92091126073E+02 0.  0.
        -11    1    1    2    0    0 -0.25377466722E+03 -0.18804979133E+03  0.22476970539E+03  0.38766703007E+03  0.00000000000E+00 0.  1.
         11    1    1    2    0    0  0.31550401459E+03  0.17826436975E+03 -0.30620169447E+03  0.47442643945E+03  0.00000000000E+00 0. -1.
        -15    1    3    3    0    0 -0.42083139578E+02  0.22569532454E+02 -0.52685419388E+01  0.48075874356E+02  0.17770000000E+01 0.  1.
         15    1    3    3    0    0 -0.19646207789E+02 -0.12784110872E+02  0.86700531022E+02  0.89830656124E+02  0.17770000000E+01 0. -1.
</event>
<event>
 7    1  0.5285153E-006  0.4557431E+03  0.7546771E-02  0.9504676E-01
        -11   -1    0    0    0    0  0.00000000000E+00  0.00000000000E+00  0.50000000000E+03  0.50000000000E+03  0.00000000000E+00 0.  1.
         11   -1    0    0    0    0 -0.00000000000E+00 -0.00000000000E+00 -0.50000000000E+03  0.50000000000E+03  0.00000000000E+00 0.  1.
         23    2    1    2    0    0  0.97852321032E+02 -0.79319962762E+02 -0.44743879350E+03  0.47364672597E+03  0.90956109591E+02 0.  0.
        -11    1    1    2    0    0  0.66938643932E+02  0.42741676085E+02  0.48217400758E+02  0.92911520609E+02  0.00000000000E+00 0.  1.
         11    1    1    2    0    0 -0.16479096496E+03  0.36578286677E+02  0.39922139274E+03  0.43344175342E+03  0.00000000000E+00 0.  1.
        -15    1    3    3    0    0  0.78306691607E+02 -0.97439999631E+02 -0.40141692105E+03  0.42043452964E+03  0.17770000000E+01 0.  1.
         15    1    3    3    0    0  0.19545629425E+02  0.18120036869E+02 -0.46021872443E+02  0.53212196327E+02  0.17770000000E+01 0. -1.
</event>
<event>
 7    1  0.5285153E-006  0.5064380E+03  0.7546771E-02  0.9385518E-01
        -11   -1    0    0    0    0  0.00000000000E+00  0.00000000000E+00  0.50000000000E+03  0.50000000000E+03  0.00000000000E+00 0.  1.
         11   -1    0    0    0    0 -0.00000000000E+00 -0.00000000000E+00 -0.50000000000E+03  0.50000000000E+03  0.00000000000E+00 0. -1.
         23    2    1    2    0    0 -0.49370868420E+02  0.66542725676E+02 -0.37472958941E+03  0.39492484389E+03  0.93155515941E+02 0.  0.
        -11    1    1    2    0    0  0.64308137061E+02 -0.10730768067E+03  0.47744417915E+03  0.49356197081E+03  0.00000000000E+00 0.  1.
         11    1    1    2    0    0 -0.14937268641E+02  0.40764954994E+02 -0.10271458974E+03  0.11151318530E+03  0.00000000000E+00 0. -1.
        -15    1    3    3    0    0 -0.23774709172E+02 -0.54155487648E+01 -0.18670227940E+02  0.30761991239E+02  0.17770000000E+01 0.  1.
         15    1    3    3    0    0 -0.25596159248E+02  0.71958274440E+02 -0.35605936147E+03  0.36416285265E+03  0.17770000000E+01 0. -1.
</event>
<event>
 6    1  0.5285153E-006  0.3454385E+03  0.7546771E-02  0.9832951E-01
        -11   -1    0    0    0    0  0.00000000000E+00  0.00000000000E+00  0.50000000000E+03  0.50000000000E+03  0.00000000000E+00 0.  1.
         11   -1    0    0    0    0 -0.00000000000E+00 -0.00000000000E+00 -0.50000000000E+03  0.50000000000E+03  0.00000000000E+00 0. -1.
        -11    1    1    2    0    0  0.45491853717E+02  0.41928067727E+02  0.32348253318E+03  0.32934544310E+03  0.00000000000E+00 0.  1.
         11    1    1    2    0    0  0.12976118906E+03  0.70522703434E+01 -0.36370642411E+03  0.38622540522E+03  0.00000000000E+00 0. -1.
        -15    1    1    2    0    0 -0.16325883884E+03  0.23751917326E+02 -0.45704528273E+02  0.17120065324E+03  0.17770000000E+01 0.  1.
         15    1    1    2    0    0 -0.11994203930E+02 -0.72732255396E+02  0.85928419203E+02  0.11322849844E+03  0.17770000000E+01 0. -1.
</event>
<event>
 7    1  0.5285153E-006  0.4721819E+03  0.7546771E-02  0.9464301E-01
        -11   -1    0    0    0    0  0.00000000000E+00  0.00000000000E+00  0.50000000000E+03  0.50000000000E+03  0.00000000000E+00 0. -1.
         11   -1    0    0    0    0 -0.00000000000E+00 -0.00000000000E+00 -0.50000000000E+03  0.50000000000E+03  0.00000000000E+00 0.  1.
         23    2    1    2    0    0 -0.41805151723E+02 -0.29072881402E+03  0.32422069990E+03  0.44566187773E+03  0.84997252916E+02 0.  0.
        -11    1    1    2    0    0 -0.26641852198E+02 -0.22014899990E+02  0.50680314504E+02  0.61342794103E+02  0.00000000000E+00 0. -1.
         11    1    1    2    0    0  0.68447003921E+02  0.31274371401E+03 -0.37490101440E+03  0.49299532817E+03  0.00000000000E+00 0.  1.
        -15    1    3    3    0    0 -0.55307283133E+02 -0.25895711483E+03  0.25177708129E+03  0.36539367712E+03  0.17770000000E+01 0.  1.
         15    1    3    3    0    0  0.13502131410E+02 -0.31771699188E+02  0.72443618608E+02  0.80268200602E+02  0.17770000000E+01 0. -1.
</event>
<event>
 7    1  0.5285153E-006  0.5141367E+03  0.7546771E-02  0.9368722E-01
        -11   -1    0    0    0    0  0.00000000000E+00  0.00000000000E+00  0.50000000000E+03  0.50000000000E+03  0.00000000000E+00 0.  1.
         11   -1    0    0    0    0 -0.00000000000E+00 -0.00000000000E+00 -0.50000000000E+03  0.50000000000E+03  0.00000000000E+00 0. -1.
         23    2    1    2    0    0 -0.58251137859E+01 -0.41025303688E+02 -0.12477449239E+03  0.15946572329E+03  0.90242093612E+02 0.  0.
        -11    1    1    2    0    0  0.29419981522E+02  0.12653843017E+03  0.46817264942E+03  0.48586329279E+03  0.00000000000E+00 0.  1.
         11    1    1    2    0    0 -0.23594867736E+02 -0.85513126482E+02 -0.34339815703E+03  0.35467098392E+03  0.00000000000E+00 0. -1.
        -15    1    3    3    0    0  0.93507729614E+01 -0.64233929843E+02 -0.57713906509E+02  0.86876276575E+02  0.17770000000E+01 0.  1.
         15    1    3    3    0    0 -0.15175886747E+02  0.23208626155E+02 -0.67060585878E+02  0.72589446711E+02  0.17770000000E+01 0. -1.
</event>
<event>
 7    1  0.5285153E-006  0.5231106E+03  0.7546771E-02  0.9349533E-01
        -11   -1    0    0    0    0  0.00000000000E+00  0.00000000000E+00  0.50000000000E+03  0.50000000000E+03  0.00000000000E+00 0.  1.
         11   -1    0    0    0    0 -0.00000000000E+00 -0.00000000000E+00 -0.50000000000E+03  0.50000000000E+03  0.00000000000E+00 0. -1.
         23    2    1    2    0    0 -0.75343278470E+02 -0.52244260175E+02 -0.40868518399E+03  0.42856261719E+03  0.90753869927E+02 0.  0.
        -11    1    1    2    0    0  0.11601185673E+03 -0.14131677694E+02  0.46234731273E+03  0.47688939263E+03  0.00000000000E+00 0.  1.
         11    1    1    2    0    0 -0.40668578259E+02  0.66375937869E+02 -0.53662128743E+02  0.94547990179E+02  0.00000000000E+00 0. -1.
        -15    1    3    3    0    0 -0.37622410707E+02  0.19541577011E+02 -0.20451314181E+03  0.20886862359E+03  0.17770000000E+01 0.  1.
         15    1    3    3    0    0 -0.37720867763E+02 -0.71785837185E+02 -0.20417204218E+03  0.21969399360E+03  0.17770000000E+01 0. -1.
</event>
<event>
 7    1  0.5285153E-006  0.5308259E+03  0.7546771E-02  0.9333359E-01
        -11   -1    0    0    0    0  0.00000000000E+00  0.00000000000E+00  0.50000000000E+03  0.50000000000E+03  0.00000000000E+00 0.  1.
         11   -1    0    0    0    0 -0.00000000000E+00 -0.00000000000E+00 -0.50000000000E+03  0.50000000000E+03  0.00000000000E+00 0. -1.
         23    2    1    2    0    0 -0.50162056328E+02 -0.24303163493E+02  0.15587987775E+03  0.18841800735E+03  0.89977405816E+02 0.  0.
        -11    1    1    2    0    0  0.17008934212E+03  0.21551982004E+01  0.29716679828E+03  0.34240784918E+03  0.00000000000E+00 0.  1.
         11    1    1    2    0    0 -0.11992728579E+03  0.22147965293E+02 -0.45304667602E+03  0.46917414347E+03  0.00000000000E+00 0. -1.
        -15    1    3    3    0    0  0.20625087730E+02 -0.29969550000E+01  0.79105200465E+02  0.81823996803E+02  0.17770000000E+01 0. -1.
         15    1    3    3    0    0 -0.70787144059E+02 -0.21306208493E+02  0.76774677280E+02  0.10659401055E+03  0.17770000000E+01 0.  1.
</event>
<event>
 7    1  0.5285153E-006  0.3826861E+03  0.7546771E-02  0.9708988E-01
        -11   -1    0    0    0    0  0.00000000000E+00  0.00000000000E+00  0.50000000000E+03  0.50000000000E+03  0.00000000000E+00 0.  1.
         11   -1    0    0    0    0 -0.00000000000E+00 -0.00000000000E+00 -0.50000000000E+03  0.50000000000E+03  0.00000000000E+00 0. -1.
         23    2    1    2    0    0  0.14228121520E+03  0.38513136069E+02 -0.12067244791E+03  0.21127728304E+03  0.91373107620E+02 0.  0.
        -11    1    1    2    0    0  0.59138598463E+02 -0.93242413305E+02  0.41413634404E+03  0.42860288488E+03  0.00000000000E+00 0.  1.
         11    1    1    2    0    0 -0.20141981366E+03  0.54729277236E+02 -0.29346389614E+03  0.36011983208E+03  0.00000000000E+00 0. -1.
        -15    1    3    3    0    0  0.33756159253E+02 -0.75361137646E+01  0.92347003150E+01  0.35842833553E+02  0.17770000000E+01 0. -1.
         15    1    3    3    0    0  0.10852505595E+03  0.46049249834E+02 -0.12990714822E+03  0.17543444949E+03  0.17770000000E+01 0.  1.
</event>
<event>
 7    1  0.5285153E-006  0.4835982E+03  0.7546771E-02  0.9437277E-01
        -11   -1    0    0    0    0  0.00000000000E+00  0.00000000000E+00  0.50000000000E+03  0.50000000000E+03  0.00000000000E+00 0.  1.
         11   -1    0    0    0    0 -0.00000000000E+00 -0.00000000000E+00 -0.50000000000E+03  0.50000000000E+03  0.00000000000E+00 0. -1.
         23    2    1    2    0    0 -0.60505603220E+02 -0.85594267386E+02 -0.45980995753E+03  0.48035548471E+03  0.91262741630E+02 0.  0.
        -11    1    1    2    0    0  0.94826670402E+02  0.10717868255E+03  0.45713616874E+03  0.47901236328E+03  0.00000000000E+00 0.  1.
         11    1    1    2    0    0 -0.34321067182E+02 -0.21584415160E+02  0.26737887968E+01  0.40632152009E+02  0.00000000000E+00 0. -1.
        -15    1    3    3    0    0 -0.27627421285E+02 -0.80659228727E+02 -0.41946946886E+03  0.42805020573E+03  0.17770000000E+01 0. -1.
         15    1    3    3    0    0 -0.32878181935E+02 -0.49350386587E+01 -0.40340488672E+02  0.52305278981E+02  0.17770000000E+01 0.  1.
</event>
<event>
 7    1  0.5285153E-006  0.5195617E+03  0.7546771E-02  0.9357072E-01
        -11   -1    0    0    0    0  0.00000000000E+00  0.00000000000E+00  0.50000000000E+03  0.50000000000E+03  0.00000000000E+00 0. -1.
         11   -1    0    0    0    0 -0.00000000000E+00 -0.00000000000E+00 -0.50000000000E+03  0.50000000000E+03  0.00000000000E+00 0. -1.
         23    2    1    2    0    0 -0.16881205897E+02 -0.94342383866E+01 -0.33967443907E+03  0.35113493254E+03  0.86850655297E+02 0.  0.
        -11    1    1    2    0    0 -0.31548722233E+02 -0.82457262374E+02  0.47225675175E+03  0.48043830152E+03  0.00000000000E+00 0. -1.
         11    1    1    2    0    0  0.48429928130E+02  0.91891500761E+02 -0.13258231268E+03  0.16842676594E+03  0.00000000000E+00 0. -1.
        -15    1    3    3    0    0 -0.43505947761E+02  0.20552340449E+02 -0.16329553576E+03  0.17024616271E+03  0.17770000000E+01 0.  1.
         15    1    3    3    0    0  0.26624741863E+02 -0.29986578835E+02 -0.17637890331E+03  0.18088876983E+03  0.17770000000E+01 0. -1.
</event>
<event>
 7    1  0.5285153E-006  0.4831661E+03  0.7546771E-02  0.9438285E-01
        -11   -1    0    0    0    0  0.00000000000E+00  0.00000000000E+00  0.50000000000E+03  0.50000000000E+03  0.00000000000E+00 0.  1.
         11   -1    0    0    0    0 -0.00000000000E+00 -0.00000000000E+00 -0.50000000000E+03  0.50000000000E+03  0.00000000000E+00 0. -1.
         23    2    1    2    0    0  0.10378555395E+03  0.96512714622E+02 -0.44075451522E+03  0.46722538162E+03  0.62840029010E+02 0.  0.
        -11    1    1    2    0    0 -0.12318136599E+03 -0.11533255467E+03  0.46611082685E+03  0.49571619905E+03  0.00000000000E+00 0.  1.
         11    1    1    2    0    0  0.19395812042E+02  0.18819840044E+02 -0.25356311629E+02  0.37058419333E+02  0.00000000000E+00 0. -1.
        -15    1    3    3    0    0  0.67414160733E+02  0.80635547287E+02 -0.38274229806E+03  0.39691508538E+03  0.17770000000E+01 0. -1.
         15    1    3    3    0    0  0.36371393215E+02  0.15877167335E+02 -0.58012217164E+02  0.70310296232E+02  0.17770000000E+01 0.  1.
</event>
<event>
 7    1  0.5285153E-006  0.5023920E+03  0.7546771E-02  0.9394473E-01
        -11   -1    0    0    0    0  0.00000000000E+00  0.00000000000E+00  0.50000000000E+03  0.50000000000E+03  0.00000000000E+00 0. -1.
         11   -1    0    0    0    0 -0.00000000000E+00 -0.00000000000E+00 -0.50000000000E+03  0.50000000000E+03  0.00000000000E+00 0. -1.
         23    2    1    2    0    0  0.75773533937E+02 -0.18028792932E+02 -0.48722819143E+03  0.50239202950E+03  0.94550383180E+02 0.  0.
        -11    1    1    2    0    0 -0.21897532637E+02  0.36270212237E+02  0.25627185585E+03  0.25975044626E+03  0.00000000000E+00 0. -1.
         11    1    1    2    0    0 -0.53876001300E+02 -0.18241419305E+02  0.23095633558E+03  0.23785752424E+03  0.00000000000E+00 0. -1.
        -15    1    3    3    0    0 -0.11807232984E+02  0.21807823499E+02 -0.72463837089E+02  0.76610425734E+02  0.17770000000E+01 0.  1.
         15    1    3    3    0    0  0.87580766921E+02 -0.39836616431E+02 -0.41476435434E+03  0.42578160376E+03  0.17770000000E+01 0. -1.
</event>
<event>
 7    1  0.5285153E-006  0.4485579E+03  0.7546771E-02  0.9522897E-01
        -11   -1    0    0    0    0  0.00000000000E+00  0.00000000000E+00  0.50000000000E+03  0.50000000000E+03  0.00000000000E+00 0.  1.
         11   -1    0    0    0    0 -0.00000000000E+00 -0.00000000000E+00 -0.50000000000E+03  0.50000000000E+03  0.00000000000E+00 0.  1.
         23    2    1    2    0    0  0.12437511896E+03  0.35686117010E+02 -0.41856061268E+03  0.44675332781E+03  0.87480742207E+02 0.  0.
        -11    1    1    2    0    0 -0.44627921871E+02 -0.10272536907E+03  0.43373783795E+03  0.44796502646E+03  0.00000000000E+00 0.  1.
         11    1    1    2    0    0 -0.79747197089E+02  0.67039252060E+02 -0.15177225272E+02  0.10528164573E+03  0.00000000000E+00 0.  1.
        -15    1    3    3    0    0  0.77708828324E+02  0.59617318386E+02 -0.21049799229E+03  0.23217547058E+03  0.17770000000E+01 0.  1.
         15    1    3    3    0    0  0.46666290636E+02 -0.23931201376E+02 -0.20806262039E+03  0.21457785723E+03  0.17770000000E+01 0. -1.
</event>
<event>
 7    1  0.5285153E-006  0.5221485E+03  0.7546771E-02  0.9351570E-01
        -11   -1    0    0    0    0  0.00000000000E+00  0.00000000000E+00  0.50000000000E+03  0.50000000000E+03  0.00000000000E+00 0. -1.
         11   -1    0    0    0    0 -0.00000000000E+00 -0.00000000000E+00 -0.50000000000E+03  0.50000000000E+03  0.00000000000E+00 0. -1.
         23    2    1    2    0    0  0.22388871975E+02  0.16660040368E+03  0.18931782974E+03  0.26870767948E+03  0.90031218224E+02 0.  0.
        -11    1    1    2    0    0 -0.47603327790E+02  0.25121505739E+02  0.24765924337E+03  0.25344085640E+03  0.00000000000E+00 0. -1.
         11    1    1    2    0    0  0.25214455816E+02 -0.19172190942E+03 -0.43697707311E+03  0.47785146412E+03  0.00000000000E+00 0. -1.
        -15    1    3    3    0    0 -0.16421774046E+01  0.93736599232E+02  0.16212357613E+03  0.18728710166E+03  0.17770000000E+01 0. -1.
         15    1    3    3    0    0  0.24031049379E+02  0.72863804451E+02  0.27194253615E+02  0.81420577817E+02  0.17770000000E+01 0.  1.
</event>
<event>
 7    1  0.5285153E-006  0.3446826E+03  0.7546771E-02  0.9835638E-01
        -11   -1    0    0    0    0  0.00000000000E+00  0.00000000000E+00  0.50000000000E+03  0.50000000000E+03  0.00000000000E+00 0. -1.
         11   -1    0    0    0    0 -0.00000000000E+00 -0.00000000000E+00 -0.50000000000E+03  0.50000000000E+03  0.00000000000E+00 0.  1.
         23    2    1    2    0    0 -0.10252376029E+03 -0.27716503184E+03  0.86117753431E+02  0.32097407036E+03  0.90975326792E+02 0.  0.
        -11    1    1    2    0    0 -0.14780641000E+03  0.11741089765E+03  0.19408141513E+03  0.27073907997E+03  0.00000000000E+00 0. -1.
         11    1    1    2    0    0  0.25033017030E+03  0.15975413420E+03 -0.28019916856E+03  0.40828684967E+03  0.00000000000E+00 0.  1.
        -15    1    3    3    0    0 -0.59430620211E+02 -0.17375389845E+03  0.69395535442E+01  0.18377630690E+03  0.17770000000E+01 0. -1.
         15    1    3    3    0    0 -0.43093140083E+02 -0.10341113339E+03  0.79178199887E+02  0.13719776346E+03  0.17770000000E+01 0.  1.
</event>
<event>
 7    1  0.5285153E-006  0.4635299E+03  0.7546771E-02  0.9485329E-01
        -11   -1    0    0    0    0  0.00000000000E+00  0.00000000000E+00  0.50000000000E+03  0.50000000000E+03  0.00000000000E+00 0. -1.
         11   -1    0    0    0    0 -0.00000000000E+00 -0.00000000000E+00 -0.50000000000E+03  0.50000000000E+03  0.00000000000E+00 0.  1.
         23    2    1    2    0    0  0.38088387867E+02  0.22763277047E+02 -0.42608197265E+03  0.44476108327E+03  0.11957291377E+03 0.  0.
        -11    1    1    2    0    0 -0.93447177148E+02  0.31583577923E+02  0.46008280046E+03  0.47053807560E+03  0.00000000000E+00 0. -1.
         11    1    1    2    0    0  0.55358789281E+02 -0.54346854970E+02 -0.34000827812E+02  0.84700841128E+02  0.00000000000E+00 0.  1.
        -15    1    3    3    0    0 -0.24465370839E+02  0.37736267639E+02 -0.72222306214E+02  0.85098763267E+02  0.17770000000E+01 0. -1.
         15    1    3    3    0    0  0.62553758706E+02 -0.14972990591E+02 -0.35385966643E+03  0.35966232001E+03  0.17770000000E+01 0.  1.
</event>
<event>
 7    1  0.5285153E-006  0.4861038E+03  0.7546771E-02  0.9431452E-01
        -11   -1    0    0    0    0  0.00000000000E+00  0.00000000000E+00  0.50000000000E+03  0.50000000000E+03  0.00000000000E+00 0. -1.
         11   -1    0    0    0    0 -0.00000000000E+00 -0.00000000000E+00 -0.50000000000E+03  0.50000000000E+03  0.00000000000E+00 0.  1.
         23    2    1    2    0    0  0.11359491040E+03  0.45675640606E+02 -0.45977749343E+03  0.48733522010E+03  0.10540495939E+03 0.  0.
        -11    1    1    2    0    0 -0.76688650844E+02 -0.55894389802E+02  0.46448671724E+03  0.47408147240E+03  0.00000000000E+00 0. -1.
         11    1    1    2    0    0 -0.36906259554E+02  0.10218749196E+02 -0.47092238035E+01  0.38583307508E+02  0.00000000000E+00 0.  1.
        -15    1    3    3    0    0  0.16250575627E+02 -0.30755816029E+02 -0.66948362133E+02  0.75466829463E+02  0.17770000000E+01 0. -1.
         15    1    3    3    0    0  0.97344334771E+02  0.76431456635E+02 -0.39282913130E+03  0.41186839063E+03  0.17770000000E+01 0.  1.
</event>
<event>
 7    1  0.5285153E-006  0.5356568E+03  0.7546771E-02  0.9323379E-01
        -11   -1    0    0    0    0  0.00000000000E+00  0.00000000000E+00  0.50000000000E+03  0.50000000000E+03  0.00000000000E+00 0.  1.
         11   -1    0    0    0    0 -0.00000000000E+00 -0.00000000000E+00 -0.50000000000E+03  0.50000000000E+03  0.00000000000E+00 0.  1.
         23    2    1    2    0    0 -0.96558782999E+02 -0.48832460694E+02  0.92036773654E+02  0.17574469901E+03  0.10347571567E+03 0.  0.
        -11    1    1    2    0    0  0.30751265940E+02 -0.74391462774E+02  0.35079482144E+03  0.35991212377E+03  0.00000000000E+00 0.  1.
         11    1    1    2    0    0  0.65807517059E+02  0.12322392347E+03 -0.44283159509E+03  0.46434317722E+03  0.00000000000E+00 0.  1.
        -15    1    3    3    0    0 -0.84999653164E+02  0.10000600500E+02  0.73868927331E+02  0.11306957682E+03  0.17770000000E+01 0.  1.
         15    1    3    3    0    0 -0.11559129835E+02 -0.58833061194E+02  0.18167846323E+02  0.62675122186E+02  0.17770000000E+01 0. -1.
</event>
<event>
 7    1  0.6515911E-006  0.5041644E+03  0.7546771E-02  0.9390539E-01
        -11   -1    0    0    0    0  0.00000000000E+00  0.00000000000E+00  0.50000000000E+03  0.50000000000E+03  0.00000000000E+00 0.  1.
         11   -1    0    0    0    0 -0.00000000000E+00 -0.00000000000E+00 -0.50000000000E+03  0.50000000000E+03  0.00000000000E+00 0. -1.
         23    2    1    2    0    0  0.29904600686E+02  0.66398875580E+02  0.21128568544E+03  0.23087441650E+03  0.57950491840E+02 0.  0.
        -11    1    1    2    0    0  0.52090692236E+02  0.10823171222E+03  0.24547887282E+03  0.27328999387E+03  0.00000000000E+00 0.  1.
         11    1    1    2    0    0 -0.81995292922E+02 -0.17463058780E+03 -0.45676455826E+03  0.49583558963E+03  0.00000000000E+00 0. -1.
        -15    1    3    3    0    0 -0.15816500490E+02  0.30654347170E+02  0.90213771526E+02  0.96599860197E+02  0.17770000000E+01 0. -1.
         15    1    3    3    0    0  0.45721101176E+02  0.35744528409E+02  0.12107191391E+03  0.13427455631E+03  0.17770000000E+01 0.  1.
</event>
<event>
 7    1  0.5285153E-006  0.5146971E+03  0.7546771E-02  0.9367511E-01
        -11   -1    0    0    0    0  0.00000000000E+00  0.00000000000E+00  0.50000000000E+03  0.50000000000E+03  0.00000000000E+00 0.  1.
         11   -1    0    0    0    0 -0.00000000000E+00 -0.00000000000E+00 -0.50000000000E+03  0.50000000000E+03  0.00000000000E+00 0. -1.
         23    2    1    2    0    0 -0.13776246946E+02 -0.64498623370E+02  0.25018390462E+03  0.27277122702E+03  0.86384597942E+02 0.  0.
        -11    1    1    2    0    0 -0.10592499040E+03  0.11921911283E+02  0.21717704386E+03  0.24192582322E+03  0.00000000000E+00 0.  1.
         11    1    1    2    0    0  0.11970123735E+03  0.52576712087E+02 -0.46736094848E+03  0.48530294976E+03  0.00000000000E+00 0. -1.
        -15    1    3    3    0    0  0.27210675524E+02 -0.46875646772E+02  0.78737326330E+02  0.95605812634E+02  0.17770000000E+01 0. -1.
         15    1    3    3    0    0 -0.40986922470E+02 -0.17622976598E+02  0.17144657829E+03  0.17716541439E+03  0.17770000000E+01 0.  1.
</event>
<event>
 7    1  0.5285153E-006  0.5227739E+03  0.7546771E-02  0.9350245E-01
        -11   -1    0    0    0    0  0.00000000000E+00  0.00000000000E+00  0.50000000000E+03  0.50000000000E+03  0.00000000000E+00 0.  1.
         11   -1    0    0    0    0 -0.00000000000E+00 -0.00000000000E+00 -0.50000000000E+03  0.50000000000E+03  0.00000000000E+00 0. -1.
         23    2    1    2    0    0  0.12055712597E+03  0.20920593709E+02 -0.18367499421E+03  0.23895464662E+03  0.91603099173E+02 0.  0.
        -11    1    1    2    0    0 -0.18231735448E+03  0.11253150008E+03  0.42642913589E+03  0.47722611432E+03  0.00000000000E+00 0.  1.
         11    1    1    2    0    0  0.61760228505E+02 -0.13345209379E+03 -0.24275414168E+03  0.28381923907E+03  0.00000000000E+00 0. -1.
        -15    1    3    3    0    0  0.50910340219E+02 -0.11271262382E+02 -0.16035015425E+02  0.54581897600E+02  0.17770000000E+01 0.  1.
         15    1    3    3    0    0  0.69646785752E+02  0.32191856090E+02 -0.16763997878E+03  0.18437274902E+03  0.17770000000E+01 0. -1.
</event>
<event>
 7    1  0.5285153E-006  0.3758905E+03  0.7546771E-02  0.9730448E-01
        -11   -1    0    0    0    0  0.00000000000E+00  0.00000000000E+00  0.50000000000E+03  0.50000000000E+03  0.00000000000E+00 0.  1.
         11   -1    0    0    0    0 -0.00000000000E+00 -0.00000000000E+00 -0.50000000000E+03  0.50000000000E+03  0.00000000000E+00 0. -1.
         23    2    1    2    0    0 -0.10502778177E+02  0.29638923856E+02 -0.19807963690E+03  0.22192613536E+03  0.95009961834E+02 0.  0.
        -11    1    1    2    0    0 -0.35963613402E+02 -0.34411418999E+03  0.28528846177E+03  0.44843891854E+03  0.00000000000E+00 0.  1.
         11    1    1    2    0    0  0.46466391579E+02  0.31447526613E+03 -0.87208824872E+02  0.32963494610E+03  0.00000000000E+00 0. -1.
        -15    1    3    3    0    0  0.34266814917E+01 -0.19368439961E+02 -0.26136566693E+01  0.19921534649E+02  0.17770000000E+01 0.  1.
         15    1    3    3    0    0 -0.13929459669E+02  0.49007363817E+02 -0.19546598023E+03  0.20200460071E+03  0.17770000000E+01 0. -1.
</event>
<event>
 7    1  0.5285153E-006  0.4736424E+03  0.7546771E-02  0.9460799E-01
        -11   -1    0    0    0    0  0.00000000000E+00  0.00000000000E+00  0.50000000000E+03  0.50000000000E+03  0.00000000000E+00 0. -1.
         11   -1    0    0    0    0 -0.00000000000E+00 -0.00000000000E+00 -0.50000000000E+03  0.50000000000E+03  0.00000000000E+00 0.  1.
         23    2    1    2    0    0 -0.14625642744E+03 -0.33598626501E+02 -0.41890699820E+03  0.45510426108E+03  0.95483009167E+02 0.  0.
        -11    1    1    2    0    0  0.13140050684E+03 -0.10098624080E+01  0.46624208212E+03  0.48440560707E+03  0.00000000000E+00 0. -1.
         11    1    1    2    0    0  0.14855920602E+02  0.34608488909E+02 -0.47335083918E+02  0.60490131848E+02  0.00000000000E+00 0.  1.
        -15    1    3    3    0    0 -0.10979250863E+03  0.10761263565E+02 -0.19608228431E+03  0.22499248808E+03  0.17770000000E+01 0. -1.
         15    1    3    3    0    0 -0.36463918815E+02 -0.44359890066E+02 -0.22282471390E+03  0.23011177300E+03  0.17770000000E+01 0.  1.
</event>
<event>
 7    1  0.5285153E-006  0.5094188E+03  0.7546771E-02  0.9378978E-01
        -11   -1    0    0    0    0  0.00000000000E+00  0.00000000000E+00  0.50000000000E+03  0.50000000000E+03  0.00000000000E+00 0.  1.
         11   -1    0    0    0    0 -0.00000000000E+00 -0.00000000000E+00 -0.50000000000E+03  0.50000000000E+03  0.00000000000E+00 0. -1.
         23    2    1    2    0    0 -0.11604818935E+03 -0.45886713301E+01 -0.26659217433E+03  0.30474513538E+03  0.91159047632E+02 0.  0.
        -11    1    1    2    0    0  0.18099210907E+03 -0.47938455848E+02  0.45344641461E+03  0.49058117577E+03  0.00000000000E+00 0.  1.
         11    1    1    2    0    0 -0.64943919719E+02  0.52527127178E+02 -0.18685424028E+03  0.20467368885E+03  0.00000000000E+00 0. -1.
        -15    1    3    3    0    0 -0.98978299775E+01  0.32597787655E+02 -0.47741069335E+02  0.58676658294E+02  0.17770000000E+01 0.  1.
         15    1    3    3    0    0 -0.10615035938E+03 -0.37186458985E+02 -0.21885110500E+03  0.24606847709E+03  0.17770000000E+01 0. -1.
</event>
<event>
 7    1  0.5285153E-006  0.4031623E+03  0.7546771E-02  0.9647103E-01
        -11   -1    0    0    0    0  0.00000000000E+00  0.00000000000E+00  0.50000000000E+03  0.50000000000E+03  0.00000000000E+00 0.  1.
         11   -1    0    0    0    0 -0.00000000000E+00 -0.00000000000E+00 -0.50000000000E+03  0.50000000000E+03  0.00000000000E+00 0. -1.
         23    2    1    2    0    0  0.74705707030E+02 -0.57632119392E+02 -0.12140716703E+03  0.17914591928E+03  0.91930170995E+02 0.  0.
        -11    1    1    2    0    0  0.22976884105E+03  0.14205651967E+03  0.34176941127E+03  0.43563758513E+03  0.00000000000E+00 0.  1.
         11    1    1    2    0    0 -0.30447454808E+03 -0.84424400276E+02 -0.22036224424E+03  0.38521649559E+03  0.00000000000E+00 0. -1.
        -15    1    3    3    0    0  0.66229297684E+02 -0.42473046535E+02 -0.13550863866E+03  0.15670363248E+03  0.17770000000E+01 0. -1.
         15    1    3    3    0    0  0.84764093458E+01 -0.15159072858E+02  0.14101471631E+02  0.22442286792E+02  0.17770000000E+01 0.  1.
</event>
<event>
 7    1  0.5285153E-006  0.5140304E+03  0.7546771E-02  0.9368952E-01
        -11   -1    0    0    0    0  0.00000000000E+00  0.00000000000E+00  0.50000000000E+03  0.50000000000E+03  0.00000000000E+00 0. -1.
         11   -1    0    0    0    0 -0.00000000000E+00 -0.00000000000E+00 -0.50000000000E+03  0.50000000000E+03  0.00000000000E+00 0.  1.
         23    2    1    2    0    0  0.19550467142E+01  0.44015794763E+02 -0.17786552602E+03  0.20579291848E+03  0.93666256223E+02 0.  0.
        -11    1    1    2    0    0 -0.71030813833E+02 -0.49290691444E+02  0.47821704444E+03  0.48596963935E+03  0.00000000000E+00 0. -1.
         11    1    1    2    0    0  0.69075767119E+02  0.52748966813E+01 -0.30035151842E+03  0.30823744217E+03  0.00000000000E+00 0.  1.
        -15    1    3    3    0    0  0.22249859663E+02  0.59023006005E+02 -0.16649555652E+03  0.17805251911E+03  0.17770000000E+01 0.  1.
         15    1    3    3    0    0 -0.20294812949E+02 -0.15007211242E+02 -0.11369969506E+02  0.27740399375E+02  0.17770000000E+01 0. -1.
</event>
<event>
 7    1  0.5285153E-006  0.4723009E+03  0.7546771E-02  0.9464015E-01
        -11   -1    0    0    0    0  0.00000000000E+00  0.00000000000E+00  0.50000000000E+03  0.50000000000E+03  0.00000000000E+00 0.  1.
         11   -1    0    0    0    0 -0.00000000000E+00 -0.00000000000E+00 -0.50000000000E+03  0.50000000000E+03  0.00000000000E+00 0. -1.
         23    2    1    2    0    0  0.78079426915E+01  0.63079844492E+02 -0.43889792093E+03  0.45277204094E+03  0.91274888699E+02 0.  0.
        -11    1    1    2    0    0 -0.54834642636E+02 -0.82414707990E+02  0.47478372872E+03  0.48499341355E+03  0.00000000000E+00 0.  1.
         11    1    1    2    0    0  0.47026699945E+02  0.19334863498E+02 -0.35885807793E+02  0.62234545512E+02  0.00000000000E+00 0. -1.
        -15    1    3    3    0    0  0.44042944218E+02  0.78264787827E+01 -0.15967487679E+03  0.16583201957E+03  0.17770000000E+01 0.  1.
         15    1    3    3    0    0 -0.36235001527E+02  0.55253365709E+02 -0.27922304414E+03  0.28694002137E+03  0.17770000000E+01 0. -1.
</event>
<event>
 7    1  0.5285153E-006  0.5182963E+03  0.7546771E-02  0.9359776E-01
        -11   -1    0    0    0    0  0.00000000000E+00  0.00000000000E+00  0.50000000000E+03  0.50000000000E+03  0.00000000000E+00 0. -1.
         11   -1    0    0    0    0 -0.00000000000E+00 -0.00000000000E+00 -0.50000000000E+03  0.50000000000E+03  0.00000000000E+00 0.  1.
         23    2    1    2    0    0 -0.61979012605E+02  0.56568652024E+02 -0.19895499694E+03  0.23354892195E+03  0.88997740083E+02 0.  0.
        -11    1    1    2    0    0 -0.45674011465E+01 -0.82054170187E+02  0.47464165731E+03  0.48170369611E+03  0.00000000000E+00 0. -1.
         11    1    1    2    0    0  0.66546413752E+02  0.25485518164E+02 -0.27568666036E+03  0.28474738194E+03  0.00000000000E+00 0.  1.
        -15    1    3    3    0    0 -0.74796487916E+02  0.49885517323E+02 -0.19965186575E+03  0.21896827320E+03  0.17770000000E+01 0. -1.
         15    1    3    3    0    0  0.12817475310E+02  0.66831347008E+01  0.69686880610E+00  0.14580648747E+02  0.17770000000E+01 0.  1.
</event>
<event>
 7    1  0.5285153E-006  0.5230981E+03  0.7546771E-02  0.9349559E-01
        -11   -1    0    0    0    0  0.00000000000E+00  0.00000000000E+00  0.50000000000E+03  0.50000000000E+03  0.00000000000E+00 0. -1.
         11   -1    0    0    0    0 -0.00000000000E+00 -0.00000000000E+00 -0.50000000000E+03  0.50000000000E+03  0.00000000000E+00 0.  1.
         23    2    1    2    0    0  0.50120933245E+02  0.78152971246E+02  0.36203516491E+03  0.38443971332E+03  0.90024650413E+02 0.  0.
        -11    1    1    2    0    0 -0.86654571390E+02 -0.65689935209E+01  0.10804617715E+03  0.13865836727E+03  0.00000000000E+00 0. -1.
         11    1    1    2    0    0  0.36533638144E+02 -0.71583977725E+02 -0.47008134206E+03  0.47690191941E+03  0.00000000000E+00 0.  1.
        -15    1    3    3    0    0 -0.26323221092E+02  0.16874130860E+02  0.90260254252E+02  0.95539099261E+02  0.17770000000E+01 0.  1.
         15    1    3    3    0    0  0.76444154337E+02  0.61278840386E+02  0.27177491066E+03  0.28890061406E+03  0.17770000000E+01 0. -1.
</event>
<event>
 7    1  0.5285153E-006  0.4220558E+03  0.7546771E-02  0.9593388E-01
        -11   -1    0    0    0    0  0.00000000000E+00  0.00000000000E+00  0.50000000000E+03  0.50000000000E+03  0.00000000000E+00 0.  1.
         11   -1    0    0    0    0 -0.00000000000E+00 -0.00000000000E+00 -0.50000000000E+03  0.50000000000E+03  0.00000000000E+00 0. -1.
         23    2    1    2    0    0  0.17576467965E+03  0.42077948789E+02 -0.37587255181E+03  0.42684878659E+03  0.90862175956E+02 0.  0.
        -11    1    1    2    0    0 -0.46362502795E+02 -0.11761491846E+03  0.40168355466E+03  0.42110857127E+03  0.00000000000E+00 0.  1.
         11    1    1    2    0    0 -0.12940217686E+03  0.75536969674E+02 -0.25811002852E+02  0.15204264215E+03  0.00000000000E+00 0. -1.
        -15    1    3    3    0    0  0.62811568523E+02 -0.24320883101E+02 -0.16937028812E+03  0.18228069213E+03  0.17770000000E+01 0.  1.
         15    1    3    3    0    0  0.11295311113E+03  0.66398831890E+02 -0.20650226368E+03  0.24456809445E+03  0.17770000000E+01 0. -1.
</event>
<event>
 7    1  0.5285153E-006  0.5085763E+03  0.7546771E-02  0.9380822E-01
        -11   -1    0    0    0    0  0.00000000000E+00  0.00000000000E+00  0.50000000000E+03  0.50000000000E+03  0.00000000000E+00 0.  1.
         11   -1    0    0    0    0 -0.00000000000E+00 -0.00000000000E+00 -0.50000000000E+03  0.50000000000E+03  0.00000000000E+00 0. -1.
         23    2    1    2    0    0  0.92834604030E+02 -0.73502752312E+02  0.22408732319E+03  0.26922432485E+03  0.90805783794E+02 0.  0.
        -11    1    1    2    0    0  0.69421125477E+02 -0.41815916373E+02  0.22521431952E+03  0.23935194430E+03  0.00000000000E+00 0.  1.
         11    1    1    2    0    0 -0.16225572951E+03  0.11531866869E+03 -0.44930164271E+03  0.49142373085E+03  0.00000000000E+00 0. -1.
        -15    1    3    3    0    0  0.40746517118E+02  0.97373632299E+01  0.11517845956E+03  0.12257377442E+03  0.17770000000E+01 0.  1.
         15    1    3    3    0    0  0.52088086912E+02 -0.83240115542E+02  0.10890886363E+03  0.14665055043E+03  0.17770000000E+01 0. -1.
</event>
<event>
 7    1  0.5285153E-006  0.4204190E+03  0.7546771E-02  0.9597921E-01
        -11   -1    0    0    0    0  0.00000000000E+00  0.00000000000E+00  0.50000000000E+03  0.50000000000E+03  0.00000000000E+00 0.  1.
         11   -1    0    0    0    0 -0.00000000000E+00 -0.00000000000E+00 -0.50000000000E+03  0.50000000000E+03  0.00000000000E+00 0. -1.
         23    2    1    2    0    0  0.28600228421E+02  0.36291374092E+02 -0.38871860441E+03  0.40004714743E+03  0.82465325170E+02 0.  0.
        -11    1    1    2    0    0  0.11728541478E+03 -0.65257138619E+02  0.42597884801E+03  0.44662326586E+03  0.00000000000E+00 0.  1.
         11    1    1    2    0    0 -0.14588564320E+03  0.28965764527E+02 -0.37260243596E+02  0.15332958671E+03  0.00000000000E+00 0. -1.
        -15    1    3    3    0    0  0.48310063551E+02  0.49940595352E+02 -0.31208014772E+03  0.31972660451E+03  0.17770000000E+01 0. -1.
         15    1    3    3    0    0 -0.19709835130E+02 -0.13649221260E+02 -0.76638456695E+02  0.80320542923E+02  0.17770000000E+01 0.  1.
</event>
<event>
 7    1  0.5285153E-006  0.3384021E+03  0.7546771E-02  0.9858254E-01
        -11   -1    0    0    0    0  0.00000000000E+00  0.00000000000E+00  0.50000000000E+03  0.50000000000E+03  0.00000000000E+00 0. -1.
         11   -1    0    0    0    0 -0.00000000000E+00 -0.00000000000E+00 -0.50000000000E+03  0.50000000000E+03  0.00000000000E+00 0.  1.
         23    2    1    2    0    0  0.16588985869E+03  0.17671363502E+03 -0.23692713418E+03  0.35108893779E+03  0.91552287297E+02 0.  0.
        -11    1    1    2    0    0  0.81571338404E+02 -0.10461903622E+03  0.34484438310E+03  0.36948162951E+03  0.00000000000E+00 0. -1.
         11    1    1    2    0    0 -0.24746119710E+03 -0.72094598793E+02 -0.10791724893E+03  0.27942943270E+03  0.00000000000E+00 0.  1.
        -15    1    3    3    0    0  0.54787430731E+02  0.82504501096E+01 -0.69294698301E+02  0.88739198975E+02  0.17770000000E+01 0. -1.
         15    1    3    3    0    0  0.11110242796E+03  0.16846318491E+03 -0.16763243588E+03  0.26234973881E+03  0.17770000000E+01 0.  1.
</event>
<event>
 7    1  0.5285153E-006  0.5022975E+03  0.7546771E-02  0.9394684E-01
        -11   -1    0    0    0    0  0.00000000000E+00  0.00000000000E+00  0.50000000000E+03  0.50000000000E+03  0.00000000000E+00 0.  1.
         11   -1    0    0    0    0 -0.00000000000E+00 -0.00000000000E+00 -0.50000000000E+03  0.50000000000E+03  0.00000000000E+00 0.  1.
         23    2    1    2    0    0 -0.13176059185E+03 -0.64310134547E+02 -0.46695078958E+03  0.49770253667E+03  0.90377697186E+02 0.  0.
        -11    1    1    2    0    0  0.39634177747E+02 -0.18162147651E+02  0.23925297300E+03  0.24319275635E+03  0.00000000000E+00 0.  1.
         11    1    1    2    0    0  0.92126414101E+02  0.82472282198E+02  0.22769781658E+03  0.25910470698E+03  0.00000000000E+00 0.  1.
        -15    1    3    3    0    0 -0.13600232542E+03 -0.32203185278E+02 -0.37559267432E+03  0.40075764795E+03  0.17770000000E+01 0.  1.
         15    1    3    3    0    0  0.42417335747E+01 -0.32106949269E+02 -0.91358115261E+02  0.96944888716E+02  0.17770000000E+01 0. -1.
</event>
<event>
 7    1  0.5285153E-006  0.4154555E+03  0.7546771E-02  0.9611806E-01
        -11   -1    0    0    0    0  0.00000000000E+00  0.00000000000E+00  0.50000000000E+03  0.50000000000E+03  0.00000000000E+00 0. -1.
         11   -1    0    0    0    0 -0.00000000000E+00 -0.00000000000E+00 -0.50000000000E+03  0.50000000000E+03  0.00000000000E+00 0.  1.
         23    2    1    2    0    0  0.96182294581E+02 -0.19846733812E+03 -0.30034626123E+03  0.38359102754E+03  0.91070750968E+02 0.  0.
        -11    1    1    2    0    0 -0.85005584843E+02  0.35743832824E+03  0.26545460266E+03  0.45327061897E+03  0.00000000000E+00 0. -1.
         11    1    1    2    0    0 -0.11176709738E+02 -0.15897099012E+03  0.34891658570E+02  0.16313835349E+03  0.00000000000E+00 0.  1.
        -15    1    3    3    0    0  0.35522397244E+02 -0.10270568385E+03 -0.21759794313E+03  0.24323305858E+03  0.17770000000E+01 0.  1.
         15    1    3    3    0    0  0.60659897337E+02 -0.95761654269E+02 -0.82748318098E+02  0.14035796896E+03  0.17770000000E+01 0. -1.
</event>
<event>
 7    1  0.5285153E-006  0.4166404E+03  0.7546771E-02  0.9608472E-01
        -11   -1    0    0    0    0  0.00000000000E+00  0.00000000000E+00  0.50000000000E+03  0.50000000000E+03  0.00000000000E+00 0.  1.
         11   -1    0    0    0    0 -0.00000000000E+00 -0.00000000000E+00 -0.50000000000E+03  0.50000000000E+03  0.00000000000E+00 0. -1.
         23    2    1    2    0    0  0.39870701760E+02  0.48273526121E+02  0.10983551270E+03  0.15718281562E+03  0.93394815123E+02 0.  0.
        -11    1    1    2    0    0 -0.28804590675E+03  0.14391962031E+02  0.26317195446E+03  0.39043187700E+03  0.00000000000E+00 0.  1.
         11    1    1    2    0    0  0.24817520499E+03 -0.62665488152E+02 -0.37300746716E+03  0.45238530738E+03  0.00000000000E+00 0. -1.
        -15    1    3    3    0    0 -0.23534060319E+02  0.15067480131E+02  0.69678493574E+02  0.75094148563E+02  0.17770000000E+01 0.  1.
         15    1    3    3    0    0  0.63404762078E+02  0.33206045989E+02  0.40157019127E+02  0.82088667054E+02  0.17770000000E+01 0. -1.
</event>
<event>
 7    1  0.5285153E-006  0.5195571E+03  0.7546771E-02  0.9357082E-01
        -11   -1    0    0    0    0  0.00000000000E+00  0.00000000000E+00  0.50000000000E+03  0.50000000000E+03  0.00000000000E+00 0.  1.
         11   -1    0    0    0    0 -0.00000000000E+00 -0.00000000000E+00 -0.50000000000E+03  0.50000000000E+03  0.00000000000E+00 0. -1.
         23    2    1    2    0    0 -0.59748973611E+02 -0.85160700391E+02 -0.13340964210E+03  0.19406326073E+03  0.95079607823E+02 0.  0.
        -11    1    1    2    0    0  0.49160040538E+02  0.16286303242E+03  0.44931539709E+03  0.48044292374E+03  0.00000000000E+00 0.  1.
         11    1    1    2    0    0  0.10588933073E+02 -0.77702332031E+02 -0.31590575499E+03  0.32549381552E+03  0.00000000000E+00 0. -1.
        -15    1    3    3    0    0 -0.53449114918E+02 -0.57022757735E+02 -0.14354097445E+03  0.16344898856E+03  0.17770000000E+01 0. -1.
         15    1    3    3    0    0 -0.62998586927E+01 -0.28137942656E+02  0.10131332356E+02  0.30614272175E+02  0.17770000000E+01 0.  1.
</event>
<event>
 7    1  0.5285153E-006  0.5220351E+03  0.7546771E-02  0.9351811E-01
        -11   -1    0    0    0    0  0.00000000000E+00  0.00000000000E+00  0.50000000000E+03  0.50000000000E+03  0.00000000000E+00 0. -1.
         11   -1    0    0    0    0 -0.00000000000E+00 -0.00000000000E+00 -0.50000000000E+03  0.50000000000E+03  0.00000000000E+00 0. -1.
         23    2    1    2    0    0  0.13223151444E+03 -0.42155757671E+02  0.18343883183E+03  0.24758683392E+03  0.91581406351E+02 0.  0.
        -11    1    1    2    0    0  0.63046698392E+02  0.95161410443E+02  0.24958222593E+03  0.27444829698E+03  0.00000000000E+00 0. -1.
         11    1    1    2    0    0 -0.19527821284E+03 -0.53005652772E+02 -0.43302105776E+03  0.47796486910E+03  0.00000000000E+00 0. -1.
        -15    1    3    3    0    0  0.11667151202E+03 -0.66807376329E+02  0.16580249403E+03  0.21346918280E+03  0.17770000000E+01 0. -1.
         15    1    3    3    0    0  0.15560002429E+02  0.24651618658E+02  0.17636337799E+02  0.34117651121E+02  0.17770000000E+01 0.  1.
</event>
<event>
 7    1  0.5285153E-006  0.4953670E+03  0.7546771E-02  0.9410236E-01
        -11   -1    0    0    0    0  0.00000000000E+00  0.00000000000E+00  0.50000000000E+03  0.50000000000E+03  0.00000000000E+00 0.  1.
         11   -1    0    0    0    0 -0.00000000000E+00 -0.00000000000E+00 -0.50000000000E+03  0.50000000000E+03  0.00000000000E+00 0. -1.
         23    2    1    2    0    0  0.11404895373E+03  0.14048084449E+03 -0.45294599705E+03  0.49645262292E+03  0.92537014437E+02 0.  0.
        -11    1    1    2    0    0 -0.12064639056E+03 -0.12394905561E+03  0.45388117508E+03  0.48572321443E+03  0.00000000000E+00 0.  1.
         11    1    1    2    0    0  0.65974368305E+01 -0.16531788877E+02 -0.93517802705E+00  0.17824162649E+02  0.00000000000E+00 0. -1.
        -15    1    3    3    0    0  0.61183364168E+02  0.36449108313E+02 -0.87555277565E+02  0.11287615296E+03  0.17770000000E+01 0.  1.
         15    1    3    3    0    0  0.52865589565E+02  0.10403173617E+03 -0.36539071949E+03  0.38357646996E+03  0.17770000000E+01 0. -1.
</event>
<event>
 7    1  0.5285153E-006  0.5182532E+03  0.7546771E-02  0.9359868E-01
        -11   -1    0    0    0    0  0.00000000000E+00  0.00000000000E+00  0.50000000000E+03  0.50000000000E+03  0.00000000000E+00 0.  1.
         11   -1    0    0    0    0 -0.00000000000E+00 -0.00000000000E+00 -0.50000000000E+03  0.50000000000E+03  0.00000000000E+00 0. -1.
         23    2    1    2    0    0  0.42452280835E+02  0.82970095784E+02  0.30256763384E+03  0.32986495929E+03  0.92614714716E+02 0.  0.
        -11    1    1    2    0    0 -0.86999920453E+02  0.20384952221E+02  0.16584806249E+03  0.18838819567E+03  0.00000000000E+00 0.  1.
         11    1    1    2    0    0  0.44547639619E+02 -0.10335504800E+03 -0.46841569632E+03  0.48174684504E+03  0.00000000000E+00 0. -1.
        -15    1    3    3    0    0  0.39777346663E+02 -0.16287823020E+01  0.15191034617E+03  0.15705031436E+03  0.17770000000E+01 0.  1.
         15    1    3    3    0    0  0.26749341719E+01  0.84598878086E+02  0.15065728767E+03  0.17281464493E+03  0.17770000000E+01 0. -1.
</event>
<event>
 7    1  0.5285153E-006  0.3594530E+03  0.7546771E-02  0.9784427E-01
        -11   -1    0    0    0    0  0.00000000000E+00  0.00000000000E+00  0.50000000000E+03  0.50000000000E+03  0.00000000000E+00 0.  1.
         11   -1    0    0    0    0 -0.00000000000E+00 -0.00000000000E+00 -0.50000000000E+03  0.50000000000E+03  0.00000000000E+00 0. -1.
         23    2    1    2    0    0 -0.13474992757E+03  0.82090650441E+02 -0.41122242742E+03  0.44972088236E+03  0.90821634792E+02 0.  0.
        -11    1    1    2    0    0  0.34257007071E+02  0.10490541222E+03  0.27936850277E+03  0.30037551229E+03  0.00000000000E+00 0.  1.
         11    1    1    2    0    0  0.10049292050E+03 -0.18699606266E+03  0.13185392465E+03  0.24990360535E+03  0.00000000000E+00 0. -1.
        -15    1    3    3    0    0 -0.10191364637E+03  0.79572836490E+02 -0.21612852957E+03  0.25185894197E+03  0.17770000000E+01 0. -1.
         15    1    3    3    0    0 -0.32836281198E+02  0.25178139513E+01 -0.19509389784E+03  0.19786194039E+03  0.17770000000E+01 0.  1.
</event>
<event>
 7    1  0.5285153E-006  0.5035024E+03  0.7546771E-02  0.9392007E-01
        -11   -1    0    0    0    0  0.00000000000E+00  0.00000000000E+00  0.50000000000E+03  0.50000000000E+03  0.00000000000E+00 0. -1.
         11   -1    0    0    0    0 -0.00000000000E+00 -0.00000000000E+00 -0.50000000000E+03  0.50000000000E+03  0.00000000000E+00 0. -1.
         23    2    1    2    0    0  0.72245662687E+02  0.30125193943E+02 -0.48163967934E+03  0.49649759592E+03  0.91684889441E+02 0.  0.
        -11    1    1    2    0    0  0.29977582401E+02 -0.21676435353E+02  0.20812685458E+03  0.21138900372E+03  0.00000000000E+00 0. -1.
         11    1    1    2    0    0 -0.10222324509E+03 -0.84487585903E+01  0.27351282476E+03  0.29211340035E+03  0.00000000000E+00 0. -1.
        -15    1    3    3    0    0  0.72294547512E+02  0.46216183743E+02 -0.46651230154E+03  0.47434093483E+03  0.17770000000E+01 0. -1.
         15    1    3    3    0    0 -0.48884824405E-01 -0.16090989800E+02 -0.15127377800E+02  0.22156661088E+02  0.17770000000E+01 0.  1.
</event>
