<event>
 6    1  0.3365733E-003  0.5297313E+03  0.7546771E-02  0.9335636E-01
        -11   -1    0    0    0    0  0.00000000000E+00  0.00000000000E+00  0.50000000000E+03  0.50000000000E+03  0.00000000000E+00 0.  1.
         11   -1    0    0    0    0 -0.00000000000E+00 -0.00000000000E+00 -0.50000000000E+03  0.50000000000E+03  0.00000000000E+00 0. -1.
        -11    1    1    2    0    0 -0.23306270506E+02 -0.50882783125E+02  0.46692654341E+03  0.47026868576E+03  0.00000000000E+00 0.  1.
         11    1    1    2    0    0  0.52030944193E+01  0.21852024887E+00 -0.38000290357E+03  0.38003858576E+03  0.00000000000E+00 0. -1.
        -15    1    1    2    0    0 -0.52127687718E+01 -0.33781950223E+02 -0.23275006930E+02  0.41391747919E+02  0.17770000000E+01 0. -1.
         15    1    1    2    0    0  0.23315944858E+02  0.84446213100E+02 -0.63648632910E+02  0.10830098057E+03  0.17770000000E+01 0.  1.
</event>
<event>
 6    1  0.3365733E-003  0.3648502E+03  0.7546771E-02  0.9766368E-01
        -11   -1    0    0    0    0  0.00000000000E+00  0.00000000000E+00  0.50000000000E+03  0.50000000000E+03  0.00000000000E+00 0. -1.
         11   -1    0    0    0    0 -0.00000000000E+00 -0.00000000000E+00 -0.50000000000E+03  0.50000000000E+03  0.00000000000E+00 0.  1.
        -11    1    1    2    0    0 -0.80132027017E+00  0.42640313365E+02  0.37410638330E+03  0.37652944701E+03  0.00000000000E+00 0. -1.
         11    1    1    2    0    0  0.19488497580E+02  0.77197993820E+01 -0.35478175835E+03  0.35540046835E+03  0.00000000000E+00 0.  1.
        -15    1    1    2    0    0 -0.36845041921E+02 -0.29264366910E+01 -0.13592691841E+03  0.14087372368E+03  0.17770000000E+01 0.  1.
         15    1    1    2    0    0  0.18157864611E+02 -0.47433676056E+02  0.11660229347E+03  0.12719636096E+03  0.17770000000E+01 0. -1.
</event>
<event>
 6    1  0.3365733E-003  0.5052618E+03  0.7546771E-02  0.9388112E-01
        -11   -1    0    0    0    0  0.00000000000E+00  0.00000000000E+00  0.50000000000E+03  0.50000000000E+03  0.00000000000E+00 0.  1.
         11   -1    0    0    0    0 -0.00000000000E+00 -0.00000000000E+00 -0.50000000000E+03  0.50000000000E+03  0.00000000000E+00 0. -1.
        -11    1    1    2    0    0 -0.36219014963E+01 -0.46323820873E+01  0.37254977870E+03  0.37259618187E+03  0.00000000000E+00 0.  1.
         11    1    1    2    0    0 -0.90714951969E+01 -0.84544390740E+01 -0.49458278450E+03  0.49473821390E+03  0.00000000000E+00 0. -1.
        -15    1    1    2    0    0  0.63858419768E+01 -0.99058840028E+01  0.98153416796E+02  0.98874448031E+02  0.17770000000E+01 0.  1.
         15    1    1    2    0    0  0.63075547164E+01  0.22992705164E+02  0.23879589009E+02  0.33791156203E+02  0.17770000000E+01 0. -1.
</event>
<event>
 6    1  0.3365733E-003  0.4788383E+03  0.7546771E-02  0.9448447E-01
        -11   -1    0    0    0    0  0.00000000000E+00  0.00000000000E+00  0.50000000000E+03  0.50000000000E+03  0.00000000000E+00 0.  1.
         11   -1    0    0    0    0 -0.00000000000E+00 -0.00000000000E+00 -0.50000000000E+03  0.50000000000E+03  0.00000000000E+00 0. -1.
        -11    1    1    2    0    0 -0.71332689262E+01 -0.52970825430E+01  0.48582511409E+03  0.48590635321E+03  0.00000000000E+00 0.  1.
         11    1    1    2    0    0  0.16223160392E+02 -0.26658888014E+02 -0.47142272834E+03  0.47245452272E+03  0.00000000000E+00 0. -1.
        -15    1    1    2    0    0 -0.81303896805E+01  0.24118735528E+02 -0.19466269592E+02  0.32092211215E+02  0.17770000000E+01 0.  1.
         15    1    1    2    0    0 -0.95950178548E+00  0.78372350290E+01  0.50638838328E+01  0.95469128543E+01  0.17770000000E+01 0. -1.
</event>
<event>
 6    1  0.3365733E-003  0.5009438E+03  0.7546771E-02  0.9397700E-01
        -11   -1    0    0    0    0  0.00000000000E+00  0.00000000000E+00  0.50000000000E+03  0.50000000000E+03  0.00000000000E+00 0.  1.
         11   -1    0    0    0    0 -0.00000000000E+00 -0.00000000000E+00 -0.50000000000E+03  0.50000000000E+03  0.00000000000E+00 0. -1.
        -11    1    1    2    0    0  0.75207117210E+01  0.19558895133E+01  0.46782812203E+03  0.46789265689E+03  0.00000000000E+00 0.  1.
         11    1    1    2    0    0 -0.69663382439E+01  0.75925654509E+00 -0.49900703872E+03  0.49905624035E+03  0.00000000000E+00 0. -1.
        -15    1    1    2    0    0  0.38250618783E+01  0.67020179343E+00  0.71445448794E+01  0.83236121576E+01  0.17770000000E+01 0. -1.
         15    1    1    2    0    0 -0.43794353554E+01 -0.33853478518E+01  0.24034371810E+02  0.24727490601E+02  0.17770000000E+01 0. -1.
</event>
<event>
 6    1  0.3365733E-003  0.5043627E+03  0.7546771E-02  0.9390100E-01
        -11   -1    0    0    0    0  0.00000000000E+00  0.00000000000E+00  0.50000000000E+03  0.50000000000E+03  0.00000000000E+00 0. -1.
         11   -1    0    0    0    0 -0.00000000000E+00 -0.00000000000E+00 -0.50000000000E+03  0.50000000000E+03  0.00000000000E+00 0.  1.
        -11    1    1    2    0    0 -0.16755480842E+02 -0.22126926628E+01  0.49534901240E+03  0.49563725267E+03  0.00000000000E+00 0. -1.
         11    1    1    2    0    0  0.83998172366E+01 -0.38326837502E+01 -0.40793681242E+03  0.40804128385E+03  0.00000000000E+00 0.  1.
        -15    1    1    2    0    0  0.14891305835E+02  0.56000916154E+01 -0.10576999670E+02  0.19187044239E+02  0.17770000000E+01 0.  1.
         15    1    1    2    0    0 -0.65356422301E+01  0.44528479763E+00 -0.76835200303E+02  0.77134419246E+02  0.17770000000E+01 0. -1.
</event>
<event>
 6    1  0.3365733E-003  0.5050230E+03  0.7546771E-02  0.9388640E-01
        -11   -1    0    0    0    0  0.00000000000E+00  0.00000000000E+00  0.50000000000E+03  0.50000000000E+03  0.00000000000E+00 0.  1.
         11   -1    0    0    0    0 -0.00000000000E+00 -0.00000000000E+00 -0.50000000000E+03  0.50000000000E+03  0.00000000000E+00 0. -1.
        -11    1    1    2    0    0  0.16722059683E+01  0.12100169357E+02  0.46791886240E+03  0.46807827568E+03  0.00000000000E+00 0.  1.
         11    1    1    2    0    0 -0.35677420356E+01 -0.76284205131E+01 -0.49490537335E+03  0.49497701982E+03  0.00000000000E+00 0. -1.
        -15    1    1    2    0    0  0.99956281807E+01 -0.10416749238E+02  0.19312252169E+02  0.24177304652E+02  0.17770000000E+01 0. -1.
         15    1    1    2    0    0 -0.81000921135E+01  0.59450003943E+01  0.76742587786E+01  0.12767399842E+02  0.17770000000E+01 0.  1.
</event>
<event>
 6    1  0.3365733E-003  0.5081509E+03  0.7546771E-02  0.9381754E-01
        -11   -1    0    0    0    0  0.00000000000E+00  0.00000000000E+00  0.50000000000E+03  0.50000000000E+03  0.00000000000E+00 0.  1.
         11   -1    0    0    0    0 -0.00000000000E+00 -0.00000000000E+00 -0.50000000000E+03  0.50000000000E+03  0.00000000000E+00 0. -1.
        -11    1    1    2    0    0 -0.65071155022E+02 -0.49388071007E+02  0.48501766570E+03  0.49184913624E+03  0.00000000000E+00 0.  1.
         11    1    1    2    0    0 -0.56067715644E+01 -0.37962214921E+01 -0.18651124912E+03  0.18663411595E+03  0.00000000000E+00 0. -1.
        -15    1    1    2    0    0  0.28597106126E+02  0.24269032617E+02 -0.24376115892E+03  0.24663625190E+03  0.17770000000E+01 0. -1.
         15    1    1    2    0    0  0.42080820461E+02  0.28915259882E+02 -0.54745257657E+02  0.74880495923E+02  0.17770000000E+01 0.  1.
</event>
<event>
 6    1  0.3365733E-003  0.5034456E+03  0.7546771E-02  0.9392133E-01
        -11   -1    0    0    0    0  0.00000000000E+00  0.00000000000E+00  0.50000000000E+03  0.50000000000E+03  0.00000000000E+00 0.  1.
         11   -1    0    0    0    0 -0.00000000000E+00 -0.00000000000E+00 -0.50000000000E+03  0.50000000000E+03  0.00000000000E+00 0.  1.
        -11    1    1    2    0    0 -0.17934689038E+00 -0.68776832609E+01  0.47281461321E+03  0.47286466685E+03  0.00000000000E+00 0.  1.
         11    1    1    2    0    0 -0.12924169532E+02 -0.32136476121E+01 -0.49637573243E+03  0.49655435698E+03  0.00000000000E+00 0.  1.
        -15    1    1    2    0    0  0.30399834747E+01  0.18223387894E+01  0.13376200544E+02  0.13951447530E+02  0.17770000000E+01 0. -1.
         15    1    1    2    0    0  0.10063532947E+02  0.82689920836E+01  0.10184918675E+02  0.16629528643E+02  0.17770000000E+01 0.  1.
</event>
<event>
 6    1  0.3365733E-003  0.5118106E+03  0.7546771E-02  0.9373764E-01
        -11   -1    0    0    0    0  0.00000000000E+00  0.00000000000E+00  0.50000000000E+03  0.50000000000E+03  0.00000000000E+00 0. -1.
         11   -1    0    0    0    0 -0.00000000000E+00 -0.00000000000E+00 -0.50000000000E+03  0.50000000000E+03  0.00000000000E+00 0. -1.
        -11    1    1    2    0    0  0.86160643671E+01  0.63978883000E+00  0.48811295832E+03  0.48818941608E+03  0.00000000000E+00 0. -1.
         11    1    1    2    0    0  0.67349056197E+01  0.91689526000E+01 -0.46707850989E+03  0.46721704062E+03  0.00000000000E+00 0. -1.
        -15    1    1    2    0    0 -0.15278070211E+02 -0.40719917164E+01  0.59210983629E+01  0.16976975017E+02  0.17770000000E+01 0. -1.
         15    1    1    2    0    0 -0.72899776083E-01 -0.57367497136E+01 -0.26955546791E+02  0.27616568278E+02  0.17770000000E+01 0.  1.
</event>
<event>
 6    1  0.4202362E-003  0.5302267E+03  0.7546771E-02  0.9334605E-01
        -11   -1    0    0    0    0  0.00000000000E+00  0.00000000000E+00  0.50000000000E+03  0.50000000000E+03  0.00000000000E+00 0. -1.
         11   -1    0    0    0    0 -0.00000000000E+00 -0.00000000000E+00 -0.50000000000E+03  0.50000000000E+03  0.00000000000E+00 0. -1.
        -11    1    1    2    0    0 -0.10351010719E+02 -0.84014207371E+01  0.45361556231E+03  0.45381142081E+03  0.00000000000E+00 0. -1.
         11    1    1    2    0    0 -0.41724770417E+01  0.54552784775E+01 -0.46972312876E+03  0.46977333611E+03  0.00000000000E+00 0. -1.
        -15    1    1    2    0    0  0.37366162979E+01  0.20204361504E+01 -0.29321132288E+02  0.29680481655E+02  0.17770000000E+01 0.  1.
         15    1    1    2    0    0  0.10786871463E+02  0.92570610927E+00  0.45428698738E+02  0.46734761428E+02  0.17770000000E+01 0. -1.
</event>
<event>
 6    1  0.3365733E-003  0.4804312E+03  0.7546771E-02  0.9444693E-01
        -11   -1    0    0    0    0  0.00000000000E+00  0.00000000000E+00  0.50000000000E+03  0.50000000000E+03  0.00000000000E+00 0.  1.
         11   -1    0    0    0    0 -0.00000000000E+00 -0.00000000000E+00 -0.50000000000E+03  0.50000000000E+03  0.00000000000E+00 0.  1.
        -11    1    1    2    0    0 -0.62526183110E+01 -0.29080169349E+01  0.48383748724E+03  0.48388662500E+03  0.00000000000E+00 0.  1.
         11    1    1    2    0    0 -0.15654350826E+01 -0.12764288558E+02 -0.47698643150E+03  0.47715975678E+03  0.00000000000E+00 0.  1.
        -15    1    1    2    0    0 -0.46322972803E+01  0.11113559887E+02  0.11163629600E+02  0.16515257984E+02  0.17770000000E+01 0.  1.
         15    1    1    2    0    0  0.12450350674E+02  0.45587456062E+01 -0.18014685334E+02  0.22438360236E+02  0.17770000000E+01 0. -1.
</event>
<event>
 6    1  0.3365733E-003  0.5003155E+03  0.7546771E-02  0.9399104E-01
        -11   -1    0    0    0    0  0.00000000000E+00  0.00000000000E+00  0.50000000000E+03  0.50000000000E+03  0.00000000000E+00 0. -1.
         11   -1    0    0    0    0 -0.00000000000E+00 -0.00000000000E+00 -0.50000000000E+03  0.50000000000E+03  0.00000000000E+00 0. -1.
        -11    1    1    2    0    0 -0.26637319968E+01  0.34749294012E+01  0.16301586343E+03  0.16307465263E+03  0.00000000000E+00 0. -1.
         11    1    1    2    0    0 -0.58615535892E+01 -0.96780638090E+01 -0.49955641562E+03  0.49968453560E+03  0.00000000000E+00 0. -1.
        -15    1    1    2    0    0  0.34792972143E+01  0.85991028203E+01  0.69830305693E+02  0.70466157839E+02  0.17770000000E+01 0. -1.
         15    1    1    2    0    0  0.50459883718E+01 -0.23959684124E+01  0.26671024650E+03  0.26677465393E+03  0.17770000000E+01 0.  1.
</event>
<event>
 6    1  0.3365733E-003  0.5006220E+03  0.7546771E-02  0.9398419E-01
        -11   -1    0    0    0    0  0.00000000000E+00  0.00000000000E+00  0.50000000000E+03  0.50000000000E+03  0.00000000000E+00 0. -1.
         11   -1    0    0    0    0 -0.00000000000E+00 -0.00000000000E+00 -0.50000000000E+03  0.50000000000E+03  0.00000000000E+00 0. -1.
        -11    1    1    2    0    0 -0.92594108632E+01  0.31547097096E+00  0.49929208313E+03  0.49937803365E+03  0.00000000000E+00 0. -1.
         11    1    1    2    0    0  0.26748169572E+01  0.21632844903E+01 -0.24934563971E+03  0.24936936959E+03  0.00000000000E+00 0. -1.
        -15    1    1    2    0    0  0.83260569423E+01  0.74461652003E+01 -0.61688882875E+02  0.62717179463E+02  0.17770000000E+01 0.  1.
         15    1    1    2    0    0 -0.17414630363E+01 -0.99249206615E+01 -0.18825756055E+03  0.18853541730E+03  0.17770000000E+01 0. -1.
</event>
<event>
 6    1  0.3365733E-003  0.5005040E+03  0.7546771E-02  0.9398683E-01
        -11   -1    0    0    0    0  0.00000000000E+00  0.00000000000E+00  0.50000000000E+03  0.50000000000E+03  0.00000000000E+00 0. -1.
         11   -1    0    0    0    0 -0.00000000000E+00 -0.00000000000E+00 -0.50000000000E+03  0.50000000000E+03  0.00000000000E+00 0. -1.
        -11    1    1    2    0    0  0.10970903926E+01 -0.38042436288E+01  0.24094760943E+03  0.24098013687E+03  0.00000000000E+00 0. -1.
         11    1    1    2    0    0 -0.16361820463E+02  0.14174394022E+02 -0.49902663991E+03  0.49949595589E+03  0.00000000000E+00 0. -1.
        -15    1    1    2    0    0 -0.35554811124E+00  0.25793087399E+01  0.77345964979E+01  0.83523026777E+01  0.17770000000E+01 0.  1.
         15    1    1    2    0    0  0.15620278182E+02 -0.12949459133E+02  0.25034443398E+03  0.25117160456E+03  0.17770000000E+01 0. -1.
</event>
<event>
 6    1  0.3365733E-003  0.5078819E+03  0.7546771E-02  0.9382344E-01
        -11   -1    0    0    0    0  0.00000000000E+00  0.00000000000E+00  0.50000000000E+03  0.50000000000E+03  0.00000000000E+00 0. -1.
         11   -1    0    0    0    0 -0.00000000000E+00 -0.00000000000E+00 -0.50000000000E+03  0.50000000000E+03  0.00000000000E+00 0.  1.
        -11    1    1    2    0    0 -0.96759186161E+01 -0.12871627197E+02  0.49185458984E+03  0.49211811563E+03  0.00000000000E+00 0. -1.
         11    1    1    2    0    0  0.18153832161E+02 -0.88815846009E+01 -0.26888289669E+03  0.26964134753E+03  0.00000000000E+00 0.  1.
        -15    1    1    2    0    0 -0.88689379064E+01 -0.51644689031E+01 -0.20622193667E+03  0.20648480499E+03  0.17770000000E+01 0.  1.
         15    1    1    2    0    0  0.39102436139E+00  0.26917680701E+02 -0.16749756479E+02  0.31755731852E+02  0.17770000000E+01 0. -1.
</event>
<event>
 6    1  0.3365733E-003  0.5007088E+03  0.7546771E-02  0.9398225E-01
        -11   -1    0    0    0    0  0.00000000000E+00  0.00000000000E+00  0.50000000000E+03  0.50000000000E+03  0.00000000000E+00 0.  1.
         11   -1    0    0    0    0 -0.00000000000E+00 -0.00000000000E+00 -0.50000000000E+03  0.50000000000E+03  0.00000000000E+00 0. -1.
        -11    1    1    2    0    0  0.47319318140E+01  0.86605219147E+01  0.43930867987E+03  0.43941951713E+03  0.00000000000E+00 0.  1.
         11    1    1    2    0    0  0.31310757585E+01 -0.69485894364E+01 -0.49923300775E+03  0.49929118013E+03  0.00000000000E+00 0. -1.
        -15    1    1    2    0    0 -0.93867461478E+00  0.19967589180E+01  0.47527869387E+01  0.55330704761E+01  0.17770000000E+01 0. -1.
         15    1    1    2    0    0 -0.69243329577E+01 -0.37086913964E+01  0.55171540933E+02  0.55756232268E+02  0.17770000000E+01 0.  1.
</event>
<event>
 6    1  0.3365733E-003  0.5019444E+03  0.7546771E-02  0.9395469E-01
        -11   -1    0    0    0    0  0.00000000000E+00  0.00000000000E+00  0.50000000000E+03  0.50000000000E+03  0.00000000000E+00 0. -1.
         11   -1    0    0    0    0 -0.00000000000E+00 -0.00000000000E+00 -0.50000000000E+03  0.50000000000E+03  0.00000000000E+00 0. -1.
        -11    1    1    2    0    0 -0.72147774850E+01 -0.14592165499E+02  0.35483809250E+03  0.35521128388E+03  0.00000000000E+00 0. -1.
         11    1    1    2    0    0  0.59059127702E+01 -0.40864014286E+01 -0.49800378676E+03  0.49805556930E+03  0.00000000000E+00 0. -1.
        -15    1    1    2    0    0  0.55037358327E+01  0.16320460021E+02  0.13913753446E+03  0.14021076902E+03  0.17770000000E+01 0. -1.
         15    1    1    2    0    0 -0.41948711179E+01  0.23581069063E+01  0.40281597961E+01  0.65223778041E+01  0.17770000000E+01 0.  1.
</event>
<event>
 6    1  0.3365733E-003  0.5004664E+03  0.7546771E-02  0.9398767E-01
        -11   -1    0    0    0    0  0.00000000000E+00  0.00000000000E+00  0.50000000000E+03  0.50000000000E+03  0.00000000000E+00 0.  1.
         11   -1    0    0    0    0 -0.00000000000E+00 -0.00000000000E+00 -0.50000000000E+03  0.50000000000E+03  0.00000000000E+00 0.  1.
        -11    1    1    2    0    0  0.18344926876E+01 -0.80922307763E+01  0.49946470643E+03  0.49953362503E+03  0.00000000000E+00 0.  1.
         11    1    1    2    0    0  0.84106770572E+01 -0.17492233887E+01 -0.21722738396E+03  0.21739718401E+03  0.00000000000E+00 0.  1.
        -15    1    1    2    0    0  0.20254232411E+01 -0.96170176400E+00 -0.11266911917E+03  0.11270543622E+03  0.17770000000E+01 0.  1.
         15    1    1    2    0    0 -0.12270592986E+02  0.10803155929E+02 -0.16956820330E+03  0.17036375474E+03  0.17770000000E+01 0. -1.
</event>
<event>
 6    1  0.3365733E-003  0.5370239E+03  0.7546771E-02  0.9320576E-01
        -11   -1    0    0    0    0  0.00000000000E+00  0.00000000000E+00  0.50000000000E+03  0.50000000000E+03  0.00000000000E+00 0. -1.
         11   -1    0    0    0    0 -0.00000000000E+00 -0.00000000000E+00 -0.50000000000E+03  0.50000000000E+03  0.00000000000E+00 0. -1.
        -11    1    1    2    0    0 -0.16835387136E+02  0.49578042070E+01  0.46264336632E+03  0.46297612734E+03  0.00000000000E+00 0. -1.
         11    1    1    2    0    0  0.16791698151E+02 -0.67527604542E+02 -0.34740722523E+03  0.35430737876E+03  0.00000000000E+00 0. -1.
        -15    1    1    2    0    0  0.10299680071E+02  0.80042474783E+02 -0.17123690558E+02  0.82518238506E+02  0.17770000000E+01 0. -1.
         15    1    1    2    0    0 -0.10255991086E+02 -0.17472674448E+02 -0.98112450536E+02  0.10019825540E+03  0.17770000000E+01 0.  1.
</event>
<event>
 6    1  0.3365733E-003  0.5184639E+03  0.7546771E-02  0.9359417E-01
        -11   -1    0    0    0    0  0.00000000000E+00  0.00000000000E+00  0.50000000000E+03  0.50000000000E+03  0.00000000000E+00 0.  1.
         11   -1    0    0    0    0 -0.00000000000E+00 -0.00000000000E+00 -0.50000000000E+03  0.50000000000E+03  0.00000000000E+00 0.  1.
        -11    1    1    2    0    0 -0.69810125309E+01  0.76622424064E+01  0.48142453368E+03  0.48153611092E+03  0.00000000000E+00 0.  1.
         11    1    1    2    0    0  0.15775262471E+01  0.11320376205E+02 -0.44976818842E+03  0.44991339480E+03  0.00000000000E+00 0.  1.
        -15    1    1    2    0    0  0.62571554601E+01 -0.19075277958E+02  0.12914101455E+02  0.23936373347E+02  0.17770000000E+01 0. -1.
         15    1    1    2    0    0 -0.85366917632E+00  0.92659347321E-01 -0.44570446720E+02  0.44614120933E+02  0.17770000000E+01 0.  1.
</event>
<event>
 6    1  0.3365733E-003  0.5019377E+03  0.7546771E-02  0.9395484E-01
        -11   -1    0    0    0    0  0.00000000000E+00  0.00000000000E+00  0.50000000000E+03  0.50000000000E+03  0.00000000000E+00 0.  1.
         11   -1    0    0    0    0 -0.00000000000E+00 -0.00000000000E+00 -0.50000000000E+03  0.50000000000E+03  0.00000000000E+00 0. -1.
        -11    1    1    2    0    0 -0.11323378111E+02 -0.39730711409E+01  0.42436637175E+03  0.42453600750E+03  0.00000000000E+00 0.  1.
         11    1    1    2    0    0  0.62806241199E+01  0.10564771397E+02 -0.49791063767E+03  0.49806230910E+03  0.00000000000E+00 0. -1.
        -15    1    1    2    0    0 -0.49116309249E+01 -0.83270183013E+01  0.14790889722E+02  0.17759265185E+02  0.17770000000E+01 0. -1.
         15    1    1    2    0    0  0.99543849158E+01  0.17353180448E+01  0.58753376199E+02  0.59642418223E+02  0.17770000000E+01 0. -1.
</event>
<event>
 6    1  0.3365733E-003  0.5135253E+03  0.7546771E-02  0.9370044E-01
        -11   -1    0    0    0    0  0.00000000000E+00  0.00000000000E+00  0.50000000000E+03  0.50000000000E+03  0.00000000000E+00 0.  1.
         11   -1    0    0    0    0 -0.00000000000E+00 -0.00000000000E+00 -0.50000000000E+03  0.50000000000E+03  0.00000000000E+00 0.  1.
        -11    1    1    2    0    0 -0.71029514327E+01  0.11362365381E+02  0.46200985239E+03  0.46220413128E+03  0.00000000000E+00 0.  1.
         11    1    1    2    0    0  0.15441597755E+02 -0.81306073933E+01 -0.48616153371E+03  0.48647465152E+03  0.00000000000E+00 0.  1.
        -15    1    1    2    0    0 -0.11356829444E+02  0.13669172631E+02 -0.39973104129E+01  0.18301914517E+02  0.17770000000E+01 0. -1.
         15    1    1    2    0    0  0.30181831219E+01 -0.16900930619E+02  0.28148991732E+02  0.33019302683E+02  0.17770000000E+01 0.  1.
</event>
<event>
 6    1  0.3365733E-003  0.5106436E+03  0.7546771E-02  0.9376304E-01
        -11   -1    0    0    0    0  0.00000000000E+00  0.00000000000E+00  0.50000000000E+03  0.50000000000E+03  0.00000000000E+00 0.  1.
         11   -1    0    0    0    0 -0.00000000000E+00 -0.00000000000E+00 -0.50000000000E+03  0.50000000000E+03  0.00000000000E+00 0. -1.
        -11    1    1    2    0    0  0.14969374413E+01  0.69873442322E+01  0.47391764884E+03  0.47397151991E+03  0.00000000000E+00 0.  1.
         11    1    1    2    0    0 -0.58810047774E+01  0.40567677020E+01 -0.48930423927E+03  0.48935639583E+03  0.00000000000E+00 0. -1.
        -15    1    1    2    0    0  0.92130860387E+01 -0.70923381666E+01 -0.67796549637E+01  0.13575848609E+02  0.17770000000E+01 0. -1.
         15    1    1    2    0    0 -0.48290187025E+01 -0.39517737676E+01  0.22166245389E+02  0.23096235650E+02  0.17770000000E+01 0.  1.
</event>
<event>
 6    1  0.3429752E-003  0.5080518E+03  0.7546771E-02  0.9381971E-01
        -11   -1    0    0    0    0  0.00000000000E+00  0.00000000000E+00  0.50000000000E+03  0.50000000000E+03  0.00000000000E+00 0. -1.
         11   -1    0    0    0    0 -0.00000000000E+00 -0.00000000000E+00 -0.50000000000E+03  0.50000000000E+03  0.00000000000E+00 0.  1.
        -11    1    1    2    0    0 -0.44764365449E+00 -0.85967345098E+01  0.41681322651E+03  0.41690211084E+03  0.00000000000E+00 0. -1.
         11    1    1    2    0    0 -0.74634434835E+00  0.75414386034E+01 -0.49188986324E+03  0.49194823700E+03  0.00000000000E+00 0.  1.
        -15    1    1    2    0    0  0.85290345950E+00  0.70572709184E+01  0.81701248352E+02  0.82029166937E+02  0.17770000000E+01 0.  1.
         15    1    1    2    0    0  0.34108454333E+00 -0.60019750120E+01 -0.66246116142E+01  0.91204852255E+01  0.17770000000E+01 0.  1.
</event>
<event>
 6    1  0.3365733E-003  0.5006598E+03  0.7546771E-02  0.9398335E-01
        -11   -1    0    0    0    0  0.00000000000E+00  0.00000000000E+00  0.50000000000E+03  0.50000000000E+03  0.00000000000E+00 0.  1.
         11   -1    0    0    0    0 -0.00000000000E+00 -0.00000000000E+00 -0.50000000000E+03  0.50000000000E+03  0.00000000000E+00 0. -1.
        -11    1    1    2    0    0  0.24105808756E+01  0.84497909817E+01  0.49926286323E+03  0.49934018111E+03  0.00000000000E+00 0.  1.
         11    1    1    2    0    0 -0.96096235246E+00 -0.46078205927E+01 -0.32961803717E+03  0.32965164323E+03  0.00000000000E+00 0. -1.
        -15    1    1    2    0    0 -0.58948238391E+00  0.51935060952E+01 -0.13609448310E+03  0.13620640974E+03  0.17770000000E+01 0.  1.
         15    1    1    2    0    0 -0.86013613923E+00 -0.90354764842E+01 -0.33550342959E+02  0.34801765920E+02  0.17770000000E+01 0. -1.
</event>
<event>
 6    1  0.3365733E-003  0.5303385E+03  0.7546771E-02  0.9334372E-01
        -11   -1    0    0    0    0  0.00000000000E+00  0.00000000000E+00  0.50000000000E+03  0.50000000000E+03  0.00000000000E+00 0.  1.
         11   -1    0    0    0    0 -0.00000000000E+00 -0.00000000000E+00 -0.50000000000E+03  0.50000000000E+03  0.00000000000E+00 0.  1.
        -11    1    1    2    0    0 -0.64554434166E+01  0.85783243267E+01  0.23752470524E+03  0.23776720968E+03  0.00000000000E+00 0.  1.
         11    1    1    2    0    0 -0.14213550039E+01  0.16557641602E+02 -0.46936735976E+03  0.46966146761E+03  0.00000000000E+00 0.  1.
        -15    1    1    2    0    0  0.11062025329E+02 -0.10886160519E+02  0.26017749069E+03  0.26064604598E+03  0.17770000000E+01 0.  1.
         15    1    1    2    0    0 -0.31852269085E+01 -0.14249805410E+02 -0.28334836169E+02  0.31925276732E+02  0.17770000000E+01 0. -1.
</event>
<event>
 6    1  0.3365733E-003  0.5011104E+03  0.7546771E-02  0.9397328E-01
        -11   -1    0    0    0    0  0.00000000000E+00  0.00000000000E+00  0.50000000000E+03  0.50000000000E+03  0.00000000000E+00 0. -1.
         11   -1    0    0    0    0 -0.00000000000E+00 -0.00000000000E+00 -0.50000000000E+03  0.50000000000E+03  0.00000000000E+00 0.  1.
        -11    1    1    2    0    0  0.60948065029E+01 -0.54759773466E+01  0.90452307404E+02  0.90822645353E+02  0.00000000000E+00 0. -1.
         11    1    1    2    0    0  0.50239925782E+01  0.98052741862E+01 -0.49876788162E+03  0.49888955054E+03  0.00000000000E+00 0.  1.
        -15    1    1    2    0    0 -0.57367665887E+01  0.66316538318E+00  0.39446808134E+03  0.39451435361E+03  0.17770000000E+01 0. -1.
         15    1    1    2    0    0 -0.53820324924E+01 -0.49924622227E+01  0.13847492877E+02  0.15773450503E+02  0.17770000000E+01 0.  1.
</event>
<event>
 6    1  0.3365733E-003  0.5121938E+03  0.7546771E-02  0.9372931E-01
        -11   -1    0    0    0    0  0.00000000000E+00  0.00000000000E+00  0.50000000000E+03  0.50000000000E+03  0.00000000000E+00 0.  1.
         11   -1    0    0    0    0 -0.00000000000E+00 -0.00000000000E+00 -0.50000000000E+03  0.50000000000E+03  0.00000000000E+00 0. -1.
        -11    1    1    2    0    0  0.25300532760E+02 -0.84658478197E+00  0.48714895326E+03  0.48780624875E+03  0.00000000000E+00 0.  1.
         11    1    1    2    0    0 -0.21935966337E+01 -0.66074843918E+01 -0.46009962886E+03  0.46015230000E+03  0.00000000000E+00 0. -1.
        -15    1    1    2    0    0 -0.33132919567E+02  0.79124404490E+01 -0.22611118733E+02  0.40924534111E+02  0.17770000000E+01 0. -1.
         15    1    1    2    0    0  0.10025983440E+02 -0.45837127526E+00 -0.44382056653E+01  0.11116917140E+02  0.17770000000E+01 0.  1.
</event>
<event>
 6    1  0.3365733E-003  0.5061731E+03  0.7546771E-02  0.9386102E-01
        -11   -1    0    0    0    0  0.00000000000E+00  0.00000000000E+00  0.50000000000E+03  0.50000000000E+03  0.00000000000E+00 0. -1.
         11   -1    0    0    0    0 -0.00000000000E+00 -0.00000000000E+00 -0.50000000000E+03  0.50000000000E+03  0.00000000000E+00 0.  1.
        -11    1    1    2    0    0  0.64220707404E+01 -0.15833765234E+02  0.31033851865E+03  0.31080853796E+03  0.00000000000E+00 0. -1.
         11    1    1    2    0    0  0.48774797894E+01  0.13409809174E+02 -0.49362072149E+03  0.49382692259E+03  0.00000000000E+00 0.  1.
        -15    1    1    2    0    0  0.13068764830E+01 -0.12951825930E+02  0.23651601589E+01  0.13349510577E+02  0.17770000000E+01 0.  1.
         15    1    1    2    0    0 -0.12606427013E+02  0.15375781990E+02  0.18091704268E+03  0.18201502887E+03  0.17770000000E+01 0. -1.
</event>
<event>
 6    1  0.3365733E-003  0.5006623E+03  0.7546771E-02  0.9398329E-01
        -11   -1    0    0    0    0  0.00000000000E+00  0.00000000000E+00  0.50000000000E+03  0.50000000000E+03  0.00000000000E+00 0. -1.
         11   -1    0    0    0    0 -0.00000000000E+00 -0.00000000000E+00 -0.50000000000E+03  0.50000000000E+03  0.00000000000E+00 0. -1.
        -11    1    1    2    0    0 -0.20412027702E+01  0.17025635326E+01  0.48504056334E+01  0.55309733447E+01  0.00000000000E+00 0. -1.
         11    1    1    2    0    0  0.69426048129E+01 -0.66180860519E+01 -0.49613643556E+03  0.49622914215E+03  0.00000000000E+00 0. -1.
        -15    1    1    2    0    0 -0.22895786007E+02 -0.38764090951E+00  0.36905877130E+02  0.43469170432E+02  0.17770000000E+01 0.  1.
         15    1    1    2    0    0  0.17994383964E+02  0.53031634288E+01  0.45438015280E+03  0.45477071408E+03  0.17770000000E+01 0. -1.
</event>
<event>
 6    1  0.3365733E-003  0.5005263E+03  0.7546771E-02  0.9398633E-01
        -11   -1    0    0    0    0  0.00000000000E+00  0.00000000000E+00  0.50000000000E+03  0.50000000000E+03  0.00000000000E+00 0.  1.
         11   -1    0    0    0    0 -0.00000000000E+00 -0.00000000000E+00 -0.50000000000E+03  0.50000000000E+03  0.00000000000E+00 0.  1.
        -11    1    1    2    0    0  0.30027167037E+01 -0.28257126883E+00  0.10339731879E+03  0.10344129585E+03  0.00000000000E+00 0.  1.
         11    1    1    2    0    0  0.11917711037E+02  0.15144816232E+02 -0.49910173121E+03  0.49947365836E+03  0.00000000000E+00 0.  1.
        -15    1    1    2    0    0 -0.14823424945E+02  0.40049183536E+00  0.27518771121E+03  0.27559268577E+03  0.17770000000E+01 0.  1.
         15    1    1    2    0    0 -0.97002795743E-01 -0.15262736798E+02  0.12051670121E+03  0.12149236002E+03  0.17770000000E+01 0. -1.
</event>
<event>
 6    1  0.3365733E-003  0.5032652E+03  0.7546771E-02  0.9392533E-01
        -11   -1    0    0    0    0  0.00000000000E+00  0.00000000000E+00  0.50000000000E+03  0.50000000000E+03  0.00000000000E+00 0. -1.
         11   -1    0    0    0    0 -0.00000000000E+00 -0.00000000000E+00 -0.50000000000E+03  0.50000000000E+03  0.00000000000E+00 0.  1.
        -11    1    1    2    0    0 -0.70528302780E+01 -0.27409949832E+01  0.13513737421E+03  0.13534905015E+03  0.00000000000E+00 0. -1.
         11    1    1    2    0    0 -0.89171471117E+01 -0.11172834665E+02 -0.49652905199E+03  0.49673478559E+03  0.00000000000E+00 0.  1.
        -15    1    1    2    0    0 -0.10500416391E+01 -0.37216490696E+01 -0.12557726955E+01  0.44371109186E+01  0.17770000000E+01 0.  1.
         15    1    1    2    0    0  0.17020019029E+02  0.17635478718E+02  0.36264745047E+03  0.36347905334E+03  0.17770000000E+01 0. -1.
</event>
<event>
 6    1  0.3365733E-003  0.5217042E+03  0.7546771E-02  0.9352513E-01
        -11   -1    0    0    0    0  0.00000000000E+00  0.00000000000E+00  0.50000000000E+03  0.50000000000E+03  0.00000000000E+00 0. -1.
         11   -1    0    0    0    0 -0.00000000000E+00 -0.00000000000E+00 -0.50000000000E+03  0.50000000000E+03  0.00000000000E+00 0. -1.
        -11    1    1    2    0    0 -0.10018594629E+02  0.18261551993E+01  0.29077791374E+03  0.29095618605E+03  0.00000000000E+00 0. -1.
         11    1    1    2    0    0  0.58072187185E+01 -0.31719111801E+01 -0.47825003312E+03  0.47829580699E+03  0.00000000000E+00 0. -1.
        -15    1    1    2    0    0  0.26316844367E+02 -0.66751821207E+01  0.20148658385E+03  0.20331535985E+03  0.17770000000E+01 0. -1.
         15    1    1    2    0    0 -0.22105468457E+02  0.80209381015E+01 -0.14014464471E+02  0.27432647104E+02  0.17770000000E+01 0.  1.
</event>
<event>
 6    1  0.3365733E-003  0.5235796E+03  0.7546771E-02  0.9348541E-01
        -11   -1    0    0    0    0  0.00000000000E+00  0.00000000000E+00  0.50000000000E+03  0.50000000000E+03  0.00000000000E+00 0. -1.
         11   -1    0    0    0    0 -0.00000000000E+00 -0.00000000000E+00 -0.50000000000E+03  0.50000000000E+03  0.00000000000E+00 0.  1.
        -11    1    1    2    0    0 -0.14329661956E+01 -0.79673163498E+01  0.47635164368E+03  0.47642042353E+03  0.00000000000E+00 0. -1.
         11    1    1    2    0    0 -0.13486189374E+02 -0.52301696116E+00 -0.43393177603E+03  0.43414160950E+03  0.00000000000E+00 0.  1.
        -15    1    1    2    0    0  0.13152578405E+02 -0.24658317141E+02  0.79293989630E+01  0.29104226838E+02  0.17770000000E+01 0.  1.
         15    1    1    2    0    0  0.17665771646E+01  0.33148650452E+02 -0.50349266612E+02  0.60333740138E+02  0.17770000000E+01 0. -1.
</event>
<event>
 6    1  0.3365733E-003  0.4768755E+03  0.7546771E-02  0.9453093E-01
        -11   -1    0    0    0    0  0.00000000000E+00  0.00000000000E+00  0.50000000000E+03  0.50000000000E+03  0.00000000000E+00 0.  1.
         11   -1    0    0    0    0 -0.00000000000E+00 -0.00000000000E+00 -0.50000000000E+03  0.50000000000E+03  0.00000000000E+00 0.  1.
        -11    1    1    2    0    0 -0.16080739217E+02  0.12430514746E+02  0.47258311236E+03  0.47301998474E+03  0.00000000000E+00 0.  1.
         11    1    1    2    0    0 -0.13522367096E+02 -0.53971754512E+00 -0.48111219229E+03  0.48130249041E+03  0.00000000000E+00 0.  1.
        -15    1    1    2    0    0  0.10772685655E+02 -0.35051312605E+01 -0.11953185540E+02  0.16564210664E+02  0.17770000000E+01 0. -1.
         15    1    1    2    0    0  0.18830420658E+02 -0.83856659405E+01  0.20482265466E+02  0.29113314189E+02  0.17770000000E+01 0.  1.
</event>
<event>
 6    1  0.3365733E-003  0.5294500E+03  0.7546771E-02  0.9336222E-01
        -11   -1    0    0    0    0  0.00000000000E+00  0.00000000000E+00  0.50000000000E+03  0.50000000000E+03  0.00000000000E+00 0.  1.
         11   -1    0    0    0    0 -0.00000000000E+00 -0.00000000000E+00 -0.50000000000E+03  0.50000000000E+03  0.00000000000E+00 0.  1.
        -11    1    1    2    0    0 -0.30628283732E+01 -0.52270653845E+01  0.27800579393E+03  0.27807179754E+03  0.00000000000E+00 0.  1.
         11    1    1    2    0    0 -0.85962708355E+01 -0.42690903998E+01 -0.47045206656E+03  0.47054996327E+03  0.00000000000E+00 0.  1.
        -15    1    1    2    0    0 -0.43432824820E+01  0.31577224217E+01 -0.28853671336E+02  0.29402846668E+02  0.17770000000E+01 0.  1.
         15    1    1    2    0    0  0.16002381691E+02  0.63384333626E+01  0.22129994397E+03  0.22197539252E+03  0.17770000000E+01 0. -1.
</event>
<event>
 6    1  0.3365733E-003  0.5139446E+03  0.7546771E-02  0.9369137E-01
        -11   -1    0    0    0    0  0.00000000000E+00  0.00000000000E+00  0.50000000000E+03  0.50000000000E+03  0.00000000000E+00 0. -1.
         11   -1    0    0    0    0 -0.00000000000E+00 -0.00000000000E+00 -0.50000000000E+03  0.50000000000E+03  0.00000000000E+00 0. -1.
        -11    1    1    2    0    0 -0.10942683699E+02  0.61837197859E+01  0.48589282139E+03  0.48605536166E+03  0.00000000000E+00 0. -1.
         11    1    1    2    0    0  0.75600701275E+01  0.89073055239E+01 -0.44216372765E+03  0.44231804938E+03  0.00000000000E+00 0. -1.
        -15    1    1    2    0    0  0.69104841897E+01 -0.51969268869E+01  0.11995157585E+02  0.14893098243E+02  0.17770000000E+01 0.  1.
         15    1    1    2    0    0 -0.35278706182E+01 -0.98940984229E+01 -0.55724251323E+02  0.56733490719E+02  0.17770000000E+01 0. -1.
</event>
<event>
 6    1  0.3365733E-003  0.5031342E+03  0.7546771E-02  0.9392824E-01
        -11   -1    0    0    0    0  0.00000000000E+00  0.00000000000E+00  0.50000000000E+03  0.50000000000E+03  0.00000000000E+00 0. -1.
         11   -1    0    0    0    0 -0.00000000000E+00 -0.00000000000E+00 -0.50000000000E+03  0.50000000000E+03  0.00000000000E+00 0.  1.
        -11    1    1    2    0    0  0.15649458255E+00 -0.10136559224E+02  0.24901761957E+03  0.24922389368E+03  0.00000000000E+00 0. -1.
         11    1    1    2    0    0  0.98299728983E+01 -0.62976513982E+01 -0.49672865245E+03  0.49686581986E+03  0.00000000000E+00 0.  1.
        -15    1    1    2    0    0 -0.87581934955E+01  0.11099579425E+02  0.24774529400E+03  0.24815478042E+03  0.17770000000E+01 0. -1.
         15    1    1    2    0    0 -0.12282739853E+01  0.53346311968E+01 -0.34261118735E-01  0.57555060432E+01  0.17770000000E+01 0.  1.
</event>
<event>
 6    1  0.3365733E-003  0.5043490E+03  0.7546771E-02  0.9390131E-01
        -11   -1    0    0    0    0  0.00000000000E+00  0.00000000000E+00  0.50000000000E+03  0.50000000000E+03  0.00000000000E+00 0. -1.
         11   -1    0    0    0    0 -0.00000000000E+00 -0.00000000000E+00 -0.50000000000E+03  0.50000000000E+03  0.00000000000E+00 0.  1.
        -11    1    1    2    0    0 -0.27749315564E+00  0.11538961699E+02  0.42750587774E+03  0.42766166550E+03  0.00000000000E+00 0. -1.
         11    1    1    2    0    0  0.82726465319E+01  0.13057648552E+02 -0.49540990250E+03  0.49565099653E+03  0.00000000000E+00 0.  1.
        -15    1    1    2    0    0 -0.62208070381E+00 -0.56629199531E+01  0.47372529066E+02  0.47746935880E+02  0.17770000000E+01 0.  1.
         15    1    1    2    0    0 -0.73730726724E+01 -0.18933690298E+02  0.20531495689E+02  0.28940402091E+02  0.17770000000E+01 0. -1.
</event>
<event>
 6    1  0.3365733E-003  0.5098171E+03  0.7546771E-02  0.9378107E-01
        -11   -1    0    0    0    0  0.00000000000E+00  0.00000000000E+00  0.50000000000E+03  0.50000000000E+03  0.00000000000E+00 0. -1.
         11   -1    0    0    0    0 -0.00000000000E+00 -0.00000000000E+00 -0.50000000000E+03  0.50000000000E+03  0.00000000000E+00 0. -1.
        -11    1    1    2    0    0  0.90754395609E+01 -0.10588054978E+01  0.46596679858E+03  0.46605637218E+03  0.00000000000E+00 0. -1.
         11    1    1    2    0    0 -0.49970557281E+01  0.12185313822E+02 -0.49000592808E+03  0.49018288627E+03  0.00000000000E+00 0. -1.
        -15    1    1    2    0    0  0.46988324801E+01 -0.11112623199E+02 -0.51429784133E+01  0.13235459078E+02  0.17770000000E+01 0. -1.
         15    1    1    2    0    0 -0.87772163130E+01 -0.13885125335E-01  0.29182107912E+02  0.30525282475E+02  0.17770000000E+01 0.  1.
</event>
<event>
 6    1  0.3365733E-003  0.5003262E+03  0.7546771E-02  0.9399080E-01
        -11   -1    0    0    0    0  0.00000000000E+00  0.00000000000E+00  0.50000000000E+03  0.50000000000E+03  0.00000000000E+00 0. -1.
         11   -1    0    0    0    0 -0.00000000000E+00 -0.00000000000E+00 -0.50000000000E+03  0.50000000000E+03  0.00000000000E+00 0. -1.
        -11    1    1    2    0    0 -0.11890462263E+02 -0.13940495354E+02  0.49933774585E+03  0.49967379853E+03  0.00000000000E+00 0. -1.
         11    1    1    2    0    0 -0.17608436161E+00 -0.96016889135E+00 -0.21896332229E+02  0.21918081464E+02  0.00000000000E+00 0. -1.
        -15    1    1    2    0    0  0.70653280592E+01 -0.50118579185E+01 -0.94575192371E+02  0.94987695632E+02  0.17770000000E+01 0.  1.
         15    1    1    2    0    0  0.50012185654E+01  0.19912522164E+02 -0.38286622125E+03  0.38342042438E+03  0.17770000000E+01 0. -1.
</event>
<event>
 6    1  0.3365733E-003  0.5010794E+03  0.7546771E-02  0.9397398E-01
        -11   -1    0    0    0    0  0.00000000000E+00  0.00000000000E+00  0.50000000000E+03  0.50000000000E+03  0.00000000000E+00 0. -1.
         11   -1    0    0    0    0 -0.00000000000E+00 -0.00000000000E+00 -0.50000000000E+03  0.50000000000E+03  0.00000000000E+00 0.  1.
        -11    1    1    2    0    0 -0.26520241242E+01  0.93858479695E+01  0.49882529350E+03  0.49892063578E+03  0.00000000000E+00 0. -1.
         11    1    1    2    0    0  0.10045718279E+00 -0.67476517905E+01 -0.40919924953E+03  0.40925489210E+03  0.00000000000E+00 0.  1.
        -15    1    1    2    0    0  0.50534537018E+01 -0.44509752843E+01 -0.10390154915E+02  0.12508462074E+02  0.17770000000E+01 0. -1.
         15    1    1    2    0    0 -0.25018867604E+01  0.18127791054E+01 -0.79235889057E+02  0.79316010042E+02  0.17770000000E+01 0.  1.
</event>
<event>
 6    1  0.3365733E-003  0.5124091E+03  0.7546771E-02  0.9372464E-01
        -11   -1    0    0    0    0  0.00000000000E+00  0.00000000000E+00  0.50000000000E+03  0.50000000000E+03  0.00000000000E+00 0.  1.
         11   -1    0    0    0    0 -0.00000000000E+00 -0.00000000000E+00 -0.50000000000E+03  0.50000000000E+03  0.00000000000E+00 0.  1.
        -11    1    1    2    0    0 -0.19470696892E+02  0.17959061036E+02  0.44214279717E+03  0.44293553594E+03  0.00000000000E+00 0.  1.
         11    1    1    2    0    0  0.67318673586E+01 -0.37938824387E+01 -0.48752971344E+03  0.48759094851E+03  0.00000000000E+00 0.  1.
        -15    1    1    2    0    0 -0.23474487266E+01 -0.11203870987E+02  0.51534701621E+02  0.52820644078E+02  0.17770000000E+01 0. -1.
         15    1    1    2    0    0  0.15086278260E+02 -0.29613076104E+01 -0.61477853538E+01  0.16652871472E+02  0.17770000000E+01 0.  1.
</event>
<event>
 6    1  0.3365733E-003  0.5128761E+03  0.7546771E-02  0.9371451E-01
        -11   -1    0    0    0    0  0.00000000000E+00  0.00000000000E+00  0.50000000000E+03  0.50000000000E+03  0.00000000000E+00 0. -1.
         11   -1    0    0    0    0 -0.00000000000E+00 -0.00000000000E+00 -0.50000000000E+03  0.50000000000E+03  0.00000000000E+00 0. -1.
        -11    1    1    2    0    0 -0.13009182659E+02 -0.12577493623E+02  0.48678770087E+03  0.48712390405E+03  0.00000000000E+00 0. -1.
         11    1    1    2    0    0 -0.16202193885E+01 -0.17211613127E+02 -0.45170793229E+03  0.45203862759E+03  0.00000000000E+00 0. -1.
        -15    1    1    2    0    0 -0.12366259820E+02  0.10992238026E+02 -0.13809024581E+02  0.21624073798E+02  0.17770000000E+01 0.  1.
         15    1    1    2    0    0  0.26995661867E+02  0.18796868724E+02 -0.21270743998E+02  0.39213394557E+02  0.17770000000E+01 0. -1.
</event>
<event>
 6    1  0.3365733E-003  0.5049648E+03  0.7546771E-02  0.9388769E-01
        -11   -1    0    0    0    0  0.00000000000E+00  0.00000000000E+00  0.50000000000E+03  0.50000000000E+03  0.00000000000E+00 0. -1.
         11   -1    0    0    0    0 -0.00000000000E+00 -0.00000000000E+00 -0.50000000000E+03  0.50000000000E+03  0.00000000000E+00 0. -1.
        -11    1    1    2    0    0 -0.22307830686E+02  0.21483976845E+02  0.49406542018E+03  0.49503519066E+03  0.00000000000E+00 0. -1.
         11    1    1    2    0    0  0.88682552484E+01 -0.67635619010E+01 -0.44969366737E+03  0.44983195328E+03  0.00000000000E+00 0. -1.
        -15    1    1    2    0    0  0.79388701236E-01 -0.31682304791E+01  0.28930908035E+01  0.46445333815E+01  0.17770000000E+01 0.  1.
         15    1    1    2    0    0  0.13360186737E+02 -0.11552184465E+02 -0.47264843620E+02  0.50488322680E+02  0.17770000000E+01 0. -1.
</event>
<event>
 6    1  0.3365733E-003  0.5033025E+03  0.7546771E-02  0.9392450E-01
        -11   -1    0    0    0    0  0.00000000000E+00  0.00000000000E+00  0.50000000000E+03  0.50000000000E+03  0.00000000000E+00 0.  1.
         11   -1    0    0    0    0 -0.00000000000E+00 -0.00000000000E+00 -0.50000000000E+03  0.50000000000E+03  0.00000000000E+00 0.  1.
        -11    1    1    2    0    0  0.98719141336E+01 -0.17995108538E+01  0.49659616660E+03  0.49669753936E+03  0.00000000000E+00 0.  1.
         11    1    1    2    0    0  0.26546950621E+01  0.44497918126E+01 -0.33025216674E+03  0.33029281205E+03  0.00000000000E+00 0.  1.
        -15    1    1    2    0    0 -0.13573972044E+01  0.14543088283E+02 -0.18017287285E+02  0.23262078885E+02  0.17770000000E+01 0. -1.
         15    1    1    2    0    0 -0.11169211991E+02 -0.17193369241E+02 -0.14832671257E+03  0.14974756971E+03  0.17770000000E+01 0.  1.
</event>
<event>
 6    1  0.3365733E-003  0.5032162E+03  0.7546771E-02  0.9392642E-01
        -11   -1    0    0    0    0  0.00000000000E+00  0.00000000000E+00  0.50000000000E+03  0.50000000000E+03  0.00000000000E+00 0.  1.
         11   -1    0    0    0    0 -0.00000000000E+00 -0.00000000000E+00 -0.50000000000E+03  0.50000000000E+03  0.00000000000E+00 0.  1.
        -11    1    1    2    0    0  0.73920484587E+01  0.12421757576E+02  0.49657349167E+03  0.49678383133E+03  0.00000000000E+00 0.  1.
         11    1    1    2    0    0  0.10506367988E+02 -0.17212772066E+02 -0.41759928458E+03  0.41808590717E+03  0.00000000000E+00 0.  1.
        -15    1    1    2    0    0 -0.13945952362E+01 -0.95598838218E+01 -0.23101311075E+02  0.25103079033E+02  0.17770000000E+01 0.  1.
         15    1    1    2    0    0 -0.16503821211E+02  0.14350898313E+02 -0.55872896011E+02  0.60027182465E+02  0.17770000000E+01 0. -1.
</event>
<event>
 6    1  0.3365733E-003  0.4096397E+03  0.7546771E-02  0.9628340E-01
        -11   -1    0    0    0    0  0.00000000000E+00  0.00000000000E+00  0.50000000000E+03  0.50000000000E+03  0.00000000000E+00 0. -1.
         11   -1    0    0    0    0 -0.00000000000E+00 -0.00000000000E+00 -0.50000000000E+03  0.50000000000E+03  0.00000000000E+00 0.  1.
        -11    1    1    2    0    0 -0.13348577341E+02 -0.65446449707E+01  0.42087264169E+03  0.42113512965E+03  0.00000000000E+00 0. -1.
         11    1    1    2    0    0 -0.21553604294E+02  0.60175046906E+01 -0.39856322944E+03  0.39919095190E+03  0.00000000000E+00 0.  1.
        -15    1    1    2    0    0  0.52594758867E+02  0.91872164183E+01 -0.92462962682E+02  0.10678563013E+03  0.17770000000E+01 0.  1.
         15    1    1    2    0    0 -0.17692577231E+02 -0.86600761382E+01  0.70153550425E+02  0.72888288319E+02  0.17770000000E+01 0. -1.
</event>
<event>
 6    1  0.3365733E-003  0.5043999E+03  0.7546771E-02  0.9390018E-01
        -11   -1    0    0    0    0  0.00000000000E+00  0.00000000000E+00  0.50000000000E+03  0.50000000000E+03  0.00000000000E+00 0. -1.
         11   -1    0    0    0    0 -0.00000000000E+00 -0.00000000000E+00 -0.50000000000E+03  0.50000000000E+03  0.00000000000E+00 0.  1.
        -11    1    1    2    0    0  0.76077312690E+01  0.49961215081E+01  0.47561274777E+03  0.47569982620E+03  0.00000000000E+00 0. -1.
         11    1    1    2    0    0 -0.36938915917E+00  0.70843414088E+01 -0.49554929217E+03  0.49560006589E+03  0.00000000000E+00 0.  1.
        -15    1    1    2    0    0  0.24773034681E+00 -0.21521230365E+01  0.14910002021E+02  0.15170988536E+02  0.17770000000E+01 0.  1.
         15    1    1    2    0    0 -0.74860724566E+01 -0.99283398804E+01  0.50265423766E+01  0.13529119368E+02  0.17770000000E+01 0. -1.
</event>
<event>
 6    1  0.3365733E-003  0.5106844E+03  0.7546771E-02  0.9376215E-01
        -11   -1    0    0    0    0  0.00000000000E+00  0.00000000000E+00  0.50000000000E+03  0.50000000000E+03  0.00000000000E+00 0.  1.
         11   -1    0    0    0    0 -0.00000000000E+00 -0.00000000000E+00 -0.50000000000E+03  0.50000000000E+03  0.00000000000E+00 0.  1.
        -11    1    1    2    0    0 -0.96466737298E+01  0.23205382759E+01  0.48921495106E+03  0.48931555417E+03  0.00000000000E+00 0.  1.
         11    1    1    2    0    0 -0.12412952724E+02  0.76470233943E+01 -0.47224213063E+03  0.47246712934E+03  0.00000000000E+00 0.  1.
        -15    1    1    2    0    0  0.17682577899E+02 -0.13540933431E+02 -0.21310214092E+02  0.30875773560E+02  0.17770000000E+01 0. -1.
         15    1    1    2    0    0  0.43770485547E+01  0.35733717605E+01  0.43373936658E+01  0.73415429305E+01  0.17770000000E+01 0.  1.
</event>
<event>
 6    1  0.3365733E-003  0.5244652E+03  0.7546771E-02  0.9346672E-01
        -11   -1    0    0    0    0  0.00000000000E+00  0.00000000000E+00  0.50000000000E+03  0.50000000000E+03  0.00000000000E+00 0.  1.
         11   -1    0    0    0    0 -0.00000000000E+00 -0.00000000000E+00 -0.50000000000E+03  0.50000000000E+03  0.00000000000E+00 0.  1.
        -11    1    1    2    0    0  0.16054083111E+02 -0.18956699330E+02  0.43775068837E+03  0.43845496371E+03  0.00000000000E+00 0.  1.
         11    1    1    2    0    0  0.21228603691E+02 -0.21255542330E+02 -0.47458493631E+03  0.47553476578E+03  0.00000000000E+00 0.  1.
        -15    1    1    2    0    0 -0.31685643694E+02  0.35216829419E+02  0.51156438828E+02  0.69744849654E+02  0.17770000000E+01 0. -1.
         15    1    1    2    0    0 -0.55970431076E+01  0.49954122405E+01 -0.14322190885E+02  0.16265420860E+02  0.17770000000E+01 0.  1.
</event>
<event>
 6    1  0.3365733E-003  0.4943079E+03  0.7546771E-02  0.9412637E-01
        -11   -1    0    0    0    0  0.00000000000E+00  0.00000000000E+00  0.50000000000E+03  0.50000000000E+03  0.00000000000E+00 0. -1.
         11   -1    0    0    0    0 -0.00000000000E+00 -0.00000000000E+00 -0.50000000000E+03  0.50000000000E+03  0.00000000000E+00 0. -1.
        -11    1    1    2    0    0 -0.91997479659E+00 -0.13765076466E+01  0.14546409577E+02  0.14640326448E+02  0.00000000000E+00 0. -1.
         11    1    1    2    0    0  0.91366046555E+01 -0.23863351697E+00 -0.49816740371E+03  0.49825123844E+03  0.00000000000E+00 0. -1.
        -15    1    1    2    0    0  0.53834820273E+01 -0.23014151751E+02  0.33499760508E+03  0.33583505803E+03  0.17770000000E+01 0. -1.
         15    1    1    2    0    0 -0.13600111886E+02  0.24629292915E+02  0.14862338905E+03  0.15127337708E+03  0.17770000000E+01 0.  1.
</event>
<event>
 6    1  0.3365733E-003  0.5043182E+03  0.7546771E-02  0.9390199E-01
        -11   -1    0    0    0    0  0.00000000000E+00  0.00000000000E+00  0.50000000000E+03  0.50000000000E+03  0.00000000000E+00 0.  1.
         11   -1    0    0    0    0 -0.00000000000E+00 -0.00000000000E+00 -0.50000000000E+03  0.50000000000E+03  0.00000000000E+00 0. -1.
        -11    1    1    2    0    0 -0.10272919762E+02 -0.12328570570E+02  0.28798775103E+03  0.28843451818E+03  0.00000000000E+00 0.  1.
         11    1    1    2    0    0  0.82458949766E+01  0.26338415461E+01 -0.49560616889E+03  0.49568175935E+03  0.00000000000E+00 0. -1.
        -15    1    1    2    0    0  0.54504376047E+01  0.11706825754E+02  0.21034564671E+03  0.21074915387E+03  0.17770000000E+01 0.  1.
         15    1    1    2    0    0 -0.34234128191E+01 -0.20120967307E+01 -0.27272288458E+01  0.51345686052E+01  0.17770000000E+01 0. -1.
</event>
<event>
 6    1  0.3365733E-003  0.5260850E+03  0.7546771E-02  0.9343263E-01
        -11   -1    0    0    0    0  0.00000000000E+00  0.00000000000E+00  0.50000000000E+03  0.50000000000E+03  0.00000000000E+00 0.  1.
         11   -1    0    0    0    0 -0.00000000000E+00 -0.00000000000E+00 -0.50000000000E+03  0.50000000000E+03  0.00000000000E+00 0.  1.
        -11    1    1    2    0    0 -0.64025852920E+01  0.41729293823E+01  0.32318123771E+03  0.32327158682E+03  0.00000000000E+00 0.  1.
         11    1    1    2    0    0  0.68081366755E+01  0.40173820146E+02 -0.47216010589E+03  0.47391502629E+03  0.00000000000E+00 0.  1.
        -15    1    1    2    0    0  0.30760725283E+02 -0.37499647945E+02  0.16138936155E+03  0.16852931367E+03  0.17770000000E+01 0. -1.
         15    1    1    2    0    0 -0.31166276667E+02 -0.68471015839E+01 -0.12410493370E+02  0.34284073213E+02  0.17770000000E+01 0.  1.
</event>
<event>
 6    1  0.3365733E-003  0.5064146E+03  0.7546771E-02  0.9385570E-01
        -11   -1    0    0    0    0  0.00000000000E+00  0.00000000000E+00  0.50000000000E+03  0.50000000000E+03  0.00000000000E+00 0. -1.
         11   -1    0    0    0    0 -0.00000000000E+00 -0.00000000000E+00 -0.50000000000E+03  0.50000000000E+03  0.00000000000E+00 0.  1.
        -11    1    1    2    0    0 -0.21964499109E+02  0.13282930383E+02  0.49291748829E+03  0.49358537835E+03  0.00000000000E+00 0. -1.
         11    1    1    2    0    0 -0.43478074514E+01 -0.13073235728E+01 -0.24511386729E+03  0.24515591052E+03  0.00000000000E+00 0.  1.
        -15    1    1    2    0    0  0.78603044281E+01  0.44777618321E+01 -0.23129384876E+03  0.23147750849E+03  0.17770000000E+01 0.  1.
         15    1    1    2    0    0  0.18452002133E+02 -0.16453368642E+02 -0.16509772244E+02  0.29781202644E+02  0.17770000000E+01 0. -1.
</event>
<event>
 6    1  0.3994993E-003  0.5035706E+03  0.7546771E-02  0.9391855E-01
        -11   -1    0    0    0    0  0.00000000000E+00  0.00000000000E+00  0.50000000000E+03  0.50000000000E+03  0.00000000000E+00 0. -1.
         11   -1    0    0    0    0 -0.00000000000E+00 -0.00000000000E+00 -0.50000000000E+03  0.50000000000E+03  0.00000000000E+00 0.  1.
        -11    1    1    2    0    0  0.78683389212E+01 -0.55721626351E+01  0.49633572258E+03  0.49642935979E+03  0.00000000000E+00 0. -1.
         11    1    1    2    0    0 -0.16607551899E+02  0.46536124406E+01 -0.44903531523E+03  0.44936642199E+03  0.00000000000E+00 0.  1.
        -15    1    1    2    0    0  0.14904795950E+02 -0.31447368025E+01 -0.42590288759E+02  0.45267347365E+02  0.17770000000E+01 0. -1.
         15    1    1    2    0    0 -0.61655829721E+01  0.40632869970E+01 -0.47101185904E+01  0.89368708585E+01  0.17770000000E+01 0.  1.
</event>
<event>
 6    1  0.3365733E-003  0.5004729E+03  0.7546771E-02  0.9398752E-01
        -11   -1    0    0    0    0  0.00000000000E+00  0.00000000000E+00  0.50000000000E+03  0.50000000000E+03  0.00000000000E+00 0. -1.
         11   -1    0    0    0    0 -0.00000000000E+00 -0.00000000000E+00 -0.50000000000E+03  0.50000000000E+03  0.00000000000E+00 0. -1.
        -11    1    1    2    0    0 -0.14014911515E+02  0.93308022863E+01  0.49924329475E+03  0.49952712536E+03  0.00000000000E+00 0. -1.
         11    1    1    2    0    0 -0.41459586798E+01  0.57395594727E+00 -0.55497653581E+02  0.55655259875E+02  0.00000000000E+00 0. -1.
        -15    1    1    2    0    0  0.52028338219E+01  0.87458877551E+00 -0.20788142101E+02  0.21520663705E+02  0.17770000000E+01 0.  1.
         15    1    1    2    0    0  0.12958036373E+02 -0.10779347009E+02 -0.42295749907E+03  0.42329695106E+03  0.17770000000E+01 0. -1.
</event>
<event>
 6    1  0.3365733E-003  0.5112099E+03  0.7546771E-02  0.9375070E-01
        -11   -1    0    0    0    0  0.00000000000E+00  0.00000000000E+00  0.50000000000E+03  0.50000000000E+03  0.00000000000E+00 0. -1.
         11   -1    0    0    0    0 -0.00000000000E+00 -0.00000000000E+00 -0.50000000000E+03  0.50000000000E+03  0.00000000000E+00 0. -1.
        -11    1    1    2    0    0 -0.55930620738E+01  0.52021635843E+01  0.47889292858E+03  0.47895384109E+03  0.00000000000E+00 0. -1.
         11    1    1    2    0    0 -0.41698828086E+01 -0.65066141019E+01 -0.48872902001E+03  0.48879011749E+03  0.00000000000E+00 0. -1.
        -15    1    1    2    0    0 -0.17474637978E+01  0.49593553498E+01  0.17150030282E+02  0.18025817676E+02  0.17770000000E+01 0. -1.
         15    1    1    2    0    0  0.11510408680E+02 -0.36549048323E+01 -0.73139388539E+01  0.14230223747E+02  0.17770000000E+01 0.  1.
</event>
<event>
 6    1  0.3365733E-003  0.2654059E+03  0.7546771E-02  0.1016736E+00
        -11   -1    0    0    0    0  0.00000000000E+00  0.00000000000E+00  0.50000000000E+03  0.50000000000E+03  0.00000000000E+00 0.  1.
         11   -1    0    0    0    0 -0.00000000000E+00 -0.00000000000E+00 -0.50000000000E+03  0.50000000000E+03  0.00000000000E+00 0. -1.
        -11    1    1    2    0    0  0.30493060528E+01  0.23565478322E+01  0.22178839432E+03  0.22182187322E+03  0.00000000000E+00 0.  1.
         11    1    1    2    0    0 -0.51592450666E+01 -0.21820629978E+01 -0.24671356850E+03  0.24677715472E+03  0.00000000000E+00 0. -1.
        -15    1    1    2    0    0  0.19300597308E+02 -0.51370076907E+02  0.27251121065E+03  0.27798725783E+03  0.17770000000E+01 0.  1.
         15    1    1    2    0    0 -0.17190658294E+02  0.51195592073E+02 -0.24758603647E+03  0.25341371424E+03  0.17770000000E+01 0. -1.
</event>
<event>
 6    1  0.3365733E-003  0.5034732E+03  0.7546771E-02  0.9392072E-01
        -11   -1    0    0    0    0  0.00000000000E+00  0.00000000000E+00  0.50000000000E+03  0.50000000000E+03  0.00000000000E+00 0.  1.
         11   -1    0    0    0    0 -0.00000000000E+00 -0.00000000000E+00 -0.50000000000E+03  0.50000000000E+03  0.00000000000E+00 0. -1.
        -11    1    1    2    0    0 -0.16869765718E+02 -0.14088383015E+02  0.49604011295E+03  0.49652680209E+03  0.00000000000E+00 0.  1.
         11    1    1    2    0    0 -0.48469570844E+01  0.23214035892E+01 -0.39284401495E+03  0.39288077325E+03  0.00000000000E+00 0. -1.
        -15    1    1    2    0    0  0.20600976042E+01  0.87427279321E+01 -0.77556432637E+02  0.78095052764E+02  0.17770000000E+01 0.  1.
         15    1    1    2    0    0  0.19656625199E+02  0.30242514934E+01 -0.25639665362E+02  0.32497371897E+02  0.17770000000E+01 0. -1.
</event>
<event>
 6    1  0.3365733E-003  0.5044533E+03  0.7546771E-02  0.9389900E-01
        -11   -1    0    0    0    0  0.00000000000E+00  0.00000000000E+00  0.50000000000E+03  0.50000000000E+03  0.00000000000E+00 0.  1.
         11   -1    0    0    0    0 -0.00000000000E+00 -0.00000000000E+00 -0.50000000000E+03  0.50000000000E+03  0.00000000000E+00 0. -1.
        -11    1    1    2    0    0 -0.16571196682E+02  0.33815911900E+01  0.49525798413E+03  0.49554667849E+03  0.00000000000E+00 0.  1.
         11    1    1    2    0    0 -0.67650582985E+00  0.60430682087E+01 -0.42286287618E+03  0.42290659534E+03  0.00000000000E+00 0. -1.
        -15    1    1    2    0    0 -0.73783532177E+01 -0.74143786032E+01 -0.35926505958E+02  0.37460441343E+02  0.17770000000E+01 0.  1.
         15    1    1    2    0    0  0.24626055729E+02 -0.20102807956E+01 -0.36468601992E+02  0.44086284828E+02  0.17770000000E+01 0.  1.
</event>
<event>
 6    1  0.3365733E-003  0.5002050E+03  0.7546771E-02  0.9399351E-01
        -11   -1    0    0    0    0  0.00000000000E+00  0.00000000000E+00  0.50000000000E+03  0.50000000000E+03  0.00000000000E+00 0.  1.
         11   -1    0    0    0    0 -0.00000000000E+00 -0.00000000000E+00 -0.50000000000E+03  0.50000000000E+03  0.00000000000E+00 0. -1.
        -11    1    1    2    0    0  0.69668760423E+01 -0.11847502574E+01  0.49974502578E+03  0.49979498975E+03  0.00000000000E+00 0.  1.
         11    1    1    2    0    0  0.13415485067E+01 -0.53512621764E+01 -0.20813418202E+03  0.20820728490E+03  0.00000000000E+00 0. -1.
        -15    1    1    2    0    0  0.16563786896E+01  0.13514361070E+01 -0.10752382953E+03  0.10755975835E+03  0.17770000000E+01 0. -1.
         15    1    1    2    0    0 -0.99648032386E+01  0.51845763268E+01 -0.18408701422E+03  0.18443796700E+03  0.17770000000E+01 0. -1.
</event>
<event>
 6    1  0.3365733E-003  0.5056566E+03  0.7546771E-02  0.9387241E-01
        -11   -1    0    0    0    0  0.00000000000E+00  0.00000000000E+00  0.50000000000E+03  0.50000000000E+03  0.00000000000E+00 0. -1.
         11   -1    0    0    0    0 -0.00000000000E+00 -0.00000000000E+00 -0.50000000000E+03  0.50000000000E+03  0.00000000000E+00 0. -1.
        -11    1    1    2    0    0  0.86355709798E+01 -0.47377615164E+01  0.47803541253E+03  0.47813687905E+03  0.00000000000E+00 0. -1.
         11    1    1    2    0    0  0.64916058783E+01 -0.30103462575E+01 -0.49429156630E+03  0.49434335805E+03  0.00000000000E+00 0. -1.
        -15    1    1    2    0    0 -0.15038647751E+02  0.18847446028E+01  0.14720431882E+02  0.21202877923E+02  0.17770000000E+01 0.  1.
         15    1    1    2    0    0 -0.88529106779E-01  0.58633631710E+01  0.15357218882E+01  0.63168849757E+01  0.17770000000E+01 0. -1.
</event>
<event>
 6    1  0.3365733E-003  0.3437926E+03  0.7546771E-02  0.9838811E-01
        -11   -1    0    0    0    0  0.00000000000E+00  0.00000000000E+00  0.50000000000E+03  0.50000000000E+03  0.00000000000E+00 0.  1.
         11   -1    0    0    0    0 -0.00000000000E+00 -0.00000000000E+00 -0.50000000000E+03  0.50000000000E+03  0.00000000000E+00 0. -1.
        -11    1    1    2    0    0  0.25541114674E+01  0.97551030740E+01  0.39781249397E+03  0.39794027929E+03  0.00000000000E+00 0.  1.
         11    1    1    2    0    0 -0.72996260889E+01 -0.12897546512E+02 -0.20140037791E+03  0.20194490207E+03  0.00000000000E+00 0. -1.
        -15    1    1    2    0    0  0.45433562965E+01 -0.18891177388E+02  0.10050227836E+03  0.10237863231E+03  0.17770000000E+01 0.  1.
         15    1    1    2    0    0  0.20215832500E+00  0.22033620826E+02 -0.29691439441E+03  0.29773618634E+03  0.17770000000E+01 0. -1.
</event>
<event>
 6    1  0.3365733E-003  0.5005104E+03  0.7546771E-02  0.9398668E-01
        -11   -1    0    0    0    0  0.00000000000E+00  0.00000000000E+00  0.50000000000E+03  0.50000000000E+03  0.00000000000E+00 0. -1.
         11   -1    0    0    0    0 -0.00000000000E+00 -0.00000000000E+00 -0.50000000000E+03  0.50000000000E+03  0.00000000000E+00 0.  1.
        -11    1    1    2    0    0  0.46953064063E+01  0.48605916198E+01  0.49944383192E+03  0.49948955194E+03  0.00000000000E+00 0. -1.
         11    1    1    2    0    0  0.48022228115E+01  0.66650288386E+01 -0.22936268585E+03  0.22950975059E+03  0.00000000000E+00 0.  1.
        -15    1    1    2    0    0  0.13905316221E+01 -0.96695714835E+00 -0.14071014150E+03  0.14073155380E+03  0.17770000000E+01 0. -1.
         15    1    1    2    0    0 -0.10888060840E+02 -0.10558663310E+02 -0.12937100457E+03  0.13026914367E+03  0.17770000000E+01 0. -1.
</event>
<event>
 6    1  0.3365733E-003  0.5003912E+03  0.7546771E-02  0.9398935E-01
        -11   -1    0    0    0    0  0.00000000000E+00  0.00000000000E+00  0.50000000000E+03  0.50000000000E+03  0.00000000000E+00 0.  1.
         11   -1    0    0    0    0 -0.00000000000E+00 -0.00000000000E+00 -0.50000000000E+03  0.50000000000E+03  0.00000000000E+00 0.  1.
        -11    1    1    2    0    0 -0.35489028253E+00 -0.48983333285E+00  0.81009985898E+01  0.81235498373E+01  0.00000000000E+00 0.  1.
         11    1    1    2    0    0  0.11545186750E+01 -0.10359412955E+02 -0.49950001510E+03  0.49960876237E+03  0.00000000000E+00 0.  1.
        -15    1    1    2    0    0 -0.34761665377E+01  0.39121327585E+01  0.18525237066E+02  0.19332114573E+02  0.17770000000E+01 0. -1.
         15    1    1    2    0    0  0.26765381452E+01  0.69371135297E+01  0.47287377945E+03  0.47293557322E+03  0.17770000000E+01 0.  1.
</event>
<event>
 6    1  0.3365733E-003  0.5054656E+03  0.7546771E-02  0.9387662E-01
        -11   -1    0    0    0    0  0.00000000000E+00  0.00000000000E+00  0.50000000000E+03  0.50000000000E+03  0.00000000000E+00 0.  1.
         11   -1    0    0    0    0 -0.00000000000E+00 -0.00000000000E+00 -0.50000000000E+03  0.50000000000E+03  0.00000000000E+00 0. -1.
        -11    1    1    2    0    0 -0.85480372683E+01  0.10434125930E+01  0.40740427356E+03  0.40749527576E+03  0.00000000000E+00 0.  1.
         11    1    1    2    0    0 -0.14975512026E+02 -0.62466588585E+01 -0.49426816058E+03  0.49453442881E+03  0.00000000000E+00 0. -1.
        -15    1    1    2    0    0 -0.26186423482E+01 -0.95584041464E+01  0.46820263801E+02  0.47890658890E+02  0.17770000000E+01 0.  1.
         15    1    1    2    0    0  0.26142191642E+02  0.14761650412E+02  0.40043623223E+02  0.50079636546E+02  0.17770000000E+01 0. -1.
</event>
<event>
 6    1  0.3365733E-003  0.5154034E+03  0.7546771E-02  0.9365988E-01
        -11   -1    0    0    0    0  0.00000000000E+00  0.00000000000E+00  0.50000000000E+03  0.50000000000E+03  0.00000000000E+00 0. -1.
         11   -1    0    0    0    0 -0.00000000000E+00 -0.00000000000E+00 -0.50000000000E+03  0.50000000000E+03  0.00000000000E+00 0. -1.
        -11    1    1    2    0    0 -0.19286574303E+02 -0.12822882243E+02  0.43250141407E+03  0.43312108172E+03  0.00000000000E+00 0. -1.
         11    1    1    2    0    0  0.60550820049E+01  0.80690278362E+01 -0.48449161238E+03  0.48459663195E+03  0.00000000000E+00 0. -1.
        -15    1    1    2    0    0 -0.22185371202E+02 -0.10959268225E+02  0.23335728106E+02  0.34058922335E+02  0.17770000000E+01 0.  1.
         15    1    1    2    0    0  0.35416863500E+02  0.15713122632E+02  0.28654470205E+02  0.48223363993E+02  0.17770000000E+01 0. -1.
</event>
<event>
 6    1  0.3365733E-003  0.4884648E+03  0.7546771E-02  0.9425997E-01
        -11   -1    0    0    0    0  0.00000000000E+00  0.00000000000E+00  0.50000000000E+03  0.50000000000E+03  0.00000000000E+00 0. -1.
         11   -1    0    0    0    0 -0.00000000000E+00 -0.00000000000E+00 -0.50000000000E+03  0.50000000000E+03  0.00000000000E+00 0. -1.
        -11    1    1    2    0    0  0.71707188615E+01 -0.43554857830E+01  0.48772050656E+03  0.48779266290E+03  0.00000000000E+00 0. -1.
         11    1    1    2    0    0  0.42615967632E+01  0.14800713734E+02 -0.48901806050E+03  0.48926055004E+03  0.00000000000E+00 0. -1.
        -15    1    1    2    0    0 -0.54366682807E+01 -0.12532638247E+01  0.80387349709E+01  0.99452009100E+01  0.17770000000E+01 0.  1.
         15    1    1    2    0    0 -0.59956473441E+01 -0.91919641268E+01 -0.67411810309E+01  0.13001586145E+02  0.17770000000E+01 0. -1.
</event>
<event>
 6    1  0.3365733E-003  0.4806170E+03  0.7546771E-02  0.9444257E-01
        -11   -1    0    0    0    0  0.00000000000E+00  0.00000000000E+00  0.50000000000E+03  0.50000000000E+03  0.00000000000E+00 0. -1.
         11   -1    0    0    0    0 -0.00000000000E+00 -0.00000000000E+00 -0.50000000000E+03  0.50000000000E+03  0.00000000000E+00 0. -1.
        -11    1    1    2    0    0  0.40202275748E+00 -0.71333621140E+01  0.54876165158E+02  0.55339316763E+02  0.00000000000E+00 0. -1.
         11    1    1    2    0    0 -0.35206973393E+01 -0.65888775707E+01 -0.48998574523E+03  0.49004269115E+03  0.00000000000E+00 0. -1.
        -15    1    1    2    0    0  0.52594864376E+02 -0.32873248136E+02  0.24435800226E+03  0.25211279460E+03  0.17770000000E+01 0.  1.
         15    1    1    2    0    0 -0.49476189794E+02  0.46595487821E+02  0.19075157782E+03  0.20250519749E+03  0.17770000000E+01 0. -1.
</event>
<event>
 6    1  0.3365733E-003  0.5305270E+03  0.7546771E-02  0.9333980E-01
        -11   -1    0    0    0    0  0.00000000000E+00  0.00000000000E+00  0.50000000000E+03  0.50000000000E+03  0.00000000000E+00 0.  1.
         11   -1    0    0    0    0 -0.00000000000E+00 -0.00000000000E+00 -0.50000000000E+03  0.50000000000E+03  0.00000000000E+00 0. -1.
        -11    1    1    2    0    0  0.11245737057E+02  0.22774805936E+01  0.46933272230E+03  0.46947295741E+03  0.00000000000E+00 0.  1.
         11    1    1    2    0    0  0.60875424313E+01  0.10549037727E+02 -0.41999059921E+03  0.42016716172E+03  0.00000000000E+00 0. -1.
        -15    1    1    2    0    0 -0.55274041360E+02  0.56714378276E+01 -0.20713016491E+02  0.59325977754E+02  0.17770000000E+01 0.  1.
         15    1    1    2    0    0  0.37940761872E+02 -0.18497956148E+02 -0.28629106602E+02  0.51033903113E+02  0.17770000000E+01 0. -1.
</event>
<event>
 6    1  0.3365733E-003  0.5011650E+03  0.7546771E-02  0.9397207E-01
        -11   -1    0    0    0    0  0.00000000000E+00  0.00000000000E+00  0.50000000000E+03  0.50000000000E+03  0.00000000000E+00 0.  1.
         11   -1    0    0    0    0 -0.00000000000E+00 -0.00000000000E+00 -0.50000000000E+03  0.50000000000E+03  0.00000000000E+00 0. -1.
        -11    1    1    2    0    0 -0.43084741096E+01  0.13861561731E+02  0.49862378846E+03  0.49883503110E+03  0.00000000000E+00 0.  1.
         11    1    1    2    0    0 -0.72440923357E+01 -0.15994233820E+02 -0.42236598737E+03  0.42273078866E+03  0.00000000000E+00 0. -1.
        -15    1    1    2    0    0  0.81864806106E+01 -0.37184517457E+00 -0.16552925955E+02  0.18555695091E+02  0.17770000000E+01 0.  1.
         15    1    1    2    0    0  0.33660858347E+01  0.25045172642E+01 -0.59704875129E+02  0.59878485149E+02  0.17770000000E+01 0. -1.
</event>
<event>
 6    1  0.3365733E-003  0.5200783E+03  0.7546771E-02  0.9355971E-01
        -11   -1    0    0    0    0  0.00000000000E+00  0.00000000000E+00  0.50000000000E+03  0.50000000000E+03  0.00000000000E+00 0.  1.
         11   -1    0    0    0    0 -0.00000000000E+00 -0.00000000000E+00 -0.50000000000E+03  0.50000000000E+03  0.00000000000E+00 0. -1.
        -11    1    1    2    0    0  0.10499056626E+02 -0.18820033931E+02  0.47943756339E+03  0.47992166137E+03  0.00000000000E+00 0.  1.
         11    1    1    2    0    0 -0.17208561470E+02  0.30934331707E+01 -0.35207043423E+03  0.35250431852E+03  0.00000000000E+00 0. -1.
        -15    1    1    2    0    0 -0.37437900218E+02  0.60456088642E+01 -0.64949633020E+01  0.38516075041E+02  0.17770000000E+01 0.  1.
         15    1    1    2    0    0  0.44147405061E+02  0.96809918956E+01 -0.12087216586E+03  0.12905794507E+03  0.17770000000E+01 0. -1.
</event>
<event>
 6    1  0.3365733E-003  0.5005591E+03  0.7546771E-02  0.9398559E-01
        -11   -1    0    0    0    0  0.00000000000E+00  0.00000000000E+00  0.50000000000E+03  0.50000000000E+03  0.00000000000E+00 0.  1.
         11   -1    0    0    0    0 -0.00000000000E+00 -0.00000000000E+00 -0.50000000000E+03  0.50000000000E+03  0.00000000000E+00 0.  1.
        -11    1    1    2    0    0 -0.43385155035E+01  0.11302216913E+02  0.11352342515E+03  0.11416711822E+03  0.00000000000E+00 0.  1.
         11    1    1    2    0    0 -0.97075699435E+01 -0.10963122834E+02 -0.49922615782E+03  0.49944087100E+03  0.00000000000E+00 0.  1.
        -15    1    1    2    0    0  0.12336193413E+02  0.25054208703E+01  0.37090831066E+03  0.37112611259E+03  0.17770000000E+01 0.  1.
         15    1    1    2    0    0  0.17098920340E+01 -0.28445149499E+01  0.14794422007E+02  0.15265898191E+02  0.17770000000E+01 0. -1.
</event>
<event>
 6    1  0.3365733E-003  0.5016343E+03  0.7546771E-02  0.9396160E-01
        -11   -1    0    0    0    0  0.00000000000E+00  0.00000000000E+00  0.50000000000E+03  0.50000000000E+03  0.00000000000E+00 0. -1.
         11   -1    0    0    0    0 -0.00000000000E+00 -0.00000000000E+00 -0.50000000000E+03  0.50000000000E+03  0.00000000000E+00 0. -1.
        -11    1    1    2    0    0 -0.85314567830E+01 -0.18264522625E+01  0.49828936616E+03  0.49836574332E+03  0.00000000000E+00 0. -1.
         11    1    1    2    0    0 -0.20273105875E+00  0.55873228337E+01 -0.29114218931E+03  0.29119586822E+03  0.00000000000E+00 0. -1.
        -15    1    1    2    0    0 -0.19603267806E+01 -0.12526678546E+02 -0.28448884613E+02  0.31197072318E+02  0.17770000000E+01 0.  1.
         15    1    1    2    0    0  0.10694514622E+02  0.87658079742E+01 -0.17869829224E+03  0.17924131614E+03  0.17770000000E+01 0. -1.
</event>
<event>
 6    1  0.3365733E-003  0.3964897E+03  0.7546771E-02  0.9666830E-01
        -11   -1    0    0    0    0  0.00000000000E+00  0.00000000000E+00  0.50000000000E+03  0.50000000000E+03  0.00000000000E+00 0. -1.
         11   -1    0    0    0    0 -0.00000000000E+00 -0.00000000000E+00 -0.50000000000E+03  0.50000000000E+03  0.00000000000E+00 0.  1.
        -11    1    1    2    0    0 -0.10745727329E+01 -0.18386002808E+01  0.11574223643E+03  0.11576182640E+03  0.00000000000E+00 0. -1.
         11    1    1    2    0    0 -0.12974315557E+02  0.16409121474E+01 -0.41784961502E+03  0.41805421447E+03  0.00000000000E+00 0.  1.
        -15    1    1    2    0    0 -0.10301759563E+02 -0.44173732118E+02  0.37482734849E+03  0.37756607868E+03  0.17770000000E+01 0. -1.
         15    1    1    2    0    0  0.24350647853E+02  0.44371420251E+02 -0.72719969899E+02  0.88617880459E+02  0.17770000000E+01 0.  1.
</event>
<event>
 6    1  0.3365733E-003  0.4658625E+03  0.7546771E-02  0.9479612E-01
        -11   -1    0    0    0    0  0.00000000000E+00  0.00000000000E+00  0.50000000000E+03  0.50000000000E+03  0.00000000000E+00 0.  1.
         11   -1    0    0    0    0 -0.00000000000E+00 -0.00000000000E+00 -0.50000000000E+03  0.50000000000E+03  0.00000000000E+00 0. -1.
        -11    1    1    2    0    0  0.19287165732E+02  0.24606928048E+02  0.46290038521E+03  0.46395502185E+03  0.00000000000E+00 0.  1.
         11    1    1    2    0    0  0.14180672183E+01  0.91801838329E+01 -0.46853727433E+03  0.46862934621E+03  0.00000000000E+00 0. -1.
        -15    1    1    2    0    0 -0.32299618352E+01 -0.45397907661E+01 -0.22466023982E+02  0.23214700433E+02  0.17770000000E+01 0.  1.
         15    1    1    2    0    0 -0.17475271115E+02 -0.29247321114E+02  0.28102913103E+02  0.44200931515E+02  0.17770000000E+01 0. -1.
</event>
<event>
 6    1  0.3365733E-003  0.5027441E+03  0.7546771E-02  0.9393691E-01
        -11   -1    0    0    0    0  0.00000000000E+00  0.00000000000E+00  0.50000000000E+03  0.50000000000E+03  0.00000000000E+00 0. -1.
         11   -1    0    0    0    0 -0.00000000000E+00 -0.00000000000E+00 -0.50000000000E+03  0.50000000000E+03  0.00000000000E+00 0.  1.
        -11    1    1    2    0    0  0.36068703067E+01  0.43239092746E+01  0.10627504926E+03  0.10642411287E+03  0.00000000000E+00 0. -1.
         11    1    1    2    0    0  0.80978751575E+01  0.28895667228E+01 -0.49718159263E+03  0.49725593132E+03  0.00000000000E+00 0.  1.
        -15    1    1    2    0    0 -0.10221225223E+02  0.16629772603E+02  0.39478967371E+02  0.44076857596E+02  0.17770000000E+01 0.  1.
         15    1    1    2    0    0 -0.14835202410E+01 -0.23843248601E+02  0.35142757600E+03  0.35224309821E+03  0.17770000000E+01 0. -1.
</event>
<event>
 6    1  0.3365733E-003  0.5042569E+03  0.7546771E-02  0.9390335E-01
        -11   -1    0    0    0    0  0.00000000000E+00  0.00000000000E+00  0.50000000000E+03  0.50000000000E+03  0.00000000000E+00 0. -1.
         11   -1    0    0    0    0 -0.00000000000E+00 -0.00000000000E+00 -0.50000000000E+03  0.50000000000E+03  0.00000000000E+00 0. -1.
        -11    1    1    2    0    0 -0.65101720574E+00  0.89376093970E+01  0.36987683622E+03  0.36998537627E+03  0.00000000000E+00 0. -1.
         11    1    1    2    0    0 -0.67155133008E+01  0.55335780668E+01 -0.49566673650E+03  0.49574311118E+03  0.00000000000E+00 0. -1.
        -15    1    1    2    0    0 -0.17396840767E+02 -0.97322645918E+01  0.38431857265E+02  0.43330502242E+02  0.17770000000E+01 0. -1.
         15    1    1    2    0    0  0.24763371274E+02 -0.47389228720E+01  0.87358043021E+02  0.90941010311E+02  0.17770000000E+01 0.  1.
</event>
<event>
 6    1  0.3365733E-003  0.5003847E+03  0.7546771E-02  0.9398949E-01
        -11   -1    0    0    0    0  0.00000000000E+00  0.00000000000E+00  0.50000000000E+03  0.50000000000E+03  0.00000000000E+00 0.  1.
         11   -1    0    0    0    0 -0.00000000000E+00 -0.00000000000E+00 -0.50000000000E+03  0.50000000000E+03  0.00000000000E+00 0.  1.
        -11    1    1    2    0    0 -0.65840893772E+01 -0.18444271239E+01  0.49956848681E+03  0.49961527715E+03  0.00000000000E+00 0.  1.
         11    1    1    2    0    0  0.58396737522E+00  0.91476489318E+01 -0.37307403674E+03  0.37318662542E+03  0.00000000000E+00 0.  1.
        -15    1    1    2    0    0  0.68143235638E+01 -0.53501150839E+01 -0.60208642757E+02  0.60854721498E+02  0.17770000000E+01 0.  1.
         15    1    1    2    0    0 -0.81420156175E+00 -0.19531067240E+01 -0.66285807314E+02  0.66343375934E+02  0.17770000000E+01 0. -1.
</event>
<event>
 6    1  0.3365733E-003  0.5006709E+03  0.7546771E-02  0.9398310E-01
        -11   -1    0    0    0    0  0.00000000000E+00  0.00000000000E+00  0.50000000000E+03  0.50000000000E+03  0.00000000000E+00 0.  1.
         11   -1    0    0    0    0 -0.00000000000E+00 -0.00000000000E+00 -0.50000000000E+03  0.50000000000E+03  0.00000000000E+00 0.  1.
        -11    1    1    2    0    0 -0.10683621209E+01  0.52393059766E+01  0.36439103766E+03  0.36443026775E+03  0.00000000000E+00 0.  1.
         11    1    1    2    0    0  0.46610556127E+01 -0.62211822365E+01 -0.49926863137E+03  0.49932914477E+03  0.00000000000E+00 0.  1.
        -15    1    1    2    0    0 -0.10911323387E+02  0.29034391114E+01  0.83357907200E+02  0.84137894902E+02  0.17770000000E+01 0. -1.
         15    1    1    2    0    0  0.73186298950E+01 -0.19215628516E+01  0.51519686508E+02  0.52102692581E+02  0.17770000000E+01 0.  1.
</event>
<event>
 6    1  0.3365733E-003  0.5051810E+03  0.7546771E-02  0.9388291E-01
        -11   -1    0    0    0    0  0.00000000000E+00  0.00000000000E+00  0.50000000000E+03  0.50000000000E+03  0.00000000000E+00 0.  1.
         11   -1    0    0    0    0 -0.00000000000E+00 -0.00000000000E+00 -0.50000000000E+03  0.50000000000E+03  0.00000000000E+00 0.  1.
        -11    1    1    2    0    0 -0.11989503804E+02  0.77205587386E+01  0.49461346871E+03  0.49481899585E+03  0.00000000000E+00 0.  1.
         11    1    1    2    0    0 -0.47372704662E+01  0.51161781352E+01 -0.45971879043E+03  0.45977166429E+03  0.00000000000E+00 0.  1.
        -15    1    1    2    0    0  0.79062305654E+01 -0.11402607430E+02 -0.61969345702E+01  0.15299923694E+02  0.17770000000E+01 0.  1.
         15    1    1    2    0    0  0.88205437043E+01 -0.14341294435E+01 -0.28697743714E+02  0.30109416165E+02  0.17770000000E+01 0. -1.
</event>
<event>
 6    1  0.3365733E-003  0.5021575E+03  0.7546771E-02  0.9394995E-01
        -11   -1    0    0    0    0  0.00000000000E+00  0.00000000000E+00  0.50000000000E+03  0.50000000000E+03  0.00000000000E+00 0.  1.
         11   -1    0    0    0    0 -0.00000000000E+00 -0.00000000000E+00 -0.50000000000E+03  0.50000000000E+03  0.00000000000E+00 0.  1.
        -11    1    1    2    0    0 -0.36086309703E+01  0.18211025143E+02  0.49749622566E+03  0.49784250341E+03  0.00000000000E+00 0.  1.
         11    1    1    2    0    0 -0.12536423294E+02 -0.38004649316E+00 -0.36937031275E+02  0.39008340438E+02  0.00000000000E+00 0.  1.
        -15    1    1    2    0    0  0.30762213270E+02 -0.12007546241E+02 -0.31506412475E+03  0.31679497370E+03  0.17770000000E+01 0.  1.
         15    1    1    2    0    0 -0.14617159006E+02 -0.58234324087E+01 -0.14549506964E+03  0.14635418245E+03  0.17770000000E+01 0. -1.
</event>
<event>
 6    1  0.3365733E-003  0.5022994E+03  0.7546771E-02  0.9394679E-01
        -11   -1    0    0    0    0  0.00000000000E+00  0.00000000000E+00  0.50000000000E+03  0.50000000000E+03  0.00000000000E+00 0. -1.
         11   -1    0    0    0    0 -0.00000000000E+00 -0.00000000000E+00 -0.50000000000E+03  0.50000000000E+03  0.00000000000E+00 0. -1.
        -11    1    1    2    0    0  0.79490678604E+01 -0.13249472900E+02  0.49746071109E+03  0.49770060809E+03  0.00000000000E+00 0. -1.
         11    1    1    2    0    0 -0.16495398642E+01 -0.73543496632E+01 -0.42187412927E+03  0.42194145137E+03  0.00000000000E+00 0. -1.
        -15    1    1    2    0    0 -0.62934108571E+01  0.18741690066E+02 -0.75174717748E+02  0.77751230757E+02  0.17770000000E+01 0.  1.
         15    1    1    2    0    0 -0.61171391386E-02  0.18621324972E+01 -0.41186407964E+00  0.26067097799E+01  0.17770000000E+01 0. -1.
</event>
<event>
 6    1  0.3365733E-003  0.5016773E+03  0.7546771E-02  0.9396064E-01
        -11   -1    0    0    0    0  0.00000000000E+00  0.00000000000E+00  0.50000000000E+03  0.50000000000E+03  0.00000000000E+00 0.  1.
         11   -1    0    0    0    0 -0.00000000000E+00 -0.00000000000E+00 -0.50000000000E+03  0.50000000000E+03  0.00000000000E+00 0. -1.
        -11    1    1    2    0    0 -0.12779220441E+02 -0.10199950025E+01  0.34213688639E+03  0.34237698213E+03  0.00000000000E+00 0.  1.
         11    1    1    2    0    0 -0.41573269520E+01  0.10802052792E+02 -0.49818825572E+03  0.49832269249E+03  0.00000000000E+00 0. -1.
        -15    1    1    2    0    0  0.15604391759E+02  0.87106568221E+00  0.13160034009E+03  0.13253702516E+03  0.17770000000E+01 0. -1.
         15    1    1    2    0    0  0.13321556339E+01 -0.10653123471E+02  0.24451029242E+02  0.26763300214E+02  0.17770000000E+01 0.  1.
</event>
<event>
 6    1  0.3365733E-003  0.5095717E+03  0.7546771E-02  0.9378643E-01
        -11   -1    0    0    0    0  0.00000000000E+00  0.00000000000E+00  0.50000000000E+03  0.50000000000E+03  0.00000000000E+00 0.  1.
         11   -1    0    0    0    0 -0.00000000000E+00 -0.00000000000E+00 -0.50000000000E+03  0.50000000000E+03  0.00000000000E+00 0. -1.
        -11    1    1    2    0    0  0.58692580112E+01  0.46405198979E+01  0.49037124442E+03  0.49042832297E+03  0.00000000000E+00 0.  1.
         11    1    1    2    0    0  0.95412654804E+01  0.11307568068E+01 -0.16391500164E+03  0.16419635233E+03  0.00000000000E+00 0. -1.
        -15    1    1    2    0    0 -0.22783286931E+02 -0.22321022677E+02 -0.18567449180E+02  0.36948803970E+02  0.17770000000E+01 0.  1.
         15    1    1    2    0    0  0.73727634398E+01  0.16549745972E+02 -0.30788879361E+03  0.30842652073E+03  0.17770000000E+01 0. -1.
</event>
<event>
 6    1  0.3365733E-003  0.5047749E+03  0.7546771E-02  0.9389188E-01
        -11   -1    0    0    0    0  0.00000000000E+00  0.00000000000E+00  0.50000000000E+03  0.50000000000E+03  0.00000000000E+00 0. -1.
         11   -1    0    0    0    0 -0.00000000000E+00 -0.00000000000E+00 -0.50000000000E+03  0.50000000000E+03  0.00000000000E+00 0. -1.
        -11    1    1    2    0    0 -0.61833705378E+01 -0.29314514329E+01  0.47207732262E+03  0.47212691727E+03  0.00000000000E+00 0. -1.
         11    1    1    2    0    0 -0.57258162763E+01 -0.68574648071E+01 -0.49514453169E+03  0.49522511756E+03  0.00000000000E+00 0. -1.
        -15    1    1    2    0    0  0.80530856212E+01  0.12181106085E+02  0.78588191059E+01  0.16677838596E+02  0.17770000000E+01 0.  1.
         15    1    1    2    0    0  0.38561011929E+01 -0.23921898453E+01  0.15208389961E+02  0.15970126577E+02  0.17770000000E+01 0. -1.
</event>
<event>
 6    1  0.3365733E-003  0.5036304E+03  0.7546771E-02  0.9391723E-01
        -11   -1    0    0    0    0  0.00000000000E+00  0.00000000000E+00  0.50000000000E+03  0.50000000000E+03  0.00000000000E+00 0.  1.
         11   -1    0    0    0    0 -0.00000000000E+00 -0.00000000000E+00 -0.50000000000E+03  0.50000000000E+03  0.00000000000E+00 0.  1.
        -11    1    1    2    0    0  0.85119499583E+01  0.61718938411E+01  0.49625826697E+03  0.49636963354E+03  0.00000000000E+00 0.  1.
         11    1    1    2    0    0  0.10747857870E+01  0.51036605095E+01 -0.32874057867E+03  0.32878194990E+03  0.00000000000E+00 0.  1.
        -15    1    1    2    0    0 -0.27006302615E+01 -0.11229810431E+02 -0.16732643775E+03  0.16773400534E+03  0.17770000000E+01 0.  1.
         15    1    1    2    0    0 -0.68861054838E+01 -0.45743919241E-01 -0.19125054057E+00  0.71144112201E+01  0.17770000000E+01 0. -1.
</event>
<event>
 6    1  0.3365733E-003  0.5010749E+03  0.7546771E-02  0.9397408E-01
        -11   -1    0    0    0    0  0.00000000000E+00  0.00000000000E+00  0.50000000000E+03  0.50000000000E+03  0.00000000000E+00 0. -1.
         11   -1    0    0    0    0 -0.00000000000E+00 -0.00000000000E+00 -0.50000000000E+03  0.50000000000E+03  0.00000000000E+00 0. -1.
        -11    1    1    2    0    0  0.65175938264E+01 -0.45678740555E+01  0.38975019727E+03  0.38983145175E+03  0.00000000000E+00 0. -1.
         11    1    1    2    0    0 -0.81265021147E+01 -0.90097648461E+01 -0.49877755247E+03  0.49892510736E+03  0.00000000000E+00 0. -1.
        -15    1    1    2    0    0  0.77242742966E+01  0.60039276955E+01  0.30138045275E+02  0.31735958520E+02  0.17770000000E+01 0. -1.
         15    1    1    2    0    0 -0.61153660083E+01  0.75737112061E+01  0.78889309927E+02  0.79507482368E+02  0.17770000000E+01 0.  1.
</event>
<event>
 6    1  0.3365733E-003  0.5013013E+03  0.7546771E-02  0.9396903E-01
        -11   -1    0    0    0    0  0.00000000000E+00  0.00000000000E+00  0.50000000000E+03  0.50000000000E+03  0.00000000000E+00 0.  1.
         11   -1    0    0    0    0 -0.00000000000E+00 -0.00000000000E+00 -0.50000000000E+03  0.50000000000E+03  0.00000000000E+00 0.  1.
        -11    1    1    2    0    0 -0.16189469872E+02 -0.11449378651E+02  0.49830435808E+03  0.49869872718E+03  0.00000000000E+00 0.  1.
         11    1    1    2    0    0  0.71785505785E+00  0.61391607768E+00 -0.39859225063E+02  0.39870415491E+02  0.00000000000E+00 0.  1.
        -15    1    1    2    0    0  0.10403071841E+02 -0.14126500992E+02 -0.33009467147E+03  0.33056532153E+03  0.17770000000E+01 0.  1.
         15    1    1    2    0    0  0.50685429729E+01  0.24961963565E+02 -0.12835046155E+03  0.13086553580E+03  0.17770000000E+01 0. -1.
</event>
<event>
 6    1  0.3365733E-003  0.5135201E+03  0.7546771E-02  0.9370056E-01
        -11   -1    0    0    0    0  0.00000000000E+00  0.00000000000E+00  0.50000000000E+03  0.50000000000E+03  0.00000000000E+00 0. -1.
         11   -1    0    0    0    0 -0.00000000000E+00 -0.00000000000E+00 -0.50000000000E+03  0.50000000000E+03  0.00000000000E+00 0. -1.
        -11    1    1    2    0    0 -0.11047665215E+02  0.14902380858E+02  0.48612612506E+03  0.48647994956E+03  0.00000000000E+00 0. -1.
         11    1    1    2    0    0  0.69452305588E+01  0.21195296439E-01 -0.34590786507E+03  0.34597758279E+03  0.00000000000E+00 0. -1.
        -15    1    1    2    0    0 -0.27664984186E+01 -0.54225774448E+01 -0.15122836145E+03  0.15136126616E+03  0.17770000000E+01 0. -1.
         15    1    1    2    0    0  0.68689330749E+01 -0.95009987098E+01  0.11010101466E+02  0.16181201481E+02  0.17770000000E+01 0.  1.
</event>
<event>
 6    1  0.3365733E-003  0.5036225E+03  0.7546771E-02  0.9391740E-01
        -11   -1    0    0    0    0  0.00000000000E+00  0.00000000000E+00  0.50000000000E+03  0.50000000000E+03  0.00000000000E+00 0. -1.
         11   -1    0    0    0    0 -0.00000000000E+00 -0.00000000000E+00 -0.50000000000E+03  0.50000000000E+03  0.00000000000E+00 0.  1.
        -11    1    1    2    0    0  0.13937711311E+02 -0.20077993232E+02  0.49577535305E+03  0.49637746353E+03  0.00000000000E+00 0. -1.
         11    1    1    2    0    0 -0.74305665188E+01  0.69915111682E+01 -0.43666422188E+03  0.43678339851E+03  0.00000000000E+00 0.  1.
        -15    1    1    2    0    0  0.63469191826E+01  0.32679131746E+01 -0.44070827464E+02  0.44680624458E+02  0.17770000000E+01 0.  1.
         15    1    1    2    0    0 -0.12854063974E+02  0.98185688888E+01 -0.15040303711E+02  0.22158513497E+02  0.17770000000E+01 0. -1.
</event>
<event>
 6    1  0.3365733E-003  0.5520306E+03  0.7546771E-02  0.9290368E-01
        -11   -1    0    0    0    0  0.00000000000E+00  0.00000000000E+00  0.50000000000E+03  0.50000000000E+03  0.00000000000E+00 0. -1.
         11   -1    0    0    0    0 -0.00000000000E+00 -0.00000000000E+00 -0.50000000000E+03  0.50000000000E+03  0.00000000000E+00 0.  1.
        -11    1    1    2    0    0 -0.65304221841E+01  0.37388457469E+01  0.39750268192E+03  0.39757390195E+03  0.00000000000E+00 0. -1.
         11    1    1    2    0    0  0.37507951217E+00  0.25606175664E+02 -0.44723683111E+03  0.44796941862E+03  0.00000000000E+00 0.  1.
        -15    1    1    2    0    0  0.33222569181E+01 -0.24732350545E+02 -0.49286399226E+02  0.55272356854E+02  0.17770000000E+01 0.  1.
         15    1    1    2    0    0  0.28330857538E+01 -0.46126708658E+01  0.99020548414E+02  0.99184322575E+02  0.17770000000E+01 0. -1.
</event>
<event>
 6    1  0.3365733E-003  0.5070654E+03  0.7546771E-02  0.9384138E-01
        -11   -1    0    0    0    0  0.00000000000E+00  0.00000000000E+00  0.50000000000E+03  0.50000000000E+03  0.00000000000E+00 0.  1.
         11   -1    0    0    0    0 -0.00000000000E+00 -0.00000000000E+00 -0.50000000000E+03  0.50000000000E+03  0.00000000000E+00 0. -1.
        -11    1    1    2    0    0 -0.18951974672E+02  0.23770741285E+02  0.49199626398E+03  0.49293462980E+03  0.00000000000E+00 0.  1.
         11    1    1    2    0    0  0.84036195963E+01 -0.92505303322E-01 -0.34606600717E+03  0.34616803824E+03  0.00000000000E+00 0. -1.
        -15    1    1    2    0    0  0.14622938143E+02 -0.11894465731E+02 -0.52406283532E+01  0.19645115156E+02  0.17770000000E+01 0.  1.
         15    1    1    2    0    0 -0.40745830676E+01 -0.11783770251E+02 -0.14068962845E+03  0.14125221680E+03  0.17770000000E+01 0. -1.
</event>
<event>
 6    1  0.3365733E-003  0.5013163E+03  0.7546771E-02  0.9396869E-01
        -11   -1    0    0    0    0  0.00000000000E+00  0.00000000000E+00  0.50000000000E+03  0.50000000000E+03  0.00000000000E+00 0. -1.
         11   -1    0    0    0    0 -0.00000000000E+00 -0.00000000000E+00 -0.50000000000E+03  0.50000000000E+03  0.00000000000E+00 0. -1.
        -11    1    1    2    0    0 -0.15964082256E+02 -0.63192486391E+00  0.32892823931E+03  0.32931601520E+03  0.00000000000E+00 0. -1.
         11    1    1    2    0    0  0.21092717266E+01 -0.95660726010E+01 -0.49858745515E+03  0.49868367650E+03  0.00000000000E+00 0. -1.
        -15    1    1    2    0    0  0.10624406804E+02  0.16412793874E+01  0.14827036183E+03  0.14867020463E+03  0.17770000000E+01 0. -1.
         15    1    1    2    0    0  0.32304037260E+01  0.85567180775E+01  0.21388854007E+02  0.23330103669E+02  0.17770000000E+01 0.  1.
</event>
<event>
 6    1  0.3365733E-003  0.5032732E+03  0.7546771E-02  0.9392515E-01
        -11   -1    0    0    0    0  0.00000000000E+00  0.00000000000E+00  0.50000000000E+03  0.50000000000E+03  0.00000000000E+00 0.  1.
         11   -1    0    0    0    0 -0.00000000000E+00 -0.00000000000E+00 -0.50000000000E+03  0.50000000000E+03  0.00000000000E+00 0.  1.
        -11    1    1    2    0    0 -0.47679810255E+01  0.53587475431E+01  0.28358451659E+03  0.28367521546E+03  0.00000000000E+00 0.  1.
         11    1    1    2    0    0 -0.91419736203E+01  0.14651833633E+02 -0.49642647591E+03  0.49672678396E+03  0.00000000000E+00 0.  1.
        -15    1    1    2    0    0  0.11288969041E+02 -0.12273514234E+02  0.18093060762E+02  0.24669749703E+02  0.17770000000E+01 0. -1.
         15    1    1    2    0    0  0.26209856047E+01 -0.77370669422E+01  0.19474889856E+03  0.19492825088E+03  0.17770000000E+01 0.  1.
</event>
<event>
 6    1  0.3365733E-003  0.5074036E+03  0.7546771E-02  0.9383394E-01
        -11   -1    0    0    0    0  0.00000000000E+00  0.00000000000E+00  0.50000000000E+03  0.50000000000E+03  0.00000000000E+00 0. -1.
         11   -1    0    0    0    0 -0.00000000000E+00 -0.00000000000E+00 -0.50000000000E+03  0.50000000000E+03  0.00000000000E+00 0. -1.
        -11    1    1    2    0    0  0.76795969214E+01  0.63659458235E+01  0.46242427591E+03  0.46253185017E+03  0.00000000000E+00 0. -1.
         11    1    1    2    0    0  0.89815772333E+01  0.13649325075E+01 -0.49251258214E+03  0.49259636147E+03  0.00000000000E+00 0. -1.
        -15    1    1    2    0    0 -0.82702177725E+00  0.81545651785E+01  0.16706812529E+02  0.18693747943E+02  0.17770000000E+01 0.  1.
         15    1    1    2    0    0 -0.15834152377E+02 -0.15885443509E+02  0.13381493704E+02  0.26178040411E+02  0.17770000000E+01 0. -1.
</event>
<event>
 6    1  0.3365733E-003  0.5109766E+03  0.7546771E-02  0.9375578E-01
        -11   -1    0    0    0    0  0.00000000000E+00  0.00000000000E+00  0.50000000000E+03  0.50000000000E+03  0.00000000000E+00 0. -1.
         11   -1    0    0    0    0 -0.00000000000E+00 -0.00000000000E+00 -0.50000000000E+03  0.50000000000E+03  0.00000000000E+00 0.  1.
        -11    1    1    2    0    0  0.94942851915E+00  0.71883284435E+01  0.48896965686E+03  0.48902341335E+03  0.00000000000E+00 0. -1.
         11    1    1    2    0    0 -0.18450907495E+02 -0.38973143227E+02 -0.37625259252E+03  0.37871540140E+03  0.00000000000E+00 0.  1.
        -15    1    1    2    0    0 -0.10061436657E+02 -0.59007211169E+01 -0.18395519602E+01  0.11941218435E+02  0.17770000000E+01 0.  1.
         15    1    1    2    0    0  0.27562915633E+02  0.37685535901E+02 -0.11087751238E+03  0.12031996681E+03  0.17770000000E+01 0. -1.
</event>
<event>
 6    1  0.3627887E-003  0.5132803E+03  0.7546771E-02  0.9370575E-01
        -11   -1    0    0    0    0  0.00000000000E+00  0.00000000000E+00  0.50000000000E+03  0.50000000000E+03  0.00000000000E+00 0. -1.
         11   -1    0    0    0    0 -0.00000000000E+00 -0.00000000000E+00 -0.50000000000E+03  0.50000000000E+03  0.00000000000E+00 0.  1.
        -11    1    1    2    0    0  0.64874229760E+01 -0.35117683240E+01  0.39258658322E+03  0.39265588560E+03  0.00000000000E+00 0. -1.
         11    1    1    2    0    0 -0.62487687897E+01 -0.85995772198E+01 -0.48660358236E+03  0.48671967929E+03  0.00000000000E+00 0.  1.
        -15    1    1    2    0    0  0.29929632560E+01  0.10253855518E+02 -0.11052959453E+02  0.15473364977E+02  0.17770000000E+01 0.  1.
         15    1    1    2    0    0 -0.32316174423E+01  0.18574900256E+01  0.10506995860E+03  0.10515107013E+03  0.17770000000E+01 0. -1.
</event>
<event>
 6    1  0.3365733E-003  0.4637692E+03  0.7546771E-02  0.9484740E-01
        -11   -1    0    0    0    0  0.00000000000E+00  0.00000000000E+00  0.50000000000E+03  0.50000000000E+03  0.00000000000E+00 0. -1.
         11   -1    0    0    0    0 -0.00000000000E+00 -0.00000000000E+00 -0.50000000000E+03  0.50000000000E+03  0.00000000000E+00 0.  1.
        -11    1    1    2    0    0 -0.65021424534E+01 -0.19220347427E+00  0.45260306570E+03  0.45264980933E+03  0.00000000000E+00 0. -1.
         11    1    1    2    0    0 -0.21627937088E+02  0.33922359033E+02 -0.47448305933E+03  0.47618553915E+03  0.00000000000E+00 0.  1.
        -15    1    1    2    0    0 -0.33034843904E+01 -0.77914772028E+01  0.28549474658E+02  0.29830359675E+02  0.17770000000E+01 0. -1.
         15    1    1    2    0    0  0.31433563931E+02 -0.25938678356E+02 -0.66694810296E+01  0.41334291847E+02  0.17770000000E+01 0.  1.
</event>
<event>
 6    1  0.3365733E-003  0.5002726E+03  0.7546771E-02  0.9399200E-01
        -11   -1    0    0    0    0  0.00000000000E+00  0.00000000000E+00  0.50000000000E+03  0.50000000000E+03  0.00000000000E+00 0. -1.
         11   -1    0    0    0    0 -0.00000000000E+00 -0.00000000000E+00 -0.50000000000E+03  0.50000000000E+03  0.00000000000E+00 0.  1.
        -11    1    1    2    0    0 -0.45157968945E+00 -0.52129049855E+01  0.33330111144E+03  0.33334218034E+03  0.00000000000E+00 0. -1.
         11    1    1    2    0    0  0.95472546526E+01  0.10731849520E+01 -0.49963500621E+03  0.49972736689E+03  0.00000000000E+00 0.  1.
        -15    1    1    2    0    0 -0.56928109332E+00 -0.24722032189E+01  0.30369670380E+02  0.30527208810E+02  0.17770000000E+01 0. -1.
         15    1    1    2    0    0 -0.85263938698E+01  0.66119232524E+01  0.13596422438E+03  0.13640324396E+03  0.17770000000E+01 0.  1.
</event>
<event>
 6    1  0.3365733E-003  0.5028274E+03  0.7546771E-02  0.9393505E-01
        -11   -1    0    0    0    0  0.00000000000E+00  0.00000000000E+00  0.50000000000E+03  0.50000000000E+03  0.00000000000E+00 0.  1.
         11   -1    0    0    0    0 -0.00000000000E+00 -0.00000000000E+00 -0.50000000000E+03  0.50000000000E+03  0.00000000000E+00 0. -1.
        -11    1    1    2    0    0 -0.62541763118E+01  0.35984195868E+01  0.49712022757E+03  0.49717258976E+03  0.00000000000E+00 0.  1.
         11    1    1    2    0    0  0.44470112607E+01  0.19053879023E+00 -0.13470901778E+03  0.13478253479E+03  0.00000000000E+00 0. -1.
        -15    1    1    2    0    0  0.59611200466E+01  0.23865633828E+01 -0.12207511634E+01  0.67733742989E+01  0.17770000000E+01 0.  1.
         15    1    1    2    0    0 -0.41539549955E+01 -0.61755217598E+01 -0.36119045863E+03  0.36127150115E+03  0.17770000000E+01 0. -1.
</event>
<event>
 6    1  0.3365733E-003  0.5019741E+03  0.7546771E-02  0.9395403E-01
        -11   -1    0    0    0    0  0.00000000000E+00  0.00000000000E+00  0.50000000000E+03  0.50000000000E+03  0.00000000000E+00 0.  1.
         11   -1    0    0    0    0 -0.00000000000E+00 -0.00000000000E+00 -0.50000000000E+03  0.50000000000E+03  0.00000000000E+00 0. -1.
        -11    1    1    2    0    0  0.15957925953E+02  0.80962251872E+01  0.43307287586E+03  0.43344240687E+03  0.00000000000E+00 0.  1.
         11    1    1    2    0    0  0.65505801161E+00 -0.10837683890E+02 -0.49790752881E+03  0.49802589465E+03  0.00000000000E+00 0. -1.
        -15    1    1    2    0    0 -0.54367675155E+01 -0.57077557473E+01  0.23196969046E+02  0.24564079845E+02  0.17770000000E+01 0. -1.
         15    1    1    2    0    0 -0.11176216449E+02  0.84492144499E+01  0.41637683902E+02  0.43967618637E+02  0.17770000000E+01 0.  1.
</event>
<event>
 6    1  0.3365733E-003  0.5076343E+03  0.7546771E-02  0.9382888E-01
        -11   -1    0    0    0    0  0.00000000000E+00  0.00000000000E+00  0.50000000000E+03  0.50000000000E+03  0.00000000000E+00 0. -1.
         11   -1    0    0    0    0 -0.00000000000E+00 -0.00000000000E+00 -0.50000000000E+03  0.50000000000E+03  0.00000000000E+00 0. -1.
        -11    1    1    2    0    0  0.89897651041E+01  0.44538353271E+01  0.44651991387E+03  0.44663260742E+03  0.00000000000E+00 0. -1.
         11    1    1    2    0    0  0.34278566602E+01  0.19182191302E+02 -0.49197992947E+03  0.49236567474E+03  0.00000000000E+00 0. -1.
        -15    1    1    2    0    0 -0.63921669057E+01  0.55997638024E+01  0.19718436364E+02  0.21545106498E+02  0.17770000000E+01 0. -1.
         15    1    1    2    0    0 -0.60254548586E+01 -0.29235790432E+02  0.25741579233E+02  0.39456611345E+02  0.17770000000E+01 0.  1.
</event>
<event>
 6    1  0.3365733E-003  0.5258097E+03  0.7546771E-02  0.9343841E-01
        -11   -1    0    0    0    0  0.00000000000E+00  0.00000000000E+00  0.50000000000E+03  0.50000000000E+03  0.00000000000E+00 0.  1.
         11   -1    0    0    0    0 -0.00000000000E+00 -0.00000000000E+00 -0.50000000000E+03  0.50000000000E+03  0.00000000000E+00 0.  1.
        -11    1    1    2    0    0  0.59700944755E+01  0.57659160955E+01  0.39499824063E+03  0.39508543117E+03  0.00000000000E+00 0.  1.
         11    1    1    2    0    0  0.13803220166E+02  0.10441721146E+01 -0.47398815838E+03  0.47419025028E+03  0.00000000000E+00 0.  1.
        -15    1    1    2    0    0  0.45493454767E+00  0.18357907817E+02  0.93483478482E+02  0.95286610932E+02  0.17770000000E+01 0. -1.
         15    1    1    2    0    0 -0.20228249189E+02 -0.25167996027E+02 -0.14493560741E+02  0.35437707618E+02  0.17770000000E+01 0.  1.
</event>
<event>
 6    1  0.3365733E-003  0.5013448E+03  0.7546771E-02  0.9396806E-01
        -11   -1    0    0    0    0  0.00000000000E+00  0.00000000000E+00  0.50000000000E+03  0.50000000000E+03  0.00000000000E+00 0. -1.
         11   -1    0    0    0    0 -0.00000000000E+00 -0.00000000000E+00 -0.50000000000E+03  0.50000000000E+03  0.00000000000E+00 0. -1.
        -11    1    1    2    0    0  0.44666177003E+01  0.10750137532E+02  0.25023348996E+03  0.25050412298E+03  0.00000000000E+00 0. -1.
         11    1    1    2    0    0 -0.10536622260E+02  0.12960962107E+02 -0.49837537955E+03  0.49865521745E+03  0.00000000000E+00 0. -1.
        -15    1    1    2    0    0 -0.14367919327E+01 -0.19477484420E+02  0.22823030832E+03  0.22907131670E+03  0.17770000000E+01 0. -1.
         15    1    1    2    0    0  0.75067964925E+01 -0.42336152179E+01  0.19911581274E+02  0.21769342875E+02  0.17770000000E+01 0.  1.
</event>
<event>
 6    1  0.3365733E-003  0.5039522E+03  0.7546771E-02  0.9391010E-01
        -11   -1    0    0    0    0  0.00000000000E+00  0.00000000000E+00  0.50000000000E+03  0.50000000000E+03  0.00000000000E+00 0. -1.
         11   -1    0    0    0    0 -0.00000000000E+00 -0.00000000000E+00 -0.50000000000E+03  0.50000000000E+03  0.00000000000E+00 0.  1.
        -11    1    1    2    0    0 -0.72379061953E+01  0.19499418326E+01  0.47526891354E+03  0.47532802330E+03  0.00000000000E+00 0. -1.
         11    1    1    2    0    0 -0.53757133016E+01 -0.53086085161E+01 -0.49599027240E+03  0.49604781013E+03  0.00000000000E+00 0.  1.
        -15    1    1    2    0    0  0.89353640630E+01  0.55869958885E+01  0.42381490093E+01  0.11496733885E+02  0.17770000000E+01 0.  1.
         15    1    1    2    0    0  0.36782554339E+01 -0.22283292049E+01  0.16483209859E+02  0.17127432683E+02  0.17770000000E+01 0. -1.
</event>
<event>
 6    1  0.3365733E-003  0.5025709E+03  0.7546771E-02  0.9394075E-01
        -11   -1    0    0    0    0  0.00000000000E+00  0.00000000000E+00  0.50000000000E+03  0.50000000000E+03  0.00000000000E+00 0. -1.
         11   -1    0    0    0    0 -0.00000000000E+00 -0.00000000000E+00 -0.50000000000E+03  0.50000000000E+03  0.00000000000E+00 0.  1.
        -11    1    1    2    0    0 -0.38635380121E+01 -0.69404342158E+01  0.49736569491E+03  0.49742912161E+03  0.00000000000E+00 0. -1.
         11    1    1    2    0    0 -0.43828246091E+01  0.57995353008E+01 -0.46178209014E+03  0.46183930380E+03  0.00000000000E+00 0.  1.
        -15    1    1    2    0    0  0.45964775255E+01  0.19445502949E+01 -0.40810822161E+00  0.53134887609E+01  0.17770000000E+01 0. -1.
         15    1    1    2    0    0  0.36498850957E+01 -0.80365137996E+00 -0.35175496555E+02  0.35418085827E+02  0.17770000000E+01 0.  1.
</event>
<event>
 6    1  0.3365733E-003  0.5604935E+03  0.7546771E-02  0.9273778E-01
        -11   -1    0    0    0    0  0.00000000000E+00  0.00000000000E+00  0.50000000000E+03  0.50000000000E+03  0.00000000000E+00 0. -1.
         11   -1    0    0    0    0 -0.00000000000E+00 -0.00000000000E+00 -0.50000000000E+03  0.50000000000E+03  0.00000000000E+00 0.  1.
        -11    1    1    2    0    0  0.21477929315E+02  0.31422977961E+02  0.43785525687E+03  0.43950646294E+03  0.00000000000E+00 0. -1.
         11    1    1    2    0    0 -0.48439974698E+01 -0.34858472534E+01 -0.38191437968E+03  0.38196100435E+03  0.00000000000E+00 0.  1.
        -15    1    1    2    0    0 -0.86129477694E+02 -0.45050457594E+02 -0.23987756262E+02  0.10013191717E+03  0.17770000000E+01 0. -1.
         15    1    1    2    0    0  0.69495545849E+02  0.17113326886E+02 -0.31953120937E+02  0.78400615537E+02  0.17770000000E+01 0.  1.
</event>
<event>
 6    1  0.3365733E-003  0.5196637E+03  0.7546771E-02  0.9356855E-01
        -11   -1    0    0    0    0  0.00000000000E+00  0.00000000000E+00  0.50000000000E+03  0.50000000000E+03  0.00000000000E+00 0. -1.
         11   -1    0    0    0    0 -0.00000000000E+00 -0.00000000000E+00 -0.50000000000E+03  0.50000000000E+03  0.00000000000E+00 0.  1.
        -11    1    1    2    0    0  0.15392104754E+01  0.15229790666E+02  0.48009237715E+03  0.48033634704E+03  0.00000000000E+00 0. -1.
         11    1    1    2    0    0  0.22321457923E+02  0.24927993855E+02 -0.43025208863E+03  0.43155128563E+03  0.00000000000E+00 0.  1.
        -15    1    1    2    0    0 -0.37603008861E+02 -0.25152162366E+02 -0.50309853861E+02  0.67682026208E+02  0.17770000000E+01 0. -1.
         15    1    1    2    0    0  0.13742340462E+02 -0.15005622155E+02  0.46956534173E+00  0.20430341119E+02  0.17770000000E+01 0.  1.
</event>
<event>
 6    1  0.3365733E-003  0.5007094E+03  0.7546771E-02  0.9398224E-01
        -11   -1    0    0    0    0  0.00000000000E+00  0.00000000000E+00  0.50000000000E+03  0.50000000000E+03  0.00000000000E+00 0. -1.
         11   -1    0    0    0    0 -0.00000000000E+00 -0.00000000000E+00 -0.50000000000E+03  0.50000000000E+03  0.00000000000E+00 0. -1.
        -11    1    1    2    0    0  0.62865733040E+01  0.26488256221E+01  0.49924398614E+03  0.49929059172E+03  0.00000000000E+00 0. -1.
         11    1    1    2    0    0 -0.54671484397E+01  0.69465519991E+01 -0.36176590623E+03  0.36187389407E+03  0.00000000000E+00 0. -1.
        -15    1    1    2    0    0 -0.66009203453E+01 -0.30772560178E+01 -0.10143947641E+03  0.10171610864E+03  0.17770000000E+01 0. -1.
         15    1    1    2    0    0  0.57814954810E+01 -0.65181216035E+01 -0.36038603499E+02  0.37119405577E+02  0.17770000000E+01 0.  1.
</event>
<event>
 6    1  0.3365733E-003  0.5014983E+03  0.7546771E-02  0.9396463E-01
        -11   -1    0    0    0    0  0.00000000000E+00  0.00000000000E+00  0.50000000000E+03  0.50000000000E+03  0.00000000000E+00 0.  1.
         11   -1    0    0    0    0 -0.00000000000E+00 -0.00000000000E+00 -0.50000000000E+03  0.50000000000E+03  0.00000000000E+00 0.  1.
        -11    1    1    2    0    0 -0.36319546921E+01  0.46731181253E+01  0.33228342105E+03  0.33233612659E+03  0.00000000000E+00 0.  1.
         11    1    1    2    0    0 -0.84152792961E+01 -0.49409083999E+01 -0.49840615015E+03  0.49850167503E+03  0.00000000000E+00 0.  1.
        -15    1    1    2    0    0  0.18048924643E+02  0.61564010649E+01  0.14641325078E+03  0.14766063351E+03  0.17770000000E+01 0.  1.
         15    1    1    2    0    0 -0.60016906550E+01 -0.58886107903E+01  0.19709478318E+02  0.21501564881E+02  0.17770000000E+01 0. -1.
</event>
<event>
 6    1  0.3365733E-003  0.5152603E+03  0.7546771E-02  0.9366296E-01
        -11   -1    0    0    0    0  0.00000000000E+00  0.00000000000E+00  0.50000000000E+03  0.50000000000E+03  0.00000000000E+00 0. -1.
         11   -1    0    0    0    0 -0.00000000000E+00 -0.00000000000E+00 -0.50000000000E+03  0.50000000000E+03  0.00000000000E+00 0.  1.
        -11    1    1    2    0    0  0.77299408545E+01 -0.16497251700E+02  0.48439717618E+03  0.48473965753E+03  0.00000000000E+00 0. -1.
         11    1    1    2    0    0 -0.10916364645E+01  0.69880355526E+01 -0.47447949513E+03  0.47453220714E+03  0.00000000000E+00 0.  1.
        -15    1    1    2    0    0 -0.98474296689E+01  0.68880632157E+01 -0.23479797630E+02  0.26436261303E+02  0.17770000000E+01 0. -1.
         15    1    1    2    0    0  0.32091252788E+01  0.26211529319E+01  0.13562116587E+02  0.14291874022E+02  0.17770000000E+01 0.  1.
</event>
<event>
 6    1  0.3365733E-003  0.5003575E+03  0.7546771E-02  0.9399010E-01
        -11   -1    0    0    0    0  0.00000000000E+00  0.00000000000E+00  0.50000000000E+03  0.50000000000E+03  0.00000000000E+00 0.  1.
         11   -1    0    0    0    0 -0.00000000000E+00 -0.00000000000E+00 -0.50000000000E+03  0.50000000000E+03  0.00000000000E+00 0.  1.
        -11    1    1    2    0    0  0.12986481544E+02  0.56758340247E+01  0.49944140536E+03  0.49964245334E+03  0.00000000000E+00 0.  1.
         11    1    1    2    0    0 -0.53114066566E+00 -0.89280829974E+01 -0.28697962239E+03  0.28711895870E+03  0.00000000000E+00 0.  1.
        -15    1    1    2    0    0 -0.93430581426E+01  0.78641962428E+01 -0.14607088382E+03  0.14659126559E+03  0.17770000000E+01 0. -1.
         15    1    1    2    0    0 -0.31122827359E+01 -0.46119472701E+01 -0.66390899144E+02  0.66647322373E+02  0.17770000000E+01 0.  1.
</event>
<event>
 6    1  0.3365733E-003  0.5042300E+03  0.7546771E-02  0.9390394E-01
        -11   -1    0    0    0    0  0.00000000000E+00  0.00000000000E+00  0.50000000000E+03  0.50000000000E+03  0.00000000000E+00 0. -1.
         11   -1    0    0    0    0 -0.00000000000E+00 -0.00000000000E+00 -0.50000000000E+03  0.50000000000E+03  0.00000000000E+00 0.  1.
        -11    1    1    2    0    0  0.40038350038E+01  0.82094081631E+01  0.49568584650E+03  0.49576999051E+03  0.00000000000E+00 0. -1.
         11    1    1    2    0    0 -0.57437901424E+01  0.48163509192E+01 -0.46294397119E+03  0.46300465314E+03  0.00000000000E+00 0.  1.
        -15    1    1    2    0    0 -0.89086038945E+01 -0.88486303688E+01 -0.22210233944E+02  0.25575646690E+02  0.17770000000E+01 0.  1.
         15    1    1    2    0    0  0.10648559033E+02 -0.41771287135E+01 -0.10531641357E+02  0.15649709660E+02  0.17770000000E+01 0. -1.
</event>
<event>
 6    1  0.3365733E-003  0.5086093E+03  0.7546771E-02  0.9380749E-01
        -11   -1    0    0    0    0  0.00000000000E+00  0.00000000000E+00  0.50000000000E+03  0.50000000000E+03  0.00000000000E+00 0. -1.
         11   -1    0    0    0    0 -0.00000000000E+00 -0.00000000000E+00 -0.50000000000E+03  0.50000000000E+03  0.00000000000E+00 0. -1.
        -11    1    1    2    0    0 -0.19250067532E+02  0.87942176358E+01  0.49093470102E+03  0.49139066335E+03  0.00000000000E+00 0. -1.
         11    1    1    2    0    0  0.17936006355E+02 -0.28659372453E+01 -0.30004808225E+03  0.30059734793E+03  0.00000000000E+00 0. -1.
        -15    1    1    2    0    0  0.35263311616E+02 -0.25376297513E+02 -0.99294551116E+02  0.10839752410E+03  0.17770000000E+01 0.  1.
         15    1    1    2    0    0 -0.33949250439E+02  0.19448017123E+02 -0.91592067648E+02  0.99614464615E+02  0.17770000000E+01 0. -1.
</event>
<event>
 6    1  0.3365733E-003  0.5032417E+03  0.7546771E-02  0.9392585E-01
        -11   -1    0    0    0    0  0.00000000000E+00  0.00000000000E+00  0.50000000000E+03  0.50000000000E+03  0.00000000000E+00 0. -1.
         11   -1    0    0    0    0 -0.00000000000E+00 -0.00000000000E+00 -0.50000000000E+03  0.50000000000E+03  0.00000000000E+00 0. -1.
        -11    1    1    2    0    0  0.18520792170E+02 -0.22398265964E+01  0.49640784624E+03  0.49675827761E+03  0.00000000000E+00 0. -1.
         11    1    1    2    0    0  0.50225131032E+01  0.99001096513E+00 -0.20417390875E+03  0.20423807376E+03  0.00000000000E+00 0. -1.
        -15    1    1    2    0    0  0.60262022492E+01 -0.22916217188E+02 -0.14243323370E+03  0.14440170329E+03  0.17770000000E+01 0. -1.
         15    1    1    2    0    0 -0.29569507523E+02  0.24166032819E+02 -0.14980070379E+03  0.15460194534E+03  0.17770000000E+01 0.  1.
</event>
<event>
 6    1  0.3365733E-003  0.5001222E+03  0.7546771E-02  0.9399536E-01
        -11   -1    0    0    0    0  0.00000000000E+00  0.00000000000E+00  0.50000000000E+03  0.50000000000E+03  0.00000000000E+00 0.  1.
         11   -1    0    0    0    0 -0.00000000000E+00 -0.00000000000E+00 -0.50000000000E+03  0.50000000000E+03  0.00000000000E+00 0.  1.
        -11    1    1    2    0    0 -0.60675600375E+01 -0.80234720332E+01  0.49977656968E+03  0.49987779605E+03  0.00000000000E+00 0.  1.
         11    1    1    2    0    0 -0.20210623484E+01  0.18164702085E+01 -0.10498757639E+03  0.10502273780E+03  0.00000000000E+00 0.  1.
        -15    1    1    2    0    0  0.36228740950E+01  0.37780748365E+01 -0.34032413557E+03  0.34036902627E+03  0.17770000000E+01 0.  1.
         15    1    1    2    0    0  0.44657482910E+01  0.24289269882E+01 -0.54464857718E+02  0.54730439879E+02  0.17770000000E+01 0. -1.
</event>
<event>
 6    1  0.3365733E-003  0.5029322E+03  0.7546771E-02  0.9393273E-01
        -11   -1    0    0    0    0  0.00000000000E+00  0.00000000000E+00  0.50000000000E+03  0.50000000000E+03  0.00000000000E+00 0.  1.
         11   -1    0    0    0    0 -0.00000000000E+00 -0.00000000000E+00 -0.50000000000E+03  0.50000000000E+03  0.00000000000E+00 0. -1.
        -11    1    1    2    0    0  0.36114216570E+01 -0.38376191835E+01  0.35331077874E+03  0.35335007579E+03  0.00000000000E+00 0.  1.
         11    1    1    2    0    0 -0.19463076762E+02 -0.10248478724E+02 -0.49658087673E+03  0.49706781208E+03  0.00000000000E+00 0. -1.
        -15    1    1    2    0    0 -0.34819221157E+01  0.60352950698E+01  0.10996270133E+03  0.11019755887E+03  0.17770000000E+01 0.  1.
         15    1    1    2    0    0  0.19333577221E+02  0.80508028372E+01  0.33307396658E+02  0.39384553261E+02  0.17770000000E+01 0. -1.
</event>
<event>
 6    1  0.3365733E-003  0.5032924E+03  0.7546771E-02  0.9392473E-01
        -11   -1    0    0    0    0  0.00000000000E+00  0.00000000000E+00  0.50000000000E+03  0.50000000000E+03  0.00000000000E+00 0.  1.
         11   -1    0    0    0    0 -0.00000000000E+00 -0.00000000000E+00 -0.50000000000E+03  0.50000000000E+03  0.00000000000E+00 0.  1.
        -11    1    1    2    0    0 -0.55859151261E+01 -0.21957650911E+01  0.41461972254E+03  0.41466316228E+03  0.00000000000E+00 0.  1.
         11    1    1    2    0    0  0.48966683091E+00  0.29054174138E+02 -0.49585686566E+03  0.49670757597E+03  0.00000000000E+00 0.  1.
        -15    1    1    2    0    0  0.65669677747E+00 -0.24753689662E+02  0.40109098615E+02  0.47170689239E+02  0.17770000000E+01 0. -1.
         15    1    1    2    0    0  0.44395515177E+01 -0.21047193846E+01  0.41128044498E+02  0.41458572511E+02  0.17770000000E+01 0.  1.
</event>
<event>
 6    1  0.3365733E-003  0.5040120E+03  0.7546771E-02  0.9390877E-01
        -11   -1    0    0    0    0  0.00000000000E+00  0.00000000000E+00  0.50000000000E+03  0.50000000000E+03  0.00000000000E+00 0. -1.
         11   -1    0    0    0    0 -0.00000000000E+00 -0.00000000000E+00 -0.50000000000E+03  0.50000000000E+03  0.00000000000E+00 0. -1.
        -11    1    1    2    0    0  0.70674241837E+01  0.16381132106E+02  0.27294828031E+03  0.27353071801E+03  0.00000000000E+00 0. -1.
         11    1    1    2    0    0  0.60302801293E+01 -0.30142208039E+01 -0.49594214689E+03  0.49598796645E+03  0.00000000000E+00 0. -1.
        -15    1    1    2    0    0 -0.40820815039E+01 -0.10581912259E+02  0.22017520613E+03  0.22047430549E+03  0.17770000000E+01 0.  1.
         15    1    1    2    0    0 -0.90156228090E+01 -0.27849990434E+01  0.28186604482E+01  0.10007010044E+02  0.17770000000E+01 0. -1.
</event>
<event>
 6    1  0.3365733E-003  0.5437688E+03  0.7546771E-02  0.9306871E-01
        -11   -1    0    0    0    0  0.00000000000E+00  0.00000000000E+00  0.50000000000E+03  0.50000000000E+03  0.00000000000E+00 0. -1.
         11   -1    0    0    0    0 -0.00000000000E+00 -0.00000000000E+00 -0.50000000000E+03  0.50000000000E+03  0.00000000000E+00 0. -1.
        -11    1    1    2    0    0 -0.13230555710E+02 -0.15289123342E+02  0.45578296556E+03  0.45623120958E+03  0.00000000000E+00 0. -1.
         11    1    1    2    0    0 -0.26466585635E+02 -0.21489131909E+02 -0.41179644177E+03  0.41320524246E+03  0.00000000000E+00 0. -1.
        -15    1    1    2    0    0  0.14690171520E+02 -0.17463653609E+02 -0.63662329728E+02  0.67652274848E+02  0.17770000000E+01 0. -1.
         15    1    1    2    0    0  0.25006969824E+02  0.54241908860E+02  0.19675805936E+02  0.62911273114E+02  0.17770000000E+01 0.  1.
</event>
<event>
 6    1  0.3365733E-003  0.5182452E+03  0.7546771E-02  0.9359885E-01
        -11   -1    0    0    0    0  0.00000000000E+00  0.00000000000E+00  0.50000000000E+03  0.50000000000E+03  0.00000000000E+00 0. -1.
         11   -1    0    0    0    0 -0.00000000000E+00 -0.00000000000E+00 -0.50000000000E+03  0.50000000000E+03  0.00000000000E+00 0. -1.
        -11    1    1    2    0    0 -0.23733226568E+02  0.32886426980E+02  0.48004466555E+03  0.48175477584E+03  0.00000000000E+00 0. -1.
         11    1    1    2    0    0 -0.73617572220E+01 -0.99231583978E+01 -0.28055414244E+03  0.28082608743E+03  0.00000000000E+00 0. -1.
        -15    1    1    2    0    0  0.22648512503E+01  0.15454025010E+02 -0.18713180585E+03  0.18779091280E+03  0.17770000000E+01 0. -1.
         15    1    1    2    0    0  0.28830132539E+02 -0.38417293592E+02 -0.12358717261E+02  0.49628223931E+02  0.17770000000E+01 0.  1.
</event>
<event>
 6    1  0.3365733E-003  0.4791020E+03  0.7546771E-02  0.9447824E-01
        -11   -1    0    0    0    0  0.00000000000E+00  0.00000000000E+00  0.50000000000E+03  0.50000000000E+03  0.00000000000E+00 0.  1.
         11   -1    0    0    0    0 -0.00000000000E+00 -0.00000000000E+00 -0.50000000000E+03  0.50000000000E+03  0.00000000000E+00 0. -1.
        -11    1    1    2    0    0  0.54130540400E+01  0.84598447510E+01  0.47815173774E+03  0.47825720531E+03  0.00000000000E+00 0.  1.
         11    1    1    2    0    0  0.11258174679E+02  0.76889665890E+01 -0.48003605670E+03  0.48022961428E+03  0.00000000000E+00 0. -1.
        -15    1    1    2    0    0 -0.16280877494E+02 -0.17837746281E+02 -0.12267047935E+02  0.27145724496E+02  0.17770000000E+01 0. -1.
         15    1    1    2    0    0 -0.39035122540E+00  0.16889349411E+01  0.14151366892E+02  0.14367455906E+02  0.17770000000E+01 0.  1.
</event>
<event>
 6    1  0.3365733E-003  0.5203374E+03  0.7546771E-02  0.9355419E-01
        -11   -1    0    0    0    0  0.00000000000E+00  0.00000000000E+00  0.50000000000E+03  0.50000000000E+03  0.00000000000E+00 0.  1.
         11   -1    0    0    0    0 -0.00000000000E+00 -0.00000000000E+00 -0.50000000000E+03  0.50000000000E+03  0.00000000000E+00 0. -1.
        -11    1    1    2    0    0 -0.61196562697E+01 -0.75771924647E+01  0.47956371005E+03  0.47966260646E+03  0.00000000000E+00 0.  1.
         11    1    1    2    0    0 -0.36119384780E+01  0.18324258767E+02 -0.45725023132E+03  0.45763150963E+03  0.00000000000E+00 0. -1.
        -15    1    1    2    0    0 -0.83173927263E+01 -0.11952138715E+02 -0.36701262791E+02  0.39524335049E+02  0.17770000000E+01 0. -1.
         15    1    1    2    0    0  0.18048987474E+02  0.12050724126E+01  0.14387784059E+02  0.23181548859E+02  0.17770000000E+01 0.  1.
</event>
<event>
 6    1  0.3365733E-003  0.5011727E+03  0.7546771E-02  0.9397190E-01
        -11   -1    0    0    0    0  0.00000000000E+00  0.00000000000E+00  0.50000000000E+03  0.50000000000E+03  0.00000000000E+00 0.  1.
         11   -1    0    0    0    0 -0.00000000000E+00 -0.00000000000E+00 -0.50000000000E+03  0.50000000000E+03  0.00000000000E+00 0. -1.
        -11    1    1    2    0    0  0.20489856573E+02  0.25058227510E+01  0.49840002127E+03  0.49882731939E+03  0.00000000000E+00 0.  1.
         11    1    1    2    0    0  0.51982498698E+01 -0.12448761495E+01 -0.12721443829E+03  0.12732668545E+03  0.00000000000E+00 0. -1.
        -15    1    1    2    0    0 -0.24967672631E+02 -0.51878967995E+01 -0.12330447523E+03  0.12592636853E+03  0.17770000000E+01 0.  1.
         15    1    1    2    0    0 -0.72043381163E+00  0.39269501980E+01 -0.24788110775E+03  0.24791962663E+03  0.17770000000E+01 0. -1.
</event>
<event>
 6    1  0.3365733E-003  0.5745841E+03  0.7546771E-02  0.9246832E-01
        -11   -1    0    0    0    0  0.00000000000E+00  0.00000000000E+00  0.50000000000E+03  0.50000000000E+03  0.00000000000E+00 0.  1.
         11   -1    0    0    0    0 -0.00000000000E+00 -0.00000000000E+00 -0.50000000000E+03  0.50000000000E+03  0.00000000000E+00 0. -1.
        -11    1    1    2    0    0 -0.29843324690E+00 -0.60773801494E+01  0.36406228168E+03  0.36411312604E+03  0.00000000000E+00 0.  1.
         11    1    1    2    0    0  0.90974325137E+01 -0.19145349359E+01 -0.42531428146E+03  0.42541587504E+03  0.00000000000E+00 0. -1.
        -15    1    1    2    0    0  0.40701507441E+02  0.13508867489E+02 -0.63207743613E+02  0.76403395150E+02  0.17770000000E+01 0.  1.
         15    1    1    2    0    0 -0.49500506708E+02 -0.55169524039E+01  0.12445974339E+03  0.13406760377E+03  0.17770000000E+01 0. -1.
</event>
<event>
 6    1  0.3365733E-003  0.5046949E+03  0.7546771E-02  0.9389365E-01
        -11   -1    0    0    0    0  0.00000000000E+00  0.00000000000E+00  0.50000000000E+03  0.50000000000E+03  0.00000000000E+00 0. -1.
         11   -1    0    0    0    0 -0.00000000000E+00 -0.00000000000E+00 -0.50000000000E+03  0.50000000000E+03  0.00000000000E+00 0. -1.
        -11    1    1    2    0    0 -0.14936371450E+01  0.74306707814E+01  0.49524712559E+03  0.49530511932E+03  0.00000000000E+00 0. -1.
         11    1    1    2    0    0  0.44322133841E+01 -0.49249847096E+01 -0.41876868172E+03  0.41882109400E+03  0.00000000000E+00 0. -1.
        -15    1    1    2    0    0  0.99248186061E+01 -0.79977388743E+00 -0.20731734177E+01  0.10324603608E+02  0.17770000000E+01 0.  1.
         15    1    1    2    0    0 -0.12863394845E+02 -0.17059121844E+01 -0.74405270454E+02  0.75549183077E+02  0.17770000000E+01 0. -1.
</event>
<event>
 6    1  0.3365733E-003  0.4284529E+03  0.7546771E-02  0.9575877E-01
        -11   -1    0    0    0    0  0.00000000000E+00  0.00000000000E+00  0.50000000000E+03  0.50000000000E+03  0.00000000000E+00 0. -1.
         11   -1    0    0    0    0 -0.00000000000E+00 -0.00000000000E+00 -0.50000000000E+03  0.50000000000E+03  0.00000000000E+00 0. -1.
        -11    1    1    2    0    0  0.15571009237E+02 -0.19973314370E+02  0.67941032817E+02  0.72507748247E+02  0.00000000000E+00 0. -1.
         11    1    1    2    0    0  0.12549364142E+01 -0.69136021464E+01 -0.45314781902E+03  0.45320229329E+03  0.00000000000E+00 0. -1.
        -15    1    1    2    0    0  0.42576520994E+02  0.52260486398E+02  0.40192568631E+03  0.40754304512E+03  0.17770000000E+01 0. -1.
         15    1    1    2    0    0 -0.59402466644E+02 -0.25373569882E+02 -0.16718900108E+02  0.66746913350E+02  0.17770000000E+01 0.  1.
</event>
<event>
 6    1  0.3365733E-003  0.4932153E+03  0.7546771E-02  0.9415120E-01
        -11   -1    0    0    0    0  0.00000000000E+00  0.00000000000E+00  0.50000000000E+03  0.50000000000E+03  0.00000000000E+00 0.  1.
         11   -1    0    0    0    0 -0.00000000000E+00 -0.00000000000E+00 -0.50000000000E+03  0.50000000000E+03  0.00000000000E+00 0. -1.
        -11    1    1    2    0    0 -0.25933845390E+01 -0.67598191620E+01  0.49467897003E+03  0.49473195185E+03  0.00000000000E+00 0.  1.
         11    1    1    2    0    0 -0.31493040504E+01  0.66098050666E+01 -0.49166538510E+03  0.49171989847E+03  0.00000000000E+00 0. -1.
        -15    1    1    2    0    0  0.42765639636E+01 -0.44369991844E-01  0.40272965235E+01  0.61374110437E+01  0.17770000000E+01 0. -1.
         15    1    1    2    0    0  0.14661246258E+01  0.19438408720E+00 -0.70408814472E+01  0.74107386370E+01  0.17770000000E+01 0.  1.
</event>
<event>
 6    1  0.3365733E-003  0.4856387E+03  0.7546771E-02  0.9432530E-01
        -11   -1    0    0    0    0  0.00000000000E+00  0.00000000000E+00  0.50000000000E+03  0.50000000000E+03  0.00000000000E+00 0. -1.
         11   -1    0    0    0    0 -0.00000000000E+00 -0.00000000000E+00 -0.50000000000E+03  0.50000000000E+03  0.00000000000E+00 0.  1.
        -11    1    1    2    0    0 -0.11269282362E+02 -0.20136716069E+01  0.48620756876E+03  0.48634231928E+03  0.00000000000E+00 0. -1.
         11    1    1    2    0    0 -0.10821603526E+02  0.75091115653E+01 -0.48502368058E+03  0.48520249853E+03  0.00000000000E+00 0.  1.
        -15    1    1    2    0    0  0.39114901413E+01 -0.62157747360E+01 -0.58881654730E+01  0.95793440450E+01  0.17770000000E+01 0. -1.
         15    1    1    2    0    0  0.18179395746E+02  0.72033477760E+00  0.47042772927E+01  0.18875838146E+02  0.17770000000E+01 0.  1.
</event>
<event>
 6    1  0.3365733E-003  0.5210582E+03  0.7546771E-02  0.9353885E-01
        -11   -1    0    0    0    0  0.00000000000E+00  0.00000000000E+00  0.50000000000E+03  0.50000000000E+03  0.00000000000E+00 0.  1.
         11   -1    0    0    0    0 -0.00000000000E+00 -0.00000000000E+00 -0.50000000000E+03  0.50000000000E+03  0.00000000000E+00 0.  1.
        -11    1    1    2    0    0 -0.10710931166E+02 -0.78278268690E+01  0.47150671971E+03  0.47169331737E+03  0.00000000000E+00 0.  1.
         11    1    1    2    0    0  0.14185903378E+02  0.42584672230E+01 -0.47871270684E+03  0.47894178152E+03  0.00000000000E+00 0.  1.
        -15    1    1    2    0    0  0.21148470952E+02 -0.49738010648E+01 -0.14449960244E+01  0.21845875198E+02  0.17770000000E+01 0.  1.
         15    1    1    2    0    0 -0.24623443164E+02  0.85431607107E+01  0.86509831528E+01  0.27519025904E+02  0.17770000000E+01 0. -1.
</event>
<event>
 6    1  0.3365733E-003  0.5005169E+03  0.7546771E-02  0.9398654E-01
        -11   -1    0    0    0    0  0.00000000000E+00  0.00000000000E+00  0.50000000000E+03  0.50000000000E+03  0.00000000000E+00 0. -1.
         11   -1    0    0    0    0 -0.00000000000E+00 -0.00000000000E+00 -0.50000000000E+03  0.50000000000E+03  0.00000000000E+00 0. -1.
        -11    1    1    2    0    0  0.53636383004E-01  0.82864959704E+00  0.39556177540E+02  0.39564892500E+02  0.00000000000E+00 0. -1.
         11    1    1    2    0    0 -0.10390235530E+02  0.83110369153E+00 -0.49937428670E+03  0.49948305872E+03  0.00000000000E+00 0. -1.
        -15    1    1    2    0    0  0.17643368499E-01 -0.44792417954E+01  0.11075326841E+02  0.12078266100E+02  0.17770000000E+01 0.  1.
         15    1    1    2    0    0  0.10318955778E+02  0.28194885068E+01  0.44874278232E+03  0.44887378268E+03  0.17770000000E+01 0. -1.
</event>
<event>
 6    1  0.3365733E-003  0.5007885E+03  0.7546771E-02  0.9398047E-01
        -11   -1    0    0    0    0  0.00000000000E+00  0.00000000000E+00  0.50000000000E+03  0.50000000000E+03  0.00000000000E+00 0. -1.
         11   -1    0    0    0    0 -0.00000000000E+00 -0.00000000000E+00 -0.50000000000E+03  0.50000000000E+03  0.00000000000E+00 0. -1.
        -11    1    1    2    0    0  0.25001881228E+01 -0.11788924799E+02  0.49906598014E+03  0.49921146042E+03  0.00000000000E+00 0. -1.
         11    1    1    2    0    0  0.39702503124E+01  0.32566658014E+01 -0.32589973065E+03  0.32594018347E+03  0.00000000000E+00 0. -1.
        -15    1    1    2    0    0  0.65656644254E+01  0.42597532613E+01 -0.31423130255E+02  0.32431840700E+02  0.17770000000E+01 0.  1.
         15    1    1    2    0    0 -0.13036102861E+02  0.42725057366E+01 -0.14174311923E+03  0.14241651541E+03  0.17770000000E+01 0. -1.
</event>
<event>
 6    1  0.3365733E-003  0.4881647E+03  0.7546771E-02  0.9426689E-01
        -11   -1    0    0    0    0  0.00000000000E+00  0.00000000000E+00  0.50000000000E+03  0.50000000000E+03  0.00000000000E+00 0. -1.
         11   -1    0    0    0    0 -0.00000000000E+00 -0.00000000000E+00 -0.50000000000E+03  0.50000000000E+03  0.00000000000E+00 0. -1.
        -11    1    1    2    0    0 -0.86090456678E+01 -0.57591318313E+01  0.48771223495E+03  0.48782220879E+03  0.00000000000E+00 0. -1.
         11    1    1    2    0    0 -0.72606967195E+01  0.29099123888E+01 -0.48857802073E+03  0.48864063241E+03  0.00000000000E+00 0. -1.
        -15    1    1    2    0    0  0.16202008190E+02  0.66791053670E+01 -0.29220182458E+01  0.17855291583E+02  0.17770000000E+01 0.  1.
         15    1    1    2    0    0 -0.33226580284E+00 -0.38298859245E+01  0.37878040186E+01  0.56818672143E+01  0.17770000000E+01 0. -1.
</event>
<event>
 6    1  0.4722244E-003  0.5194116E+03  0.7546771E-02  0.9357392E-01
        -11   -1    0    0    0    0  0.00000000000E+00  0.00000000000E+00  0.50000000000E+03  0.50000000000E+03  0.00000000000E+00 0.  1.
         11   -1    0    0    0    0 -0.00000000000E+00 -0.00000000000E+00 -0.50000000000E+03  0.50000000000E+03  0.00000000000E+00 0.  1.
        -11    1    1    2    0    0 -0.14023630917E-01 -0.75917025285E+01  0.48052839983E+03  0.48058836563E+03  0.00000000000E+00 0.  1.
         11    1    1    2    0    0 -0.17199542458E+02  0.91145853620E+01 -0.42947642694E+03  0.42991731905E+03  0.00000000000E+00 0.  1.
        -15    1    1    2    0    0  0.21167492593E+02 -0.60852647598E+01 -0.67955267633E+02  0.71457465096E+02  0.17770000000E+01 0. -1.
         15    1    1    2    0    0 -0.39539265047E+01  0.45623819263E+01  0.16903294743E+02  0.18036850219E+02  0.17770000000E+01 0.  1.
</event>
<event>
 6    1  0.3365733E-003  0.5006168E+03  0.7546771E-02  0.9398431E-01
        -11   -1    0    0    0    0  0.00000000000E+00  0.00000000000E+00  0.50000000000E+03  0.50000000000E+03  0.00000000000E+00 0.  1.
         11   -1    0    0    0    0 -0.00000000000E+00 -0.00000000000E+00 -0.50000000000E+03  0.50000000000E+03  0.00000000000E+00 0. -1.
        -11    1    1    2    0    0 -0.35317933543E+02 -0.60155739388E+01  0.49809636460E+03  0.49938315148E+03  0.00000000000E+00 0.  1.
         11    1    1    2    0    0  0.10707371680E+02  0.60433232229E+00 -0.12872729971E+03  0.12917325852E+03  0.00000000000E+00 0. -1.
        -15    1    1    2    0    0  0.24570332384E+02  0.11493629285E+02 -0.18710619071E+03  0.18907059285E+03  0.17770000000E+01 0.  1.
         15    1    1    2    0    0  0.40229479638E-01 -0.60823876683E+01 -0.18226287417E+03  0.18237299715E+03  0.17770000000E+01 0. -1.
</event>
<event>
 6    1  0.3365733E-003  0.5117218E+03  0.7546771E-02  0.9373957E-01
        -11   -1    0    0    0    0  0.00000000000E+00  0.00000000000E+00  0.50000000000E+03  0.50000000000E+03  0.00000000000E+00 0.  1.
         11   -1    0    0    0    0 -0.00000000000E+00 -0.00000000000E+00 -0.50000000000E+03  0.50000000000E+03  0.00000000000E+00 0. -1.
        -11    1    1    2    0    0  0.86309505312E+01 -0.17831580517E+01  0.23199110656E+03  0.23215845124E+03  0.00000000000E+00 0.  1.
         11    1    1    2    0    0 -0.28875552104E+01  0.76467245947E+01 -0.48820973396E+03  0.48827815301E+03  0.00000000000E+00 0. -1.
        -15    1    1    2    0    0 -0.55961643473E+01  0.19805848513E+01  0.26646473515E+03  0.26653677528E+03  0.17770000000E+01 0.  1.
         15    1    1    2    0    0 -0.14723097351E+00 -0.78441513943E+01 -0.10246107743E+02  0.13026620472E+02  0.17770000000E+01 0. -1.
</event>
<event>
 6    1  0.3365733E-003  0.5123124E+03  0.7546771E-02  0.9372674E-01
        -11   -1    0    0    0    0  0.00000000000E+00  0.00000000000E+00  0.50000000000E+03  0.50000000000E+03  0.00000000000E+00 0.  1.
         11   -1    0    0    0    0 -0.00000000000E+00 -0.00000000000E+00 -0.50000000000E+03  0.50000000000E+03  0.00000000000E+00 0.  1.
        -11    1    1    2    0    0 -0.19298377221E+02  0.10117874929E+02  0.48720059540E+03  0.48768762432E+03  0.00000000000E+00 0.  1.
         11    1    1    2    0    0  0.15739467451E+02  0.61271450473E+01 -0.44599922893E+03  0.44631892739E+03  0.00000000000E+00 0.  1.
        -15    1    1    2    0    0  0.19318794676E+02 -0.13371043928E+02 -0.43734452593E+02  0.49677567534E+02  0.17770000000E+01 0. -1.
         15    1    1    2    0    0 -0.15759884906E+02 -0.28739760486E+01  0.25330861253E+01  0.16315880758E+02  0.17770000000E+01 0.  1.
</event>
<event>
 6    1  0.3365733E-003  0.5069248E+03  0.7546771E-02  0.9384447E-01
        -11   -1    0    0    0    0  0.00000000000E+00  0.00000000000E+00  0.50000000000E+03  0.50000000000E+03  0.00000000000E+00 0.  1.
         11   -1    0    0    0    0 -0.00000000000E+00 -0.00000000000E+00 -0.50000000000E+03  0.50000000000E+03  0.00000000000E+00 0.  1.
        -11    1    1    2    0    0  0.93473899128E+01  0.16802038611E+02  0.49270020145E+03  0.49307521810E+03  0.00000000000E+00 0.  1.
         11    1    1    2    0    0  0.11920965273E+02 -0.23531740675E+02 -0.27506745926E+03  0.27632943993E+03  0.00000000000E+00 0.  1.
        -15    1    1    2    0    0 -0.20575757506E+02 -0.80592674612E+01 -0.13578637069E+02  0.25997128738E+02  0.17770000000E+01 0. -1.
         15    1    1    2    0    0 -0.69259767978E+00  0.14788969526E+02 -0.20405410512E+03  0.20459821323E+03  0.17770000000E+01 0.  1.
</event>
<event>
 6    1  0.3365733E-003  0.5004574E+03  0.7546771E-02  0.9398787E-01
        -11   -1    0    0    0    0  0.00000000000E+00  0.00000000000E+00  0.50000000000E+03  0.50000000000E+03  0.00000000000E+00 0.  1.
         11   -1    0    0    0    0 -0.00000000000E+00 -0.00000000000E+00 -0.50000000000E+03  0.50000000000E+03  0.00000000000E+00 0.  1.
        -11    1    1    2    0    0 -0.10046805163E+02  0.17417700179E+01  0.13871617452E+03  0.13909043507E+03  0.00000000000E+00 0.  1.
         11    1    1    2    0    0  0.13286055648E+02 -0.56079791145E+01 -0.49933436915E+03  0.49954257167E+03  0.00000000000E+00 0.  1.
        -15    1    1    2    0    0 -0.79763211949E+01  0.80950254591E+01  0.32082759783E+03  0.32103373093E+03  0.17770000000E+01 0. -1.
         15    1    1    2    0    0  0.47370707096E+01 -0.42288163625E+01  0.39790596801E+02  0.40333262321E+02  0.17770000000E+01 0.  1.
</event>
<event>
 6    1  0.3365733E-003  0.5072169E+03  0.7546771E-02  0.9383805E-01
        -11   -1    0    0    0    0  0.00000000000E+00  0.00000000000E+00  0.50000000000E+03  0.50000000000E+03  0.00000000000E+00 0. -1.
         11   -1    0    0    0    0 -0.00000000000E+00 -0.00000000000E+00 -0.50000000000E+03  0.50000000000E+03  0.00000000000E+00 0.  1.
        -11    1    1    2    0    0  0.10903973820E+02 -0.34329407316E+01  0.49265045761E+03  0.49278307105E+03  0.00000000000E+00 0. -1.
         11    1    1    2    0    0  0.57533112070E+01 -0.26280982409E+01 -0.59599196349E+02  0.59933894381E+02  0.00000000000E+00 0.  1.
        -15    1    1    2    0    0  0.32454992912E+01  0.16883551665E+02 -0.41438557075E+01  0.17774049950E+02  0.17770000000E+01 0. -1.
         15    1    1    2    0    0 -0.19902784318E+02 -0.10822512693E+02 -0.42890740555E+03  0.42950898462E+03  0.17770000000E+01 0.  1.
</event>
<event>
 6    1  0.3365733E-003  0.5011875E+03  0.7546771E-02  0.9397157E-01
        -11   -1    0    0    0    0  0.00000000000E+00  0.00000000000E+00  0.50000000000E+03  0.50000000000E+03  0.00000000000E+00 0. -1.
         11   -1    0    0    0    0 -0.00000000000E+00 -0.00000000000E+00 -0.50000000000E+03  0.50000000000E+03  0.00000000000E+00 0. -1.
        -11    1    1    2    0    0 -0.14184862523E+01 -0.71786286373E+01  0.44228717239E+03  0.44234769998E+03  0.00000000000E+00 0. -1.
         11    1    1    2    0    0 -0.68863952105E+01 -0.75158072918E+00 -0.49876443468E+03  0.49881253855E+03  0.00000000000E+00 0. -1.
        -15    1    1    2    0    0  0.38506654555E+01  0.42864042702E+01  0.81471534507E+01  0.10135813947E+02  0.17770000000E+01 0. -1.
         15    1    1    2    0    0  0.44542160073E+01  0.36438050963E+01  0.48330108834E+02  0.48703947527E+02  0.17770000000E+01 0.  1.
</event>
<event>
 6    1  0.3365733E-003  0.5010076E+03  0.7546771E-02  0.9397558E-01
        -11   -1    0    0    0    0  0.00000000000E+00  0.00000000000E+00  0.50000000000E+03  0.50000000000E+03  0.00000000000E+00 0. -1.
         11   -1    0    0    0    0 -0.00000000000E+00 -0.00000000000E+00 -0.50000000000E+03  0.50000000000E+03  0.00000000000E+00 0.  1.
        -11    1    1    2    0    0  0.43811237878E+00 -0.70059023760E+01  0.49894306449E+03  0.49899244104E+03  0.00000000000E+00 0. -1.
         11    1    1    2    0    0  0.97700382480E+00  0.47108992862E+01 -0.15536361943E+03  0.15543809491E+03  0.00000000000E+00 0.  1.
        -15    1    1    2    0    0 -0.13592630799E+01  0.91549530727E+01 -0.22272118410E+02  0.24183997795E+02  0.17770000000E+01 0.  1.
         15    1    1    2    0    0 -0.55853123719E-01 -0.68599499829E+01 -0.32130732665E+03  0.32138546626E+03  0.17770000000E+01 0.  1.
</event>
<event>
 6    1  0.3365733E-003  0.5561704E+03  0.7546771E-02  0.9282213E-01
        -11   -1    0    0    0    0  0.00000000000E+00  0.00000000000E+00  0.50000000000E+03  0.50000000000E+03  0.00000000000E+00 0. -1.
         11   -1    0    0    0    0 -0.00000000000E+00 -0.00000000000E+00 -0.50000000000E+03  0.50000000000E+03  0.00000000000E+00 0.  1.
        -11    1    1    2    0    0 -0.98429631956E+01 -0.24588726053E+02  0.34009226861E+03  0.34112203174E+03  0.00000000000E+00 0. -1.
         11    1    1    2    0    0 -0.43277145068E+01  0.57998072926E+01 -0.44377059323E+03  0.44382959151E+03  0.00000000000E+00 0.  1.
        -15    1    1    2    0    0 -0.50359420353E+01  0.22875795998E+01 -0.54518900585E+02  0.54827565901E+02  0.17770000000E+01 0. -1.
         15    1    1    2    0    0  0.19206619738E+02  0.16501339161E+02  0.15819722521E+03  0.16022081085E+03  0.17770000000E+01 0.  1.
</event>
<event>
 6    1  0.3365733E-003  0.5075551E+03  0.7546771E-02  0.9383062E-01
        -11   -1    0    0    0    0  0.00000000000E+00  0.00000000000E+00  0.50000000000E+03  0.50000000000E+03  0.00000000000E+00 0. -1.
         11   -1    0    0    0    0 -0.00000000000E+00 -0.00000000000E+00 -0.50000000000E+03  0.50000000000E+03  0.00000000000E+00 0.  1.
        -11    1    1    2    0    0 -0.12574520776E+02 -0.92447550982E+00  0.47617499263E+03  0.47634189070E+03  0.00000000000E+00 0. -1.
         11    1    1    2    0    0 -0.67615413209E+01  0.62803262002E+01 -0.49235845090E+03  0.49244492597E+03  0.00000000000E+00 0.  1.
        -15    1    1    2    0    0  0.56911878085E+01 -0.22958513959E+01 -0.32797127258E+01  0.71815595011E+01  0.17770000000E+01 0. -1.
         15    1    1    2    0    0  0.13644874289E+02 -0.30599992944E+01  0.19463170993E+02  0.24031623834E+02  0.17770000000E+01 0.  1.
</event>
<event>
 6    1  0.3365733E-003  0.5062068E+03  0.7546771E-02  0.9386028E-01
        -11   -1    0    0    0    0  0.00000000000E+00  0.00000000000E+00  0.50000000000E+03  0.50000000000E+03  0.00000000000E+00 0. -1.
         11   -1    0    0    0    0 -0.00000000000E+00 -0.00000000000E+00 -0.50000000000E+03  0.50000000000E+03  0.00000000000E+00 0. -1.
        -11    1    1    2    0    0 -0.16634492814E+02  0.14186617814E+02  0.12232148315E+03  0.12425985561E+03  0.00000000000E+00 0. -1.
         11    1    1    2    0    0  0.10060993707E+02 -0.14976449481E+02 -0.49346347993E+03  0.49379319929E+03  0.00000000000E+00 0. -1.
        -15    1    1    2    0    0 -0.15666230171E+01 -0.41396004467E+02  0.24964368848E+03  0.25306365290E+03  0.17770000000E+01 0.  1.
         15    1    1    2    0    0  0.81401221232E+01  0.42185836134E+02  0.12149830831E+03  0.12888329221E+03  0.17770000000E+01 0. -1.
</event>
<event>
 6    1  0.3365733E-003  0.5006037E+03  0.7546771E-02  0.9398460E-01
        -11   -1    0    0    0    0  0.00000000000E+00  0.00000000000E+00  0.50000000000E+03  0.50000000000E+03  0.00000000000E+00 0.  1.
         11   -1    0    0    0    0 -0.00000000000E+00 -0.00000000000E+00 -0.50000000000E+03  0.50000000000E+03  0.00000000000E+00 0.  1.
        -11    1    1    2    0    0 -0.56571092059E+01  0.96011190314E+01  0.49927197980E+03  0.49939632976E+03  0.00000000000E+00 0.  1.
         11    1    1    2    0    0  0.71973940669E+01  0.69971780869E+00 -0.40344372844E+03  0.40350853040E+03  0.00000000000E+00 0.  1.
        -15    1    1    2    0    0 -0.28538194895E+01  0.33704011860E+00 -0.44578561960E+02  0.44706417852E+02  0.17770000000E+01 0.  1.
         15    1    1    2    0    0  0.13135346284E+01 -0.10637876959E+02 -0.51249689395E+02  0.52388721988E+02  0.17770000000E+01 0. -1.
</event>
<event>
 6    1  0.3365733E-003  0.5057216E+03  0.7546771E-02  0.9387097E-01
        -11   -1    0    0    0    0  0.00000000000E+00  0.00000000000E+00  0.50000000000E+03  0.50000000000E+03  0.00000000000E+00 0. -1.
         11   -1    0    0    0    0 -0.00000000000E+00 -0.00000000000E+00 -0.50000000000E+03  0.50000000000E+03  0.00000000000E+00 0.  1.
        -11    1    1    2    0    0  0.15437257420E+02 -0.12966520741E+01  0.49403559098E+03  0.49427841888E+03  0.00000000000E+00 0. -1.
         11    1    1    2    0    0  0.44142124530E+01  0.51043864199E+00 -0.23958672651E+03  0.23962793105E+03  0.00000000000E+00 0.  1.
        -15    1    1    2    0    0 -0.18278022126E+02  0.10738985422E+02 -0.25496289626E+03  0.25584887746E+03  0.17770000000E+01 0.  1.
         15    1    1    2    0    0 -0.15734477470E+01 -0.99527719901E+01  0.51403178839E+00  0.10244772607E+02  0.17770000000E+01 0. -1.
</event>
<event>
 6    1  0.3365733E-003  0.5087693E+03  0.7546771E-02  0.9380399E-01
        -11   -1    0    0    0    0  0.00000000000E+00  0.00000000000E+00  0.50000000000E+03  0.50000000000E+03  0.00000000000E+00 0. -1.
         11   -1    0    0    0    0 -0.00000000000E+00 -0.00000000000E+00 -0.50000000000E+03  0.50000000000E+03  0.00000000000E+00 0. -1.
        -11    1    1    2    0    0 -0.11601313694E+01  0.14480644091E+02  0.49101581534E+03  0.49123066463E+03  0.00000000000E+00 0. -1.
         11    1    1    2    0    0 -0.28730249398E+01  0.81959716842E+01 -0.47545504378E+03  0.47553435931E+03  0.00000000000E+00 0. -1.
        -15    1    1    2    0    0  0.90683890152E+01 -0.21416199785E+02 -0.14973315769E+02  0.27717272714E+02  0.17770000000E+01 0. -1.
         15    1    1    2    0    0 -0.50352327060E+01 -0.12604159901E+01 -0.58745579125E+00  0.55177033427E+01  0.17770000000E+01 0. -1.
</event>
<event>
 6    1  0.3365733E-003  0.5529671E+03  0.7546771E-02  0.9288517E-01
        -11   -1    0    0    0    0  0.00000000000E+00  0.00000000000E+00  0.50000000000E+03  0.50000000000E+03  0.00000000000E+00 0.  1.
         11   -1    0    0    0    0 -0.00000000000E+00 -0.00000000000E+00 -0.50000000000E+03  0.50000000000E+03  0.00000000000E+00 0.  1.
        -11    1    1    2    0    0 -0.79159446477E+01 -0.14720456424E+02  0.39835776289E+03  0.39870824079E+03  0.00000000000E+00 0.  1.
         11    1    1    2    0    0 -0.46022787766E+01 -0.49621211793E+01 -0.44698171442E+03  0.44703294805E+03  0.00000000000E+00 0.  1.
        -15    1    1    2    0    0  0.18044103596E+02  0.79714985100E+02  0.46189624853E+02  0.93897325293E+02  0.17770000000E+01 0. -1.
         15    1    1    2    0    0 -0.55258801717E+01 -0.60032407497E+02  0.24343266764E+01  0.60361485874E+02  0.17770000000E+01 0.  1.
</event>
<event>
 6    1  0.3365733E-003  0.5009333E+03  0.7546771E-02  0.9397724E-01
        -11   -1    0    0    0    0  0.00000000000E+00  0.00000000000E+00  0.50000000000E+03  0.50000000000E+03  0.00000000000E+00 0. -1.
         11   -1    0    0    0    0 -0.00000000000E+00 -0.00000000000E+00 -0.50000000000E+03  0.50000000000E+03  0.00000000000E+00 0.  1.
        -11    1    1    2    0    0  0.11489967479E+02  0.74822795173E+01  0.49887826808E+03  0.49906665910E+03  0.00000000000E+00 0. -1.
         11    1    1    2    0    0 -0.64364796767E+01  0.62982287006E+01 -0.38261695824E+03  0.38272291895E+03  0.00000000000E+00 0.  1.
        -15    1    1    2    0    0 -0.75633176250E+01 -0.35694911956E+01 -0.27179825763E+02  0.28492906106E+02  0.17770000000E+01 0.  1.
         15    1    1    2    0    0  0.25098298225E+01 -0.10211017022E+02 -0.89081484079E+02  0.89717515843E+02  0.17770000000E+01 0. -1.
</event>
<event>
 6    1  0.3365733E-003  0.5295214E+03  0.7546771E-02  0.9336073E-01
        -11   -1    0    0    0    0  0.00000000000E+00  0.00000000000E+00  0.50000000000E+03  0.50000000000E+03  0.00000000000E+00 0. -1.
         11   -1    0    0    0    0 -0.00000000000E+00 -0.00000000000E+00 -0.50000000000E+03  0.50000000000E+03  0.00000000000E+00 0. -1.
        -11    1    1    2    0    0 -0.40496519910E+01 -0.14581376902E+01  0.27015160018E+03  0.27018588588E+03  0.00000000000E+00 0. -1.
         11    1    1    2    0    0  0.14711057796E+02 -0.19825192523E+02 -0.46983043171E+03  0.47047857341E+03  0.00000000000E+00 0. -1.
        -15    1    1    2    0    0 -0.19819359270E+02  0.27901100151E+02 -0.19786757464E+02  0.39572110020E+02  0.17770000000E+01 0. -1.
         15    1    1    2    0    0  0.91579534645E+01 -0.66177699381E+01  0.21946558899E+03  0.21976343069E+03  0.17770000000E+01 0.  1.
</event>
<event>
 6    1  0.3365733E-003  0.5122789E+03  0.7546771E-02  0.9372746E-01
        -11   -1    0    0    0    0  0.00000000000E+00  0.00000000000E+00  0.50000000000E+03  0.50000000000E+03  0.00000000000E+00 0. -1.
         11   -1    0    0    0    0 -0.00000000000E+00 -0.00000000000E+00 -0.50000000000E+03  0.50000000000E+03  0.00000000000E+00 0.  1.
        -11    1    1    2    0    0 -0.12088438747E+02 -0.14313151686E+02  0.48736116510E+03  0.48772113130E+03  0.00000000000E+00 0. -1.
         11    1    1    2    0    0 -0.34306731279E+02  0.37694718271E+01 -0.16862565105E+03  0.17212138426E+03  0.00000000000E+00 0.  1.
        -15    1    1    2    0    0  0.32459073300E+02  0.57481593078E+01 -0.15345181379E+02  0.36404190630E+02  0.17770000000E+01 0.  1.
         15    1    1    2    0    0  0.13936096726E+02  0.47955205511E+01 -0.30339033268E+03  0.30375329381E+03  0.17770000000E+01 0. -1.
</event>
<event>
 6    1  0.3365733E-003  0.5041757E+03  0.7546771E-02  0.9390514E-01
        -11   -1    0    0    0    0  0.00000000000E+00  0.00000000000E+00  0.50000000000E+03  0.50000000000E+03  0.00000000000E+00 0. -1.
         11   -1    0    0    0    0 -0.00000000000E+00 -0.00000000000E+00 -0.50000000000E+03  0.50000000000E+03  0.00000000000E+00 0.  1.
        -11    1    1    2    0    0 -0.95951529788E+01  0.26867436743E+01  0.38840883742E+03  0.38853662702E+03  0.00000000000E+00 0. -1.
         11    1    1    2    0    0 -0.31218637041E+01  0.82604581284E+01 -0.49574565589E+03  0.49582430007E+03  0.00000000000E+00 0.  1.
        -15    1    1    2    0    0  0.69769509641E+01  0.23845716993E+01  0.97991605544E+02  0.98284670794E+02  0.17770000000E+01 0. -1.
         15    1    1    2    0    0  0.57400657188E+01 -0.13331773502E+02  0.93452129286E+01  0.17354402117E+02  0.17770000000E+01 0. -1.
</event>
<event>
 6    1  0.3365733E-003  0.5215177E+03  0.7546771E-02  0.9352909E-01
        -11   -1    0    0    0    0  0.00000000000E+00  0.00000000000E+00  0.50000000000E+03  0.50000000000E+03  0.00000000000E+00 0. -1.
         11   -1    0    0    0    0 -0.00000000000E+00 -0.00000000000E+00 -0.50000000000E+03  0.50000000000E+03  0.00000000000E+00 0.  1.
        -11    1    1    2    0    0  0.16936364431E+02 -0.20950929561E+01  0.45448078560E+03  0.45480107116E+03  0.00000000000E+00 0. -1.
         11    1    1    2    0    0  0.67218124976E+01 -0.22686105473E+02 -0.47789691818E+03  0.47848229492E+03  0.00000000000E+00 0.  1.
        -15    1    1    2    0    0 -0.21004711458E+02  0.31368065729E+02  0.35976553771E+02  0.52178765808E+02  0.17770000000E+01 0. -1.
         15    1    1    2    0    0 -0.26534654710E+01 -0.65868672994E+01 -0.12560421191E+02  0.14537868114E+02  0.17770000000E+01 0.  1.
</event>
<event>
 6    1  0.3365733E-003  0.5111039E+03  0.7546771E-02  0.9375301E-01
        -11   -1    0    0    0    0  0.00000000000E+00  0.00000000000E+00  0.50000000000E+03  0.50000000000E+03  0.00000000000E+00 0. -1.
         11   -1    0    0    0    0 -0.00000000000E+00 -0.00000000000E+00 -0.50000000000E+03  0.50000000000E+03  0.00000000000E+00 0.  1.
        -11    1    1    2    0    0  0.24038112719E+02  0.20600747961E+02  0.48787005292E+03  0.48889611393E+03  0.00000000000E+00 0. -1.
         11    1    1    2    0    0  0.14677605752E+02  0.21710112315E+01 -0.36922228244E+03  0.36952028259E+03  0.00000000000E+00 0.  1.
        -15    1    1    2    0    0 -0.32622562895E+02 -0.29731714509E+02 -0.12337476808E+03  0.13104463967E+03  0.17770000000E+01 0. -1.
         15    1    1    2    0    0 -0.60931555760E+01  0.69599553162E+01  0.47269976040E+01  0.10538963812E+02  0.17770000000E+01 0.  1.
</event>
<event>
 6    1  0.3365733E-003  0.5008117E+03  0.7546771E-02  0.9397995E-01
        -11   -1    0    0    0    0  0.00000000000E+00  0.00000000000E+00  0.50000000000E+03  0.50000000000E+03  0.00000000000E+00 0. -1.
         11   -1    0    0    0    0 -0.00000000000E+00 -0.00000000000E+00 -0.50000000000E+03  0.50000000000E+03  0.00000000000E+00 0.  1.
        -11    1    1    2    0    0  0.66512690362E+01 -0.18359227031E+01  0.42206412586E+03  0.42212052346E+03  0.00000000000E+00 0. -1.
         11    1    1    2    0    0  0.36016729931E+00  0.68889833266E+01 -0.49914064308E+03  0.49918831054E+03  0.00000000000E+00 0.  1.
        -15    1    1    2    0    0 -0.16731378610E+01 -0.50294396497E+01  0.66291291505E+02  0.66526594020E+02  0.17770000000E+01 0. -1.
         15    1    1    2    0    0 -0.53382984746E+01 -0.23620973753E-01  0.10785225713E+02  0.12164571971E+02  0.17770000000E+01 0.  1.
</event>
<event>
 6    1  0.3365733E-003  0.5002694E+03  0.7546771E-02  0.9399207E-01
        -11   -1    0    0    0    0  0.00000000000E+00  0.00000000000E+00  0.50000000000E+03  0.50000000000E+03  0.00000000000E+00 0. -1.
         11   -1    0    0    0    0 -0.00000000000E+00 -0.00000000000E+00 -0.50000000000E+03  0.50000000000E+03  0.00000000000E+00 0. -1.
        -11    1    1    2    0    0 -0.94670490795E+01  0.10210471305E+01  0.49963983927E+03  0.49973056394E+03  0.00000000000E+00 0. -1.
         11    1    1    2    0    0  0.16811822245E+01  0.57088653507E+01 -0.19994955281E+03  0.20003809934E+03  0.00000000000E+00 0. -1.
        -15    1    1    2    0    0  0.18125649486E+01 -0.15307922698E+01 -0.10066279150E+02  0.10493637195E+02  0.17770000000E+01 0.  1.
         15    1    1    2    0    0  0.59733019064E+01 -0.51991202114E+01 -0.28962400731E+03  0.28973769952E+03  0.17770000000E+01 0. -1.
</event>
<event>
 6    1  0.3365733E-003  0.5001273E+03  0.7546771E-02  0.9399525E-01
        -11   -1    0    0    0    0  0.00000000000E+00  0.00000000000E+00  0.50000000000E+03  0.50000000000E+03  0.00000000000E+00 0. -1.
         11   -1    0    0    0    0 -0.00000000000E+00 -0.00000000000E+00 -0.50000000000E+03  0.50000000000E+03  0.00000000000E+00 0. -1.
        -11    1    1    2    0    0  0.26817973668E+01 -0.17197615146E+01  0.10575046968E+03  0.10579844732E+03  0.00000000000E+00 0. -1.
         11    1    1    2    0    0 -0.61158150784E+01 -0.10140382168E+02 -0.49973237484E+03  0.49987266080E+03  0.00000000000E+00 0. -1.
        -15    1    1    2    0    0 -0.30336138106E+01  0.72773190621E+01  0.23589297393E+03  0.23603138576E+03  0.17770000000E+01 0.  1.
         15    1    1    2    0    0  0.64676315223E+01  0.45828246201E+01  0.15808893123E+03  0.15829750613E+03  0.17770000000E+01 0. -1.
</event>
<event>
 6    1  0.3365733E-003  0.5058388E+03  0.7546771E-02  0.9386839E-01
        -11   -1    0    0    0    0  0.00000000000E+00  0.00000000000E+00  0.50000000000E+03  0.50000000000E+03  0.00000000000E+00 0.  1.
         11   -1    0    0    0    0 -0.00000000000E+00 -0.00000000000E+00 -0.50000000000E+03  0.50000000000E+03  0.00000000000E+00 0.  1.
        -11    1    1    2    0    0 -0.16830699521E+02  0.68918440846E+01  0.49382645532E+03  0.49416124689E+03  0.00000000000E+00 0.  1.
         11    1    1    2    0    0 -0.82600979058E+00 -0.15316639552E+02 -0.47353074610E+03  0.47377911440E+03  0.00000000000E+00 0.  1.
        -15    1    1    2    0    0  0.66928290256E+01 -0.36053233107E+00  0.44170894830E+00  0.69481493740E+01  0.17770000000E+01 0.  1.
         15    1    1    2    0    0  0.10963880286E+02  0.87853277980E+01 -0.20737418160E+02  0.25111489330E+02  0.17770000000E+01 0. -1.
</event>
<event>
 6    1  0.3365733E-003  0.5002941E+03  0.7546771E-02  0.9399152E-01
        -11   -1    0    0    0    0  0.00000000000E+00  0.00000000000E+00  0.50000000000E+03  0.50000000000E+03  0.00000000000E+00 0. -1.
         11   -1    0    0    0    0 -0.00000000000E+00 -0.00000000000E+00 -0.50000000000E+03  0.50000000000E+03  0.00000000000E+00 0. -1.
        -11    1    1    2    0    0  0.22094176065E+01 -0.14856275138E+01  0.71856796503E+02  0.71906104184E+02  0.00000000000E+00 0. -1.
         11    1    1    2    0    0 -0.74018265815E+01 -0.52574393109E+01 -0.49962339863E+03  0.49970588166E+03  0.00000000000E+00 0. -1.
        -15    1    1    2    0    0  0.11497397444E+02  0.90903995503E+01  0.21428054417E+03  0.21478858175E+03  0.17770000000E+01 0. -1.
         15    1    1    2    0    0 -0.63049884688E+01 -0.23473327255E+01  0.21348605796E+03  0.21359943240E+03  0.17770000000E+01 0.  1.
</event>
<event>
 6    1  0.3365733E-003  0.5111643E+03  0.7546771E-02  0.9375170E-01
        -11   -1    0    0    0    0  0.00000000000E+00  0.00000000000E+00  0.50000000000E+03  0.50000000000E+03  0.00000000000E+00 0.  1.
         11   -1    0    0    0    0 -0.00000000000E+00 -0.00000000000E+00 -0.50000000000E+03  0.50000000000E+03  0.00000000000E+00 0.  1.
        -11    1    1    2    0    0  0.14017904242E+01  0.63050417983E+01  0.44452047268E+03  0.44456739557E+03  0.00000000000E+00 0.  1.
         11    1    1    2    0    0 -0.54850176057E+01 -0.48073820371E+01 -0.48878131218E+03  0.48883572647E+03  0.00000000000E+00 0.  1.
        -15    1    1    2    0    0  0.81459226350E+01  0.83550678662E+01 -0.73250501056E+01  0.13891627071E+02  0.17770000000E+01 0.  1.
         15    1    1    2    0    0 -0.40626954534E+01 -0.98527276273E+01  0.51585889602E+02  0.52705250888E+02  0.17770000000E+01 0.  1.
</event>
<event>
 6    1  0.3365733E-003  0.5208224E+03  0.7546771E-02  0.9354387E-01
        -11   -1    0    0    0    0  0.00000000000E+00  0.00000000000E+00  0.50000000000E+03  0.50000000000E+03  0.00000000000E+00 0. -1.
         11   -1    0    0    0    0 -0.00000000000E+00 -0.00000000000E+00 -0.50000000000E+03  0.50000000000E+03  0.00000000000E+00 0.  1.
        -11    1    1    2    0    0 -0.18931671116E+02 -0.50155596555E+02  0.47616931647E+03  0.47917763928E+03  0.00000000000E+00 0. -1.
         11    1    1    2    0    0  0.29233574438E+02 -0.10205958630E+02 -0.22022456308E+03  0.22239069596E+03  0.00000000000E+00 0.  1.
        -15    1    1    2    0    0 -0.15582634849E+02  0.21960843785E+01 -0.23623510664E+03  0.23676533664E+03  0.17770000000E+01 0.  1.
         15    1    1    2    0    0  0.52807315275E+01  0.58165470806E+02 -0.19709646746E+02  0.61666328117E+02  0.17770000000E+01 0. -1.
</event>
<event>
 6    1  0.3365733E-003  0.5003255E+03  0.7546771E-02  0.9399082E-01
        -11   -1    0    0    0    0  0.00000000000E+00  0.00000000000E+00  0.50000000000E+03  0.50000000000E+03  0.00000000000E+00 0. -1.
         11   -1    0    0    0    0 -0.00000000000E+00 -0.00000000000E+00 -0.50000000000E+03  0.50000000000E+03  0.00000000000E+00 0.  1.
        -11    1    1    2    0    0  0.15139523288E+02  0.45042060536E+01  0.49942477321E+03  0.49967449118E+03  0.00000000000E+00 0. -1.
         11    1    1    2    0    0  0.39067089344E+01 -0.11767968288E+01 -0.14554135407E+03  0.14559853354E+03  0.00000000000E+00 0.  1.
        -15    1    1    2    0    0 -0.15251637916E+02 -0.80925695129E+00 -0.32948773937E+03  0.32984632100E+03  0.17770000000E+01 0.  1.
         15    1    1    2    0    0 -0.37945943067E+01 -0.25181522736E+01 -0.24395679769E+02  0.24880654276E+02  0.17770000000E+01 0. -1.
</event>
<event>
 6    1  0.3365733E-003  0.5060331E+03  0.7546771E-02  0.9386410E-01
        -11   -1    0    0    0    0  0.00000000000E+00  0.00000000000E+00  0.50000000000E+03  0.50000000000E+03  0.00000000000E+00 0.  1.
         11   -1    0    0    0    0 -0.00000000000E+00 -0.00000000000E+00 -0.50000000000E+03  0.50000000000E+03  0.00000000000E+00 0. -1.
        -11    1    1    2    0    0 -0.21395869172E+01  0.78274491097E+01  0.49192475485E+03  0.49199167801E+03  0.00000000000E+00 0.  1.
         11    1    1    2    0    0 -0.78048795050E+00 -0.87070131016E+01 -0.49388950751E+03  0.49396686819E+03  0.00000000000E+00 0. -1.
        -15    1    1    2    0    0  0.34066015862E+01 -0.12600796352E+01 -0.50560694849E+01  0.64741256313E+01  0.17770000000E+01 0. -1.
         15    1    1    2    0    0 -0.48652671850E+00  0.21396436271E+01  0.70208221412E+01  0.75673281703E+01  0.17770000000E+01 0. -1.
</event>
<event>
 6    1  0.3365733E-003  0.5062915E+03  0.7546771E-02  0.9385841E-01
        -11   -1    0    0    0    0  0.00000000000E+00  0.00000000000E+00  0.50000000000E+03  0.50000000000E+03  0.00000000000E+00 0. -1.
         11   -1    0    0    0    0 -0.00000000000E+00 -0.00000000000E+00 -0.50000000000E+03  0.50000000000E+03  0.00000000000E+00 0.  1.
        -11    1    1    2    0    0  0.67625069666E+01  0.11548009546E+01  0.39023986940E+03  0.39030016748E+03  0.00000000000E+00 0. -1.
         11    1    1    2    0    0  0.93088079380E+01 -0.27378355999E+02 -0.49286093782E+03  0.49370854997E+03  0.00000000000E+00 0.  1.
        -15    1    1    2    0    0 -0.28511145597E+02  0.20343258074E+02  0.92185172572E+02  0.98630610580E+02  0.17770000000E+01 0. -1.
         15    1    1    2    0    0  0.12439830692E+02  0.58802969705E+01  0.10435895849E+02  0.17360671971E+02  0.17770000000E+01 0.  1.
</event>
<event>
 6    1  0.3365733E-003  0.5236230E+03  0.7546771E-02  0.9348449E-01
        -11   -1    0    0    0    0  0.00000000000E+00  0.00000000000E+00  0.50000000000E+03  0.50000000000E+03  0.00000000000E+00 0.  1.
         11   -1    0    0    0    0 -0.00000000000E+00 -0.00000000000E+00 -0.50000000000E+03  0.50000000000E+03  0.00000000000E+00 0.  1.
        -11    1    1    2    0    0 -0.45226265297E+01 -0.16506546299E+02  0.47606945708E+03  0.47637700216E+03  0.00000000000E+00 0.  1.
         11    1    1    2    0    0  0.10230271657E+02  0.24364579178E+02 -0.41643673797E+03  0.41727430775E+03  0.00000000000E+00 0.  1.
        -15    1    1    2    0    0 -0.69998678146E+01  0.24055558650E+02  0.12046135988E+02  0.27855612946E+02  0.17770000000E+01 0.  1.
         15    1    1    2    0    0  0.12922226872E+01 -0.31913591530E+02 -0.71678855098E+02  0.78493077153E+02  0.17770000000E+01 0. -1.
</event>
<event>
 6    1  0.3365733E-003  0.5438915E+03  0.7546771E-02  0.9306623E-01
        -11   -1    0    0    0    0  0.00000000000E+00  0.00000000000E+00  0.50000000000E+03  0.50000000000E+03  0.00000000000E+00 0. -1.
         11   -1    0    0    0    0 -0.00000000000E+00 -0.00000000000E+00 -0.50000000000E+03  0.50000000000E+03  0.00000000000E+00 0. -1.
        -11    1    1    2    0    0  0.16273313175E+02  0.28914885405E+02  0.45490008702E+03  0.45610851832E+03  0.00000000000E+00 0. -1.
         11    1    1    2    0    0 -0.23995295637E+00  0.46103105445E+01 -0.30746262450E+03  0.30749728130E+03  0.00000000000E+00 0. -1.
        -15    1    1    2    0    0  0.21645230489E+02 -0.42681905052E+02  0.28833669237E+02  0.55899903689E+02  0.17770000000E+01 0. -1.
         15    1    1    2    0    0 -0.37678590708E+02  0.91567091028E+01 -0.17627113175E+03  0.18049429669E+03  0.17770000000E+01 0.  1.
</event>
<event>
 6    1  0.3365733E-003  0.5100169E+03  0.7546771E-02  0.9377671E-01
        -11   -1    0    0    0    0  0.00000000000E+00  0.00000000000E+00  0.50000000000E+03  0.50000000000E+03  0.00000000000E+00 0. -1.
         11   -1    0    0    0    0 -0.00000000000E+00 -0.00000000000E+00 -0.50000000000E+03  0.50000000000E+03  0.00000000000E+00 0.  1.
        -11    1    1    2    0    0 -0.42569292098E+01 -0.62568304804E+01  0.43219082704E+03  0.43225707669E+03  0.00000000000E+00 0. -1.
         11    1    1    2    0    0  0.24207525012E+01 -0.10302353539E+02 -0.48986878819E+03  0.48998308968E+03  0.00000000000E+00 0.  1.
        -15    1    1    2    0    0 -0.12414883887E+02 -0.45145850975E+01 -0.14098686570E+01  0.13403592024E+02  0.17770000000E+01 0.  1.
         15    1    1    2    0    0  0.14251060595E+02  0.21073769117E+02  0.59087829806E+02  0.64356241601E+02  0.17770000000E+01 0. -1.
</event>
<event>
 6    1  0.3365733E-003  0.4552360E+03  0.7546771E-02  0.9505950E-01
        -11   -1    0    0    0    0  0.00000000000E+00  0.00000000000E+00  0.50000000000E+03  0.50000000000E+03  0.00000000000E+00 0.  1.
         11   -1    0    0    0    0 -0.00000000000E+00 -0.00000000000E+00 -0.50000000000E+03  0.50000000000E+03  0.00000000000E+00 0.  1.
        -11    1    1    2    0    0  0.27876998297E+02 -0.87074259748E+02  0.46989458317E+03  0.47870656256E+03  0.00000000000E+00 0.  1.
         11    1    1    2    0    0 -0.25202645385E+01  0.53899676773E+01 -0.11745110179E+03  0.11760172106E+03  0.00000000000E+00 0.  1.
        -15    1    1    2    0    0 -0.15486013284E+02  0.10092051333E+03 -0.78273820663E+02  0.12866512872E+03  0.17770000000E+01 0. -1.
         15    1    1    2    0    0 -0.98707204742E+01 -0.19236221258E+02 -0.27416966072E+03  0.27502658766E+03  0.17770000000E+01 0.  1.
</event>
<event>
 6    1  0.3365733E-003  0.4914726E+03  0.7546771E-02  0.9419095E-01
        -11   -1    0    0    0    0  0.00000000000E+00  0.00000000000E+00  0.50000000000E+03  0.50000000000E+03  0.00000000000E+00 0.  1.
         11   -1    0    0    0    0 -0.00000000000E+00 -0.00000000000E+00 -0.50000000000E+03  0.50000000000E+03  0.00000000000E+00 0. -1.
        -11    1    1    2    0    0  0.50874791120E+00 -0.69214105598E+00  0.29488507087E+02  0.29501015811E+02  0.00000000000E+00 0.  1.
         11    1    1    2    0    0 -0.43723294936E+01  0.37347513710E+02 -0.49189679019E+03  0.49333194327E+03  0.00000000000E+00 0. -1.
        -15    1    1    2    0    0 -0.38963990537E+02 -0.10401791284E+02  0.64460276771E+02  0.76057049843E+02  0.17770000000E+01 0. -1.
         15    1    1    2    0    0  0.42827572119E+02 -0.26253581370E+02  0.39794800634E+03  0.40110999108E+03  0.17770000000E+01 0.  1.
</event>
<event>
 6    1  0.3365733E-003  0.5205759E+03  0.7546771E-02  0.9354911E-01
        -11   -1    0    0    0    0  0.00000000000E+00  0.00000000000E+00  0.50000000000E+03  0.50000000000E+03  0.00000000000E+00 0.  1.
         11   -1    0    0    0    0 -0.00000000000E+00 -0.00000000000E+00 -0.50000000000E+03  0.50000000000E+03  0.00000000000E+00 0.  1.
        -11    1    1    2    0    0  0.96429630083E+01  0.64444443206E+00  0.47061637417E+03  0.47071559745E+03  0.00000000000E+00 0.  1.
         11    1    1    2    0    0 -0.30585223320E+01 -0.13174457082E+02 -0.47923330076E+03  0.47942411020E+03  0.00000000000E+00 0.  1.
        -15    1    1    2    0    0 -0.86798477643E+01  0.22784241488E+01  0.27069309962E+02  0.28573348502E+02  0.17770000000E+01 0.  1.
         15    1    1    2    0    0  0.20954070881E+01  0.10251588501E+02 -0.18452383369E+02  0.21286943854E+02  0.17770000000E+01 0.  1.
</event>
<event>
 6    1  0.3365733E-003  0.5033611E+03  0.7546771E-02  0.9392320E-01
        -11   -1    0    0    0    0  0.00000000000E+00  0.00000000000E+00  0.50000000000E+03  0.50000000000E+03  0.00000000000E+00 0. -1.
         11   -1    0    0    0    0 -0.00000000000E+00 -0.00000000000E+00 -0.50000000000E+03  0.50000000000E+03  0.00000000000E+00 0. -1.
        -11    1    1    2    0    0  0.88295659421E+01  0.34858958594E+01  0.49654812177E+03  0.49663885263E+03  0.00000000000E+00 0. -1.
         11    1    1    2    0    0 -0.33513142920E+01  0.69619522837E+01 -0.47706465925E+03  0.47712722538E+03  0.00000000000E+00 0. -1.
        -15    1    1    2    0    0 -0.83089040859E+00 -0.72141800505E+00  0.15027413631E+01  0.25742539528E+01  0.17770000000E+01 0. -1.
         15    1    1    2    0    0 -0.46473612415E+01 -0.97264301380E+01 -0.20986203880E+02  0.23659668046E+02  0.17770000000E+01 0.  1.
</event>
<event>
 6    1  0.3365733E-003  0.5029902E+03  0.7546771E-02  0.9393144E-01
        -11   -1    0    0    0    0  0.00000000000E+00  0.00000000000E+00  0.50000000000E+03  0.50000000000E+03  0.00000000000E+00 0.  1.
         11   -1    0    0    0    0 -0.00000000000E+00 -0.00000000000E+00 -0.50000000000E+03  0.50000000000E+03  0.00000000000E+00 0.  1.
        -11    1    1    2    0    0 -0.11139295593E+02  0.17401337262E+02  0.49658017808E+03  0.49700982255E+03  0.00000000000E+00 0.  1.
         11    1    1    2    0    0  0.71907183976E+01  0.72458810029E+01 -0.29664243551E+03  0.29681803141E+03  0.00000000000E+00 0.  1.
        -15    1    1    2    0    0  0.73733100253E+01 -0.14333571177E+02 -0.19340260535E+02  0.25239262469E+02  0.17770000000E+01 0. -1.
         15    1    1    2    0    0 -0.34247328297E+01 -0.10313647088E+02 -0.18059748204E+03  0.18093288357E+03  0.17770000000E+01 0.  1.
</event>
<event>
 6    1  0.3365733E-003  0.4848859E+03  0.7546771E-02  0.9434278E-01
        -11   -1    0    0    0    0  0.00000000000E+00  0.00000000000E+00  0.50000000000E+03  0.50000000000E+03  0.00000000000E+00 0. -1.
         11   -1    0    0    0    0 -0.00000000000E+00 -0.00000000000E+00 -0.50000000000E+03  0.50000000000E+03  0.00000000000E+00 0. -1.
        -11    1    1    2    0    0 -0.48758218595E+01 -0.55548243278E+01  0.48151599800E+03  0.48157272145E+03  0.00000000000E+00 0. -1.
         11    1    1    2    0    0 -0.12149267672E+02  0.20032591888E+02 -0.48791558621E+03  0.48847776685E+03  0.00000000000E+00 0. -1.
        -15    1    1    2    0    0  0.15200517572E+02 -0.13478617352E+02 -0.25860402708E+01  0.20556609483E+02  0.17770000000E+01 0.  1.
         15    1    1    2    0    0  0.18245719596E+01 -0.99915020814E+00  0.89856284769E+01  0.93929022192E+01  0.17770000000E+01 0. -1.
</event>
<event>
 6    1  0.3365733E-003  0.5417008E+03  0.7546771E-02  0.9311050E-01
        -11   -1    0    0    0    0  0.00000000000E+00  0.00000000000E+00  0.50000000000E+03  0.50000000000E+03  0.00000000000E+00 0.  1.
         11   -1    0    0    0    0 -0.00000000000E+00 -0.00000000000E+00 -0.50000000000E+03  0.50000000000E+03  0.00000000000E+00 0.  1.
        -11    1    1    2    0    0  0.58334909564E+02 -0.18810344609E+02  0.45418204786E+03  0.45829916358E+03  0.00000000000E+00 0.  1.
         11    1    1    2    0    0  0.42612452352E+01 -0.71272578351E+00 -0.21331003177E+03  0.21335378094E+03  0.00000000000E+00 0.  1.
        -15    1    1    2    0    0 -0.58382337204E+02  0.21059370719E+02  0.21668461803E+02  0.65762256336E+02  0.17770000000E+01 0.  1.
         15    1    1    2    0    0 -0.42138175956E+01 -0.15363003262E+01 -0.26254047790E+03  0.26258479914E+03  0.17770000000E+01 0.  1.
</event>
<event>
 6    1  0.3365733E-003  0.5002746E+03  0.7546771E-02  0.9399195E-01
        -11   -1    0    0    0    0  0.00000000000E+00  0.00000000000E+00  0.50000000000E+03  0.50000000000E+03  0.00000000000E+00 0.  1.
         11   -1    0    0    0    0 -0.00000000000E+00 -0.00000000000E+00 -0.50000000000E+03  0.50000000000E+03  0.00000000000E+00 0. -1.
        -11    1    1    2    0    0  0.92832439022E+01  0.27485964987E+01  0.49963159970E+03  0.49972539341E+03  0.00000000000E+00 0.  1.
         11    1    1    2    0    0 -0.21812067374E+01  0.69313771476E+00 -0.11049800948E+03  0.11052170918E+03  0.00000000000E+00 0. -1.
        -15    1    1    2    0    0 -0.80127199665E+01  0.61891748261E+01 -0.27638907605E+03  0.27658016678E+03  0.17770000000E+01 0. -1.
         15    1    1    2    0    0  0.91068280174E+00 -0.96309090396E+01 -0.11274451417E+03  0.11317273063E+03  0.17770000000E+01 0.  1.
</event>
<event>
 6    1  0.3365733E-003  0.5001546E+03  0.7546771E-02  0.9399464E-01
        -11   -1    0    0    0    0  0.00000000000E+00  0.00000000000E+00  0.50000000000E+03  0.50000000000E+03  0.00000000000E+00 0. -1.
         11   -1    0    0    0    0 -0.00000000000E+00 -0.00000000000E+00 -0.50000000000E+03  0.50000000000E+03  0.00000000000E+00 0.  1.
        -11    1    1    2    0    0  0.87159451908E+00 -0.72271470986E+00  0.50507839391E+02  0.50520528832E+02  0.00000000000E+00 0. -1.
         11    1    1    2    0    0 -0.68395511767E+01  0.15021760615E+01 -0.49979634414E+03  0.49984539770E+03  0.00000000000E+00 0.  1.
        -15    1    1    2    0    0  0.94000919577E+01 -0.58666640655E+01  0.27759033767E+03  0.27781708510E+03  0.17770000000E+01 0. -1.
         15    1    1    2    0    0 -0.34321353001E+01  0.50872027138E+01  0.17169816708E+03  0.17181698837E+03  0.17770000000E+01 0.  1.
</event>
<event>
 6    1  0.3365733E-003  0.5101471E+03  0.7546771E-02  0.9377387E-01
        -11   -1    0    0    0    0  0.00000000000E+00  0.00000000000E+00  0.50000000000E+03  0.50000000000E+03  0.00000000000E+00 0. -1.
         11   -1    0    0    0    0 -0.00000000000E+00 -0.00000000000E+00 -0.50000000000E+03  0.50000000000E+03  0.00000000000E+00 0. -1.
        -11    1    1    2    0    0  0.12391694244E+02 -0.33441997267E+02  0.39984105236E+03  0.40142843499E+03  0.00000000000E+00 0. -1.
         11    1    1    2    0    0  0.14068457103E+01  0.74150766306E+01 -0.48979476853E+03  0.48985291451E+03  0.00000000000E+00 0. -1.
        -15    1    1    2    0    0 -0.20204792331E+01 -0.78474803095E+01 -0.31939636698E+01  0.88895678446E+01  0.17770000000E+01 0. -1.
         15    1    1    2    0    0 -0.11778060721E+02  0.33874400946E+02  0.93147679843E+02  0.99829082651E+02  0.17770000000E+01 0.  1.
</event>
<event>
 6    1  0.3365733E-003  0.5009456E+03  0.7546771E-02  0.9397696E-01
        -11   -1    0    0    0    0  0.00000000000E+00  0.00000000000E+00  0.50000000000E+03  0.50000000000E+03  0.00000000000E+00 0.  1.
         11   -1    0    0    0    0 -0.00000000000E+00 -0.00000000000E+00 -0.50000000000E+03  0.50000000000E+03  0.00000000000E+00 0.  1.
        -11    1    1    2    0    0  0.49625804587E+00  0.35554910464E+01  0.21725809810E+03  0.21728775616E+03  0.00000000000E+00 0.  1.
         11    1    1    2    0    0  0.18587713452E+02 -0.21814554611E+01 -0.49870332516E+03  0.49905437415E+03  0.00000000000E+00 0.  1.
        -15    1    1    2    0    0  0.42783571799E+01 -0.93244095776E+01  0.98028904965E+02  0.98580286527E+02  0.17770000000E+01 0. -1.
         15    1    1    2    0    0 -0.23362328678E+02  0.79503739923E+01  0.18341632209E+03  0.18507758315E+03  0.17770000000E+01 0.  1.
</event>
<event>
 6    1  0.3365733E-003  0.5026963E+03  0.7546771E-02  0.9393797E-01
        -11   -1    0    0    0    0  0.00000000000E+00  0.00000000000E+00  0.50000000000E+03  0.50000000000E+03  0.00000000000E+00 0. -1.
         11   -1    0    0    0    0 -0.00000000000E+00 -0.00000000000E+00 -0.50000000000E+03  0.50000000000E+03  0.00000000000E+00 0. -1.
        -11    1    1    2    0    0  0.49112548994E+01 -0.53022961736E+01  0.49725118947E+03  0.49730371022E+03  0.00000000000E+00 0. -1.
         11    1    1    2    0    0 -0.15905680054E+02 -0.38443300066E+01 -0.20714495508E+03  0.20779028357E+03  0.00000000000E+00 0. -1.
        -15    1    1    2    0    0  0.10654581621E+02  0.12488888221E+02 -0.29060426437E+03  0.29107299537E+03  0.17770000000E+01 0. -1.
         15    1    1    2    0    0  0.33984353366E+00 -0.33422620408E+01  0.49802997232E+00  0.38330108309E+01  0.17770000000E+01 0.  1.
</event>
<event>
 6    1  0.3365733E-003  0.5028188E+03  0.7546771E-02  0.9393525E-01
        -11   -1    0    0    0    0  0.00000000000E+00  0.00000000000E+00  0.50000000000E+03  0.50000000000E+03  0.00000000000E+00 0. -1.
         11   -1    0    0    0    0 -0.00000000000E+00 -0.00000000000E+00 -0.50000000000E+03  0.50000000000E+03  0.00000000000E+00 0. -1.
        -11    1    1    2    0    0  0.67836329918E+01  0.10958007972E+02  0.28175312316E+03  0.28204772295E+03  0.00000000000E+00 0. -1.
         11    1    1    2    0    0 -0.59191274287E+01 -0.79992903445E+01 -0.49708164929E+03  0.49718124539E+03  0.00000000000E+00 0. -1.
        -15    1    1    2    0    0  0.51392565305E+01 -0.13669712233E+02  0.20210026968E+03  0.20263501603E+03  0.17770000000E+01 0. -1.
         15    1    1    2    0    0 -0.60037620936E+01  0.10710994605E+02  0.13228256451E+02  0.18136015616E+02  0.17770000000E+01 0.  1.
</event>
<event>
 6    1  0.3365733E-003  0.5098998E+03  0.7546771E-02  0.9377927E-01
        -11   -1    0    0    0    0  0.00000000000E+00  0.00000000000E+00  0.50000000000E+03  0.50000000000E+03  0.00000000000E+00 0. -1.
         11   -1    0    0    0    0 -0.00000000000E+00 -0.00000000000E+00 -0.50000000000E+03  0.50000000000E+03  0.00000000000E+00 0.  1.
        -11    1    1    2    0    0  0.19369209206E+02  0.33392262648E+02  0.48857749057E+03  0.49010016707E+03  0.00000000000E+00 0. -1.
         11    1    1    2    0    0 -0.76637415039E+01  0.65994866537E+00 -0.30696864498E+03  0.30706500528E+03  0.00000000000E+00 0.  1.
        -15    1    1    2    0    0 -0.11357333220E+02 -0.39304225884E+02 -0.29129516649E+02  0.50254329758E+02  0.17770000000E+01 0. -1.
         15    1    1    2    0    0 -0.34813448197E+00  0.52520145701E+01 -0.15247932894E+03  0.15258049789E+03  0.17770000000E+01 0.  1.
</event>
<event>
 6    1  0.3365733E-003  0.5046505E+03  0.7546771E-02  0.9389464E-01
        -11   -1    0    0    0    0  0.00000000000E+00  0.00000000000E+00  0.50000000000E+03  0.50000000000E+03  0.00000000000E+00 0.  1.
         11   -1    0    0    0    0 -0.00000000000E+00 -0.00000000000E+00 -0.50000000000E+03  0.50000000000E+03  0.00000000000E+00 0. -1.
        -11    1    1    2    0    0 -0.17348632220E+01  0.13971023725E+02  0.45338676298E+03  0.45360528668E+03  0.00000000000E+00 0.  1.
         11    1    1    2    0    0 -0.10622290168E+02 -0.12103937773E+02 -0.49508770079E+03  0.49534954309E+03  0.00000000000E+00 0. -1.
        -15    1    1    2    0    0 -0.28939305971E+01 -0.68565178663E+01  0.30375318743E+02  0.31324182180E+02  0.17770000000E+01 0. -1.
         15    1    1    2    0    0  0.15251083987E+02  0.49894319137E+01  0.11325619070E+02  0.19720988056E+02  0.17770000000E+01 0.  1.
</event>
<event>
 6    1  0.3365733E-003  0.5390423E+03  0.7546771E-02  0.9316452E-01
        -11   -1    0    0    0    0  0.00000000000E+00  0.00000000000E+00  0.50000000000E+03  0.50000000000E+03  0.00000000000E+00 0.  1.
         11   -1    0    0    0    0 -0.00000000000E+00 -0.00000000000E+00 -0.50000000000E+03  0.50000000000E+03  0.00000000000E+00 0.  1.
        -11    1    1    2    0    0 -0.16848354814E+02  0.12669116249E+02  0.44375385760E+03  0.44425427370E+03  0.00000000000E+00 0.  1.
         11    1    1    2    0    0 -0.65524581855E+01 -0.10990380342E+02 -0.46078012252E+03  0.46095774695E+03  0.00000000000E+00 0.  1.
        -15    1    1    2    0    0  0.23278876718E+01 -0.67843888826E+01  0.52585204740E+02  0.53101868894E+02  0.17770000000E+01 0. -1.
         15    1    1    2    0    0  0.21072925327E+02  0.51056529749E+01 -0.35558939824E+02  0.41686110451E+02  0.17770000000E+01 0.  1.
</event>
<event>
 6    1  0.3365733E-003  0.5065857E+03  0.7546771E-02  0.9385193E-01
        -11   -1    0    0    0    0  0.00000000000E+00  0.00000000000E+00  0.50000000000E+03  0.50000000000E+03  0.00000000000E+00 0.  1.
         11   -1    0    0    0    0 -0.00000000000E+00 -0.00000000000E+00 -0.50000000000E+03  0.50000000000E+03  0.00000000000E+00 0.  1.
        -11    1    1    2    0    0  0.91718876694E+01 -0.50210284420E+01  0.36176404017E+03  0.36191512128E+03  0.00000000000E+00 0.  1.
         11    1    1    2    0    0 -0.17281448792E+02 -0.12298529163E+02 -0.49295815190E+03  0.49341426998E+03  0.00000000000E+00 0.  1.
        -15    1    1    2    0    0  0.14298697899E+02  0.83001850865E+01  0.41425358865E+01  0.17136632302E+02  0.17770000000E+01 0. -1.
         15    1    1    2    0    0 -0.61891367771E+01  0.90193725189E+01  0.12705157584E+03  0.12753397644E+03  0.17770000000E+01 0.  1.
</event>
<event>
 6    1  0.3365733E-003  0.5088579E+03  0.7546771E-02  0.9380205E-01
        -11   -1    0    0    0    0  0.00000000000E+00  0.00000000000E+00  0.50000000000E+03  0.50000000000E+03  0.00000000000E+00 0. -1.
         11   -1    0    0    0    0 -0.00000000000E+00 -0.00000000000E+00 -0.50000000000E+03  0.50000000000E+03  0.00000000000E+00 0. -1.
        -11    1    1    2    0    0  0.34514050314E+01 -0.72601069823E+01  0.49107632298E+03  0.49114211420E+03  0.00000000000E+00 0. -1.
         11    1    1    2    0    0  0.30744378227E+01  0.79884020079E+01 -0.48466993111E+03  0.48474550937E+03  0.00000000000E+00 0. -1.
        -15    1    1    2    0    0 -0.43171325179E+01 -0.49164001816E+01 -0.13671545754E+02  0.15260324906E+02  0.17770000000E+01 0.  1.
         15    1    1    2    0    0 -0.22087103361E+01  0.41881051560E+01  0.72651538821E+01  0.88520515180E+01  0.17770000000E+01 0.  1.
</event>
<event>
 6    1  0.3365733E-003  0.5026233E+03  0.7546771E-02  0.9393959E-01
        -11   -1    0    0    0    0  0.00000000000E+00  0.00000000000E+00  0.50000000000E+03  0.50000000000E+03  0.00000000000E+00 0. -1.
         11   -1    0    0    0    0 -0.00000000000E+00 -0.00000000000E+00 -0.50000000000E+03  0.50000000000E+03  0.00000000000E+00 0.  1.
        -11    1    1    2    0    0  0.10407413961E+02  0.20465615610E+01  0.42911443555E+03  0.42924550257E+03  0.00000000000E+00 0. -1.
         11    1    1    2    0    0  0.27370551655E+01 -0.89034047076E+01 -0.49728949386E+03  0.49737672120E+03  0.00000000000E+00 0.  1.
        -15    1    1    2    0    0  0.31452482957E+00 -0.22741884005E+01 -0.35221717676E+00  0.29244905007E+01  0.17770000000E+01 0. -1.
         15    1    1    2    0    0 -0.13458993956E+02  0.91310315471E+01  0.68527275491E+02  0.70453285733E+02  0.17770000000E+01 0.  1.
</event>
<event>
 6    1  0.3365733E-003  0.5016336E+03  0.7546771E-02  0.9396162E-01
        -11   -1    0    0    0    0  0.00000000000E+00  0.00000000000E+00  0.50000000000E+03  0.50000000000E+03  0.00000000000E+00 0.  1.
         11   -1    0    0    0    0 -0.00000000000E+00 -0.00000000000E+00 -0.50000000000E+03  0.50000000000E+03  0.00000000000E+00 0.  1.
        -11    1    1    2    0    0 -0.64961290506E+01  0.11450727623E+02  0.42375639996E+03  0.42396085357E+03  0.00000000000E+00 0.  1.
         11    1    1    2    0    0  0.11255646962E+02  0.89477382911E+01 -0.49815894183E+03  0.49836641433E+03  0.00000000000E+00 0.  1.
        -15    1    1    2    0    0 -0.23137277336E+01 -0.14189242543E+02  0.59649288915E+02  0.61383086735E+02  0.17770000000E+01 0. -1.
         15    1    1    2    0    0 -0.24457901779E+01 -0.62092233710E+01  0.14753252953E+02  0.16289645366E+02  0.17770000000E+01 0.  1.
</event>
<event>
 6    1  0.3365733E-003  0.5106524E+03  0.7546771E-02  0.9376285E-01
        -11   -1    0    0    0    0  0.00000000000E+00  0.00000000000E+00  0.50000000000E+03  0.50000000000E+03  0.00000000000E+00 0. -1.
         11   -1    0    0    0    0 -0.00000000000E+00 -0.00000000000E+00 -0.50000000000E+03  0.50000000000E+03  0.00000000000E+00 0. -1.
        -11    1    1    2    0    0 -0.39757112043E+01  0.34892835917E+01  0.21437533423E+03  0.21444058689E+03  0.00000000000E+00 0. -1.
         11    1    1    2    0    0  0.17358442943E+01  0.11672626149E+02 -0.48920526247E+03  0.48934757810E+03  0.00000000000E+00 0. -1.
        -15    1    1    2    0    0  0.30040336729E+02  0.32008328848E+02  0.19159132126E+03  0.19656384982E+03  0.17770000000E+01 0. -1.
         15    1    1    2    0    0 -0.27800469819E+02 -0.47170238589E+02  0.83238606987E+02  0.99647985192E+02  0.17770000000E+01 0.  1.
</event>
<event>
 6    1  0.3365733E-003  0.4832092E+03  0.7546771E-02  0.9438184E-01
        -11   -1    0    0    0    0  0.00000000000E+00  0.00000000000E+00  0.50000000000E+03  0.50000000000E+03  0.00000000000E+00 0.  1.
         11   -1    0    0    0    0 -0.00000000000E+00 -0.00000000000E+00 -0.50000000000E+03  0.50000000000E+03  0.00000000000E+00 0. -1.
        -11    1    1    2    0    0 -0.72866974682E+01 -0.67348437720E+01  0.47872631112E+03  0.47882912927E+03  0.00000000000E+00 0.  1.
         11    1    1    2    0    0 -0.12712925309E+02  0.43370974226E+01 -0.48765551427E+03  0.48784047544E+03  0.00000000000E+00 0. -1.
        -15    1    1    2    0    0  0.19009404123E+01 -0.71557625546E+01 -0.44462083907E+01  0.88173130965E+01  0.17770000000E+01 0.  1.
         15    1    1    2    0    0  0.18098682365E+02  0.95535089040E+01  0.13375411535E+02  0.24513082191E+02  0.17770000000E+01 0. -1.
</event>
<event>
 6    1  0.3365733E-003  0.4667663E+03  0.7546771E-02  0.9477406E-01
        -11   -1    0    0    0    0  0.00000000000E+00  0.00000000000E+00  0.50000000000E+03  0.50000000000E+03  0.00000000000E+00 0. -1.
         11   -1    0    0    0    0 -0.00000000000E+00 -0.00000000000E+00 -0.50000000000E+03  0.50000000000E+03  0.00000000000E+00 0.  1.
        -11    1    1    2    0    0 -0.16844145216E+02 -0.14781398434E+01  0.18618700772E+02  0.25150867657E+02  0.00000000000E+00 0. -1.
         11    1    1    2    0    0 -0.25682079038E+02 -0.28820499406E+02 -0.46987303934E+03  0.47145610980E+03  0.00000000000E+00 0.  1.
        -15    1    1    2    0    0  0.47359432995E+02 -0.85358823186E+01  0.46060714471E+03  0.46311756247E+03  0.17770000000E+01 0. -1.
         15    1    1    2    0    0 -0.48332087410E+01  0.38834521568E+02 -0.93528061419E+01  0.40275460071E+02  0.17770000000E+01 0.  1.
</event>
<event>
 6    1  0.3365733E-003  0.5054196E+03  0.7546771E-02  0.9387764E-01
        -11   -1    0    0    0    0  0.00000000000E+00  0.00000000000E+00  0.50000000000E+03  0.50000000000E+03  0.00000000000E+00 0.  1.
         11   -1    0    0    0    0 -0.00000000000E+00 -0.00000000000E+00 -0.50000000000E+03  0.50000000000E+03  0.00000000000E+00 0. -1.
        -11    1    1    2    0    0  0.40855606722E+01  0.53601550892E+01  0.49453450523E+03  0.49458042817E+03  0.00000000000E+00 0.  1.
         11    1    1    2    0    0  0.28141223689E+00 -0.84112662755E+01 -0.48980807594E+03  0.48988037300E+03  0.00000000000E+00 0. -1.
        -15    1    1    2    0    0 -0.55436648512E+00  0.75845251103E+01 -0.51266225425E+01  0.93419661229E+01  0.17770000000E+01 0. -1.
         15    1    1    2    0    0 -0.38126064239E+01 -0.45334139241E+01  0.40019325332E+00  0.61972327043E+01  0.17770000000E+01 0.  1.
</event>
<event>
 6    1  0.3365733E-003  0.5085928E+03  0.7546771E-02  0.9380785E-01
        -11   -1    0    0    0    0  0.00000000000E+00  0.00000000000E+00  0.50000000000E+03  0.50000000000E+03  0.00000000000E+00 0. -1.
         11   -1    0    0    0    0 -0.00000000000E+00 -0.00000000000E+00 -0.50000000000E+03  0.50000000000E+03  0.00000000000E+00 0.  1.
        -11    1    1    2    0    0  0.19259500310E+02  0.14390954192E+02  0.49081871192E+03  0.49140719966E+03  0.00000000000E+00 0. -1.
         11    1    1    2    0    0 -0.27626307120E+01  0.20554182412E+01 -0.16149010372E+03  0.16152681038E+03  0.00000000000E+00 0.  1.
        -15    1    1    2    0    0  0.76378446649E+01 -0.21373282401E+00 -0.31407892616E+03  0.31417688002E+03  0.17770000000E+01 0.  1.
         15    1    1    2    0    0 -0.24134714263E+02 -0.16232639609E+02 -0.15249682040E+02  0.32889109938E+02  0.17770000000E+01 0. -1.
</event>
<event>
 6    1  0.3365733E-003  0.5006626E+03  0.7546771E-02  0.9398328E-01
        -11   -1    0    0    0    0  0.00000000000E+00  0.00000000000E+00  0.50000000000E+03  0.50000000000E+03  0.00000000000E+00 0.  1.
         11   -1    0    0    0    0 -0.00000000000E+00 -0.00000000000E+00 -0.50000000000E+03  0.50000000000E+03  0.00000000000E+00 0. -1.
        -11    1    1    2    0    0 -0.13616352682E+01 -0.36146178279E+01  0.20866105327E+03  0.20869680080E+03  0.00000000000E+00 0.  1.
         11    1    1    2    0    0 -0.21456665612E+02  0.98124401892E+01 -0.49877964217E+03  0.49933736484E+03  0.00000000000E+00 0. -1.
        -15    1    1    2    0    0 -0.16193111642E+01  0.18312868048E+01  0.63961064963E+01  0.70741562974E+01  0.17770000000E+01 0.  1.
         15    1    1    2    0    0  0.24437612044E+02 -0.80291091661E+01  0.28372248240E+03  0.28489167806E+03  0.17770000000E+01 0.  1.
</event>
<event>
 6    1  0.3365733E-003  0.4826629E+03  0.7546771E-02  0.9439461E-01
        -11   -1    0    0    0    0  0.00000000000E+00  0.00000000000E+00  0.50000000000E+03  0.50000000000E+03  0.00000000000E+00 0.  1.
         11   -1    0    0    0    0 -0.00000000000E+00 -0.00000000000E+00 -0.50000000000E+03  0.50000000000E+03  0.00000000000E+00 0.  1.
        -11    1    1    2    0    0 -0.35685101309E+02 -0.56348019136E+01  0.49558298452E+03  0.49689804990E+03  0.00000000000E+00 0.  1.
         11    1    1    2    0    0  0.44383751746E+00 -0.47284837107E+00 -0.39712747747E+02  0.39718042637E+02  0.00000000000E+00 0.  1.
        -15    1    1    2    0    0 -0.10319812908E+02  0.70076205205E+00 -0.31591736548E+03  0.31609164675E+03  0.17770000000E+01 0. -1.
         15    1    1    2    0    0  0.45561076700E+02  0.54068882326E+01 -0.13995287130E+03  0.14729226071E+03  0.17770000000E+01 0.  1.
</event>
<event>
 6    1  0.3365733E-003  0.5129733E+03  0.7546771E-02  0.9371240E-01
        -11   -1    0    0    0    0  0.00000000000E+00  0.00000000000E+00  0.50000000000E+03  0.50000000000E+03  0.00000000000E+00 0.  1.
         11   -1    0    0    0    0 -0.00000000000E+00 -0.00000000000E+00 -0.50000000000E+03  0.50000000000E+03  0.00000000000E+00 0. -1.
        -11    1    1    2    0    0 -0.29623916329E+01 -0.80799220922E+01  0.48695069483E+03  0.48702673448E+03  0.00000000000E+00 0.  1.
         11    1    1    2    0    0 -0.25010395534E+00  0.16927083350E+02 -0.23088887678E+03  0.23150866533E+03  0.00000000000E+00 0. -1.
        -15    1    1    2    0    0  0.82045777725E+01 -0.89637813430E+01 -0.26806349939E+03  0.26834466998E+03  0.17770000000E+01 0. -1.
         15    1    1    2    0    0 -0.49920821842E+01  0.11662008538E+00  0.12001681340E+02  0.13119930212E+02  0.17770000000E+01 0.  1.
</event>
<event>
 6    1  0.3365733E-003  0.5096561E+03  0.7546771E-02  0.9378459E-01
        -11   -1    0    0    0    0  0.00000000000E+00  0.00000000000E+00  0.50000000000E+03  0.50000000000E+03  0.00000000000E+00 0.  1.
         11   -1    0    0    0    0 -0.00000000000E+00 -0.00000000000E+00 -0.50000000000E+03  0.50000000000E+03  0.00000000000E+00 0. -1.
        -11    1    1    2    0    0 -0.17395976588E+02 -0.23957565140E+01  0.46956536696E+03  0.46989359806E+03  0.00000000000E+00 0.  1.
         11    1    1    2    0    0 -0.16089134389E+01  0.73782381218E+01 -0.49028570102E+03  0.49034385448E+03  0.00000000000E+00 0. -1.
        -15    1    1    2    0    0  0.14851114941E+02  0.96967106460E+00  0.26412464828E+02  0.30368929916E+02  0.17770000000E+01 0. -1.
         15    1    1    2    0    0  0.41537750861E+01 -0.59521526724E+01 -0.56921307694E+01  0.93936175458E+01  0.17770000000E+01 0.  1.
</event>
<event>
 6    1  0.3365733E-003  0.5016530E+03  0.7546771E-02  0.9396119E-01
        -11   -1    0    0    0    0  0.00000000000E+00  0.00000000000E+00  0.50000000000E+03  0.50000000000E+03  0.00000000000E+00 0.  1.
         11   -1    0    0    0    0 -0.00000000000E+00 -0.00000000000E+00 -0.50000000000E+03  0.50000000000E+03  0.00000000000E+00 0. -1.
        -11    1    1    2    0    0  0.74031208612E+01  0.82999210816E+01  0.34657714709E+03  0.34675555334E+03  0.00000000000E+00 0.  1.
         11    1    1    2    0    0 -0.33263143012E+01  0.10630975602E+02 -0.49822245902E+03  0.49834696817E+03  0.00000000000E+00 0. -1.
        -15    1    1    2    0    0 -0.13563647451E+01 -0.11450858783E+02  0.14102686118E+03  0.14150864001E+03  0.17770000000E+01 0. -1.
         15    1    1    2    0    0 -0.27204418149E+01 -0.74800379002E+01  0.10618450745E+02  0.13388838481E+02  0.17770000000E+01 0.  1.
</event>
<event>
 6    1  0.3365733E-003  0.5076059E+03  0.7546771E-02  0.9382950E-01
        -11   -1    0    0    0    0  0.00000000000E+00  0.00000000000E+00  0.50000000000E+03  0.50000000000E+03  0.00000000000E+00 0. -1.
         11   -1    0    0    0    0 -0.00000000000E+00 -0.00000000000E+00 -0.50000000000E+03  0.50000000000E+03  0.00000000000E+00 0.  1.
        -11    1    1    2    0    0  0.16156297697E+01  0.98051806969E+01  0.47985009775E+03  0.47995298534E+03  0.00000000000E+00 0. -1.
         11    1    1    2    0    0  0.73726291093E+01  0.62881902373E+01 -0.49229870293E+03  0.49239405958E+03  0.00000000000E+00 0.  1.
        -15    1    1    2    0    0 -0.27051883487E+01 -0.54351358952E+01 -0.36253849028E+01  0.72910829713E+01  0.17770000000E+01 0.  1.
         15    1    1    2    0    0 -0.62830705302E+01 -0.10658235039E+02  0.16073990087E+02  0.20361872108E+02  0.17770000000E+01 0. -1.
</event>
<event>
 6    1  0.3365733E-003  0.5004189E+03  0.7546771E-02  0.9398873E-01
        -11   -1    0    0    0    0  0.00000000000E+00  0.00000000000E+00  0.50000000000E+03  0.50000000000E+03  0.00000000000E+00 0. -1.
         11   -1    0    0    0    0 -0.00000000000E+00 -0.00000000000E+00 -0.50000000000E+03  0.50000000000E+03  0.00000000000E+00 0. -1.
        -11    1    1    2    0    0 -0.77020530173E+01  0.46867662715E+01  0.11910971724E+03  0.11945045894E+03  0.00000000000E+00 0. -1.
         11    1    1    2    0    0  0.17230415192E+02 -0.88793945896E+01 -0.49920494973E+03  0.49958113725E+03  0.00000000000E+00 0. -1.
        -15    1    1    2    0    0 -0.46589356418E+01 -0.44246947291E+01  0.31754427342E+03  0.31761424230E+03  0.17770000000E+01 0. -1.
         15    1    1    2    0    0 -0.48694265331E+01  0.86173230472E+01  0.62550959072E+02  0.63354161514E+02  0.17770000000E+01 0.  1.
</event>
<event>
 6    1  0.3365733E-003  0.5032320E+03  0.7546771E-02  0.9392607E-01
        -11   -1    0    0    0    0  0.00000000000E+00  0.00000000000E+00  0.50000000000E+03  0.50000000000E+03  0.00000000000E+00 0. -1.
         11   -1    0    0    0    0 -0.00000000000E+00 -0.00000000000E+00 -0.50000000000E+03  0.50000000000E+03  0.00000000000E+00 0. -1.
        -11    1    1    2    0    0  0.62070342099E+01  0.68194063056E+01  0.49668236209E+03  0.49676795427E+03  0.00000000000E+00 0. -1.
         11    1    1    2    0    0 -0.75049254763E-01  0.73185635104E+01 -0.43866519328E+03  0.43872624586E+03  0.00000000000E+00 0. -1.
        -15    1    1    2    0    0 -0.10470104927E+02 -0.12523749952E+02 -0.18736605445E+02  0.24913561019E+02  0.17770000000E+01 0.  1.
         15    1    1    2    0    0  0.43381199718E+01 -0.16142198637E+01 -0.39280563361E+02  0.39592238855E+02  0.17770000000E+01 0. -1.
</event>
<event>
 6    1  0.3365733E-003  0.5109619E+03  0.7546771E-02  0.9375610E-01
        -11   -1    0    0    0    0  0.00000000000E+00  0.00000000000E+00  0.50000000000E+03  0.50000000000E+03  0.00000000000E+00 0.  1.
         11   -1    0    0    0    0 -0.00000000000E+00 -0.00000000000E+00 -0.50000000000E+03  0.50000000000E+03  0.00000000000E+00 0.  1.
        -11    1    1    2    0    0 -0.76069196622E+01 -0.42182241248E+01  0.42490365477E+03  0.42499267580E+03  0.00000000000E+00 0.  1.
         11    1    1    2    0    0 -0.10393670479E+02  0.12926066837E+02 -0.48875674935E+03  0.48903810856E+03  0.00000000000E+00 0.  1.
        -15    1    1    2    0    0  0.25125199494E+02  0.11311014421E+02  0.12390089888E+02  0.30263620955E+02  0.17770000000E+01 0. -1.
         15    1    1    2    0    0 -0.71246093535E+01 -0.20018857134E+02  0.51463004687E+02  0.55705594690E+02  0.17770000000E+01 0.  1.
</event>
<event>
 6    1  0.3365733E-003  0.5088539E+03  0.7546771E-02  0.9380214E-01
        -11   -1    0    0    0    0  0.00000000000E+00  0.00000000000E+00  0.50000000000E+03  0.50000000000E+03  0.00000000000E+00 0. -1.
         11   -1    0    0    0    0 -0.00000000000E+00 -0.00000000000E+00 -0.50000000000E+03  0.50000000000E+03  0.00000000000E+00 0. -1.
        -11    1    1    2    0    0  0.19650841240E+01 -0.60976483033E+01  0.45206300716E+03  0.45210839996E+03  0.00000000000E+00 0. -1.
         11    1    1    2    0    0  0.10239358135E+02  0.20939827181E+01 -0.49103489884E+03  0.49114610972E+03  0.00000000000E+00 0. -1.
        -15    1    1    2    0    0 -0.21703150621E+02 -0.23878549662E+01  0.74122185823E+01  0.23126333724E+02  0.17770000000E+01 0.  1.
         15    1    1    2    0    0  0.94987083622E+01  0.63915205514E+01  0.31559673096E+02  0.33619156600E+02  0.17770000000E+01 0. -1.
</event>
<event>
 6    1  0.3365733E-003  0.5301518E+03  0.7546771E-02  0.9334760E-01
        -11   -1    0    0    0    0  0.00000000000E+00  0.00000000000E+00  0.50000000000E+03  0.50000000000E+03  0.00000000000E+00 0. -1.
         11   -1    0    0    0    0 -0.00000000000E+00 -0.00000000000E+00 -0.50000000000E+03  0.50000000000E+03  0.00000000000E+00 0. -1.
        -11    1    1    2    0    0  0.30919988556E+02  0.37858217798E+01  0.46881442281E+03  0.46984821078E+03  0.00000000000E+00 0. -1.
         11    1    1    2    0    0 -0.10515893318E+02 -0.17173131072E+01 -0.31793644040E+03  0.31811493727E+03  0.00000000000E+00 0. -1.
        -15    1    1    2    0    0 -0.52106849302E+01 -0.21564586672E+02 -0.17561657622E+03  0.17702124790E+03  0.17770000000E+01 0. -1.
         15    1    1    2    0    0 -0.15193410307E+02  0.19496077999E+02  0.24738593819E+02  0.35015604054E+02  0.17770000000E+01 0.  1.
</event>
<event>
 6    1  0.3365733E-003  0.5344961E+03  0.7546771E-02  0.9325767E-01
        -11   -1    0    0    0    0  0.00000000000E+00  0.00000000000E+00  0.50000000000E+03  0.50000000000E+03  0.00000000000E+00 0. -1.
         11   -1    0    0    0    0 -0.00000000000E+00 -0.00000000000E+00 -0.50000000000E+03  0.50000000000E+03  0.00000000000E+00 0. -1.
        -11    1    1    2    0    0 -0.78405946289E+00  0.13753446019E+02  0.46530003475E+03  0.46550391445E+03  0.00000000000E+00 0. -1.
         11    1    1    2    0    0 -0.35333317162E+01  0.68106277792E+01 -0.43401908051E+03  0.43408689375E+03  0.00000000000E+00 0. -1.
        -15    1    1    2    0    0 -0.92525023266E+01  0.39446217819E+01  0.30707192006E+02  0.32361369103E+02  0.17770000000E+01 0. -1.
         15    1    1    2    0    0  0.13569893506E+02 -0.24508695580E+02 -0.61988146250E+02  0.68047822693E+02  0.17770000000E+01 0.  1.
</event>
<event>
 6    1  0.3365733E-003  0.5081368E+03  0.7546771E-02  0.9381785E-01
        -11   -1    0    0    0    0  0.00000000000E+00  0.00000000000E+00  0.50000000000E+03  0.50000000000E+03  0.00000000000E+00 0. -1.
         11   -1    0    0    0    0 -0.00000000000E+00 -0.00000000000E+00 -0.50000000000E+03  0.50000000000E+03  0.00000000000E+00 0.  1.
        -11    1    1    2    0    0  0.16400318021E+01  0.12300700327E+02  0.49170662482E+03  0.49186319422E+03  0.00000000000E+00 0. -1.
         11    1    1    2    0    0  0.15719942985E+02  0.70092541881E+01 -0.45856529034E+03  0.45888819091E+03  0.00000000000E+00 0.  1.
        -15    1    1    2    0    0  0.49257586025E+01 -0.85816508434E+01 -0.35978077619E+01  0.10677536172E+02  0.17770000000E+01 0.  1.
         15    1    1    2    0    0 -0.22285733390E+02 -0.10728303671E+02 -0.29543526715E+02  0.38571078701E+02  0.17770000000E+01 0. -1.
</event>
<event>
 6    1  0.3365733E-003  0.5140443E+03  0.7546771E-02  0.9368922E-01
        -11   -1    0    0    0    0  0.00000000000E+00  0.00000000000E+00  0.50000000000E+03  0.50000000000E+03  0.00000000000E+00 0. -1.
         11   -1    0    0    0    0 -0.00000000000E+00 -0.00000000000E+00 -0.50000000000E+03  0.50000000000E+03  0.00000000000E+00 0. -1.
        -11    1    1    2    0    0 -0.12192443598E+02 -0.25003484589E+02  0.48515888605E+03  0.48595573321E+03  0.00000000000E+00 0. -1.
         11    1    1    2    0    0 -0.52853821859E+01 -0.39679995073E-01 -0.38243140115E+03  0.38246792470E+03  0.00000000000E+00 0. -1.
        -15    1    1    2    0    0  0.10621960657E+02 -0.84787246106E+00 -0.10413821906E+03  0.10469704549E+03  0.17770000000E+01 0. -1.
         15    1    1    2    0    0  0.68558651274E+01  0.25891037045E+02  0.14107341561E+01  0.26879296601E+02  0.17770000000E+01 0.  1.
</event>
<event>
 6    1  0.3365733E-003  0.5051303E+03  0.7546771E-02  0.9388403E-01
        -11   -1    0    0    0    0  0.00000000000E+00  0.00000000000E+00  0.50000000000E+03  0.50000000000E+03  0.00000000000E+00 0. -1.
         11   -1    0    0    0    0 -0.00000000000E+00 -0.00000000000E+00 -0.50000000000E+03  0.50000000000E+03  0.00000000000E+00 0.  1.
        -11    1    1    2    0    0  0.50795431227E+01 -0.84011079234E+01  0.49477228354E+03  0.49486967267E+03  0.00000000000E+00 0. -1.
         11    1    1    2    0    0  0.97743213744E+01 -0.18006204489E+01 -0.40909528693E+03  0.40921599844E+03  0.00000000000E+00 0.  1.
        -15    1    1    2    0    0 -0.12987242765E+02  0.34077018091E+01 -0.87402652478E+02  0.88445815590E+02  0.17770000000E+01 0. -1.
         15    1    1    2    0    0 -0.18666217324E+01  0.67940265632E+01  0.17256558735E+01  0.74685132943E+01  0.17770000000E+01 0.  1.
</event>
<event>
 6    1  0.3365733E-003  0.5019920E+03  0.7546771E-02  0.9395363E-01
        -11   -1    0    0    0    0  0.00000000000E+00  0.00000000000E+00  0.50000000000E+03  0.50000000000E+03  0.00000000000E+00 0.  1.
         11   -1    0    0    0    0 -0.00000000000E+00 -0.00000000000E+00 -0.50000000000E+03  0.50000000000E+03  0.00000000000E+00 0.  1.
        -11    1    1    2    0    0 -0.36840469052E+01  0.11369922034E+02  0.49786456493E+03  0.49800800429E+03  0.00000000000E+00 0.  1.
         11    1    1    2    0    0  0.19263207826E+02 -0.30003457075E+01 -0.36809357362E+03  0.36860948467E+03  0.00000000000E+00 0.  1.
        -15    1    1    2    0    0 -0.34619426385E+01 -0.12822877666E+02 -0.31229353155E+02  0.33982958464E+02  0.17770000000E+01 0. -1.
         15    1    1    2    0    0 -0.12117218282E+02  0.44533013397E+01 -0.98541638156E+02  0.99399552571E+02  0.17770000000E+01 0.  1.
</event>
<event>
 6    1  0.3365733E-003  0.5026084E+03  0.7546771E-02  0.9393992E-01
        -11   -1    0    0    0    0  0.00000000000E+00  0.00000000000E+00  0.50000000000E+03  0.50000000000E+03  0.00000000000E+00 0. -1.
         11   -1    0    0    0    0 -0.00000000000E+00 -0.00000000000E+00 -0.50000000000E+03  0.50000000000E+03  0.00000000000E+00 0. -1.
        -11    1    1    2    0    0  0.66456652566E+01 -0.65758257746E+01  0.49730370768E+03  0.49739158017E+03  0.00000000000E+00 0. -1.
         11    1    1    2    0    0 -0.10974878706E+01  0.62626126593E+01 -0.46001086257E+03  0.46005479943E+03  0.00000000000E+00 0. -1.
        -15    1    1    2    0    0  0.85723263919E+00  0.24617317479E+01  0.12421435927E+01  0.33905192377E+01  0.17770000000E+01 0. -1.
         15    1    1    2    0    0 -0.64054100251E+01 -0.21485186326E+01 -0.38534988695E+02  0.39163101162E+02  0.17770000000E+01 0.  1.
</event>
<event>
 6    1  0.3365733E-003  0.5036689E+03  0.7546771E-02  0.9391638E-01
        -11   -1    0    0    0    0  0.00000000000E+00  0.00000000000E+00  0.50000000000E+03  0.50000000000E+03  0.00000000000E+00 0.  1.
         11   -1    0    0    0    0 -0.00000000000E+00 -0.00000000000E+00 -0.50000000000E+03  0.50000000000E+03  0.00000000000E+00 0. -1.
        -11    1    1    2    0    0  0.69867700214E+01  0.10503369768E+02  0.37713634944E+03  0.37734726950E+03  0.00000000000E+00 0.  1.
         11    1    1    2    0    0 -0.10596833551E+02 -0.15590592931E-01 -0.49621796981E+03  0.49633110590E+03  0.00000000000E+00 0. -1.
        -15    1    1    2    0    0  0.82648716592E+01 -0.16324817654E+01  0.20511277564E+01  0.88508730829E+01  0.17770000000E+01 0.  1.
         15    1    1    2    0    0 -0.46548081293E+01 -0.88552974093E+01  0.11703049261E+03  0.11747075151E+03  0.17770000000E+01 0. -1.
</event>
<event>
 6    1  0.3365733E-003  0.4861810E+03  0.7546771E-02  0.9431273E-01
        -11   -1    0    0    0    0  0.00000000000E+00  0.00000000000E+00  0.50000000000E+03  0.50000000000E+03  0.00000000000E+00 0. -1.
         11   -1    0    0    0    0 -0.00000000000E+00 -0.00000000000E+00 -0.50000000000E+03  0.50000000000E+03  0.00000000000E+00 0.  1.
        -11    1    1    2    0    0 -0.58996759953E+01 -0.48546399695E+01  0.48687889834E+03  0.48693884149E+03  0.00000000000E+00 0. -1.
         11    1    1    2    0    0  0.31272540339E+01  0.10640132273E+02 -0.48531886834E+03  0.48544556451E+03  0.00000000000E+00 0.  1.
        -15    1    1    2    0    0  0.31094032170E+01  0.14877982060E+01  0.11731897459E+02  0.12356256668E+02  0.17770000000E+01 0.  1.
         15    1    1    2    0    0 -0.33698125557E+00 -0.72732905099E+01 -0.13291927460E+02  0.15259337332E+02  0.17770000000E+01 0. -1.
</event>
<event>
 6    1  0.3365733E-003  0.5024431E+03  0.7546771E-02  0.9394360E-01
        -11   -1    0    0    0    0  0.00000000000E+00  0.00000000000E+00  0.50000000000E+03  0.50000000000E+03  0.00000000000E+00 0. -1.
         11   -1    0    0    0    0 -0.00000000000E+00 -0.00000000000E+00 -0.50000000000E+03  0.50000000000E+03  0.00000000000E+00 0.  1.
        -11    1    1    2    0    0 -0.28339378065E+01  0.55707621179E+01  0.44696499919E+03  0.44700869689E+03  0.00000000000E+00 0. -1.
         11    1    1    2    0    0 -0.10858997487E+02  0.17666152892E+01 -0.49743520546E+03  0.49755685342E+03  0.00000000000E+00 0.  1.
        -15    1    1    2    0    0  0.30265783808E+01 -0.87916498525E+01  0.11139714449E+02  0.14618626845E+02  0.17770000000E+01 0. -1.
         15    1    1    2    0    0  0.10666356913E+02  0.14542724455E+01  0.39330491828E+02  0.40815822845E+02  0.17770000000E+01 0.  1.
</event>
<event>
 6    1  0.3365733E-003  0.5022803E+03  0.7546771E-02  0.9394722E-01
        -11   -1    0    0    0    0  0.00000000000E+00  0.00000000000E+00  0.50000000000E+03  0.50000000000E+03  0.00000000000E+00 0.  1.
         11   -1    0    0    0    0 -0.00000000000E+00 -0.00000000000E+00 -0.50000000000E+03  0.50000000000E+03  0.00000000000E+00 0.  1.
        -11    1    1    2    0    0 -0.52856579881E+01 -0.62602232367E+01  0.49765225715E+03  0.49771969785E+03  0.00000000000E+00 0.  1.
         11    1    1    2    0    0 -0.39063978895E+01 -0.67445634765E+01 -0.45815985885E+03  0.45822615087E+03  0.00000000000E+00 0.  1.
        -15    1    1    2    0    0  0.69058699889E+01  0.11643960375E+02 -0.19486253122E+02  0.23793794217E+02  0.17770000000E+01 0. -1.
         15    1    1    2    0    0  0.22861858887E+01  0.13608263385E+01 -0.20006145181E+02  0.20260357061E+02  0.17770000000E+01 0. -1.
</event>
<event>
 6    1  0.3365733E-003  0.5057735E+03  0.7546771E-02  0.9386983E-01
        -11   -1    0    0    0    0  0.00000000000E+00  0.00000000000E+00  0.50000000000E+03  0.50000000000E+03  0.00000000000E+00 0. -1.
         11   -1    0    0    0    0 -0.00000000000E+00 -0.00000000000E+00 -0.50000000000E+03  0.50000000000E+03  0.00000000000E+00 0.  1.
        -11    1    1    2    0    0 -0.12583180140E+01 -0.11896868748E+02  0.41581868617E+03  0.41599074343E+03  0.00000000000E+00 0. -1.
         11    1    1    2    0    0 -0.27371156077E+01  0.22962788882E+02 -0.49368516999E+03  0.49422649519E+03  0.00000000000E+00 0.  1.
        -15    1    1    2    0    0 -0.24030043817E+00  0.15962906182E+02  0.39374546256E+02  0.42525107172E+02  0.17770000000E+01 0.  1.
         15    1    1    2    0    0  0.42357340598E+01 -0.27028826316E+02  0.38491937567E+02  0.47257654213E+02  0.17770000000E+01 0. -1.
</event>
<event>
 6    1  0.3365733E-003  0.5005442E+03  0.7546771E-02  0.9398593E-01
        -11   -1    0    0    0    0  0.00000000000E+00  0.00000000000E+00  0.50000000000E+03  0.50000000000E+03  0.00000000000E+00 0. -1.
         11   -1    0    0    0    0 -0.00000000000E+00 -0.00000000000E+00 -0.50000000000E+03  0.50000000000E+03  0.00000000000E+00 0.  1.
        -11    1    1    2    0    0  0.93322176975E+01  0.96591210430E+00  0.49936771544E+03  0.49945584239E+03  0.00000000000E+00 0. -1.
         11    1    1    2    0    0 -0.73818210717E+01 -0.72039260821E+01 -0.38421921914E+03  0.38435764099E+03  0.00000000000E+00 0.  1.
        -15    1    1    2    0    0 -0.53658439235E+01  0.41040753499E+01 -0.10347733798E+03  0.10371283874E+03  0.17770000000E+01 0.  1.
         15    1    1    2    0    0  0.34154472977E+01  0.21339386279E+01 -0.11671158323E+02  0.12473677882E+02  0.17770000000E+01 0. -1.
</event>
<event>
 6    1  0.3365733E-003  0.5007688E+03  0.7546771E-02  0.9398091E-01
        -11   -1    0    0    0    0  0.00000000000E+00  0.00000000000E+00  0.50000000000E+03  0.50000000000E+03  0.00000000000E+00 0. -1.
         11   -1    0    0    0    0 -0.00000000000E+00 -0.00000000000E+00 -0.50000000000E+03  0.50000000000E+03  0.00000000000E+00 0. -1.
        -11    1    1    2    0    0 -0.31386151337E+01 -0.39316781411E+01  0.22937779176E+03  0.22943295393E+03  0.00000000000E+00 0. -1.
         11    1    1    2    0    0 -0.12079085462E+02  0.19116769477E+02 -0.49871878261E+03  0.49923118824E+03  0.00000000000E+00 0. -1.
        -15    1    1    2    0    0 -0.28400817681E+00 -0.91057218349E+01  0.19098674804E+03  0.19121216093E+03  0.17770000000E+01 0.  1.
         15    1    1    2    0    0  0.15501708773E+02 -0.60793695009E+01  0.78354242816E+02  0.80123696899E+02  0.17770000000E+01 0. -1.
</event>
<event>
 6    1  0.3365733E-003  0.5064466E+03  0.7546771E-02  0.9385499E-01
        -11   -1    0    0    0    0  0.00000000000E+00  0.00000000000E+00  0.50000000000E+03  0.50000000000E+03  0.00000000000E+00 0.  1.
         11   -1    0    0    0    0 -0.00000000000E+00 -0.00000000000E+00 -0.50000000000E+03  0.50000000000E+03  0.00000000000E+00 0. -1.
        -11    1    1    2    0    0  0.74769274234E+01  0.19564030942E+02  0.49310878469E+03  0.49355337026E+03  0.00000000000E+00 0.  1.
         11    1    1    2    0    0 -0.12458396557E+02 -0.71785174023E+01 -0.29039036962E+03  0.29074612555E+03  0.00000000000E+00 0. -1.
        -15    1    1    2    0    0  0.47625185763E+01  0.26013351238E+02 -0.13720788042E+03  0.13974453909E+03  0.17770000000E+01 0. -1.
         15    1    1    2    0    0  0.21895055757E+00 -0.38398864777E+02 -0.65510534653E+02  0.75955965105E+02  0.17770000000E+01 0.  1.
</event>
<event>
 6    1  0.3365733E-003  0.5040104E+03  0.7546771E-02  0.9390881E-01
        -11   -1    0    0    0    0  0.00000000000E+00  0.00000000000E+00  0.50000000000E+03  0.50000000000E+03  0.00000000000E+00 0. -1.
         11   -1    0    0    0    0 -0.00000000000E+00 -0.00000000000E+00 -0.50000000000E+03  0.50000000000E+03  0.00000000000E+00 0.  1.
        -11    1    1    2    0    0  0.46962875880E+01  0.27816990765E+01  0.39124158759E+03  0.39127966064E+03  0.00000000000E+00 0. -1.
         11    1    1    2    0    0 -0.93963064278E+01 -0.14956710920E+01 -0.49589838043E+03  0.49598964840E+03  0.00000000000E+00 0.  1.
        -15    1    1    2    0    0 -0.37310764413E+00 -0.65841176368E+01  0.10495534142E+03  0.10517733233E+03  0.17770000000E+01 0.  1.
         15    1    1    2    0    0  0.50731264840E+01  0.52980896523E+01 -0.29854857945E+00  0.75533586265E+01  0.17770000000E+01 0.  1.
</event>
<event>
 6    1  0.3853363E-003  0.5147396E+03  0.7546771E-02  0.9367420E-01
        -11   -1    0    0    0    0  0.00000000000E+00  0.00000000000E+00  0.50000000000E+03  0.50000000000E+03  0.00000000000E+00 0.  1.
         11   -1    0    0    0    0 -0.00000000000E+00 -0.00000000000E+00 -0.50000000000E+03  0.50000000000E+03  0.00000000000E+00 0. -1.
        -11    1    1    2    0    0  0.69533385756E+01 -0.33970213819E+01  0.48169172830E+03  0.48175388922E+03  0.00000000000E+00 0.  1.
         11    1    1    2    0    0 -0.12151920435E+02  0.48079525834E+01 -0.48508442774E+03  0.48526043277E+03  0.00000000000E+00 0. -1.
        -15    1    1    2    0    0 -0.61178750312E+01  0.37678408958E+01  0.14455225319E+02  0.16239959604E+02  0.17770000000E+01 0.  1.
         15    1    1    2    0    0  0.11316456890E+02 -0.51787720973E+01 -0.11062525873E+02  0.16745718398E+02  0.17770000000E+01 0. -1.
</event>
<event>
 6    1  0.3365733E-003  0.4444079E+03  0.7546771E-02  0.9533587E-01
        -11   -1    0    0    0    0  0.00000000000E+00  0.00000000000E+00  0.50000000000E+03  0.50000000000E+03  0.00000000000E+00 0.  1.
         11   -1    0    0    0    0 -0.00000000000E+00 -0.00000000000E+00 -0.50000000000E+03  0.50000000000E+03  0.00000000000E+00 0. -1.
        -11    1    1    2    0    0  0.30943163827E+02 -0.55585592478E+02  0.45142024985E+03  0.45588099264E+03  0.00000000000E+00 0.  1.
         11    1    1    2    0    0  0.62912680936E+01  0.30098809417E+01 -0.43535553630E+03  0.43541139446E+03  0.00000000000E+00 0. -1.
        -15    1    1    2    0    0  0.12499077239E+02 -0.14952685337E+02 -0.15264794711E+02  0.24818972928E+02  0.17770000000E+01 0.  1.
         15    1    1    2    0    0 -0.49733509160E+02  0.67528396873E+02 -0.79991883587E+00  0.83888639974E+02  0.17770000000E+01 0. -1.
</event>
<event>
 6    1  0.3365733E-003  0.5027357E+03  0.7546771E-02  0.9393709E-01
        -11   -1    0    0    0    0  0.00000000000E+00  0.00000000000E+00  0.50000000000E+03  0.50000000000E+03  0.00000000000E+00 0.  1.
         11   -1    0    0    0    0 -0.00000000000E+00 -0.00000000000E+00 -0.50000000000E+03  0.50000000000E+03  0.00000000000E+00 0.  1.
        -11    1    1    2    0    0 -0.70168080908E+01  0.56901926587E+01  0.10440754438E+03  0.10479765843E+03  0.00000000000E+00 0.  1.
         11    1    1    2    0    0 -0.47943217687E+01  0.55633875763E+01 -0.49721009322E+03  0.49726432971E+03  0.00000000000E+00 0.  1.
        -15    1    1    2    0    0 -0.98996494891E+01 -0.35168188229E+01  0.10574659653E+02  0.15011736422E+02  0.17770000000E+01 0. -1.
         15    1    1    2    0    0  0.21710779349E+02 -0.77367614122E+01  0.38222788919E+03  0.38292627544E+03  0.17770000000E+01 0.  1.
</event>
<event>
 6    1  0.3365733E-003  0.5145164E+03  0.7546771E-02  0.9367901E-01
        -11   -1    0    0    0    0  0.00000000000E+00  0.00000000000E+00  0.50000000000E+03  0.50000000000E+03  0.00000000000E+00 0.  1.
         11   -1    0    0    0    0 -0.00000000000E+00 -0.00000000000E+00 -0.50000000000E+03  0.50000000000E+03  0.00000000000E+00 0.  1.
        -11    1    1    2    0    0  0.39863365211E+01  0.45953812740E+01  0.35273563007E+03  0.35278808530E+03  0.00000000000E+00 0.  1.
         11    1    1    2    0    0 -0.13329170089E+02  0.31605931179E+01 -0.48529031536E+03  0.48548362105E+03  0.00000000000E+00 0.  1.
        -15    1    1    2    0    0  0.18401196598E+02 -0.54984038726E+01 -0.79798930506E+01  0.20872779007E+02  0.17770000000E+01 0. -1.
         15    1    1    2    0    0 -0.90583630301E+01 -0.22575705193E+01  0.14053457834E+03  0.14085551464E+03  0.17770000000E+01 0.  1.
</event>
<event>
 6    1  0.3365733E-003  0.5005231E+03  0.7546771E-02  0.9398640E-01
        -11   -1    0    0    0    0  0.00000000000E+00  0.00000000000E+00  0.50000000000E+03  0.50000000000E+03  0.00000000000E+00 0.  1.
         11   -1    0    0    0    0 -0.00000000000E+00 -0.00000000000E+00 -0.50000000000E+03  0.50000000000E+03  0.00000000000E+00 0. -1.
        -11    1    1    2    0    0  0.11833111509E+01 -0.10690496134E+02  0.36264222176E+03  0.36280169230E+03  0.00000000000E+00 0.  1.
         11    1    1    2    0    0  0.27991249440E+01  0.72588696436E+01 -0.49941635146E+03  0.49947694481E+03  0.00000000000E+00 0. -1.
        -15    1    1    2    0    0 -0.48536990052E+01 -0.39718610104E+01  0.31430166144E+02  0.32099020963E+02  0.17770000000E+01 0. -1.
         15    1    1    2    0    0  0.87126291029E+00  0.74034875012E+01  0.10534396356E+03  0.10562234193E+03  0.17770000000E+01 0.  1.
</event>
<event>
 6    1  0.3365733E-003  0.5105469E+03  0.7546771E-02  0.9376515E-01
        -11   -1    0    0    0    0  0.00000000000E+00  0.00000000000E+00  0.50000000000E+03  0.50000000000E+03  0.00000000000E+00 0. -1.
         11   -1    0    0    0    0 -0.00000000000E+00 -0.00000000000E+00 -0.50000000000E+03  0.50000000000E+03  0.00000000000E+00 0.  1.
        -11    1    1    2    0    0  0.31810794322E+02  0.38692901824E+01  0.45052916263E+03  0.45166738251E+03  0.00000000000E+00 0. -1.
         11    1    1    2    0    0 -0.61955363625E+01 -0.39850081758E+01 -0.48939761514E+03  0.48945305257E+03  0.00000000000E+00 0.  1.
        -15    1    1    2    0    0  0.44862897148E+01  0.68414059623E+01 -0.10111456315E+01  0.84327798165E+01  0.17770000000E+01 0. -1.
         15    1    1    2    0    0 -0.30101547674E+02 -0.67256879689E+01  0.39879598142E+02  0.50446785111E+02  0.17770000000E+01 0.  1.
</event>
<event>
 6    1  0.3666301E-003  0.5579132E+03  0.7546771E-02  0.9278803E-01
        -11   -1    0    0    0    0  0.00000000000E+00  0.00000000000E+00  0.50000000000E+03  0.50000000000E+03  0.00000000000E+00 0.  1.
         11   -1    0    0    0    0 -0.00000000000E+00 -0.00000000000E+00 -0.50000000000E+03  0.50000000000E+03  0.00000000000E+00 0. -1.
        -11    1    1    2    0    0  0.19719415174E+01  0.28647417172E+02  0.27005409333E+03  0.27157646508E+03  0.00000000000E+00 0.  1.
         11    1    1    2    0    0  0.84612632439E+01  0.16615269701E+01 -0.44200272716E+03  0.44208682910E+03  0.00000000000E+00 0. -1.
        -15    1    1    2    0    0 -0.13449990733E+02 -0.31750744666E+02  0.22777749135E+03  0.23037958967E+03  0.17770000000E+01 0.  1.
         15    1    1    2    0    0  0.30167859714E+01  0.14418005237E+01 -0.55828857521E+02  0.55957116146E+02  0.17770000000E+01 0. -1.
</event>
<event>
 6    1  0.3365733E-003  0.4841441E+03  0.7546771E-02  0.9436005E-01
        -11   -1    0    0    0    0  0.00000000000E+00  0.00000000000E+00  0.50000000000E+03  0.50000000000E+03  0.00000000000E+00 0.  1.
         11   -1    0    0    0    0 -0.00000000000E+00 -0.00000000000E+00 -0.50000000000E+03  0.50000000000E+03  0.00000000000E+00 0. -1.
        -11    1    1    2    0    0 -0.20816488594E+01  0.83206598194E+01  0.48723541561E+03  0.48731090370E+03  0.00000000000E+00 0.  1.
         11    1    1    2    0    0  0.10947864358E+02  0.51751625843E+01 -0.48097974018E+03  0.48113215285E+03  0.00000000000E+00 0. -1.
        -15    1    1    2    0    0 -0.17148768399E+02 -0.13259108324E+02 -0.14103637432E+01  0.21795207410E+02  0.17770000000E+01 0.  1.
         15    1    1    2    0    0  0.82825529004E+01 -0.23671408011E+00 -0.48453116924E+01  0.97617360392E+01  0.17770000000E+01 0. -1.
</event>
<event>
 6    1  0.3365733E-003  0.5076765E+03  0.7546771E-02  0.9382795E-01
        -11   -1    0    0    0    0  0.00000000000E+00  0.00000000000E+00  0.50000000000E+03  0.50000000000E+03  0.00000000000E+00 0. -1.
         11   -1    0    0    0    0 -0.00000000000E+00 -0.00000000000E+00 -0.50000000000E+03  0.50000000000E+03  0.00000000000E+00 0. -1.
        -11    1    1    2    0    0 -0.98886622648E+01  0.34899168119E+01  0.49221179129E+03  0.49232348374E+03  0.00000000000E+00 0. -1.
         11    1    1    2    0    0 -0.13873084022E+02  0.66901760631E+01 -0.43160624424E+03  0.43188096854E+03  0.00000000000E+00 0. -1.
        -15    1    1    2    0    0  0.29692263921E+02  0.34815349635E+01 -0.45782548419E+02  0.54707870469E+02  0.17770000000E+01 0. -1.
         15    1    1    2    0    0 -0.59305176339E+01 -0.13661627838E+02 -0.14822998629E+02  0.21087677254E+02  0.17770000000E+01 0.  1.
</event>
<event>
 6    1  0.3365733E-003  0.5023537E+03  0.7546771E-02  0.9394558E-01
        -11   -1    0    0    0    0  0.00000000000E+00  0.00000000000E+00  0.50000000000E+03  0.50000000000E+03  0.00000000000E+00 0.  1.
         11   -1    0    0    0    0 -0.00000000000E+00 -0.00000000000E+00 -0.50000000000E+03  0.50000000000E+03  0.00000000000E+00 0. -1.
        -11    1    1    2    0    0  0.77990571486E+01  0.67808893548E+01  0.48144448544E+03  0.48155539486E+03  0.00000000000E+00 0.  1.
         11    1    1    2    0    0  0.12048887329E+01 -0.76417592927E+01 -0.49758616614E+03  0.49764630108E+03  0.00000000000E+00 0. -1.
        -15    1    1    2    0    0 -0.56468450454E+01  0.40920787044E+01  0.55386363811E+01  0.90810896401E+01  0.17770000000E+01 0.  1.
         15    1    1    2    0    0 -0.33571008361E+01 -0.32312087664E+01  0.10603044318E+02  0.11717214427E+02  0.17770000000E+01 0. -1.
</event>
<event>
 6    1  0.3365733E-003  0.5386877E+03  0.7546771E-02  0.9317175E-01
        -11   -1    0    0    0    0  0.00000000000E+00  0.00000000000E+00  0.50000000000E+03  0.50000000000E+03  0.00000000000E+00 0. -1.
         11   -1    0    0    0    0 -0.00000000000E+00 -0.00000000000E+00 -0.50000000000E+03  0.50000000000E+03  0.00000000000E+00 0.  1.
        -11    1    1    2    0    0  0.17361391180E+02 -0.13402476720E+02  0.37500337055E+03  0.37564420960E+03  0.00000000000E+00 0. -1.
         11    1    1    2    0    0  0.24396249351E+02  0.38366409773E+02 -0.45906627795E+03  0.46131226510E+03  0.00000000000E+00 0.  1.
        -15    1    1    2    0    0 -0.40523961315E+02 -0.58664614449E+02 -0.12042183227E+01  0.71332575307E+02  0.17770000000E+01 0. -1.
         15    1    1    2    0    0 -0.12336792158E+01  0.33700681395E+02  0.85267125721E+02  0.91710949993E+02  0.17770000000E+01 0.  1.
</event>
<event>
 6    1  0.3365733E-003  0.5014563E+03  0.7546771E-02  0.9396557E-01
        -11   -1    0    0    0    0  0.00000000000E+00  0.00000000000E+00  0.50000000000E+03  0.50000000000E+03  0.00000000000E+00 0.  1.
         11   -1    0    0    0    0 -0.00000000000E+00 -0.00000000000E+00 -0.50000000000E+03  0.50000000000E+03  0.00000000000E+00 0.  1.
        -11    1    1    2    0    0 -0.13801715387E+02  0.51132004193E+01  0.49832640085E+03  0.49854371318E+03  0.00000000000E+00 0.  1.
         11    1    1    2    0    0 -0.92075383446E+01  0.44092190292E+01 -0.31886824580E+03  0.31903162564E+03  0.00000000000E+00 0.  1.
        -15    1    1    2    0    0  0.81062171040E+01 -0.13472113985E+02 -0.11710379467E+03  0.11816795278E+03  0.17770000000E+01 0.  1.
         15    1    1    2    0    0  0.14903036627E+02  0.39496945364E+01 -0.62354360379E+02  0.64256708404E+02  0.17770000000E+01 0. -1.
</event>
<event>
 6    1  0.3365733E-003  0.5006056E+03  0.7546771E-02  0.9398456E-01
        -11   -1    0    0    0    0  0.00000000000E+00  0.00000000000E+00  0.50000000000E+03  0.50000000000E+03  0.00000000000E+00 0.  1.
         11   -1    0    0    0    0 -0.00000000000E+00 -0.00000000000E+00 -0.50000000000E+03  0.50000000000E+03  0.00000000000E+00 0. -1.
        -11    1    1    2    0    0 -0.28214347919E+01 -0.14986548155E+02  0.49916155240E+03  0.49939444582E+03  0.00000000000E+00 0.  1.
         11    1    1    2    0    0  0.27968231171E+01 -0.88997485434E+00 -0.12860843325E+03  0.12864191921E+03  0.00000000000E+00 0. -1.
        -15    1    1    2    0    0  0.13458543042E+02  0.43526663126E+01 -0.19110583238E+03  0.19163683096E+03  0.17770000000E+01 0. -1.
         15    1    1    2    0    0 -0.13433931367E+02  0.11523856697E+02 -0.17944728677E+03  0.18032680401E+03  0.17770000000E+01 0.  1.
</event>
<event>
 6    1  0.3365733E-003  0.5017106E+03  0.7546771E-02  0.9395990E-01
        -11   -1    0    0    0    0  0.00000000000E+00  0.00000000000E+00  0.50000000000E+03  0.50000000000E+03  0.00000000000E+00 0. -1.
         11   -1    0    0    0    0 -0.00000000000E+00 -0.00000000000E+00 -0.50000000000E+03  0.50000000000E+03  0.00000000000E+00 0.  1.
        -11    1    1    2    0    0  0.51318643436E+01 -0.49171270616E+00  0.33152455743E+03  0.33156463924E+03  0.00000000000E+00 0. -1.
         11    1    1    2    0    0 -0.32561919733E+01  0.86426725876E+01 -0.49820382215E+03  0.49828942090E+03  0.00000000000E+00 0.  1.
        -15    1    1    2    0    0 -0.12871001861E+00 -0.95122772195E+01  0.11890219258E+02  0.15330852134E+02  0.17770000000E+01 0.  1.
         15    1    1    2    0    0 -0.17469623518E+01  0.13613173380E+01  0.15478904546E+03  0.15481508772E+03  0.17770000000E+01 0. -1.
</event>
<event>
 6    1  0.3365733E-003  0.4871038E+03  0.7546771E-02  0.9429137E-01
        -11   -1    0    0    0    0  0.00000000000E+00  0.00000000000E+00  0.50000000000E+03  0.50000000000E+03  0.00000000000E+00 0.  1.
         11   -1    0    0    0    0 -0.00000000000E+00 -0.00000000000E+00 -0.50000000000E+03  0.50000000000E+03  0.00000000000E+00 0. -1.
        -11    1    1    2    0    0  0.65698175288E+01  0.10940215290E+01  0.49171858507E+03  0.49176368948E+03  0.00000000000E+00 0.  1.
         11    1    1    2    0    0  0.23814332771E+01  0.13197473365E+02 -0.48244760951E+03  0.48263396115E+03  0.00000000000E+00 0. -1.
        -15    1    1    2    0    0 -0.58786042034E+01 -0.16347927553E+02 -0.24382646634E+01  0.17632798593E+02  0.17770000000E+01 0. -1.
         15    1    1    2    0    0 -0.30726466025E+01  0.20564326591E+01 -0.68327108968E+01  0.79695507794E+01  0.17770000000E+01 0.  1.
</event>
<event>
 6    1  0.3365733E-003  0.5133262E+03  0.7546771E-02  0.9370475E-01
        -11   -1    0    0    0    0  0.00000000000E+00  0.00000000000E+00  0.50000000000E+03  0.50000000000E+03  0.00000000000E+00 0. -1.
         11   -1    0    0    0    0 -0.00000000000E+00 -0.00000000000E+00 -0.50000000000E+03  0.50000000000E+03  0.00000000000E+00 0. -1.
        -11    1    1    2    0    0 -0.92596357497E+01  0.18701233235E+02  0.43041222042E+03  0.43091780709E+03  0.00000000000E+00 0. -1.
         11    1    1    2    0    0 -0.12946640314E+02  0.21708122862E+02 -0.48601698578E+03  0.48667378043E+03  0.00000000000E+00 0. -1.
        -15    1    1    2    0    0  0.77147549056E+01 -0.14186730217E+02 -0.30414914439E+01  0.16528434793E+02  0.17770000000E+01 0. -1.
         15    1    1    2    0    0  0.14491521158E+02 -0.26222625879E+02  0.58646256805E+02  0.65879977685E+02  0.17770000000E+01 0.  1.
</event>
<event>
 6    1  0.3365733E-003  0.5161913E+03  0.7546771E-02  0.9364292E-01
        -11   -1    0    0    0    0  0.00000000000E+00  0.00000000000E+00  0.50000000000E+03  0.50000000000E+03  0.00000000000E+00 0. -1.
         11   -1    0    0    0    0 -0.00000000000E+00 -0.00000000000E+00 -0.50000000000E+03  0.50000000000E+03  0.00000000000E+00 0.  1.
        -11    1    1    2    0    0  0.36825300367E+01  0.68713920384E+01  0.45413522881E+03  0.45420213903E+03  0.00000000000E+00 0. -1.
         11    1    1    2    0    0 -0.17379367741E+02 -0.17842412462E+02 -0.48316712407E+03  0.48380870588E+03  0.00000000000E+00 0.  1.
        -15    1    1    2    0    0  0.31433872431E+02  0.11294419160E+02  0.79523176950E+01  0.34380944226E+02  0.17770000000E+01 0.  1.
         15    1    1    2    0    0 -0.17737034727E+02 -0.32339873640E+00  0.21079577567E+02  0.27608210863E+02  0.17770000000E+01 0. -1.
</event>
<event>
 6    1  0.3365733E-003  0.5008087E+03  0.7546771E-02  0.9398002E-01
        -11   -1    0    0    0    0  0.00000000000E+00  0.00000000000E+00  0.50000000000E+03  0.50000000000E+03  0.00000000000E+00 0.  1.
         11   -1    0    0    0    0 -0.00000000000E+00 -0.00000000000E+00 -0.50000000000E+03  0.50000000000E+03  0.00000000000E+00 0. -1.
        -11    1    1    2    0    0 -0.60198592037E+01  0.28483168668E+01  0.34402584740E+03  0.34409030107E+03  0.00000000000E+00 0.  1.
         11    1    1    2    0    0 -0.57744406956E+01 -0.85515585441E+01 -0.49908464342E+03  0.49919130063E+03  0.00000000000E+00 0. -1.
        -15    1    1    2    0    0  0.17905394044E+01  0.65561556876E+01  0.18650639328E+02  0.19929708606E+02  0.17770000000E+01 0. -1.
         15    1    1    2    0    0  0.10003760495E+02 -0.85291401029E+00  0.13640815670E+03  0.13678868970E+03  0.17770000000E+01 0.  1.
</event>
<event>
 6    1  0.3365733E-003  0.5028156E+03  0.7546771E-02  0.9393532E-01
        -11   -1    0    0    0    0  0.00000000000E+00  0.00000000000E+00  0.50000000000E+03  0.50000000000E+03  0.00000000000E+00 0. -1.
         11   -1    0    0    0    0 -0.00000000000E+00 -0.00000000000E+00 -0.50000000000E+03  0.50000000000E+03  0.00000000000E+00 0.  1.
        -11    1    1    2    0    0 -0.72284066157E+01  0.10820894057E+01  0.31611051598E+03  0.31619500169E+03  0.00000000000E+00 0. -1.
         11    1    1    2    0    0 -0.45675766540E+01 -0.11102949115E+02 -0.49703945120E+03  0.49718442683E+03  0.00000000000E+00 0.  1.
        -15    1    1    2    0    0  0.16092066423E+02 -0.93805662127E+00  0.16897086253E+03  0.16974729649E+03  0.17770000000E+01 0.  1.
         15    1    1    2    0    0 -0.42960831534E+01  0.10958916330E+02  0.11958072677E+02  0.16873274986E+02  0.17770000000E+01 0. -1.
</event>
<event>
 6    1  0.3365733E-003  0.5516822E+03  0.7546771E-02  0.9291058E-01
        -11   -1    0    0    0    0  0.00000000000E+00  0.00000000000E+00  0.50000000000E+03  0.50000000000E+03  0.00000000000E+00 0.  1.
         11   -1    0    0    0    0 -0.00000000000E+00 -0.00000000000E+00 -0.50000000000E+03  0.50000000000E+03  0.00000000000E+00 0.  1.
        -11    1    1    2    0    0  0.12717494593E+02  0.24250956869E+02  0.44748077203E+03  0.44831783917E+03  0.00000000000E+00 0.  1.
         11    1    1    2    0    0  0.21630153300E+01  0.12118296037E+01 -0.16681301992E+03  0.16683144422E+03  0.00000000000E+00 0.  1.
        -15    1    1    2    0    0  0.31710537995E+01  0.88850725130E+01 -0.32543753301E+03  0.32557909287E+03  0.17770000000E+01 0.  1.
         15    1    1    2    0    0 -0.18051563723E+02 -0.34347858985E+02  0.44769780895E+02  0.59271623734E+02  0.17770000000E+01 0. -1.
</event>
<event>
 6    1  0.3365733E-003  0.5513024E+03  0.7546771E-02  0.9291810E-01
        -11   -1    0    0    0    0  0.00000000000E+00  0.00000000000E+00  0.50000000000E+03  0.50000000000E+03  0.00000000000E+00 0.  1.
         11   -1    0    0    0    0 -0.00000000000E+00 -0.00000000000E+00 -0.50000000000E+03  0.50000000000E+03  0.00000000000E+00 0. -1.
        -11    1    1    2    0    0 -0.73083320945E+00 -0.48220227292E+02  0.44609847044E+03  0.44869763735E+03  0.00000000000E+00 0.  1.
         11    1    1    2    0    0 -0.22881988926E+02 -0.20192417810E+02 -0.39575170706E+03  0.39692660883E+03  0.00000000000E+00 0. -1.
        -15    1    1    2    0    0  0.23517332187E+02  0.85020010729E+02  0.12712825251E+02  0.89141689418E+02  0.17770000000E+01 0.  1.
         15    1    1    2    0    0  0.95489948445E-01 -0.16607365626E+02 -0.63059588629E+02  0.65234064402E+02  0.17770000000E+01 0. -1.
</event>
<event>
 6    1  0.3365733E-003  0.5301633E+03  0.7546771E-02  0.9334736E-01
        -11   -1    0    0    0    0  0.00000000000E+00  0.00000000000E+00  0.50000000000E+03  0.50000000000E+03  0.00000000000E+00 0. -1.
         11   -1    0    0    0    0 -0.00000000000E+00 -0.00000000000E+00 -0.50000000000E+03  0.50000000000E+03  0.00000000000E+00 0. -1.
        -11    1    1    2    0    0 -0.68951038096E+01 -0.56073014638E+01  0.45168303799E+03  0.45177046284E+03  0.00000000000E+00 0. -1.
         11    1    1    2    0    0 -0.57512106499E+01  0.42063129359E+01 -0.46978266864E+03  0.46983670062E+03  0.00000000000E+00 0. -1.
        -15    1    1    2    0    0 -0.30725539266E+02  0.53779839449E+01  0.15096868175E+02  0.34699490374E+02  0.17770000000E+01 0. -1.
         15    1    1    2    0    0  0.43371853726E+02 -0.39769954170E+01  0.30027624821E+01  0.43693346171E+02  0.17770000000E+01 0.  1.
</event>
<event>
 6    1  0.3365733E-003  0.5002857E+03  0.7546771E-02  0.9399171E-01
        -11   -1    0    0    0    0  0.00000000000E+00  0.00000000000E+00  0.50000000000E+03  0.50000000000E+03  0.00000000000E+00 0.  1.
         11   -1    0    0    0    0 -0.00000000000E+00 -0.00000000000E+00 -0.50000000000E+03  0.50000000000E+03  0.00000000000E+00 0. -1.
        -11    1    1    2    0    0 -0.24480907112E+01  0.61903714259E+01  0.66538572359E+02  0.66870736934E+02  0.00000000000E+00 0.  1.
         11    1    1    2    0    0  0.87206778329E+01  0.56762123583E+00 -0.49963783758E+03  0.49971425951E+03  0.00000000000E+00 0. -1.
        -15    1    1    2    0    0 -0.56697176978E+01  0.26085329676E+01  0.22956014626E+03  0.22965184219E+03  0.17770000000E+01 0.  1.
         15    1    1    2    0    0 -0.60286942402E+00 -0.93665256293E+01  0.20353911896E+03  0.20376316137E+03  0.17770000000E+01 0. -1.
</event>
<event>
 6    1  0.3365733E-003  0.5217455E+03  0.7546771E-02  0.9352425E-01
        -11   -1    0    0    0    0  0.00000000000E+00  0.00000000000E+00  0.50000000000E+03  0.50000000000E+03  0.00000000000E+00 0. -1.
         11   -1    0    0    0    0 -0.00000000000E+00 -0.00000000000E+00 -0.50000000000E+03  0.50000000000E+03  0.00000000000E+00 0. -1.
        -11    1    1    2    0    0  0.71756098125E+01  0.95153052055E+00  0.47819971748E+03  0.47825449771E+03  0.00000000000E+00 0. -1.
         11    1    1    2    0    0  0.25115758510E+02  0.80702168163E+01 -0.43565246514E+03  0.43645045550E+03  0.00000000000E+00 0. -1.
        -15    1    1    2    0    0  0.13426983353E+02 -0.12840200494E+02  0.48748405157E+01  0.19289282769E+02  0.17770000000E+01 0.  1.
         15    1    1    2    0    0 -0.45718351675E+02  0.38184531567E+01 -0.47422092851E+02  0.66005764019E+02  0.17770000000E+01 0. -1.
</event>
<event>
 6    1  0.3365733E-003  0.5093897E+03  0.7546771E-02  0.9379041E-01
        -11   -1    0    0    0    0  0.00000000000E+00  0.00000000000E+00  0.50000000000E+03  0.50000000000E+03  0.00000000000E+00 0.  1.
         11   -1    0    0    0    0 -0.00000000000E+00 -0.00000000000E+00 -0.50000000000E+03  0.50000000000E+03  0.00000000000E+00 0.  1.
        -11    1    1    2    0    0 -0.93206725063E+01  0.11423201216E+02  0.44743630033E+03  0.44767913433E+03  0.00000000000E+00 0.  1.
         11    1    1    2    0    0 -0.24912711018E+01  0.14397400049E+02 -0.49039269525E+03  0.49061032104E+03  0.00000000000E+00 0.  1.
        -15    1    1    2    0    0  0.87901635449E+01 -0.10062535006E+01 -0.28782074471E+01  0.94721343087E+01  0.17770000000E+01 0.  1.
         15    1    1    2    0    0  0.30217800632E+01 -0.24814347764E+02  0.45834602366E+02  0.52238410320E+02  0.17770000000E+01 0. -1.
</event>
<event>
 6    1  0.3365733E-003  0.5252393E+03  0.7546771E-02  0.9345041E-01
        -11   -1    0    0    0    0  0.00000000000E+00  0.00000000000E+00  0.50000000000E+03  0.50000000000E+03  0.00000000000E+00 0. -1.
         11   -1    0    0    0    0 -0.00000000000E+00 -0.00000000000E+00 -0.50000000000E+03  0.50000000000E+03  0.00000000000E+00 0.  1.
        -11    1    1    2    0    0  0.93592816612E+01  0.39018755057E+01  0.47465242925E+03  0.47476072856E+03  0.00000000000E+00 0. -1.
         11    1    1    2    0    0  0.11013680478E+02  0.11009636603E+02 -0.45737716558E+03  0.45764220178E+03  0.00000000000E+00 0.  1.
        -15    1    1    2    0    0 -0.20477508208E+02 -0.11854714513E+02 -0.38964785468E+02  0.45620991157E+02  0.17770000000E+01 0.  1.
         15    1    1    2    0    0  0.10454606954E+00 -0.30567975955E+01  0.21689521801E+02  0.21976078503E+02  0.17770000000E+01 0. -1.
</event>
<event>
 6    1  0.3365733E-003  0.5059952E+03  0.7546771E-02  0.9386494E-01
        -11   -1    0    0    0    0  0.00000000000E+00  0.00000000000E+00  0.50000000000E+03  0.50000000000E+03  0.00000000000E+00 0.  1.
         11   -1    0    0    0    0 -0.00000000000E+00 -0.00000000000E+00 -0.50000000000E+03  0.50000000000E+03  0.00000000000E+00 0.  1.
        -11    1    1    2    0    0 -0.19458692679E+02  0.98596802679E+01  0.49352295114E+03  0.49400481508E+03  0.00000000000E+00 0.  1.
         11    1    1    2    0    0  0.19637293906E+02  0.12643990546E+02 -0.41899940042E+03  0.41964984375E+03  0.00000000000E+00 0.  1.
        -15    1    1    2    0    0  0.89617406059E+01 -0.17432535583E+02 -0.12264980626E+02  0.23190376674E+02  0.17770000000E+01 0.  1.
         15    1    1    2    0    0 -0.91403418331E+01 -0.50711352314E+01 -0.62258570096E+02  0.63154964498E+02  0.17770000000E+01 0. -1.
</event>
<event>
 6    1  0.3365733E-003  0.5008090E+03  0.7546771E-02  0.9398001E-01
        -11   -1    0    0    0    0  0.00000000000E+00  0.00000000000E+00  0.50000000000E+03  0.50000000000E+03  0.00000000000E+00 0. -1.
         11   -1    0    0    0    0 -0.00000000000E+00 -0.00000000000E+00 -0.50000000000E+03  0.50000000000E+03  0.00000000000E+00 0. -1.
        -11    1    1    2    0    0  0.80913199513E+01  0.40436035169E+01  0.49910901090E+03  0.49919097042E+03  0.00000000000E+00 0. -1.
         11    1    1    2    0    0 -0.42716892550E+00  0.10900565001E+01 -0.40240010406E+02  0.40257038315E+02  0.00000000000E+00 0. -1.
        -15    1    1    2    0    0  0.10437314067E+02  0.35184992648E+01 -0.51936058662E+02  0.53120893068E+02  0.17770000000E+01 0.  1.
         15    1    1    2    0    0 -0.18101465092E+02 -0.86521592818E+01 -0.40693294183E+03  0.40743109820E+03  0.17770000000E+01 0. -1.
</event>
<event>
 6    1  0.3365733E-003  0.5033404E+03  0.7546771E-02  0.9392366E-01
        -11   -1    0    0    0    0  0.00000000000E+00  0.00000000000E+00  0.50000000000E+03  0.50000000000E+03  0.00000000000E+00 0.  1.
         11   -1    0    0    0    0 -0.00000000000E+00 -0.00000000000E+00 -0.50000000000E+03  0.50000000000E+03  0.00000000000E+00 0.  1.
        -11    1    1    2    0    0  0.14725923320E+01  0.57620443915E+01  0.41203271888E+03  0.41207563761E+03  0.00000000000E+00 0.  1.
         11    1    1    2    0    0 -0.12997058052E+02 -0.13076452333E+02 -0.49631726665E+03  0.49665958795E+03  0.00000000000E+00 0.  1.
        -15    1    1    2    0    0  0.17869510212E+02  0.15461176145E+02  0.66829659290E+02  0.70906476805E+02  0.17770000000E+01 0. -1.
         15    1    1    2    0    0 -0.63450444919E+01 -0.81467682043E+01  0.17454888486E+02  0.20358297641E+02  0.17770000000E+01 0.  1.
</event>
<event>
 6    1  0.3365733E-003  0.5033339E+03  0.7546771E-02  0.9392381E-01
        -11   -1    0    0    0    0  0.00000000000E+00  0.00000000000E+00  0.50000000000E+03  0.50000000000E+03  0.00000000000E+00 0. -1.
         11   -1    0    0    0    0 -0.00000000000E+00 -0.00000000000E+00 -0.50000000000E+03  0.50000000000E+03  0.00000000000E+00 0.  1.
        -11    1    1    2    0    0 -0.65103602693E+01 -0.55541472133E+01  0.49659234529E+03  0.49666607569E+03  0.00000000000E+00 0. -1.
         11    1    1    2    0    0 -0.87445082532E+01 -0.50703628569E+00 -0.46878915700E+03  0.46887098143E+03  0.00000000000E+00 0.  1.
        -15    1    1    2    0    0  0.66746518125E+01 -0.31989879256E+01 -0.10110558457E+02  0.12655655727E+02  0.17770000000E+01 0.  1.
         15    1    1    2    0    0  0.85802167101E+01  0.92601714247E+01 -0.17692629831E+02  0.21807287152E+02  0.17770000000E+01 0. -1.
</event>
<event>
 6    1  0.3365733E-003  0.5020325E+03  0.7546771E-02  0.9395273E-01
        -11   -1    0    0    0    0  0.00000000000E+00  0.00000000000E+00  0.50000000000E+03  0.50000000000E+03  0.00000000000E+00 0. -1.
         11   -1    0    0    0    0 -0.00000000000E+00 -0.00000000000E+00 -0.50000000000E+03  0.50000000000E+03  0.00000000000E+00 0.  1.
        -11    1    1    2    0    0  0.60568495772E+01  0.35885308338E+01  0.45194902001E+03  0.45200384917E+03  0.00000000000E+00 0. -1.
         11    1    1    2    0    0  0.43126139256E+00 -0.10161176390E+02 -0.49786363869E+03  0.49796750720E+03  0.00000000000E+00 0.  1.
        -15    1    1    2    0    0 -0.12092344963E+02  0.21727171906E+01  0.31328002175E+02  0.33697877618E+02  0.17770000000E+01 0. -1.
         15    1    1    2    0    0  0.56042339933E+01  0.43999283652E+01  0.14586616509E+02  0.16330766009E+02  0.17770000000E+01 0.  1.
</event>
<event>
 6    1  0.3365733E-003  0.5063702E+03  0.7546771E-02  0.9385668E-01
        -11   -1    0    0    0    0  0.00000000000E+00  0.00000000000E+00  0.50000000000E+03  0.50000000000E+03  0.00000000000E+00 0. -1.
         11   -1    0    0    0    0 -0.00000000000E+00 -0.00000000000E+00 -0.50000000000E+03  0.50000000000E+03  0.00000000000E+00 0. -1.
        -11    1    1    2    0    0 -0.12404597797E+01 -0.66397644932E+01  0.49358357639E+03  0.49362979255E+03  0.00000000000E+00 0. -1.
         11    1    1    2    0    0 -0.51017873351E+01  0.85678825339E+01 -0.48284659950E+03  0.48294955792E+03  0.00000000000E+00 0. -1.
        -15    1    1    2    0    0  0.97858502620E+00  0.18668974573E+01  0.53137435503E+01  0.59863623586E+01  0.17770000000E+01 0.  1.
         15    1    1    2    0    0  0.53636620887E+01 -0.37950154980E+01 -0.16050720439E+02  0.17434287173E+02  0.17770000000E+01 0. -1.
</event>
<event>
 6    1  0.3365733E-003  0.5038395E+03  0.7546771E-02  0.9391259E-01
        -11   -1    0    0    0    0  0.00000000000E+00  0.00000000000E+00  0.50000000000E+03  0.50000000000E+03  0.00000000000E+00 0. -1.
         11   -1    0    0    0    0 -0.00000000000E+00 -0.00000000000E+00 -0.50000000000E+03  0.50000000000E+03  0.00000000000E+00 0. -1.
        -11    1    1    2    0    0 -0.11194769239E+02 -0.11357549940E+02  0.49590417756E+03  0.49616052858E+03  0.00000000000E+00 0. -1.
         11    1    1    2    0    0  0.10704893418E+02 -0.10334889787E+02 -0.45256924951E+03  0.45281379207E+03  0.00000000000E+00 0. -1.
        -15    1    1    2    0    0  0.48006061033E+01  0.45541031459E+01 -0.41679080974E+01  0.80196546890E+01  0.17770000000E+01 0.  1.
         15    1    1    2    0    0 -0.43107302820E+01  0.17138336582E+02 -0.39167019950E+02  0.43006024661E+02  0.17770000000E+01 0. -1.
</event>
<event>
 6    1  0.3365733E-003  0.4830149E+03  0.7546771E-02  0.9438638E-01
        -11   -1    0    0    0    0  0.00000000000E+00  0.00000000000E+00  0.50000000000E+03  0.50000000000E+03  0.00000000000E+00 0. -1.
         11   -1    0    0    0    0 -0.00000000000E+00 -0.00000000000E+00 -0.50000000000E+03  0.50000000000E+03  0.00000000000E+00 0.  1.
        -11    1    1    2    0    0 -0.68910733781E+01  0.30115461672E+01  0.48714740456E+03  0.48720544955E+03  0.00000000000E+00 0. -1.
         11    1    1    2    0    0 -0.61531697183E+01  0.26037874727E+01 -0.47891709585E+03  0.47896369998E+03  0.00000000000E+00 0.  1.
        -15    1    1    2    0    0  0.97359749522E+01 -0.61829592579E+01 -0.19063285208E+02  0.22351392918E+02  0.17770000000E+01 0.  1.
         15    1    1    2    0    0  0.33082681442E+01  0.56762561798E+00  0.10832976496E+02  0.11479457553E+02  0.17770000000E+01 0. -1.
</event>
<event>
 6    1  0.3365733E-003  0.5038498E+03  0.7546771E-02  0.9391236E-01
        -11   -1    0    0    0    0  0.00000000000E+00  0.00000000000E+00  0.50000000000E+03  0.50000000000E+03  0.00000000000E+00 0. -1.
         11   -1    0    0    0    0 -0.00000000000E+00 -0.00000000000E+00 -0.50000000000E+03  0.50000000000E+03  0.00000000000E+00 0.  1.
        -11    1    1    2    0    0  0.48800329019E+01 -0.59372814345E+01  0.30434657950E+03  0.30444360148E+03  0.00000000000E+00 0. -1.
         11    1    1    2    0    0 -0.25693570967E+01 -0.75335189822E+01 -0.49608630472E+03  0.49615015594E+03  0.00000000000E+00 0.  1.
        -15    1    1    2    0    0 -0.16976892922E+02 -0.14041653551E+02  0.10262848399E+03  0.10498164784E+03  0.17770000000E+01 0. -1.
         15    1    1    2    0    0  0.14666217116E+02  0.27512453968E+02  0.89111241241E+02  0.94424594743E+02  0.17770000000E+01 0.  1.
</event>
<event>
 6    1  0.3365733E-003  0.5016020E+03  0.7546771E-02  0.9396232E-01
        -11   -1    0    0    0    0  0.00000000000E+00  0.00000000000E+00  0.50000000000E+03  0.50000000000E+03  0.00000000000E+00 0.  1.
         11   -1    0    0    0    0 -0.00000000000E+00 -0.00000000000E+00 -0.50000000000E+03  0.50000000000E+03  0.00000000000E+00 0.  1.
        -11    1    1    2    0    0  0.59741286218E+01 -0.37662449571E+01  0.42664656540E+03  0.42670501120E+03  0.00000000000E+00 0.  1.
         11    1    1    2    0    0  0.39674589213E+01  0.90841315156E+01 -0.49829939136E+03  0.49839797914E+03  0.00000000000E+00 0.  1.
        -15    1    1    2    0    0 -0.82412345057E+01 -0.68137726079E+01  0.16958257682E+02  0.20126740321E+02  0.17770000000E+01 0. -1.
         15    1    1    2    0    0 -0.17003530373E+01  0.14958860494E+01  0.54694568279E+02  0.54770269342E+02  0.17770000000E+01 0.  1.
</event>
<event>
 6    1  0.3365733E-003  0.5182190E+03  0.7546771E-02  0.9359941E-01
        -11   -1    0    0    0    0  0.00000000000E+00  0.00000000000E+00  0.50000000000E+03  0.50000000000E+03  0.00000000000E+00 0. -1.
         11   -1    0    0    0    0 -0.00000000000E+00 -0.00000000000E+00 -0.50000000000E+03  0.50000000000E+03  0.00000000000E+00 0.  1.
        -11    1    1    2    0    0 -0.46246025744E+01 -0.21752030607E+02  0.42578990363E+03  0.42637023796E+03  0.00000000000E+00 0. -1.
         11    1    1    2    0    0 -0.11625394554E+02 -0.27678823313E+00 -0.48164064942E+03  0.48178100999E+03  0.00000000000E+00 0.  1.
        -15    1    1    2    0    0  0.86187053173E+01  0.28121882369E+02  0.69200742343E+02  0.75213182482E+02  0.17770000000E+01 0.  1.
         15    1    1    2    0    0  0.76312918109E+01 -0.60930635280E+01 -0.13349996557E+02  0.16635569570E+02  0.17770000000E+01 0. -1.
</event>
<event>
 6    1  0.3365733E-003  0.5019761E+03  0.7546771E-02  0.9395399E-01
        -11   -1    0    0    0    0  0.00000000000E+00  0.00000000000E+00  0.50000000000E+03  0.50000000000E+03  0.00000000000E+00 0.  1.
         11   -1    0    0    0    0 -0.00000000000E+00 -0.00000000000E+00 -0.50000000000E+03  0.50000000000E+03  0.00000000000E+00 0.  1.
        -11    1    1    2    0    0  0.12123736154E+01 -0.51077939851E+01  0.31568156000E+03  0.31572520763E+03  0.00000000000E+00 0.  1.
         11    1    1    2    0    0 -0.38674849394E+01 -0.95132226588E+01 -0.49791805410E+03  0.49802394265E+03  0.00000000000E+00 0.  1.
        -15    1    1    2    0    0 -0.19555344073E+01  0.13506652386E+02  0.22104921832E+02  0.26039183392E+02  0.17770000000E+01 0.  1.
         15    1    1    2    0    0  0.46106457313E+01  0.11143642582E+01  0.16013157227E+03  0.16021166633E+03  0.17770000000E+01 0. -1.
</event>
<event>
 6    1  0.3365733E-003  0.5086084E+03  0.7546771E-02  0.9380751E-01
        -11   -1    0    0    0    0  0.00000000000E+00  0.00000000000E+00  0.50000000000E+03  0.50000000000E+03  0.00000000000E+00 0.  1.
         11   -1    0    0    0    0 -0.00000000000E+00 -0.00000000000E+00 -0.50000000000E+03  0.50000000000E+03  0.00000000000E+00 0. -1.
        -11    1    1    2    0    0 -0.26313845328E+02 -0.22281253035E+02  0.49018037430E+03  0.49139156692E+03  0.00000000000E+00 0.  1.
         11    1    1    2    0    0 -0.81713551016E+01 -0.49081908171E+01 -0.28739117634E+03  0.28754921252E+03  0.00000000000E+00 0. -1.
        -15    1    1    2    0    0  0.42996802496E+02  0.12539600759E+02 -0.19849149452E+03  0.20348955191E+03  0.17770000000E+01 0. -1.
         15    1    1    2    0    0 -0.85116020664E+01  0.14649843093E+02 -0.42977034422E+01  0.17569668644E+02  0.17770000000E+01 0.  1.
</event>
<event>
 6    1  0.3365733E-003  0.5072730E+03  0.7546771E-02  0.9383681E-01
        -11   -1    0    0    0    0  0.00000000000E+00  0.00000000000E+00  0.50000000000E+03  0.50000000000E+03  0.00000000000E+00 0.  1.
         11   -1    0    0    0    0 -0.00000000000E+00 -0.00000000000E+00 -0.50000000000E+03  0.50000000000E+03  0.00000000000E+00 0. -1.
        -11    1    1    2    0    0 -0.15706214472E+02 -0.11481231379E+02  0.25503165598E+03  0.25577265179E+03  0.00000000000E+00 0.  1.
         11    1    1    2    0    0  0.26776507736E+02  0.66174264698E+01 -0.49195441865E+03  0.49272702557E+03  0.00000000000E+00 0. -1.
        -15    1    1    2    0    0  0.20995373642E+02  0.95001959338E+01  0.20389297187E+03  0.20519883319E+03  0.17770000000E+01 0.  1.
         15    1    1    2    0    0 -0.32065666905E+02 -0.46363910248E+01  0.33029790799E+02  0.46301489447E+02  0.17770000000E+01 0. -1.
</event>
<event>
 6    1  0.3365733E-003  0.5105788E+03  0.7546771E-02  0.9376445E-01
        -11   -1    0    0    0    0  0.00000000000E+00  0.00000000000E+00  0.50000000000E+03  0.50000000000E+03  0.00000000000E+00 0. -1.
         11   -1    0    0    0    0 -0.00000000000E+00 -0.00000000000E+00 -0.50000000000E+03  0.50000000000E+03  0.00000000000E+00 0. -1.
        -11    1    1    2    0    0  0.86196164758E+01  0.22828431726E+01  0.48933996645E+03  0.48942120093E+03  0.00000000000E+00 0. -1.
         11    1    1    2    0    0 -0.97351227809E+01  0.92161905324E+01 -0.44820507696E+03  0.44840551045E+03  0.00000000000E+00 0. -1.
        -15    1    1    2    0    0  0.11489326802E+02 -0.12359447401E+02 -0.47087223615E+02  0.50051223034E+02  0.17770000000E+01 0. -1.
         15    1    1    2    0    0 -0.10373820496E+02  0.86041369618E+00  0.59523341344E+01  0.12122065586E+02  0.17770000000E+01 0.  1.
</event>
<event>
 6    1  0.3365733E-003  0.5102870E+03  0.7546771E-02  0.9377081E-01
        -11   -1    0    0    0    0  0.00000000000E+00  0.00000000000E+00  0.50000000000E+03  0.50000000000E+03  0.00000000000E+00 0. -1.
         11   -1    0    0    0    0 -0.00000000000E+00 -0.00000000000E+00 -0.50000000000E+03  0.50000000000E+03  0.00000000000E+00 0. -1.
        -11    1    1    2    0    0  0.99104066220E+01  0.20258163353E+01  0.47242728658E+03  0.47253556606E+03  0.00000000000E+00 0. -1.
         11    1    1    2    0    0  0.57333860262E+01  0.11490728622E+02 -0.48954460096E+03  0.48971300257E+03  0.00000000000E+00 0. -1.
        -15    1    1    2    0    0  0.14392572983E+01 -0.36541009930E+01 -0.59505094812E+01  0.73478029181E+01  0.17770000000E+01 0.  1.
         15    1    1    2    0    0 -0.17083049946E+02 -0.98624439647E+01  0.23067823860E+02  0.30403628452E+02  0.17770000000E+01 0. -1.
</event>
<event>
 6    1  0.3365733E-003  0.5006651E+03  0.7546771E-02  0.9398323E-01
        -11   -1    0    0    0    0  0.00000000000E+00  0.00000000000E+00  0.50000000000E+03  0.50000000000E+03  0.00000000000E+00 0. -1.
         11   -1    0    0    0    0 -0.00000000000E+00 -0.00000000000E+00 -0.50000000000E+03  0.50000000000E+03  0.00000000000E+00 0. -1.
        -11    1    1    2    0    0 -0.13563966077E+01  0.10043346792E+02  0.49923206162E+03  0.49933491764E+03  0.00000000000E+00 0. -1.
         11    1    1    2    0    0  0.36064234562E+01  0.26535453836E+01 -0.19499620943E+03  0.19504760774E+03  0.00000000000E+00 0. -1.
        -15    1    1    2    0    0  0.53287029278E+01 -0.15157529076E+02 -0.10713721259E+03  0.10834983070E+03  0.17770000000E+01 0.  1.
         15    1    1    2    0    0 -0.75787297763E+01  0.24606369013E+01 -0.19709863959E+03  0.19726764392E+03  0.17770000000E+01 0. -1.
</event>
<event>
 6    1  0.3365733E-003  0.5025623E+03  0.7546771E-02  0.9394095E-01
        -11   -1    0    0    0    0  0.00000000000E+00  0.00000000000E+00  0.50000000000E+03  0.50000000000E+03  0.00000000000E+00 0. -1.
         11   -1    0    0    0    0 -0.00000000000E+00 -0.00000000000E+00 -0.50000000000E+03  0.50000000000E+03  0.00000000000E+00 0. -1.
        -11    1    1    2    0    0 -0.85690190233E+01  0.43165674778E+01  0.49734513184E+03  0.49743767550E+03  0.00000000000E+00 0. -1.
         11    1    1    2    0    0  0.31521513214E+01 -0.69857966715E+01 -0.45619043194E+03  0.45625480557E+03  0.00000000000E+00 0. -1.
        -15    1    1    2    0    0 -0.68618580699E+01 -0.12240644008E+01 -0.22081425729E+02  0.23223490717E+02  0.17770000000E+01 0. -1.
         15    1    1    2    0    0  0.12278725772E+02  0.38932935945E+01 -0.19073274179E+02  0.23084028212E+02  0.17770000000E+01 0.  1.
</event>
<event>
 6    1  0.3365733E-003  0.5090943E+03  0.7546771E-02  0.9379687E-01
        -11   -1    0    0    0    0  0.00000000000E+00  0.00000000000E+00  0.50000000000E+03  0.50000000000E+03  0.00000000000E+00 0.  1.
         11   -1    0    0    0    0 -0.00000000000E+00 -0.00000000000E+00 -0.50000000000E+03  0.50000000000E+03  0.00000000000E+00 0.  1.
        -11    1    1    2    0    0 -0.93786333302E+01 -0.31720030487E+01  0.49080589501E+03  0.49090574140E+03  0.00000000000E+00 0.  1.
         11    1    1    2    0    0  0.57304556594E+01 -0.12060836421E+01 -0.31509861525E+03  0.31515302647E+03  0.00000000000E+00 0.  1.
        -15    1    1    2    0    0  0.20254230824E+02 -0.34271326790E+02 -0.79659140325E+02  0.89070163762E+02  0.17770000000E+01 0. -1.
         15    1    1    2    0    0 -0.16606053154E+02  0.38649413481E+02 -0.96048139430E+02  0.10487106837E+03  0.17770000000E+01 0.  1.
</event>
<event>
 6    1  0.3365733E-003  0.5201590E+03  0.7546771E-02  0.9355799E-01
        -11   -1    0    0    0    0  0.00000000000E+00  0.00000000000E+00  0.50000000000E+03  0.50000000000E+03  0.00000000000E+00 0.  1.
         11   -1    0    0    0    0 -0.00000000000E+00 -0.00000000000E+00 -0.50000000000E+03  0.50000000000E+03  0.00000000000E+00 0. -1.
        -11    1    1    2    0    0 -0.21709806702E+02 -0.41209470845E+00  0.47934945708E+03  0.47984100234E+03  0.00000000000E+00 0.  1.
         11    1    1    2    0    0  0.13486749142E+02  0.54372961871E+01 -0.47314804979E+03  0.47337145415E+03  0.00000000000E+00 0. -1.
        -15    1    1    2    0    0 -0.91350905701E+01 -0.17691708072E+02 -0.13388739681E+02  0.24059561373E+02  0.17770000000E+01 0. -1.
         15    1    1    2    0    0  0.17358148129E+02  0.12666506593E+02  0.71873323880E+01  0.22727982128E+02  0.17770000000E+01 0.  1.
</event>
<event>
 6    1  0.3365733E-003  0.5153025E+03  0.7546771E-02  0.9366205E-01
        -11   -1    0    0    0    0  0.00000000000E+00  0.00000000000E+00  0.50000000000E+03  0.50000000000E+03  0.00000000000E+00 0.  1.
         11   -1    0    0    0    0 -0.00000000000E+00 -0.00000000000E+00 -0.50000000000E+03  0.50000000000E+03  0.00000000000E+00 0. -1.
        -11    1    1    2    0    0  0.36189969722E+01  0.12832367644E+02  0.48451404208E+03  0.48469745592E+03  0.00000000000E+00 0.  1.
         11    1    1    2    0    0 -0.10955511037E+02  0.61948612855E+01 -0.42524298241E+03  0.42542918755E+03  0.00000000000E+00 0. -1.
        -15    1    1    2    0    0  0.95613646907E+01 -0.12180301209E+02 -0.72797637959E+02  0.74447520131E+02  0.17770000000E+01 0. -1.
         15    1    1    2    0    0 -0.22248506261E+01 -0.68469277201E+01  0.13526578288E+02  0.15425836402E+02  0.17770000000E+01 0.  1.
</event>
<event>
 6    1  0.3365733E-003  0.5067903E+03  0.7546771E-02  0.9384743E-01
        -11   -1    0    0    0    0  0.00000000000E+00  0.00000000000E+00  0.50000000000E+03  0.50000000000E+03  0.00000000000E+00 0. -1.
         11   -1    0    0    0    0 -0.00000000000E+00 -0.00000000000E+00 -0.50000000000E+03  0.50000000000E+03  0.00000000000E+00 0. -1.
        -11    1    1    2    0    0 -0.13508784377E+01  0.13944684498E+02  0.49301066993E+03  0.49320969147E+03  0.00000000000E+00 0. -1.
         11    1    1    2    0    0 -0.98968450396E+01  0.22126411728E+01 -0.46875898598E+03  0.46886867058E+03  0.00000000000E+00 0. -1.
        -15    1    1    2    0    0  0.17129508572E+02 -0.12597371794E+02 -0.21543739583E+02  0.30321680103E+02  0.17770000000E+01 0.  1.
         15    1    1    2    0    0 -0.58817850947E+01 -0.35599538773E+01 -0.27079443692E+01  0.75999578430E+01  0.17770000000E+01 0. -1.
</event>
<event>
 6    1  0.3365733E-003  0.5176116E+03  0.7546771E-02  0.9361242E-01
        -11   -1    0    0    0    0  0.00000000000E+00  0.00000000000E+00  0.50000000000E+03  0.50000000000E+03  0.00000000000E+00 0.  1.
         11   -1    0    0    0    0 -0.00000000000E+00 -0.00000000000E+00 -0.50000000000E+03  0.50000000000E+03  0.00000000000E+00 0. -1.
        -11    1    1    2    0    0 -0.30146283406E+02  0.14765671307E+02  0.48121905997E+03  0.48238844009E+03  0.00000000000E+00 0.  1.
         11    1    1    2    0    0  0.98363985928E+01  0.51697588829E+01 -0.44237294487E+03  0.44251248965E+03  0.00000000000E+00 0. -1.
        -15    1    1    2    0    0  0.27698353440E+02  0.10717809804E+02 -0.30113955502E+02  0.42332945506E+02  0.17770000000E+01 0.  1.
         15    1    1    2    0    0 -0.73884686271E+01 -0.30653239993E+02 -0.87321595980E+01  0.32766124748E+02  0.17770000000E+01 0. -1.
</event>
<event>
 6    1  0.3365733E-003  0.5168178E+03  0.7546771E-02  0.9362945E-01
        -11   -1    0    0    0    0  0.00000000000E+00  0.00000000000E+00  0.50000000000E+03  0.50000000000E+03  0.00000000000E+00 0. -1.
         11   -1    0    0    0    0 -0.00000000000E+00 -0.00000000000E+00 -0.50000000000E+03  0.50000000000E+03  0.00000000000E+00 0.  1.
        -11    1    1    2    0    0 -0.28958232087E+02 -0.12174768713E+02  0.37646043868E+03  0.37776879978E+03  0.00000000000E+00 0. -1.
         11    1    1    2    0    0  0.84378633456E+01  0.11086109670E+02 -0.48298125974E+03  0.48318215677E+03  0.00000000000E+00 0.  1.
        -15    1    1    2    0    0  0.18919934630E+02  0.20221875310E+02  0.11476956107E+03  0.11807666173E+03  0.17770000000E+01 0.  1.
         15    1    1    2    0    0  0.16004341119E+01 -0.19133216268E+02 -0.82487400143E+01  0.20972381718E+02  0.17770000000E+01 0. -1.
</event>
<event>
 6    1  0.3365733E-003  0.5024922E+03  0.7546771E-02  0.9394250E-01
        -11   -1    0    0    0    0  0.00000000000E+00  0.00000000000E+00  0.50000000000E+03  0.50000000000E+03  0.00000000000E+00 0. -1.
         11   -1    0    0    0    0 -0.00000000000E+00 -0.00000000000E+00 -0.50000000000E+03  0.50000000000E+03  0.00000000000E+00 0.  1.
        -11    1    1    2    0    0  0.50215671056E+01  0.86987858225E+01  0.49740635425E+03  0.49750775497E+03  0.00000000000E+00 0. -1.
         11    1    1    2    0    0  0.28550851484E+00  0.68249346419E+01 -0.41644676211E+03  0.41650278141E+03  0.00000000000E+00 0.  1.
        -15    1    1    2    0    0 -0.55801258539E+01 -0.16054155549E+02 -0.82056880868E+02  0.83817439365E+02  0.17770000000E+01 0.  1.
         15    1    1    2    0    0  0.27305023342E+00  0.53043508457E+00  0.10972887318E+01  0.21720242563E+01  0.17770000000E+01 0. -1.
</event>
<event>
 6    1  0.3365733E-003  0.4429644E+03  0.7546771E-02  0.9537335E-01
        -11   -1    0    0    0    0  0.00000000000E+00  0.00000000000E+00  0.50000000000E+03  0.50000000000E+03  0.00000000000E+00 0. -1.
         11   -1    0    0    0    0 -0.00000000000E+00 -0.00000000000E+00 -0.50000000000E+03  0.50000000000E+03  0.00000000000E+00 0.  1.
        -11    1    1    2    0    0 -0.12610999785E+02  0.31232580079E+01  0.41755755004E+03  0.41775961946E+03  0.00000000000E+00 0. -1.
         11    1    1    2    0    0  0.25348574362E+02 -0.91297269667E+02 -0.46429351296E+03  0.47386306867E+03  0.00000000000E+00 0.  1.
        -15    1    1    2    0    0  0.90969891806E+01  0.18877975290E+02  0.24685760192E+02  0.32429579838E+02  0.17770000000E+01 0. -1.
         15    1    1    2    0    0 -0.21834563757E+02  0.69296036369E+02  0.22050202734E+02  0.75947732030E+02  0.17770000000E+01 0.  1.
</event>
<event>
 6    1  0.3365733E-003  0.4441624E+03  0.7546771E-02  0.9534223E-01
        -11   -1    0    0    0    0  0.00000000000E+00  0.00000000000E+00  0.50000000000E+03  0.50000000000E+03  0.00000000000E+00 0.  1.
         11   -1    0    0    0    0 -0.00000000000E+00 -0.00000000000E+00 -0.50000000000E+03  0.50000000000E+03  0.00000000000E+00 0. -1.
        -11    1    1    2    0    0 -0.65488204170E+01  0.81124309680E+01  0.43708774433E+03  0.43721207077E+03  0.00000000000E+00 0.  1.
         11    1    1    2    0    0 -0.22934602505E+02  0.85029996822E+01 -0.45120670418E+03  0.45186921436E+03  0.00000000000E+00 0. -1.
        -15    1    1    2    0    0  0.25332240117E+02 -0.21224521072E+01 -0.44001813494E+02  0.50848249842E+02  0.17770000000E+01 0.  1.
         15    1    1    2    0    0  0.41511828043E+01 -0.14492978543E+02  0.58120773340E+02  0.60070465025E+02  0.17770000000E+01 0.  1.
</event>
<event>
 6    1  0.3365733E-003  0.4863627E+03  0.7546771E-02  0.9430852E-01
        -11   -1    0    0    0    0  0.00000000000E+00  0.00000000000E+00  0.50000000000E+03  0.50000000000E+03  0.00000000000E+00 0. -1.
         11   -1    0    0    0    0 -0.00000000000E+00 -0.00000000000E+00 -0.50000000000E+03  0.50000000000E+03  0.00000000000E+00 0. -1.
        -11    1    1    2    0    0 -0.44490110358E+01  0.64662607351E+01  0.48942700524E+03  0.48948993829E+03  0.00000000000E+00 0. -1.
         11    1    1    2    0    0  0.58455236429E+01  0.61976338181E+01 -0.48326337940E+03  0.48333846804E+03  0.00000000000E+00 0. -1.
        -15    1    1    2    0    0  0.59662240188E+01 -0.72282617801E+01  0.64289372718E+01  0.11503589042E+02  0.17770000000E+01 0. -1.
         15    1    1    2    0    0 -0.73627366259E+01 -0.54356327732E+01 -0.12592563112E+02  0.15668004627E+02  0.17770000000E+01 0. -1.
</event>
<event>
 6    1  0.3365733E-003  0.5015773E+03  0.7546771E-02  0.9396287E-01
        -11   -1    0    0    0    0  0.00000000000E+00  0.00000000000E+00  0.50000000000E+03  0.50000000000E+03  0.00000000000E+00 0. -1.
         11   -1    0    0    0    0 -0.00000000000E+00 -0.00000000000E+00 -0.50000000000E+03  0.50000000000E+03  0.00000000000E+00 0. -1.
        -11    1    1    2    0    0 -0.92743828304E+01 -0.46246759713E+01  0.49831490562E+03  0.49842265896E+03  0.00000000000E+00 0. -1.
         11    1    1    2    0    0 -0.42459152526E+01  0.11585637756E+01 -0.20416288680E+03  0.20421031906E+03  0.00000000000E+00 0. -1.
        -15    1    1    2    0    0  0.33968815805E+01  0.29709117397E+01 -0.23602206758E+01  0.53938383064E+01  0.17770000000E+01 0.  1.
         15    1    1    2    0    0  0.10123416503E+02  0.49520045602E+00 -0.29179179815E+03  0.29197318367E+03  0.17770000000E+01 0. -1.
</event>
<event>
 6    1  0.3365733E-003  0.5095259E+03  0.7546771E-02  0.9378743E-01
        -11   -1    0    0    0    0  0.00000000000E+00  0.00000000000E+00  0.50000000000E+03  0.50000000000E+03  0.00000000000E+00 0.  1.
         11   -1    0    0    0    0 -0.00000000000E+00 -0.00000000000E+00 -0.50000000000E+03  0.50000000000E+03  0.00000000000E+00 0. -1.
        -11    1    1    2    0    0 -0.14891678499E+02 -0.15167283016E+02  0.38684220204E+03  0.38742573204E+03  0.00000000000E+00 0.  1.
         11    1    1    2    0    0  0.63468820556E+01  0.59286473784E+01 -0.49039718666E+03  0.49047408949E+03  0.00000000000E+00 0. -1.
        -15    1    1    2    0    0  0.14721767442E+02  0.32863737033E+02  0.81616369899E+02  0.89225249861E+02  0.17770000000E+01 0.  1.
         15    1    1    2    0    0 -0.61769709985E+01 -0.23625101396E+02  0.21938614721E+02  0.32874928617E+02  0.17770000000E+01 0. -1.
</event>
<event>
 6    1  0.3365733E-003  0.5058871E+03  0.7546771E-02  0.9386732E-01
        -11   -1    0    0    0    0  0.00000000000E+00  0.00000000000E+00  0.50000000000E+03  0.50000000000E+03  0.00000000000E+00 0.  1.
         11   -1    0    0    0    0 -0.00000000000E+00 -0.00000000000E+00 -0.50000000000E+03  0.50000000000E+03  0.00000000000E+00 0. -1.
        -11    1    1    2    0    0  0.70848747540E+01  0.14268585765E+00  0.44131957894E+03  0.44137646807E+03  0.00000000000E+00 0.  1.
         11    1    1    2    0    0  0.30206766249E+01  0.14030974633E+02 -0.49390443833E+03  0.49411292933E+03  0.00000000000E+00 0. -1.
        -15    1    1    2    0    0 -0.54748368058E+01 -0.10412688296E+02  0.34657194878E+00  0.11902762566E+02  0.17770000000E+01 0. -1.
         15    1    1    2    0    0 -0.46307145731E+01 -0.37609721949E+01  0.52238287434E+02  0.52607840027E+02  0.17770000000E+01 0.  1.
</event>
<event>
 6    1  0.3365733E-003  0.5057048E+03  0.7546771E-02  0.9387135E-01
        -11   -1    0    0    0    0  0.00000000000E+00  0.00000000000E+00  0.50000000000E+03  0.50000000000E+03  0.00000000000E+00 0. -1.
         11   -1    0    0    0    0 -0.00000000000E+00 -0.00000000000E+00 -0.50000000000E+03  0.50000000000E+03  0.00000000000E+00 0. -1.
        -11    1    1    2    0    0 -0.61419026143E+01 -0.16814624519E+01  0.44191785132E+03  0.44196372883E+03  0.00000000000E+00 0. -1.
         11    1    1    2    0    0 -0.60803394180E+01  0.42788082576E+01 -0.49423930044E+03  0.49429522032E+03  0.00000000000E+00 0. -1.
        -15    1    1    2    0    0  0.15155258826E+02 -0.15174975980E+02  0.41698609572E+02  0.46924338411E+02  0.17770000000E+01 0.  1.
         15    1    1    2    0    0 -0.29330167939E+01  0.12577630174E+02  0.10622839548E+02  0.16816712443E+02  0.17770000000E+01 0. -1.
</event>
<event>
 6    1  0.3365733E-003  0.4881425E+03  0.7546771E-02  0.9426740E-01
        -11   -1    0    0    0    0  0.00000000000E+00  0.00000000000E+00  0.50000000000E+03  0.50000000000E+03  0.00000000000E+00 0.  1.
         11   -1    0    0    0    0 -0.00000000000E+00 -0.00000000000E+00 -0.50000000000E+03  0.50000000000E+03  0.00000000000E+00 0.  1.
        -11    1    1    2    0    0 -0.56208127404E+01  0.63080898006E+01  0.48831209542E+03  0.48838518412E+03  0.00000000000E+00 0.  1.
         11    1    1    2    0    0  0.12024272543E+02  0.53778739647E+01 -0.48781315207E+03  0.48799095893E+03  0.00000000000E+00 0.  1.
        -15    1    1    2    0    0 -0.10493756096E+02 -0.14115800124E+02  0.22958287183E+01  0.17827038134E+02  0.17770000000E+01 0. -1.
         15    1    1    2    0    0  0.40902962930E+01  0.24298363583E+01 -0.27947720668E+01  0.57968188171E+01  0.17770000000E+01 0.  1.
</event>
<event>
 6    1  0.3365733E-003  0.5040125E+03  0.7546771E-02  0.9390876E-01
        -11   -1    0    0    0    0  0.00000000000E+00  0.00000000000E+00  0.50000000000E+03  0.50000000000E+03  0.00000000000E+00 0. -1.
         11   -1    0    0    0    0 -0.00000000000E+00 -0.00000000000E+00 -0.50000000000E+03  0.50000000000E+03  0.00000000000E+00 0. -1.
        -11    1    1    2    0    0  0.92956746522E+01 -0.23021082509E+01  0.46712699593E+03  0.46722514872E+03  0.00000000000E+00 0. -1.
         11    1    1    2    0    0  0.62571925640E+01 -0.32914558086E+01 -0.49593709652E+03  0.49598748961E+03  0.00000000000E+00 0. -1.
        -15    1    1    2    0    0 -0.12744153412E+01  0.16279611142E+01  0.18374971880E+02  0.18576105955E+02  0.17770000000E+01 0.  1.
         15    1    1    2    0    0 -0.14278451875E+02  0.39656029453E+01  0.10435128716E+02  0.18211255723E+02  0.17770000000E+01 0. -1.
</event>
<event>
 6    1  0.3365733E-003  0.5006146E+03  0.7546771E-02  0.9398436E-01
        -11   -1    0    0    0    0  0.00000000000E+00  0.00000000000E+00  0.50000000000E+03  0.50000000000E+03  0.00000000000E+00 0. -1.
         11   -1    0    0    0    0 -0.00000000000E+00 -0.00000000000E+00 -0.50000000000E+03  0.50000000000E+03  0.00000000000E+00 0.  1.
        -11    1    1    2    0    0  0.30688712240E+01  0.87468121963E+01  0.44476685929E+03  0.44486344401E+03  0.00000000000E+00 0. -1.
         11    1    1    2    0    0 -0.37019895922E+01 -0.73992416268E+01 -0.49931687121E+03  0.49938541366E+03  0.00000000000E+00 0.  1.
        -15    1    1    2    0    0  0.68901854596E+00  0.13491683259E+01  0.19227425128E+01  0.30248420618E+01  0.17770000000E+01 0.  1.
         15    1    1    2    0    0 -0.55900177773E-01 -0.26967388954E+01  0.52627269410E+02  0.52726300269E+02  0.17770000000E+01 0. -1.
</event>
<event>
 6    1  0.3365733E-003  0.5024056E+03  0.7546771E-02  0.9394443E-01
        -11   -1    0    0    0    0  0.00000000000E+00  0.00000000000E+00  0.50000000000E+03  0.50000000000E+03  0.00000000000E+00 0. -1.
         11   -1    0    0    0    0 -0.00000000000E+00 -0.00000000000E+00 -0.50000000000E+03  0.50000000000E+03  0.00000000000E+00 0.  1.
        -11    1    1    2    0    0 -0.67646324031E+01 -0.34417306326E+01  0.49753654033E+03  0.49759442795E+03  0.00000000000E+00 0. -1.
         11    1    1    2    0    0  0.56477999878E+01 -0.21994616990E+01 -0.22229810752E+03  0.22238071833E+03  0.00000000000E+00 0.  1.
        -15    1    1    2    0    0  0.52514916967E+01  0.11914129526E+00 -0.27223906187E+03  0.27229553227E+03  0.17770000000E+01 0.  1.
         15    1    1    2    0    0 -0.41346592815E+01  0.55220510363E+01 -0.29993709456E+01  0.77293214509E+01  0.17770000000E+01 0. -1.
</event>
<event>
 6    1  0.3365733E-003  0.5106176E+03  0.7546771E-02  0.9376361E-01
        -11   -1    0    0    0    0  0.00000000000E+00  0.00000000000E+00  0.50000000000E+03  0.50000000000E+03  0.00000000000E+00 0.  1.
         11   -1    0    0    0    0 -0.00000000000E+00 -0.00000000000E+00 -0.50000000000E+03  0.50000000000E+03  0.00000000000E+00 0.  1.
        -11    1    1    2    0    0  0.93076109260E+01 -0.73376522833E+01  0.48923889303E+03  0.48938243452E+03  0.00000000000E+00 0.  1.
         11    1    1    2    0    0 -0.75068875920E+01 -0.10507165023E+02 -0.45193341145E+03  0.45211786324E+03  0.00000000000E+00 0.  1.
        -15    1    1    2    0    0  0.41363407481E+01 -0.73004682678E+01 -0.30555957546E+02  0.31736893709E+02  0.17770000000E+01 0.  1.
         15    1    1    2    0    0 -0.59370640820E+01  0.25145285574E+02 -0.67495240411E+01  0.26762808528E+02  0.17770000000E+01 0. -1.
</event>
<event>
 6    1  0.3365733E-003  0.5040925E+03  0.7546771E-02  0.9390699E-01
        -11   -1    0    0    0    0  0.00000000000E+00  0.00000000000E+00  0.50000000000E+03  0.50000000000E+03  0.00000000000E+00 0. -1.
         11   -1    0    0    0    0 -0.00000000000E+00 -0.00000000000E+00 -0.50000000000E+03  0.50000000000E+03  0.00000000000E+00 0.  1.
        -11    1    1    2    0    0  0.71413147158E+01  0.17423769082E+01  0.49585304530E+03  0.49590752847E+03  0.00000000000E+00 0. -1.
         11    1    1    2    0    0 -0.43270512940E+01 -0.67589598826E+01 -0.23539918190E+03  0.23553594577E+03  0.00000000000E+00 0.  1.
        -15    1    1    2    0    0 -0.70714749739E+01  0.16612533289E+01  0.54249566609E+00  0.74978364531E+01  0.17770000000E+01 0. -1.
         15    1    1    2    0    0  0.42572115522E+01  0.33553296455E+01 -0.26099635907E+03  0.26105868931E+03  0.17770000000E+01 0.  1.
</event>
<event>
 6    1  0.3365733E-003  0.5021572E+03  0.7546771E-02  0.9394996E-01
        -11   -1    0    0    0    0  0.00000000000E+00  0.00000000000E+00  0.50000000000E+03  0.50000000000E+03  0.00000000000E+00 0. -1.
         11   -1    0    0    0    0 -0.00000000000E+00 -0.00000000000E+00 -0.50000000000E+03  0.50000000000E+03  0.00000000000E+00 0.  1.
        -11    1    1    2    0    0  0.65315911082E+01 -0.18244131388E+01  0.49779658218E+03  0.49784277377E+03  0.00000000000E+00 0. -1.
         11    1    1    2    0    0 -0.62132815717E+01 -0.22885092534E+01 -0.39936542805E+03  0.39942031404E+03  0.00000000000E+00 0.  1.
        -15    1    1    2    0    0  0.10296193521E+02  0.68623157586E+01 -0.81721892890E+02  0.82672416713E+02  0.17770000000E+01 0.  1.
         15    1    1    2    0    0 -0.10614503057E+02 -0.27493933664E+01 -0.16709261231E+02  0.20064495481E+02  0.17770000000E+01 0. -1.
</event>
<event>
 6    1  0.3365733E-003  0.5743388E+03  0.7546771E-02  0.9247295E-01
        -11   -1    0    0    0    0  0.00000000000E+00  0.00000000000E+00  0.50000000000E+03  0.50000000000E+03  0.00000000000E+00 0. -1.
         11   -1    0    0    0    0 -0.00000000000E+00 -0.00000000000E+00 -0.50000000000E+03  0.50000000000E+03  0.00000000000E+00 0. -1.
        -11    1    1    2    0    0  0.12203445344E+02  0.42531764231E+01  0.42546499412E+03  0.42566122071E+03  0.00000000000E+00 0. -1.
         11    1    1    2    0    0 -0.38401908787E+01 -0.37706734452E+02 -0.37834862077E+03  0.38024232238E+03  0.00000000000E+00 0. -1.
        -15    1    1    2    0    0 -0.17875695408E+02 -0.41271871040E+01  0.69129319416E+02  0.71544354715E+02  0.17770000000E+01 0. -1.
         15    1    1    2    0    0  0.95124409429E+01  0.37580745133E+02 -0.11624569277E+03  0.12255210220E+03  0.17770000000E+01 0. -1.
</event>
<event>
 6    1  0.3365733E-003  0.5017314E+03  0.7546771E-02  0.9395944E-01
        -11   -1    0    0    0    0  0.00000000000E+00  0.00000000000E+00  0.50000000000E+03  0.50000000000E+03  0.00000000000E+00 0. -1.
         11   -1    0    0    0    0 -0.00000000000E+00 -0.00000000000E+00 -0.50000000000E+03  0.50000000000E+03  0.00000000000E+00 0. -1.
        -11    1    1    2    0    0  0.77995993006E+01  0.94667959833E+01  0.47907275765E+03  0.47922975816E+03  0.00000000000E+00 0. -1.
         11    1    1    2    0    0 -0.62215089496E+01 -0.90459710129E+01 -0.49814760047E+03  0.49826857077E+03  0.00000000000E+00 0. -1.
        -15    1    1    2    0    0  0.24348457202E+01  0.41648796846E+01  0.55732321586E+01  0.75824364265E+01  0.17770000000E+01 0. -1.
         15    1    1    2    0    0 -0.40129360712E+01 -0.45857046550E+01  0.13501610657E+02  0.14919234646E+02  0.17770000000E+01 0. -1.
</event>
<event>
 6    1  0.3633689E-003  0.5025248E+03  0.7546771E-02  0.9394178E-01
        -11   -1    0    0    0    0  0.00000000000E+00  0.00000000000E+00  0.50000000000E+03  0.50000000000E+03  0.00000000000E+00 0.  1.
         11   -1    0    0    0    0 -0.00000000000E+00 -0.00000000000E+00 -0.50000000000E+03  0.50000000000E+03  0.00000000000E+00 0. -1.
        -11    1    1    2    0    0  0.33534837861E+01 -0.73829560019E+01  0.49740915415E+03  0.49747524615E+03  0.00000000000E+00 0.  1.
         11    1    1    2    0    0 -0.20222165065E+00  0.15251283785E+02 -0.30666043647E+03  0.30703951838E+03  0.00000000000E+00 0. -1.
        -15    1    1    2    0    0 -0.20011296261E+01 -0.90047777101E+01 -0.19236205039E+03  0.19259129446E+03  0.17770000000E+01 0. -1.
         15    1    1    2    0    0 -0.11501325093E+01  0.11364499268E+01  0.16133327019E+01  0.28939410209E+01  0.17770000000E+01 0.  1.
</event>
<event>
 6    1  0.3365733E-003  0.5035317E+03  0.7546771E-02  0.9391942E-01
        -11   -1    0    0    0    0  0.00000000000E+00  0.00000000000E+00  0.50000000000E+03  0.50000000000E+03  0.00000000000E+00 0. -1.
         11   -1    0    0    0    0 -0.00000000000E+00 -0.00000000000E+00 -0.50000000000E+03  0.50000000000E+03  0.00000000000E+00 0.  1.
        -11    1    1    2    0    0  0.69104209725E+01  0.77133828711E+00  0.47911330609E+03  0.47916376006E+03  0.00000000000E+00 0. -1.
         11    1    1    2    0    0 -0.82621070064E+01 -0.59985879851E+01 -0.49636331477E+03  0.49646831291E+03  0.00000000000E+00 0.  1.
        -15    1    1    2    0    0  0.55582614052E+01  0.19357260798E+01 -0.77924389930E-01  0.61485857329E+01  0.17770000000E+01 0. -1.
         15    1    1    2    0    0 -0.42065753713E+01  0.32915236182E+01  0.17327933072E+02  0.18219341306E+02  0.17770000000E+01 0.  1.
</event>
<event>
 6    1  0.3365733E-003  0.5017753E+03  0.7546771E-02  0.9395846E-01
        -11   -1    0    0    0    0  0.00000000000E+00  0.00000000000E+00  0.50000000000E+03  0.50000000000E+03  0.00000000000E+00 0. -1.
         11   -1    0    0    0    0 -0.00000000000E+00 -0.00000000000E+00 -0.50000000000E+03  0.50000000000E+03  0.00000000000E+00 0.  1.
        -11    1    1    2    0    0  0.47847803162E+01  0.76266216908E+01  0.49814336882E+03  0.49822472378E+03  0.00000000000E+00 0. -1.
         11    1    1    2    0    0 -0.15616687574E+01 -0.74804858359E+01 -0.44043642300E+03  0.44050271189E+03  0.00000000000E+00 0.  1.
        -15    1    1    2    0    0 -0.54548007998E+01 -0.56942682846E+01 -0.87207038186E+01  0.11890666388E+02  0.17770000000E+01 0. -1.
         15    1    1    2    0    0  0.22316892410E+01  0.55481324297E+01 -0.48986242002E+02  0.49381897946E+02  0.17770000000E+01 0.  1.
</event>
<event>
 6    1  0.3365733E-003  0.5009930E+03  0.7546771E-02  0.9397591E-01
        -11   -1    0    0    0    0  0.00000000000E+00  0.00000000000E+00  0.50000000000E+03  0.50000000000E+03  0.00000000000E+00 0.  1.
         11   -1    0    0    0    0 -0.00000000000E+00 -0.00000000000E+00 -0.50000000000E+03  0.50000000000E+03  0.00000000000E+00 0. -1.
        -11    1    1    2    0    0 -0.41484591513E+01 -0.54294734644E+01  0.49896026383E+03  0.49900704782E+03  0.00000000000E+00 0.  1.
         11    1    1    2    0    0 -0.25727631474E+01  0.87251464597E+01 -0.27414871043E+03  0.27429958571E+03  0.00000000000E+00 0. -1.
        -15    1    1    2    0    0 -0.28799036392E+01 -0.58152860550E+01 -0.19691929293E+03  0.19703420276E+03  0.17770000000E+01 0. -1.
         15    1    1    2    0    0  0.96011259378E+01  0.25196130597E+01 -0.27892260468E+02  0.29659163715E+02  0.17770000000E+01 0.  1.
</event>
<event>
 6    1  0.3365733E-003  0.5114572E+03  0.7546771E-02  0.9374532E-01
        -11   -1    0    0    0    0  0.00000000000E+00  0.00000000000E+00  0.50000000000E+03  0.50000000000E+03  0.00000000000E+00 0. -1.
         11   -1    0    0    0    0 -0.00000000000E+00 -0.00000000000E+00 -0.50000000000E+03  0.50000000000E+03  0.00000000000E+00 0. -1.
        -11    1    1    2    0    0 -0.20377455652E+02  0.11044190710E+01  0.42001575914E+03  0.42051123453E+03  0.00000000000E+00 0. -1.
         11    1    1    2    0    0 -0.60062222626E+01 -0.55905136018E+01 -0.48847388064E+03  0.48854279302E+03  0.00000000000E+00 0. -1.
        -15    1    1    2    0    0  0.17769714521E+02 -0.12741220751E+01 -0.34840761681E+01  0.18239590373E+02  0.17770000000E+01 0. -1.
         15    1    1    2    0    0  0.86139633939E+01  0.57602166059E+01  0.71942197663E+02  0.72706382074E+02  0.17770000000E+01 0.  1.
</event>
<event>
 6    1  0.3365733E-003  0.5074288E+03  0.7546771E-02  0.9383339E-01
        -11   -1    0    0    0    0  0.00000000000E+00  0.00000000000E+00  0.50000000000E+03  0.50000000000E+03  0.00000000000E+00 0.  1.
         11   -1    0    0    0    0 -0.00000000000E+00 -0.00000000000E+00 -0.50000000000E+03  0.50000000000E+03  0.00000000000E+00 0. -1.
        -11    1    1    2    0    0 -0.25873999318E+02 -0.36326321832E+02  0.49054802675E+03  0.49257124566E+03  0.00000000000E+00 0.  1.
         11    1    1    2    0    0  0.86224202457E+01  0.56465963090E-02 -0.25459227339E+03  0.25473824179E+03  0.00000000000E+00 0. -1.
        -15    1    1    2    0    0  0.19919876355E+02  0.78950354558E+01 -0.79908528198E+01  0.22937840278E+02  0.17770000000E+01 0.  1.
         15    1    1    2    0    0 -0.26682972826E+01  0.28425639780E+02 -0.22796490054E+03  0.22975267227E+03  0.17770000000E+01 0. -1.
</event>
<event>
 6    1  0.3365733E-003  0.5003993E+03  0.7546771E-02  0.9398917E-01
        -11   -1    0    0    0    0  0.00000000000E+00  0.00000000000E+00  0.50000000000E+03  0.50000000000E+03  0.00000000000E+00 0. -1.
         11   -1    0    0    0    0 -0.00000000000E+00 -0.00000000000E+00 -0.50000000000E+03  0.50000000000E+03  0.00000000000E+00 0. -1.
        -11    1    1    2    0    0  0.47160862679E+00 -0.15652951155E+01  0.10537016368E+03  0.10538284470E+03  0.00000000000E+00 0. -1.
         11    1    1    2    0    0  0.12773491003E+02  0.55935694461E+01 -0.49940603445E+03  0.49960067788E+03  0.00000000000E+00 0. -1.
        -15    1    1    2    0    0 -0.16346587678E+02 -0.98341876567E+01  0.21535909600E+03  0.21620966707E+03  0.17770000000E+01 0.  1.
         15    1    1    2    0    0  0.31014880484E+01  0.58059133261E+01  0.17867677477E+03  0.17880681035E+03  0.17770000000E+01 0. -1.
</event>
<event>
 6    1  0.3365733E-003  0.5106941E+03  0.7546771E-02  0.9376194E-01
        -11   -1    0    0    0    0  0.00000000000E+00  0.00000000000E+00  0.50000000000E+03  0.50000000000E+03  0.00000000000E+00 0.  1.
         11   -1    0    0    0    0 -0.00000000000E+00 -0.00000000000E+00 -0.50000000000E+03  0.50000000000E+03  0.00000000000E+00 0.  1.
        -11    1    1    2    0    0 -0.73987448539E+01  0.35719443550E+01  0.45469035864E+03  0.45476457915E+03  0.00000000000E+00 0.  1.
         11    1    1    2    0    0  0.63475478969E+01 -0.11324139903E+02 -0.48913363444E+03  0.48930587555E+03  0.00000000000E+00 0.  1.
        -15    1    1    2    0    0 -0.67364085465E+00  0.11228173706E+02 -0.75865794851E+01  0.13683551953E+02  0.17770000000E+01 0. -1.
         15    1    1    2    0    0  0.17248378116E+01 -0.34759781579E+01  0.42029855283E+02  0.42245993346E+02  0.17770000000E+01 0.  1.
</event>
<event>
 6    1  0.3365733E-003  0.5087331E+03  0.7546771E-02  0.9380478E-01
        -11   -1    0    0    0    0  0.00000000000E+00  0.00000000000E+00  0.50000000000E+03  0.50000000000E+03  0.00000000000E+00 0.  1.
         11   -1    0    0    0    0 -0.00000000000E+00 -0.00000000000E+00 -0.50000000000E+03  0.50000000000E+03  0.00000000000E+00 0. -1.
        -11    1    1    2    0    0 -0.51844473153E+01 -0.58468603019E+01  0.48737131001E+03  0.48743395254E+03  0.00000000000E+00 0.  1.
         11    1    1    2    0    0  0.83116447627E+01  0.84989349147E+01 -0.49112305307E+03  0.49126690159E+03  0.00000000000E+00 0. -1.
        -15    1    1    2    0    0 -0.63610927346E+01 -0.52180446895E+01 -0.61503619254E+01  0.10424786423E+02  0.17770000000E+01 0.  1.
         15    1    1    2    0    0  0.32338952871E+01  0.25659700767E+01  0.99021049872E+01  0.10874359445E+02  0.17770000000E+01 0. -1.
</event>
<event>
 6    1  0.3365733E-003  0.5710784E+03  0.7546771E-02  0.9253459E-01
        -11   -1    0    0    0    0  0.00000000000E+00  0.00000000000E+00  0.50000000000E+03  0.50000000000E+03  0.00000000000E+00 0.  1.
         11   -1    0    0    0    0 -0.00000000000E+00 -0.00000000000E+00 -0.50000000000E+03  0.50000000000E+03  0.00000000000E+00 0.  1.
        -11    1    1    2    0    0  0.28741018204E+02  0.15703895653E+00  0.42795757489E+03  0.42892162069E+03  0.00000000000E+00 0.  1.
         11    1    1    2    0    0  0.38091972025E+01 -0.13294774721E+02 -0.38869849503E+03  0.38894444470E+03  0.00000000000E+00 0.  1.
        -15    1    1    2    0    0 -0.32066263915E+02 -0.10853978216E+02  0.65979849786E+02  0.74179191364E+02  0.17770000000E+01 0. -1.
         15    1    1    2    0    0 -0.48395149217E+00  0.23991713981E+02 -0.10523892964E+03  0.10795474325E+03  0.17770000000E+01 0.  1.
</event>
<event>
 6    1  0.3365733E-003  0.5024459E+03  0.7546771E-02  0.9394353E-01
        -11   -1    0    0    0    0  0.00000000000E+00  0.00000000000E+00  0.50000000000E+03  0.50000000000E+03  0.00000000000E+00 0.  1.
         11   -1    0    0    0    0 -0.00000000000E+00 -0.00000000000E+00 -0.50000000000E+03  0.50000000000E+03  0.00000000000E+00 0. -1.
        -11    1    1    2    0    0  0.56396624436E+01  0.12159086966E+02  0.49737356146E+03  0.49755412653E+03  0.00000000000E+00 0.  1.
         11    1    1    2    0    0  0.50327401724E+01 -0.66030204626E+01 -0.43569621710E+03  0.43577531131E+03  0.00000000000E+00 0. -1.
        -15    1    1    2    0    0 -0.10504597971E+02 -0.12731466054E+02 -0.31572215594E+02  0.35670706931E+02  0.17770000000E+01 0. -1.
         15    1    1    2    0    0 -0.16780464540E+00  0.71753995506E+01 -0.30105128770E+02  0.30999855232E+02  0.17770000000E+01 0.  1.
</event>
<event>
 6    1  0.3365733E-003  0.5245403E+03  0.7546771E-02  0.9346513E-01
        -11   -1    0    0    0    0  0.00000000000E+00  0.00000000000E+00  0.50000000000E+03  0.50000000000E+03  0.00000000000E+00 0. -1.
         11   -1    0    0    0    0 -0.00000000000E+00 -0.00000000000E+00 -0.50000000000E+03  0.50000000000E+03  0.00000000000E+00 0.  1.
        -11    1    1    2    0    0  0.83986035217E+01 -0.41916067984E+01  0.45670446825E+03  0.45680091663E+03  0.00000000000E+00 0. -1.
         11    1    1    2    0    0  0.92800910695E+01 -0.25011068770E+01 -0.47536249874E+03  0.47545965216E+03  0.00000000000E+00 0.  1.
        -15    1    1    2    0    0 -0.19991404383E+02 -0.11993344020E+02 -0.15948640246E+02  0.28302180211E+02  0.17770000000E+01 0.  1.
         15    1    1    2    0    0  0.23127097923E+01  0.18686057696E+02  0.34606670729E+02  0.39437251004E+02  0.17770000000E+01 0. -1.
</event>
<event>
 6    1  0.3365733E-003  0.5029389E+03  0.7546771E-02  0.9393258E-01
        -11   -1    0    0    0    0  0.00000000000E+00  0.00000000000E+00  0.50000000000E+03  0.50000000000E+03  0.00000000000E+00 0.  1.
         11   -1    0    0    0    0 -0.00000000000E+00 -0.00000000000E+00 -0.50000000000E+03  0.50000000000E+03  0.00000000000E+00 0. -1.
        -11    1    1    2    0    0 -0.24727181376E-01 -0.84896217046E+00  0.40742099808E+02  0.40750951461E+02  0.00000000000E+00 0.  1.
         11    1    1    2    0    0  0.82341797473E+01  0.82187031394E+01 -0.49692494382E+03  0.49706111152E+03  0.00000000000E+00 0. -1.
        -15    1    1    2    0    0  0.59905419787E+01 -0.54269675934E+01  0.44155313763E+03  0.44163069373E+03  0.17770000000E+01 0.  1.
         15    1    1    2    0    0 -0.14199994545E+02 -0.19427733756E+01  0.14629706385E+02  0.20557243282E+02  0.17770000000E+01 0. -1.
</event>
<event>
 6    1  0.3365733E-003  0.5056711E+03  0.7546771E-02  0.9387209E-01
        -11   -1    0    0    0    0  0.00000000000E+00  0.00000000000E+00  0.50000000000E+03  0.50000000000E+03  0.00000000000E+00 0. -1.
         11   -1    0    0    0    0 -0.00000000000E+00 -0.00000000000E+00 -0.50000000000E+03  0.50000000000E+03  0.00000000000E+00 0. -1.
        -11    1    1    2    0    0 -0.47664180054E+02 -0.28712256334E+01  0.49201725368E+03  0.49432893494E+03  0.00000000000E+00 0. -1.
         11    1    1    2    0    0 -0.18413961217E+01 -0.30596013158E+01 -0.17918697003E+03  0.17922254916E+03  0.00000000000E+00 0. -1.
        -15    1    1    2    0    0  0.10193021439E+02 -0.17159242550E+02 -0.23774115759E+03  0.23858405863E+03  0.17770000000E+01 0. -1.
         15    1    1    2    0    0  0.39312554737E+02  0.23090069499E+02 -0.75089126058E+02  0.87864457265E+02  0.17770000000E+01 0.  1.
</event>
<event>
 6    1  0.3365733E-003  0.4886323E+03  0.7546771E-02  0.9425611E-01
        -11   -1    0    0    0    0  0.00000000000E+00  0.00000000000E+00  0.50000000000E+03  0.50000000000E+03  0.00000000000E+00 0.  1.
         11   -1    0    0    0    0 -0.00000000000E+00 -0.00000000000E+00 -0.50000000000E+03  0.50000000000E+03  0.00000000000E+00 0. -1.
        -11    1    1    2    0    0  0.10551289953E+02  0.35537562485E+00  0.49007053625E+03  0.49018423731E+03  0.00000000000E+00 0.  1.
         11    1    1    2    0    0  0.91335676863E+01  0.11673651685E+01 -0.48719696631E+03  0.48728397139E+03  0.00000000000E+00 0. -1.
        -15    1    1    2    0    0 -0.78490970747E+01 -0.52290310030E+01 -0.28180844991E+01  0.10002520650E+02  0.17770000000E+01 0. -1.
         15    1    1    2    0    0 -0.11835760565E+02  0.37062902097E+01 -0.55485440212E-01  0.12529270645E+02  0.17770000000E+01 0.  1.
</event>
<event>
 6    1  0.3365733E-003  0.5056777E+03  0.7546771E-02  0.9387194E-01
        -11   -1    0    0    0    0  0.00000000000E+00  0.00000000000E+00  0.50000000000E+03  0.50000000000E+03  0.00000000000E+00 0.  1.
         11   -1    0    0    0    0 -0.00000000000E+00 -0.00000000000E+00 -0.50000000000E+03  0.50000000000E+03  0.00000000000E+00 0. -1.
        -11    1    1    2    0    0  0.22422176424E+02  0.35424470930E+02  0.49254126855E+03  0.49432231223E+03  0.00000000000E+00 0.  1.
         11    1    1    2    0    0 -0.19421333863E+02 -0.38814610051E+02 -0.10650798426E+03  0.11501179450E+03  0.00000000000E+00 0. -1.
        -15    1    1    2    0    0 -0.17222591566E+02  0.25767810149E+02 -0.15266436982E+03  0.15578884826E+03  0.17770000000E+01 0. -1.
         15    1    1    2    0    0  0.14221749004E+02 -0.22377671028E+02 -0.23336891447E+03  0.23487704502E+03  0.17770000000E+01 0.  1.
</event>
<event>
 6    1  0.3365733E-003  0.4701804E+03  0.7546771E-02  0.9469122E-01
        -11   -1    0    0    0    0  0.00000000000E+00  0.00000000000E+00  0.50000000000E+03  0.50000000000E+03  0.00000000000E+00 0.  1.
         11   -1    0    0    0    0 -0.00000000000E+00 -0.00000000000E+00 -0.50000000000E+03  0.50000000000E+03  0.00000000000E+00 0. -1.
        -11    1    1    2    0    0 -0.14429719682E+02 -0.18755505198E+02  0.46806879234E+03  0.46866659807E+03  0.00000000000E+00 0.  1.
         11    1    1    2    0    0 -0.52902370595E+01  0.64883829418E+01 -0.47191447919E+03  0.47198873016E+03  0.00000000000E+00 0. -1.
        -15    1    1    2    0    0  0.21383947107E+02  0.70684975281E+01 -0.22794305410E+02  0.32093222639E+02  0.17770000000E+01 0.  1.
         15    1    1    2    0    0 -0.16639903654E+01  0.51986247286E+01  0.26639992267E+02  0.27251449135E+02  0.17770000000E+01 0. -1.
</event>
<event>
 6    1  0.3365733E-003  0.3896897E+03  0.7546771E-02  0.9687365E-01
        -11   -1    0    0    0    0  0.00000000000E+00  0.00000000000E+00  0.50000000000E+03  0.50000000000E+03  0.00000000000E+00 0.  1.
         11   -1    0    0    0    0 -0.00000000000E+00 -0.00000000000E+00 -0.50000000000E+03  0.50000000000E+03  0.00000000000E+00 0. -1.
        -11    1    1    2    0    0 -0.75091907596E+01  0.80941085524E+02  0.42970856267E+03  0.43732973385E+03  0.00000000000E+00 0.  1.
         11    1    1    2    0    0 -0.29884761623E+01 -0.36864480382E+01 -0.11525436665E+03  0.11535202608E+03  0.00000000000E+00 0. -1.
        -15    1    1    2    0    0 -0.11860515359E+02 -0.87885979493E+02  0.36188134164E+02  0.95798517730E+02  0.17770000000E+01 0.  1.
         15    1    1    2    0    0  0.22358182281E+02  0.10631342008E+02 -0.35064233019E+03  0.35151972235E+03  0.17770000000E+01 0. -1.
</event>
<event>
 6    1  0.3365733E-003  0.5045330E+03  0.7546771E-02  0.9389723E-01
        -11   -1    0    0    0    0  0.00000000000E+00  0.00000000000E+00  0.50000000000E+03  0.50000000000E+03  0.00000000000E+00 0.  1.
         11   -1    0    0    0    0 -0.00000000000E+00 -0.00000000000E+00 -0.50000000000E+03  0.50000000000E+03  0.00000000000E+00 0.  1.
        -11    1    1    2    0    0  0.26373632637E+01 -0.57091529727E+01  0.43478824701E+03  0.43483372667E+03  0.00000000000E+00 0.  1.
         11    1    1    2    0    0  0.20228820111E+02 -0.18659978144E+01 -0.49505032268E+03  0.49546696065E+03  0.00000000000E+00 0.  1.
        -15    1    1    2    0    0 -0.13065857409E+02 -0.13636526224E+00  0.69242238622E+01  0.14894221377E+02  0.17770000000E+01 0. -1.
         15    1    1    2    0    0 -0.98003259655E+01  0.77115160493E+01  0.53337851804E+02  0.54805091304E+02  0.17770000000E+01 0.  1.
</event>
<event>
 6    1  0.3365733E-003  0.5019989E+03  0.7546771E-02  0.9395348E-01
        -11   -1    0    0    0    0  0.00000000000E+00  0.00000000000E+00  0.50000000000E+03  0.50000000000E+03  0.00000000000E+00 0.  1.
         11   -1    0    0    0    0 -0.00000000000E+00 -0.00000000000E+00 -0.50000000000E+03  0.50000000000E+03  0.00000000000E+00 0. -1.
        -11    1    1    2    0    0 -0.12601293673E+02 -0.10490167915E+01  0.49784054314E+03  0.49800110385E+03  0.00000000000E+00 0.  1.
         11    1    1    2    0    0  0.54532467969E+01 -0.37617347721E+01 -0.37115576447E+03  0.37121488393E+03  0.00000000000E+00 0. -1.
        -15    1    1    2    0    0 -0.12977382779E+01  0.45400622485E+01 -0.11934363007E+03  0.11945022419E+03  0.17770000000E+01 0. -1.
         15    1    1    2    0    0  0.84457851544E+01  0.27068931516E+00 -0.73411485947E+01  0.11333788037E+02  0.17770000000E+01 0.  1.
</event>
<event>
 6    1  0.3365733E-003  0.5059123E+03  0.7546771E-02  0.9386677E-01
        -11   -1    0    0    0    0  0.00000000000E+00  0.00000000000E+00  0.50000000000E+03  0.50000000000E+03  0.00000000000E+00 0. -1.
         11   -1    0    0    0    0 -0.00000000000E+00 -0.00000000000E+00 -0.50000000000E+03  0.50000000000E+03  0.00000000000E+00 0.  1.
        -11    1    1    2    0    0 -0.61872295329E+01  0.52616158135E+01  0.49402092606E+03  0.49408768634E+03  0.00000000000E+00 0. -1.
         11    1    1    2    0    0 -0.11422760412E+02 -0.12738243679E+02 -0.45982221309E+03  0.46014042417E+03  0.00000000000E+00 0.  1.
        -15    1    1    2    0    0  0.47204295304E+01  0.34869735111E+00  0.28916721601E+01  0.58243919576E+01  0.17770000000E+01 0. -1.
         15    1    1    2    0    0  0.12889560414E+02  0.71279305147E+01 -0.37090385127E+02  0.39947497531E+02  0.17770000000E+01 0.  1.
</event>
<event>
 6    1  0.3365733E-003  0.5011771E+03  0.7546771E-02  0.9397180E-01
        -11   -1    0    0    0    0  0.00000000000E+00  0.00000000000E+00  0.50000000000E+03  0.50000000000E+03  0.00000000000E+00 0.  1.
         11   -1    0    0    0    0 -0.00000000000E+00 -0.00000000000E+00 -0.50000000000E+03  0.50000000000E+03  0.00000000000E+00 0. -1.
        -11    1    1    2    0    0  0.95931421414E+01  0.21166786435E+01  0.43327538563E+03  0.43338674241E+03  0.00000000000E+00 0.  1.
         11    1    1    2    0    0 -0.66069776996E+01 -0.30718145501E+01 -0.49876964685E+03  0.49882286317E+03  0.00000000000E+00 0. -1.
        -15    1    1    2    0    0 -0.21014958206E+01  0.47382560477E+01  0.62080204040E+02  0.62321559815E+02  0.17770000000E+01 0. -1.
         15    1    1    2    0    0 -0.88466862130E+00 -0.37831201411E+01  0.34140571823E+01  0.54688346122E+01  0.17770000000E+01 0.  1.
</event>
<event>
 6    1  0.3365733E-003  0.5026941E+03  0.7546771E-02  0.9393801E-01
        -11   -1    0    0    0    0  0.00000000000E+00  0.00000000000E+00  0.50000000000E+03  0.50000000000E+03  0.00000000000E+00 0. -1.
         11   -1    0    0    0    0 -0.00000000000E+00 -0.00000000000E+00 -0.50000000000E+03  0.50000000000E+03  0.00000000000E+00 0. -1.
        -11    1    1    2    0    0  0.12664526018E+02 -0.86029781541E+01  0.41886378032E+03  0.41914349323E+03  0.00000000000E+00 0. -1.
         11    1    1    2    0    0 -0.44285515064E+01  0.65582767465E+01 -0.49724289817E+03  0.49730586448E+03  0.00000000000E+00 0. -1.
        -15    1    1    2    0    0  0.37237657378E+01 -0.29755825812E+01  0.11444011928E+01  0.52142023414E+01  0.17770000000E+01 0.  1.
         15    1    1    2    0    0 -0.11959740249E+02  0.50202839888E+01  0.77234716658E+02  0.78336439952E+02  0.17770000000E+01 0.  1.
</event>
<event>
 6    1  0.3365733E-003  0.5028713E+03  0.7546771E-02  0.9393408E-01
        -11   -1    0    0    0    0  0.00000000000E+00  0.00000000000E+00  0.50000000000E+03  0.50000000000E+03  0.00000000000E+00 0. -1.
         11   -1    0    0    0    0 -0.00000000000E+00 -0.00000000000E+00 -0.50000000000E+03  0.50000000000E+03  0.00000000000E+00 0. -1.
        -11    1    1    2    0    0 -0.11239990922E+02 -0.19801179537E+02  0.49660698914E+03  0.49712868130E+03  0.00000000000E+00 0. -1.
         11    1    1    2    0    0  0.16184882306E+01 -0.24151765485E+01 -0.14732874875E+03  0.14735743208E+03  0.00000000000E+00 0. -1.
        -15    1    1    2    0    0 -0.67584908326E+01  0.21707234177E+00 -0.29095348686E+03  0.29103747794E+03  0.17770000000E+01 0.  1.
         15    1    1    2    0    0  0.16379993524E+02  0.21999283744E+02 -0.58324753535E+02  0.64476408686E+02  0.17770000000E+01 0. -1.
</event>
<event>
 6    1  0.3365733E-003  0.5014908E+03  0.7546771E-02  0.9396480E-01
        -11   -1    0    0    0    0  0.00000000000E+00  0.00000000000E+00  0.50000000000E+03  0.50000000000E+03  0.00000000000E+00 0.  1.
         11   -1    0    0    0    0 -0.00000000000E+00 -0.00000000000E+00 -0.50000000000E+03  0.50000000000E+03  0.00000000000E+00 0.  1.
        -11    1    1    2    0    0 -0.30238490903E-01  0.71054450442E+01  0.49845857063E+03  0.49850921245E+03  0.00000000000E+00 0.  1.
         11    1    1    2    0    0  0.86805367232E+01  0.32621363886E+01 -0.37492601445E+03  0.37504067721E+03  0.00000000000E+00 0.  1.
        -15    1    1    2    0    0  0.50482781302E+01 -0.11860362391E+02 -0.65204036625E+02  0.66489679119E+02  0.17770000000E+01 0. -1.
         15    1    1    2    0    0 -0.13698576362E+02  0.14927809585E+01 -0.58328519559E+02  0.59960431222E+02  0.17770000000E+01 0.  1.
</event>
<event>
 6    1  0.3365733E-003  0.5102517E+03  0.7546771E-02  0.9377158E-01
        -11   -1    0    0    0    0  0.00000000000E+00  0.00000000000E+00  0.50000000000E+03  0.50000000000E+03  0.00000000000E+00 0. -1.
         11   -1    0    0    0    0 -0.00000000000E+00 -0.00000000000E+00 -0.50000000000E+03  0.50000000000E+03  0.00000000000E+00 0.  1.
        -11    1    1    2    0    0  0.44306792365E+01 -0.98837505236E+01  0.43212741990E+03  0.43226314494E+03  0.00000000000E+00 0. -1.
         11    1    1    2    0    0  0.87311237871E+00 -0.16134494001E+02 -0.48948164146E+03  0.48974826345E+03  0.00000000000E+00 0.  1.
        -15    1    1    2    0    0 -0.18105352220E+02  0.30114907581E+02  0.25752194804E+02  0.43600971363E+02  0.17770000000E+01 0.  1.
         15    1    1    2    0    0  0.12801560605E+02 -0.40966630564E+01  0.31602026761E+02  0.34387620251E+02  0.17770000000E+01 0. -1.
</event>
<event>
 6    1  0.3365733E-003  0.5064470E+03  0.7546771E-02  0.9385498E-01
        -11   -1    0    0    0    0  0.00000000000E+00  0.00000000000E+00  0.50000000000E+03  0.50000000000E+03  0.00000000000E+00 0. -1.
         11   -1    0    0    0    0 -0.00000000000E+00 -0.00000000000E+00 -0.50000000000E+03  0.50000000000E+03  0.00000000000E+00 0.  1.
        -11    1    1    2    0    0 -0.41931532114E+00  0.13486975203E+02  0.49336848926E+03  0.49355297641E+03  0.00000000000E+00 0. -1.
         11    1    1    2    0    0  0.95179429423E+01  0.71114865224E+01 -0.42325407773E+03  0.42342080582E+03  0.00000000000E+00 0.  1.
        -15    1    1    2    0    0 -0.10995827089E+02 -0.15569802730E+02 -0.73819030985E+02  0.76260960097E+02  0.17770000000E+01 0. -1.
         15    1    1    2    0    0  0.18971994678E+01 -0.50286589956E+01  0.37046194552E+01  0.67652576760E+01  0.17770000000E+01 0.  1.
</event>
<event>
 6    1  0.3365733E-003  0.5128964E+03  0.7546771E-02  0.9371406E-01
        -11   -1    0    0    0    0  0.00000000000E+00  0.00000000000E+00  0.50000000000E+03  0.50000000000E+03  0.00000000000E+00 0.  1.
         11   -1    0    0    0    0 -0.00000000000E+00 -0.00000000000E+00 -0.50000000000E+03  0.50000000000E+03  0.00000000000E+00 0. -1.
        -11    1    1    2    0    0  0.18643792375E+02 -0.17722658146E+01  0.48674341029E+03  0.48710356125E+03  0.00000000000E+00 0.  1.
         11    1    1    2    0    0  0.13344338553E+02 -0.19239970326E+02 -0.40599062780E+03  0.40666526492E+03  0.00000000000E+00 0. -1.
        -15    1    1    2    0    0 -0.48638425758E+02  0.18428492622E+02 -0.59417560614E+02  0.78986771290E+02  0.17770000000E+01 0. -1.
         15    1    1    2    0    0  0.16650294830E+02  0.25837435188E+01 -0.21335221874E+02  0.27244402543E+02  0.17770000000E+01 0.  1.
</event>
<event>
 6    1  0.3365733E-003  0.5039561E+03  0.7546771E-02  0.9391001E-01
        -11   -1    0    0    0    0  0.00000000000E+00  0.00000000000E+00  0.50000000000E+03  0.50000000000E+03  0.00000000000E+00 0. -1.
         11   -1    0    0    0    0 -0.00000000000E+00 -0.00000000000E+00 -0.50000000000E+03  0.50000000000E+03  0.00000000000E+00 0. -1.
        -11    1    1    2    0    0  0.44784935549E+01 -0.47654526107E+01  0.10657901247E+03  0.10677945656E+03  0.00000000000E+00 0. -1.
         11    1    1    2    0    0  0.99220452695E+01  0.91616816050E+01 -0.49586000224E+03  0.49604387429E+03  0.00000000000E+00 0. -1.
        -15    1    1    2    0    0 -0.65998829319E+01  0.13536993729E+02  0.36764686284E+03  0.36795948437E+03  0.17770000000E+01 0. -1.
         15    1    1    2    0    0 -0.78006558925E+01 -0.17933222723E+02  0.21634126935E+02  0.29217184786E+02  0.17770000000E+01 0.  1.
</event>
<event>
 6    1  0.3365733E-003  0.5000762E+03  0.7546771E-02  0.9399639E-01
        -11   -1    0    0    0    0  0.00000000000E+00  0.00000000000E+00  0.50000000000E+03  0.50000000000E+03  0.00000000000E+00 0.  1.
         11   -1    0    0    0    0 -0.00000000000E+00 -0.00000000000E+00 -0.50000000000E+03  0.50000000000E+03  0.00000000000E+00 0.  1.
        -11    1    1    2    0    0  0.45313133894E+01 -0.12252562836E+02  0.49975309805E+03  0.49992381130E+03  0.00000000000E+00 0.  1.
         11    1    1    2    0    0  0.54685864814E+00  0.10427434162E+01 -0.13694219518E+02  0.13744745048E+02  0.00000000000E+00 0.  1.
        -15    1    1    2    0    0 -0.32463468899E+01  0.15506524257E+01 -0.50908326377E+02  0.51066218918E+02  0.17770000000E+01 0.  1.
         15    1    1    2    0    0 -0.18318251476E+01  0.96591669937E+01 -0.43515055216E+03  0.43526522473E+03  0.17770000000E+01 0.  1.
</event>
<event>
 6    1  0.3365733E-003  0.5038589E+03  0.7546771E-02  0.9391216E-01
        -11   -1    0    0    0    0  0.00000000000E+00  0.00000000000E+00  0.50000000000E+03  0.50000000000E+03  0.00000000000E+00 0.  1.
         11   -1    0    0    0    0 -0.00000000000E+00 -0.00000000000E+00 -0.50000000000E+03  0.50000000000E+03  0.00000000000E+00 0.  1.
        -11    1    1    2    0    0 -0.27723380467E+01  0.54885551758E+01  0.79199047048E+02  0.79437391381E+02  0.00000000000E+00 0.  1.
         11    1    1    2    0    0  0.29615905049E+02 -0.12970133632E+02 -0.49508654359E+03  0.49614112089E+03  0.00000000000E+00 0.  1.
        -15    1    1    2    0    0 -0.75990157894E+01  0.16030577605E+01  0.39597942295E+03  0.39605956113E+03  0.17770000000E+01 0.  1.
         15    1    1    2    0    0 -0.19244551213E+02  0.58785206956E+01  0.19908073594E+02  0.28361926595E+02  0.17770000000E+01 0. -1.
</event>
<event>
 6    1  0.3365733E-003  0.5082579E+03  0.7546771E-02  0.9381519E-01
        -11   -1    0    0    0    0  0.00000000000E+00  0.00000000000E+00  0.50000000000E+03  0.50000000000E+03  0.00000000000E+00 0. -1.
         11   -1    0    0    0    0 -0.00000000000E+00 -0.00000000000E+00 -0.50000000000E+03  0.50000000000E+03  0.00000000000E+00 0. -1.
        -11    1    1    2    0    0  0.95750948117E+00 -0.69434106448E+01  0.48167588855E+03  0.48172688257E+03  0.00000000000E+00 0. -1.
         11    1    1    2    0    0 -0.61320000729E+01 -0.31718421626E+01 -0.49169364713E+03  0.49174211192E+03  0.00000000000E+00 0. -1.
        -15    1    1    2    0    0  0.31995453209E+01  0.31437198938E+01  0.16161522048E+02  0.16866315215E+02  0.17770000000E+01 0.  1.
         15    1    1    2    0    0  0.19749452709E+01  0.69715329137E+01 -0.61437634674E+01  0.96646902968E+01  0.17770000000E+01 0. -1.
</event>
<event>
 6    1  0.3365733E-003  0.5116911E+03  0.7546771E-02  0.9374023E-01
        -11   -1    0    0    0    0  0.00000000000E+00  0.00000000000E+00  0.50000000000E+03  0.50000000000E+03  0.00000000000E+00 0. -1.
         11   -1    0    0    0    0 -0.00000000000E+00 -0.00000000000E+00 -0.50000000000E+03  0.50000000000E+03  0.00000000000E+00 0.  1.
        -11    1    1    2    0    0  0.77149233722E+01 -0.80765240561E+01  0.47233311290E+03  0.47246515197E+03  0.00000000000E+00 0. -1.
         11    1    1    2    0    0  0.10250252048E+02  0.38541908123E+00 -0.48820113154E+03  0.48830887874E+03  0.00000000000E+00 0.  1.
        -15    1    1    2    0    0 -0.12514061302E+02  0.10723769012E+02  0.23785127742E+02  0.28991222513E+02  0.17770000000E+01 0.  1.
         15    1    1    2    0    0 -0.54511141185E+01 -0.30326640373E+01 -0.79171090955E+01  0.10234746784E+02  0.17770000000E+01 0. -1.
</event>
<event>
 6    1  0.3365733E-003  0.5056997E+03  0.7546771E-02  0.9387146E-01
        -11   -1    0    0    0    0  0.00000000000E+00  0.00000000000E+00  0.50000000000E+03  0.50000000000E+03  0.00000000000E+00 0.  1.
         11   -1    0    0    0    0 -0.00000000000E+00 -0.00000000000E+00 -0.50000000000E+03  0.50000000000E+03  0.00000000000E+00 0.  1.
        -11    1    1    2    0    0 -0.16151491041E+02  0.12270923600E+02  0.36638352507E+03  0.36694459210E+03  0.00000000000E+00 0.  1.
         11    1    1    2    0    0  0.68337432831E+01  0.72020116760E+01 -0.49420059967E+03  0.49430031532E+03  0.00000000000E+00 0.  1.
        -15    1    1    2    0    0 -0.13248871079E+02 -0.22876122535E+02  0.39818894820E+02  0.47828356450E+02  0.17770000000E+01 0.  1.
         15    1    1    2    0    0  0.22566618837E+02  0.34031872585E+01  0.87998179778E+02  0.90926736126E+02  0.17770000000E+01 0. -1.
</event>
<event>
 6    1  0.3365733E-003  0.3910297E+03  0.7546771E-02  0.9683283E-01
        -11   -1    0    0    0    0  0.00000000000E+00  0.00000000000E+00  0.50000000000E+03  0.50000000000E+03  0.00000000000E+00 0.  1.
         11   -1    0    0    0    0 -0.00000000000E+00 -0.00000000000E+00 -0.50000000000E+03  0.50000000000E+03  0.00000000000E+00 0.  1.
        -11    1    1    2    0    0 -0.25085170967E+01  0.84333253989E+02  0.38575786171E+03  0.39487658610E+03  0.00000000000E+00 0.  1.
         11    1    1    2    0    0 -0.15973839983E+02  0.69573931908E+01 -0.39235077083E+03  0.39273743933E+03  0.00000000000E+00 0.  1.
        -15    1    1    2    0    0 -0.35967442937E+02  0.13569725948E+02 -0.64042988590E+02  0.74715838550E+02  0.17770000000E+01 0.  1.
         15    1    1    2    0    0  0.54449800017E+02 -0.10486037313E+03  0.70635897714E+02  0.13767013601E+03  0.17770000000E+01 0. -1.
</event>
<event>
 6    1  0.3365733E-003  0.5012946E+03  0.7546771E-02  0.9396918E-01
        -11   -1    0    0    0    0  0.00000000000E+00  0.00000000000E+00  0.50000000000E+03  0.50000000000E+03  0.00000000000E+00 0. -1.
         11   -1    0    0    0    0 -0.00000000000E+00 -0.00000000000E+00 -0.50000000000E+03  0.50000000000E+03  0.00000000000E+00 0.  1.
        -11    1    1    2    0    0  0.46268936611E+01 -0.11271379769E+02  0.49855650997E+03  0.49870536972E+03  0.00000000000E+00 0. -1.
         11    1    1    2    0    0 -0.63853107363E+01 -0.14929424336E+01 -0.43087050121E+03  0.43092039855E+03  0.00000000000E+00 0.  1.
        -15    1    1    2    0    0  0.20612473036E+01 -0.21714532759E+01 -0.22031343429E+02  0.22304747747E+02  0.17770000000E+01 0.  1.
         15    1    1    2    0    0 -0.30283022834E+00  0.14935775479E+02 -0.45654665330E+02  0.48069483986E+02  0.17770000000E+01 0. -1.
</event>
<event>
 6    1  0.3365733E-003  0.5038954E+03  0.7546771E-02  0.9391135E-01
        -11   -1    0    0    0    0  0.00000000000E+00  0.00000000000E+00  0.50000000000E+03  0.50000000000E+03  0.00000000000E+00 0.  1.
         11   -1    0    0    0    0 -0.00000000000E+00 -0.00000000000E+00 -0.50000000000E+03  0.50000000000E+03  0.00000000000E+00 0.  1.
        -11    1    1    2    0    0  0.71748924070E+01  0.87744686764E+01  0.49597507311E+03  0.49610456915E+03  0.00000000000E+00 0.  1.
         11    1    1    2    0    0  0.51825527716E+01  0.63327048600E+01 -0.38624327455E+03  0.38632994854E+03  0.00000000000E+00 0.  1.
        -15    1    1    2    0    0 -0.51967176928E+01 -0.99043084769E+01 -0.48900973675E+01  0.12335800843E+02  0.17770000000E+01 0.  1.
         15    1    1    2    0    0 -0.71607274857E+01 -0.52028650595E+01 -0.10484170119E+03  0.10522968146E+03  0.17770000000E+01 0. -1.
</event>
<event>
 6    1  0.3365733E-003  0.5059605E+03  0.7546771E-02  0.9386571E-01
        -11   -1    0    0    0    0  0.00000000000E+00  0.00000000000E+00  0.50000000000E+03  0.50000000000E+03  0.00000000000E+00 0. -1.
         11   -1    0    0    0    0 -0.00000000000E+00 -0.00000000000E+00 -0.50000000000E+03  0.50000000000E+03  0.00000000000E+00 0. -1.
        -11    1    1    2    0    0  0.51638396679E+01 -0.84382589749E+01  0.49394046858E+03  0.49403952873E+03  0.00000000000E+00 0. -1.
         11    1    1    2    0    0  0.20640381469E+01 -0.54486556133E+01 -0.43232577108E+03  0.43236503148E+03  0.00000000000E+00 0. -1.
        -15    1    1    2    0    0 -0.23905844443E+01  0.35991788454E+01  0.45001816784E+01  0.64867824447E+01  0.17770000000E+01 0. -1.
         15    1    1    2    0    0 -0.48372933704E+01  0.10287735743E+02 -0.66114879172E+02  0.67108657346E+02  0.17770000000E+01 0.  1.
</event>
<event>
 6    1  0.3365733E-003  0.5106392E+03  0.7546771E-02  0.9376313E-01
        -11   -1    0    0    0    0  0.00000000000E+00  0.00000000000E+00  0.50000000000E+03  0.50000000000E+03  0.00000000000E+00 0. -1.
         11   -1    0    0    0    0 -0.00000000000E+00 -0.00000000000E+00 -0.50000000000E+03  0.50000000000E+03  0.00000000000E+00 0.  1.
        -11    1    1    2    0    0  0.42511102144E+00  0.61189846750E+01  0.39387711370E+03  0.39392487023E+03  0.00000000000E+00 0. -1.
         11    1    1    2    0    0 -0.17398783369E+02 -0.29406358793E+01 -0.48904257802E+03  0.48936081588E+03  0.00000000000E+00 0.  1.
        -15    1    1    2    0    0 -0.14654602210E+02  0.95648826342E+01  0.75051468084E+02  0.77085179745E+02  0.17770000000E+01 0. -1.
         15    1    1    2    0    0  0.31628274557E+02 -0.12743231430E+02  0.20113996239E+02  0.39629134137E+02  0.17770000000E+01 0.  1.
</event>
<event>
 6    1  0.3365733E-003  0.5066139E+03  0.7546771E-02  0.9385131E-01
        -11   -1    0    0    0    0  0.00000000000E+00  0.00000000000E+00  0.50000000000E+03  0.50000000000E+03  0.00000000000E+00 0.  1.
         11   -1    0    0    0    0 -0.00000000000E+00 -0.00000000000E+00 -0.50000000000E+03  0.50000000000E+03  0.00000000000E+00 0. -1.
        -11    1    1    2    0    0 -0.33683561193E+01 -0.65289292343E+01  0.49333139772E+03  0.49338609700E+03  0.00000000000E+00 0.  1.
         11    1    1    2    0    0  0.30481482890E+01  0.88927127136E+01 -0.43093033666E+03  0.43103286023E+03  0.00000000000E+00 0. -1.
        -15    1    1    2    0    0  0.14046609293E+02  0.99527875007E+01 -0.99708137487E+01  0.19973484110E+02  0.17770000000E+01 0. -1.
         15    1    1    2    0    0 -0.13726401463E+02 -0.12316570980E+02 -0.52430247313E+02  0.55607558660E+02  0.17770000000E+01 0.  1.
</event>
<event>
 6    1  0.3365733E-003  0.5141150E+03  0.7546771E-02  0.9368769E-01
        -11   -1    0    0    0    0  0.00000000000E+00  0.00000000000E+00  0.50000000000E+03  0.50000000000E+03  0.00000000000E+00 0. -1.
         11   -1    0    0    0    0 -0.00000000000E+00 -0.00000000000E+00 -0.50000000000E+03  0.50000000000E+03  0.00000000000E+00 0. -1.
        -11    1    1    2    0    0  0.18763836854E+02 -0.24896370982E+02  0.43382906678E+03  0.43494777853E+03  0.00000000000E+00 0. -1.
         11    1    1    2    0    0 -0.54840948350E+01  0.44736324881E+01 -0.48583346523E+03  0.48588501173E+03  0.00000000000E+00 0. -1.
        -15    1    1    2    0    0 -0.51174210338E+01  0.37591792483E+02  0.44865985447E+02  0.58783035302E+02  0.17770000000E+01 0. -1.
         15    1    1    2    0    0 -0.81623209853E+01 -0.17169053989E+02  0.71384130014E+01  0.20384174448E+02  0.17770000000E+01 0.  1.
</event>
<event>
 6    1  0.3365733E-003  0.5003757E+03  0.7546771E-02  0.9398969E-01
        -11   -1    0    0    0    0  0.00000000000E+00  0.00000000000E+00  0.50000000000E+03  0.50000000000E+03  0.00000000000E+00 0.  1.
         11   -1    0    0    0    0 -0.00000000000E+00 -0.00000000000E+00 -0.50000000000E+03  0.50000000000E+03  0.00000000000E+00 0.  1.
        -11    1    1    2    0    0  0.94417973178E-01 -0.86088085524E+01  0.49955007925E+03  0.49962426100E+03  0.00000000000E+00 0.  1.
         11    1    1    2    0    0  0.52113207484E+01  0.93868821743E+00 -0.11097925057E+03  0.11110550417E+03  0.00000000000E+00 0.  1.
        -15    1    1    2    0    0 -0.59082482707E+01  0.11760263483E+02 -0.36674303624E+03  0.36698341046E+03  0.17770000000E+01 0.  1.
         15    1    1    2    0    0  0.60250954912E+00 -0.40901431480E+01 -0.21827792446E+02  0.22286824377E+02  0.17770000000E+01 0. -1.
</event>
<event>
 6    1  0.3365733E-003  0.5162061E+03  0.7546771E-02  0.9364260E-01
        -11   -1    0    0    0    0  0.00000000000E+00  0.00000000000E+00  0.50000000000E+03  0.50000000000E+03  0.00000000000E+00 0.  1.
         11   -1    0    0    0    0 -0.00000000000E+00 -0.00000000000E+00 -0.50000000000E+03  0.50000000000E+03  0.00000000000E+00 0. -1.
        -11    1    1    2    0    0  0.14580490397E+02 -0.10365400598E+02  0.48346304263E+03  0.48379390842E+03  0.00000000000E+00 0.  1.
         11    1    1    2    0    0  0.37661998238E+01 -0.47328099687E+01 -0.33047768031E+03  0.33053302548E+03  0.00000000000E+00 0. -1.
        -15    1    1    2    0    0  0.23812095616E+02  0.25257072252E+01 -0.13659889956E+03  0.13869323049E+03  0.17770000000E+01 0. -1.
         15    1    1    2    0    0 -0.42158785837E+02  0.12572503342E+02 -0.16386462771E+02  0.46979835618E+02  0.17770000000E+01 0.  1.
</event>
<event>
 6    1  0.3365733E-003  0.5053250E+03  0.7546771E-02  0.9387973E-01
        -11   -1    0    0    0    0  0.00000000000E+00  0.00000000000E+00  0.50000000000E+03  0.50000000000E+03  0.00000000000E+00 0.  1.
         11   -1    0    0    0    0 -0.00000000000E+00 -0.00000000000E+00 -0.50000000000E+03  0.50000000000E+03  0.00000000000E+00 0. -1.
        -11    1    1    2    0    0 -0.32045961341E+02 -0.45602163459E+01  0.49361487494E+03  0.49467502865E+03  0.00000000000E+00 0.  1.
         11    1    1    2    0    0 -0.27183199958E+01 -0.55539773277E+01 -0.35529993285E+03  0.35535373674E+03  0.00000000000E+00 0. -1.
        -15    1    1    2    0    0  0.48364355480E+01  0.57426710660E+01 -0.10363091871E+03  0.10391772910E+03  0.17770000000E+01 0.  1.
         15    1    1    2    0    0  0.29927845789E+02  0.43715226076E+01 -0.34684023372E+02  0.46053505510E+02  0.17770000000E+01 0. -1.
</event>
<event>
 6    1  0.3365733E-003  0.5138074E+03  0.7546771E-02  0.9369434E-01
        -11   -1    0    0    0    0  0.00000000000E+00  0.00000000000E+00  0.50000000000E+03  0.50000000000E+03  0.00000000000E+00 0. -1.
         11   -1    0    0    0    0 -0.00000000000E+00 -0.00000000000E+00 -0.50000000000E+03  0.50000000000E+03  0.00000000000E+00 0. -1.
        -11    1    1    2    0    0  0.10663200562E+02  0.49851856354E+01  0.43614583075E+03  0.43630464311E+03  0.00000000000E+00 0. -1.
         11    1    1    2    0    0 -0.14976739510E+02 -0.12728545840E+02 -0.48579514978E+03  0.48619260191E+03  0.00000000000E+00 0. -1.
        -15    1    1    2    0    0 -0.90134284041E+01  0.31032387608E+02  0.23518881489E+02  0.40006830514E+02  0.17770000000E+01 0.  1.
         15    1    1    2    0    0  0.13326967351E+02 -0.23289027404E+02  0.26130437539E+02  0.37495924461E+02  0.17770000000E+01 0. -1.
</event>
<event>
 6    1  0.3365733E-003  0.5026992E+03  0.7546771E-02  0.9393790E-01
        -11   -1    0    0    0    0  0.00000000000E+00  0.00000000000E+00  0.50000000000E+03  0.50000000000E+03  0.00000000000E+00 0. -1.
         11   -1    0    0    0    0 -0.00000000000E+00 -0.00000000000E+00 -0.50000000000E+03  0.50000000000E+03  0.00000000000E+00 0. -1.
        -11    1    1    2    0    0 -0.29419717491E+01 -0.12756014024E+02  0.49712846869E+03  0.49730079979E+03  0.00000000000E+00 0. -1.
         11    1    1    2    0    0  0.13559348961E+01  0.62818892012E+01 -0.46430506366E+03  0.46434953734E+03  0.00000000000E+00 0. -1.
        -15    1    1    2    0    0 -0.23441524495E+01  0.11088642378E+02 -0.12052296974E+02  0.16639369935E+02  0.17770000000E+01 0.  1.
         15    1    1    2    0    0  0.39301893024E+01 -0.46145175549E+01 -0.20771108057E+02  0.21710292930E+02  0.17770000000E+01 0. -1.
</event>
<event>
 6    1  0.3365733E-003  0.5051831E+03  0.7546771E-02  0.9388286E-01
        -11   -1    0    0    0    0  0.00000000000E+00  0.00000000000E+00  0.50000000000E+03  0.50000000000E+03  0.00000000000E+00 0.  1.
         11   -1    0    0    0    0 -0.00000000000E+00 -0.00000000000E+00 -0.50000000000E+03  0.50000000000E+03  0.00000000000E+00 0. -1.
        -11    1    1    2    0    0 -0.80134364911E+01  0.47019171186E+01  0.48262198499E+03  0.48271140817E+03  0.00000000000E+00 0.  1.
         11    1    1    2    0    0  0.18679190419E+01 -0.83080676826E+01 -0.49474362724E+03  0.49481690534E+03  0.00000000000E+00 0. -1.
        -15    1    1    2    0    0  0.11690537861E+00  0.40624802657E+01 -0.34849255947E+01  0.56409084532E+01  0.17770000000E+01 0. -1.
         15    1    1    2    0    0  0.60286120706E+01 -0.45632970164E+00  0.15606567849E+02  0.16830778037E+02  0.17770000000E+01 0.  1.
</event>
<event>
 6    1  0.3365733E-003  0.4873856E+03  0.7546771E-02  0.9428486E-01
        -11   -1    0    0    0    0  0.00000000000E+00  0.00000000000E+00  0.50000000000E+03  0.50000000000E+03  0.00000000000E+00 0. -1.
         11   -1    0    0    0    0 -0.00000000000E+00 -0.00000000000E+00 -0.50000000000E+03  0.50000000000E+03  0.00000000000E+00 0.  1.
        -11    1    1    2    0    0 -0.67612100887E+01 -0.41491469879E+01  0.49069243256E+03  0.49075655141E+03  0.00000000000E+00 0. -1.
         11    1    1    2    0    0 -0.40512655769E+00 -0.13222798752E+02 -0.48403781923E+03  0.48421856324E+03  0.00000000000E+00 0.  1.
        -15    1    1    2    0    0 -0.30737308682E+01  0.52053335746E+01  0.22768711524E+01  0.66996410589E+01  0.17770000000E+01 0. -1.
         15    1    1    2    0    0  0.10240067515E+02  0.12166612165E+02 -0.89314844790E+01  0.18325244290E+02  0.17770000000E+01 0.  1.
</event>
<event>
 6    1  0.3365733E-003  0.5100520E+03  0.7546771E-02  0.9377594E-01
        -11   -1    0    0    0    0  0.00000000000E+00  0.00000000000E+00  0.50000000000E+03  0.50000000000E+03  0.00000000000E+00 0. -1.
         11   -1    0    0    0    0 -0.00000000000E+00 -0.00000000000E+00 -0.50000000000E+03  0.50000000000E+03  0.00000000000E+00 0.  1.
        -11    1    1    2    0    0  0.30792166223E+02  0.97487190478E+01  0.48888224906E+03  0.48994800588E+03  0.00000000000E+00 0. -1.
         11    1    1    2    0    0  0.28604582373E+01  0.56465017520E+01 -0.43271428799E+03  0.43276058073E+03  0.00000000000E+00 0.  1.
        -15    1    1    2    0    0 -0.14026002078E+02 -0.20160395280E+02 -0.50588318924E+02  0.56262829761E+02  0.17770000000E+01 0.  1.
         15    1    1    2    0    0 -0.19626622383E+02  0.47651744806E+01 -0.55796421445E+01  0.21028583629E+02  0.17770000000E+01 0. -1.
</event>
<event>
 6    1  0.3365733E-003  0.5050756E+03  0.7546771E-02  0.9388524E-01
        -11   -1    0    0    0    0  0.00000000000E+00  0.00000000000E+00  0.50000000000E+03  0.50000000000E+03  0.00000000000E+00 0.  1.
         11   -1    0    0    0    0 -0.00000000000E+00 -0.00000000000E+00 -0.50000000000E+03  0.50000000000E+03  0.00000000000E+00 0.  1.
        -11    1    1    2    0    0  0.68346260517E+01 -0.48345179046E+01  0.38015639219E+03  0.38024855976E+03  0.00000000000E+00 0.  1.
         11    1    1    2    0    0  0.86938819351E+01 -0.10416672139E+02 -0.49473843633E+03  0.49492444981E+03  0.00000000000E+00 0.  1.
        -15    1    1    2    0    0 -0.12076598803E+02  0.96490702050E+01  0.70555901453E+01  0.17084726388E+02  0.17770000000E+01 0.  1.
         15    1    1    2    0    0 -0.34519091841E+01  0.56021198390E+01  0.10752645399E+03  0.10774226404E+03  0.17770000000E+01 0.  1.
</event>
<event>
 6    1  0.3365733E-003  0.5006918E+03  0.7546771E-02  0.9398263E-01
        -11   -1    0    0    0    0  0.00000000000E+00  0.00000000000E+00  0.50000000000E+03  0.50000000000E+03  0.00000000000E+00 0. -1.
         11   -1    0    0    0    0 -0.00000000000E+00 -0.00000000000E+00 -0.50000000000E+03  0.50000000000E+03  0.00000000000E+00 0. -1.
        -11    1    1    2    0    0 -0.50953726729E+01 -0.16711434793E+02  0.49900245306E+03  0.49930820445E+03  0.00000000000E+00 0. -1.
         11    1    1    2    0    0  0.68391772055E+01 -0.37387374551E-01 -0.34506595893E+03  0.34513373025E+03  0.00000000000E+00 0. -1.
        -15    1    1    2    0    0  0.12498295056E+01 -0.20837482090E+01 -0.14225064248E+02  0.14540091549E+02  0.17770000000E+01 0. -1.
         15    1    1    2    0    0 -0.29936340382E+01  0.18832570377E+02 -0.13971142988E+03  0.14101797374E+03  0.17770000000E+01 0. -1.
</event>
<event>
 6    1  0.3365733E-003  0.4702049E+03  0.7546771E-02  0.9469063E-01
        -11   -1    0    0    0    0  0.00000000000E+00  0.00000000000E+00  0.50000000000E+03  0.50000000000E+03  0.00000000000E+00 0. -1.
         11   -1    0    0    0    0 -0.00000000000E+00 -0.00000000000E+00 -0.50000000000E+03  0.50000000000E+03  0.00000000000E+00 0.  1.
        -11    1    1    2    0    0 -0.15634440848E+02  0.15541064894E+02  0.47521737843E+03  0.47572840697E+03  0.00000000000E+00 0. -1.
         11    1    1    2    0    0 -0.25589852768E+02 -0.23258596887E+01 -0.46502307045E+03  0.46573244061E+03  0.00000000000E+00 0.  1.
        -15    1    1    2    0    0  0.30098089268E+02  0.25463391125E+01  0.86928590317E+01  0.31481778025E+02  0.17770000000E+01 0. -1.
         15    1    1    2    0    0  0.11126204348E+02 -0.15761544318E+02 -0.18887167011E+02  0.27057374395E+02  0.17770000000E+01 0.  1.
</event>
<event>
 6    1  0.3365733E-003  0.5039110E+03  0.7546771E-02  0.9391101E-01
        -11   -1    0    0    0    0  0.00000000000E+00  0.00000000000E+00  0.50000000000E+03  0.50000000000E+03  0.00000000000E+00 0. -1.
         11   -1    0    0    0    0 -0.00000000000E+00 -0.00000000000E+00 -0.50000000000E+03  0.50000000000E+03  0.00000000000E+00 0.  1.
        -11    1    1    2    0    0  0.93049849848E+01 -0.47863121705E+01  0.49597866369E+03  0.49608903069E+03  0.00000000000E+00 0. -1.
         11    1    1    2    0    0  0.56622321143E+01  0.31398643077E+01 -0.36425262208E+03  0.36431015950E+03  0.00000000000E+00 0.  1.
        -15    1    1    2    0    0 -0.16284371495E+02 -0.90278045795E+01 -0.12582007448E+03  0.12720271570E+03  0.17770000000E+01 0. -1.
         15    1    1    2    0    0  0.13171543960E+01  0.10674252442E+02 -0.59059671241E+01  0.12398094111E+02  0.17770000000E+01 0.  1.
</event>
<event>
 6    1  0.3365733E-003  0.5003162E+03  0.7546771E-02  0.9399102E-01
        -11   -1    0    0    0    0  0.00000000000E+00  0.00000000000E+00  0.50000000000E+03  0.50000000000E+03  0.00000000000E+00 0.  1.
         11   -1    0    0    0    0 -0.00000000000E+00 -0.00000000000E+00 -0.50000000000E+03  0.50000000000E+03  0.00000000000E+00 0. -1.
        -11    1    1    2    0    0  0.72869398941E+01 -0.32014697536E+01  0.16323095745E+03  0.16342488908E+03  0.00000000000E+00 0.  1.
         11    1    1    2    0    0 -0.13515136318E+01  0.79534797301E+01 -0.49961865597E+03  0.49968378583E+03  0.00000000000E+00 0. -1.
        -15    1    1    2    0    0  0.57406346393E+00 -0.93499638574E+01  0.22654541533E+03  0.22674596867E+03  0.17770000000E+01 0.  1.
         15    1    1    2    0    0 -0.65094897262E+01  0.45979538809E+01  0.10984228318E+03  0.11014535642E+03  0.17770000000E+01 0. -1.
</event>
<event>
 6    1  0.3365733E-003  0.5008177E+03  0.7546771E-02  0.9397982E-01
        -11   -1    0    0    0    0  0.00000000000E+00  0.00000000000E+00  0.50000000000E+03  0.50000000000E+03  0.00000000000E+00 0. -1.
         11   -1    0    0    0    0 -0.00000000000E+00 -0.00000000000E+00 -0.50000000000E+03  0.50000000000E+03  0.00000000000E+00 0. -1.
        -11    1    1    2    0    0 -0.18031744099E+01  0.43722339493E+01  0.30799011613E+03  0.30802642662E+03  0.00000000000E+00 0. -1.
         11    1    1    2    0    0  0.62631868098E+00  0.16572014125E+02 -0.49890679253E+03  0.49918234299E+03  0.00000000000E+00 0. -1.
        -15    1    1    2    0    0  0.55043430520E+01 -0.20930669143E+01  0.75641842898E+02  0.75891533438E+02  0.17770000000E+01 0. -1.
         15    1    1    2    0    0 -0.43274873231E+01 -0.18851181160E+02  0.11527483350E+03  0.11689969694E+03  0.17770000000E+01 0.  1.
</event>
<event>
 6    1  0.3365733E-003  0.5017382E+03  0.7546771E-02  0.9395929E-01
        -11   -1    0    0    0    0  0.00000000000E+00  0.00000000000E+00  0.50000000000E+03  0.50000000000E+03  0.00000000000E+00 0. -1.
         11   -1    0    0    0    0 -0.00000000000E+00 -0.00000000000E+00 -0.50000000000E+03  0.50000000000E+03  0.00000000000E+00 0. -1.
        -11    1    1    2    0    0  0.25354045958E+01 -0.86487995552E+01  0.47900380584E+03  0.47908858891E+03  0.00000000000E+00 0. -1.
         11    1    1    2    0    0 -0.93734623991E+01  0.28488660517E+01 -0.49816549476E+03  0.49826181672E+03  0.00000000000E+00 0. -1.
        -15    1    1    2    0    0  0.46737038390E+01 -0.21796472144E+00  0.11312273394E+02  0.12369974718E+02  0.17770000000E+01 0.  1.
         15    1    1    2    0    0  0.21643539643E+01  0.60178982249E+01  0.78494155255E+01  0.10279619653E+02  0.17770000000E+01 0. -1.
</event>
<event>
 6    1  0.3365733E-003  0.5016638E+03  0.7546771E-02  0.9396095E-01
        -11   -1    0    0    0    0  0.00000000000E+00  0.00000000000E+00  0.50000000000E+03  0.50000000000E+03  0.00000000000E+00 0. -1.
         11   -1    0    0    0    0 -0.00000000000E+00 -0.00000000000E+00 -0.50000000000E+03  0.50000000000E+03  0.00000000000E+00 0. -1.
        -11    1    1    2    0    0  0.45999974191E+01  0.47803754725E+01  0.18475755016E+03  0.18487661915E+03  0.00000000000E+00 0. -1.
         11    1    1    2    0    0  0.34394057352E+01 -0.91140896652E+01 -0.49824098944E+03  0.49833621151E+03  0.00000000000E+00 0. -1.
        -15    1    1    2    0    0  0.11438355917E+02  0.74148978956E+01  0.35031629814E+02  0.37632293489E+02  0.17770000000E+01 0. -1.
         15    1    1    2    0    0 -0.19477759071E+02 -0.30811837030E+01  0.27845180946E+03  0.27915487586E+03  0.17770000000E+01 0.  1.
</event>
<event>
 6    1  0.3365733E-003  0.5208117E+03  0.7546771E-02  0.9354409E-01
        -11   -1    0    0    0    0  0.00000000000E+00  0.00000000000E+00  0.50000000000E+03  0.50000000000E+03  0.00000000000E+00 0. -1.
         11   -1    0    0    0    0 -0.00000000000E+00 -0.00000000000E+00 -0.50000000000E+03  0.50000000000E+03  0.00000000000E+00 0.  1.
        -11    1    1    2    0    0  0.15193881595E+02 -0.14707842278E+02  0.47872147260E+03  0.47918829597E+03  0.00000000000E+00 0. -1.
         11    1    1    2    0    0 -0.36886690933E+02 -0.46190246616E+01 -0.40239017381E+03  0.40410371854E+03  0.00000000000E+00 0.  1.
        -15    1    1    2    0    0 -0.23667481031E+02  0.55124761202E-01  0.23483170200E+01  0.23850052807E+02  0.17770000000E+01 0. -1.
         15    1    1    2    0    0  0.45360290370E+02  0.19271742178E+02 -0.78679615816E+02  0.92857932687E+02  0.17770000000E+01 0.  1.
</event>
<event>
 6    1  0.3365733E-003  0.4821674E+03  0.7546771E-02  0.9440620E-01
        -11   -1    0    0    0    0  0.00000000000E+00  0.00000000000E+00  0.50000000000E+03  0.50000000000E+03  0.00000000000E+00 0.  1.
         11   -1    0    0    0    0 -0.00000000000E+00 -0.00000000000E+00 -0.50000000000E+03  0.50000000000E+03  0.00000000000E+00 0. -1.
        -11    1    1    2    0    0  0.11305106997E+02  0.11659206944E+02  0.47903127639E+03  0.47930648474E+03  0.00000000000E+00 0.  1.
         11    1    1    2    0    0  0.20456177210E+01  0.12850682009E+02 -0.48527790396E+03  0.48545233407E+03  0.00000000000E+00 0. -1.
        -15    1    1    2    0    0 -0.93311223064E+01 -0.32744452668E+01 -0.45349388170E+01  0.11023394866E+02  0.17770000000E+01 0.  1.
         15    1    1    2    0    0 -0.40196024117E+01 -0.21235443686E+02  0.10781566386E+02  0.24217786332E+02  0.17770000000E+01 0. -1.
</event>
<event>
 6    1  0.3365733E-003  0.5077825E+03  0.7546771E-02  0.9382562E-01
        -11   -1    0    0    0    0  0.00000000000E+00  0.00000000000E+00  0.50000000000E+03  0.50000000000E+03  0.00000000000E+00 0.  1.
         11   -1    0    0    0    0 -0.00000000000E+00 -0.00000000000E+00 -0.50000000000E+03  0.50000000000E+03  0.00000000000E+00 0. -1.
        -11    1    1    2    0    0 -0.11843948544E+02  0.93853892395E+01  0.42122673090E+03  0.42149771467E+03  0.00000000000E+00 0.  1.
         11    1    1    2    0    0  0.19538880582E+02 -0.12200610310E+02 -0.49167820649E+03  0.49221751440E+03  0.00000000000E+00 0. -1.
        -15    1    1    2    0    0 -0.28639763018E+02  0.99488724597E+00  0.41233126355E+02  0.50244942674E+02  0.17770000000E+01 0.  1.
         15    1    1    2    0    0  0.20944830980E+02  0.18203338250E+01  0.29218349228E+02  0.36039828255E+02  0.17770000000E+01 0. -1.
</event>
<event>
 6    1  0.3365733E-003  0.4818190E+03  0.7546771E-02  0.9441436E-01
        -11   -1    0    0    0    0  0.00000000000E+00  0.00000000000E+00  0.50000000000E+03  0.50000000000E+03  0.00000000000E+00 0.  1.
         11   -1    0    0    0    0 -0.00000000000E+00 -0.00000000000E+00 -0.50000000000E+03  0.50000000000E+03  0.00000000000E+00 0.  1.
        -11    1    1    2    0    0 -0.10970739921E+02  0.31291875322E+01  0.48257461526E+03  0.48270944495E+03  0.00000000000E+00 0.  1.
         11    1    1    2    0    0 -0.79968078826E+01  0.80902409923E+01 -0.48104719738E+03  0.48118167780E+03  0.00000000000E+00 0.  1.
        -15    1    1    2    0    0  0.10393707412E+02 -0.14226004272E+02  0.10762716061E+02  0.20722020590E+02  0.17770000000E+01 0. -1.
         15    1    1    2    0    0  0.85738403919E+01  0.30065757477E+01 -0.12290133937E+02  0.15386856664E+02  0.17770000000E+01 0.  1.
</event>
<event>
 6    1  0.3365733E-003  0.5031430E+03  0.7546771E-02  0.9392804E-01
        -11   -1    0    0    0    0  0.00000000000E+00  0.00000000000E+00  0.50000000000E+03  0.50000000000E+03  0.00000000000E+00 0.  1.
         11   -1    0    0    0    0 -0.00000000000E+00 -0.00000000000E+00 -0.50000000000E+03  0.50000000000E+03  0.00000000000E+00 0. -1.
        -11    1    1    2    0    0  0.71024771801E+01 -0.56277180461E+01  0.49677440105E+03  0.49685704376E+03  0.00000000000E+00 0.  1.
         11    1    1    2    0    0  0.97333985512E+01 -0.64437354735E-01 -0.42616950513E+03  0.42628064734E+03  0.00000000000E+00 0. -1.
        -15    1    1    2    0    0 -0.22321602481E+01 -0.75569822333E+01 -0.36891897106E+02  0.37765861845E+02  0.17770000000E+01 0. -1.
         15    1    1    2    0    0 -0.14603715483E+02  0.13249137634E+02 -0.33712998817E+02  0.39096447053E+02  0.17770000000E+01 0.  1.
</event>
<event>
 6    1  0.3365733E-003  0.4903722E+03  0.7546771E-02  0.9421614E-01
        -11   -1    0    0    0    0  0.00000000000E+00  0.00000000000E+00  0.50000000000E+03  0.50000000000E+03  0.00000000000E+00 0.  1.
         11   -1    0    0    0    0 -0.00000000000E+00 -0.00000000000E+00 -0.50000000000E+03  0.50000000000E+03  0.00000000000E+00 0. -1.
        -11    1    1    2    0    0  0.65691590934E+01  0.98943495936E+01  0.49181917425E+03  0.49196255159E+03  0.00000000000E+00 0.  1.
         11    1    1    2    0    0  0.28390445982E+01 -0.11367173466E+02 -0.48869266944E+03  0.48883309828E+03  0.00000000000E+00 0. -1.
        -15    1    1    2    0    0 -0.32593957366E+01 -0.42401093641E+01 -0.76530851813E+01  0.95041901170E+01  0.17770000000E+01 0.  1.
         15    1    1    2    0    0 -0.61488079549E+01  0.57129332363E+01  0.45265803689E+01  0.97001600124E+01  0.17770000000E+01 0. -1.
</event>
<event>
 6    1  0.3365733E-003  0.5014417E+03  0.7546771E-02  0.9396589E-01
        -11   -1    0    0    0    0  0.00000000000E+00  0.00000000000E+00  0.50000000000E+03  0.50000000000E+03  0.00000000000E+00 0. -1.
         11   -1    0    0    0    0 -0.00000000000E+00 -0.00000000000E+00 -0.50000000000E+03  0.50000000000E+03  0.00000000000E+00 0.  1.
        -11    1    1    2    0    0 -0.12680250596E+01  0.58967990626E+01  0.37461059737E+03  0.37465915148E+03  0.00000000000E+00 0. -1.
         11    1    1    2    0    0  0.72132342310E+01  0.83686244721E+01 -0.49843583187E+03  0.49855826452E+03  0.00000000000E+00 0.  1.
        -15    1    1    2    0    0 -0.83302484383E+01  0.26647533274E+01  0.26815168262E+02  0.28261368107E+02  0.17770000000E+01 0.  1.
         15    1    1    2    0    0  0.23850392668E+01 -0.16930176862E+02  0.97010066242E+02  0.98521215899E+02  0.17770000000E+01 0. -1.
</event>
<event>
 6    1  0.3365733E-003  0.5002144E+03  0.7546771E-02  0.9399330E-01
        -11   -1    0    0    0    0  0.00000000000E+00  0.00000000000E+00  0.50000000000E+03  0.50000000000E+03  0.00000000000E+00 0. -1.
         11   -1    0    0    0    0 -0.00000000000E+00 -0.00000000000E+00 -0.50000000000E+03  0.50000000000E+03  0.00000000000E+00 0. -1.
        -11    1    1    2    0    0  0.36661385404E+01 -0.88628902309E+00  0.22239918145E+03  0.22243116236E+03  0.00000000000E+00 0. -1.
         11    1    1    2    0    0 -0.40587116273E+00 -0.72273172053E+01 -0.49973314683E+03  0.49978557091E+03  0.00000000000E+00 0. -1.
        -15    1    1    2    0    0 -0.44701183795E+01  0.22476984361E+01  0.38148907323E+02  0.38516632324E+02  0.17770000000E+01 0. -1.
         15    1    1    2    0    0  0.12098510019E+01  0.58659077923E+01  0.23918505806E+03  0.23926663440E+03  0.17770000000E+01 0.  1.
</event>
<event>
 6    1  0.3365733E-003  0.5043987E+03  0.7546771E-02  0.9390021E-01
        -11   -1    0    0    0    0  0.00000000000E+00  0.00000000000E+00  0.50000000000E+03  0.50000000000E+03  0.00000000000E+00 0.  1.
         11   -1    0    0    0    0 -0.00000000000E+00 -0.00000000000E+00 -0.50000000000E+03  0.50000000000E+03  0.00000000000E+00 0.  1.
        -11    1    1    2    0    0  0.13823458029E+01 -0.11293397864E+02  0.34076196397E+03  0.34095185555E+03  0.00000000000E+00 0.  1.
         11    1    1    2    0    0 -0.11960169678E+02  0.99729524538E+01 -0.49535662376E+03  0.49560134195E+03  0.00000000000E+00 0.  1.
        -15    1    1    2    0    0 -0.13669126185E+01  0.86449944624E+01  0.75792399797E+00  0.89630662805E+01  0.17770000000E+01 0.  1.
         15    1    1    2    0    0  0.11944736494E+02 -0.73245490521E+01  0.15383673579E+03  0.15448373622E+03  0.17770000000E+01 0. -1.
</event>
<event>
 6    1  0.3365733E-003  0.5006657E+03  0.7546771E-02  0.9398321E-01
        -11   -1    0    0    0    0  0.00000000000E+00  0.00000000000E+00  0.50000000000E+03  0.50000000000E+03  0.00000000000E+00 0.  1.
         11   -1    0    0    0    0 -0.00000000000E+00 -0.00000000000E+00 -0.50000000000E+03  0.50000000000E+03  0.00000000000E+00 0. -1.
        -11    1    1    2    0    0  0.50387227007E+01  0.23559601314E+01  0.16932260175E+03  0.16941393903E+03  0.00000000000E+00 0.  1.
         11    1    1    2    0    0 -0.71016061757E+01  0.21603617583E+01 -0.49927911790E+03  0.49933429438E+03  0.00000000000E+00 0. -1.
        -15    1    1    2    0    0  0.13493291266E+02 -0.18644982459E+01  0.94157256660E+02  0.95154043391E+02  0.17770000000E+01 0.  1.
         15    1    1    2    0    0 -0.11430407791E+02 -0.26518236438E+01  0.23579925949E+03  0.23609772319E+03  0.17770000000E+01 0.  1.
</event>
<event>
 6    1  0.3365733E-003  0.5017501E+03  0.7546771E-02  0.9395902E-01
        -11   -1    0    0    0    0  0.00000000000E+00  0.00000000000E+00  0.50000000000E+03  0.50000000000E+03  0.00000000000E+00 0. -1.
         11   -1    0    0    0    0 -0.00000000000E+00 -0.00000000000E+00 -0.50000000000E+03  0.50000000000E+03  0.00000000000E+00 0.  1.
        -11    1    1    2    0    0 -0.72542829951E+01 -0.84049368859E+01  0.40057690239E+03  0.40073073542E+03  0.00000000000E+00 0. -1.
         11    1    1    2    0    0  0.35898716267E+01 -0.71559982472E+01 -0.49818555561E+03  0.49824988039E+03  0.00000000000E+00 0.  1.
        -15    1    1    2    0    0  0.12988082281E+01  0.16591786606E+02  0.96091537788E+02  0.97538277866E+02  0.17770000000E+01 0.  1.
         15    1    1    2    0    0  0.23656031403E+01 -0.10308514725E+01  0.15171154336E+01  0.34811063205E+01  0.17770000000E+01 0. -1.
</event>
<event>
 6    1  0.3365733E-003  0.5198151E+03  0.7546771E-02  0.9356532E-01
        -11   -1    0    0    0    0  0.00000000000E+00  0.00000000000E+00  0.50000000000E+03  0.50000000000E+03  0.00000000000E+00 0.  1.
         11   -1    0    0    0    0 -0.00000000000E+00 -0.00000000000E+00 -0.50000000000E+03  0.50000000000E+03  0.00000000000E+00 0. -1.
        -11    1    1    2    0    0 -0.17030650791E+02  0.29391566628E+01  0.47987377227E+03  0.48018488004E+03  0.00000000000E+00 0.  1.
         11    1    1    2    0    0 -0.14422451774E+02  0.16658215950E+02 -0.35494709380E+03  0.35563034554E+03  0.00000000000E+00 0. -1.
        -15    1    1    2    0    0  0.26029257391E+02 -0.50471017063E+02 -0.30101543292E+02  0.64297017359E+02  0.17770000000E+01 0.  1.
         15    1    1    2    0    0  0.54238451742E+01  0.30873644450E+02 -0.94825135179E+02  0.99887757051E+02  0.17770000000E+01 0. -1.
</event>
<event>
 6    1  0.3365733E-003  0.5001832E+03  0.7546771E-02  0.9399400E-01
        -11   -1    0    0    0    0  0.00000000000E+00  0.00000000000E+00  0.50000000000E+03  0.50000000000E+03  0.00000000000E+00 0.  1.
         11   -1    0    0    0    0 -0.00000000000E+00 -0.00000000000E+00 -0.50000000000E+03  0.50000000000E+03  0.00000000000E+00 0. -1.
        -11    1    1    2    0    0  0.44482552489E+01  0.28441004890E+01  0.18617473661E+03  0.18624958640E+03  0.00000000000E+00 0.  1.
         11    1    1    2    0    0  0.62411720336E+01 -0.35942093702E+01 -0.49976488567E+03  0.49981677795E+03  0.00000000000E+00 0. -1.
        -15    1    1    2    0    0 -0.20806021472E+00 -0.19271920547E+01  0.12324137320E+03  0.12326942507E+03  0.17770000000E+01 0. -1.
         15    1    1    2    0    0 -0.10481367068E+02  0.26773009359E+01  0.19034877586E+03  0.19066421058E+03  0.17770000000E+01 0.  1.
</event>
<event>
 6    1  0.3365733E-003  0.5002847E+03  0.7546771E-02  0.9399173E-01
        -11   -1    0    0    0    0  0.00000000000E+00  0.00000000000E+00  0.50000000000E+03  0.50000000000E+03  0.00000000000E+00 0. -1.
         11   -1    0    0    0    0 -0.00000000000E+00 -0.00000000000E+00 -0.50000000000E+03  0.50000000000E+03  0.00000000000E+00 0.  1.
        -11    1    1    2    0    0  0.56748337333E+01 -0.15746409013E+01  0.20537720456E+03  0.20546162509E+03  0.00000000000E+00 0. -1.
         11    1    1    2    0    0 -0.46130605353E+01  0.52447205987E+01 -0.49966648759E+03  0.49971530519E+03  0.00000000000E+00 0.  1.
        -15    1    1    2    0    0  0.46517642557E+01  0.38912987992E+01  0.59250690324E+02  0.59586769924E+02  0.17770000000E+01 0.  1.
         15    1    1    2    0    0 -0.57135374537E+01 -0.75613784966E+01  0.23503859270E+03  0.23523629980E+03  0.17770000000E+01 0. -1.
</event>
<event>
 6    1  0.3365733E-003  0.5025036E+03  0.7546771E-02  0.9394225E-01
        -11   -1    0    0    0    0  0.00000000000E+00  0.00000000000E+00  0.50000000000E+03  0.50000000000E+03  0.00000000000E+00 0. -1.
         11   -1    0    0    0    0 -0.00000000000E+00 -0.00000000000E+00 -0.50000000000E+03  0.50000000000E+03  0.00000000000E+00 0. -1.
        -11    1    1    2    0    0 -0.73049438307E+01 -0.49019533877E+01  0.49741858684E+03  0.49749637374E+03  0.00000000000E+00 0. -1.
         11    1    1    2    0    0  0.72282718722E+00 -0.55054509609E+01 -0.37954044397E+03  0.37958105996E+03  0.00000000000E+00 0. -1.
        -15    1    1    2    0    0  0.68725983128E+00  0.87377063749E+01 -0.11589875490E+03  0.11624327488E+03  0.17770000000E+01 0.  1.
         15    1    1    2    0    0  0.58948568122E+01  0.16696979737E+01 -0.19793879651E+01  0.66792914202E+01  0.17770000000E+01 0.  1.
</event>
<event>
 6    1  0.3365733E-003  0.5114867E+03  0.7546771E-02  0.9374468E-01
        -11   -1    0    0    0    0  0.00000000000E+00  0.00000000000E+00  0.50000000000E+03  0.50000000000E+03  0.00000000000E+00 0. -1.
         11   -1    0    0    0    0 -0.00000000000E+00 -0.00000000000E+00 -0.50000000000E+03  0.50000000000E+03  0.00000000000E+00 0. -1.
        -11    1    1    2    0    0 -0.11611522037E+02 -0.52932639348E+01  0.48834662855E+03  0.48851333217E+03  0.00000000000E+00 0. -1.
         11    1    1    2    0    0 -0.31432430850E+01  0.11532958196E+01 -0.13575855902E+03  0.13579983953E+03  0.00000000000E+00 0. -1.
        -15    1    1    2    0    0  0.23304792698E+02  0.41778279542E+01 -0.36204029640E+03  0.36281800059E+03  0.17770000000E+01 0. -1.
         15    1    1    2    0    0 -0.85500275761E+01 -0.37859838908E-01  0.94522268697E+01  0.12868827713E+02  0.17770000000E+01 0.  1.
</event>
<event>
 6    1  0.3365733E-003  0.5037295E+03  0.7546771E-02  0.9391503E-01
        -11   -1    0    0    0    0  0.00000000000E+00  0.00000000000E+00  0.50000000000E+03  0.50000000000E+03  0.00000000000E+00 0. -1.
         11   -1    0    0    0    0 -0.00000000000E+00 -0.00000000000E+00 -0.50000000000E+03  0.50000000000E+03  0.00000000000E+00 0. -1.
        -11    1    1    2    0    0  0.56485385214E+01 -0.23901354896E+01  0.37905452033E+03  0.37910413888E+03  0.00000000000E+00 0. -1.
         11    1    1    2    0    0 -0.17783523144E+02 -0.12613246336E+02 -0.49579137185E+03  0.49627052308E+03  0.00000000000E+00 0. -1.
        -15    1    1    2    0    0 -0.67510098530E+01 -0.86316591057E+01  0.51638494170E+02  0.52818306316E+02  0.17770000000E+01 0.  1.
         15    1    1    2    0    0  0.18885994475E+02  0.23635040932E+02  0.65098357347E+02  0.71807031727E+02  0.17770000000E+01 0.  1.
</event>
<event>
 6    1  0.3365733E-003  0.5031911E+03  0.7546771E-02  0.9392698E-01
        -11   -1    0    0    0    0  0.00000000000E+00  0.00000000000E+00  0.50000000000E+03  0.50000000000E+03  0.00000000000E+00 0.  1.
         11   -1    0    0    0    0 -0.00000000000E+00 -0.00000000000E+00 -0.50000000000E+03  0.50000000000E+03  0.00000000000E+00 0. -1.
        -11    1    1    2    0    0  0.29639837775E+01 -0.28916186658E+01  0.18188555846E+03  0.18193268820E+03  0.00000000000E+00 0.  1.
         11    1    1    2    0    0  0.14030437781E+02 -0.10795216285E+02 -0.49649340712E+03  0.49680891014E+03  0.00000000000E+00 0. -1.
        -15    1    1    2    0    0 -0.25921104991E+02  0.68203009643E+01  0.53153963724E+02  0.59556038970E+02  0.17770000000E+01 0. -1.
         15    1    1    2    0    0  0.89266834326E+01  0.68665339864E+01  0.26145388493E+03  0.26170236269E+03  0.17770000000E+01 0.  1.
</event>
<event>
 6    1  0.3365733E-003  0.5086209E+03  0.7546771E-02  0.9380724E-01
        -11   -1    0    0    0    0  0.00000000000E+00  0.00000000000E+00  0.50000000000E+03  0.50000000000E+03  0.00000000000E+00 0.  1.
         11   -1    0    0    0    0 -0.00000000000E+00 -0.00000000000E+00 -0.50000000000E+03  0.50000000000E+03  0.00000000000E+00 0. -1.
        -11    1    1    2    0    0 -0.92326113323E+01 -0.11709035966E+01  0.49129100099E+03  0.49137914056E+03  0.00000000000E+00 0.  1.
         11    1    1    2    0    0  0.16571981657E+02  0.22597832877E+01 -0.48421958498E+03  0.48450835254E+03  0.00000000000E+00 0. -1.
        -15    1    1    2    0    0 -0.45745836520E+01 -0.42310326452E+01 -0.14227777157E+02  0.15633803909E+02  0.17770000000E+01 0. -1.
         15    1    1    2    0    0 -0.27647866728E+01  0.31421529541E+01  0.71563611485E+01  0.84787029917E+01  0.17770000000E+01 0.  1.
</event>
<event>
 6    1  0.3365733E-003  0.5002236E+03  0.7546771E-02  0.9399310E-01
        -11   -1    0    0    0    0  0.00000000000E+00  0.00000000000E+00  0.50000000000E+03  0.50000000000E+03  0.00000000000E+00 0. -1.
         11   -1    0    0    0    0 -0.00000000000E+00 -0.00000000000E+00 -0.50000000000E+03  0.50000000000E+03  0.00000000000E+00 0. -1.
        -11    1    1    2    0    0  0.27937141255E+01 -0.79934923567E+01  0.49970467713E+03  0.49977641512E+03  0.00000000000E+00 0. -1.
         11    1    1    2    0    0  0.10578975722E+01  0.56199895869E+00 -0.44303361412E+01  0.45894300765E+01  0.00000000000E+00 0. -1.
        -15    1    1    2    0    0 -0.69583708860E+01  0.62592822012E+01 -0.46843569932E+03  0.46853255987E+03  0.17770000000E+01 0. -1.
         15    1    1    2    0    0  0.31067591883E+01  0.11722111968E+01 -0.26838641676E+02  0.27101594930E+02  0.17770000000E+01 0.  1.
</event>
<event>
 6    1  0.3418649E-003  0.5006056E+03  0.7546771E-02  0.9398456E-01
        -11   -1    0    0    0    0  0.00000000000E+00  0.00000000000E+00  0.50000000000E+03  0.50000000000E+03  0.00000000000E+00 0.  1.
         11   -1    0    0    0    0 -0.00000000000E+00 -0.00000000000E+00 -0.50000000000E+03  0.50000000000E+03  0.00000000000E+00 0. -1.
        -11    1    1    2    0    0  0.36886846631E+01 -0.11049412462E+02  0.49925847536E+03  0.49939435433E+03  0.00000000000E+00 0.  1.
         11    1    1    2    0    0  0.22692054355E+01 -0.22115483541E+01 -0.23375833477E+03  0.23377980947E+03  0.00000000000E+00 0. -1.
        -15    1    1    2    0    0 -0.30089455226E+01  0.15367428374E+02 -0.96571667460E+02  0.97849150702E+02  0.17770000000E+01 0.  1.
         15    1    1    2    0    0 -0.29489445760E+01 -0.21064675577E+01 -0.16892847313E+03  0.16897668550E+03  0.17770000000E+01 0. -1.
</event>
<event>
 6    1  0.3365733E-003  0.5004596E+03  0.7546771E-02  0.9398782E-01
        -11   -1    0    0    0    0  0.00000000000E+00  0.00000000000E+00  0.50000000000E+03  0.50000000000E+03  0.00000000000E+00 0. -1.
         11   -1    0    0    0    0 -0.00000000000E+00 -0.00000000000E+00 -0.50000000000E+03  0.50000000000E+03  0.00000000000E+00 0. -1.
        -11    1    1    2    0    0  0.94186276483E+00 -0.71720247941E+01  0.49948799400E+03  0.49954036994E+03  0.00000000000E+00 0. -1.
         11    1    1    2    0    0  0.58862955165E+01 -0.18025948307E-01 -0.38309956170E+03  0.38314478069E+03  0.00000000000E+00 0. -1.
        -15    1    1    2    0    0 -0.38755805545E+01 -0.98488250642E+00 -0.17877069919E+02  0.18404822088E+02  0.17770000000E+01 0.  1.
         15    1    1    2    0    0 -0.29525777269E+01  0.81749332489E+01 -0.98511362385E+02  0.98910027282E+02  0.17770000000E+01 0. -1.
</event>
<event>
 6    1  0.3365733E-003  0.5098934E+03  0.7546771E-02  0.9377941E-01
        -11   -1    0    0    0    0  0.00000000000E+00  0.00000000000E+00  0.50000000000E+03  0.50000000000E+03  0.00000000000E+00 0. -1.
         11   -1    0    0    0    0 -0.00000000000E+00 -0.00000000000E+00 -0.50000000000E+03  0.50000000000E+03  0.00000000000E+00 0.  1.
        -11    1    1    2    0    0  0.13435521534E+02 -0.13569543878E+02  0.48973444670E+03  0.49010659458E+03  0.00000000000E+00 0. -1.
         11    1    1    2    0    0 -0.29637336677E+02 -0.22866543188E+01 -0.38307921903E+03  0.38423077514E+03  0.00000000000E+00 0.  1.
        -15    1    1    2    0    0  0.10230936434E+02  0.23690917981E+02 -0.11155745917E+03  0.11451705585E+03  0.17770000000E+01 0.  1.
         15    1    1    2    0    0  0.59708787096E+01 -0.78347197834E+01  0.49022315019E+01  0.11145574429E+02  0.17770000000E+01 0. -1.
</event>
<event>
 6    1  0.3365733E-003  0.5023177E+03  0.7546771E-02  0.9394639E-01
        -11   -1    0    0    0    0  0.00000000000E+00  0.00000000000E+00  0.50000000000E+03  0.50000000000E+03  0.00000000000E+00 0.  1.
         11   -1    0    0    0    0 -0.00000000000E+00 -0.00000000000E+00 -0.50000000000E+03  0.50000000000E+03  0.00000000000E+00 0. -1.
        -11    1    1    2    0    0 -0.12728193856E+02  0.14399854996E+02  0.39032890173E+03  0.39080175827E+03  0.00000000000E+00 0.  1.
         11    1    1    2    0    0 -0.79349313265E+01 -0.50790589979E+01 -0.49759313469E+03  0.49768231601E+03  0.00000000000E+00 0. -1.
        -15    1    1    2    0    0  0.21736255910E+00  0.50937344962E+01  0.20613225123E+02  0.21308593491E+02  0.17770000000E+01 0. -1.
         15    1    1    2    0    0  0.20445762623E+02 -0.14414530495E+02  0.86651007844E+02  0.90207332229E+02  0.17770000000E+01 0.  1.
</event>
<event>
 6    1  0.3365733E-003  0.5016812E+03  0.7546771E-02  0.9396056E-01
        -11   -1    0    0    0    0  0.00000000000E+00  0.00000000000E+00  0.50000000000E+03  0.50000000000E+03  0.00000000000E+00 0.  1.
         11   -1    0    0    0    0 -0.00000000000E+00 -0.00000000000E+00 -0.50000000000E+03  0.50000000000E+03  0.00000000000E+00 0. -1.
        -11    1    1    2    0    0  0.62427040100E+01  0.47098688026E+01  0.49825747057E+03  0.49831883488E+03  0.00000000000E+00 0.  1.
         11    1    1    2    0    0 -0.67786211149E+01 -0.54863270401E+01 -0.44549704258E+03  0.44558238793E+03  0.00000000000E+00 0. -1.
        -15    1    1    2    0    0  0.71522937732E-01  0.62714316292E+01 -0.48426754311E+02  0.48863526605E+02  0.17770000000E+01 0.  1.
         15    1    1    2    0    0  0.46439416712E+00 -0.54949733917E+01 -0.43336736774E+01  0.72352505872E+01  0.17770000000E+01 0. -1.
</event>
<event>
 6    1  0.3365733E-003  0.5129963E+03  0.7546771E-02  0.9371190E-01
        -11   -1    0    0    0    0  0.00000000000E+00  0.00000000000E+00  0.50000000000E+03  0.50000000000E+03  0.00000000000E+00 0. -1.
         11   -1    0    0    0    0 -0.00000000000E+00 -0.00000000000E+00 -0.50000000000E+03  0.50000000000E+03  0.00000000000E+00 0.  1.
        -11    1    1    2    0    0  0.28655811746E+01  0.55228170980E+01  0.39928974769E+03  0.39933822215E+03  0.00000000000E+00 0. -1.
         11    1    1    2    0    0 -0.19026589305E+01  0.15376732001E+02 -0.48675713915E+03  0.48700367197E+03  0.00000000000E+00 0.  1.
        -15    1    1    2    0    0  0.12829424432E+02 -0.14289369076E+02  0.94701971674E+02  0.96645751938E+02  0.17770000000E+01 0. -1.
         15    1    1    2    0    0 -0.13792346676E+02 -0.66101800221E+01 -0.72345802113E+01  0.17012353940E+02  0.17770000000E+01 0.  1.
</event>
<event>
 6    1  0.3365733E-003  0.5017999E+03  0.7546771E-02  0.9395791E-01
        -11   -1    0    0    0    0  0.00000000000E+00  0.00000000000E+00  0.50000000000E+03  0.50000000000E+03  0.00000000000E+00 0. -1.
         11   -1    0    0    0    0 -0.00000000000E+00 -0.00000000000E+00 -0.50000000000E+03  0.50000000000E+03  0.00000000000E+00 0. -1.
        -11    1    1    2    0    0 -0.31676538235E+00  0.92070485396E+01  0.32749987347E+03  0.32762942054E+03  0.00000000000E+00 0. -1.
         11    1    1    2    0    0 -0.32961507087E+00  0.70481151805E+01 -0.49815016359E+03  0.49820013053E+03  0.00000000000E+00 0. -1.
        -15    1    1    2    0    0  0.37454665446E+00 -0.12303235733E+02  0.16910554528E+03  0.16956223951E+03  0.17770000000E+01 0. -1.
         15    1    1    2    0    0  0.27183379876E+00 -0.39519279870E+01  0.15447448440E+01  0.46082094203E+01  0.17770000000E+01 0.  1.
</event>
<event>
 6    1  0.3365733E-003  0.4755852E+03  0.7546771E-02  0.9456160E-01
        -11   -1    0    0    0    0  0.00000000000E+00  0.00000000000E+00  0.50000000000E+03  0.50000000000E+03  0.00000000000E+00 0. -1.
         11   -1    0    0    0    0 -0.00000000000E+00 -0.00000000000E+00 -0.50000000000E+03  0.50000000000E+03  0.00000000000E+00 0. -1.
        -11    1    1    2    0    0 -0.49876857343E+00 -0.73182163749E+01  0.47532752475E+03  0.47538411927E+03  0.00000000000E+00 0. -1.
         11    1    1    2    0    0 -0.15341985222E+01  0.82485855485E+01 -0.47571498219E+03  0.47578896289E+03  0.00000000000E+00 0. -1.
        -15    1    1    2    0    0  0.18055112394E+02 -0.64177616516E+01 -0.16125118376E+02  0.25106810228E+02  0.17770000000E+01 0.  1.
         15    1    1    2    0    0 -0.16022145298E+02  0.54873924780E+01  0.16512575815E+02  0.23720107614E+02  0.17770000000E+01 0. -1.
</event>
<event>
 6    1  0.3365733E-003  0.5011061E+03  0.7546771E-02  0.9397338E-01
        -11   -1    0    0    0    0  0.00000000000E+00  0.00000000000E+00  0.50000000000E+03  0.50000000000E+03  0.00000000000E+00 0. -1.
         11   -1    0    0    0    0 -0.00000000000E+00 -0.00000000000E+00 -0.50000000000E+03  0.50000000000E+03  0.00000000000E+00 0. -1.
        -11    1    1    2    0    0 -0.97328655260E+01  0.10199082660E+01  0.49879793181E+03  0.49889392225E+03  0.00000000000E+00 0. -1.
         11    1    1    2    0    0 -0.19613072120E+01  0.60309600171E+01 -0.35930773962E+03  0.35936370289E+03  0.00000000000E+00 0. -1.
        -15    1    1    2    0    0  0.49770887899E+01 -0.42404928813E+00 -0.64198022459E+01  0.83260326986E+01  0.17770000000E+01 0. -1.
         15    1    1    2    0    0  0.67170839481E+01 -0.66268189949E+01 -0.13307038994E+03  0.13341634216E+03  0.17770000000E+01 0.  1.
</event>
<event>
 6    1  0.3365733E-003  0.5036071E+03  0.7546771E-02  0.9391775E-01
        -11   -1    0    0    0    0  0.00000000000E+00  0.00000000000E+00  0.50000000000E+03  0.50000000000E+03  0.00000000000E+00 0. -1.
         11   -1    0    0    0    0 -0.00000000000E+00 -0.00000000000E+00 -0.50000000000E+03  0.50000000000E+03  0.00000000000E+00 0. -1.
        -11    1    1    2    0    0  0.31599196391E+01 -0.10313769337E+02  0.22408185587E+03  0.22434134051E+03  0.00000000000E+00 0. -1.
         11    1    1    2    0    0  0.22589418050E+01 -0.23844387860E+02 -0.49581477489E+03  0.49639293775E+03  0.00000000000E+00 0. -1.
        -15    1    1    2    0    0  0.13555261853E+02  0.10822802842E+02  0.23772506551E+02  0.29481655007E+02  0.17770000000E+01 0. -1.
         15    1    1    2    0    0 -0.18974123297E+02  0.23335354355E+02  0.24796041247E+03  0.24978406674E+03  0.17770000000E+01 0.  1.
</event>
<event>
 6    1  0.3365733E-003  0.5038809E+03  0.7546771E-02  0.9391168E-01
        -11   -1    0    0    0    0  0.00000000000E+00  0.00000000000E+00  0.50000000000E+03  0.50000000000E+03  0.00000000000E+00 0.  1.
         11   -1    0    0    0    0 -0.00000000000E+00 -0.00000000000E+00 -0.50000000000E+03  0.50000000000E+03  0.00000000000E+00 0.  1.
        -11    1    1    2    0    0  0.17312809167E+02  0.10387328921E+01  0.49581583031E+03  0.49611908844E+03  0.00000000000E+00 0.  1.
         11    1    1    2    0    0  0.36674167652E+00 -0.84039571808E+01 -0.33013996012E+03  0.33024711091E+03  0.00000000000E+00 0.  1.
        -15    1    1    2    0    0  0.60855422538E+01  0.16847230606E+02 -0.11919000329E+03  0.12054160118E+03  0.17770000000E+01 0.  1.
         15    1    1    2    0    0 -0.23765093097E+02 -0.94820063172E+01 -0.46485866906E+02  0.53092199471E+02  0.17770000000E+01 0. -1.
</event>
<event>
 6    1  0.3365733E-003  0.5255760E+03  0.7546771E-02  0.9344332E-01
        -11   -1    0    0    0    0  0.00000000000E+00  0.00000000000E+00  0.50000000000E+03  0.50000000000E+03  0.00000000000E+00 0. -1.
         11   -1    0    0    0    0 -0.00000000000E+00 -0.00000000000E+00 -0.50000000000E+03  0.50000000000E+03  0.00000000000E+00 0.  1.
        -11    1    1    2    0    0 -0.21065044451E+00 -0.22700028926E+02  0.34524934880E+03  0.34599486779E+03  0.00000000000E+00 0. -1.
         11    1    1    2    0    0  0.15443545901E+02  0.30496550933E+01 -0.47416275286E+03  0.47442398728E+03  0.00000000000E+00 0.  1.
        -15    1    1    2    0    0  0.50812224835E+00  0.20285993829E+02  0.15101435764E+03  0.15238199919E+03  0.17770000000E+01 0. -1.
         15    1    1    2    0    0 -0.15741017705E+02 -0.63561999622E+00 -0.22100953577E+02  0.27199145744E+02  0.17770000000E+01 0. -1.
</event>
<event>
 6    1  0.3365733E-003  0.5085042E+03  0.7546771E-02  0.9380979E-01
        -11   -1    0    0    0    0  0.00000000000E+00  0.00000000000E+00  0.50000000000E+03  0.50000000000E+03  0.00000000000E+00 0.  1.
         11   -1    0    0    0    0 -0.00000000000E+00 -0.00000000000E+00 -0.50000000000E+03  0.50000000000E+03  0.00000000000E+00 0.  1.
        -11    1    1    2    0    0 -0.26223589474E+01  0.34528945247E+01  0.27300284295E+03  0.27303727127E+03  0.00000000000E+00 0.  1.
         11    1    1    2    0    0  0.22390184856E+02 -0.93575045732E+01 -0.49089636230E+03  0.49149580037E+03  0.00000000000E+00 0.  1.
        -15    1    1    2    0    0 -0.22639241613E+02 -0.21940195905E+02  0.19936664302E+03  0.20185173652E+03  0.17770000000E+01 0.  1.
         15    1    1    2    0    0  0.28714157044E+01  0.27844805953E+02  0.18526876333E+02  0.33615191839E+02  0.17770000000E+01 0. -1.
</event>
<event>
 6    1  0.3365733E-003  0.5002715E+03  0.7546771E-02  0.9399202E-01
        -11   -1    0    0    0    0  0.00000000000E+00  0.00000000000E+00  0.50000000000E+03  0.50000000000E+03  0.00000000000E+00 0.  1.
         11   -1    0    0    0    0 -0.00000000000E+00 -0.00000000000E+00 -0.50000000000E+03  0.50000000000E+03  0.00000000000E+00 0.  1.
        -11    1    1    2    0    0  0.33779044646E+01 -0.64596954548E+01  0.49967529767E+03  0.49972846728E+03  0.00000000000E+00 0.  1.
         11    1    1    2    0    0 -0.31365062317E+01 -0.22335539717E+01 -0.15788036458E+03  0.15792731225E+03  0.00000000000E+00 0.  1.
        -15    1    1    2    0    0 -0.61207619777E+01 -0.32735747952E+00 -0.21043410821E+03  0.21053085882E+03  0.17770000000E+01 0.  1.
         15    1    1    2    0    0  0.58793637449E+01  0.90206069061E+01 -0.13136082488E+03  0.13181336165E+03  0.17770000000E+01 0. -1.
</event>
<event>
 6    1  0.3365733E-003  0.5019489E+03  0.7546771E-02  0.9395459E-01
        -11   -1    0    0    0    0  0.00000000000E+00  0.00000000000E+00  0.50000000000E+03  0.50000000000E+03  0.00000000000E+00 0. -1.
         11   -1    0    0    0    0 -0.00000000000E+00 -0.00000000000E+00 -0.50000000000E+03  0.50000000000E+03  0.00000000000E+00 0. -1.
        -11    1    1    2    0    0 -0.10487089516E+02 -0.73342352384E+01  0.49788668402E+03  0.49805112205E+03  0.00000000000E+00 0. -1.
         11    1    1    2    0    0  0.58443541071E+01 -0.12226656772E+02 -0.40914669715E+03  0.40937106322E+03  0.00000000000E+00 0. -1.
        -15    1    1    2    0    0  0.65491071735E+01  0.23109298164E+00 -0.19803961875E+02  0.20935587971E+02  0.17770000000E+01 0. -1.
         15    1    1    2    0    0 -0.19063717650E+01  0.19329799029E+02 -0.68936024994E+02  0.71642226758E+02  0.17770000000E+01 0.  1.
</event>
<event>
 6    1  0.3365733E-003  0.4914982E+03  0.7546771E-02  0.9419037E-01
        -11   -1    0    0    0    0  0.00000000000E+00  0.00000000000E+00  0.50000000000E+03  0.50000000000E+03  0.00000000000E+00 0. -1.
         11   -1    0    0    0    0 -0.00000000000E+00 -0.00000000000E+00 -0.50000000000E+03  0.50000000000E+03  0.00000000000E+00 0. -1.
        -11    1    1    2    0    0  0.19544895472E+01 -0.80687002926E+01  0.49162400945E+03  0.49169410269E+03  0.00000000000E+00 0. -1.
         11    1    1    2    0    0  0.37806502643E+01  0.59233410510E+01 -0.49127112983E+03  0.49132138391E+03  0.00000000000E+00 0. -1.
        -15    1    1    2    0    0 -0.26903960139E+01 -0.54925521413E+01 -0.43077277086E+01  0.76889925705E+01  0.17770000000E+01 0. -1.
         15    1    1    2    0    0 -0.30447437976E+01  0.76379113829E+01  0.39548480902E+01  0.92955208301E+01  0.17770000000E+01 0.  1.
</event>
<event>
 6    1  0.3365733E-003  0.3533786E+03  0.7546771E-02  0.9805163E-01
        -11   -1    0    0    0    0  0.00000000000E+00  0.00000000000E+00  0.50000000000E+03  0.50000000000E+03  0.00000000000E+00 0. -1.
         11   -1    0    0    0    0 -0.00000000000E+00 -0.00000000000E+00 -0.50000000000E+03  0.50000000000E+03  0.00000000000E+00 0. -1.
        -11    1    1    2    0    0 -0.17419546459E+02  0.24105962818E+02  0.61479747733E+01  0.30369979191E+02  0.00000000000E+00 0. -1.
         11    1    1    2    0    0  0.32384880602E+02  0.31859601855E+02 -0.42592136337E+03  0.42833727657E+03  0.00000000000E+00 0. -1.
        -15    1    1    2    0    0 -0.15982967456E+03  0.34797811629E+02  0.15019982932E+03  0.22208007345E+03  0.17770000000E+01 0. -1.
         15    1    1    2    0    0  0.14486434042E+03 -0.90763376301E+02  0.26957355928E+03  0.31921267079E+03  0.17770000000E+01 0.  1.
</event>
<event>
 6    1  0.3365733E-003  0.5013239E+03  0.7546771E-02  0.9396852E-01
        -11   -1    0    0    0    0  0.00000000000E+00  0.00000000000E+00  0.50000000000E+03  0.50000000000E+03  0.00000000000E+00 0. -1.
         11   -1    0    0    0    0 -0.00000000000E+00 -0.00000000000E+00 -0.50000000000E+03  0.50000000000E+03  0.00000000000E+00 0.  1.
        -11    1    1    2    0    0 -0.62166772200E+01  0.57946175754E+01  0.42655855873E+03  0.42664321006E+03  0.00000000000E+00 0. -1.
         11    1    1    2    0    0 -0.70732454916E+01  0.15698384710E+01 -0.49862345947E+03  0.49867609681E+03  0.00000000000E+00 0.  1.
        -15    1    1    2    0    0  0.93599875879E+01 -0.57369737146E+01  0.66640358570E+02  0.67561951973E+02  0.17770000000E+01 0. -1.
         15    1    1    2    0    0  0.39299351237E+01 -0.16274823318E+01  0.54245421749E+01  0.71187411544E+01  0.17770000000E+01 0.  1.
</event>
<event>
 6    1  0.3365733E-003  0.4926418E+03  0.7546771E-02  0.9416426E-01
        -11   -1    0    0    0    0  0.00000000000E+00  0.00000000000E+00  0.50000000000E+03  0.50000000000E+03  0.00000000000E+00 0. -1.
         11   -1    0    0    0    0 -0.00000000000E+00 -0.00000000000E+00 -0.50000000000E+03  0.50000000000E+03  0.00000000000E+00 0. -1.
        -11    1    1    2    0    0 -0.27616546016E+01  0.79138384126E+01  0.49323281936E+03  0.49330403370E+03  0.00000000000E+00 0. -1.
         11    1    1    2    0    0  0.27458875690E+01 -0.11560835728E+02 -0.49184377958E+03  0.49198729285E+03  0.00000000000E+00 0. -1.
        -15    1    1    2    0    0  0.17961870635E+01 -0.34235268153E+01 -0.48435887158E+01  0.64470849591E+01  0.17770000000E+01 0. -1.
         15    1    1    2    0    0 -0.17804200309E+01  0.70705241306E+01  0.34545489350E+01  0.82615884860E+01  0.17770000000E+01 0.  1.
</event>
<event>
 6    1  0.3365733E-003  0.5022638E+03  0.7546771E-02  0.9394759E-01
        -11   -1    0    0    0    0  0.00000000000E+00  0.00000000000E+00  0.50000000000E+03  0.50000000000E+03  0.00000000000E+00 0.  1.
         11   -1    0    0    0    0 -0.00000000000E+00 -0.00000000000E+00 -0.50000000000E+03  0.50000000000E+03  0.00000000000E+00 0. -1.
        -11    1    1    2    0    0 -0.93287800625E+00  0.68667354476E+01  0.49768796136E+03  0.49773620443E+03  0.00000000000E+00 0.  1.
         11    1    1    2    0    0 -0.12166648918E+01 -0.56511716546E+01 -0.40713123914E+03  0.40717227545E+03  0.00000000000E+00 0. -1.
        -15    1    1    2    0    0 -0.10545871956E+01 -0.10796008871E+02 -0.13753118654E+02  0.17606020658E+02  0.17770000000E+01 0. -1.
         15    1    1    2    0    0  0.32041300936E+01  0.95804450780E+01 -0.76803603567E+02  0.77485499466E+02  0.17770000000E+01 0. -1.
</event>
<event>
 6    1  0.3365733E-003  0.5136637E+03  0.7546771E-02  0.9369745E-01
        -11   -1    0    0    0    0  0.00000000000E+00  0.00000000000E+00  0.50000000000E+03  0.50000000000E+03  0.00000000000E+00 0.  1.
         11   -1    0    0    0    0 -0.00000000000E+00 -0.00000000000E+00 -0.50000000000E+03  0.50000000000E+03  0.00000000000E+00 0.  1.
        -11    1    1    2    0    0 -0.14771646154E+02  0.68586492956E+01  0.48606348927E+03  0.48633626042E+03  0.00000000000E+00 0.  1.
         11    1    1    2    0    0  0.18257968846E+02 -0.86878077010E+01 -0.44653913224E+03  0.44699667566E+03  0.00000000000E+00 0.  1.
        -15    1    1    2    0    0  0.13029436641E+02 -0.52821327905E+01  0.76828307390E+01  0.16119887194E+02  0.17770000000E+01 0. -1.
         15    1    1    2    0    0 -0.16515759333E+02  0.71112911960E+01 -0.47207187772E+02  0.50547176728E+02  0.17770000000E+01 0. -1.
</event>
<event>
 6    1  0.3365733E-003  0.5029187E+03  0.7546771E-02  0.9393302E-01
        -11   -1    0    0    0    0  0.00000000000E+00  0.00000000000E+00  0.50000000000E+03  0.50000000000E+03  0.00000000000E+00 0.  1.
         11   -1    0    0    0    0 -0.00000000000E+00 -0.00000000000E+00 -0.50000000000E+03  0.50000000000E+03  0.00000000000E+00 0. -1.
        -11    1    1    2    0    0  0.81542867383E+01 -0.18531447069E+01  0.49701094039E+03  0.49708128249E+03  0.00000000000E+00 0.  1.
         11    1    1    2    0    0  0.47496476763E+01  0.66778712456E+01 -0.38710470144E+03  0.38719142939E+03  0.00000000000E+00 0. -1.
        -15    1    1    2    0    0 -0.64167628655E+01 -0.80848816506E+00 -0.10724366154E+03  0.10745319525E+03  0.17770000000E+01 0. -1.
         15    1    1    2    0    0 -0.64871715491E+01 -0.40162383736E+01 -0.26625774072E+01  0.82740928706E+01  0.17770000000E+01 0.  1.
</event>
<event>
 6    1  0.3365733E-003  0.5043277E+03  0.7546771E-02  0.9390178E-01
        -11   -1    0    0    0    0  0.00000000000E+00  0.00000000000E+00  0.50000000000E+03  0.50000000000E+03  0.00000000000E+00 0. -1.
         11   -1    0    0    0    0 -0.00000000000E+00 -0.00000000000E+00 -0.50000000000E+03  0.50000000000E+03  0.00000000000E+00 0.  1.
        -11    1    1    2    0    0  0.34714600676E+01 -0.60738720634E+01  0.49562287992E+03  0.49567225266E+03  0.00000000000E+00 0. -1.
         11    1    1    2    0    0  0.43210001174E+01 -0.68342103811E+01 -0.44144909401E+03  0.44152313651E+03  0.00000000000E+00 0.  1.
        -15    1    1    2    0    0  0.10007611328E+02  0.84372665533E+01 -0.25402580122E+02  0.28631949938E+02  0.17770000000E+01 0. -1.
         15    1    1    2    0    0 -0.17800071513E+02  0.44708158912E+01 -0.28771205793E+02  0.34172660891E+02  0.17770000000E+01 0.  1.
</event>
<event>
 6    1  0.3365733E-003  0.5124029E+03  0.7546771E-02  0.9372477E-01
        -11   -1    0    0    0    0  0.00000000000E+00  0.00000000000E+00  0.50000000000E+03  0.50000000000E+03  0.00000000000E+00 0. -1.
         11   -1    0    0    0    0 -0.00000000000E+00 -0.00000000000E+00 -0.50000000000E+03  0.50000000000E+03  0.00000000000E+00 0. -1.
        -11    1    1    2    0    0 -0.38570269183E+02 -0.10209636605E+02  0.48596198715E+03  0.48759712397E+03  0.00000000000E+00 0. -1.
         11    1    1    2    0    0  0.19734269473E+02  0.19896703385E+02 -0.46987433560E+03  0.47070926425E+03  0.00000000000E+00 0. -1.
        -15    1    1    2    0    0  0.21026654032E+01  0.11514776795E+01  0.90680105005E+01  0.95463944022E+01  0.17770000000E+01 0. -1.
         15    1    1    2    0    0  0.16733334306E+02 -0.10838544459E+02 -0.25155662052E+02  0.32147217380E+02  0.17770000000E+01 0.  1.
</event>
<event>
 6    1  0.3365733E-003  0.5021363E+03  0.7546771E-02  0.9395042E-01
        -11   -1    0    0    0    0  0.00000000000E+00  0.00000000000E+00  0.50000000000E+03  0.50000000000E+03  0.00000000000E+00 0.  1.
         11   -1    0    0    0    0 -0.00000000000E+00 -0.00000000000E+00 -0.50000000000E+03  0.50000000000E+03  0.00000000000E+00 0. -1.
        -11    1    1    2    0    0 -0.84819773827E+00 -0.64834172174E+01  0.43917443428E+03  0.43922310716E+03  0.00000000000E+00 0.  1.
         11    1    1    2    0    0  0.13116857327E+02 -0.47212229667E+01 -0.49766845916E+03  0.49786367324E+03  0.00000000000E+00 0. -1.
        -15    1    1    2    0    0 -0.13196494563E+02  0.10737248558E+02  0.31532904655E+02  0.35873636285E+02  0.17770000000E+01 0.  1.
         15    1    1    2    0    0  0.92783497427E+00  0.46739162591E+00  0.26961120223E+02  0.27039583306E+02  0.17770000000E+01 0. -1.
</event>
<event>
 6    1  0.3365733E-003  0.5010214E+03  0.7546771E-02  0.9397527E-01
        -11   -1    0    0    0    0  0.00000000000E+00  0.00000000000E+00  0.50000000000E+03  0.50000000000E+03  0.00000000000E+00 0.  1.
         11   -1    0    0    0    0 -0.00000000000E+00 -0.00000000000E+00 -0.50000000000E+03  0.50000000000E+03  0.00000000000E+00 0.  1.
        -11    1    1    2    0    0  0.15357035515E+01 -0.40706602211E+01  0.14440635814E+03  0.14447188284E+03  0.00000000000E+00 0.  1.
         11    1    1    2    0    0 -0.12232768860E+01  0.90098894486E+01 -0.49889576750E+03  0.49897861812E+03  0.00000000000E+00 0.  1.
        -15    1    1    2    0    0 -0.11095371022E+02 -0.76729294609E+01  0.49045802330E+02  0.50898227472E+02  0.17770000000E+01 0. -1.
         15    1    1    2    0    0  0.10782944357E+02  0.27337002335E+01  0.30544360703E+03  0.30565127157E+03  0.17770000000E+01 0.  1.
</event>
<event>
 6    1  0.3365733E-003  0.5054857E+03  0.7546771E-02  0.9387618E-01
        -11   -1    0    0    0    0  0.00000000000E+00  0.00000000000E+00  0.50000000000E+03  0.50000000000E+03  0.00000000000E+00 0.  1.
         11   -1    0    0    0    0 -0.00000000000E+00 -0.00000000000E+00 -0.50000000000E+03  0.50000000000E+03  0.00000000000E+00 0.  1.
        -11    1    1    2    0    0  0.31044796625E+01  0.40164053462E+01  0.34250232719E+03  0.34253994429E+03  0.00000000000E+00 0.  1.
         11    1    1    2    0    0 -0.56524897128E+01 -0.46199645800E+01 -0.49446041820E+03  0.49451430705E+03  0.00000000000E+00 0.  1.
        -15    1    1    2    0    0  0.11592463998E+02 -0.19596522057E+01  0.12743075369E+01  0.11958555389E+02  0.17770000000E+01 0. -1.
         15    1    1    2    0    0 -0.90444539473E+01  0.25632114396E+01  0.15068378347E+03  0.15098719327E+03  0.17770000000E+01 0.  1.
</event>
<event>
 6    1  0.3365733E-003  0.5038774E+03  0.7546771E-02  0.9391175E-01
        -11   -1    0    0    0    0  0.00000000000E+00  0.00000000000E+00  0.50000000000E+03  0.50000000000E+03  0.00000000000E+00 0.  1.
         11   -1    0    0    0    0 -0.00000000000E+00 -0.00000000000E+00 -0.50000000000E+03  0.50000000000E+03  0.00000000000E+00 0.  1.
        -11    1    1    2    0    0 -0.19173446054E+02 -0.13659904997E+02  0.29698805563E+03  0.29791965230E+03  0.00000000000E+00 0.  1.
         11    1    1    2    0    0  0.51440700034E+01 -0.45220306334E+01 -0.49607534179E+03  0.49612262088E+03  0.00000000000E+00 0.  1.
        -15    1    1    2    0    0  0.16899331809E+02  0.80888397212E+00  0.17623263769E+03  0.17705180605E+03  0.17770000000E+01 0. -1.
         15    1    1    2    0    0 -0.28699557581E+01  0.17373051658E+02  0.22854648468E+02  0.28905920770E+02  0.17770000000E+01 0.  1.
</event>
<event>
 6    1  0.3365733E-003  0.4748930E+03  0.7546771E-02  0.9457810E-01
        -11   -1    0    0    0    0  0.00000000000E+00  0.00000000000E+00  0.50000000000E+03  0.50000000000E+03  0.00000000000E+00 0. -1.
         11   -1    0    0    0    0 -0.00000000000E+00 -0.00000000000E+00 -0.50000000000E+03  0.50000000000E+03  0.00000000000E+00 0.  1.
        -11    1    1    2    0    0  0.40625023589E+00 -0.12017680150E+02  0.47237533181E+03  0.47252835235E+03  0.00000000000E+00 0. -1.
         11    1    1    2    0    0  0.77531730294E+00 -0.88329168343E+01 -0.47741817604E+03  0.47750050926E+03  0.00000000000E+00 0.  1.
        -15    1    1    2    0    0 -0.19030642545E+02  0.24343195344E+02  0.65473382222E+01  0.31635136827E+02  0.17770000000E+01 0. -1.
         15    1    1    2    0    0  0.17849075006E+02 -0.34925983601E+01 -0.15044939957E+01  0.18336001556E+02  0.17770000000E+01 0.  1.
</event>
<event>
 6    1  0.3365733E-003  0.4877867E+03  0.7546771E-02  0.9427560E-01
        -11   -1    0    0    0    0  0.00000000000E+00  0.00000000000E+00  0.50000000000E+03  0.50000000000E+03  0.00000000000E+00 0.  1.
         11   -1    0    0    0    0 -0.00000000000E+00 -0.00000000000E+00 -0.50000000000E+03  0.50000000000E+03  0.00000000000E+00 0. -1.
        -11    1    1    2    0    0  0.11423919998E+02  0.10189447789E+00  0.49025987800E+03  0.49039296926E+03  0.00000000000E+00 0.  1.
         11    1    1    2    0    0  0.10555398848E+02  0.82685203620E+00 -0.48532545243E+03  0.48544092834E+03  0.00000000000E+00 0. -1.
        -15    1    1    2    0    0 -0.20561735270E+01 -0.11761400460E+01  0.12702291315E+01  0.32221679080E+01  0.17770000000E+01 0.  1.
         15    1    1    2    0    0 -0.19923145319E+02  0.24739353188E+00 -0.62046546943E+01  0.20943934488E+02  0.17770000000E+01 0. -1.
</event>
<event>
 6    1  0.3365733E-003  0.5158716E+03  0.7546771E-02  0.9364980E-01
        -11   -1    0    0    0    0  0.00000000000E+00  0.00000000000E+00  0.50000000000E+03  0.50000000000E+03  0.00000000000E+00 0.  1.
         11   -1    0    0    0    0 -0.00000000000E+00 -0.00000000000E+00 -0.50000000000E+03  0.50000000000E+03  0.00000000000E+00 0.  1.
        -11    1    1    2    0    0 -0.15320650797E+02  0.35241291940E+02  0.48260086994E+03  0.48412836177E+03  0.00000000000E+00 0.  1.
         11    1    1    2    0    0 -0.11513454088E+02  0.91098777370E+01 -0.29903299598E+03  0.29939318994E+03  0.00000000000E+00 0.  1.
        -15    1    1    2    0    0 -0.24190210321E+02 -0.11855906757E+02 -0.13827836949E+03  0.14088929696E+03  0.17770000000E+01 0. -1.
         15    1    1    2    0    0  0.51024315206E+02 -0.32495262920E+02 -0.45289504481E+02  0.75589151336E+02  0.17770000000E+01 0.  1.
</event>
<event>
 6    1  0.3365733E-003  0.5001032E+03  0.7546771E-02  0.9399579E-01
        -11   -1    0    0    0    0  0.00000000000E+00  0.00000000000E+00  0.50000000000E+03  0.50000000000E+03  0.00000000000E+00 0. -1.
         11   -1    0    0    0    0 -0.00000000000E+00 -0.00000000000E+00 -0.50000000000E+03  0.50000000000E+03  0.00000000000E+00 0. -1.
        -11    1    1    2    0    0 -0.23017091061E+01 -0.38939548229E+01  0.16469614748E+03  0.16475825243E+03  0.00000000000E+00 0. -1.
         11    1    1    2    0    0  0.10872423095E+02 -0.27802323803E+00 -0.49977848093E+03  0.49989680624E+03  0.00000000000E+00 0. -1.
        -15    1    1    2    0    0 -0.66679899248E+01  0.17868393905E+01  0.10791653620E+03  0.10815170549E+03  0.17770000000E+01 0. -1.
         15    1    1    2    0    0 -0.19027240642E+01  0.23851386704E+01  0.22716579725E+03  0.22719323584E+03  0.17770000000E+01 0.  1.
</event>
<event>
 6    1  0.3365733E-003  0.4244844E+03  0.7546771E-02  0.9586701E-01
        -11   -1    0    0    0    0  0.00000000000E+00  0.00000000000E+00  0.50000000000E+03  0.50000000000E+03  0.00000000000E+00 0. -1.
         11   -1    0    0    0    0 -0.00000000000E+00 -0.00000000000E+00 -0.50000000000E+03  0.50000000000E+03  0.00000000000E+00 0. -1.
        -11    1    1    2    0    0 -0.40022637366E+02 -0.55097994581E+02  0.43487792815E+03  0.44017770605E+03  0.00000000000E+00 0. -1.
         11    1    1    2    0    0 -0.28950238660E+00  0.17990210544E+02 -0.41051199630E+03  0.41090610921E+03  0.00000000000E+00 0. -1.
        -15    1    1    2    0    0 -0.96516510737E+01  0.11283967545E+02 -0.73015229974E+02  0.74530958864E+02  0.17770000000E+01 0. -1.
         15    1    1    2    0    0  0.49963790826E+02  0.25823816491E+02  0.48649298118E+02  0.74385225873E+02  0.17770000000E+01 0.  1.
</event>
<event>
 6    1  0.3365733E-003  0.5379170E+03  0.7546771E-02  0.9318749E-01
        -11   -1    0    0    0    0  0.00000000000E+00  0.00000000000E+00  0.50000000000E+03  0.50000000000E+03  0.00000000000E+00 0.  1.
         11   -1    0    0    0    0 -0.00000000000E+00 -0.00000000000E+00 -0.50000000000E+03  0.50000000000E+03  0.00000000000E+00 0. -1.
        -11    1    1    2    0    0 -0.35510005619E+01  0.94179173330E+01  0.46197332590E+03  0.46208295859E+03  0.00000000000E+00 0.  1.
         11    1    1    2    0    0 -0.26338652421E+01  0.68909531018E+01 -0.29920476295E+03  0.29929569434E+03  0.00000000000E+00 0. -1.
        -15    1    1    2    0    0  0.10454248456E+02 -0.48287458131E+01 -0.19951072074E+03  0.19985067804E+03  0.17770000000E+01 0. -1.
         15    1    1    2    0    0 -0.42693826517E+01 -0.11480124622E+02  0.36742157778E+02  0.38770669026E+02  0.17770000000E+01 0.  1.
</event>
<event>
 6    1  0.3365733E-003  0.5010929E+03  0.7546771E-02  0.9397368E-01
        -11   -1    0    0    0    0  0.00000000000E+00  0.00000000000E+00  0.50000000000E+03  0.50000000000E+03  0.00000000000E+00 0. -1.
         11   -1    0    0    0    0 -0.00000000000E+00 -0.00000000000E+00 -0.50000000000E+03  0.50000000000E+03  0.00000000000E+00 0. -1.
        -11    1    1    2    0    0  0.28690304066E+01 -0.14766119543E+01  0.95562204069E+02  0.95616664682E+02  0.00000000000E+00 0. -1.
         11    1    1    2    0    0 -0.53899796223E+01 -0.73571018373E+01 -0.49882375532E+03  0.49890712332E+03  0.00000000000E+00 0. -1.
        -15    1    1    2    0    0  0.12546099927E+02  0.13149842852E+02  0.81337469602E+02  0.83362249734E+02  0.17770000000E+01 0. -1.
         15    1    1    2    0    0 -0.10025150711E+02 -0.43161290599E+01  0.32192408164E+03  0.32211396227E+03  0.17770000000E+01 0.  1.
</event>
<event>
 6    1  0.3365733E-003  0.5001834E+03  0.7546771E-02  0.9399399E-01
        -11   -1    0    0    0    0  0.00000000000E+00  0.00000000000E+00  0.50000000000E+03  0.50000000000E+03  0.00000000000E+00 0.  1.
         11   -1    0    0    0    0 -0.00000000000E+00 -0.00000000000E+00 -0.50000000000E+03  0.50000000000E+03  0.00000000000E+00 0.  1.
        -11    1    1    2    0    0  0.62753664693E+01  0.34018004009E+01  0.49976560961E+03  0.49981658338E+03  0.00000000000E+00 0.  1.
         11    1    1    2    0    0  0.74066139490E+00 -0.21778776617E+01 -0.16608227481E+03  0.16609820509E+03  0.00000000000E+00 0.  1.
        -15    1    1    2    0    0 -0.88143372202E+01  0.26592388837E+01 -0.12529582565E+03  0.12564619272E+03  0.17770000000E+01 0. -1.
         15    1    1    2    0    0  0.17983093561E+01 -0.38831616229E+01 -0.20838750916E+03  0.20843901881E+03  0.17770000000E+01 0.  1.
</event>
<event>
 6    1  0.3365733E-003  0.5028245E+03  0.7546771E-02  0.9393512E-01
        -11   -1    0    0    0    0  0.00000000000E+00  0.00000000000E+00  0.50000000000E+03  0.50000000000E+03  0.00000000000E+00 0.  1.
         11   -1    0    0    0    0 -0.00000000000E+00 -0.00000000000E+00 -0.50000000000E+03  0.50000000000E+03  0.00000000000E+00 0.  1.
        -11    1    1    2    0    0  0.69633411424E+01  0.25167383307E+00  0.46102538361E+03  0.46107803656E+03  0.00000000000E+00 0.  1.
         11    1    1    2    0    0  0.74581178347E+01 -0.33114824101E+01 -0.49710851219E+03  0.49717548445E+03  0.00000000000E+00 0.  1.
        -15    1    1    2    0    0 -0.10914550814E+02  0.23953249185E+01  0.36023712416E+02  0.37758847787E+02  0.17770000000E+01 0.  1.
         15    1    1    2    0    0 -0.35069081628E+01  0.66448365857E+00  0.59416166411E-01  0.39876312111E+01  0.17770000000E+01 0. -1.
</event>
<event>
 6    1  0.3365733E-003  0.5003350E+03  0.7546771E-02  0.9399060E-01
        -11   -1    0    0    0    0  0.00000000000E+00  0.00000000000E+00  0.50000000000E+03  0.50000000000E+03  0.00000000000E+00 0.  1.
         11   -1    0    0    0    0 -0.00000000000E+00 -0.00000000000E+00 -0.50000000000E+03  0.50000000000E+03  0.00000000000E+00 0. -1.
        -11    1    1    2    0    0  0.80834108415E+01  0.47733334165E+01  0.19980366910E+03  0.20002407962E+03  0.00000000000E+00 0.  1.
         11    1    1    2    0    0 -0.84247642462E+01  0.10641519901E+02 -0.49948060795E+03  0.49966498408E+03  0.00000000000E+00 0. -1.
        -15    1    1    2    0    0  0.27529345765E+01 -0.32836002753E+01  0.31158844639E+02  0.31502254012E+02  0.17770000000E+01 0. -1.
         15    1    1    2    0    0 -0.24115811718E+01 -0.12131253042E+02  0.26851809421E+03  0.26880868228E+03  0.17770000000E+01 0.  1.
</event>
<event>
 6    1  0.3365733E-003  0.5043679E+03  0.7546771E-02  0.9390089E-01
        -11   -1    0    0    0    0  0.00000000000E+00  0.00000000000E+00  0.50000000000E+03  0.50000000000E+03  0.00000000000E+00 0.  1.
         11   -1    0    0    0    0 -0.00000000000E+00 -0.00000000000E+00 -0.50000000000E+03  0.50000000000E+03  0.00000000000E+00 0.  1.
        -11    1    1    2    0    0 -0.47955438612E+01 -0.46770319942E+01  0.47451158388E+03  0.47455886369E+03  0.00000000000E+00 0.  1.
         11    1    1    2    0    0  0.34577910349E+01 -0.70360689529E+01 -0.49557005225E+03  0.49563206038E+03  0.00000000000E+00 0.  1.
        -15    1    1    2    0    0 -0.86067082839E-01  0.10356664928E+01 -0.28558968440E+01  0.35204954780E+01  0.17770000000E+01 0.  1.
         15    1    1    2    0    0  0.14238199092E+01  0.10677434454E+02  0.23914365218E+02  0.26288580457E+02  0.17770000000E+01 0. -1.
</event>
<event>
 6    1  0.3365733E-003  0.5027159E+03  0.7546771E-02  0.9393753E-01
        -11   -1    0    0    0    0  0.00000000000E+00  0.00000000000E+00  0.50000000000E+03  0.50000000000E+03  0.00000000000E+00 0. -1.
         11   -1    0    0    0    0 -0.00000000000E+00 -0.00000000000E+00 -0.50000000000E+03  0.50000000000E+03  0.00000000000E+00 0.  1.
        -11    1    1    2    0    0 -0.70343447847E+01 -0.88473196087E-01  0.43700839551E+03  0.43706501528E+03  0.00000000000E+00 0. -1.
         11    1    1    2    0    0 -0.31477028633E+01 -0.60386905545E+01 -0.49723750184E+03  0.49728413111E+03  0.00000000000E+00 0.  1.
        -15    1    1    2    0    0  0.40383827046E+01 -0.81181062790E+00  0.54345225466E+02  0.54530072724E+02  0.17770000000E+01 0. -1.
         15    1    1    2    0    0  0.61436649434E+01  0.69389743785E+01  0.58838808637E+01  0.11120780880E+02  0.17770000000E+01 0. -1.
</event>
<event>
 6    1  0.3365733E-003  0.5031880E+03  0.7546771E-02  0.9392704E-01
        -11   -1    0    0    0    0  0.00000000000E+00  0.00000000000E+00  0.50000000000E+03  0.50000000000E+03  0.00000000000E+00 0. -1.
         11   -1    0    0    0    0 -0.00000000000E+00 -0.00000000000E+00 -0.50000000000E+03  0.50000000000E+03  0.00000000000E+00 0. -1.
        -11    1    1    2    0    0  0.63541133328E+01 -0.90809837535E+01  0.49668831672E+03  0.49681195938E+03  0.00000000000E+00 0. -1.
         11    1    1    2    0    0 -0.18306288182E+02  0.23178139720E-03 -0.46140979821E+03  0.46177280352E+03  0.00000000000E+00 0. -1.
        -15    1    1    2    0    0 -0.36137204461E+01  0.20221054597E+01 -0.76779279461E+01  0.89025947059E+01  0.17770000000E+01 0.  1.
         15    1    1    2    0    0  0.15565895295E+02  0.70586465124E+01 -0.27600590557E+02  0.32512642387E+02  0.17770000000E+01 0. -1.
</event>
<event>
 6    1  0.3365733E-003  0.5078299E+03  0.7546771E-02  0.9382458E-01
        -11   -1    0    0    0    0  0.00000000000E+00  0.00000000000E+00  0.50000000000E+03  0.50000000000E+03  0.00000000000E+00 0. -1.
         11   -1    0    0    0    0 -0.00000000000E+00 -0.00000000000E+00 -0.50000000000E+03  0.50000000000E+03  0.00000000000E+00 0.  1.
        -11    1    1    2    0    0  0.21341127106E+01 -0.13161523131E+02  0.49198949997E+03  0.49217014152E+03  0.00000000000E+00 0. -1.
         11    1    1    2    0    0 -0.92239956440E+01  0.77947242982E+01 -0.39068625111E+03  0.39087285226E+03  0.00000000000E+00 0.  1.
        -15    1    1    2    0    0 -0.73050688925E+01 -0.20020736674E+02 -0.73725474074E+02  0.76764556828E+02  0.17770000000E+01 0.  1.
         15    1    1    2    0    0  0.14394951826E+02  0.25387535506E+02 -0.27577774780E+02  0.40192449390E+02  0.17770000000E+01 0. -1.
</event>
<event>
 6    1  0.3365733E-003  0.5035811E+03  0.7546771E-02  0.9391832E-01
        -11   -1    0    0    0    0  0.00000000000E+00  0.00000000000E+00  0.50000000000E+03  0.50000000000E+03  0.00000000000E+00 0.  1.
         11   -1    0    0    0    0 -0.00000000000E+00 -0.00000000000E+00 -0.50000000000E+03  0.50000000000E+03  0.00000000000E+00 0. -1.
        -11    1    1    2    0    0 -0.68247863698E+01  0.29810219707E+01  0.49636300240E+03  0.49641886986E+03  0.00000000000E+00 0.  1.
         11    1    1    2    0    0  0.49975010643E+01  0.14215936011E+02 -0.45677329934E+03  0.45702178815E+03  0.00000000000E+00 0. -1.
        -15    1    1    2    0    0  0.53805311550E+01 -0.14436303972E+02 -0.15274450678E+02  0.21767488610E+02  0.17770000000E+01 0.  1.
         15    1    1    2    0    0 -0.35532458496E+01 -0.27606540098E+01 -0.24315252382E+02  0.24791853380E+02  0.17770000000E+01 0. -1.
</event>
<event>
 6    1  0.3365733E-003  0.5031450E+03  0.7546771E-02  0.9392800E-01
        -11   -1    0    0    0    0  0.00000000000E+00  0.00000000000E+00  0.50000000000E+03  0.50000000000E+03  0.00000000000E+00 0.  1.
         11   -1    0    0    0    0 -0.00000000000E+00 -0.00000000000E+00 -0.50000000000E+03  0.50000000000E+03  0.00000000000E+00 0.  1.
        -11    1    1    2    0    0  0.32900059678E+01  0.84539193907E+01  0.46416169960E+03  0.46425033793E+03  0.00000000000E+00 0.  1.
         11    1    1    2    0    0 -0.75414542625E+01 -0.14428779981E+01 -0.49679567602E+03  0.49685500816E+03  0.00000000000E+00 0.  1.
        -15    1    1    2    0    0 -0.75718144676E+01 -0.41664048514E+01  0.12349502616E+02  0.15177590308E+02  0.17770000000E+01 0.  1.
         15    1    1    2    0    0  0.11823262762E+02 -0.28446365412E+01  0.20284473801E+02  0.23717063600E+02  0.17770000000E+01 0. -1.
</event>
<event>
 6    1  0.3365733E-003  0.5087825E+03  0.7546771E-02  0.9380370E-01
        -11   -1    0    0    0    0  0.00000000000E+00  0.00000000000E+00  0.50000000000E+03  0.50000000000E+03  0.00000000000E+00 0.  1.
         11   -1    0    0    0    0 -0.00000000000E+00 -0.00000000000E+00 -0.50000000000E+03  0.50000000000E+03  0.00000000000E+00 0. -1.
        -11    1    1    2    0    0 -0.19656932675E+02 -0.37481678136E+01  0.49080974637E+03  0.49121751892E+03  0.00000000000E+00 0.  1.
         11    1    1    2    0    0  0.17928589862E+02 -0.15766335697E+01 -0.22571232247E+03  0.22642873630E+03  0.00000000000E+00 0. -1.
        -15    1    1    2    0    0  0.25482326704E+02  0.89709120672E+01 -0.25465595110E+03  0.25609107247E+03  0.17770000000E+01 0.  1.
         15    1    1    2    0    0 -0.23753983891E+02 -0.36461106840E+01 -0.10441472803E+02  0.26262672314E+02  0.17770000000E+01 0. -1.
</event>
<event>
 6    1  0.3365733E-003  0.5009162E+03  0.7546771E-02  0.9397762E-01
        -11   -1    0    0    0    0  0.00000000000E+00  0.00000000000E+00  0.50000000000E+03  0.50000000000E+03  0.00000000000E+00 0. -1.
         11   -1    0    0    0    0 -0.00000000000E+00 -0.00000000000E+00 -0.50000000000E+03  0.50000000000E+03  0.00000000000E+00 0. -1.
        -11    1    1    2    0    0 -0.32791239948E+01  0.78359984603E+00  0.23248047073E+03  0.23250491598E+03  0.00000000000E+00 0. -1.
         11    1    1    2    0    0 -0.15705688790E+01  0.86749444986E+01 -0.49900596887E+03  0.49908383896E+03  0.00000000000E+00 0. -1.
        -15    1    1    2    0    0 -0.11971953643E+02 -0.76994248402E+01  0.14365351726E+03  0.14436793123E+03  0.17770000000E+01 0.  1.
         15    1    1    2    0    0  0.16821646517E+02 -0.17591195045E+01  0.12287198088E+03  0.12404331383E+03  0.17770000000E+01 0. -1.
</event>
<event>
 6    1  0.3365733E-003  0.5001042E+03  0.7546771E-02  0.9399577E-01
        -11   -1    0    0    0    0  0.00000000000E+00  0.00000000000E+00  0.50000000000E+03  0.50000000000E+03  0.00000000000E+00 0.  1.
         11   -1    0    0    0    0 -0.00000000000E+00 -0.00000000000E+00 -0.50000000000E+03  0.50000000000E+03  0.00000000000E+00 0.  1.
        -11    1    1    2    0    0 -0.77372132976E+00  0.21216263902E+01  0.15315238468E+02  0.15480842114E+02  0.00000000000E+00 0.  1.
         11    1    1    2    0    0 -0.97521859262E+01 -0.40004967887E+01 -0.49978463888E+03  0.49989578350E+03  0.00000000000E+00 0.  1.
        -15    1    1    2    0    0  0.67356211936E+01 -0.25587077712E+00  0.35562724922E+03  0.35569556109E+03  0.17770000000E+01 0.  1.
         15    1    1    2    0    0  0.37902860623E+01  0.21347411757E+01  0.12884215119E+03  0.12892781329E+03  0.17770000000E+01 0. -1.
</event>
<event>
 6    1  0.3365733E-003  0.5052781E+03  0.7546771E-02  0.9388076E-01
        -11   -1    0    0    0    0  0.00000000000E+00  0.00000000000E+00  0.50000000000E+03  0.50000000000E+03  0.00000000000E+00 0.  1.
         11   -1    0    0    0    0 -0.00000000000E+00 -0.00000000000E+00 -0.50000000000E+03  0.50000000000E+03  0.00000000000E+00 0.  1.
        -11    1    1    2    0    0  0.42924077779E+01  0.49956913681E+01  0.30453121961E+03  0.30460243829E+03  0.00000000000E+00 0.  1.
         11    1    1    2    0    0  0.13345337139E+01 -0.12194366333E+02 -0.49456979836E+03  0.49472191077E+03  0.00000000000E+00 0.  1.
        -15    1    1    2    0    0 -0.25889576851E+01  0.26713687987E+02  0.33860295579E+02  0.43243510189E+02  0.17770000000E+01 0. -1.
         15    1    1    2    0    0 -0.30379838067E+01 -0.19515013022E+02  0.15617828317E+03  0.15743214075E+03  0.17770000000E+01 0.  1.
</event>
<event>
 6    1  0.3365733E-003  0.5273910E+03  0.7546771E-02  0.9340523E-01
        -11   -1    0    0    0    0  0.00000000000E+00  0.00000000000E+00  0.50000000000E+03  0.50000000000E+03  0.00000000000E+00 0. -1.
         11   -1    0    0    0    0 -0.00000000000E+00 -0.00000000000E+00 -0.50000000000E+03  0.50000000000E+03  0.00000000000E+00 0.  1.
        -11    1    1    2    0    0 -0.12811554373E+02 -0.17343555511E+02  0.47211689444E+03  0.47260903171E+03  0.00000000000E+00 0. -1.
         11    1    1    2    0    0 -0.11513431984E+01  0.22246824777E+02 -0.41883171581E+03  0.41942371532E+03  0.00000000000E+00 0.  1.
        -15    1    1    2    0    0  0.41630816287E+02 -0.12790568352E+01  0.62868266210E+01  0.42159729234E+02  0.17770000000E+01 0. -1.
         15    1    1    2    0    0 -0.27667918715E+02 -0.36242124306E+01 -0.59572005247E+02  0.65807523733E+02  0.17770000000E+01 0.  1.
</event>
<event>
 6    1  0.3365733E-003  0.5039480E+03  0.7546771E-02  0.9391019E-01
        -11   -1    0    0    0    0  0.00000000000E+00  0.00000000000E+00  0.50000000000E+03  0.50000000000E+03  0.00000000000E+00 0. -1.
         11   -1    0    0    0    0 -0.00000000000E+00 -0.00000000000E+00 -0.50000000000E+03  0.50000000000E+03  0.00000000000E+00 0.  1.
        -11    1    1    2    0    0  0.70181083296E+01 -0.54272046637E+01  0.46825449749E+03  0.46833853441E+03  0.00000000000E+00 0. -1.
         11    1    1    2    0    0  0.50144259808E+01  0.44821727574E+01 -0.49600640606E+03  0.49605200250E+03  0.00000000000E+00 0.  1.
        -15    1    1    2    0    0 -0.25380321338E+01  0.38294273131E+01 -0.10999795771E+01  0.50471580844E+01  0.17770000000E+01 0. -1.
         15    1    1    2    0    0 -0.94945021766E+01 -0.28843954068E+01  0.28851888144E+02  0.30562305000E+02  0.17770000000E+01 0.  1.
</event>
<event>
 6    1  0.5080855E-003  0.5008371E+03  0.7546771E-02  0.9397938E-01
        -11   -1    0    0    0    0  0.00000000000E+00  0.00000000000E+00  0.50000000000E+03  0.50000000000E+03  0.00000000000E+00 0.  1.
         11   -1    0    0    0    0 -0.00000000000E+00 -0.00000000000E+00 -0.50000000000E+03  0.50000000000E+03  0.00000000000E+00 0.  1.
        -11    1    1    2    0    0  0.50802417651E+01  0.47206685608E+01  0.49911468220E+03  0.49916285875E+03  0.00000000000E+00 0.  1.
         11    1    1    2    0    0 -0.24062394972E+01  0.54858294379E+01 -0.37243893629E+02  0.37722565207E+02  0.00000000000E+00 0.  1.
        -15    1    1    2    0    0 -0.15863942746E+00 -0.11767424760E+02 -0.45694074295E+03  0.45709572055E+03  0.17770000000E+01 0.  1.
         15    1    1    2    0    0 -0.25153628405E+01  0.15609267609E+01 -0.49300456242E+01  0.60188554917E+01  0.17770000000E+01 0. -1.
</event>
<event>
 6    1  0.3365733E-003  0.5026907E+03  0.7546771E-02  0.9393809E-01
        -11   -1    0    0    0    0  0.00000000000E+00  0.00000000000E+00  0.50000000000E+03  0.50000000000E+03  0.00000000000E+00 0. -1.
         11   -1    0    0    0    0 -0.00000000000E+00 -0.00000000000E+00 -0.50000000000E+03  0.50000000000E+03  0.00000000000E+00 0. -1.
        -11    1    1    2    0    0  0.94529600452E+01 -0.66036678155E+01  0.49717560000E+03  0.49730930428E+03  0.00000000000E+00 0. -1.
         11    1    1    2    0    0  0.78157020508E+01  0.88202159357E+00 -0.42194706279E+03  0.42202036320E+03  0.00000000000E+00 0. -1.
        -15    1    1    2    0    0 -0.93595533073E+01  0.47056987787E+01 -0.89570190615E+01  0.13897149297E+02  0.17770000000E+01 0.  1.
         15    1    1    2    0    0 -0.79091087888E+01  0.10159474432E+01 -0.66271518149E+02  0.66773183223E+02  0.17770000000E+01 0. -1.
</event>
<event>
 6    1  0.3365733E-003  0.5044810E+03  0.7546771E-02  0.9389839E-01
        -11   -1    0    0    0    0  0.00000000000E+00  0.00000000000E+00  0.50000000000E+03  0.50000000000E+03  0.00000000000E+00 0. -1.
         11   -1    0    0    0    0 -0.00000000000E+00 -0.00000000000E+00 -0.50000000000E+03  0.50000000000E+03  0.00000000000E+00 0. -1.
        -11    1    1    2    0    0 -0.13350203755E+02  0.64195564197E+01  0.46786942041E+03  0.46810387010E+03  0.00000000000E+00 0. -1.
         11    1    1    2    0    0 -0.65420136497E+01  0.37195777011E+01 -0.49546186646E+03  0.49551901509E+03  0.00000000000E+00 0. -1.
        -15    1    1    2    0    0  0.11412096681E+01 -0.32406542626E+00  0.10429700180E+01  0.23775814109E+01  0.17770000000E+01 0.  1.
         15    1    1    2    0    0  0.18751007736E+02 -0.98150686946E+01  0.26549476032E+02  0.33999533397E+02  0.17770000000E+01 0. -1.
</event>
<event>
 6    1  0.3365733E-003  0.5085806E+03  0.7546771E-02  0.9380812E-01
        -11   -1    0    0    0    0  0.00000000000E+00  0.00000000000E+00  0.50000000000E+03  0.50000000000E+03  0.00000000000E+00 0.  1.
         11   -1    0    0    0    0 -0.00000000000E+00 -0.00000000000E+00 -0.50000000000E+03  0.50000000000E+03  0.00000000000E+00 0. -1.
        -11    1    1    2    0    0 -0.14303559174E+01 -0.15339473221E+02  0.49117781824E+03  0.49141936723E+03  0.00000000000E+00 0.  1.
         11    1    1    2    0    0  0.74212301302E+01  0.18740096564E+02 -0.90355483211E+02  0.92576342670E+02  0.00000000000E+00 0. -1.
        -15    1    1    2    0    0  0.49397660105E+01 -0.70014917043E+01  0.49573197859E+01  0.10057580364E+02  0.17770000000E+01 0.  1.
         15    1    1    2    0    0 -0.10930640223E+02  0.36008683612E+01 -0.40577965482E+03  0.40594670973E+03  0.17770000000E+01 0. -1.
</event>
<event>
 6    1  0.3365733E-003  0.5035728E+03  0.7546771E-02  0.9391851E-01
        -11   -1    0    0    0    0  0.00000000000E+00  0.00000000000E+00  0.50000000000E+03  0.50000000000E+03  0.00000000000E+00 0.  1.
         11   -1    0    0    0    0 -0.00000000000E+00 -0.00000000000E+00 -0.50000000000E+03  0.50000000000E+03  0.00000000000E+00 0. -1.
        -11    1    1    2    0    0  0.50578700306E+01 -0.11779009951E+02  0.46299412531E+03  0.46317155266E+03  0.00000000000E+00 0.  1.
         11    1    1    2    0    0  0.93371917592E+01 -0.60640923049E+00 -0.49633899470E+03  0.49642718353E+03  0.00000000000E+00 0. -1.
        -15    1    1    2    0    0 -0.12011699580E+02  0.10076975939E+02  0.33052712108E+02  0.36626027325E+02  0.17770000000E+01 0.  1.
         15    1    1    2    0    0 -0.23833622100E+01  0.23084432429E+01  0.29215728243E+00  0.37752364837E+01  0.17770000000E+01 0. -1.
</event>
<event>
 6    1  0.3365733E-003  0.5004334E+03  0.7546771E-02  0.9398840E-01
        -11   -1    0    0    0    0  0.00000000000E+00  0.00000000000E+00  0.50000000000E+03  0.50000000000E+03  0.00000000000E+00 0.  1.
         11   -1    0    0    0    0 -0.00000000000E+00 -0.00000000000E+00 -0.50000000000E+03  0.50000000000E+03  0.00000000000E+00 0.  1.
        -11    1    1    2    0    0 -0.19027519435E+01  0.81784474871E+01  0.49949603836E+03  0.49956661199E+03  0.00000000000E+00 0.  1.
         11    1    1    2    0    0 -0.25575348076E+01  0.18441794243E+01 -0.18482727683E+03  0.18485417021E+03  0.00000000000E+00 0.  1.
        -15    1    1    2    0    0  0.11405145338E+02 -0.11737405630E+02 -0.20206358089E+03  0.20273305720E+03  0.17770000000E+01 0.  1.
         15    1    1    2    0    0 -0.69448585870E+01  0.17147787190E+01 -0.11260518065E+03  0.11284616061E+03  0.17770000000E+01 0. -1.
</event>
<event>
 6    1  0.3365733E-003  0.5108011E+03  0.7546771E-02  0.9375961E-01
        -11   -1    0    0    0    0  0.00000000000E+00  0.00000000000E+00  0.50000000000E+03  0.50000000000E+03  0.00000000000E+00 0. -1.
         11   -1    0    0    0    0 -0.00000000000E+00 -0.00000000000E+00 -0.50000000000E+03  0.50000000000E+03  0.00000000000E+00 0. -1.
        -11    1    1    2    0    0 -0.36003610663E+01 -0.98882183266E+01  0.48908571972E+03  0.48919891731E+03  0.00000000000E+00 0. -1.
         11    1    1    2    0    0 -0.11677248556E+02  0.18728988153E+02 -0.44997324923E+03  0.45051421527E+03  0.00000000000E+00 0. -1.
        -15    1    1    2    0    0  0.71295586920E+01 -0.23387483415E+01  0.85220089886E+01  0.11492724531E+02  0.17770000000E+01 0.  1.
         15    1    1    2    0    0  0.81480509306E+01 -0.65020214852E+01 -0.47634479473E+02  0.48794142897E+02  0.17770000000E+01 0. -1.
</event>
<event>
 6    1  0.3365733E-003  0.4250388E+03  0.7546771E-02  0.9585181E-01
        -11   -1    0    0    0    0  0.00000000000E+00  0.00000000000E+00  0.50000000000E+03  0.50000000000E+03  0.00000000000E+00 0. -1.
         11   -1    0    0    0    0 -0.00000000000E+00 -0.00000000000E+00 -0.50000000000E+03  0.50000000000E+03  0.00000000000E+00 0.  1.
        -11    1    1    2    0    0  0.16113564918E+02 -0.27047549861E+01  0.43716878038E+03  0.43747400518E+03  0.00000000000E+00 0. -1.
         11    1    1    2    0    0  0.14982410516E+02 -0.22722377215E+02 -0.41299940780E+03  0.41389526440E+03  0.00000000000E+00 0.  1.
        -15    1    1    2    0    0 -0.47100141705E+01  0.14645215323E+02  0.58841072236E+02  0.60844852504E+02  0.17770000000E+01 0. -1.
         15    1    1    2    0    0 -0.26385961264E+02  0.10781916878E+02 -0.83010444814E+02  0.87785877911E+02  0.17770000000E+01 0.  1.
</event>
<event>
 6    1  0.3365733E-003  0.5024375E+03  0.7546771E-02  0.9394372E-01
        -11   -1    0    0    0    0  0.00000000000E+00  0.00000000000E+00  0.50000000000E+03  0.50000000000E+03  0.00000000000E+00 0.  1.
         11   -1    0    0    0    0 -0.00000000000E+00 -0.00000000000E+00 -0.50000000000E+03  0.50000000000E+03  0.00000000000E+00 0.  1.
        -11    1    1    2    0    0 -0.11166704548E+02 -0.28526780950E+01  0.49742899007E+03  0.49756249178E+03  0.00000000000E+00 0.  1.
         11    1    1    2    0    0  0.15286940589E+02 -0.67010691539E+01 -0.37166855478E+03  0.37204315541E+03  0.00000000000E+00 0.  1.
        -15    1    1    2    0    0 -0.12028387722E+02 -0.25006550207E+01 -0.19299427787E+02  0.22946917628E+02  0.17770000000E+01 0. -1.
         15    1    1    2    0    0  0.79081516811E+01  0.12054402270E+02 -0.10646100751E+03  0.10744743518E+03  0.17770000000E+01 0.  1.
</event>
<event>
 6    1  0.3365733E-003  0.5078469E+03  0.7546771E-02  0.9382421E-01
        -11   -1    0    0    0    0  0.00000000000E+00  0.00000000000E+00  0.50000000000E+03  0.50000000000E+03  0.00000000000E+00 0. -1.
         11   -1    0    0    0    0 -0.00000000000E+00 -0.00000000000E+00 -0.50000000000E+03  0.50000000000E+03  0.00000000000E+00 0.  1.
        -11    1    1    2    0    0 -0.30714053139E+00  0.92435167234E+01  0.49206623218E+03  0.49215314059E+03  0.00000000000E+00 0. -1.
         11    1    1    2    0    0 -0.63777702746E+01  0.34731163889E+01 -0.43578334810E+03  0.43584385389E+03  0.00000000000E+00 0.  1.
        -15    1    1    2    0    0 -0.26565287344E+01 -0.66023828791E+01  0.55164828779E+01  0.91781216456E+01  0.17770000000E+01 0. -1.
         15    1    1    2    0    0  0.93414395404E+01 -0.61142502332E+01 -0.61799366955E+02  0.62824883873E+02  0.17770000000E+01 0.  1.
</event>
<event>
 6    1  0.3365733E-003  0.5028980E+03  0.7546771E-02  0.9393349E-01
        -11   -1    0    0    0    0  0.00000000000E+00  0.00000000000E+00  0.50000000000E+03  0.50000000000E+03  0.00000000000E+00 0.  1.
         11   -1    0    0    0    0 -0.00000000000E+00 -0.00000000000E+00 -0.50000000000E+03  0.50000000000E+03  0.00000000000E+00 0. -1.
        -11    1    1    2    0    0  0.10218899955E+02  0.72569535578E+01  0.49694399316E+03  0.49710202336E+03  0.00000000000E+00 0.  1.
         11    1    1    2    0    0  0.54547017824E+01 -0.96010950990E+01 -0.45401983172E+03  0.45415409542E+03  0.00000000000E+00 0. -1.
        -15    1    1    2    0    0  0.49386721272E+00  0.55966897561E+01 -0.16752955629E+02  0.17759112938E+02  0.17770000000E+01 0.  1.
         15    1    1    2    0    0 -0.16167468951E+02 -0.32525482149E+01 -0.26171205818E+02  0.30984768276E+02  0.17770000000E+01 0. -1.
</event>
<event>
 6    1  0.3365733E-003  0.5000609E+03  0.7546771E-02  0.9399674E-01
        -11   -1    0    0    0    0  0.00000000000E+00  0.00000000000E+00  0.50000000000E+03  0.50000000000E+03  0.00000000000E+00 0.  1.
         11   -1    0    0    0    0 -0.00000000000E+00 -0.00000000000E+00 -0.50000000000E+03  0.50000000000E+03  0.00000000000E+00 0. -1.
        -11    1    1    2    0    0 -0.13472236755E+01  0.84028130350E+00  0.36811882196E+02  0.36846109090E+02  0.00000000000E+00 0.  1.
         11    1    1    2    0    0 -0.68778890628E+01  0.89567828215E+00 -0.49989102951E+03  0.49993914527E+03  0.00000000000E+00 0. -1.
        -15    1    1    2    0    0  0.71805518756E+01 -0.32617902281E+01  0.40272572929E+03  0.40280686484E+03  0.17770000000E+01 0.  1.
         15    1    1    2    0    0  0.10445608627E+01  0.15258306424E+01  0.60353418024E+02  0.60407880800E+02  0.17770000000E+01 0.  1.
</event>
<event>
 6    1  0.3365733E-003  0.5016400E+03  0.7546771E-02  0.9396147E-01
        -11   -1    0    0    0    0  0.00000000000E+00  0.00000000000E+00  0.50000000000E+03  0.50000000000E+03  0.00000000000E+00 0. -1.
         11   -1    0    0    0    0 -0.00000000000E+00 -0.00000000000E+00 -0.50000000000E+03  0.50000000000E+03  0.00000000000E+00 0. -1.
        -11    1    1    2    0    0  0.48073883548E+01  0.45243243231E+01  0.45190517723E+03  0.45195339328E+03  0.00000000000E+00 0. -1.
         11    1    1    2    0    0 -0.80435070322E+01 -0.20689630267E+01 -0.49829074007E+03  0.49835995049E+03  0.00000000000E+00 0. -1.
        -15    1    1    2    0    0 -0.35027449428E+00 -0.47736960626E+01  0.44333369259E+02  0.44626407263E+02  0.17770000000E+01 0. -1.
         15    1    1    2    0    0  0.35863931717E+01  0.23183347662E+01  0.20521935807E+01  0.50602489625E+01  0.17770000000E+01 0.  1.
</event>
<event>
 6    1  0.3365733E-003  0.5098018E+03  0.7546771E-02  0.9378141E-01
        -11   -1    0    0    0    0  0.00000000000E+00  0.00000000000E+00  0.50000000000E+03  0.50000000000E+03  0.00000000000E+00 0. -1.
         11   -1    0    0    0    0 -0.00000000000E+00 -0.00000000000E+00 -0.50000000000E+03  0.50000000000E+03  0.00000000000E+00 0.  1.
        -11    1    1    2    0    0 -0.38671488222E+02  0.10880808427E+01  0.33316365366E+03  0.33540227793E+03  0.00000000000E+00 0. -1.
         11    1    1    2    0    0 -0.15320504277E+02  0.15139901255E+02 -0.48972475685E+03  0.49019819659E+03  0.00000000000E+00 0.  1.
        -15    1    1    2    0    0  0.14620801535E+02  0.46256876248E+01  0.10544463300E+03  0.10656872515E+03  0.17770000000E+01 0. -1.
         15    1    1    2    0    0  0.39371190964E+02 -0.20853669722E+02  0.51116470193E+02  0.67830800326E+02  0.17770000000E+01 0.  1.
</event>
<event>
 6    1  0.3365733E-003  0.5065060E+03  0.7546771E-02  0.9385369E-01
        -11   -1    0    0    0    0  0.00000000000E+00  0.00000000000E+00  0.50000000000E+03  0.50000000000E+03  0.00000000000E+00 0. -1.
         11   -1    0    0    0    0 -0.00000000000E+00 -0.00000000000E+00 -0.50000000000E+03  0.50000000000E+03  0.00000000000E+00 0.  1.
        -11    1    1    2    0    0  0.77495221738E+01  0.24008897630E+01  0.47170737680E+03  0.47177713880E+03  0.00000000000E+00 0. -1.
         11    1    1    2    0    0 -0.11469649212E+02  0.80409804178E+01 -0.49329515988E+03  0.49349399690E+03  0.00000000000E+00 0.  1.
        -15    1    1    2    0    0  0.42110652060E+01 -0.86640242044E+01 -0.28149043441E+01  0.10192144085E+02  0.17770000000E+01 0. -1.
         15    1    1    2    0    0 -0.49093816769E+00 -0.17778459765E+01  0.24402687417E+02  0.24536720212E+02  0.17770000000E+01 0.  1.
</event>
<event>
 6    1  0.3365733E-003  0.5002939E+03  0.7546771E-02  0.9399152E-01
        -11   -1    0    0    0    0  0.00000000000E+00  0.00000000000E+00  0.50000000000E+03  0.50000000000E+03  0.00000000000E+00 0. -1.
         11   -1    0    0    0    0 -0.00000000000E+00 -0.00000000000E+00 -0.50000000000E+03  0.50000000000E+03  0.00000000000E+00 0. -1.
        -11    1    1    2    0    0  0.23414415949E+01 -0.26682234652E+01  0.25498838674E+03  0.25501309601E+03  0.00000000000E+00 0. -1.
         11    1    1    2    0    0 -0.54878291549E+01 -0.42572416819E+01 -0.49965780419E+03  0.49970607528E+03  0.00000000000E+00 0. -1.
        -15    1    1    2    0    0  0.88186331587E+01  0.12566890277E+01  0.13279314244E+03  0.13310343334E+03  0.17770000000E+01 0. -1.
         15    1    1    2    0    0 -0.56722455988E+01  0.56687761193E+01  0.11187627501E+03  0.11217739537E+03  0.17770000000E+01 0. -1.
</event>
<event>
 6    1  0.3365733E-003  0.5008991E+03  0.7546771E-02  0.9397800E-01
        -11   -1    0    0    0    0  0.00000000000E+00  0.00000000000E+00  0.50000000000E+03  0.50000000000E+03  0.00000000000E+00 0.  1.
         11   -1    0    0    0    0 -0.00000000000E+00 -0.00000000000E+00 -0.50000000000E+03  0.50000000000E+03  0.00000000000E+00 0. -1.
        -11    1    1    2    0    0  0.63270453632E+00 -0.49001104122E+01  0.28532701880E+03  0.28536979352E+03  0.00000000000E+00 0.  1.
         11    1    1    2    0    0 -0.87014023104E+01 -0.36957570993E+01 -0.49901135765E+03  0.49910089970E+03  0.00000000000E+00 0. -1.
        -15    1    1    2    0    0  0.11990894240E+02  0.79967631329E+01  0.58206564159E+02  0.59990762668E+02  0.17770000000E+01 0.  1.
         15    1    1    2    0    0 -0.39221964660E+01  0.59910437867E+00  0.15547777469E+03  0.15553854410E+03  0.17770000000E+01 0. -1.
</event>
<event>
 6    1  0.3365733E-003  0.5098776E+03  0.7546771E-02  0.9377975E-01
        -11   -1    0    0    0    0  0.00000000000E+00  0.00000000000E+00  0.50000000000E+03  0.50000000000E+03  0.00000000000E+00 0.  1.
         11   -1    0    0    0    0 -0.00000000000E+00 -0.00000000000E+00 -0.50000000000E+03  0.50000000000E+03  0.00000000000E+00 0.  1.
        -11    1    1    2    0    0  0.12134075916E+01  0.14280911656E+02  0.48991282251E+03  0.49012242394E+03  0.00000000000E+00 0.  1.
         11    1    1    2    0    0  0.30539924294E+01  0.63061057539E+01 -0.46566372260E+03  0.46571643345E+03  0.00000000000E+00 0.  1.
        -15    1    1    2    0    0  0.11420280792E+02 -0.34868751755E+01 -0.14655636936E+02  0.18987536303E+02  0.17770000000E+01 0. -1.
         15    1    1    2    0    0 -0.15687680813E+02 -0.17100142234E+02 -0.95934629757E+01  0.25173606309E+02  0.17770000000E+01 0.  1.
</event>
<event>
 6    1  0.3365733E-003  0.5301380E+03  0.7546771E-02  0.9334789E-01
        -11   -1    0    0    0    0  0.00000000000E+00  0.00000000000E+00  0.50000000000E+03  0.50000000000E+03  0.00000000000E+00 0. -1.
         11   -1    0    0    0    0 -0.00000000000E+00 -0.00000000000E+00 -0.50000000000E+03  0.50000000000E+03  0.00000000000E+00 0.  1.
        -11    1    1    2    0    0 -0.86175157122E+01  0.26795283868E+01  0.36871838303E+03  0.36882880505E+03  0.00000000000E+00 0. -1.
         11    1    1    2    0    0  0.21154437407E+01 -0.13798412483E+02 -0.46965462106E+03  0.46986203759E+03  0.00000000000E+00 0.  1.
        -15    1    1    2    0    0 -0.91259671270E+01  0.15452811015E+02 -0.26927561497E+02  0.32408701632E+02  0.17770000000E+01 0. -1.
         15    1    1    2    0    0  0.15628039098E+02 -0.43339269186E+01  0.12786379952E+03  0.12890045572E+03  0.17770000000E+01 0.  1.
</event>
<event>
 6    1  0.3365733E-003  0.5017308E+03  0.7546771E-02  0.9395945E-01
        -11   -1    0    0    0    0  0.00000000000E+00  0.00000000000E+00  0.50000000000E+03  0.50000000000E+03  0.00000000000E+00 0. -1.
         11   -1    0    0    0    0 -0.00000000000E+00 -0.00000000000E+00 -0.50000000000E+03  0.50000000000E+03  0.00000000000E+00 0.  1.
        -11    1    1    2    0    0 -0.59337439592E+01  0.44581160459E+01  0.19548807239E+03  0.19562891035E+03  0.00000000000E+00 0. -1.
         11    1    1    2    0    0 -0.44757324679E+01  0.55186668864E+01 -0.49821857653E+03  0.49826924235E+03  0.00000000000E+00 0.  1.
        -15    1    1    2    0    0  0.89965188747E+01 -0.37281878338E+01  0.29744206558E+03  0.29760674865E+03  0.17770000000E+01 0. -1.
         15    1    1    2    0    0  0.14129575525E+01 -0.62485950985E+01  0.52884385615E+01  0.84950986556E+01  0.17770000000E+01 0.  1.
</event>
<event>
 6    1  0.3365733E-003  0.5007736E+03  0.7546771E-02  0.9398080E-01
        -11   -1    0    0    0    0  0.00000000000E+00  0.00000000000E+00  0.50000000000E+03  0.50000000000E+03  0.00000000000E+00 0.  1.
         11   -1    0    0    0    0 -0.00000000000E+00 -0.00000000000E+00 -0.50000000000E+03  0.50000000000E+03  0.00000000000E+00 0.  1.
        -11    1    1    2    0    0 -0.76064206908E+01  0.60331657633E+01  0.46435784313E+02  0.47439843904E+02  0.00000000000E+00 0.  1.
         11    1    1    2    0    0 -0.78453513533E+01 -0.93385351812E+00 -0.49916390405E+03  0.49922642631E+03  0.00000000000E+00 0.  1.
        -15    1    1    2    0    0  0.15324228362E+02 -0.40155486336E+01  0.44611284691E+03  0.44639756553E+03  0.17770000000E+01 0.  1.
         15    1    1    2    0    0  0.12754368196E+00 -0.10837636116E+01  0.66152728277E+01  0.69361642528E+01  0.17770000000E+01 0. -1.
</event>
<event>
 6    1  0.3365733E-003  0.5127442E+03  0.7546771E-02  0.9371736E-01
        -11   -1    0    0    0    0  0.00000000000E+00  0.00000000000E+00  0.50000000000E+03  0.50000000000E+03  0.00000000000E+00 0.  1.
         11   -1    0    0    0    0 -0.00000000000E+00 -0.00000000000E+00 -0.50000000000E+03  0.50000000000E+03  0.00000000000E+00 0.  1.
        -11    1    1    2    0    0 -0.79624888250E+01 -0.16321258962E+02  0.47780006662E+03  0.47814504953E+03  0.00000000000E+00 0.  1.
         11    1    1    2    0    0 -0.16289208667E+01  0.14590169612E+02 -0.48703454033E+03  0.48725575411E+03  0.00000000000E+00 0.  1.
        -15    1    1    2    0    0  0.14851321676E+02 -0.15478620519E+01 -0.73995707543E+01  0.16759147019E+02  0.17770000000E+01 0.  1.
         15    1    1    2    0    0 -0.52599119842E+01  0.32789514014E+01  0.16634044466E+02  0.17840049346E+02  0.17770000000E+01 0. -1.
</event>
<event>
 6    1  0.3365733E-003  0.5002519E+03  0.7546771E-02  0.9399246E-01
        -11   -1    0    0    0    0  0.00000000000E+00  0.00000000000E+00  0.50000000000E+03  0.50000000000E+03  0.00000000000E+00 0. -1.
         11   -1    0    0    0    0 -0.00000000000E+00 -0.00000000000E+00 -0.50000000000E+03  0.50000000000E+03  0.00000000000E+00 0. -1.
        -11    1    1    2    0    0 -0.38773727117E+01  0.94303105201E+01  0.49964412109E+03  0.49974814909E+03  0.00000000000E+00 0. -1.
         11    1    1    2    0    0  0.21691834384E+01  0.44695579349E+01 -0.22365026622E+03  0.22370544000E+03  0.00000000000E+00 0. -1.
        -15    1    1    2    0    0 -0.19736412783E+01 -0.14517689647E+01 -0.10799659072E+03  0.10803899402E+03  0.17770000000E+01 0.  1.
         15    1    1    2    0    0  0.36818305517E+01 -0.12448099490E+02 -0.16799726415E+03  0.16850741689E+03  0.17770000000E+01 0. -1.
</event>
<event>
 6    1  0.3365733E-003  0.4848657E+03  0.7546771E-02  0.9434326E-01
        -11   -1    0    0    0    0  0.00000000000E+00  0.00000000000E+00  0.50000000000E+03  0.50000000000E+03  0.00000000000E+00 0. -1.
         11   -1    0    0    0    0 -0.00000000000E+00 -0.00000000000E+00 -0.50000000000E+03  0.50000000000E+03  0.00000000000E+00 0.  1.
        -11    1    1    2    0    0 -0.64201486451E+01  0.20541097398E+01  0.48718038117E+03  0.48722701225E+03  0.00000000000E+00 0. -1.
         11    1    1    2    0    0 -0.90693260933E+01 -0.58061405651E+00 -0.48255462545E+03  0.48264019345E+03  0.00000000000E+00 0.  1.
        -15    1    1    2    0    0  0.14217574427E+02 -0.45775981940E+01 -0.13669245708E+02  0.20324857566E+02  0.17770000000E+01 0. -1.
         15    1    1    2    0    0  0.12719003110E+01  0.31041025107E+01  0.90434899910E+01  0.98079367359E+01  0.17770000000E+01 0.  1.
</event>
<event>
 6    1  0.3365733E-003  0.5004618E+03  0.7546771E-02  0.9398777E-01
        -11   -1    0    0    0    0  0.00000000000E+00  0.00000000000E+00  0.50000000000E+03  0.50000000000E+03  0.00000000000E+00 0.  1.
         11   -1    0    0    0    0 -0.00000000000E+00 -0.00000000000E+00 -0.50000000000E+03  0.50000000000E+03  0.00000000000E+00 0. -1.
        -11    1    1    2    0    0 -0.29377763400E+01  0.10524058939E+02  0.49941871734E+03  0.49953822834E+03  0.00000000000E+00 0.  1.
         11    1    1    2    0    0 -0.13186070096E+01  0.71032823534E+01 -0.89785654878E+02  0.90075852294E+02  0.00000000000E+00 0. -1.
        -15    1    1    2    0    0 -0.52683074785E+00 -0.22942614942E+01 -0.99903121236E+01  0.10416585418E+02  0.17770000000E+01 0.  1.
         15    1    1    2    0    0  0.47832140974E+01 -0.15333079798E+02 -0.39964275034E+03  0.39996933395E+03  0.17770000000E+01 0. -1.
</event>
<event>
 6    1  0.3365733E-003  0.5050385E+03  0.7546771E-02  0.9388606E-01
        -11   -1    0    0    0    0  0.00000000000E+00  0.00000000000E+00  0.50000000000E+03  0.50000000000E+03  0.00000000000E+00 0. -1.
         11   -1    0    0    0    0 -0.00000000000E+00 -0.00000000000E+00 -0.50000000000E+03  0.50000000000E+03  0.00000000000E+00 0.  1.
        -11    1    1    2    0    0  0.20231212437E+01 -0.41750154821E+01  0.26795209417E+03  0.26799225464E+03  0.00000000000E+00 0. -1.
         11    1    1    2    0    0 -0.17035097233E+02 -0.11078402545E+01 -0.49466704644E+03  0.49496152243E+03  0.00000000000E+00 0.  1.
        -15    1    1    2    0    0  0.28475876509E+01 -0.58798554100E+01 -0.25098889923E+01  0.72207151187E+01  0.17770000000E+01 0. -1.
         15    1    1    2    0    0  0.12164388339E+02  0.11162711146E+02  0.22922484126E+03  0.22982550782E+03  0.17770000000E+01 0.  1.
</event>
<event>
 6    1  0.3365733E-003  0.5035208E+03  0.7546771E-02  0.9391966E-01
        -11   -1    0    0    0    0  0.00000000000E+00  0.00000000000E+00  0.50000000000E+03  0.50000000000E+03  0.00000000000E+00 0. -1.
         11   -1    0    0    0    0 -0.00000000000E+00 -0.00000000000E+00 -0.50000000000E+03  0.50000000000E+03  0.00000000000E+00 0.  1.
        -11    1    1    2    0    0  0.37908146514E+01  0.83473232872E+01  0.49639457155E+03  0.49647922287E+03  0.00000000000E+00 0. -1.
         11    1    1    2    0    0  0.58508534178E+01  0.78930758244E+01 -0.45810808179E+03  0.45821343033E+03  0.00000000000E+00 0.  1.
        -15    1    1    2    0    0 -0.63029555740E+01 -0.18439975136E+02 -0.33695452118E+02  0.38965384054E+02  0.17770000000E+01 0.  1.
         15    1    1    2    0    0 -0.33387124952E+01  0.21995760241E+01 -0.45910376421E+01  0.63419627437E+01  0.17770000000E+01 0. -1.
</event>
<event>
 6    1  0.3365733E-003  0.5077336E+03  0.7546771E-02  0.9382669E-01
        -11   -1    0    0    0    0  0.00000000000E+00  0.00000000000E+00  0.50000000000E+03  0.50000000000E+03  0.00000000000E+00 0. -1.
         11   -1    0    0    0    0 -0.00000000000E+00 -0.00000000000E+00 -0.50000000000E+03  0.50000000000E+03  0.00000000000E+00 0.  1.
        -11    1    1    2    0    0  0.94874665663E+01 -0.50625687601E+01  0.42870737758E+03  0.42884222881E+03  0.00000000000E+00 0. -1.
         11    1    1    2    0    0 -0.92908715705E+01 -0.61578350209E+01 -0.49214014339E+03  0.49226635063E+03  0.00000000000E+00 0.  1.
        -15    1    1    2    0    0 -0.99116288487E+01  0.18550798831E+02  0.87615254735E+01  0.22853765145E+02  0.17770000000E+01 0.  1.
         15    1    1    2    0    0  0.97150338528E+01 -0.73303950496E+01  0.54671240342E+02  0.56037655410E+02  0.17770000000E+01 0. -1.
</event>
<event>
 6    1  0.3365733E-003  0.5048277E+03  0.7546771E-02  0.9389072E-01
        -11   -1    0    0    0    0  0.00000000000E+00  0.00000000000E+00  0.50000000000E+03  0.50000000000E+03  0.00000000000E+00 0.  1.
         11   -1    0    0    0    0 -0.00000000000E+00 -0.00000000000E+00 -0.50000000000E+03  0.50000000000E+03  0.00000000000E+00 0. -1.
        -11    1    1    2    0    0 -0.12128213663E+02 -0.78388893802E+01  0.12504231784E+03  0.12587344042E+03  0.00000000000E+00 0.  1.
         11    1    1    2    0    0 -0.17690675221E+02 -0.11675878284E+02 -0.49471840216E+03  0.49517227664E+03  0.00000000000E+00 0. -1.
        -15    1    1    2    0    0  0.89409364849E+01  0.80625388246E+01  0.44643768065E+01  0.12962764628E+02  0.17770000000E+01 0. -1.
         15    1    1    2    0    0  0.20877952399E+02  0.11452228840E+02  0.36521170751E+03  0.36599151831E+03  0.17770000000E+01 0.  1.
</event>
<event>
 6    1  0.3365733E-003  0.5384009E+03  0.7546771E-02  0.9317760E-01
        -11   -1    0    0    0    0  0.00000000000E+00  0.00000000000E+00  0.50000000000E+03  0.50000000000E+03  0.00000000000E+00 0. -1.
         11   -1    0    0    0    0 -0.00000000000E+00 -0.00000000000E+00 -0.50000000000E+03  0.50000000000E+03  0.00000000000E+00 0.  1.
        -11    1    1    2    0    0  0.88984289365E+01 -0.40337395316E+01  0.42783828219E+03  0.42794982042E+03  0.00000000000E+00 0. -1.
         11    1    1    2    0    0  0.68510042064E+01  0.31947166780E+01 -0.46153722395E+03  0.46159912431E+03  0.00000000000E+00 0.  1.
        -15    1    1    2    0    0 -0.28418659151E+02  0.36644805121E+02 -0.14904616137E+02  0.48741842821E+02  0.17770000000E+01 0.  1.
         15    1    1    2    0    0  0.12669226008E+02 -0.35805782268E+02  0.48603557895E+02  0.61709212444E+02  0.17770000000E+01 0. -1.
</event>
<event>
 6    1  0.3365733E-003  0.4873962E+03  0.7546771E-02  0.9428462E-01
        -11   -1    0    0    0    0  0.00000000000E+00  0.00000000000E+00  0.50000000000E+03  0.50000000000E+03  0.00000000000E+00 0.  1.
         11   -1    0    0    0    0 -0.00000000000E+00 -0.00000000000E+00 -0.50000000000E+03  0.50000000000E+03  0.00000000000E+00 0. -1.
        -11    1    1    2    0    0 -0.74714044456E+01  0.68685535171E+00  0.48789579880E+03  0.48795348563E+03  0.00000000000E+00 0.  1.
         11    1    1    2    0    0 -0.42486527810E+01 -0.12487641452E+02 -0.48680269944E+03  0.48698137584E+03  0.00000000000E+00 0. -1.
        -15    1    1    2    0    0  0.34200523078E+01 -0.38986848527E+01  0.36652166405E+01  0.65945464886E+01  0.17770000000E+01 0.  1.
         15    1    1    2    0    0  0.83000049189E+01  0.15699470953E+02 -0.47583160056E+01  0.18470592033E+02  0.17770000000E+01 0. -1.
</event>
<event>
 6    1  0.3365733E-003  0.5143401E+03  0.7546771E-02  0.9368282E-01
        -11   -1    0    0    0    0  0.00000000000E+00  0.00000000000E+00  0.50000000000E+03  0.50000000000E+03  0.00000000000E+00 0. -1.
         11   -1    0    0    0    0 -0.00000000000E+00 -0.00000000000E+00 -0.50000000000E+03  0.50000000000E+03  0.00000000000E+00 0.  1.
        -11    1    1    2    0    0 -0.85947473825E+01 -0.11807697465E+02  0.32633248517E+03  0.32665912244E+03  0.00000000000E+00 0. -1.
         11    1    1    2    0    0 -0.74993428019E+01 -0.34787716768E+02 -0.48435435090E+03  0.48565992486E+03  0.00000000000E+00 0.  1.
        -15    1    1    2    0    0 -0.20747331702E+02 -0.86255583815E+01  0.85225052703E+01  0.24096532017E+02  0.17770000000E+01 0.  1.
         15    1    1    2    0    0  0.36841421887E+02  0.55220972614E+02  0.14949936046E+03  0.16358442068E+03  0.17770000000E+01 0. -1.
</event>
<event>
 6    1  0.3365733E-003  0.5111848E+03  0.7546771E-02  0.9375125E-01
        -11   -1    0    0    0    0  0.00000000000E+00  0.00000000000E+00  0.50000000000E+03  0.50000000000E+03  0.00000000000E+00 0.  1.
         11   -1    0    0    0    0 -0.00000000000E+00 -0.00000000000E+00 -0.50000000000E+03  0.50000000000E+03  0.00000000000E+00 0.  1.
        -11    1    1    2    0    0 -0.10419001960E+02 -0.99400228537E+01  0.48860304457E+03  0.48881519495E+03  0.00000000000E+00 0.  1.
         11    1    1    2    0    0  0.75282298720E+01 -0.51014893256E+01 -0.41881293405E+03  0.41891165318E+03  0.00000000000E+00 0.  1.
        -15    1    1    2    0    0 -0.12033035583E+02  0.97683545794E+01 -0.74139078766E+02  0.75762625521E+02  0.17770000000E+01 0. -1.
         15    1    1    2    0    0  0.14923807671E+02  0.52731576000E+01  0.43489682518E+01  0.16510526349E+02  0.17770000000E+01 0. -1.
</event>
<event>
 6    1  0.3365733E-003  0.5066644E+03  0.7546771E-02  0.9385020E-01
        -11   -1    0    0    0    0  0.00000000000E+00  0.00000000000E+00  0.50000000000E+03  0.50000000000E+03  0.00000000000E+00 0.  1.
         11   -1    0    0    0    0 -0.00000000000E+00 -0.00000000000E+00 -0.50000000000E+03  0.50000000000E+03  0.00000000000E+00 0.  1.
        -11    1    1    2    0    0  0.96141318438E+01  0.38360641560E+01  0.40719844717E+03  0.40732999189E+03  0.00000000000E+00 0.  1.
         11    1    1    2    0    0  0.89096372460E+01 -0.39766828844E+01 -0.49323905988E+03  0.49333555096E+03  0.00000000000E+00 0.  1.
        -15    1    1    2    0    0 -0.21983957203E+02  0.18406004910E+02  0.36891496278E+02  0.46756984695E+02  0.17770000000E+01 0.  1.
         15    1    1    2    0    0  0.34601881135E+01 -0.18265386182E+02  0.49149116436E+02  0.52577472454E+02  0.17770000000E+01 0. -1.
</event>
<event>
 6    1  0.3365733E-003  0.5024944E+03  0.7546771E-02  0.9394246E-01
        -11   -1    0    0    0    0  0.00000000000E+00  0.00000000000E+00  0.50000000000E+03  0.50000000000E+03  0.00000000000E+00 0. -1.
         11   -1    0    0    0    0 -0.00000000000E+00 -0.00000000000E+00 -0.50000000000E+03  0.50000000000E+03  0.00000000000E+00 0. -1.
        -11    1    1    2    0    0  0.23291404051E+01  0.29612376633E+01  0.20070447785E+03  0.20073983475E+03  0.00000000000E+00 0. -1.
         11    1    1    2    0    0  0.38679490498E+01  0.98800160206E+01 -0.49739243652E+03  0.49750558957E+03  0.00000000000E+00 0. -1.
        -15    1    1    2    0    0 -0.59503322406E+01 -0.25687829859E+01  0.28828236736E+03  0.28836068761E+03  0.17770000000E+01 0. -1.
         15    1    1    2    0    0 -0.24675721432E+00 -0.10272470698E+02  0.84055913127E+01  0.13393888072E+02  0.17770000000E+01 0.  1.
</event>
<event>
 6    1  0.3365733E-003  0.5089607E+03  0.7546771E-02  0.9379980E-01
        -11   -1    0    0    0    0  0.00000000000E+00  0.00000000000E+00  0.50000000000E+03  0.50000000000E+03  0.00000000000E+00 0. -1.
         11   -1    0    0    0    0 -0.00000000000E+00 -0.00000000000E+00 -0.50000000000E+03  0.50000000000E+03  0.00000000000E+00 0. -1.
        -11    1    1    2    0    0  0.43882564465E+01 -0.74018181775E+01  0.37165803770E+03  0.37175763704E+03  0.00000000000E+00 0. -1.
         11    1    1    2    0    0  0.47603195830E+01 -0.24696744553E+02 -0.49039471023E+03  0.49103926692E+03  0.00000000000E+00 0. -1.
        -15    1    1    2    0    0  0.67707786256E+01  0.20757032137E+02  0.59193892410E+01  0.22691291817E+02  0.17770000000E+01 0.  1.
         15    1    1    2    0    0 -0.15919354655E+02  0.11341530594E+02  0.11281728329E+03  0.11451180423E+03  0.17770000000E+01 0. -1.
</event>
<event>
 6    1  0.3365733E-003  0.5009981E+03  0.7546771E-02  0.9397579E-01
        -11   -1    0    0    0    0  0.00000000000E+00  0.00000000000E+00  0.50000000000E+03  0.50000000000E+03  0.00000000000E+00 0. -1.
         11   -1    0    0    0    0 -0.00000000000E+00 -0.00000000000E+00 -0.50000000000E+03  0.50000000000E+03  0.00000000000E+00 0.  1.
        -11    1    1    2    0    0  0.16148684584E+01  0.12242503078E+02  0.49884906375E+03  0.49900187884E+03  0.00000000000E+00 0. -1.
         11    1    1    2    0    0  0.72457278901E+01 -0.48638253987E+01 -0.41528184343E+03  0.41537352690E+03  0.00000000000E+00 0.  1.
        -15    1    1    2    0    0 -0.89369220128E+01 -0.16210492092E+01 -0.71898391118E+02  0.72491604686E+02  0.17770000000E+01 0.  1.
         15    1    1    2    0    0  0.76325664251E-01 -0.57576284696E+01 -0.11668829203E+02  0.13132989574E+02  0.17770000000E+01 0. -1.
</event>
<event>
 6    1  0.3365733E-003  0.4876115E+03  0.7546771E-02  0.9427965E-01
        -11   -1    0    0    0    0  0.00000000000E+00  0.00000000000E+00  0.50000000000E+03  0.50000000000E+03  0.00000000000E+00 0. -1.
         11   -1    0    0    0    0 -0.00000000000E+00 -0.00000000000E+00 -0.50000000000E+03  0.50000000000E+03  0.00000000000E+00 0.  1.
        -11    1    1    2    0    0 -0.51861178466E+01  0.19307312310E+02  0.48634506030E+03  0.48675577635E+03  0.00000000000E+00 0. -1.
         11    1    1    2    0    0  0.83562345573E+01 -0.69623098421E+01 -0.48843162210E+03  0.48855270942E+03  0.00000000000E+00 0.  1.
        -15    1    1    2    0    0 -0.80578628922E+01  0.10053727292E+01 -0.38772205311E+01  0.91722678091E+01  0.17770000000E+01 0.  1.
         15    1    1    2    0    0  0.48877461815E+01 -0.13350375197E+02  0.59637823314E+01  0.15519246416E+02  0.17770000000E+01 0. -1.
</event>
<event>
 6    1  0.3365733E-003  0.5007203E+03  0.7546771E-02  0.9398199E-01
        -11   -1    0    0    0    0  0.00000000000E+00  0.00000000000E+00  0.50000000000E+03  0.50000000000E+03  0.00000000000E+00 0. -1.
         11   -1    0    0    0    0 -0.00000000000E+00 -0.00000000000E+00 -0.50000000000E+03  0.50000000000E+03  0.00000000000E+00 0. -1.
        -11    1    1    2    0    0 -0.14953312127E+02  0.36896734126E+01  0.49904204372E+03  0.49927965774E+03  0.00000000000E+00 0. -1.
         11    1    1    2    0    0 -0.60388512492E+00 -0.74544581120E+01 -0.39426015472E+03  0.39433108326E+03  0.00000000000E+00 0. -1.
        -15    1    1    2    0    0  0.70942236408E+01  0.11122824423E+01 -0.24309742796E+02  0.25410362160E+02  0.17770000000E+01 0. -1.
         15    1    1    2    0    0  0.84629736110E+01  0.26525022572E+01 -0.80472146202E+02  0.80978896843E+02  0.17770000000E+01 0.  1.
</event>
<event>
 6    1  0.3365733E-003  0.5015610E+03  0.7546771E-02  0.9396324E-01
        -11   -1    0    0    0    0  0.00000000000E+00  0.00000000000E+00  0.50000000000E+03  0.50000000000E+03  0.00000000000E+00 0. -1.
         11   -1    0    0    0    0 -0.00000000000E+00 -0.00000000000E+00 -0.50000000000E+03  0.50000000000E+03  0.00000000000E+00 0.  1.
        -11    1    1    2    0    0 -0.79075864461E+01 -0.35502368953E+01  0.49836359703E+03  0.49843897215E+03  0.00000000000E+00 0. -1.
         11    1    1    2    0    0  0.18099638377E+02  0.22464407734E+01 -0.33514383267E+03  0.33563973540E+03  0.00000000000E+00 0.  1.
        -15    1    1    2    0    0 -0.15469692129E+02 -0.87251310938E+01 -0.84015515346E+02  0.85890650452E+02  0.17770000000E+01 0.  1.
         15    1    1    2    0    0  0.52776401981E+01  0.10028927216E+02 -0.79204249020E+02  0.80030642000E+02  0.17770000000E+01 0. -1.
</event>
<event>
 6    1  0.3365733E-003  0.5167252E+03  0.7546771E-02  0.9363144E-01
        -11   -1    0    0    0    0  0.00000000000E+00  0.00000000000E+00  0.50000000000E+03  0.50000000000E+03  0.00000000000E+00 0.  1.
         11   -1    0    0    0    0 -0.00000000000E+00 -0.00000000000E+00 -0.50000000000E+03  0.50000000000E+03  0.00000000000E+00 0.  1.
        -11    1    1    2    0    0 -0.41907810292E+01  0.15442140092E+02  0.48300989125E+03  0.48327484663E+03  0.00000000000E+00 0.  1.
         11    1    1    2    0    0  0.76344925536E+01 -0.12243778695E+02 -0.46683811746E+03  0.46706104901E+03  0.00000000000E+00 0.  1.
        -15    1    1    2    0    0 -0.67883849185E+01  0.48329746248E+01 -0.31126629859E+02  0.32271731111E+02  0.17770000000E+01 0. -1.
         15    1    1    2    0    0  0.33446733941E+01 -0.80313360227E+01  0.14954856066E+02  0.17392373253E+02  0.17770000000E+01 0.  1.
</event>
<event>
 6    1  0.3365733E-003  0.5255878E+03  0.7546771E-02  0.9344308E-01
        -11   -1    0    0    0    0  0.00000000000E+00  0.00000000000E+00  0.50000000000E+03  0.50000000000E+03  0.00000000000E+00 0. -1.
         11   -1    0    0    0    0 -0.00000000000E+00 -0.00000000000E+00 -0.50000000000E+03  0.50000000000E+03  0.00000000000E+00 0. -1.
        -11    1    1    2    0    0  0.32339939919E+01 -0.76597285432E+01  0.40086248538E+03  0.40094870288E+03  0.00000000000E+00 0. -1.
         11    1    1    2    0    0 -0.10776594303E+02 -0.11785892307E+02 -0.47414336929E+03  0.47441224360E+03  0.00000000000E+00 0. -1.
        -15    1    1    2    0    0 -0.32683732631E+02 -0.23298459732E+02  0.18129135736E+02  0.44077975182E+02  0.17770000000E+01 0.  1.
         15    1    1    2    0    0  0.40226332942E+02  0.42744080583E+02  0.55151748174E+02  0.80561078335E+02  0.17770000000E+01 0. -1.
</event>
<event>
 6    1  0.3365733E-003  0.5179098E+03  0.7546771E-02  0.9360604E-01
        -11   -1    0    0    0    0  0.00000000000E+00  0.00000000000E+00  0.50000000000E+03  0.50000000000E+03  0.00000000000E+00 0.  1.
         11   -1    0    0    0    0 -0.00000000000E+00 -0.00000000000E+00 -0.50000000000E+03  0.50000000000E+03  0.00000000000E+00 0. -1.
        -11    1    1    2    0    0 -0.16351520994E+02 -0.11888361614E+02  0.48166617266E+03  0.48209024805E+03  0.00000000000E+00 0.  1.
         11    1    1    2    0    0 -0.60161333600E+01  0.84182977360E+01 -0.35837048923E+03  0.35851983090E+03  0.00000000000E+00 0. -1.
        -15    1    1    2    0    0  0.19583084822E+02  0.33884508424E+01  0.12505636895E+02  0.23548407449E+02  0.17770000000E+01 0.  1.
         15    1    1    2    0    0  0.27845695318E+01  0.81613035892E-01 -0.13580132032E+03  0.13584151360E+03  0.17770000000E+01 0. -1.
</event>
<event>
 6    1  0.3365733E-003  0.5063101E+03  0.7546771E-02  0.9385800E-01
        -11   -1    0    0    0    0  0.00000000000E+00  0.00000000000E+00  0.50000000000E+03  0.50000000000E+03  0.00000000000E+00 0. -1.
         11   -1    0    0    0    0 -0.00000000000E+00 -0.00000000000E+00 -0.50000000000E+03  0.50000000000E+03  0.00000000000E+00 0.  1.
        -11    1    1    2    0    0  0.13916003108E+02  0.59049827801E+01  0.20719578095E+03  0.20774651767E+03  0.00000000000E+00 0. -1.
         11    1    1    2    0    0 -0.23316808985E+02  0.47285491514E+01 -0.49311626012E+03  0.49368986090E+03  0.00000000000E+00 0.  1.
        -15    1    1    2    0    0  0.39459532196E+01  0.52683676166E+01 -0.41627175373E+01  0.79882532791E+01  0.17770000000E+01 0.  1.
         15    1    1    2    0    0  0.54548526580E+01 -0.15901899548E+02  0.29008319672E+03  0.29057536815E+03  0.17770000000E+01 0. -1.
</event>
<event>
 6    1  0.3365733E-003  0.5018913E+03  0.7546771E-02  0.9395588E-01
        -11   -1    0    0    0    0  0.00000000000E+00  0.00000000000E+00  0.50000000000E+03  0.50000000000E+03  0.00000000000E+00 0.  1.
         11   -1    0    0    0    0 -0.00000000000E+00 -0.00000000000E+00 -0.50000000000E+03  0.50000000000E+03  0.00000000000E+00 0.  1.
        -11    1    1    2    0    0 -0.82331655439E+01 -0.24414926019E+01  0.49803464845E+03  0.49810867987E+03  0.00000000000E+00 0.  1.
         11    1    1    2    0    0  0.22773256314E+01 -0.70018011590E+01 -0.40093316115E+03  0.40100076202E+03  0.00000000000E+00 0.  1.
        -15    1    1    2    0    0 -0.28652236956E+01  0.28579392703E+01 -0.15396054737E+01  0.46803245308E+01  0.17770000000E+01 0. -1.
         15    1    1    2    0    0  0.88210636081E+01  0.65853544907E+01 -0.95561881829E+02  0.96210233576E+02  0.17770000000E+01 0.  1.
</event>
<event>
 6    1  0.3365733E-003  0.5008782E+03  0.7546771E-02  0.9397847E-01
        -11   -1    0    0    0    0  0.00000000000E+00  0.00000000000E+00  0.50000000000E+03  0.50000000000E+03  0.00000000000E+00 0.  1.
         11   -1    0    0    0    0 -0.00000000000E+00 -0.00000000000E+00 -0.50000000000E+03  0.50000000000E+03  0.00000000000E+00 0. -1.
        -11    1    1    2    0    0  0.84886163025E+01 -0.73544347221E+01  0.49899537884E+03  0.49912176112E+03  0.00000000000E+00 0.  1.
         11    1    1    2    0    0 -0.43159662675E+01  0.59708582784E+01 -0.21086579178E+03  0.21099445693E+03  0.00000000000E+00 0. -1.
        -15    1    1    2    0    0 -0.59219831568E+00 -0.14806189376E+02 -0.11837500534E+03  0.11931208473E+03  0.17770000000E+01 0.  1.
         15    1    1    2    0    0 -0.35804517193E+01  0.16189765820E+02 -0.16975458172E+03  0.17057169723E+03  0.17770000000E+01 0.  1.
</event>
<event>
 6    1  0.3365733E-003  0.5033745E+03  0.7546771E-02  0.9392290E-01
        -11   -1    0    0    0    0  0.00000000000E+00  0.00000000000E+00  0.50000000000E+03  0.50000000000E+03  0.00000000000E+00 0. -1.
         11   -1    0    0    0    0 -0.00000000000E+00 -0.00000000000E+00 -0.50000000000E+03  0.50000000000E+03  0.00000000000E+00 0.  1.
        -11    1    1    2    0    0 -0.49672439137E+01 -0.82933898798E+01  0.49653139099E+03  0.49662548874E+03  0.00000000000E+00 0. -1.
         11    1    1    2    0    0 -0.58396160667E+01 -0.44964216716E+01 -0.42916668230E+03  0.42922996182E+03  0.00000000000E+00 0.  1.
        -15    1    1    2    0    0  0.19214465656E+02  0.66774120991E+01 -0.43534916928E+02  0.48085655280E+02  0.17770000000E+01 0. -1.
         15    1    1    2    0    0 -0.84076056758E+01  0.61123994523E+01 -0.23829791763E+02  0.26058894158E+02  0.17770000000E+01 0.  1.
</event>
<event>
 6    1  0.3365733E-003  0.5039242E+03  0.7546771E-02  0.9391072E-01
        -11   -1    0    0    0    0  0.00000000000E+00  0.00000000000E+00  0.50000000000E+03  0.50000000000E+03  0.00000000000E+00 0. -1.
         11   -1    0    0    0    0 -0.00000000000E+00 -0.00000000000E+00 -0.50000000000E+03  0.50000000000E+03  0.00000000000E+00 0. -1.
        -11    1    1    2    0    0 -0.87214349971E+01  0.76559800056E+01  0.39944889426E+03  0.39961743778E+03  0.00000000000E+00 0. -1.
         11    1    1    2    0    0 -0.60680427836E+01  0.81066316891E+01 -0.49597247388E+03  0.49607583439E+03  0.00000000000E+00 0. -1.
        -15    1    1    2    0    0  0.31542444152E+01 -0.10691085884E+02  0.58150966957E+01  0.12697308920E+02  0.17770000000E+01 0.  1.
         15    1    1    2    0    0  0.11635233366E+02 -0.50715258102E+01  0.90708482923E+02  0.91609418908E+02  0.17770000000E+01 0. -1.
</event>
<event>
 6    1  0.3365733E-003  0.5102278E+03  0.7546771E-02  0.9377211E-01
        -11   -1    0    0    0    0  0.00000000000E+00  0.00000000000E+00  0.50000000000E+03  0.50000000000E+03  0.00000000000E+00 0.  1.
         11   -1    0    0    0    0 -0.00000000000E+00 -0.00000000000E+00 -0.50000000000E+03  0.50000000000E+03  0.00000000000E+00 0. -1.
        -11    1    1    2    0    0  0.82001089420E+01  0.58676283319E+01  0.48966835317E+03  0.48977215820E+03  0.00000000000E+00 0.  1.
         11    1    1    2    0    0  0.14840249974E+02 -0.11653605416E+02 -0.27656101746E+03  0.27720396086E+03  0.00000000000E+00 0. -1.
        -15    1    1    2    0    0 -0.17125285871E+02  0.63945156069E+01 -0.22168056831E+03  0.22244009832E+03  0.17770000000E+01 0. -1.
         15    1    1    2    0    0 -0.59150730448E+01 -0.60853852273E+00  0.85732326029E+01  0.10583782619E+02  0.17770000000E+01 0.  1.
</event>
<event>
 6    1  0.3365733E-003  0.5036754E+03  0.7546771E-02  0.9391623E-01
        -11   -1    0    0    0    0  0.00000000000E+00  0.00000000000E+00  0.50000000000E+03  0.50000000000E+03  0.00000000000E+00 0. -1.
         11   -1    0    0    0    0 -0.00000000000E+00 -0.00000000000E+00 -0.50000000000E+03  0.50000000000E+03  0.00000000000E+00 0. -1.
        -11    1    1    2    0    0  0.26938048275E+01 -0.40350660026E+01  0.18864526660E+03  0.18870764412E+03  0.00000000000E+00 0. -1.
         11    1    1    2    0    0  0.25416304273E+01  0.82406572269E+01 -0.49624969711E+03  0.49632462179E+03  0.00000000000E+00 0. -1.
        -15    1    1    2    0    0  0.15269413124E+01 -0.42415731000E+01  0.30792998577E+03  0.30796810932E+03  0.17770000000E+01 0. -1.
         15    1    1    2    0    0 -0.67623765671E+01  0.35981875779E-01 -0.32555526060E+00  0.69996247584E+01  0.17770000000E+01 0.  1.
</event>
<event>
 6    1  0.3365733E-003  0.5011542E+03  0.7546771E-02  0.9397231E-01
        -11   -1    0    0    0    0  0.00000000000E+00  0.00000000000E+00  0.50000000000E+03  0.50000000000E+03  0.00000000000E+00 0. -1.
         11   -1    0    0    0    0 -0.00000000000E+00 -0.00000000000E+00 -0.50000000000E+03  0.50000000000E+03  0.00000000000E+00 0.  1.
        -11    1    1    2    0    0 -0.78108389072E+01  0.21607676426E+01  0.26600908180E+03  0.26613250407E+03  0.00000000000E+00 0. -1.
         11    1    1    2    0    0 -0.69172287256E+01  0.36732423458E+01 -0.49878435550E+03  0.49884584197E+03  0.00000000000E+00 0.  1.
        -15    1    1    2    0    0  0.17011772960E+01 -0.12545820292E+01  0.11712998426E+01  0.29996087381E+01  0.17770000000E+01 0.  1.
         15    1    1    2    0    0  0.13026890337E+02 -0.45794279591E+01  0.23160397386E+03  0.23202204522E+03  0.17770000000E+01 0. -1.
</event>
<event>
 6    1  0.3365733E-003  0.5033539E+03  0.7546771E-02  0.9392336E-01
        -11   -1    0    0    0    0  0.00000000000E+00  0.00000000000E+00  0.50000000000E+03  0.50000000000E+03  0.00000000000E+00 0. -1.
         11   -1    0    0    0    0 -0.00000000000E+00 -0.00000000000E+00 -0.50000000000E+03  0.50000000000E+03  0.00000000000E+00 0.  1.
        -11    1    1    2    0    0 -0.75461594888E+01  0.32353630218E+02  0.49553369754E+03  0.49664609866E+03  0.00000000000E+00 0. -1.
         11    1    1    2    0    0  0.65032896646E+01  0.51396484118E+01 -0.73109579968E+02  0.73577982069E+02  0.00000000000E+00 0.  1.
        -15    1    1    2    0    0 -0.14920054088E+02 -0.44148779307E+02 -0.15692288203E+03  0.16370605170E+03  0.17770000000E+01 0. -1.
         15    1    1    2    0    0  0.15962923912E+02  0.66555006769E+01 -0.26550123554E+03  0.26606986758E+03  0.17770000000E+01 0.  1.
</event>
<event>
 6    1  0.3365733E-003  0.4578141E+03  0.7546771E-02  0.9499490E-01
        -11   -1    0    0    0    0  0.00000000000E+00  0.00000000000E+00  0.50000000000E+03  0.50000000000E+03  0.00000000000E+00 0. -1.
         11   -1    0    0    0    0 -0.00000000000E+00 -0.00000000000E+00 -0.50000000000E+03  0.50000000000E+03  0.00000000000E+00 0.  1.
        -11    1    1    2    0    0  0.71154317656E+01 -0.20960303115E+01  0.45280323686E+03  0.45286399064E+03  0.00000000000E+00 0. -1.
         11    1    1    2    0    0  0.37502830246E+02  0.24916085276E+01 -0.46237561656E+03  0.46390072341E+03  0.00000000000E+00 0.  1.
        -15    1    1    2    0    0 -0.43296715548E+02  0.25307513605E+02 -0.96011276252E+01  0.51092222528E+02  0.17770000000E+01 0. -1.
         15    1    1    2    0    0 -0.13215464628E+01 -0.25703091821E+02  0.19173507326E+02  0.32143063426E+02  0.17770000000E+01 0.  1.
</event>
<event>
 6    1  0.3365733E-003  0.5054685E+03  0.7546771E-02  0.9387656E-01
        -11   -1    0    0    0    0  0.00000000000E+00  0.00000000000E+00  0.50000000000E+03  0.50000000000E+03  0.00000000000E+00 0.  1.
         11   -1    0    0    0    0 -0.00000000000E+00 -0.00000000000E+00 -0.50000000000E+03  0.50000000000E+03  0.00000000000E+00 0.  1.
        -11    1    1    2    0    0  0.19855280301E+02  0.30642875200E+02  0.49318166029E+03  0.49453146311E+03  0.00000000000E+00 0.  1.
         11    1    1    2    0    0  0.89519206566E+01  0.24690198935E+01 -0.36232663086E+03  0.36244561022E+03  0.00000000000E+00 0.  1.
        -15    1    1    2    0    0 -0.33522372651E+02 -0.37077239683E+02 -0.10384686840E+03  0.11526404894E+03  0.17770000000E+01 0.  1.
         15    1    1    2    0    0  0.47151716938E+01  0.39653445900E+01 -0.27008161029E+02  0.27758877733E+02  0.17770000000E+01 0.  1.
</event>
<event>
 6    1  0.3365733E-003  0.5085778E+03  0.7546771E-02  0.9380818E-01
        -11   -1    0    0    0    0  0.00000000000E+00  0.00000000000E+00  0.50000000000E+03  0.50000000000E+03  0.00000000000E+00 0.  1.
         11   -1    0    0    0    0 -0.00000000000E+00 -0.00000000000E+00 -0.50000000000E+03  0.50000000000E+03  0.00000000000E+00 0.  1.
        -11    1    1    2    0    0 -0.69205540549E+01  0.29424643315E+01  0.44752110821E+03  0.44758428754E+03  0.00000000000E+00 0.  1.
         11    1    1    2    0    0 -0.17187435596E+01  0.96823827035E+01 -0.49132376478E+03  0.49142216520E+03  0.00000000000E+00 0.  1.
        -15    1    1    2    0    0  0.12343816930E+02  0.11231657747E+02  0.10410790464E+02  0.19749993398E+02  0.17770000000E+01 0. -1.
         15    1    1    2    0    0 -0.37045193158E+01 -0.23856504782E+02  0.33391866108E+02  0.41243553860E+02  0.17770000000E+01 0.  1.
</event>
<event>
 6    1  0.3365733E-003  0.4853675E+03  0.7546771E-02  0.9433160E-01
        -11   -1    0    0    0    0  0.00000000000E+00  0.00000000000E+00  0.50000000000E+03  0.50000000000E+03  0.00000000000E+00 0.  1.
         11   -1    0    0    0    0 -0.00000000000E+00 -0.00000000000E+00 -0.50000000000E+03  0.50000000000E+03  0.00000000000E+00 0.  1.
        -11    1    1    2    0    0 -0.48011651784E+01  0.65776775646E+01  0.48621151593E+03  0.48627970886E+03  0.00000000000E+00 0.  1.
         11    1    1    2    0    0  0.13069033053E+01  0.11172890381E+02 -0.48449474484E+03  0.48462531842E+03  0.00000000000E+00 0.  1.
        -15    1    1    2    0    0 -0.78708111795E+01 -0.24814618912E+01  0.37119275127E+01  0.92219009212E+01  0.17770000000E+01 0.  1.
         15    1    1    2    0    0  0.11365073053E+02 -0.15269106054E+02 -0.54286985992E+01  0.19873071798E+02  0.17770000000E+01 0. -1.
</event>
<event>
 6    1  0.3365733E-003  0.4736850E+03  0.7546771E-02  0.9460696E-01
        -11   -1    0    0    0    0  0.00000000000E+00  0.00000000000E+00  0.50000000000E+03  0.50000000000E+03  0.00000000000E+00 0. -1.
         11   -1    0    0    0    0 -0.00000000000E+00 -0.00000000000E+00 -0.50000000000E+03  0.50000000000E+03  0.00000000000E+00 0.  1.
        -11    1    1    2    0    0 -0.18946671979E+02  0.70294288101E+01  0.46872305280E+03  0.46915849079E+03  0.00000000000E+00 0. -1.
         11    1    1    2    0    0  0.20981512536E+01  0.14617176003E+02 -0.47843048564E+03  0.47865832664E+03  0.00000000000E+00 0.  1.
        -15    1    1    2    0    0 -0.13321926887E+01 -0.59983570860E+01 -0.15846966160E+02  0.17089151254E+02  0.17770000000E+01 0.  1.
         15    1    1    2    0    0  0.18180713414E+02 -0.15648247727E+02  0.25554398998E+02  0.35094031320E+02  0.17770000000E+01 0. -1.
</event>
<event>
 6    1  0.3365733E-003  0.5064124E+03  0.7546771E-02  0.9385575E-01
        -11   -1    0    0    0    0  0.00000000000E+00  0.00000000000E+00  0.50000000000E+03  0.50000000000E+03  0.00000000000E+00 0. -1.
         11   -1    0    0    0    0 -0.00000000000E+00 -0.00000000000E+00 -0.50000000000E+03  0.50000000000E+03  0.00000000000E+00 0.  1.
        -11    1    1    2    0    0  0.62467277989E+01 -0.20437867828E+02  0.41377029334E+03  0.41432183589E+03  0.00000000000E+00 0. -1.
         11    1    1    2    0    0  0.44914181231E+01  0.60719092189E+01 -0.49352981137E+03  0.49358759671E+03  0.00000000000E+00 0.  1.
        -15    1    1    2    0    0 -0.28921502111E+01 -0.13662464582E+02  0.42537028024E+02  0.44806070497E+02  0.17770000000E+01 0.  1.
         15    1    1    2    0    0 -0.78459957109E+01  0.28028423191E+02  0.37222490011E+02  0.47284496898E+02  0.17770000000E+01 0. -1.
</event>
<event>
 6    1  0.3365733E-003  0.5001983E+03  0.7546771E-02  0.9399366E-01
        -11   -1    0    0    0    0  0.00000000000E+00  0.00000000000E+00  0.50000000000E+03  0.50000000000E+03  0.00000000000E+00 0.  1.
         11   -1    0    0    0    0 -0.00000000000E+00 -0.00000000000E+00 -0.50000000000E+03  0.50000000000E+03  0.00000000000E+00 0. -1.
        -11    1    1    2    0    0  0.58301158655E+01 -0.41676218178E+01  0.49975027658E+03  0.49980165893E+03  0.00000000000E+00 0.  1.
         11    1    1    2    0    0  0.36705850816E+01  0.44861960272E+01 -0.28197659755E+03  0.28203616916E+03  0.00000000000E+00 0. -1.
        -15    1    1    2    0    0 -0.62289920630E+01  0.35647409427E+01 -0.14604291573E+03  0.14622995139E+03  0.17770000000E+01 0. -1.
         15    1    1    2    0    0 -0.32717088841E+01 -0.38833151520E+01 -0.71730763309E+02  0.71932220523E+02  0.17770000000E+01 0.  1.
</event>
<event>
 6    1  0.3365733E-003  0.5101462E+03  0.7546771E-02  0.9377389E-01
        -11   -1    0    0    0    0  0.00000000000E+00  0.00000000000E+00  0.50000000000E+03  0.50000000000E+03  0.00000000000E+00 0.  1.
         11   -1    0    0    0    0 -0.00000000000E+00 -0.00000000000E+00 -0.50000000000E+03  0.50000000000E+03  0.00000000000E+00 0.  1.
        -11    1    1    2    0    0  0.87057211592E+01 -0.13793217752E+01  0.48977445742E+03  0.48985376517E+03  0.00000000000E+00 0.  1.
         11    1    1    2    0    0 -0.52033525555E+00  0.13527689478E+02 -0.47622277464E+03  0.47641515532E+03  0.00000000000E+00 0.  1.
        -15    1    1    2    0    0  0.21601317011E+01  0.61591755211E+00  0.68800341963E+01  0.74523904178E+01  0.17770000000E+01 0.  1.
         15    1    1    2    0    0 -0.10345517605E+02 -0.12764285255E+02 -0.20431716975E+02  0.26278689087E+02  0.17770000000E+01 0. -1.
</event>
<event>
 6    1  0.3365733E-003  0.5007410E+03  0.7546771E-02  0.9398153E-01
        -11   -1    0    0    0    0  0.00000000000E+00  0.00000000000E+00  0.50000000000E+03  0.50000000000E+03  0.00000000000E+00 0. -1.
         11   -1    0    0    0    0 -0.00000000000E+00 -0.00000000000E+00 -0.50000000000E+03  0.50000000000E+03  0.00000000000E+00 0. -1.
        -11    1    1    2    0    0  0.95971317439E+01  0.36565605404E+01  0.30693429138E+03  0.30710606409E+03  0.00000000000E+00 0. -1.
         11    1    1    2    0    0  0.51841226433E+01 -0.13806367369E+02 -0.49904114489E+03  0.49925900613E+03  0.00000000000E+00 0. -1.
        -15    1    1    2    0    0 -0.13790841049E+02  0.32242674184E+01  0.16385579871E+03  0.16447633172E+03  0.17770000000E+01 0. -1.
         15    1    1    2    0    0 -0.99041333831E+00  0.69255394105E+01  0.28251054798E+02  0.29158598061E+02  0.17770000000E+01 0.  1.
</event>
<event>
 6    1  0.3365733E-003  0.5058343E+03  0.7546771E-02  0.9386849E-01
        -11   -1    0    0    0    0  0.00000000000E+00  0.00000000000E+00  0.50000000000E+03  0.50000000000E+03  0.00000000000E+00 0.  1.
         11   -1    0    0    0    0 -0.00000000000E+00 -0.00000000000E+00 -0.50000000000E+03  0.50000000000E+03  0.00000000000E+00 0. -1.
        -11    1    1    2    0    0 -0.82674444709E+01 -0.63673708801E+01  0.49405553756E+03  0.49416572953E+03  0.00000000000E+00 0.  1.
         11    1    1    2    0    0  0.89185450768E+01 -0.10245657696E+02 -0.46913237688E+03  0.46932899014E+03  0.00000000000E+00 0. -1.
        -15    1    1    2    0    0 -0.52095710738E+01  0.12021339098E+02 -0.29719324824E+01  0.13551469890E+02  0.17770000000E+01 0.  1.
         15    1    1    2    0    0  0.45584704678E+01  0.45916894783E+01 -0.21951228199E+02  0.22953810440E+02  0.17770000000E+01 0. -1.
</event>
<event>
 6    1  0.3475898E-003  0.5012979E+03  0.7546771E-02  0.9396910E-01
        -11   -1    0    0    0    0  0.00000000000E+00  0.00000000000E+00  0.50000000000E+03  0.50000000000E+03  0.00000000000E+00 0.  1.
         11   -1    0    0    0    0 -0.00000000000E+00 -0.00000000000E+00 -0.50000000000E+03  0.50000000000E+03  0.00000000000E+00 0. -1.
        -11    1    1    2    0    0 -0.13814594618E+01  0.70173411992E+01  0.49865080846E+03  0.49870209573E+03  0.00000000000E+00 0.  1.
         11    1    1    2    0    0  0.25693462952E+01  0.22013997335E+00 -0.15774661729E+03  0.15776769399E+03  0.00000000000E+00 0. -1.
        -15    1    1    2    0    0 -0.67647324665E+01  0.10230836952E+01 -0.32206903137E+03  0.32214659241E+03  0.17770000000E+01 0. -1.
         15    1    1    2    0    0  0.55768456331E+01 -0.82605648677E+01 -0.18835159802E+02  0.21383617863E+02  0.17770000000E+01 0.  1.
</event>
<event>
 6    1  0.3365733E-003  0.5300430E+03  0.7546771E-02  0.9334987E-01
        -11   -1    0    0    0    0  0.00000000000E+00  0.00000000000E+00  0.50000000000E+03  0.50000000000E+03  0.00000000000E+00 0.  1.
         11   -1    0    0    0    0 -0.00000000000E+00 -0.00000000000E+00 -0.50000000000E+03  0.50000000000E+03  0.00000000000E+00 0. -1.
        -11    1    1    2    0    0 -0.10577795251E+02  0.16800912604E+02  0.44311935922E+03  0.44356389272E+03  0.00000000000E+00 0.  1.
         11    1    1    2    0    0 -0.32292170715E+01  0.80063863720E+01 -0.46987768569E+03  0.46995698694E+03  0.00000000000E+00 0. -1.
        -15    1    1    2    0    0  0.19359658971E+02  0.22390522840E+02  0.25171793685E+02  0.38896128790E+02  0.17770000000E+01 0.  1.
         15    1    1    2    0    0 -0.55526466489E+01 -0.47197821816E+02  0.15865327900E+01  0.47582991544E+02  0.17770000000E+01 0. -1.
</event>
<event>
 6    1  0.3365733E-003  0.4704579E+03  0.7546771E-02  0.9468452E-01
        -11   -1    0    0    0    0  0.00000000000E+00  0.00000000000E+00  0.50000000000E+03  0.50000000000E+03  0.00000000000E+00 0.  1.
         11   -1    0    0    0    0 -0.00000000000E+00 -0.00000000000E+00 -0.50000000000E+03  0.50000000000E+03  0.00000000000E+00 0. -1.
        -11    1    1    2    0    0  0.15518052789E+02 -0.19926662977E+02  0.47382853898E+03  0.47450117620E+03  0.00000000000E+00 0.  1.
         11    1    1    2    0    0 -0.17965041950E+02  0.46095908812E+01 -0.46620461076E+03  0.46657339204E+03  0.00000000000E+00 0. -1.
        -15    1    1    2    0    0 -0.11365926905E+02 -0.75937789847E+01  0.17435470921E+02  0.22226181609E+02  0.17770000000E+01 0. -1.
         15    1    1    2    0    0  0.13812916066E+02  0.22910851081E+02 -0.25059399140E+02  0.36699250152E+02  0.17770000000E+01 0.  1.
</event>
<event>
 6    1  0.3365733E-003  0.5045298E+03  0.7546771E-02  0.9389731E-01
        -11   -1    0    0    0    0  0.00000000000E+00  0.00000000000E+00  0.50000000000E+03  0.50000000000E+03  0.00000000000E+00 0.  1.
         11   -1    0    0    0    0 -0.00000000000E+00 -0.00000000000E+00 -0.50000000000E+03  0.50000000000E+03  0.00000000000E+00 0.  1.
        -11    1    1    2    0    0 -0.42174051576E+01  0.37016076561E+01  0.24578211340E+03  0.24584616261E+03  0.00000000000E+00 0.  1.
         11    1    1    2    0    0  0.49446104666E+01  0.48921313137E+01 -0.49542141446E+03  0.49547024131E+03  0.00000000000E+00 0.  1.
        -15    1    1    2    0    0  0.26758278487E+02 -0.21221940922E+02  0.17147542091E+03  0.17485237760E+03  0.17770000000E+01 0.  1.
         15    1    1    2    0    0 -0.27485483796E+02  0.12628201952E+02  0.78163880146E+02  0.83831218484E+02  0.17770000000E+01 0. -1.
</event>
<event>
 6    1  0.3365733E-003  0.5028688E+03  0.7546771E-02  0.9393413E-01
        -11   -1    0    0    0    0  0.00000000000E+00  0.00000000000E+00  0.50000000000E+03  0.50000000000E+03  0.00000000000E+00 0.  1.
         11   -1    0    0    0    0 -0.00000000000E+00 -0.00000000000E+00 -0.50000000000E+03  0.50000000000E+03  0.00000000000E+00 0. -1.
        -11    1    1    2    0    0  0.70760512475E+01 -0.86317947151E+01  0.49700586919E+03  0.49713118228E+03  0.00000000000E+00 0.  1.
         11    1    1    2    0    0  0.58066828058E+01 -0.19597804845E+01 -0.45209277923E+03  0.45213431559E+03  0.00000000000E+00 0. -1.
        -15    1    1    2    0    0 -0.93302650140E+01  0.49057137938E+01 -0.84744372404E+01  0.13641616055E+02  0.17770000000E+01 0. -1.
         15    1    1    2    0    0 -0.35524690392E+01  0.56858614058E+01 -0.36438652726E+02  0.37092886079E+02  0.17770000000E+01 0.  1.
</event>
<event>
 6    1  0.3365733E-003  0.5115668E+03  0.7546771E-02  0.9374294E-01
        -11   -1    0    0    0    0  0.00000000000E+00  0.00000000000E+00  0.50000000000E+03  0.50000000000E+03  0.00000000000E+00 0.  1.
         11   -1    0    0    0    0 -0.00000000000E+00 -0.00000000000E+00 -0.50000000000E+03  0.50000000000E+03  0.00000000000E+00 0.  1.
        -11    1    1    2    0    0 -0.12746367635E+02 -0.44477059270E+00  0.48520806051E+03  0.48537565833E+03  0.00000000000E+00 0.  1.
         11    1    1    2    0    0  0.85434440360E+01  0.69745183630E+00 -0.48835792848E+03  0.48843315119E+03  0.00000000000E+00 0.  1.
        -15    1    1    2    0    0 -0.17183444603E+01  0.68456158603E+01  0.11499083136E+02  0.13608887029E+02  0.17770000000E+01 0. -1.
         15    1    1    2    0    0  0.59212680596E+01 -0.70982971039E+01 -0.83492151750E+01  0.12582303456E+02  0.17770000000E+01 0.  1.
</event>
<event>
 6    1  0.3365733E-003  0.5067261E+03  0.7546771E-02  0.9384884E-01
        -11   -1    0    0    0    0  0.00000000000E+00  0.00000000000E+00  0.50000000000E+03  0.50000000000E+03  0.00000000000E+00 0.  1.
         11   -1    0    0    0    0 -0.00000000000E+00 -0.00000000000E+00 -0.50000000000E+03  0.50000000000E+03  0.00000000000E+00 0.  1.
        -11    1    1    2    0    0 -0.12474632686E+01  0.75646839629E+01  0.46939443070E+03  0.46945703976E+03  0.00000000000E+00 0.  1.
         11    1    1    2    0    0 -0.22036764033E+02  0.14619542131E+01 -0.49277921455E+03  0.49327386975E+03  0.00000000000E+00 0.  1.
        -15    1    1    2    0    0  0.14462169557E+02 -0.11648839203E+02  0.19879214075E+02  0.27261523881E+02  0.17770000000E+01 0.  1.
         15    1    1    2    0    0  0.88220577440E+01  0.26222010266E+01  0.35055697845E+01  0.10007566616E+02  0.17770000000E+01 0. -1.
</event>
<event>
 6    1  0.3365733E-003  0.5034217E+03  0.7546771E-02  0.9392186E-01
        -11   -1    0    0    0    0  0.00000000000E+00  0.00000000000E+00  0.50000000000E+03  0.50000000000E+03  0.00000000000E+00 0.  1.
         11   -1    0    0    0    0 -0.00000000000E+00 -0.00000000000E+00 -0.50000000000E+03  0.50000000000E+03  0.00000000000E+00 0.  1.
        -11    1    1    2    0    0 -0.13904759308E+02 -0.21469637300E+02  0.31735927766E+03  0.31838844007E+03  0.00000000000E+00 0.  1.
         11    1    1    2    0    0  0.80604726918E+01  0.17472294964E+02 -0.49620532654E+03  0.49657827016E+03  0.00000000000E+00 0.  1.
        -15    1    1    2    0    0  0.14665699250E+02  0.15471605644E+01  0.17379209236E+03  0.17442570205E+03  0.17770000000E+01 0. -1.
         15    1    1    2    0    0 -0.88214126346E+01  0.24501817715E+01  0.50539565249E+01  0.10607587715E+02  0.17770000000E+01 0.  1.
</event>
<event>
 6    1  0.3365733E-003  0.5272350E+03  0.7546771E-02  0.9340850E-01
        -11   -1    0    0    0    0  0.00000000000E+00  0.00000000000E+00  0.50000000000E+03  0.50000000000E+03  0.00000000000E+00 0. -1.
         11   -1    0    0    0    0 -0.00000000000E+00 -0.00000000000E+00 -0.50000000000E+03  0.50000000000E+03  0.00000000000E+00 0.  1.
        -11    1    1    2    0    0 -0.50469156382E+02  0.36776993085E+02  0.46862256116E+03  0.47276504502E+03  0.00000000000E+00 0. -1.
         11    1    1    2    0    0 -0.39555877562E+01  0.58210029669E+01 -0.21710211197E+03  0.21721615449E+03  0.00000000000E+00 0.  1.
        -15    1    1    2    0    0 -0.92064806271E+01  0.67163301817E+01 -0.22492015875E+03  0.22521568310E+03  0.17770000000E+01 0.  1.
         15    1    1    2    0    0  0.63631224765E+02 -0.49314326234E+02 -0.26600290439E+02  0.84803117381E+02  0.17770000000E+01 0. -1.
</event>
<event>
 6    1  0.4708515E-003  0.5143887E+03  0.7546771E-02  0.9368177E-01
        -11   -1    0    0    0    0  0.00000000000E+00  0.00000000000E+00  0.50000000000E+03  0.50000000000E+03  0.00000000000E+00 0.  1.
         11   -1    0    0    0    0 -0.00000000000E+00 -0.00000000000E+00 -0.50000000000E+03  0.50000000000E+03  0.00000000000E+00 0.  1.
        -11    1    1    2    0    0  0.12078377416E+02 -0.11938178487E+02  0.48531421009E+03  0.48561125380E+03  0.00000000000E+00 0.  1.
         11    1    1    2    0    0  0.43494300183E+01 -0.27177471595E+01 -0.33888273015E+03  0.33892153736E+03  0.00000000000E+00 0.  1.
        -15    1    1    2    0    0 -0.18488957846E+02  0.19529004626E+02  0.19115937399E+01  0.27019169187E+02  0.17770000000E+01 0. -1.
         15    1    1    2    0    0  0.20611504119E+01 -0.48730789794E+01 -0.14834307368E+03  0.14844803965E+03  0.17770000000E+01 0.  1.
</event>
<event>
 6    1  0.3365733E-003  0.5003031E+03  0.7546771E-02  0.9399132E-01
        -11   -1    0    0    0    0  0.00000000000E+00  0.00000000000E+00  0.50000000000E+03  0.50000000000E+03  0.00000000000E+00 0.  1.
         11   -1    0    0    0    0 -0.00000000000E+00 -0.00000000000E+00 -0.50000000000E+03  0.50000000000E+03  0.00000000000E+00 0.  1.
        -11    1    1    2    0    0 -0.40220546066E+01 -0.20298861394E+02  0.49926821440E+03  0.49969687872E+03  0.00000000000E+00 0.  1.
         11    1    1    2    0    0  0.22109666713E+01  0.36859594380E+01 -0.14457209931E+03  0.14463597951E+03  0.00000000000E+00 0.  1.
        -15    1    1    2    0    0  0.35673436139E+01 -0.36753277326E+01 -0.10285980187E+03  0.10300257542E+03  0.17770000000E+01 0.  1.
         15    1    1    2    0    0 -0.17562556787E+01  0.20288229689E+02 -0.25183631322E+03  0.25266456634E+03  0.17770000000E+01 0. -1.
</event>
<event>
 6    1  0.3365733E-003  0.4882117E+03  0.7546771E-02  0.9426580E-01
        -11   -1    0    0    0    0  0.00000000000E+00  0.00000000000E+00  0.50000000000E+03  0.50000000000E+03  0.00000000000E+00 0. -1.
         11   -1    0    0    0    0 -0.00000000000E+00 -0.00000000000E+00 -0.50000000000E+03  0.50000000000E+03  0.00000000000E+00 0.  1.
        -11    1    1    2    0    0 -0.45306280887E+01 -0.97086720751E+01  0.49084103858E+03  0.49095795141E+03  0.00000000000E+00 0. -1.
         11    1    1    2    0    0 -0.17664575650E+01 -0.69604460700E+01 -0.48558912594E+03  0.48564222161E+03  0.00000000000E+00 0.  1.
        -15    1    1    2    0    0  0.51013200530E+01  0.11933009935E+02  0.31940157731E+01  0.13482568678E+02  0.17770000000E+01 0. -1.
         15    1    1    2    0    0  0.11957656007E+01  0.47361082097E+01 -0.84459284124E+01  0.99172582952E+01  0.17770000000E+01 0.  1.
</event>
<event>
 6    1  0.3365733E-003  0.5002333E+03  0.7546771E-02  0.9399288E-01
        -11   -1    0    0    0    0  0.00000000000E+00  0.00000000000E+00  0.50000000000E+03  0.50000000000E+03  0.00000000000E+00 0. -1.
         11   -1    0    0    0    0 -0.00000000000E+00 -0.00000000000E+00 -0.50000000000E+03  0.50000000000E+03  0.00000000000E+00 0.  1.
        -11    1    1    2    0    0 -0.37027798739E+01  0.85772926213E+01  0.49967939051E+03  0.49976671941E+03  0.00000000000E+00 0. -1.
         11    1    1    2    0    0 -0.45947407221E+01 -0.48927559923E+01 -0.37489378892E+03  0.37495386873E+03  0.00000000000E+00 0.  1.
        -15    1    1    2    0    0  0.75325151768E+00 -0.13705193549E+01 -0.13982631914E+02  0.14181587901E+02  0.17770000000E+01 0.  1.
         15    1    1    2    0    0  0.75442690783E+01 -0.23140172741E+01 -0.11080296967E+03  0.11109782396E+03  0.17770000000E+01 0.  1.
</event>
<event>
 6    1  0.3365733E-003  0.5013504E+03  0.7546771E-02  0.9396793E-01
        -11   -1    0    0    0    0  0.00000000000E+00  0.00000000000E+00  0.50000000000E+03  0.50000000000E+03  0.00000000000E+00 0. -1.
         11   -1    0    0    0    0 -0.00000000000E+00 -0.00000000000E+00 -0.50000000000E+03  0.50000000000E+03  0.00000000000E+00 0. -1.
        -11    1    1    2    0    0 -0.26032737360E+01 -0.12958099551E+02  0.37927711318E+03  0.37950733585E+03  0.00000000000E+00 0. -1.
         11    1    1    2    0    0  0.53014455758E+01  0.54316677067E+01 -0.49859186616E+03  0.49864963385E+03  0.00000000000E+00 0. -1.
        -15    1    1    2    0    0 -0.71164092533E+01 -0.12304508222E+01  0.12362589699E+02  0.14427357448E+02  0.17770000000E+01 0. -1.
         15    1    1    2    0    0  0.44182374134E+01  0.87568826661E+01  0.10695216328E+03  0.10741567286E+03  0.17770000000E+01 0.  1.
</event>
<event>
 6    1  0.3365733E-003  0.5219618E+03  0.7546771E-02  0.9351966E-01
        -11   -1    0    0    0    0  0.00000000000E+00  0.00000000000E+00  0.50000000000E+03  0.50000000000E+03  0.00000000000E+00 0. -1.
         11   -1    0    0    0    0 -0.00000000000E+00 -0.00000000000E+00 -0.50000000000E+03  0.50000000000E+03  0.00000000000E+00 0.  1.
        -11    1    1    2    0    0 -0.12852286043E+02 -0.10880259863E+01  0.47786417381E+03  0.47803821361E+03  0.00000000000E+00 0. -1.
         11    1    1    2    0    0 -0.29167158574E+01  0.60535618337E+01 -0.43807269651E+03  0.43812422927E+03  0.00000000000E+00 0.  1.
        -15    1    1    2    0    0  0.17536691657E+02  0.52491572503E+01 -0.59075296713E+02  0.61871945313E+02  0.17770000000E+01 0.  1.
         15    1    1    2    0    0 -0.17676897567E+01 -0.10214693098E+02  0.19283819411E+02  0.21965611811E+02  0.17770000000E+01 0. -1.
</event>
<event>
 6    1  0.3365733E-003  0.5113531E+03  0.7546771E-02  0.9374759E-01
        -11   -1    0    0    0    0  0.00000000000E+00  0.00000000000E+00  0.50000000000E+03  0.50000000000E+03  0.00000000000E+00 0. -1.
         11   -1    0    0    0    0 -0.00000000000E+00 -0.00000000000E+00 -0.50000000000E+03  0.50000000000E+03  0.00000000000E+00 0.  1.
        -11    1    1    2    0    0  0.31192714390E+01 -0.10770270026E+02  0.48851827474E+03  0.48864694139E+03  0.00000000000E+00 0. -1.
         11    1    1    2    0    0 -0.93757258901E+01 -0.80239840991E+00 -0.47675833684E+03  0.47685119254E+03  0.00000000000E+00 0.  1.
        -15    1    1    2    0    0 -0.85024314053E+01  0.47414196409E+01  0.49943972795E+01  0.11084860540E+02  0.17770000000E+01 0. -1.
         15    1    1    2    0    0  0.14758885856E+02  0.68312487945E+01 -0.16754335179E+02  0.23417005532E+02  0.17770000000E+01 0.  1.
</event>
<event>
 6    1  0.3365733E-003  0.5423119E+03  0.7546771E-02  0.9309813E-01
        -11   -1    0    0    0    0  0.00000000000E+00  0.00000000000E+00  0.50000000000E+03  0.50000000000E+03  0.00000000000E+00 0. -1.
         11   -1    0    0    0    0 -0.00000000000E+00 -0.00000000000E+00 -0.50000000000E+03  0.50000000000E+03  0.00000000000E+00 0. -1.
        -11    1    1    2    0    0  0.11433086782E+02  0.24333737500E+02  0.33374296268E+03  0.33482414996E+03  0.00000000000E+00 0. -1.
         11    1    1    2    0    0  0.55113488923E+01 -0.38308294439E+01 -0.45763891323E+03  0.45768813086E+03  0.00000000000E+00 0. -1.
        -15    1    1    2    0    0  0.64313568047E+01 -0.19592836284E+02  0.16168706727E+03  0.16300646317E+03  0.17770000000E+01 0.  1.
         15    1    1    2    0    0 -0.23375792479E+02 -0.91007177178E+00 -0.37791116721E+02  0.44481256015E+02  0.17770000000E+01 0. -1.
</event>
<event>
 6    1  0.3365733E-003  0.5010176E+03  0.7546771E-02  0.9397536E-01
        -11   -1    0    0    0    0  0.00000000000E+00  0.00000000000E+00  0.50000000000E+03  0.50000000000E+03  0.00000000000E+00 0.  1.
         11   -1    0    0    0    0 -0.00000000000E+00 -0.00000000000E+00 -0.50000000000E+03  0.50000000000E+03  0.00000000000E+00 0.  1.
        -11    1    1    2    0    0  0.15518941068E+01  0.92152616383E+01  0.29361035729E+03  0.29375903617E+03  0.00000000000E+00 0.  1.
         11    1    1    2    0    0  0.42700467930E+01  0.94149754792E+01 -0.49887526189E+03  0.49898236641E+03  0.00000000000E+00 0.  1.
        -15    1    1    2    0    0 -0.20565430810E+01 -0.66624897596E+01  0.15696781331E+02  0.17267449505E+02  0.17770000000E+01 0. -1.
         15    1    1    2    0    0 -0.37653978189E+01 -0.11967747358E+02  0.18956812327E+03  0.18999114792E+03  0.17770000000E+01 0.  1.
</event>
<event>
 6    1  0.3365733E-003  0.5008069E+03  0.7546771E-02  0.9398006E-01
        -11   -1    0    0    0    0  0.00000000000E+00  0.00000000000E+00  0.50000000000E+03  0.50000000000E+03  0.00000000000E+00 0. -1.
         11   -1    0    0    0    0 -0.00000000000E+00 -0.00000000000E+00 -0.50000000000E+03  0.50000000000E+03  0.00000000000E+00 0.  1.
        -11    1    1    2    0    0 -0.55490660718E+01  0.66148417137E+01  0.39843307530E+03  0.39852661613E+03  0.00000000000E+00 0. -1.
         11    1    1    2    0    0 -0.14944072174E+01 -0.67078171849E+01 -0.49914580382E+03  0.49919311046E+03  0.00000000000E+00 0.  1.
        -15    1    1    2    0    0 -0.11368353819E+01  0.60850496656E+01  0.22861605082E+02  0.23751440799E+02  0.17770000000E+01 0.  1.
         15    1    1    2    0    0  0.81803086711E+01 -0.59920741944E+01  0.77851123430E+02  0.78528832612E+02  0.17770000000E+01 0. -1.
</event>
<event>
 6    1  0.3365733E-003  0.5024827E+03  0.7546771E-02  0.9394272E-01
        -11   -1    0    0    0    0  0.00000000000E+00  0.00000000000E+00  0.50000000000E+03  0.50000000000E+03  0.00000000000E+00 0. -1.
         11   -1    0    0    0    0 -0.00000000000E+00 -0.00000000000E+00 -0.50000000000E+03  0.50000000000E+03  0.00000000000E+00 0. -1.
        -11    1    1    2    0    0 -0.15238608732E+02 -0.13679602548E+02  0.49709570371E+03  0.49751732167E+03  0.00000000000E+00 0. -1.
         11    1    1    2    0    0 -0.14281911345E+02 -0.82422423355E+00 -0.31738873530E+03  0.31771097185E+03  0.00000000000E+00 0. -1.
        -15    1    1    2    0    0  0.11478411058E+02  0.11384487233E+02 -0.31727737801E+02  0.35653436650E+02  0.17770000000E+01 0. -1.
         15    1    1    2    0    0  0.18042109019E+02  0.31193395481E+01 -0.14797923060E+03  0.14911826982E+03  0.17770000000E+01 0.  1.
</event>
<event>
 6    1  0.3365733E-003  0.5025699E+03  0.7546771E-02  0.9394078E-01
        -11   -1    0    0    0    0  0.00000000000E+00  0.00000000000E+00  0.50000000000E+03  0.50000000000E+03  0.00000000000E+00 0.  1.
         11   -1    0    0    0    0 -0.00000000000E+00 -0.00000000000E+00 -0.50000000000E+03  0.50000000000E+03  0.00000000000E+00 0.  1.
        -11    1    1    2    0    0 -0.68391106298E+01  0.26610147361E-01  0.49738305577E+03  0.49743007379E+03  0.00000000000E+00 0.  1.
         11    1    1    2    0    0 -0.24110886159E+00 -0.17392334907E+02 -0.44596922279E+03  0.44630830053E+03  0.00000000000E+00 0.  1.
        -15    1    1    2    0    0  0.64999736313E+00  0.36592675590E+01 -0.28140300548E+02  0.28440235224E+02  0.17770000000E+01 0. -1.
         15    1    1    2    0    0  0.64302221282E+01  0.13706457201E+02 -0.23273532435E+02  0.27821390451E+02  0.17770000000E+01 0.  1.
</event>
<event>
 6    1  0.3365733E-003  0.5427918E+03  0.7546771E-02  0.9308843E-01
        -11   -1    0    0    0    0  0.00000000000E+00  0.00000000000E+00  0.50000000000E+03  0.50000000000E+03  0.00000000000E+00 0. -1.
         11   -1    0    0    0    0 -0.00000000000E+00 -0.00000000000E+00 -0.50000000000E+03  0.50000000000E+03  0.00000000000E+00 0.  1.
        -11    1    1    2    0    0 -0.30884531680E+01  0.54536266715E+01  0.38681226982E+03  0.38686304123E+03  0.00000000000E+00 0. -1.
         11    1    1    2    0    0 -0.15248518143E+02  0.83486202857E+01 -0.45687758982E+03  0.45720821170E+03  0.00000000000E+00 0.  1.
        -15    1    1    2    0    0  0.90802306581E+01 -0.72698949504E+01  0.11191720353E+03  0.11253408433E+03  0.17770000000E+01 0. -1.
         15    1    1    2    0    0  0.92567406525E+01 -0.65323520067E+01 -0.41851883528E+02  0.43394662737E+02  0.17770000000E+01 0.  1.
</event>
<event>
 6    1  0.3365733E-003  0.5042194E+03  0.7546771E-02  0.9390418E-01
        -11   -1    0    0    0    0  0.00000000000E+00  0.00000000000E+00  0.50000000000E+03  0.50000000000E+03  0.00000000000E+00 0. -1.
         11   -1    0    0    0    0 -0.00000000000E+00 -0.00000000000E+00 -0.50000000000E+03  0.50000000000E+03  0.00000000000E+00 0.  1.
        -11    1    1    2    0    0 -0.47510549437E+01 -0.27001343189E+01  0.36654865582E+03  0.36658938928E+03  0.00000000000E+00 0. -1.
         11    1    1    2    0    0 -0.99363169598E+01 -0.15598752741E+01 -0.49567860645E+03  0.49578064151E+03  0.00000000000E+00 0.  1.
        -15    1    1    2    0    0  0.15880156208E+02  0.93641594956E+01  0.16323053703E+02  0.24687378464E+02  0.17770000000E+01 0.  1.
         15    1    1    2    0    0 -0.11927843043E+01 -0.51041499027E+01  0.11280689692E+03  0.11294259074E+03  0.17770000000E+01 0. -1.
</event>
<event>
 6    1  0.3365733E-003  0.5026854E+03  0.7546771E-02  0.9393821E-01
        -11   -1    0    0    0    0  0.00000000000E+00  0.00000000000E+00  0.50000000000E+03  0.50000000000E+03  0.00000000000E+00 0.  1.
         11   -1    0    0    0    0 -0.00000000000E+00 -0.00000000000E+00 -0.50000000000E+03  0.50000000000E+03  0.00000000000E+00 0. -1.
        -11    1    1    2    0    0 -0.50839138032E+01 -0.31671916765E+01  0.30416709651E+03  0.30422606706E+03  0.00000000000E+00 0.  1.
         11    1    1    2    0    0  0.16335872165E+02 -0.10468947148E+02 -0.49693593940E+03  0.49731457593E+03  0.00000000000E+00 0. -1.
        -15    1    1    2    0    0  0.15820490818E+02  0.87692857288E+01  0.10167045102E+03  0.10328226683E+03  0.17770000000E+01 0. -1.
         15    1    1    2    0    0 -0.27072449180E+02  0.48668530953E+01  0.91098391873E+02  0.95177090177E+02  0.17770000000E+01 0.  1.
</event>
<event>
 6    1  0.3365733E-003  0.5007197E+03  0.7546771E-02  0.9398201E-01
        -11   -1    0    0    0    0  0.00000000000E+00  0.00000000000E+00  0.50000000000E+03  0.50000000000E+03  0.00000000000E+00 0. -1.
         11   -1    0    0    0    0 -0.00000000000E+00 -0.00000000000E+00 -0.50000000000E+03  0.50000000000E+03  0.00000000000E+00 0. -1.
        -11    1    1    2    0    0  0.32661176695E+01 -0.40597324309E+01  0.16785625515E+03  0.16793710533E+03  0.00000000000E+00 0. -1.
         11    1    1    2    0    0 -0.57186732643E+01  0.53503867065E+01 -0.49921883148E+03  0.49928025353E+03  0.00000000000E+00 0. -1.
        -15    1    1    2    0    0  0.21895430556E+01 -0.58496551194E+01  0.14564016798E+02  0.15946186945E+02  0.17770000000E+01 0.  1.
         15    1    1    2    0    0  0.26301253918E+00  0.45590008438E+01  0.31679855952E+03  0.31683645420E+03  0.17770000000E+01 0. -1.
</event>
<event>
 6    1  0.3365733E-003  0.5100141E+03  0.7546771E-02  0.9377677E-01
        -11   -1    0    0    0    0  0.00000000000E+00  0.00000000000E+00  0.50000000000E+03  0.50000000000E+03  0.00000000000E+00 0.  1.
         11   -1    0    0    0    0 -0.00000000000E+00 -0.00000000000E+00 -0.50000000000E+03  0.50000000000E+03  0.00000000000E+00 0. -1.
        -11    1    1    2    0    0  0.56644503662E+00  0.60586985586E+01  0.18086694105E+03  0.18096927654E+03  0.00000000000E+00 0.  1.
         11    1    1    2    0    0 -0.26854036484E+02  0.11389233182E+02 -0.48911684939E+03  0.48998586333E+03  0.00000000000E+00 0. -1.
        -15    1    1    2    0    0  0.51641727250E+01 -0.98167906294E+01  0.30621762146E+03  0.30642360790E+03  0.17770000000E+01 0.  1.
         15    1    1    2    0    0  0.21123418722E+02 -0.76311411110E+01  0.20322868813E+01  0.22621252223E+02  0.17770000000E+01 0. -1.
</event>
<event>
 6    1  0.3365733E-003  0.5014495E+03  0.7546771E-02  0.9396572E-01
        -11   -1    0    0    0    0  0.00000000000E+00  0.00000000000E+00  0.50000000000E+03  0.50000000000E+03  0.00000000000E+00 0.  1.
         11   -1    0    0    0    0 -0.00000000000E+00 -0.00000000000E+00 -0.50000000000E+03  0.50000000000E+03  0.00000000000E+00 0.  1.
        -11    1    1    2    0    0 -0.11103800987E+02 -0.25933725352E+01  0.23453575801E+03  0.23481278024E+03  0.00000000000E+00 0.  1.
         11    1    1    2    0    0 -0.65939941511E+01  0.59406807209E+01 -0.49847150841E+03  0.49855051614E+03  0.00000000000E+00 0.  1.
        -15    1    1    2    0    0  0.95975517740E+00 -0.51838827854E+01  0.61403526244E+01  0.82858572329E+01  0.17770000000E+01 0. -1.
         15    1    1    2    0    0  0.16738039960E+02  0.18365745997E+01  0.25779539777E+03  0.25835084639E+03  0.17770000000E+01 0.  1.
</event>
<event>
 6    1  0.3365733E-003  0.5020684E+03  0.7546771E-02  0.9395193E-01
        -11   -1    0    0    0    0  0.00000000000E+00  0.00000000000E+00  0.50000000000E+03  0.50000000000E+03  0.00000000000E+00 0. -1.
         11   -1    0    0    0    0 -0.00000000000E+00 -0.00000000000E+00 -0.50000000000E+03  0.50000000000E+03  0.00000000000E+00 0. -1.
        -11    1    1    2    0    0 -0.16877600979E+02  0.22802462314E+01  0.31291012442E+03  0.31337325811E+03  0.00000000000E+00 0. -1.
         11    1    1    2    0    0  0.49146574854E+01 -0.81543749749E+01 -0.49784059020E+03  0.49793162276E+03  0.00000000000E+00 0. -1.
        -15    1    1    2    0    0  0.16946506517E+02  0.60055440958E+01  0.18148018042E+03  0.18237725806E+03  0.17770000000E+01 0. -1.
         15    1    1    2    0    0 -0.49835630239E+01 -0.13141535234E+00  0.34502853712E+01  0.63178610741E+01  0.17770000000E+01 0.  1.
</event>
<event>
 6    1  0.3365733E-003  0.4933461E+03  0.7546771E-02  0.9414823E-01
        -11   -1    0    0    0    0  0.00000000000E+00  0.00000000000E+00  0.50000000000E+03  0.50000000000E+03  0.00000000000E+00 0.  1.
         11   -1    0    0    0    0 -0.00000000000E+00 -0.00000000000E+00 -0.50000000000E+03  0.50000000000E+03  0.00000000000E+00 0.  1.
        -11    1    1    2    0    0  0.50029974597E+01  0.62767388489E+01  0.49238205321E+03  0.49244747309E+03  0.00000000000E+00 0.  1.
         11    1    1    2    0    0 -0.10497016188E+02 -0.82071697959E+00 -0.49416460173E+03  0.49427675904E+03  0.00000000000E+00 0.  1.
        -15    1    1    2    0    0 -0.17337185784E+01 -0.33769990645E+01 -0.20317003717E+01  0.46578362134E+01  0.17770000000E+01 0. -1.
         15    1    1    2    0    0  0.72277373069E+01 -0.20790228048E+01  0.38142488914E+01  0.86179316547E+01  0.17770000000E+01 0.  1.
</event>
<event>
 6    1  0.3365733E-003  0.5043305E+03  0.7546771E-02  0.9390172E-01
        -11   -1    0    0    0    0  0.00000000000E+00  0.00000000000E+00  0.50000000000E+03  0.50000000000E+03  0.00000000000E+00 0. -1.
         11   -1    0    0    0    0 -0.00000000000E+00 -0.00000000000E+00 -0.50000000000E+03  0.50000000000E+03  0.00000000000E+00 0. -1.
        -11    1    1    2    0    0 -0.13174116072E+02 -0.84919462752E+01  0.47527013038E+03  0.47552851367E+03  0.00000000000E+00 0. -1.
         11    1    1    2    0    0  0.11410789501E+02  0.13570294935E+02 -0.49535224984E+03  0.49566945684E+03  0.00000000000E+00 0. -1.
        -15    1    1    2    0    0  0.80655256962E+01  0.18487454941E+01  0.16637982257E+02  0.18666835490E+02  0.17770000000E+01 0. -1.
         15    1    1    2    0    0 -0.63021991258E+01 -0.69270941538E+01  0.34441372086E+01  0.10135193997E+02  0.17770000000E+01 0.  1.
</event>
<event>
 6    1  0.3365733E-003  0.5029513E+03  0.7546771E-02  0.9393230E-01
        -11   -1    0    0    0    0  0.00000000000E+00  0.00000000000E+00  0.50000000000E+03  0.50000000000E+03  0.00000000000E+00 0. -1.
         11   -1    0    0    0    0 -0.00000000000E+00 -0.00000000000E+00 -0.50000000000E+03  0.50000000000E+03  0.00000000000E+00 0. -1.
        -11    1    1    2    0    0  0.87987213180E+01 -0.20536300532E+01  0.49696660985E+03  0.49704873624E+03  0.00000000000E+00 0. -1.
         11    1    1    2    0    0 -0.57765195915E+01 -0.44765234959E+01 -0.48735218466E+03  0.48740697506E+03  0.00000000000E+00 0. -1.
        -15    1    1    2    0    0  0.31657737226E+01  0.15814657233E+01 -0.42676184958E+01  0.58218084581E+01  0.17770000000E+01 0. -1.
         15    1    1    2    0    0 -0.61879754492E+01  0.49486878258E+01 -0.53468066852E+01  0.97224802435E+01  0.17770000000E+01 0.  1.
</event>
<event>
 6    1  0.3365733E-003  0.5003205E+03  0.7546771E-02  0.9399093E-01
        -11   -1    0    0    0    0  0.00000000000E+00  0.00000000000E+00  0.50000000000E+03  0.50000000000E+03  0.00000000000E+00 0.  1.
         11   -1    0    0    0    0 -0.00000000000E+00 -0.00000000000E+00 -0.50000000000E+03  0.50000000000E+03  0.00000000000E+00 0.  1.
        -11    1    1    2    0    0  0.13046168096E+02 -0.20373008186E+01  0.49950497348E+03  0.49967946889E+03  0.00000000000E+00 0.  1.
         11    1    1    2    0    0 -0.16913809244E+01  0.53661943742E+01 -0.33831372738E+03  0.33836051032E+03  0.00000000000E+00 0.  1.
        -15    1    1    2    0    0 -0.63247317153E+01  0.31800989269E+01 -0.68666648410E+02  0.69053469090E+02  0.17770000000E+01 0. -1.
         15    1    1    2    0    0 -0.50300554558E+01 -0.65089924826E+01 -0.92524597692E+02  0.92906551696E+02  0.17770000000E+01 0.  1.
</event>
<event>
 6    1  0.3365733E-003  0.5030803E+03  0.7546771E-02  0.9392944E-01
        -11   -1    0    0    0    0  0.00000000000E+00  0.00000000000E+00  0.50000000000E+03  0.50000000000E+03  0.00000000000E+00 0.  1.
         11   -1    0    0    0    0 -0.00000000000E+00 -0.00000000000E+00 -0.50000000000E+03  0.50000000000E+03  0.00000000000E+00 0. -1.
        -11    1    1    2    0    0  0.22952462092E+02 -0.32703918506E+02  0.49531085132E+03  0.49691971307E+03  0.00000000000E+00 0.  1.
         11    1    1    2    0    0 -0.19303576132E+02 -0.11113959454E+02 -0.14188876525E+03  0.14362649425E+03  0.00000000000E+00 0. -1.
        -15    1    1    2    0    0  0.20919686708E+02  0.27946779408E+02 -0.22732681037E+03  0.22999846132E+03  0.17770000000E+01 0. -1.
         15    1    1    2    0    0 -0.24568572668E+02  0.15871098552E+02 -0.12609527570E+03  0.12945533135E+03  0.17770000000E+01 0.  1.
</event>
<event>
 6    1  0.3365733E-003  0.5455947E+03  0.7546771E-02  0.9303197E-01
        -11   -1    0    0    0    0  0.00000000000E+00  0.00000000000E+00  0.50000000000E+03  0.50000000000E+03  0.00000000000E+00 0. -1.
         11   -1    0    0    0    0 -0.00000000000E+00 -0.00000000000E+00 -0.50000000000E+03  0.50000000000E+03  0.00000000000E+00 0.  1.
        -11    1    1    2    0    0  0.19010802308E+02 -0.85373953045E+02  0.37055992081E+03  0.38074240291E+03  0.00000000000E+00 0. -1.
         11    1    1    2    0    0 -0.36852118244E+02  0.20600329699E+02 -0.45243974363E+03  0.45440529687E+03  0.00000000000E+00 0.  1.
        -15    1    1    2    0    0 -0.68382185932E+01  0.20425116978E+02  0.10631910433E+03  0.10849357728E+03  0.17770000000E+01 0. -1.
         15    1    1    2    0    0  0.24679534529E+02  0.44348506368E+02 -0.24439281509E+02  0.56358722939E+02  0.17770000000E+01 0.  1.
</event>
<event>
 6    1  0.3365733E-003  0.5011199E+03  0.7546771E-02  0.9397307E-01
        -11   -1    0    0    0    0  0.00000000000E+00  0.00000000000E+00  0.50000000000E+03  0.50000000000E+03  0.00000000000E+00 0. -1.
         11   -1    0    0    0    0 -0.00000000000E+00 -0.00000000000E+00 -0.50000000000E+03  0.50000000000E+03  0.00000000000E+00 0. -1.
        -11    1    1    2    0    0 -0.51630452045E+01 -0.59114698957E+01  0.49881839121E+03  0.49888013582E+03  0.00000000000E+00 0. -1.
         11    1    1    2    0    0 -0.65693536123E+01 -0.24654545052E+01 -0.31726097370E+03  0.31733855787E+03  0.00000000000E+00 0. -1.
        -15    1    1    2    0    0 -0.37487667486E+01  0.59924594689E+01 -0.17346729197E+02  0.18815673399E+02  0.17770000000E+01 0.  1.
         15    1    1    2    0    0  0.15481165565E+02  0.23844649320E+01 -0.16421068830E+03  0.16496563291E+03  0.17770000000E+01 0. -1.
</event>
<event>
 6    1  0.3365733E-003  0.5007729E+03  0.7546771E-02  0.9398082E-01
        -11   -1    0    0    0    0  0.00000000000E+00  0.00000000000E+00  0.50000000000E+03  0.50000000000E+03  0.00000000000E+00 0.  1.
         11   -1    0    0    0    0 -0.00000000000E+00 -0.00000000000E+00 -0.50000000000E+03  0.50000000000E+03  0.00000000000E+00 0.  1.
        -11    1    1    2    0    0  0.10192678926E+02  0.18667780504E+02  0.49877379242E+03  0.49922707532E+03  0.00000000000E+00 0.  1.
         11    1    1    2    0    0 -0.43151652420E+01  0.24462418297E+01 -0.14626321062E+03  0.14634729766E+03  0.00000000000E+00 0.  1.
        -15    1    1    2    0    0  0.51368909694E+01  0.10666844285E+01 -0.14784539360E+02  0.15788153710E+02  0.17770000000E+01 0. -1.
         15    1    1    2    0    0 -0.11014404653E+02 -0.22180706762E+02 -0.33772604244E+03  0.33863747331E+03  0.17770000000E+01 0.  1.
</event>
<event>
 6    1  0.3365733E-003  0.5007426E+03  0.7546771E-02  0.9398150E-01
        -11   -1    0    0    0    0  0.00000000000E+00  0.00000000000E+00  0.50000000000E+03  0.50000000000E+03  0.00000000000E+00 0. -1.
         11   -1    0    0    0    0 -0.00000000000E+00 -0.00000000000E+00 -0.50000000000E+03  0.50000000000E+03  0.00000000000E+00 0.  1.
        -11    1    1    2    0    0 -0.83189135633E+01  0.27372887899E+00  0.49918801244E+03  0.49925739955E+03  0.00000000000E+00 0. -1.
         11    1    1    2    0    0  0.51705966766E+01 -0.68839527660E+01 -0.47015424484E+03  0.47023306755E+03  0.00000000000E+00 0.  1.
        -15    1    1    2    0    0  0.13339730416E+01  0.54186643330E+01 -0.24398052877E+02  0.25091116364E+02  0.17770000000E+01 0. -1.
         15    1    1    2    0    0  0.18143438451E+01  0.11915595539E+01 -0.46357147189E+01  0.54184165320E+01  0.17770000000E+01 0.  1.
</event>
<event>
 6    1  0.3365733E-003  0.4949482E+03  0.7546771E-02  0.9411185E-01
        -11   -1    0    0    0    0  0.00000000000E+00  0.00000000000E+00  0.50000000000E+03  0.50000000000E+03  0.00000000000E+00 0. -1.
         11   -1    0    0    0    0 -0.00000000000E+00 -0.00000000000E+00 -0.50000000000E+03  0.50000000000E+03  0.00000000000E+00 0.  1.
        -11    1    1    2    0    0  0.25394789949E+01 -0.63281529796E+01  0.49370729804E+03  0.49375438288E+03  0.00000000000E+00 0. -1.
         11    1    1    2    0    0  0.19773655879E+01  0.65366146185E+01 -0.49610827360E+03  0.49615527453E+03  0.00000000000E+00 0.  1.
        -15    1    1    2    0    0 -0.20012241747E+01  0.38251077160E+01  0.16943256840E+01  0.49663684680E+01  0.17770000000E+01 0. -1.
         15    1    1    2    0    0 -0.25156204081E+01 -0.40335693549E+01  0.70664987819E+00  0.51239741245E+01  0.17770000000E+01 0.  1.
</event>
<event>
 6    1  0.3365733E-003  0.5093639E+03  0.7546771E-02  0.9379098E-01
        -11   -1    0    0    0    0  0.00000000000E+00  0.00000000000E+00  0.50000000000E+03  0.50000000000E+03  0.00000000000E+00 0. -1.
         11   -1    0    0    0    0 -0.00000000000E+00 -0.00000000000E+00 -0.50000000000E+03  0.50000000000E+03  0.00000000000E+00 0.  1.
        -11    1    1    2    0    0 -0.98634690084E+01  0.51875761859E+01  0.48095901582E+03  0.48108811445E+03  0.00000000000E+00 0. -1.
         11    1    1    2    0    0  0.16894230448E+02 -0.27930697940E+01 -0.49033715258E+03  0.49063605601E+03  0.00000000000E+00 0.  1.
        -15    1    1    2    0    0  0.73604586635E+01 -0.32297137667E+01  0.10913865146E+02  0.13670317633E+02  0.17770000000E+01 0.  1.
         15    1    1    2    0    0 -0.14391220103E+02  0.83520737473E+00 -0.15357283879E+01  0.14605511908E+02  0.17770000000E+01 0. -1.
</event>
<event>
 6    1  0.3365733E-003  0.5050530E+03  0.7546771E-02  0.9388574E-01
        -11   -1    0    0    0    0  0.00000000000E+00  0.00000000000E+00  0.50000000000E+03  0.50000000000E+03  0.00000000000E+00 0. -1.
         11   -1    0    0    0    0 -0.00000000000E+00 -0.00000000000E+00 -0.50000000000E+03  0.50000000000E+03  0.00000000000E+00 0. -1.
        -11    1    1    2    0    0 -0.26017028365E+01  0.52639071664E+01  0.43456200719E+03  0.43460167472E+03  0.00000000000E+00 0. -1.
         11    1    1    2    0    0  0.16194245930E+01 -0.22851053745E+02 -0.49441656645E+03  0.49494700158E+03  0.00000000000E+00 0. -1.
        -15    1    1    2    0    0  0.13470716850E+02  0.13764688506E+02  0.51074609923E+02  0.54614104129E+02  0.17770000000E+01 0. -1.
         15    1    1    2    0    0 -0.12488438606E+02  0.38224580721E+01  0.87799493367E+01  0.15837219576E+02  0.17770000000E+01 0.  1.
</event>
<event>
 6    1  0.3365733E-003  0.4638850E+03  0.7546771E-02  0.9484456E-01
        -11   -1    0    0    0    0  0.00000000000E+00  0.00000000000E+00  0.50000000000E+03  0.50000000000E+03  0.00000000000E+00 0. -1.
         11   -1    0    0    0    0 -0.00000000000E+00 -0.00000000000E+00 -0.50000000000E+03  0.50000000000E+03  0.00000000000E+00 0.  1.
        -11    1    1    2    0    0 -0.10726820097E+02  0.16602203028E+01  0.46700365264E+03  0.46712978130E+03  0.00000000000E+00 0. -1.
         11    1    1    2    0    0  0.30522937790E+02  0.29605434289E+02 -0.45944511779E+03  0.46140865589E+03  0.00000000000E+00 0.  1.
        -15    1    1    2    0    0 -0.13763111880E+02 -0.44018614505E+02 -0.22056982028E+02  0.51153981827E+02  0.17770000000E+01 0. -1.
         15    1    1    2    0    0 -0.60330058131E+01  0.12752959913E+02  0.14498447179E+02  0.20307580981E+02  0.17770000000E+01 0.  1.
</event>
<event>
 6    1  0.3365733E-003  0.4773623E+03  0.7546771E-02  0.9451939E-01
        -11   -1    0    0    0    0  0.00000000000E+00  0.00000000000E+00  0.50000000000E+03  0.50000000000E+03  0.00000000000E+00 0.  1.
         11   -1    0    0    0    0 -0.00000000000E+00 -0.00000000000E+00 -0.50000000000E+03  0.50000000000E+03  0.00000000000E+00 0. -1.
        -11    1    1    2    0    0 -0.11803287390E+02  0.14351417679E+02  0.47753148064E+03  0.47789287062E+03  0.00000000000E+00 0.  1.
         11    1    1    2    0    0 -0.10085702706E+02  0.15100590911E+01 -0.47710535318E+03  0.47721433310E+03  0.00000000000E+00 0. -1.
        -15    1    1    2    0    0 -0.24304786549E+01 -0.13016208746E+02 -0.11810525928E+02  0.17831858241E+02  0.17770000000E+01 0. -1.
         15    1    1    2    0    0  0.24319468751E+02 -0.28452680239E+01  0.11384398468E+02  0.27060938047E+02  0.17770000000E+01 0.  1.
</event>
<event>
 6    1  0.3365733E-003  0.5106874E+03  0.7546771E-02  0.9376208E-01
        -11   -1    0    0    0    0  0.00000000000E+00  0.00000000000E+00  0.50000000000E+03  0.50000000000E+03  0.00000000000E+00 0. -1.
         11   -1    0    0    0    0 -0.00000000000E+00 -0.00000000000E+00 -0.50000000000E+03  0.50000000000E+03  0.00000000000E+00 0. -1.
        -11    1    1    2    0    0  0.61261824361E+01  0.73422345533E+01  0.48296294057E+03  0.48305759541E+03  0.00000000000E+00 0. -1.
         11    1    1    2    0    0 -0.64398217092E+01 -0.26503606506E+01 -0.48926299814E+03  0.48931255560E+03  0.00000000000E+00 0. -1.
        -15    1    1    2    0    0  0.11849195173E+02 -0.58346220541E+00 -0.27410966394E+01  0.12305088142E+02  0.17770000000E+01 0. -1.
         15    1    1    2    0    0 -0.11535555900E+02 -0.41084116973E+01  0.90411542159E+01  0.15324760851E+02  0.17770000000E+01 0.  1.
</event>
<event>
 6    1  0.3365733E-003  0.5059958E+03  0.7546771E-02  0.9386493E-01
        -11   -1    0    0    0    0  0.00000000000E+00  0.00000000000E+00  0.50000000000E+03  0.50000000000E+03  0.00000000000E+00 0.  1.
         11   -1    0    0    0    0 -0.00000000000E+00 -0.00000000000E+00 -0.50000000000E+03  0.50000000000E+03  0.00000000000E+00 0. -1.
        -11    1    1    2    0    0 -0.54532524507E+01 -0.83893081721E+01  0.49390281197E+03  0.49400415598E+03  0.00000000000E+00 0.  1.
         11    1    1    2    0    0  0.63985225909E+01 -0.99968442176E+00 -0.47466976502E+03  0.47471394154E+03  0.00000000000E+00 0. -1.
        -15    1    1    2    0    0 -0.95103248140E+01  0.89639877315E+01 -0.41254386843E+01  0.13819418492E+02  0.17770000000E+01 0. -1.
         15    1    1    2    0    0  0.85650546738E+01  0.42500486235E+00 -0.15107608263E+02  0.17462483991E+02  0.17770000000E+01 0.  1.
</event>
<event>
 6    1  0.3365733E-003  0.5005032E+03  0.7546771E-02  0.9398684E-01
        -11   -1    0    0    0    0  0.00000000000E+00  0.00000000000E+00  0.50000000000E+03  0.50000000000E+03  0.00000000000E+00 0.  1.
         11   -1    0    0    0    0 -0.00000000000E+00 -0.00000000000E+00 -0.50000000000E+03  0.50000000000E+03  0.00000000000E+00 0.  1.
        -11    1    1    2    0    0  0.11876120245E+02 -0.97848750317E+01  0.49925972897E+03  0.49949680979E+03  0.00000000000E+00 0.  1.
         11    1    1    2    0    0  0.44016048181E+01 -0.15828382745E+01 -0.23445276997E+03  0.23449942612E+03  0.00000000000E+00 0.  1.
        -15    1    1    2    0    0 -0.25462663044E+01 -0.21172178195E+01 -0.99468880265E+02  0.99539851083E+02  0.17770000000E+01 0. -1.
         15    1    1    2    0    0 -0.13731458759E+02  0.13484931126E+02 -0.16533807874E+03  0.16646391301E+03  0.17770000000E+01 0.  1.
</event>
<event>
 6    1  0.3365733E-003  0.5168900E+03  0.7546771E-02  0.9362790E-01
        -11   -1    0    0    0    0  0.00000000000E+00  0.00000000000E+00  0.50000000000E+03  0.50000000000E+03  0.00000000000E+00 0.  1.
         11   -1    0    0    0    0 -0.00000000000E+00 -0.00000000000E+00 -0.50000000000E+03  0.50000000000E+03  0.00000000000E+00 0.  1.
        -11    1    1    2    0    0  0.12170714228E+02  0.35638121059E+01  0.35316611378E+03  0.35339373362E+03  0.00000000000E+00 0.  1.
         11    1    1    2    0    0 -0.69610567799E+01  0.11679352775E+02 -0.48291858601E+03  0.48310995054E+03  0.00000000000E+00 0.  1.
        -15    1    1    2    0    0 -0.10769682463E+01 -0.12390765506E+02 -0.14476997510E+02  0.19168518887E+02  0.17770000000E+01 0. -1.
         15    1    1    2    0    0 -0.41326892023E+01 -0.28523993753E+01  0.14422946975E+03  0.14432779696E+03  0.17770000000E+01 0.  1.
</event>
<event>
 6    1  0.3365733E-003  0.5000909E+03  0.7546771E-02  0.9399606E-01
        -11   -1    0    0    0    0  0.00000000000E+00  0.00000000000E+00  0.50000000000E+03  0.50000000000E+03  0.00000000000E+00 0. -1.
         11   -1    0    0    0    0 -0.00000000000E+00 -0.00000000000E+00 -0.50000000000E+03  0.50000000000E+03  0.00000000000E+00 0. -1.
        -11    1    1    2    0    0 -0.66822046878E+01 -0.25800067852E+01  0.49985777484E+03  0.49990909510E+03  0.00000000000E+00 0. -1.
         11    1    1    2    0    0 -0.10826768941E+01 -0.34743173599E+00 -0.34562287844E+02  0.34580986670E+02  0.00000000000E+00 0. -1.
        -15    1    1    2    0    0 -0.11526788818E+01  0.39343547026E+01 -0.21689613917E+03  0.21694215988E+03  0.17770000000E+01 0. -1.
         15    1    1    2    0    0  0.89175604638E+01 -0.10069161814E+01 -0.24839934782E+03  0.24856775835E+03  0.17770000000E+01 0.  1.
</event>
<event>
 6    1  0.3365733E-003  0.5023290E+03  0.7546771E-02  0.9394613E-01
        -11   -1    0    0    0    0  0.00000000000E+00  0.00000000000E+00  0.50000000000E+03  0.50000000000E+03  0.00000000000E+00 0. -1.
         11   -1    0    0    0    0 -0.00000000000E+00 -0.00000000000E+00 -0.50000000000E+03  0.50000000000E+03  0.00000000000E+00 0.  1.
        -11    1    1    2    0    0 -0.18088276206E+02  0.96951964005E+01  0.49724766383E+03  0.49767099750E+03  0.00000000000E+00 0. -1.
         11    1    1    2    0    0 -0.68691674977E+01 -0.42178283914E+01 -0.33175273586E+03  0.33185064908E+03  0.00000000000E+00 0.  1.
        -15    1    1    2    0    0  0.18749098618E+01 -0.59981500238E+01 -0.47536025022E+01  0.80775959572E+01  0.17770000000E+01 0. -1.
         15    1    1    2    0    0  0.23082533842E+02  0.52078201477E+00 -0.16074132547E+03  0.16240075746E+03  0.17770000000E+01 0.  1.
</event>
<event>
 6    1  0.3365733E-003  0.5039118E+03  0.7546771E-02  0.9391099E-01
        -11   -1    0    0    0    0  0.00000000000E+00  0.00000000000E+00  0.50000000000E+03  0.50000000000E+03  0.00000000000E+00 0. -1.
         11   -1    0    0    0    0 -0.00000000000E+00 -0.00000000000E+00 -0.50000000000E+03  0.50000000000E+03  0.00000000000E+00 0. -1.
        -11    1    1    2    0    0  0.24539951412E+01 -0.63000981178E+01  0.49604213560E+03  0.49608821153E+03  0.00000000000E+00 0. -1.
         11    1    1    2    0    0  0.81211466917E+00  0.77043034223E+01 -0.48506816694E+03  0.48513002628E+03  0.00000000000E+00 0. -1.
        -15    1    1    2    0    0  0.29602776049E+01 -0.59551892224E+01 -0.73722475045E+01  0.10086391051E+02  0.17770000000E+01 0.  1.
         15    1    1    2    0    0 -0.62263874152E+01  0.45509839178E+01 -0.36017211643E+01  0.86953711370E+01  0.17770000000E+01 0. -1.
</event>
<event>
 6    1  0.3365733E-003  0.5138885E+03  0.7546771E-02  0.9369258E-01
        -11   -1    0    0    0    0  0.00000000000E+00  0.00000000000E+00  0.50000000000E+03  0.50000000000E+03  0.00000000000E+00 0.  1.
         11   -1    0    0    0    0 -0.00000000000E+00 -0.00000000000E+00 -0.50000000000E+03  0.50000000000E+03  0.00000000000E+00 0. -1.
        -11    1    1    2    0    0 -0.17340846398E+02  0.35918785218E+01  0.41559611120E+03  0.41597323735E+03  0.00000000000E+00 0.  1.
         11    1    1    2    0    0 -0.17022006313E+02  0.14332607245E+02 -0.48560193625E+03  0.48611152303E+03  0.00000000000E+00 0. -1.
        -15    1    1    2    0    0 -0.75682007204E+00 -0.17404569914E+02 -0.21522291308E+01  0.17643175728E+02  0.17770000000E+01 0. -1.
         15    1    1    2    0    0  0.35119672783E+02 -0.51991585299E+00  0.72158054182E+02  0.80272063891E+02  0.17770000000E+01 0.  1.
</event>
<event>
 6    1  0.8269751E-003  0.5087036E+03  0.7546771E-02  0.9380543E-01
        -11   -1    0    0    0    0  0.00000000000E+00  0.00000000000E+00  0.50000000000E+03  0.50000000000E+03  0.00000000000E+00 0. -1.
         11   -1    0    0    0    0 -0.00000000000E+00 -0.00000000000E+00 -0.50000000000E+03  0.50000000000E+03  0.00000000000E+00 0.  1.
        -11    1    1    2    0    0 -0.75447518414E+01 -0.11248810298E+01  0.49123722278E+03  0.49129644583E+03  0.00000000000E+00 0. -1.
         11    1    1    2    0    0  0.11501440529E+02  0.10030839186E+02 -0.37220322567E+03  0.37251596216E+03  0.00000000000E+00 0.  1.
        -15    1    1    2    0    0 -0.65449190108E+01 -0.77483415014E+01 -0.12706803671E+03  0.12748457335E+03  0.17770000000E+01 0.  1.
         15    1    1    2    0    0  0.25882303227E+01 -0.11576166551E+01  0.80340395918E+01  0.87030186537E+01  0.17770000000E+01 0. -1.
</event>
<event>
 6    1  0.3365733E-003  0.5009011E+03  0.7546771E-02  0.9397796E-01
        -11   -1    0    0    0    0  0.00000000000E+00  0.00000000000E+00  0.50000000000E+03  0.50000000000E+03  0.00000000000E+00 0.  1.
         11   -1    0    0    0    0 -0.00000000000E+00 -0.00000000000E+00 -0.50000000000E+03  0.50000000000E+03  0.00000000000E+00 0. -1.
        -11    1    1    2    0    0 -0.57558344902E+01 -0.51684197088E+01  0.37147829330E+03  0.37155883058E+03  0.00000000000E+00 0.  1.
         11    1    1    2    0    0 -0.28619238519E+01 -0.65229731468E+01 -0.49904806344E+03  0.49909889742E+03  0.00000000000E+00 0. -1.
        -15    1    1    2    0    0  0.47606838425E+01  0.41287182634E+01  0.14150203979E+02  0.15591549852E+02  0.17770000000E+01 0. -1.
         15    1    1    2    0    0  0.38570744996E+01  0.75626745922E+01  0.11341956616E+03  0.11375072214E+03  0.17770000000E+01 0.  1.
</event>
<event>
 6    1  0.3365733E-003  0.5055633E+03  0.7546771E-02  0.9387447E-01
        -11   -1    0    0    0    0  0.00000000000E+00  0.00000000000E+00  0.50000000000E+03  0.50000000000E+03  0.00000000000E+00 0. -1.
         11   -1    0    0    0    0 -0.00000000000E+00 -0.00000000000E+00 -0.50000000000E+03  0.50000000000E+03  0.00000000000E+00 0.  1.
        -11    1    1    2    0    0 -0.72093023046E+01  0.18264183771E+01  0.47732382893E+03  0.47738176286E+03  0.00000000000E+00 0. -1.
         11    1    1    2    0    0 -0.92641938253E+00  0.70811943612E+01 -0.49438512309E+03  0.49443670121E+03  0.00000000000E+00 0.  1.
        -15    1    1    2    0    0  0.10685928646E+02 -0.51286698761E+01  0.19364501369E+02  0.22773536572E+02  0.17770000000E+01 0. -1.
         15    1    1    2    0    0 -0.25502069591E+01 -0.37789428622E+01 -0.23032072065E+01  0.54079993644E+01  0.17770000000E+01 0.  1.
</event>
<event>
 6    1  0.3365733E-003  0.5024996E+03  0.7546771E-02  0.9394234E-01
        -11   -1    0    0    0    0  0.00000000000E+00  0.00000000000E+00  0.50000000000E+03  0.50000000000E+03  0.00000000000E+00 0.  1.
         11   -1    0    0    0    0 -0.00000000000E+00 -0.00000000000E+00 -0.50000000000E+03  0.50000000000E+03  0.00000000000E+00 0.  1.
        -11    1    1    2    0    0 -0.38457302417E+01 -0.84802537894E-01  0.16659081761E+03  0.16663522240E+03  0.00000000000E+00 0.  1.
         11    1    1    2    0    0 -0.15273068299E+02  0.25233080088E+02 -0.49662530517E+03  0.49750042079E+03  0.00000000000E+00 0.  1.
        -15    1    1    2    0    0  0.47068268301E+01 -0.40630553797E+02  0.20647143360E+03  0.21049134600E+03  0.17770000000E+01 0.  1.
         15    1    1    2    0    0  0.14411971710E+02  0.15482276247E+02  0.12356305396E+03  0.12537301081E+03  0.17770000000E+01 0. -1.
</event>
<event>
 6    1  0.3365733E-003  0.5208696E+03  0.7546771E-02  0.9354286E-01
        -11   -1    0    0    0    0  0.00000000000E+00  0.00000000000E+00  0.50000000000E+03  0.50000000000E+03  0.00000000000E+00 0. -1.
         11   -1    0    0    0    0 -0.00000000000E+00 -0.00000000000E+00 -0.50000000000E+03  0.50000000000E+03  0.00000000000E+00 0. -1.
        -11    1    1    2    0    0 -0.77595934078E+01  0.98314047518E+00  0.32908716209E+03  0.32918009980E+03  0.00000000000E+00 0. -1.
         11    1    1    2    0    0  0.14111727303E+02  0.84332602146E+01 -0.47884823460E+03  0.47913035022E+03  0.00000000000E+00 0. -1.
        -15    1    1    2    0    0  0.11135183472E+02 -0.29012683701E+01  0.16629005925E+03  0.16669718415E+03  0.17770000000E+01 0.  1.
         15    1    1    2    0    0 -0.17487317367E+02 -0.65151323196E+01 -0.16528986741E+02  0.24992365825E+02  0.17770000000E+01 0. -1.
</event>
<event>
 6    1  0.3365733E-003  0.5018355E+03  0.7546771E-02  0.9395712E-01
        -11   -1    0    0    0    0  0.00000000000E+00  0.00000000000E+00  0.50000000000E+03  0.50000000000E+03  0.00000000000E+00 0. -1.
         11   -1    0    0    0    0 -0.00000000000E+00 -0.00000000000E+00 -0.50000000000E+03  0.50000000000E+03  0.00000000000E+00 0.  1.
        -11    1    1    2    0    0 -0.36576031517E+01  0.33575379768E+01  0.26410123761E+03  0.26414790332E+03  0.00000000000E+00 0. -1.
         11    1    1    2    0    0 -0.75585897575E+01 -0.82235229004E+01 -0.49803931226E+03  0.49816454628E+03  0.00000000000E+00 0.  1.
        -15    1    1    2    0    0  0.53059236831E+01 -0.10694410721E+02  0.19410685069E+03  0.19448174840E+03  0.17770000000E+01 0.  1.
         15    1    1    2    0    0  0.59102692261E+01  0.15560395644E+02  0.39831223965E+02  0.43205802000E+02  0.17770000000E+01 0.  1.
</event>
<event>
 6    1  0.3365733E-003  0.5194024E+03  0.7546771E-02  0.9357412E-01
        -11   -1    0    0    0    0  0.00000000000E+00  0.00000000000E+00  0.50000000000E+03  0.50000000000E+03  0.00000000000E+00 0.  1.
         11   -1    0    0    0    0 -0.00000000000E+00 -0.00000000000E+00 -0.50000000000E+03  0.50000000000E+03  0.00000000000E+00 0.  1.
        -11    1    1    2    0    0 -0.17697956849E+02 -0.24343327830E+02  0.44464510689E+03  0.44566252520E+03  0.00000000000E+00 0.  1.
         11    1    1    2    0    0  0.46796033442E+01 -0.65717290650E+01 -0.48052986611E+03  0.48059758482E+03  0.00000000000E+00 0.  1.
        -15    1    1    2    0    0 -0.63119516033E+01  0.39575884451E+02  0.12231238322E+02  0.41938672880E+02  0.17770000000E+01 0.  1.
         15    1    1    2    0    0  0.19330305108E+02 -0.86608275558E+01  0.23653520892E+02  0.31801217101E+02  0.17770000000E+01 0. -1.
</event>
<event>
 6    1  0.3365733E-003  0.4141392E+03  0.7546771E-02  0.9615522E-01
        -11   -1    0    0    0    0  0.00000000000E+00  0.00000000000E+00  0.50000000000E+03  0.50000000000E+03  0.00000000000E+00 0. -1.
         11   -1    0    0    0    0 -0.00000000000E+00 -0.00000000000E+00 -0.50000000000E+03  0.50000000000E+03  0.00000000000E+00 0. -1.
        -11    1    1    2    0    0  0.34914143431E+01 -0.80468478469E+01  0.40902150125E+03  0.40911554629E+03  0.00000000000E+00 0. -1.
         11    1    1    2    0    0 -0.17507974308E+02 -0.81633818257E+02 -0.41585122556E+03  0.42414956236E+03  0.00000000000E+00 0. -1.
        -15    1    1    2    0    0  0.62244549098E+02  0.97659624716E+02  0.16136451604E+02  0.11694156229E+03  0.17770000000E+01 0. -1.
         15    1    1    2    0    0 -0.48227989133E+02 -0.79789586118E+01 -0.93067272898E+01  0.49793329053E+02  0.17770000000E+01 0.  1.
</event>
<event>
 6    1  0.3365733E-003  0.5070158E+03  0.7546771E-02  0.9384247E-01
        -11   -1    0    0    0    0  0.00000000000E+00  0.00000000000E+00  0.50000000000E+03  0.50000000000E+03  0.00000000000E+00 0. -1.
         11   -1    0    0    0    0 -0.00000000000E+00 -0.00000000000E+00 -0.50000000000E+03  0.50000000000E+03  0.00000000000E+00 0.  1.
        -11    1    1    2    0    0 -0.90859039917E+01 -0.43774571383E+00  0.49290022300E+03  0.49298415300E+03  0.00000000000E+00 0. -1.
         11    1    1    2    0    0  0.99581522574E+01 -0.30796465521E+01 -0.46567598192E+03  0.46579262463E+03  0.00000000000E+00 0.  1.
        -15    1    1    2    0    0  0.84308002523E+01  0.12530053715E+01  0.32018324359E+01  0.92767383979E+01  0.17770000000E+01 0. -1.
         15    1    1    2    0    0 -0.93030485180E+01  0.22643868944E+01 -0.30426073519E+02  0.31946483978E+02  0.17770000000E+01 0.  1.
</event>
<event>
 6    1  0.3365733E-003  0.4896190E+03  0.7546771E-02  0.9423342E-01
        -11   -1    0    0    0    0  0.00000000000E+00  0.00000000000E+00  0.50000000000E+03  0.50000000000E+03  0.00000000000E+00 0. -1.
         11   -1    0    0    0    0 -0.00000000000E+00 -0.00000000000E+00 -0.50000000000E+03  0.50000000000E+03  0.00000000000E+00 0.  1.
        -11    1    1    2    0    0  0.74056315025E+01 -0.82037677293E+01  0.48563903327E+03  0.48576477416E+03  0.00000000000E+00 0. -1.
         11    1    1    2    0    0  0.63282621554E+01  0.45003400615E+01 -0.49354732559E+03  0.49360841014E+03  0.00000000000E+00 0.  1.
        -15    1    1    2    0    0 -0.32272988376E+01  0.64550364186E+01  0.68761155455E+00  0.74641470780E+01  0.17770000000E+01 0. -1.
         15    1    1    2    0    0 -0.10506594820E+02 -0.27516087508E+01  0.72206807722E+01  0.13162668622E+02  0.17770000000E+01 0.  1.
</event>
<event>
 6    1  0.3365733E-003  0.5040187E+03  0.7546771E-02  0.9390862E-01
        -11   -1    0    0    0    0  0.00000000000E+00  0.00000000000E+00  0.50000000000E+03  0.50000000000E+03  0.00000000000E+00 0.  1.
         11   -1    0    0    0    0 -0.00000000000E+00 -0.00000000000E+00 -0.50000000000E+03  0.50000000000E+03  0.00000000000E+00 0.  1.
        -11    1    1    2    0    0  0.47349087007E+01  0.73529759409E+00  0.29262939968E+03  0.29266862760E+03  0.00000000000E+00 0.  1.
         11    1    1    2    0    0  0.26270920813E+01  0.68565029430E+01 -0.49592691154E+03  0.49598126460E+03  0.00000000000E+00 0.  1.
        -15    1    1    2    0    0  0.13128615619E+02  0.56356984356E+01  0.16678484493E+03  0.16740508915E+03  0.17770000000E+01 0.  1.
         15    1    1    2    0    0 -0.20490616401E+02 -0.13227498973E+02  0.36512666923E+02  0.43945018653E+02  0.17770000000E+01 0. -1.
</event>
<event>
 6    1  0.3365733E-003  0.5095052E+03  0.7546771E-02  0.9378789E-01
        -11   -1    0    0    0    0  0.00000000000E+00  0.00000000000E+00  0.50000000000E+03  0.50000000000E+03  0.00000000000E+00 0.  1.
         11   -1    0    0    0    0 -0.00000000000E+00 -0.00000000000E+00 -0.50000000000E+03  0.50000000000E+03  0.00000000000E+00 0. -1.
        -11    1    1    2    0    0  0.66455911400E+01 -0.17106122542E+02  0.40962413945E+03  0.41003502159E+03  0.00000000000E+00 0.  1.
         11    1    1    2    0    0 -0.20913716082E+02 -0.52258198876E+01 -0.49002086118E+03  0.49049478805E+03  0.00000000000E+00 0. -1.
        -15    1    1    2    0    0  0.16942083909E+02  0.38998707712E+01  0.78775316930E+02  0.80690467130E+02  0.17770000000E+01 0.  1.
         15    1    1    2    0    0 -0.26739589675E+01  0.18432071658E+02  0.16214047962E+01  0.18779723233E+02  0.17770000000E+01 0. -1.
</event>
<event>
 6    1  0.3365733E-003  0.5134084E+03  0.7546771E-02  0.9370297E-01
        -11   -1    0    0    0    0  0.00000000000E+00  0.00000000000E+00  0.50000000000E+03  0.50000000000E+03  0.00000000000E+00 0.  1.
         11   -1    0    0    0    0 -0.00000000000E+00 -0.00000000000E+00 -0.50000000000E+03  0.50000000000E+03  0.00000000000E+00 0.  1.
        -11    1    1    2    0    0  0.18713374405E+01 -0.66594134279E+01  0.48654245038E+03  0.48659162108E+03  0.00000000000E+00 0.  1.
         11    1    1    2    0    0  0.80381297975E+01  0.52775181603E+02 -0.29454328393E+03  0.29934190724E+03  0.00000000000E+00 0.  1.
        -15    1    1    2    0    0 -0.23621533334E+02 -0.52321169895E+02 -0.19034489960E+03  0.19882107582E+03  0.17770000000E+01 0. -1.
         15    1    1    2    0    0  0.13712066096E+02  0.62054017191E+01 -0.16542668479E+01  0.15245395860E+02  0.17770000000E+01 0.  1.
</event>
<event>
 6    1  0.3365733E-003  0.5130327E+03  0.7546771E-02  0.9371111E-01
        -11   -1    0    0    0    0  0.00000000000E+00  0.00000000000E+00  0.50000000000E+03  0.50000000000E+03  0.00000000000E+00 0.  1.
         11   -1    0    0    0    0 -0.00000000000E+00 -0.00000000000E+00 -0.50000000000E+03  0.50000000000E+03  0.00000000000E+00 0. -1.
        -11    1    1    2    0    0  0.42616372971E+00  0.68387789294E+01  0.48691913210E+03  0.48696734153E+03  0.00000000000E+00 0.  1.
         11    1    1    2    0    0 -0.70832847116E+01  0.24376577904E+00 -0.45321696213E+03  0.45327237629E+03  0.00000000000E+00 0. -1.
        -15    1    1    2    0    0  0.50698617886E+01 -0.66543537144E+01 -0.46223023342E+02  0.47007547669E+02  0.17770000000E+01 0. -1.
         15    1    1    2    0    0  0.15872591933E+01 -0.42819099405E+00  0.12520853375E+02  0.12752734511E+02  0.17770000000E+01 0.  1.
</event>
<event>
 6    1  0.3365733E-003  0.5078336E+03  0.7546771E-02  0.9382450E-01
        -11   -1    0    0    0    0  0.00000000000E+00  0.00000000000E+00  0.50000000000E+03  0.50000000000E+03  0.00000000000E+00 0. -1.
         11   -1    0    0    0    0 -0.00000000000E+00 -0.00000000000E+00 -0.50000000000E+03  0.50000000000E+03  0.00000000000E+00 0.  1.
        -11    1    1    2    0    0 -0.55664994513E+01 -0.21002377390E+02  0.49168656496E+03  0.49216639862E+03  0.00000000000E+00 0. -1.
         11    1    1    2    0    0  0.56244272438E+00  0.61077224374E+01 -0.45262630245E+03  0.45266785868E+03  0.00000000000E+00 0.  1.
        -15    1    1    2    0    0  0.82169721682E+01  0.19585764615E+02 -0.68179559662E+01  0.22377735805E+02  0.17770000000E+01 0.  1.
         15    1    1    2    0    0 -0.32129154413E+01 -0.46911096628E+01 -0.32242306543E+02  0.32788006888E+02  0.17770000000E+01 0. -1.
</event>
<event>
 6    1  0.3365733E-003  0.5062089E+03  0.7546771E-02  0.9386023E-01
        -11   -1    0    0    0    0  0.00000000000E+00  0.00000000000E+00  0.50000000000E+03  0.50000000000E+03  0.00000000000E+00 0.  1.
         11   -1    0    0    0    0 -0.00000000000E+00 -0.00000000000E+00 -0.50000000000E+03  0.50000000000E+03  0.00000000000E+00 0.  1.
        -11    1    1    2    0    0 -0.56137831779E+01 -0.21224434590E+01  0.14467206172E+03  0.14479649433E+03  0.00000000000E+00 0.  1.
         11    1    1    2    0    0 -0.21000463465E+02  0.30687837797E+00 -0.49334419737E+03  0.49379105978E+03  0.00000000000E+00 0.  1.
        -15    1    1    2    0    0  0.15224379815E+02 -0.10058096160E+02  0.74497298605E+01  0.19788967712E+02  0.17770000000E+01 0. -1.
         15    1    1    2    0    0  0.11389866828E+02  0.11873661241E+02  0.34122240579E+03  0.34162347817E+03  0.17770000000E+01 0.  1.
</event>
<event>
 6    1  0.3365733E-003  0.4712622E+03  0.7546771E-02  0.9466513E-01
        -11   -1    0    0    0    0  0.00000000000E+00  0.00000000000E+00  0.50000000000E+03  0.50000000000E+03  0.00000000000E+00 0.  1.
         11   -1    0    0    0    0 -0.00000000000E+00 -0.00000000000E+00 -0.50000000000E+03  0.50000000000E+03  0.00000000000E+00 0. -1.
        -11    1    1    2    0    0  0.85230553077E+01 -0.22498510480E+02  0.46514384604E+03  0.46576563092E+03  0.00000000000E+00 0.  1.
         11    1    1    2    0    0 -0.79872632442E+01 -0.14296893931E+02 -0.47727407107E+03  0.47755495648E+03  0.00000000000E+00 0. -1.
        -15    1    1    2    0    0 -0.11159388171E+02  0.39006842573E+02  0.41577542466E+00  0.40612760434E+02  0.17770000000E+01 0.  1.
         15    1    1    2    0    0  0.10623596107E+02 -0.22114381623E+01  0.11714449606E+02  0.16066652158E+02  0.17770000000E+01 0. -1.
</event>
<event>
 6    1  0.3365733E-003  0.5020506E+03  0.7546771E-02  0.9395233E-01
        -11   -1    0    0    0    0  0.00000000000E+00  0.00000000000E+00  0.50000000000E+03  0.50000000000E+03  0.00000000000E+00 0.  1.
         11   -1    0    0    0    0 -0.00000000000E+00 -0.00000000000E+00 -0.50000000000E+03  0.50000000000E+03  0.00000000000E+00 0. -1.
        -11    1    1    2    0    0 -0.41127306192E+01 -0.53556253851E+01  0.38923402075E+03  0.38929258944E+03  0.00000000000E+00 0.  1.
         11    1    1    2    0    0 -0.53937380035E+00  0.71918792398E+01 -0.49789718330E+03  0.49794941429E+03  0.00000000000E+00 0. -1.
        -15    1    1    2    0    0  0.11212219927E+02  0.92631998960E+01  0.34827582353E+02  0.37784110015E+02  0.17770000000E+01 0.  1.
         15    1    1    2    0    0 -0.65601155077E+01 -0.11099453751E+02  0.73835580195E+02  0.74973886259E+02  0.17770000000E+01 0. -1.
</event>
<event>
 6    1  0.3365733E-003  0.5067575E+03  0.7546771E-02  0.9384815E-01
        -11   -1    0    0    0    0  0.00000000000E+00  0.00000000000E+00  0.50000000000E+03  0.50000000000E+03  0.00000000000E+00 0. -1.
         11   -1    0    0    0    0 -0.00000000000E+00 -0.00000000000E+00 -0.50000000000E+03  0.50000000000E+03  0.00000000000E+00 0.  1.
        -11    1    1    2    0    0  0.18680273581E+01  0.15092762565E+02  0.49300801474E+03  0.49324252007E+03  0.00000000000E+00 0. -1.
         11    1    1    2    0    0  0.61152771315E+01  0.32370283447E+01 -0.43687800478E+03  0.43693279349E+03  0.00000000000E+00 0.  1.
        -15    1    1    2    0    0 -0.10302810681E+02 -0.86086784263E+01 -0.57950496704E+02  0.59511974001E+02  0.17770000000E+01 0. -1.
         15    1    1    2    0    0  0.23195061913E+01 -0.97211124837E+01  0.18204867397E+01  0.10312712440E+02  0.17770000000E+01 0.  1.
</event>
<event>
 6    1  0.3365733E-003  0.5055418E+03  0.7546771E-02  0.9387494E-01
        -11   -1    0    0    0    0  0.00000000000E+00  0.00000000000E+00  0.50000000000E+03  0.50000000000E+03  0.00000000000E+00 0. -1.
         11   -1    0    0    0    0 -0.00000000000E+00 -0.00000000000E+00 -0.50000000000E+03  0.50000000000E+03  0.00000000000E+00 0. -1.
        -11    1    1    2    0    0  0.91752697980E+00  0.65357941523E+00  0.59816763350E+02  0.59827369986E+02  0.00000000000E+00 0. -1.
         11    1    1    2    0    0  0.18039808426E+01  0.78812854108E+01 -0.49439208049E+03  0.49445818656E+03  0.00000000000E+00 0. -1.
        -15    1    1    2    0    0 -0.21664238128E+01  0.13784465476E+02  0.40928004083E+01  0.14649697088E+02  0.17770000000E+01 0.  1.
         15    1    1    2    0    0 -0.55508400964E+00 -0.22319330302E+02  0.43048251673E+03  0.43106474637E+03  0.17770000000E+01 0. -1.
</event>
<event>
 6    1  0.3365733E-003  0.4719948E+03  0.7546771E-02  0.9464750E-01
        -11   -1    0    0    0    0  0.00000000000E+00  0.00000000000E+00  0.50000000000E+03  0.50000000000E+03  0.00000000000E+00 0.  1.
         11   -1    0    0    0    0 -0.00000000000E+00 -0.00000000000E+00 -0.50000000000E+03  0.50000000000E+03  0.00000000000E+00 0. -1.
        -11    1    1    2    0    0 -0.73785685993E+01  0.50667591993E+01  0.47223517750E+03  0.47231999555E+03  0.00000000000E+00 0.  1.
         11    1    1    2    0    0 -0.11007903177E+02 -0.59352149449E+00 -0.47173066041E+03  0.47185945171E+03  0.00000000000E+00 0. -1.
        -15    1    1    2    0    0  0.60227016481E+01 -0.21917076294E+01  0.25783035010E+02  0.26627037777E+02  0.17770000000E+01 0. -1.
         15    1    1    2    0    0  0.12363770128E+02 -0.22815300754E+01 -0.26287552103E+02  0.29193514962E+02  0.17770000000E+01 0.  1.
</event>
<event>
 6    1  0.3365733E-003  0.5009977E+03  0.7546771E-02  0.9397580E-01
        -11   -1    0    0    0    0  0.00000000000E+00  0.00000000000E+00  0.50000000000E+03  0.50000000000E+03  0.00000000000E+00 0. -1.
         11   -1    0    0    0    0 -0.00000000000E+00 -0.00000000000E+00 -0.50000000000E+03  0.50000000000E+03  0.00000000000E+00 0. -1.
        -11    1    1    2    0    0 -0.24050552893E+01  0.52256132863E+01  0.29928253616E+03  0.29933781548E+03  0.00000000000E+00 0. -1.
         11    1    1    2    0    0 -0.10258610281E+02  0.91485697701E+00 -0.49889595208E+03  0.49900225155E+03  0.00000000000E+00 0. -1.
        -15    1    1    2    0    0  0.45155888240E+01 -0.37286690574E+01  0.18119286317E+03  0.18129618007E+03  0.17770000000E+01 0.  1.
         15    1    1    2    0    0  0.81480767467E+01 -0.24118012060E+01  0.18420552755E+02  0.20363752909E+02  0.17770000000E+01 0. -1.
</event>
<event>
 6    1  0.3365733E-003  0.5014688E+03  0.7546771E-02  0.9396529E-01
        -11   -1    0    0    0    0  0.00000000000E+00  0.00000000000E+00  0.50000000000E+03  0.50000000000E+03  0.00000000000E+00 0. -1.
         11   -1    0    0    0    0 -0.00000000000E+00 -0.00000000000E+00 -0.50000000000E+03  0.50000000000E+03  0.00000000000E+00 0.  1.
        -11    1    1    2    0    0 -0.22736277467E+01  0.58678244894E+01  0.45213232392E+03  0.45217611512E+03  0.00000000000E+00 0. -1.
         11    1    1    2    0    0 -0.39111045989E+01 -0.69997677947E+01 -0.49846671182E+03  0.49853119891E+03  0.00000000000E+00 0.  1.
        -15    1    1    2    0    0 -0.67964642383E+00  0.23947963152E+01  0.38612102313E+02  0.38733049747E+02  0.17770000000E+01 0.  1.
         15    1    1    2    0    0  0.68643787695E+01 -0.12628530099E+01  0.77222855875E+01  0.10559636230E+02  0.17770000000E+01 0. -1.
</event>
<event>
 6    1  0.3365733E-003  0.4895528E+03  0.7546771E-02  0.9423494E-01
        -11   -1    0    0    0    0  0.00000000000E+00  0.00000000000E+00  0.50000000000E+03  0.50000000000E+03  0.00000000000E+00 0.  1.
         11   -1    0    0    0    0 -0.00000000000E+00 -0.00000000000E+00 -0.50000000000E+03  0.50000000000E+03  0.00000000000E+00 0. -1.
        -11    1    1    2    0    0  0.34699920964E+01 -0.10490653626E+02  0.49004174903E+03  0.49016630897E+03  0.00000000000E+00 0.  1.
         11    1    1    2    0    0 -0.84940610574E+01 -0.58551053671E+01 -0.48898042035E+03  0.48908923809E+03  0.00000000000E+00 0. -1.
        -15    1    1    2    0    0  0.62119634979E+01  0.96347746773E+01 -0.50478721226E+01  0.12651328608E+02  0.17770000000E+01 0. -1.
         15    1    1    2    0    0 -0.11878945369E+01  0.67109843160E+01  0.39865434423E+01  0.80931243372E+01  0.17770000000E+01 0.  1.
</event>
<event>
 6    1  0.3365733E-003  0.5008599E+03  0.7546771E-02  0.9397888E-01
        -11   -1    0    0    0    0  0.00000000000E+00  0.00000000000E+00  0.50000000000E+03  0.50000000000E+03  0.00000000000E+00 0. -1.
         11   -1    0    0    0    0 -0.00000000000E+00 -0.00000000000E+00 -0.50000000000E+03  0.50000000000E+03  0.00000000000E+00 0. -1.
        -11    1    1    2    0    0 -0.53094435227E+01  0.53375557837E+01  0.49908336069E+03  0.49914014125E+03  0.00000000000E+00 0. -1.
         11    1    1    2    0    0 -0.87913040894E+01 -0.21358922313E+01 -0.41290728901E+03  0.41300639024E+03  0.00000000000E+00 0. -1.
        -15    1    1    2    0    0  0.90884849010E+01 -0.47993667920E+01 -0.69472537631E+02  0.70251161509E+02  0.17770000000E+01 0. -1.
         15    1    1    2    0    0  0.50122627111E+01  0.15977032396E+01 -0.16703534046E+02  0.17602307001E+02  0.17770000000E+01 0.  1.
</event>
<event>
 6    1  0.3365733E-003  0.5046352E+03  0.7546771E-02  0.9389497E-01
        -11   -1    0    0    0    0  0.00000000000E+00  0.00000000000E+00  0.50000000000E+03  0.50000000000E+03  0.00000000000E+00 0. -1.
         11   -1    0    0    0    0 -0.00000000000E+00 -0.00000000000E+00 -0.50000000000E+03  0.50000000000E+03  0.00000000000E+00 0.  1.
        -11    1    1    2    0    0  0.74765300003E+01 -0.31050679509E+01  0.40005379911E+03  0.40013570464E+03  0.00000000000E+00 0. -1.
         11    1    1    2    0    0  0.37133861508E+00 -0.67886391484E+01 -0.49531816192E+03  0.49536482015E+03  0.00000000000E+00 0.  1.
        -15    1    1    2    0    0  0.52958053559E+00  0.96749122097E+01  0.10616399434E+01  0.99080366460E+01  0.17770000000E+01 0. -1.
         15    1    1    2    0    0 -0.83774491510E+01  0.21879488961E+00  0.94202722867E+02  0.94591438566E+02  0.17770000000E+01 0. -1.
</event>
<event>
 6    1  0.3365733E-003  0.4986935E+03  0.7546771E-02  0.9402738E-01
        -11   -1    0    0    0    0  0.00000000000E+00  0.00000000000E+00  0.50000000000E+03  0.50000000000E+03  0.00000000000E+00 0. -1.
         11   -1    0    0    0    0 -0.00000000000E+00 -0.00000000000E+00 -0.50000000000E+03  0.50000000000E+03  0.00000000000E+00 0. -1.
        -11    1    1    2    0    0 -0.86740356280E+01 -0.24271431774E+01  0.49888858650E+03  0.49896989053E+03  0.00000000000E+00 0. -1.
         11    1    1    2    0    0  0.46771915461E-01  0.93318102224E+00 -0.44641860305E+01  0.45609178185E+01  0.00000000000E+00 0. -1.
        -15    1    1    2    0    0  0.82455347204E+01 -0.73985731384E+01 -0.31203373732E+02  0.33159251931E+02  0.17770000000E+01 0.  1.
         15    1    1    2    0    0  0.38172899212E+00  0.88925352936E+01 -0.46322102674E+03  0.46330993972E+03  0.17770000000E+01 0. -1.
</event>
<event>
 6    1  0.3365733E-003  0.5029764E+03  0.7546771E-02  0.9393174E-01
        -11   -1    0    0    0    0  0.00000000000E+00  0.00000000000E+00  0.50000000000E+03  0.50000000000E+03  0.00000000000E+00 0. -1.
         11   -1    0    0    0    0 -0.00000000000E+00 -0.00000000000E+00 -0.50000000000E+03  0.50000000000E+03  0.00000000000E+00 0. -1.
        -11    1    1    2    0    0 -0.31350069535E+01 -0.59194942900E+01  0.49697845048E+03  0.49702358991E+03  0.00000000000E+00 0. -1.
         11    1    1    2    0    0  0.51647719201E+01  0.40182223705E+01 -0.27583653946E+03  0.27591414875E+03  0.00000000000E+00 0. -1.
        -15    1    1    2    0    0  0.11376241011E+02  0.89408633388E+01 -0.17180616050E+02  0.22531959383E+02  0.17770000000E+01 0.  1.
         15    1    1    2    0    0 -0.13406005978E+02 -0.70395914192E+01 -0.20396129497E+03  0.20453030196E+03  0.17770000000E+01 0. -1.
</event>
<event>
 6    1  0.3365733E-003  0.5003765E+03  0.7546771E-02  0.9398968E-01
        -11   -1    0    0    0    0  0.00000000000E+00  0.00000000000E+00  0.50000000000E+03  0.50000000000E+03  0.00000000000E+00 0. -1.
         11   -1    0    0    0    0 -0.00000000000E+00 -0.00000000000E+00 -0.50000000000E+03  0.50000000000E+03  0.00000000000E+00 0. -1.
        -11    1    1    2    0    0 -0.28309542262E+01 -0.63938180382E+01  0.33406071455E+03  0.33413388966E+03  0.00000000000E+00 0. -1.
         11    1    1    2    0    0  0.77804187092E+01 -0.43184209477E+01 -0.49954420064E+03  0.49962345028E+03  0.00000000000E+00 0. -1.
        -15    1    1    2    0    0 -0.78200255095E+00  0.38935006948E+01  0.17493176125E+02  0.18026087085E+02  0.17770000000E+01 0.  1.
         15    1    1    2    0    0 -0.41674619321E+01  0.68187382911E+01  0.14799030997E+03  0.14821657298E+03  0.17770000000E+01 0. -1.
</event>
<event>
 6    1  0.3365733E-003  0.5017964E+03  0.7546771E-02  0.9395799E-01
        -11   -1    0    0    0    0  0.00000000000E+00  0.00000000000E+00  0.50000000000E+03  0.50000000000E+03  0.00000000000E+00 0. -1.
         11   -1    0    0    0    0 -0.00000000000E+00 -0.00000000000E+00 -0.50000000000E+03  0.50000000000E+03  0.00000000000E+00 0. -1.
        -11    1    1    2    0    0  0.67940956167E+01 -0.63041147579E+01  0.44529944812E+03  0.44539589142E+03  0.00000000000E+00 0. -1.
         11    1    1    2    0    0 -0.88022788026E+01 -0.48387572063E+01 -0.49810237793E+03  0.49820364569E+03  0.00000000000E+00 0. -1.
        -15    1    1    2    0    0  0.58833362144E+01  0.64495570108E+01  0.11170799527E+02  0.14288279173E+02  0.17770000000E+01 0. -1.
         15    1    1    2    0    0 -0.38751530286E+01  0.46933149533E+01  0.41632130281E+02  0.42112183712E+02  0.17770000000E+01 0.  1.
</event>
<event>
 6    1  0.3365733E-003  0.5651704E+03  0.7546771E-02  0.9264742E-01
        -11   -1    0    0    0    0  0.00000000000E+00  0.00000000000E+00  0.50000000000E+03  0.50000000000E+03  0.00000000000E+00 0.  1.
         11   -1    0    0    0    0 -0.00000000000E+00 -0.00000000000E+00 -0.50000000000E+03  0.50000000000E+03  0.00000000000E+00 0. -1.
        -11    1    1    2    0    0 -0.87412330823E+00  0.80134004322E+01  0.13186512900E+03  0.13211128235E+03  0.00000000000E+00 0.  1.
         11    1    1    2    0    0  0.10086179245E+02 -0.84855383355E+01 -0.43462982346E+03  0.43482964344E+03  0.00000000000E+00 0. -1.
        -15    1    1    2    0    0 -0.41987158013E-01 -0.11111716502E+02  0.36697476883E+03  0.36714726023E+03  0.17770000000E+01 0.  1.
         15    1    1    2    0    0 -0.91700687786E+01  0.11583854405E+02 -0.64210074361E+02  0.65911813984E+02  0.17770000000E+01 0. -1.
</event>
<event>
 6    1  0.3365733E-003  0.5015472E+03  0.7546771E-02  0.9396354E-01
        -11   -1    0    0    0    0  0.00000000000E+00  0.00000000000E+00  0.50000000000E+03  0.50000000000E+03  0.00000000000E+00 0. -1.
         11   -1    0    0    0    0 -0.00000000000E+00 -0.00000000000E+00 -0.50000000000E+03  0.50000000000E+03  0.00000000000E+00 0.  1.
        -11    1    1    2    0    0 -0.40630243442E+01 -0.44325056159E+01  0.36782905710E+03  0.36787820066E+03  0.00000000000E+00 0. -1.
         11    1    1    2    0    0 -0.96116689641E+01 -0.14971968920E+02 -0.49813515324E+03  0.49845278104E+03  0.00000000000E+00 0.  1.
        -15    1    1    2    0    0  0.23100867589E+01  0.68907679947E+00  0.58527672747E+02  0.58604245016E+02  0.17770000000E+01 0. -1.
         15    1    1    2    0    0  0.11364606549E+02  0.18715397736E+02  0.71778423397E+02  0.75064773288E+02  0.17770000000E+01 0.  1.
</event>
<event>
 6    1  0.3365733E-003  0.5142894E+03  0.7546771E-02  0.9368392E-01
        -11   -1    0    0    0    0  0.00000000000E+00  0.00000000000E+00  0.50000000000E+03  0.50000000000E+03  0.00000000000E+00 0.  1.
         11   -1    0    0    0    0 -0.00000000000E+00 -0.00000000000E+00 -0.50000000000E+03  0.50000000000E+03  0.00000000000E+00 0. -1.
        -11    1    1    2    0    0 -0.12121143634E+01 -0.18082313866E+02  0.45968928731E+03  0.46004638914E+03  0.00000000000E+00 0.  1.
         11    1    1    2    0    0 -0.44576513277E+01 -0.84078812185E+01 -0.48561735288E+03  0.48571058928E+03  0.00000000000E+00 0. -1.
        -15    1    1    2    0    0  0.13776504357E+02  0.25477250585E+02  0.32528658760E+02  0.43590752911E+02  0.17770000000E+01 0.  1.
         15    1    1    2    0    0 -0.81067386657E+01  0.10129445001E+01 -0.66005931875E+01  0.10652268668E+02  0.17770000000E+01 0. -1.
</event>
<event>
 6    1  0.3365733E-003  0.5072815E+03  0.7546771E-02  0.9383663E-01
        -11   -1    0    0    0    0  0.00000000000E+00  0.00000000000E+00  0.50000000000E+03  0.50000000000E+03  0.00000000000E+00 0. -1.
         11   -1    0    0    0    0 -0.00000000000E+00 -0.00000000000E+00 -0.50000000000E+03  0.50000000000E+03  0.00000000000E+00 0.  1.
        -11    1    1    2    0    0 -0.17769352127E+02  0.27546725808E+01  0.49239027625E+03  0.49271850203E+03  0.00000000000E+00 0. -1.
         11    1    1    2    0    0  0.63333331313E+01  0.15633847532E+02 -0.45652142514E+03  0.45683294530E+03  0.00000000000E+00 0.  1.
        -15    1    1    2    0    0  0.87826382943E+01  0.59295493954E+01 -0.85216486431E+01  0.13713880415E+02  0.17770000000E+01 0. -1.
         15    1    1    2    0    0  0.26533807017E+01 -0.24318069509E+02 -0.27347202469E+02  0.36734672254E+02  0.17770000000E+01 0.  1.
</event>
<event>
 6    1  0.3365733E-003  0.5029007E+03  0.7546771E-02  0.9393342E-01
        -11   -1    0    0    0    0  0.00000000000E+00  0.00000000000E+00  0.50000000000E+03  0.50000000000E+03  0.00000000000E+00 0.  1.
         11   -1    0    0    0    0 -0.00000000000E+00 -0.00000000000E+00 -0.50000000000E+03  0.50000000000E+03  0.00000000000E+00 0. -1.
        -11    1    1    2    0    0 -0.53160733092E+01 -0.23812804168E+01  0.38201545045E+03  0.38205985855E+03  0.00000000000E+00 0.  1.
         11    1    1    2    0    0 -0.50079412849E+01 -0.50924345893E+01 -0.49704799441E+03  0.49709930710E+03  0.00000000000E+00 0. -1.
        -15    1    1    2    0    0  0.17287564017E+01  0.10042355285E+01  0.10762663542E+03  0.10765986935E+03  0.17770000000E+01 0. -1.
         15    1    1    2    0    0  0.85952581923E+01  0.64694794776E+01  0.74059085462E+01  0.13180965006E+02  0.17770000000E+01 0.  1.
</event>
<event>
 6    1  0.3365733E-003  0.5122065E+03  0.7546771E-02  0.9372904E-01
        -11   -1    0    0    0    0  0.00000000000E+00  0.00000000000E+00  0.50000000000E+03  0.50000000000E+03  0.00000000000E+00 0. -1.
         11   -1    0    0    0    0 -0.00000000000E+00 -0.00000000000E+00 -0.50000000000E+03  0.50000000000E+03  0.00000000000E+00 0. -1.
        -11    1    1    2    0    0 -0.34326449405E+01 -0.82458180843E+01  0.48771174782E+03  0.48779352756E+03  0.00000000000E+00 0. -1.
         11    1    1    2    0    0 -0.26921247168E+01  0.72899195395E+01 -0.44451474669E+03  0.44458267003E+03  0.00000000000E+00 0. -1.
        -15    1    1    2    0    0 -0.49259502327E+01  0.67759107042E+01  0.98761728148E+01  0.13071896191E+02  0.17770000000E+01 0. -1.
         15    1    1    2    0    0  0.11050719890E+02 -0.58200121594E+01 -0.53073173939E+02  0.54551906223E+02  0.17770000000E+01 0.  1.
</event>
<event>
 6    1  0.3365733E-003  0.5001444E+03  0.7546771E-02  0.9399487E-01
        -11   -1    0    0    0    0  0.00000000000E+00  0.00000000000E+00  0.50000000000E+03  0.50000000000E+03  0.00000000000E+00 0.  1.
         11   -1    0    0    0    0 -0.00000000000E+00 -0.00000000000E+00 -0.50000000000E+03  0.50000000000E+03  0.00000000000E+00 0.  1.
        -11    1    1    2    0    0 -0.97054404575E+01  0.43979347955E+00  0.49976117842E+03  0.49985560360E+03  0.00000000000E+00 0.  1.
         11    1    1    2    0    0  0.13288670021E+01  0.94618694717E+00 -0.78650132524E+02  0.78667048396E+02  0.00000000000E+00 0.  1.
        -15    1    1    2    0    0  0.93399768659E+01  0.21290950945E+01 -0.14067571289E+03  0.14101270205E+03  0.17770000000E+01 0. -1.
         15    1    1    2    0    0 -0.96340341049E+00 -0.35150755212E+01 -0.28043533301E+03  0.28046464595E+03  0.17770000000E+01 0.  1.
</event>
<event>
 6    1  0.3365733E-003  0.5038639E+03  0.7546771E-02  0.9391205E-01
        -11   -1    0    0    0    0  0.00000000000E+00  0.00000000000E+00  0.50000000000E+03  0.50000000000E+03  0.00000000000E+00 0. -1.
         11   -1    0    0    0    0 -0.00000000000E+00 -0.00000000000E+00 -0.50000000000E+03  0.50000000000E+03  0.00000000000E+00 0.  1.
        -11    1    1    2    0    0 -0.82445900828E+01 -0.92914760948E+01  0.49598059462E+03  0.49613612550E+03  0.00000000000E+00 0. -1.
         11    1    1    2    0    0  0.22062980037E+01  0.51662650457E+01 -0.29279516204E+03  0.29284904808E+03  0.00000000000E+00 0.  1.
        -15    1    1    2    0    0  0.46950929900E+01 -0.44065859776E+01  0.89897557601E+00  0.67400136683E+01  0.17770000000E+01 0. -1.
         15    1    1    2    0    0  0.13431990891E+01  0.85317970267E+01 -0.20408440815E+03  0.20427481275E+03  0.17770000000E+01 0.  1.
</event>
<event>
 6    1  0.3365733E-003  0.5008553E+03  0.7546771E-02  0.9397898E-01
        -11   -1    0    0    0    0  0.00000000000E+00  0.00000000000E+00  0.50000000000E+03  0.50000000000E+03  0.00000000000E+00 0. -1.
         11   -1    0    0    0    0 -0.00000000000E+00 -0.00000000000E+00 -0.50000000000E+03  0.50000000000E+03  0.00000000000E+00 0. -1.
        -11    1    1    2    0    0 -0.12683775823E+02  0.91423434761E+01  0.49889980977E+03  0.49914474935E+03  0.00000000000E+00 0. -1.
         11    1    1    2    0    0  0.33461304759E+01  0.17226336954E+01 -0.14317933236E+03  0.14322878646E+03  0.00000000000E+00 0. -1.
        -15    1    1    2    0    0  0.10722061399E+01  0.33128389614E+01 -0.28415561922E+03  0.28418250860E+03  0.17770000000E+01 0. -1.
         15    1    1    2    0    0  0.82654392068E+01 -0.14177816133E+02 -0.71564858196E+02  0.73443955593E+02  0.17770000000E+01 0.  1.
</event>
<event>
 6    1  0.3365733E-003  0.5012883E+03  0.7546771E-02  0.9396932E-01
        -11   -1    0    0    0    0  0.00000000000E+00  0.00000000000E+00  0.50000000000E+03  0.50000000000E+03  0.00000000000E+00 0. -1.
         11   -1    0    0    0    0 -0.00000000000E+00 -0.00000000000E+00 -0.50000000000E+03  0.50000000000E+03  0.00000000000E+00 0.  1.
        -11    1    1    2    0    0  0.10498440680E+02  0.58119298674E+00  0.49860086992E+03  0.49871172287E+03  0.00000000000E+00 0. -1.
         11    1    1    2    0    0  0.29246396151E+01 -0.47349567548E+01 -0.37473545599E+03  0.37477678064E+03  0.00000000000E+00 0.  1.
        -15    1    1    2    0    0 -0.17034399411E+02 -0.25470506357E+01 -0.71549755922E+02  0.73615103965E+02  0.17770000000E+01 0.  1.
         15    1    1    2    0    0  0.36113191162E+01  0.67008144037E+01 -0.52315658013E+02  0.52896392521E+02  0.17770000000E+01 0. -1.
</event>
<event>
 6    1  0.3365733E-003  0.5062516E+03  0.7546771E-02  0.9385929E-01
        -11   -1    0    0    0    0  0.00000000000E+00  0.00000000000E+00  0.50000000000E+03  0.50000000000E+03  0.00000000000E+00 0. -1.
         11   -1    0    0    0    0 -0.00000000000E+00 -0.00000000000E+00 -0.50000000000E+03  0.50000000000E+03  0.00000000000E+00 0. -1.
        -11    1    1    2    0    0  0.11528237446E+02 -0.10025480506E+02  0.41935950955E+03  0.41963771133E+03  0.00000000000E+00 0. -1.
         11    1    1    2    0    0  0.61317856602E+01 -0.13451506307E+02 -0.49352702522E+03  0.49374838373E+03  0.00000000000E+00 0. -1.
        -15    1    1    2    0    0 -0.98586414251E+01  0.12386649756E+02  0.70745480565E+02  0.72516912870E+02  0.17770000000E+01 0. -1.
         15    1    1    2    0    0 -0.78013816812E+01  0.11090337057E+02  0.34220350979E+01  0.14096992069E+02  0.17770000000E+01 0.  1.
</event>
<event>
 6    1  0.3365733E-003  0.5178484E+03  0.7546771E-02  0.9360735E-01
        -11   -1    0    0    0    0  0.00000000000E+00  0.00000000000E+00  0.50000000000E+03  0.50000000000E+03  0.00000000000E+00 0. -1.
         11   -1    0    0    0    0 -0.00000000000E+00 -0.00000000000E+00 -0.50000000000E+03  0.50000000000E+03  0.00000000000E+00 0.  1.
        -11    1    1    2    0    0  0.11015282792E+01  0.13485164754E+02  0.48196176573E+03  0.48215164280E+03  0.00000000000E+00 0. -1.
         11    1    1    2    0    0 -0.16378492747E+02  0.55023309065E+01 -0.45582934205E+03  0.45615668333E+03  0.00000000000E+00 0.  1.
        -15    1    1    2    0    0 -0.93311874206E+01 -0.35318077011E+01  0.10703344875E+02  0.14739879403E+02  0.17770000000E+01 0. -1.
         15    1    1    2    0    0  0.24608151889E+02 -0.15455687959E+02 -0.36835768554E+02  0.46951794467E+02  0.17770000000E+01 0.  1.
</event>
<event>
 6    1  0.3365733E-003  0.5049871E+03  0.7546771E-02  0.9388719E-01
        -11   -1    0    0    0    0  0.00000000000E+00  0.00000000000E+00  0.50000000000E+03  0.50000000000E+03  0.00000000000E+00 0. -1.
         11   -1    0    0    0    0 -0.00000000000E+00 -0.00000000000E+00 -0.50000000000E+03  0.50000000000E+03  0.00000000000E+00 0.  1.
        -11    1    1    2    0    0  0.34456628740E+01 -0.14088398088E+02  0.43746628177E+03  0.43770664061E+03  0.00000000000E+00 0. -1.
         11    1    1    2    0    0 -0.12523479056E+02 -0.10869417469E+02 -0.49473511131E+03  0.49501294137E+03  0.00000000000E+00 0.  1.
        -15    1    1    2    0    0  0.13632335946E+02  0.21315936787E+02  0.55356942820E+02  0.60891367137E+02  0.17770000000E+01 0. -1.
         15    1    1    2    0    0 -0.45545197647E+01  0.36418787703E+01  0.19118867246E+01  0.63890508773E+01  0.17770000000E+01 0.  1.
</event>
<event>
 6    1  0.3365733E-003  0.5176589E+03  0.7546771E-02  0.9361141E-01
        -11   -1    0    0    0    0  0.00000000000E+00  0.00000000000E+00  0.50000000000E+03  0.50000000000E+03  0.00000000000E+00 0. -1.
         11   -1    0    0    0    0 -0.00000000000E+00 -0.00000000000E+00 -0.50000000000E+03  0.50000000000E+03  0.00000000000E+00 0. -1.
        -11    1    1    2    0    0 -0.16684481043E+02 -0.59093750643E+01  0.48201623968E+03  0.48234111160E+03  0.00000000000E+00 0. -1.
         11    1    1    2    0    0 -0.16079353379E+02 -0.16103008522E+02 -0.42403262210E+03  0.42464281119E+03  0.00000000000E+00 0. -1.
        -15    1    1    2    0    0  0.85942785869E+01  0.32853324530E+02 -0.58405073745E+01  0.34503214524E+02  0.17770000000E+01 0.  1.
         15    1    1    2    0    0  0.24169555835E+02 -0.10840940943E+02 -0.52143110200E+02  0.58512862689E+02  0.17770000000E+01 0. -1.
</event>
<event>
 6    1  0.3365733E-003  0.5261942E+03  0.7546771E-02  0.9343033E-01
        -11   -1    0    0    0    0  0.00000000000E+00  0.00000000000E+00  0.50000000000E+03  0.50000000000E+03  0.00000000000E+00 0. -1.
         11   -1    0    0    0    0 -0.00000000000E+00 -0.00000000000E+00 -0.50000000000E+03  0.50000000000E+03  0.00000000000E+00 0.  1.
        -11    1    1    2    0    0  0.39739401874E+01 -0.54849440904E+01  0.47375734840E+03  0.47380576397E+03  0.00000000000E+00 0. -1.
         11    1    1    2    0    0  0.10515990545E+02  0.26231994934E+01 -0.43227585136E+03  0.43241170070E+03  0.00000000000E+00 0.  1.
        -15    1    1    2    0    0 -0.11135462508E+02  0.89651716472E+01 -0.66350134648E+02  0.67896030257E+02  0.17770000000E+01 0. -1.
         15    1    1    2    0    0 -0.33544682246E+01 -0.61034270502E+01  0.24868637611E+02  0.25886505065E+02  0.17770000000E+01 0.  1.
</event>
<event>
 6    1  0.3365733E-003  0.5002602E+03  0.7546771E-02  0.9399228E-01
        -11   -1    0    0    0    0  0.00000000000E+00  0.00000000000E+00  0.50000000000E+03  0.50000000000E+03  0.00000000000E+00 0. -1.
         11   -1    0    0    0    0 -0.00000000000E+00 -0.00000000000E+00 -0.50000000000E+03  0.50000000000E+03  0.00000000000E+00 0.  1.
        -11    1    1    2    0    0 -0.16499597841E+01 -0.92206425768E+00  0.12883933872E+03  0.12885320241E+03  0.00000000000E+00 0. -1.
         11    1    1    2    0    0  0.68791907294E+01  0.71844097961E+01 -0.49964077914E+03  0.49973977947E+03  0.00000000000E+00 0.  1.
        -15    1    1    2    0    0 -0.90010536250E+01 -0.43551722377E+01  0.34805241590E+03  0.34820055777E+03  0.17770000000E+01 0. -1.
         15    1    1    2    0    0  0.37718226797E+01 -0.19071733008E+01  0.22749024516E+02  0.23206460345E+02  0.17770000000E+01 0.  1.
</event>
<event>
 6    1  0.3365733E-003  0.5103860E+03  0.7546771E-02  0.9376866E-01
        -11   -1    0    0    0    0  0.00000000000E+00  0.00000000000E+00  0.50000000000E+03  0.50000000000E+03  0.00000000000E+00 0. -1.
         11   -1    0    0    0    0 -0.00000000000E+00 -0.00000000000E+00 -0.50000000000E+03  0.50000000000E+03  0.00000000000E+00 0.  1.
        -11    1    1    2    0    0 -0.75171480965E+01  0.10437726778E+02  0.48944503317E+03  0.48961402569E+03  0.00000000000E+00 0. -1.
         11    1    1    2    0    0 -0.60126599305E+00 -0.17019537200E+02 -0.43032121884E+03  0.43065807499E+03  0.00000000000E+00 0.  1.
        -15    1    1    2    0    0 -0.57910148531E+01  0.97337643272E+01 -0.63638635610E+02  0.64663093743E+02  0.17770000000E+01 0.  1.
         15    1    1    2    0    0  0.13909428943E+02 -0.31519539052E+01  0.45148212819E+01  0.15064805579E+02  0.17770000000E+01 0. -1.
</event>
<event>
 6    1  0.3365733E-003  0.5020957E+03  0.7546771E-02  0.9395133E-01
        -11   -1    0    0    0    0  0.00000000000E+00  0.00000000000E+00  0.50000000000E+03  0.50000000000E+03  0.00000000000E+00 0. -1.
         11   -1    0    0    0    0 -0.00000000000E+00 -0.00000000000E+00 -0.50000000000E+03  0.50000000000E+03  0.00000000000E+00 0. -1.
        -11    1    1    2    0    0 -0.22068574768E+01 -0.62812250627E+01  0.46498006674E+03  0.46502772656E+03  0.00000000000E+00 0. -1.
         11    1    1    2    0    0 -0.67576065428E+01 -0.50614740141E-02 -0.49785842199E+03  0.49790428158E+03  0.00000000000E+00 0. -1.
        -15    1    1    2    0    0  0.10348339502E+01  0.83850941696E+01  0.14748434069E+02  0.17089608598E+02  0.17770000000E+01 0. -1.
         15    1    1    2    0    0  0.79296300694E+01 -0.20988076329E+01  0.18129921184E+02  0.19978383259E+02  0.17770000000E+01 0.  1.
</event>
<event>
 6    1  0.3365733E-003  0.5260947E+03  0.7546771E-02  0.9343242E-01
        -11   -1    0    0    0    0  0.00000000000E+00  0.00000000000E+00  0.50000000000E+03  0.50000000000E+03  0.00000000000E+00 0.  1.
         11   -1    0    0    0    0 -0.00000000000E+00 -0.00000000000E+00 -0.50000000000E+03  0.50000000000E+03  0.00000000000E+00 0.  1.
        -11    1    1    2    0    0  0.79751037649E+01  0.22041377096E+01  0.47383306042E+03  0.47390529608E+03  0.00000000000E+00 0.  1.
         11    1    1    2    0    0 -0.22198136140E+01 -0.95921764681E+01 -0.44522478924E+03  0.44533363940E+03  0.00000000000E+00 0.  1.
        -15    1    1    2    0    0  0.28199797836E+01 -0.78310184269E+01 -0.51338211716E+02  0.52038897440E+02  0.17770000000E+01 0. -1.
         15    1    1    2    0    0 -0.85752699344E+01  0.15219057185E+02  0.22729940541E+02  0.28722167085E+02  0.17770000000E+01 0.  1.
</event>
<event>
 6    1  0.3365733E-003  0.5008436E+03  0.7546771E-02  0.9397924E-01
        -11   -1    0    0    0    0  0.00000000000E+00  0.00000000000E+00  0.50000000000E+03  0.50000000000E+03  0.00000000000E+00 0. -1.
         11   -1    0    0    0    0 -0.00000000000E+00 -0.00000000000E+00 -0.50000000000E+03  0.50000000000E+03  0.00000000000E+00 0. -1.
        -11    1    1    2    0    0 -0.64100267272E+00  0.14700430829E+02  0.49893947557E+03  0.49915640218E+03  0.00000000000E+00 0. -1.
         11    1    1    2    0    0 -0.98245512204E+01  0.71308552296E+01 -0.26662839360E+03  0.26690461063E+03  0.00000000000E+00 0. -1.
        -15    1    1    2    0    0  0.25986221261E+01 -0.17081258695E+01 -0.10995553047E+02  0.11564188114E+02  0.17770000000E+01 0.  1.
         15    1    1    2    0    0  0.78669317670E+01 -0.20123160189E+02 -0.22131552893E+03  0.22237479908E+03  0.17770000000E+01 0. -1.
</event>
<event>
 6    1  0.3365733E-003  0.4859849E+03  0.7546771E-02  0.9431727E-01
        -11   -1    0    0    0    0  0.00000000000E+00  0.00000000000E+00  0.50000000000E+03  0.50000000000E+03  0.00000000000E+00 0. -1.
         11   -1    0    0    0    0 -0.00000000000E+00 -0.00000000000E+00 -0.50000000000E+03  0.50000000000E+03  0.00000000000E+00 0.  1.
        -11    1    1    2    0    0  0.62824498323E+01 -0.40602843431E+01  0.48967923190E+03  0.48973636300E+03  0.00000000000E+00 0. -1.
         11    1    1    2    0    0  0.91272056982E-01  0.86872664938E+00 -0.46433333696E+02  0.46441549228E+02  0.00000000000E+00 0.  1.
        -15    1    1    2    0    0  0.39998304170E+02 -0.40044253121E+02 -0.32247674951E+03  0.32741077906E+03  0.17770000000E+01 0.  1.
         15    1    1    2    0    0 -0.46372026059E+02  0.43235810815E+02 -0.12076914870E+03  0.13641130871E+03  0.17770000000E+01 0. -1.
</event>
<event>
 6    1  0.3365733E-003  0.5028380E+03  0.7546771E-02  0.9393482E-01
        -11   -1    0    0    0    0  0.00000000000E+00  0.00000000000E+00  0.50000000000E+03  0.50000000000E+03  0.00000000000E+00 0.  1.
         11   -1    0    0    0    0 -0.00000000000E+00 -0.00000000000E+00 -0.50000000000E+03  0.50000000000E+03  0.00000000000E+00 0.  1.
        -11    1    1    2    0    0 -0.89200867096E+00 -0.72627621412E+01  0.40668390153E+03  0.40674972545E+03  0.00000000000E+00 0.  1.
         11    1    1    2    0    0  0.82495449012E+01 -0.13170912548E+02 -0.49691907330E+03  0.49716203931E+03  0.00000000000E+00 0.  1.
        -15    1    1    2    0    0  0.26862257957E+01 -0.59828437995E+00  0.45469087382E+02  0.45586943192E+02  0.17770000000E+01 0. -1.
         15    1    1    2    0    0 -0.10043762026E+02  0.21031959069E+02  0.44766084387E+02  0.50501292045E+02  0.17770000000E+01 0.  1.
</event>
<event>
 6    1  0.3365733E-003  0.5013684E+03  0.7546771E-02  0.9396753E-01
        -11   -1    0    0    0    0  0.00000000000E+00  0.00000000000E+00  0.50000000000E+03  0.50000000000E+03  0.00000000000E+00 0. -1.
         11   -1    0    0    0    0 -0.00000000000E+00 -0.00000000000E+00 -0.50000000000E+03  0.50000000000E+03  0.00000000000E+00 0. -1.
        -11    1    1    2    0    0 -0.81577994180E+01 -0.31172270824E+01  0.31815285310E+03  0.31827268927E+03  0.00000000000E+00 0. -1.
         11    1    1    2    0    0 -0.35692260303E+01 -0.78072519887E+01 -0.49855766777E+03  0.49863156804E+03  0.00000000000E+00 0. -1.
        -15    1    1    2    0    0 -0.97785461082E+00  0.45757167767E+01  0.14235146505E+03  0.14243942823E+03  0.17770000000E+01 0.  1.
         15    1    1    2    0    0  0.12704880059E+02  0.63487622945E+01  0.38053349616E+02  0.40656314466E+02  0.17770000000E+01 0. -1.
</event>
<event>
 6    1  0.3365733E-003  0.5015571E+03  0.7546771E-02  0.9396332E-01
        -11   -1    0    0    0    0  0.00000000000E+00  0.00000000000E+00  0.50000000000E+03  0.50000000000E+03  0.00000000000E+00 0. -1.
         11   -1    0    0    0    0 -0.00000000000E+00 -0.00000000000E+00 -0.50000000000E+03  0.50000000000E+03  0.00000000000E+00 0.  1.
        -11    1    1    2    0    0  0.57184329640E+01 -0.25673100971E+01  0.40545439007E+03  0.40550284091E+03  0.00000000000E+00 0. -1.
         11    1    1    2    0    0  0.69939564916E+01  0.41882896147E+01 -0.49837619238E+03  0.49844286165E+03  0.00000000000E+00 0.  1.
        -15    1    1    2    0    0  0.11047999349E+01 -0.15803428847E+01  0.62933628707E+02  0.62988232376E+02  0.17770000000E+01 0.  1.
         15    1    1    2    0    0 -0.13817189390E+02 -0.40636632915E-01  0.29988173603E+02  0.33066065067E+02  0.17770000000E+01 0. -1.
</event>
<event>
 6    1  0.3365733E-003  0.5122916E+03  0.7546771E-02  0.9372719E-01
        -11   -1    0    0    0    0  0.00000000000E+00  0.00000000000E+00  0.50000000000E+03  0.50000000000E+03  0.00000000000E+00 0. -1.
         11   -1    0    0    0    0 -0.00000000000E+00 -0.00000000000E+00 -0.50000000000E+03  0.50000000000E+03  0.00000000000E+00 0.  1.
        -11    1    1    2    0    0  0.28766508224E+02  0.19611714136E+02  0.48646412176E+03  0.48770838940E+03  0.00000000000E+00 0. -1.
         11    1    1    2    0    0 -0.10379159358E+02  0.27988741980E+01 -0.11938164299E+03  0.11986466255E+03  0.00000000000E+00 0.  1.
        -15    1    1    2    0    0  0.59045776609E+01 -0.13320633055E+02 -0.36611715481E+03  0.36641128814E+03  0.17770000000E+01 0.  1.
         15    1    1    2    0    0 -0.24291926527E+02 -0.90899552782E+01 -0.96532396204E+00  0.26015659913E+02  0.17770000000E+01 0. -1.
</event>
<event>
 6    1  0.3365733E-003  0.5152396E+03  0.7546771E-02  0.9366341E-01
        -11   -1    0    0    0    0  0.00000000000E+00  0.00000000000E+00  0.50000000000E+03  0.50000000000E+03  0.00000000000E+00 0.  1.
         11   -1    0    0    0    0 -0.00000000000E+00 -0.00000000000E+00 -0.50000000000E+03  0.50000000000E+03  0.00000000000E+00 0. -1.
        -11    1    1    2    0    0 -0.21438236809E+01  0.44688554047E+01  0.33297003987E+03  0.33300692801E+03  0.00000000000E+00 0.  1.
         11    1    1    2    0    0  0.99279628725E+01 -0.11742196311E+02 -0.48451645647E+03  0.48476039464E+03  0.00000000000E+00 0. -1.
        -15    1    1    2    0    0 -0.18564115672E+01  0.15770910351E+02 -0.10966494732E+02  0.19380134491E+02  0.17770000000E+01 0. -1.
         15    1    1    2    0    0 -0.59277276244E+01 -0.84975694445E+01  0.16251291133E+03  0.16285254287E+03  0.17770000000E+01 0.  1.
</event>
<event>
 6    1  0.3365733E-003  0.5014766E+03  0.7546771E-02  0.9396512E-01
        -11   -1    0    0    0    0  0.00000000000E+00  0.00000000000E+00  0.50000000000E+03  0.50000000000E+03  0.00000000000E+00 0.  1.
         11   -1    0    0    0    0 -0.00000000000E+00 -0.00000000000E+00 -0.50000000000E+03  0.50000000000E+03  0.00000000000E+00 0. -1.
        -11    1    1    2    0    0 -0.53663013666E+01  0.16096848401E+01  0.41262628615E+03  0.41266431915E+03  0.00000000000E+00 0.  1.
         11    1    1    2    0    0  0.78552106133E+01 -0.67774664305E+01 -0.49841545939E+03  0.49852342828E+03  0.00000000000E+00 0. -1.
        -15    1    1    2    0    0  0.29251831719E+01  0.24528999016E+01  0.80406944611E+02  0.80517127900E+02  0.17770000000E+01 0.  1.
         15    1    1    2    0    0 -0.54140924186E+01  0.27148816888E+01  0.53822286290E+01  0.82951246715E+01  0.17770000000E+01 0. -1.
</event>
<event>
 6    1  0.3365733E-003  0.4436858E+03  0.7546771E-02  0.9535460E-01
        -11   -1    0    0    0    0  0.00000000000E+00  0.00000000000E+00  0.50000000000E+03  0.50000000000E+03  0.00000000000E+00 0. -1.
         11   -1    0    0    0    0 -0.00000000000E+00 -0.00000000000E+00 -0.50000000000E+03  0.50000000000E+03  0.00000000000E+00 0.  1.
        -11    1    1    2    0    0 -0.34829075434E+01  0.25222584704E+02  0.42179034146E+03  0.42255816354E+03  0.00000000000E+00 0. -1.
         11    1    1    2    0    0 -0.65107480823E+02 -0.54832383347E+02 -0.46102446763E+03  0.46881673826E+03  0.00000000000E+00 0.  1.
        -15    1    1    2    0    0  0.50681806467E+02 -0.56964287451E+01  0.45662709333E+02  0.68478723410E+02  0.17770000000E+01 0. -1.
         15    1    1    2    0    0  0.17908581899E+02  0.35306227387E+02 -0.64285831707E+01  0.40146374787E+02  0.17770000000E+01 0.  1.
</event>
<event>
 6    1  0.3365733E-003  0.5072132E+03  0.7546771E-02  0.9383813E-01
        -11   -1    0    0    0    0  0.00000000000E+00  0.00000000000E+00  0.50000000000E+03  0.50000000000E+03  0.00000000000E+00 0. -1.
         11   -1    0    0    0    0 -0.00000000000E+00 -0.00000000000E+00 -0.50000000000E+03  0.50000000000E+03  0.00000000000E+00 0. -1.
        -11    1    1    2    0    0  0.21431550803E+02  0.23995404703E+00  0.43477960467E+03  0.43530756206E+03  0.00000000000E+00 0. -1.
         11    1    1    2    0    0 -0.59539595011E+01 -0.68266156681E+01 -0.49270352277E+03  0.49278678317E+03  0.00000000000E+00 0. -1.
        -15    1    1    2    0    0  0.69146975613E+01  0.67977057521E+01  0.85764554559E-01  0.98583431882E+01  0.17770000000E+01 0.  1.
         15    1    1    2    0    0 -0.22392288863E+02 -0.21104413108E+00  0.57838153543E+02  0.62047311581E+02  0.17770000000E+01 0. -1.
</event>
<event>
 6    1  0.3365733E-003  0.5011626E+03  0.7546771E-02  0.9397212E-01
        -11   -1    0    0    0    0  0.00000000000E+00  0.00000000000E+00  0.50000000000E+03  0.50000000000E+03  0.00000000000E+00 0. -1.
         11   -1    0    0    0    0 -0.00000000000E+00 -0.00000000000E+00 -0.50000000000E+03  0.50000000000E+03  0.00000000000E+00 0.  1.
        -11    1    1    2    0    0  0.45574030222E+00 -0.67144092093E+01  0.49879198220E+03  0.49883738081E+03  0.00000000000E+00 0. -1.
         11    1    1    2    0    0 -0.18611478773E+01 -0.86079773563E+01 -0.41129110444E+03  0.41138538348E+03  0.00000000000E+00 0.  1.
        -15    1    1    2    0    0 -0.40165012951E+01  0.34198990516E+01 -0.13403975827E+02  0.14513865411E+02  0.17770000000E+01 0.  1.
         15    1    1    2    0    0  0.54219088702E+01  0.11902487514E+02 -0.74096901929E+02  0.75263370303E+02  0.17770000000E+01 0. -1.
</event>
<event>
 6    1  0.3365733E-003  0.5003128E+03  0.7546771E-02  0.9399110E-01
        -11   -1    0    0    0    0  0.00000000000E+00  0.00000000000E+00  0.50000000000E+03  0.50000000000E+03  0.00000000000E+00 0. -1.
         11   -1    0    0    0    0 -0.00000000000E+00 -0.00000000000E+00 -0.50000000000E+03  0.50000000000E+03  0.00000000000E+00 0. -1.
        -11    1    1    2    0    0  0.60011701112E+01  0.48669896021E+01  0.79188379071E+02  0.79564445643E+02  0.00000000000E+00 0. -1.
         11    1    1    2    0    0  0.33003469364E+00  0.10074843294E+02 -0.49958556336E+03  0.49968724869E+03  0.00000000000E+00 0. -1.
        -15    1    1    2    0    0 -0.41447101745E+01 -0.45372081424E+01  0.16325938967E+03  0.16338467164E+03  0.17770000000E+01 0.  1.
         15    1    1    2    0    0 -0.21864946303E+01 -0.10404624754E+02  0.25713779461E+03  0.25736363403E+03  0.17770000000E+01 0. -1.
</event>
<event>
 6    1  0.3365733E-003  0.5154222E+03  0.7546771E-02  0.9365948E-01
        -11   -1    0    0    0    0  0.00000000000E+00  0.00000000000E+00  0.50000000000E+03  0.50000000000E+03  0.00000000000E+00 0. -1.
         11   -1    0    0    0    0 -0.00000000000E+00 -0.00000000000E+00 -0.50000000000E+03  0.50000000000E+03  0.00000000000E+00 0. -1.
        -11    1    1    2    0    0  0.16380716409E+01 -0.39533117808E+02  0.34115141679E+03  0.34343826208E+03  0.00000000000E+00 0. -1.
         11    1    1    2    0    0 -0.46188563798E+01  0.79445535190E+02 -0.47799867351E+03  0.48457781499E+03  0.00000000000E+00 0. -1.
        -15    1    1    2    0    0 -0.10466650606E+02 -0.68291718619E+02  0.11320831510E+03  0.13263706098E+03  0.17770000000E+01 0.  1.
         15    1    1    2    0    0  0.13447435344E+02  0.28379301237E+02  0.23638941620E+02  0.39346861959E+02  0.17770000000E+01 0. -1.
</event>
<event>
 6    1  0.1284577E-002  0.5001241E+03  0.7546771E-02  0.9399532E-01
        -11   -1    0    0    0    0  0.00000000000E+00  0.00000000000E+00  0.50000000000E+03  0.50000000000E+03  0.00000000000E+00 0. -1.
         11   -1    0    0    0    0 -0.00000000000E+00 -0.00000000000E+00 -0.50000000000E+03  0.50000000000E+03  0.00000000000E+00 0.  1.
        -11    1    1    2    0    0  0.14957643671E+01  0.78724515746E+01  0.49981164691E+03  0.49987587979E+03  0.00000000000E+00 0. -1.
         11    1    1    2    0    0 -0.26748230492E+00 -0.52283118872E+00 -0.81728603538E+01  0.81939334631E+01  0.00000000000E+00 0.  1.
        -15    1    1    2    0    0 -0.59340789621E+00  0.25713362461E+01 -0.27796070209E+02  0.27977547267E+02  0.17770000000E+01 0.  1.
         15    1    1    2    0    0 -0.63487416596E+00 -0.99209566320E+01 -0.46384271635E+03  0.46395263948E+03  0.17770000000E+01 0.  1.
</event>
<event>
 6    1  0.3365733E-003  0.5443225E+03  0.7546771E-02  0.9305755E-01
        -11   -1    0    0    0    0  0.00000000000E+00  0.00000000000E+00  0.50000000000E+03  0.50000000000E+03  0.00000000000E+00 0. -1.
         11   -1    0    0    0    0 -0.00000000000E+00 -0.00000000000E+00 -0.50000000000E+03  0.50000000000E+03  0.00000000000E+00 0. -1.
        -11    1    1    2    0    0  0.51944995356E+02  0.99941442838E+01  0.45259676425E+03  0.45567751368E+03  0.00000000000E+00 0. -1.
         11    1    1    2    0    0  0.32411624476E+01  0.28481389617E+01 -0.21247588432E+03  0.21251968955E+03  0.00000000000E+00 0. -1.
        -15    1    1    2    0    0 -0.31958580970E+02 -0.25180513172E+02  0.36042521063E+02  0.54384098731E+02  0.17770000000E+01 0.  1.
         15    1    1    2    0    0 -0.23227576834E+02  0.12338229927E+02 -0.27616340100E+03  0.27741869804E+03  0.17770000000E+01 0. -1.
</event>
<event>
 6    1  0.3365733E-003  0.4885406E+03  0.7546771E-02  0.9425822E-01
        -11   -1    0    0    0    0  0.00000000000E+00  0.00000000000E+00  0.50000000000E+03  0.50000000000E+03  0.00000000000E+00 0. -1.
         11   -1    0    0    0    0 -0.00000000000E+00 -0.00000000000E+00 -0.50000000000E+03  0.50000000000E+03  0.00000000000E+00 0.  1.
        -11    1    1    2    0    0 -0.52646880939E+00 -0.11063654388E+02  0.48755582870E+03  0.48768162537E+03  0.00000000000E+00 0. -1.
         11    1    1    2    0    0  0.11000254066E+02  0.11979217639E+02 -0.48918721943E+03  0.48945749856E+03  0.00000000000E+00 0.  1.
        -15    1    1    2    0    0 -0.71912367024E+01 -0.50422263892E+01 -0.78199718807E+01  0.11893175416E+02  0.17770000000E+01 0. -1.
         15    1    1    2    0    0 -0.32825485540E+01  0.41266631378E+01  0.94513626029E+01  0.10967700658E+02  0.17770000000E+01 0.  1.
</event>
<event>
 6    1  0.3365733E-003  0.5004868E+03  0.7546771E-02  0.9398721E-01
        -11   -1    0    0    0    0  0.00000000000E+00  0.00000000000E+00  0.50000000000E+03  0.50000000000E+03  0.00000000000E+00 0. -1.
         11   -1    0    0    0    0 -0.00000000000E+00 -0.00000000000E+00 -0.50000000000E+03  0.50000000000E+03  0.00000000000E+00 0. -1.
        -11    1    1    2    0    0 -0.33731816923E+01 -0.11453234394E+02  0.49937048699E+03  0.49951320124E+03  0.00000000000E+00 0. -1.
         11    1    1    2    0    0  0.50675520384E+01  0.56210178200E+01 -0.38153881316E+03  0.38161386489E+03  0.00000000000E+00 0. -1.
        -15    1    1    2    0    0 -0.31959236802E+01 -0.35649910413E+01 -0.23655236592E+02  0.24200228026E+02  0.17770000000E+01 0.  1.
         15    1    1    2    0    0  0.15015533341E+01  0.93972076156E+01 -0.94176437237E+02  0.94672705850E+02  0.17770000000E+01 0. -1.
</event>
<event>
 6    1  0.3365733E-003  0.5014898E+03  0.7546771E-02  0.9396482E-01
        -11   -1    0    0    0    0  0.00000000000E+00  0.00000000000E+00  0.50000000000E+03  0.50000000000E+03  0.00000000000E+00 0. -1.
         11   -1    0    0    0    0 -0.00000000000E+00 -0.00000000000E+00 -0.50000000000E+03  0.50000000000E+03  0.00000000000E+00 0. -1.
        -11    1    1    2    0    0  0.10653383135E+02 -0.49983170654E+01  0.37172484288E+03  0.37191106001E+03  0.00000000000E+00 0. -1.
         11    1    1    2    0    0  0.33572839653E+01 -0.80798500346E+01 -0.49843343130E+03  0.49851022133E+03  0.00000000000E+00 0. -1.
        -15    1    1    2    0    0 -0.56198603127E+01  0.16857767238E+01  0.83212888416E+01  0.10335678501E+02  0.17770000000E+01 0. -1.
         15    1    1    2    0    0 -0.83908067874E+01  0.11392390376E+02  0.11838729957E+03  0.11924304016E+03  0.17770000000E+01 0.  1.
</event>
<event>
 6    1  0.3365733E-003  0.5018840E+03  0.7546771E-02  0.9395604E-01
        -11   -1    0    0    0    0  0.00000000000E+00  0.00000000000E+00  0.50000000000E+03  0.50000000000E+03  0.00000000000E+00 0.  1.
         11   -1    0    0    0    0 -0.00000000000E+00 -0.00000000000E+00 -0.50000000000E+03  0.50000000000E+03  0.00000000000E+00 0. -1.
        -11    1    1    2    0    0  0.72547722029E+01  0.15515279854E+02  0.49782146953E+03  0.49811602178E+03  0.00000000000E+00 0.  1.
         11    1    1    2    0    0  0.21483147216E+01  0.36184715928E+00 -0.14232605385E+03  0.14234272652E+03  0.00000000000E+00 0. -1.
        -15    1    1    2    0    0 -0.45130033110E+01 -0.46870796868E+01 -0.33834642040E+03  0.33841364311E+03  0.17770000000E+01 0. -1.
         15    1    1    2    0    0 -0.48900836135E+01 -0.11190047327E+02 -0.17148995276E+02  0.21127608594E+02  0.17770000000E+01 0.  1.
</event>
<event>
 6    1  0.3365733E-003  0.5017155E+03  0.7546771E-02  0.9395979E-01
        -11   -1    0    0    0    0  0.00000000000E+00  0.00000000000E+00  0.50000000000E+03  0.50000000000E+03  0.00000000000E+00 0.  1.
         11   -1    0    0    0    0 -0.00000000000E+00 -0.00000000000E+00 -0.50000000000E+03  0.50000000000E+03  0.00000000000E+00 0. -1.
        -11    1    1    2    0    0 -0.17644922660E+01 -0.68859303894E+01  0.44594046037E+03  0.44599711173E+03  0.00000000000E+00 0.  1.
         11    1    1    2    0    0  0.81961113645E+01  0.46288521905E+01 -0.49819557667E+03  0.49828449216E+03  0.00000000000E+00 0. -1.
        -15    1    1    2    0    0 -0.84047476405E+01 -0.58240739922E+01  0.22633858390E+02  0.24899977819E+02  0.17770000000E+01 0. -1.
         15    1    1    2    0    0  0.19731285420E+01  0.80811521911E+01  0.29621257908E+02  0.30818418292E+02  0.17770000000E+01 0.  1.
</event>
<event>
 6    1  0.3365733E-003  0.5153309E+03  0.7546771E-02  0.9366144E-01
        -11   -1    0    0    0    0  0.00000000000E+00  0.00000000000E+00  0.50000000000E+03  0.50000000000E+03  0.00000000000E+00 0.  1.
         11   -1    0    0    0    0 -0.00000000000E+00 -0.00000000000E+00 -0.50000000000E+03  0.50000000000E+03  0.00000000000E+00 0. -1.
        -11    1    1    2    0    0 -0.10075207465E+02 -0.19667286063E+01  0.48456033996E+03  0.48466906327E+03  0.00000000000E+00 0.  1.
         11    1    1    2    0    0 -0.67226306999E+01 -0.21301751656E+01 -0.39034359946E+03  0.39040729636E+03  0.00000000000E+00 0. -1.
        -15    1    1    2    0    0  0.96592865567E+01 -0.54642231690E+01 -0.10685941258E+03  0.10744883125E+03  0.17770000000E+01 0.  1.
         15    1    1    2    0    0  0.71385516077E+01  0.95611269409E+01  0.12642672081E+02  0.17474809120E+02  0.17770000000E+01 0. -1.
</event>
<event>
 6    1  0.3365733E-003  0.5124064E+03  0.7546771E-02  0.9372469E-01
        -11   -1    0    0    0    0  0.00000000000E+00  0.00000000000E+00  0.50000000000E+03  0.50000000000E+03  0.00000000000E+00 0. -1.
         11   -1    0    0    0    0 -0.00000000000E+00 -0.00000000000E+00 -0.50000000000E+03  0.50000000000E+03  0.00000000000E+00 0. -1.
        -11    1    1    2    0    0  0.14620835361E+02 -0.73392108133E+02  0.48181666743E+03  0.48759355141E+03  0.00000000000E+00 0. -1.
         11    1    1    2    0    0  0.60041960826E+01 -0.36095101066E+01 -0.29230416960E+03  0.29238810937E+03  0.00000000000E+00 0. -1.
        -15    1    1    2    0    0 -0.34562748829E+01  0.79153951132E+01 -0.12060555847E+03  0.12092748976E+03  0.17770000000E+01 0.  1.
         15    1    1    2    0    0 -0.17168756561E+02  0.69086223126E+02 -0.68906939357E+02  0.99090849468E+02  0.17770000000E+01 0. -1.
</event>
<event>
 6    1  0.3365733E-003  0.5008599E+03  0.7546771E-02  0.9397888E-01
        -11   -1    0    0    0    0  0.00000000000E+00  0.00000000000E+00  0.50000000000E+03  0.50000000000E+03  0.00000000000E+00 0. -1.
         11   -1    0    0    0    0 -0.00000000000E+00 -0.00000000000E+00 -0.50000000000E+03  0.50000000000E+03  0.00000000000E+00 0.  1.
        -11    1    1    2    0    0 -0.13202249187E+01  0.28744774458E+01  0.97014516742E+02  0.97066070658E+02  0.00000000000E+00 0. -1.
         11    1    1    2    0    0 -0.60769793708E+01  0.31373764116E+01 -0.49909324794E+03  0.49914010353E+03  0.00000000000E+00 0.  1.
        -15    1    1    2    0    0 -0.81085521791E+00 -0.60957167574E+01  0.11796731181E+02  0.13421469537E+02  0.17770000000E+01 0.  1.
         15    1    1    2    0    0  0.82080595074E+01  0.83862899932E-01  0.39028200002E+03  0.39037235627E+03  0.17770000000E+01 0. -1.
</event>
<event>
 6    1  0.3365733E-003  0.4942670E+03  0.7546771E-02  0.9412730E-01
        -11   -1    0    0    0    0  0.00000000000E+00  0.00000000000E+00  0.50000000000E+03  0.50000000000E+03  0.00000000000E+00 0.  1.
         11   -1    0    0    0    0 -0.00000000000E+00 -0.00000000000E+00 -0.50000000000E+03  0.50000000000E+03  0.00000000000E+00 0.  1.
        -11    1    1    2    0    0 -0.44894444888E+00  0.59548635104E+00  0.32190276387E+02  0.32198913785E+02  0.00000000000E+00 0.  1.
         11    1    1    2    0    0  0.94146746711E+02 -0.14091539793E+02 -0.47937261685E+03  0.48873334979E+03  0.00000000000E+00 0.  1.
        -15    1    1    2    0    0 -0.95871921279E+02  0.35255539822E+02  0.15243327870E+03  0.18350324401E+03  0.17770000000E+01 0. -1.
         15    1    1    2    0    0  0.21741190168E+01 -0.21759486380E+02  0.29474906176E+03  0.29556449242E+03  0.17770000000E+01 0.  1.
</event>
<event>
 6    1  0.3365733E-003  0.4793334E+03  0.7546771E-02  0.9447278E-01
        -11   -1    0    0    0    0  0.00000000000E+00  0.00000000000E+00  0.50000000000E+03  0.50000000000E+03  0.00000000000E+00 0. -1.
         11   -1    0    0    0    0 -0.00000000000E+00 -0.00000000000E+00 -0.50000000000E+03  0.50000000000E+03  0.00000000000E+00 0. -1.
        -11    1    1    2    0    0 -0.13195533644E+02 -0.48924114520E+01  0.48262146619E+03  0.48282661218E+03  0.00000000000E+00 0. -1.
         11    1    1    2    0    0  0.19895562643E+02  0.21744669624E+02 -0.47512771328E+03  0.47604097302E+03  0.00000000000E+00 0. -1.
        -15    1    1    2    0    0  0.10608231837E+02  0.52772781666E+01  0.78936496500E-01  0.11981160525E+02  0.17770000000E+01 0.  1.
         15    1    1    2    0    0 -0.17308260835E+02 -0.22129536338E+02 -0.75726894090E+01  0.29151254271E+02  0.17770000000E+01 0. -1.
</event>
<event>
 6    1  0.3365733E-003  0.5003717E+03  0.7546771E-02  0.9398978E-01
        -11   -1    0    0    0    0  0.00000000000E+00  0.00000000000E+00  0.50000000000E+03  0.50000000000E+03  0.00000000000E+00 0. -1.
         11   -1    0    0    0    0 -0.00000000000E+00 -0.00000000000E+00 -0.50000000000E+03  0.50000000000E+03  0.00000000000E+00 0. -1.
        -11    1    1    2    0    0  0.28525364415E+01  0.80059323097E+01  0.30087487806E+03  0.30099489060E+03  0.00000000000E+00 0. -1.
         11    1    1    2    0    0  0.77127138085E+01 -0.92809973408E+01 -0.49948258014E+03  0.49962833259E+03  0.00000000000E+00 0. -1.
        -15    1    1    2    0    0 -0.40826323098E+01 -0.39860970884E+01  0.14233042051E+03  0.14245582890E+03  0.17770000000E+01 0. -1.
         15    1    1    2    0    0 -0.64826179402E+01  0.52611621196E+01  0.56277281559E+02  0.56920947909E+02  0.17770000000E+01 0.  1.
</event>
<event>
 6    1  0.3365733E-003  0.5031344E+03  0.7546771E-02  0.9392824E-01
        -11   -1    0    0    0    0  0.00000000000E+00  0.00000000000E+00  0.50000000000E+03  0.50000000000E+03  0.00000000000E+00 0. -1.
         11   -1    0    0    0    0 -0.00000000000E+00 -0.00000000000E+00 -0.50000000000E+03  0.50000000000E+03  0.00000000000E+00 0. -1.
        -11    1    1    2    0    0  0.10592100942E+02  0.10838834173E+02  0.44551104554E+03  0.44576873447E+03  0.00000000000E+00 0. -1.
         11    1    1    2    0    0 -0.79410378809E+00  0.97469929501E+01 -0.49676939593E+03  0.49686564302E+03  0.00000000000E+00 0. -1.
        -15    1    1    2    0    0  0.43761062532E+00 -0.19329558972E+01  0.11528284297E+01  0.29007867809E+01  0.17770000000E+01 0. -1.
         15    1    1    2    0    0 -0.10235607779E+02 -0.18652871226E+02  0.50105521962E+02  0.54464835735E+02  0.17770000000E+01 0.  1.
</event>
<event>
 6    1  0.3365733E-003  0.5023761E+03  0.7546771E-02  0.9394509E-01
        -11   -1    0    0    0    0  0.00000000000E+00  0.00000000000E+00  0.50000000000E+03  0.50000000000E+03  0.00000000000E+00 0.  1.
         11   -1    0    0    0    0 -0.00000000000E+00 -0.00000000000E+00 -0.50000000000E+03  0.50000000000E+03  0.00000000000E+00 0.  1.
        -11    1    1    2    0    0 -0.82275148288E+00 -0.11390448313E+02  0.49749287729E+03  0.49762393651E+03  0.00000000000E+00 0.  1.
         11    1    1    2    0    0  0.11043641215E+02  0.59053765426E+01 -0.33983662589E+03  0.34006729889E+03  0.00000000000E+00 0.  1.
        -15    1    1    2    0    0 -0.12050172517E+02  0.24166447205E+01 -0.15782743185E+03  0.15831520079E+03  0.17770000000E+01 0.  1.
         15    1    1    2    0    0  0.18292827851E+01  0.30684270502E+01  0.17118044152E+00  0.39935637987E+01  0.17770000000E+01 0. -1.
</event>
<event>
 6    1  0.3365733E-003  0.5013578E+03  0.7546771E-02  0.9396777E-01
        -11   -1    0    0    0    0  0.00000000000E+00  0.00000000000E+00  0.50000000000E+03  0.50000000000E+03  0.00000000000E+00 0. -1.
         11   -1    0    0    0    0 -0.00000000000E+00 -0.00000000000E+00 -0.50000000000E+03  0.50000000000E+03  0.00000000000E+00 0.  1.
        -11    1    1    2    0    0  0.22428546706E+01  0.19225430347E+01  0.21144764934E+03  0.21146828362E+03  0.00000000000E+00 0. -1.
         11    1    1    2    0    0  0.10292789687E+02  0.42184444785E+01 -0.49851814599E+03  0.49864223515E+03  0.00000000000E+00 0.  1.
        -15    1    1    2    0    0 -0.13171725579E+02  0.43514602577E-01  0.30898148817E+02  0.33635540393E+02  0.17770000000E+01 0.  1.
         15    1    1    2    0    0  0.63608122101E+00 -0.61845021158E+01  0.25617234784E+03  0.25625394083E+03  0.17770000000E+01 0. -1.
</event>
<event>
 6    1  0.3365733E-003  0.5003007E+03  0.7546771E-02  0.9399137E-01
        -11   -1    0    0    0    0  0.00000000000E+00  0.00000000000E+00  0.50000000000E+03  0.50000000000E+03  0.00000000000E+00 0. -1.
         11   -1    0    0    0    0 -0.00000000000E+00 -0.00000000000E+00 -0.50000000000E+03  0.50000000000E+03  0.00000000000E+00 0. -1.
        -11    1    1    2    0    0 -0.52204419296E+01  0.22253755691E+01  0.35842030659E+03  0.35846523051E+03  0.00000000000E+00 0. -1.
         11    1    1    2    0    0  0.21529447935E+01  0.68748079367E+01 -0.49964739467E+03  0.49969932675E+03  0.00000000000E+00 0. -1.
        -15    1    1    2    0    0 -0.26608245682E+01 -0.31320048695E+01  0.38199865151E+02  0.38461368520E+02  0.17770000000E+01 0.  1.
         15    1    1    2    0    0  0.57283217044E+01 -0.59681786364E+01  0.10302722293E+03  0.10337407421E+03  0.17770000000E+01 0. -1.
</event>
<event>
 6    1  0.3365733E-003  0.5066745E+03  0.7546771E-02  0.9384998E-01
        -11   -1    0    0    0    0  0.00000000000E+00  0.00000000000E+00  0.50000000000E+03  0.50000000000E+03  0.00000000000E+00 0. -1.
         11   -1    0    0    0    0 -0.00000000000E+00 -0.00000000000E+00 -0.50000000000E+03  0.50000000000E+03  0.00000000000E+00 0. -1.
        -11    1    1    2    0    0  0.13379074765E+02 -0.19584755430E+01  0.46976276709E+03  0.46995733063E+03  0.00000000000E+00 0. -1.
         11    1    1    2    0    0 -0.35911749694E+01 -0.60141347131E+01 -0.49327575263E+03  0.49332548534E+03  0.00000000000E+00 0. -1.
        -15    1    1    2    0    0  0.82642306430E+01  0.36972128088E+00  0.58979966398E+01  0.10313985423E+02  0.17770000000E+01 0. -1.
         15    1    1    2    0    0 -0.18052130439E+02  0.76028889752E+01  0.17614988898E+02  0.26403198614E+02  0.17770000000E+01 0.  1.
</event>
<event>
 6    1  0.3365733E-003  0.5039627E+03  0.7546771E-02  0.9390986E-01
        -11   -1    0    0    0    0  0.00000000000E+00  0.00000000000E+00  0.50000000000E+03  0.50000000000E+03  0.00000000000E+00 0.  1.
         11   -1    0    0    0    0 -0.00000000000E+00 -0.00000000000E+00 -0.50000000000E+03  0.50000000000E+03  0.00000000000E+00 0. -1.
        -11    1    1    2    0    0  0.11278190309E+02 -0.56194740243E+00  0.29584964856E+03  0.29606507378E+03  0.00000000000E+00 0.  1.
         11    1    1    2    0    0  0.13592382633E+02  0.66939190381E+01 -0.49580588634E+03  0.49603733563E+03  0.00000000000E+00 0. -1.
        -15    1    1    2    0    0 -0.23522071435E+02 -0.10289736738E+02  0.38128967447E+02  0.46001547955E+02  0.17770000000E+01 0.  1.
         15    1    1    2    0    0 -0.13485015076E+01  0.41577651023E+01  0.16182727033E+03  0.16189604263E+03  0.17770000000E+01 0. -1.
</event>
<event>
 6    1  0.3365733E-003  0.5183895E+03  0.7546771E-02  0.9359576E-01
        -11   -1    0    0    0    0  0.00000000000E+00  0.00000000000E+00  0.50000000000E+03  0.50000000000E+03  0.00000000000E+00 0. -1.
         11   -1    0    0    0    0 -0.00000000000E+00 -0.00000000000E+00 -0.50000000000E+03  0.50000000000E+03  0.00000000000E+00 0. -1.
        -11    1    1    2    0    0 -0.70806372878E+01  0.44701513969E+01  0.48153765486E+03  0.48161045537E+03  0.00000000000E+00 0. -1.
         11    1    1    2    0    0 -0.78288541276E+01 -0.34561693285E+01 -0.42128778515E+03  0.42137469547E+03  0.00000000000E+00 0. -1.
        -15    1    1    2    0    0 -0.38731749480E+01 -0.30730319803E+02 -0.52485471227E+02  0.60969143493E+02  0.17770000000E+01 0.  1.
         15    1    1    2    0    0  0.18782666363E+02  0.29716337735E+02 -0.77643984831E+01  0.36045705665E+02  0.17770000000E+01 0. -1.
</event>
<event>
 6    1  0.3365733E-003  0.5046058E+03  0.7546771E-02  0.9389562E-01
        -11   -1    0    0    0    0  0.00000000000E+00  0.00000000000E+00  0.50000000000E+03  0.50000000000E+03  0.00000000000E+00 0. -1.
         11   -1    0    0    0    0 -0.00000000000E+00 -0.00000000000E+00 -0.50000000000E+03  0.50000000000E+03  0.00000000000E+00 0.  1.
        -11    1    1    2    0    0 -0.29623722516E+01  0.19606976164E+01  0.26238142494E+03  0.26240547276E+03  0.00000000000E+00 0. -1.
         11    1    1    2    0    0  0.93005060836E+01 -0.45639377842E+00 -0.49530666075E+03  0.49539418233E+03  0.00000000000E+00 0.  1.
        -15    1    1    2    0    0  0.18226826316E+01 -0.31849884209E+02  0.15301229970E+03  0.15631269585E+03  0.17770000000E+01 0.  1.
         15    1    1    2    0    0 -0.81608164636E+01  0.30345580371E+02  0.79912936113E+02  0.85887649057E+02  0.17770000000E+01 0. -1.
</event>
<event>
 6    1  0.3365733E-003  0.5176024E+03  0.7546771E-02  0.9361262E-01
        -11   -1    0    0    0    0  0.00000000000E+00  0.00000000000E+00  0.50000000000E+03  0.50000000000E+03  0.00000000000E+00 0. -1.
         11   -1    0    0    0    0 -0.00000000000E+00 -0.00000000000E+00 -0.50000000000E+03  0.50000000000E+03  0.00000000000E+00 0. -1.
        -11    1    1    2    0    0  0.13222868607E+02  0.17039281163E+02  0.30284831921E+03  0.30361535831E+03  0.00000000000E+00 0. -1.
         11    1    1    2    0    0 -0.57904215844E+02  0.11638602355E+02 -0.47876826140E+03  0.48239755742E+03  0.00000000000E+00 0. -1.
        -15    1    1    2    0    0 -0.21182011203E+01  0.96860347246E+01  0.14619732818E+03  0.14654392700E+03  0.17770000000E+01 0. -1.
         15    1    1    2    0    0  0.46799548357E+02 -0.38363918243E+02  0.29722614014E+02  0.67443157267E+02  0.17770000000E+01 0.  1.
</event>
<event>
 6    1  0.3365733E-003  0.4844701E+03  0.7546771E-02  0.9435246E-01
        -11   -1    0    0    0    0  0.00000000000E+00  0.00000000000E+00  0.50000000000E+03  0.50000000000E+03  0.00000000000E+00 0. -1.
         11   -1    0    0    0    0 -0.00000000000E+00 -0.00000000000E+00 -0.50000000000E+03  0.50000000000E+03  0.00000000000E+00 0.  1.
        -11    1    1    2    0    0 -0.10527482259E+02  0.14755806621E+01  0.49064830247E+03  0.49076344805E+03  0.00000000000E+00 0. -1.
         11    1    1    2    0    0 -0.88785484436E+01 -0.81973712214E+01 -0.47832008262E+03  0.47847270241E+03  0.00000000000E+00 0.  1.
        -15    1    1    2    0    0  0.85684490663E+01  0.24425155509E+01 -0.16016352980E+02  0.18413731110E+02  0.17770000000E+01 0. -1.
         15    1    1    2    0    0  0.10837581636E+02  0.42792750084E+01  0.36881331273E+01  0.12350118432E+02  0.17770000000E+01 0.  1.
</event>
<event>
 6    1  0.3365733E-003  0.5280421E+03  0.7546771E-02  0.9339161E-01
        -11   -1    0    0    0    0  0.00000000000E+00  0.00000000000E+00  0.50000000000E+03  0.50000000000E+03  0.00000000000E+00 0. -1.
         11   -1    0    0    0    0 -0.00000000000E+00 -0.00000000000E+00 -0.50000000000E+03  0.50000000000E+03  0.00000000000E+00 0.  1.
        -11    1    1    2    0    0 -0.18658403189E+00  0.23013864408E+02  0.47139646202E+03  0.47195794005E+03  0.00000000000E+00 0. -1.
         11    1    1    2    0    0 -0.42265699887E+02  0.10801641993E+02 -0.42433783238E+03  0.42657433214E+03  0.00000000000E+00 0.  1.
        -15    1    1    2    0    0  0.28177422310E+02  0.18119697403E+01 -0.55349998295E+02  0.62161325618E+02  0.17770000000E+01 0. -1.
         15    1    1    2    0    0  0.14274861609E+02 -0.35627476141E+02  0.82913686498E+01  0.39306402191E+02  0.17770000000E+01 0.  1.
</event>
<event>
 6    1  0.3365733E-003  0.5053474E+03  0.7546771E-02  0.9387923E-01
        -11   -1    0    0    0    0  0.00000000000E+00  0.00000000000E+00  0.50000000000E+03  0.50000000000E+03  0.00000000000E+00 0.  1.
         11   -1    0    0    0    0 -0.00000000000E+00 -0.00000000000E+00 -0.50000000000E+03  0.50000000000E+03  0.00000000000E+00 0.  1.
        -11    1    1    2    0    0  0.41796312984E+01 -0.16596215807E+02  0.49435639938E+03  0.49465255817E+03  0.00000000000E+00 0.  1.
         11    1    1    2    0    0  0.50351764431E+01  0.10904311299E+02 -0.47776153107E+03  0.47791247899E+03  0.00000000000E+00 0.  1.
        -15    1    1    2    0    0 -0.14588608716E+02  0.23374154591E+01 -0.13770505648E+02  0.20274998646E+02  0.17770000000E+01 0.  1.
         15    1    1    2    0    0  0.53738009747E+01  0.33544890494E+01 -0.28243626684E+01  0.71599641885E+01  0.17770000000E+01 0. -1.
</event>
<event>
 6    1  0.4903400E-003  0.5595305E+03  0.7546771E-02  0.9275650E-01
        -11   -1    0    0    0    0  0.00000000000E+00  0.00000000000E+00  0.50000000000E+03  0.50000000000E+03  0.00000000000E+00 0. -1.
         11   -1    0    0    0    0 -0.00000000000E+00 -0.00000000000E+00 -0.50000000000E+03  0.50000000000E+03  0.00000000000E+00 0. -1.
        -11    1    1    2    0    0 -0.40952137622E+01  0.84293048890E+01  0.41244227416E+03  0.41254872860E+03  0.00000000000E+00 0. -1.
         11    1    1    2    0    0 -0.22365509093E+02  0.28368871166E+01 -0.43989211523E+03  0.44046945066E+03  0.00000000000E+00 0. -1.
        -15    1    1    2    0    0  0.36009292575E+00  0.79288069585E+00  0.83732332233E+02  0.83755713339E+02  0.17770000000E+01 0. -1.
         15    1    1    2    0    0  0.26100629930E+02 -0.12059072701E+02 -0.56282491161E+02  0.63226107404E+02  0.17770000000E+01 0.  1.
</event>
<event>
 6    1  0.3365733E-003  0.5001764E+03  0.7546771E-02  0.9399415E-01
        -11   -1    0    0    0    0  0.00000000000E+00  0.00000000000E+00  0.50000000000E+03  0.50000000000E+03  0.00000000000E+00 0. -1.
         11   -1    0    0    0    0 -0.00000000000E+00 -0.00000000000E+00 -0.50000000000E+03  0.50000000000E+03  0.00000000000E+00 0. -1.
        -11    1    1    2    0    0  0.53035488434E+01  0.76982226040E+01  0.33784093689E+03  0.33797024855E+03  0.00000000000E+00 0. -1.
         11    1    1    2    0    0 -0.90528301294E+01 -0.74927036903E+01 -0.49968547956E+03  0.49982364173E+03  0.00000000000E+00 0. -1.
        -15    1    1    2    0    0  0.65400296015E+01  0.69982606360E+00  0.79954988170E+02  0.80244748152E+02  0.17770000000E+01 0. -1.
         15    1    1    2    0    0 -0.27907483155E+01 -0.90534497730E+00  0.81889554501E+02  0.81961361574E+02  0.17770000000E+01 0. -1.
</event>
<event>
 6    1  0.3365733E-003  0.5039669E+03  0.7546771E-02  0.9390977E-01
        -11   -1    0    0    0    0  0.00000000000E+00  0.00000000000E+00  0.50000000000E+03  0.50000000000E+03  0.00000000000E+00 0.  1.
         11   -1    0    0    0    0 -0.00000000000E+00 -0.00000000000E+00 -0.50000000000E+03  0.50000000000E+03  0.00000000000E+00 0.  1.
        -11    1    1    2    0    0  0.77000448808E+01  0.75829669662E+01  0.23853144079E+03  0.23877613014E+03  0.00000000000E+00 0.  1.
         11    1    1    2    0    0  0.12912574070E+02  0.15014578218E+02 -0.49563767221E+03  0.49603313825E+03  0.00000000000E+00 0.  1.
        -15    1    1    2    0    0 -0.37322353416E+02 -0.23178510624E+01  0.17517097606E+03  0.17912665653E+03  0.17770000000E+01 0.  1.
         15    1    1    2    0    0  0.16709734465E+02 -0.20279694122E+02  0.81935255358E+02  0.86064075078E+02  0.17770000000E+01 0.  1.
</event>
<event>
 6    1  0.3365733E-003  0.5018057E+03  0.7546771E-02  0.9395778E-01
        -11   -1    0    0    0    0  0.00000000000E+00  0.00000000000E+00  0.50000000000E+03  0.50000000000E+03  0.00000000000E+00 0.  1.
         11   -1    0    0    0    0 -0.00000000000E+00 -0.00000000000E+00 -0.50000000000E+03  0.50000000000E+03  0.00000000000E+00 0. -1.
        -11    1    1    2    0    0  0.14175484417E+02 -0.31258673505E+02  0.49701058580E+03  0.49819431091E+03  0.00000000000E+00 0.  1.
         11    1    1    2    0    0  0.15091980230E+01  0.45568982795E+01 -0.11334404658E+03  0.11344565173E+03  0.00000000000E+00 0. -1.
        -15    1    1    2    0    0  0.17395391899E+01  0.34388844192E+02 -0.14998334127E+03  0.15389535077E+03  0.17770000000E+01 0. -1.
         15    1    1    2    0    0 -0.17424221630E+02 -0.76870689667E+01 -0.23368319794E+03  0.23446468659E+03  0.17770000000E+01 0.  1.
</event>
<event>
 6    1  0.3365733E-003  0.5000991E+03  0.7546771E-02  0.9399588E-01
        -11   -1    0    0    0    0  0.00000000000E+00  0.00000000000E+00  0.50000000000E+03  0.50000000000E+03  0.00000000000E+00 0. -1.
         11   -1    0    0    0    0 -0.00000000000E+00 -0.00000000000E+00 -0.50000000000E+03  0.50000000000E+03  0.00000000000E+00 0. -1.
        -11    1    1    2    0    0  0.94595870068E+01 -0.10647731251E+02  0.49969799649E+03  0.49990093585E+03  0.00000000000E+00 0. -1.
         11    1    1    2    0    0 -0.21805582473E+01  0.26175220656E+01 -0.23039671044E+03  0.23042189661E+03  0.00000000000E+00 0. -1.
        -15    1    1    2    0    0 -0.33458198630E+01 -0.12183113417E+01 -0.66001815643E+02  0.66121677158E+02  0.17770000000E+01 0.  1.
         15    1    1    2    0    0 -0.39332088965E+01  0.92485205268E+01 -0.20329947041E+03  0.20355549038E+03  0.17770000000E+01 0. -1.
</event>
<event>
 6    1  0.3365733E-003  0.5001745E+03  0.7546771E-02  0.9399419E-01
        -11   -1    0    0    0    0  0.00000000000E+00  0.00000000000E+00  0.50000000000E+03  0.50000000000E+03  0.00000000000E+00 0.  1.
         11   -1    0    0    0    0 -0.00000000000E+00 -0.00000000000E+00 -0.50000000000E+03  0.50000000000E+03  0.00000000000E+00 0.  1.
        -11    1    1    2    0    0 -0.27705954698E+00  0.22847433339E+01  0.48887181885E+02  0.48941325756E+02  0.00000000000E+00 0.  1.
         11    1    1    2    0    0  0.24932534674E+01 -0.71735652283E+01 -0.49976775618E+03  0.49982545600E+03  0.00000000000E+00 0.  1.
        -15    1    1    2    0    0 -0.74065279006E+01  0.33839764098E+01  0.11386215006E+03  0.11416678543E+03  0.17770000000E+01 0. -1.
         15    1    1    2    0    0  0.51903339802E+01  0.15048454846E+01  0.33701842423E+03  0.33706643281E+03  0.17770000000E+01 0.  1.
</event>
<event>
 6    1  0.3365733E-003  0.5020905E+03  0.7546771E-02  0.9395144E-01
        -11   -1    0    0    0    0  0.00000000000E+00  0.00000000000E+00  0.50000000000E+03  0.50000000000E+03  0.00000000000E+00 0.  1.
         11   -1    0    0    0    0 -0.00000000000E+00 -0.00000000000E+00 -0.50000000000E+03  0.50000000000E+03  0.00000000000E+00 0.  1.
        -11    1    1    2    0    0  0.46347245491E+01 -0.96327495778E+01  0.24172391956E+02  0.26430570726E+02  0.00000000000E+00 0.  1.
         11    1    1    2    0    0  0.73955314509E+01 -0.25988623229E+02 -0.49717581821E+03  0.49790952655E+03  0.00000000000E+00 0.  1.
        -15    1    1    2    0    0 -0.11490481239E+01  0.23588111702E+02  0.40627301263E+03  0.40696269834E+03  0.17770000000E+01 0.  1.
         15    1    1    2    0    0 -0.10881207876E+02  0.12033261105E+02  0.66730413625E+02  0.68697204377E+02  0.17770000000E+01 0. -1.
</event>
<event>
 6    1  0.3365733E-003  0.5047483E+03  0.7546771E-02  0.9389247E-01
        -11   -1    0    0    0    0  0.00000000000E+00  0.00000000000E+00  0.50000000000E+03  0.50000000000E+03  0.00000000000E+00 0.  1.
         11   -1    0    0    0    0 -0.00000000000E+00 -0.00000000000E+00 -0.50000000000E+03  0.50000000000E+03  0.00000000000E+00 0. -1.
        -11    1    1    2    0    0 -0.10731084003E+02  0.18330393275E+02  0.43667671505E+03  0.43719299280E+03  0.00000000000E+00 0.  1.
         11    1    1    2    0    0  0.32151089429E+00  0.73543615682E+01 -0.49519703273E+03  0.49525174530E+03  0.00000000000E+00 0. -1.
        -15    1    1    2    0    0  0.16157232156E+01 -0.62743882094E+01  0.18255519836E+01  0.69619593475E+01  0.17770000000E+01 0. -1.
         15    1    1    2    0    0  0.87938498926E+01 -0.19410366634E+02  0.56694765690E+02  0.60593302554E+02  0.17770000000E+01 0.  1.
</event>
<event>
 6    1  0.3365733E-003  0.4162507E+03  0.7546771E-02  0.9609567E-01
        -11   -1    0    0    0    0  0.00000000000E+00  0.00000000000E+00  0.50000000000E+03  0.50000000000E+03  0.00000000000E+00 0. -1.
         11   -1    0    0    0    0 -0.00000000000E+00 -0.00000000000E+00 -0.50000000000E+03  0.50000000000E+03  0.00000000000E+00 0.  1.
        -11    1    1    2    0    0 -0.28341834149E+01 -0.72984561208E+01  0.42105192317E+03  0.42112471082E+03  0.00000000000E+00 0. -1.
         11    1    1    2    0    0  0.28530139006E+02 -0.21377516465E+02 -0.41078588775E+03  0.41232998026E+03  0.00000000000E+00 0.  1.
        -15    1    1    2    0    0 -0.21672901066E+02  0.25465878881E+02 -0.85132121278E+02  0.91481481350E+02  0.17770000000E+01 0.  1.
         15    1    1    2    0    0 -0.40230545245E+01  0.32100937048E+01  0.74866085858E+02  0.75063827574E+02  0.17770000000E+01 0. -1.
</event>
<event>
 6    1  0.3365733E-003  0.5074647E+03  0.7546771E-02  0.9383260E-01
        -11   -1    0    0    0    0  0.00000000000E+00  0.00000000000E+00  0.50000000000E+03  0.50000000000E+03  0.00000000000E+00 0.  1.
         11   -1    0    0    0    0 -0.00000000000E+00 -0.00000000000E+00 -0.50000000000E+03  0.50000000000E+03  0.00000000000E+00 0. -1.
        -11    1    1    2    0    0 -0.69005007778E+01 -0.14011698459E+02  0.49228761761E+03  0.49253532164E+03  0.00000000000E+00 0.  1.
         11    1    1    2    0    0  0.12001602352E+02  0.26527782259E+01 -0.47924245665E+03  0.47940005001E+03  0.00000000000E+00 0. -1.
        -15    1    1    2    0    0 -0.45787309273E+01 -0.13753082365E+00  0.47265069716E+01  0.68177187375E+01  0.17770000000E+01 0.  1.
         15    1    1    2    0    0 -0.52237064644E+00  0.11496451057E+02 -0.17771667935E+02  0.21246909614E+02  0.17770000000E+01 0. -1.
</event>
<event>
 6    1  0.3513739E-003  0.5000844E+03  0.7546771E-02  0.9399621E-01
        -11   -1    0    0    0    0  0.00000000000E+00  0.00000000000E+00  0.50000000000E+03  0.50000000000E+03  0.00000000000E+00 0.  1.
         11   -1    0    0    0    0 -0.00000000000E+00 -0.00000000000E+00 -0.50000000000E+03  0.50000000000E+03  0.00000000000E+00 0. -1.
        -11    1    1    2    0    0 -0.30494645988E+01  0.68847303052E+01  0.49985893190E+03  0.49991564343E+03  0.00000000000E+00 0.  1.
         11    1    1    2    0    0 -0.93578803517E+00  0.79808767355E+00 -0.83481629145E+02  0.83490688390E+02  0.00000000000E+00 0. -1.
        -15    1    1    2    0    0  0.60134173190E+01 -0.85264787548E+01 -0.32020520989E+03  0.32038008083E+03  0.17770000000E+01 0. -1.
         15    1    1    2    0    0 -0.20281646850E+01  0.84366077598E+00 -0.96172092866E+02  0.96213587350E+02  0.17770000000E+01 0. -1.
</event>
<event>
 6    1  0.3365733E-003  0.5028416E+03  0.7546771E-02  0.9393474E-01
        -11   -1    0    0    0    0  0.00000000000E+00  0.00000000000E+00  0.50000000000E+03  0.50000000000E+03  0.00000000000E+00 0. -1.
         11   -1    0    0    0    0 -0.00000000000E+00 -0.00000000000E+00 -0.50000000000E+03  0.50000000000E+03  0.00000000000E+00 0.  1.
        -11    1    1    2    0    0 -0.13510145748E+02 -0.33352009755E+01  0.42076071894E+03  0.42099077212E+03  0.00000000000E+00 0. -1.
         11    1    1    2    0    0  0.30414020937E+01  0.11331707783E+02 -0.49701988887E+03  0.49715835270E+03  0.00000000000E+00 0.  1.
        -15    1    1    2    0    0  0.12534325412E+02 -0.33902679999E+01  0.75277436470E+02  0.76409772943E+02  0.17770000000E+01 0.  1.
         15    1    1    2    0    0 -0.20655817581E+01 -0.46062388079E+01  0.98173345946E+00  0.54411022358E+01  0.17770000000E+01 0. -1.
</event>
<event>
 6    1  0.3365733E-003  0.5058544E+03  0.7546771E-02  0.9386804E-01
        -11   -1    0    0    0    0  0.00000000000E+00  0.00000000000E+00  0.50000000000E+03  0.50000000000E+03  0.00000000000E+00 0.  1.
         11   -1    0    0    0    0 -0.00000000000E+00 -0.00000000000E+00 -0.50000000000E+03  0.50000000000E+03  0.00000000000E+00 0. -1.
        -11    1    1    2    0    0  0.96106371586E+01  0.87474246606E+01  0.44179279168E+03  0.44198388270E+03  0.00000000000E+00 0.  1.
         11    1    1    2    0    0  0.17501344133E+02  0.10318250203E+02 -0.49372773500E+03  0.49414556524E+03  0.00000000000E+00 0. -1.
        -15    1    1    2    0    0 -0.10822015381E+02 -0.16039447012E+02  0.20209167629E+02  0.28034765250E+02  0.17770000000E+01 0. -1.
         15    1    1    2    0    0 -0.16289965911E+02 -0.30262278516E+01  0.31725775693E+02  0.35835786816E+02  0.17770000000E+01 0.  1.
</event>
<event>
 6    1  0.3365733E-003  0.4851920E+03  0.7546771E-02  0.9433567E-01
        -11   -1    0    0    0    0  0.00000000000E+00  0.00000000000E+00  0.50000000000E+03  0.50000000000E+03  0.00000000000E+00 0.  1.
         11   -1    0    0    0    0 -0.00000000000E+00 -0.00000000000E+00 -0.50000000000E+03  0.50000000000E+03  0.00000000000E+00 0. -1.
        -11    1    1    2    0    0 -0.78133529028E+01 -0.20193027445E+01  0.49197447168E+03  0.49204065569E+03  0.00000000000E+00 0.  1.
         11    1    1    2    0    0 -0.14771221530E+02  0.38192861259E+01 -0.47845876080E+03  0.47870195500E+03  0.00000000000E+00 0. -1.
        -15    1    1    2    0    0  0.17948739138E+02  0.23745142473E+01 -0.56231740564E+01  0.19041359459E+02  0.17770000000E+01 0. -1.
         15    1    1    2    0    0  0.46358352941E+01 -0.41744976287E+01 -0.78925368227E+01  0.10216029847E+02  0.17770000000E+01 0.  1.
</event>
<event>
 6    1  0.3365733E-003  0.5008940E+03  0.7546771E-02  0.9397812E-01
        -11   -1    0    0    0    0  0.00000000000E+00  0.00000000000E+00  0.50000000000E+03  0.50000000000E+03  0.00000000000E+00 0. -1.
         11   -1    0    0    0    0 -0.00000000000E+00 -0.00000000000E+00 -0.50000000000E+03  0.50000000000E+03  0.00000000000E+00 0.  1.
        -11    1    1    2    0    0 -0.76620278443E+01  0.24775029601E+01  0.49904107473E+03  0.49910603979E+03  0.00000000000E+00 0. -1.
         11    1    1    2    0    0 -0.15711352585E+01 -0.38196912575E+01 -0.26858015032E+03  0.26861190527E+03  0.00000000000E+00 0.  1.
        -15    1    1    2    0    0 -0.37122146019E+01 -0.40716626092E+01 -0.17331963902E+03  0.17341630250E+03  0.17770000000E+01 0.  1.
         15    1    1    2    0    0  0.12945377705E+02  0.54138509066E+01 -0.57141285387E+02  0.58865752439E+02  0.17770000000E+01 0. -1.
</event>
<event>
 6    1  0.3365733E-003  0.5043411E+03  0.7546771E-02  0.9390148E-01
        -11   -1    0    0    0    0  0.00000000000E+00  0.00000000000E+00  0.50000000000E+03  0.50000000000E+03  0.00000000000E+00 0.  1.
         11   -1    0    0    0    0 -0.00000000000E+00 -0.00000000000E+00 -0.50000000000E+03  0.50000000000E+03  0.00000000000E+00 0. -1.
        -11    1    1    2    0    0  0.13425300471E+01 -0.21301556629E+01  0.18491018947E+03  0.18492733200E+03  0.00000000000E+00 0.  1.
         11    1    1    2    0    0 -0.15223879337E+02 -0.51444802503E+01 -0.49539838215E+03  0.49565894445E+03  0.00000000000E+00 0. -1.
        -15    1    1    2    0    0  0.17451552996E+02  0.20452452702E+02  0.38030189820E+02  0.46608074304E+02  0.17770000000E+01 0. -1.
         15    1    1    2    0    0 -0.35702037061E+01 -0.13177816789E+02  0.27245800286E+03  0.27280564924E+03  0.17770000000E+01 0.  1.
</event>
<event>
 6    1  0.3365733E-003  0.5004556E+03  0.7546771E-02  0.9398791E-01
        -11   -1    0    0    0    0  0.00000000000E+00  0.00000000000E+00  0.50000000000E+03  0.50000000000E+03  0.00000000000E+00 0.  1.
         11   -1    0    0    0    0 -0.00000000000E+00 -0.00000000000E+00 -0.50000000000E+03  0.50000000000E+03  0.00000000000E+00 0.  1.
        -11    1    1    2    0    0 -0.87392676226E+01  0.47447997761E+01  0.13646694019E+03  0.13682877508E+03  0.00000000000E+00 0.  1.
         11    1    1    2    0    0  0.64547886988E+00 -0.67150303556E+01 -0.49949880545E+03  0.49954435731E+03  0.00000000000E+00 0.  1.
        -15    1    1    2    0    0  0.61682698014E+01  0.39733419067E+01  0.35271196594E+03  0.35279274885E+03  0.17770000000E+01 0.  1.
         15    1    1    2    0    0  0.19255189512E+01 -0.20031113272E+01  0.10319899319E+02  0.10834118754E+02  0.17770000000E+01 0. -1.
</event>
<event>
 6    1  0.3365733E-003  0.5006706E+03  0.7546771E-02  0.9398310E-01
        -11   -1    0    0    0    0  0.00000000000E+00  0.00000000000E+00  0.50000000000E+03  0.50000000000E+03  0.00000000000E+00 0. -1.
         11   -1    0    0    0    0 -0.00000000000E+00 -0.00000000000E+00 -0.50000000000E+03  0.50000000000E+03  0.00000000000E+00 0. -1.
        -11    1    1    2    0    0 -0.11308894892E+01 -0.67071354092E+01  0.35046614271E+03  0.35053214085E+03  0.00000000000E+00 0. -1.
         11    1    1    2    0    0  0.41284670270E+01 -0.83712189321E+01 -0.49924210591E+03  0.49932935209E+03  0.00000000000E+00 0. -1.
        -15    1    1    2    0    0  0.61147636203E+00  0.58607848953E+01  0.18968546588E+02  0.19942070895E+02  0.17770000000E+01 0.  1.
         15    1    1    2    0    0 -0.36090538999E+01  0.92175694460E+01  0.12980741661E+03  0.13019643617E+03  0.17770000000E+01 0. -1.
</event>
<event>
 6    1  0.3365733E-003  0.4417348E+03  0.7546771E-02  0.9540539E-01
        -11   -1    0    0    0    0  0.00000000000E+00  0.00000000000E+00  0.50000000000E+03  0.50000000000E+03  0.00000000000E+00 0.  1.
         11   -1    0    0    0    0 -0.00000000000E+00 -0.00000000000E+00 -0.50000000000E+03  0.50000000000E+03  0.00000000000E+00 0. -1.
        -11    1    1    2    0    0 -0.53263141826E+02  0.13528171348E+02  0.44652794176E+03  0.44989685092E+03  0.00000000000E+00 0.  1.
         11    1    1    2    0    0  0.15554634008E+02 -0.56026383796E+01 -0.43418406571E+03  0.43449872165E+03  0.00000000000E+00 0. -1.
        -15    1    1    2    0    0  0.71282928481E+02 -0.86753626330E+00  0.13547833441E+02  0.72585880390E+02  0.17770000000E+01 0. -1.
         15    1    1    2    0    0 -0.33574420662E+02 -0.70579967048E+01 -0.25891709489E+02  0.43018547042E+02  0.17770000000E+01 0.  1.
</event>
<event>
 6    1  0.3365733E-003  0.5133226E+03  0.7546771E-02  0.9370483E-01
        -11   -1    0    0    0    0  0.00000000000E+00  0.00000000000E+00  0.50000000000E+03  0.50000000000E+03  0.00000000000E+00 0. -1.
         11   -1    0    0    0    0 -0.00000000000E+00 -0.00000000000E+00 -0.50000000000E+03  0.50000000000E+03  0.00000000000E+00 0.  1.
        -11    1    1    2    0    0 -0.97419753114E+01  0.76258215231E+00  0.28240979583E+03  0.28257880387E+03  0.00000000000E+00 0. -1.
         11    1    1    2    0    0  0.13512315114E+02  0.15998957363E+01 -0.48648710588E+03  0.48667735361E+03  0.00000000000E+00 0.  1.
        -15    1    1    2    0    0  0.33770308261E+01 -0.11135195473E+02  0.21475923332E+03  0.21508157276E+03  0.17770000000E+01 0.  1.
         15    1    1    2    0    0 -0.71473706289E+01  0.87727175846E+01 -0.10681923267E+02  0.15662269772E+02  0.17770000000E+01 0. -1.
</event>
<event>
 6    1  0.3365733E-003  0.5003163E+03  0.7546771E-02  0.9399102E-01
        -11   -1    0    0    0    0  0.00000000000E+00  0.00000000000E+00  0.50000000000E+03  0.50000000000E+03  0.00000000000E+00 0.  1.
         11   -1    0    0    0    0 -0.00000000000E+00 -0.00000000000E+00 -0.50000000000E+03  0.50000000000E+03  0.00000000000E+00 0.  1.
        -11    1    1    2    0    0 -0.30958017410E+01  0.47374669644E+01  0.38472410520E+03  0.38476572704E+03  0.00000000000E+00 0.  1.
         11    1    1    2    0    0 -0.80788898239E+00 -0.71333658489E+01 -0.49963214404E+03  0.49968371692E+03  0.00000000000E+00 0.  1.
        -15    1    1    2    0    0  0.15851290922E+01  0.28556449883E+01  0.11213816976E+02  0.11814176345E+02  0.17770000000E+01 0. -1.
         15    1    1    2    0    0  0.23185616311E+01 -0.45974610386E+00  0.10369422187E+03  0.10373637970E+03  0.17770000000E+01 0.  1.
</event>
<event>
 6    1  0.3365733E-003  0.5035113E+03  0.7546771E-02  0.9391987E-01
        -11   -1    0    0    0    0  0.00000000000E+00  0.00000000000E+00  0.50000000000E+03  0.50000000000E+03  0.00000000000E+00 0.  1.
         11   -1    0    0    0    0 -0.00000000000E+00 -0.00000000000E+00 -0.50000000000E+03  0.50000000000E+03  0.00000000000E+00 0. -1.
        -11    1    1    2    0    0 -0.78664848485E+01  0.12852043239E+01  0.35009937970E+03  0.35019010409E+03  0.00000000000E+00 0.  1.
         11    1    1    2    0    0 -0.18929183482E+01  0.20651894359E+02 -0.49605535874E+03  0.49648867341E+03  0.00000000000E+00 0. -1.
        -15    1    1    2    0    0  0.10866052994E+02 -0.96698362110E+01  0.13749287330E+03  0.13827156171E+03  0.17770000000E+01 0.  1.
         15    1    1    2    0    0 -0.11066497970E+01 -0.12267262472E+02  0.84631057437E+01  0.15049660799E+02  0.17770000000E+01 0. -1.
</event>
<event>
 6    1  0.3365733E-003  0.5073582E+03  0.7546771E-02  0.9383494E-01
        -11   -1    0    0    0    0  0.00000000000E+00  0.00000000000E+00  0.50000000000E+03  0.50000000000E+03  0.00000000000E+00 0.  1.
         11   -1    0    0    0    0 -0.00000000000E+00 -0.00000000000E+00 -0.50000000000E+03  0.50000000000E+03  0.00000000000E+00 0.  1.
        -11    1    1    2    0    0  0.50331740840E+01 -0.42624864143E+01  0.45918062507E+03  0.45922799138E+03  0.00000000000E+00 0.  1.
         11    1    1    2    0    0  0.74661159172E+01  0.42053810569E+01 -0.49256731288E+03  0.49264184336E+03  0.00000000000E+00 0.  1.
        -15    1    1    2    0    0 -0.57018106383E+01  0.13748066042E+02  0.49300774125E+01  0.15779206467E+02  0.17770000000E+01 0.  1.
         15    1    1    2    0    0 -0.67974793629E+01 -0.13690960684E+02  0.28456610396E+02  0.32350958786E+02  0.17770000000E+01 0. -1.
</event>
<event>
 6    1  0.3365733E-003  0.5112103E+03  0.7546771E-02  0.9375069E-01
        -11   -1    0    0    0    0  0.00000000000E+00  0.00000000000E+00  0.50000000000E+03  0.50000000000E+03  0.00000000000E+00 0. -1.
         11   -1    0    0    0    0 -0.00000000000E+00 -0.00000000000E+00 -0.50000000000E+03  0.50000000000E+03  0.00000000000E+00 0.  1.
        -11    1    1    2    0    0  0.41126787032E+02 -0.39982458547E+01  0.40816273292E+03  0.41024896725E+03  0.00000000000E+00 0. -1.
         11    1    1    2    0    0 -0.89401136684E-01 -0.13682415391E+02 -0.48859812752E+03  0.48878967532E+03  0.00000000000E+00 0.  1.
        -15    1    1    2    0    0 -0.46033237190E+02  0.86007887299E+01  0.76541997297E+02  0.89748914045E+02  0.17770000000E+01 0. -1.
         15    1    1    2    0    0  0.49958512953E+01  0.90798725160E+01  0.38933973071E+01  0.11212443385E+02  0.17770000000E+01 0.  1.
</event>
<event>
 6    1  0.3365733E-003  0.5038003E+03  0.7546771E-02  0.9391346E-01
        -11   -1    0    0    0    0  0.00000000000E+00  0.00000000000E+00  0.50000000000E+03  0.50000000000E+03  0.00000000000E+00 0.  1.
         11   -1    0    0    0    0 -0.00000000000E+00 -0.00000000000E+00 -0.50000000000E+03  0.50000000000E+03  0.00000000000E+00 0.  1.
        -11    1    1    2    0    0 -0.74851881329E+01 -0.75973552615E+01  0.49608504092E+03  0.49619967319E+03  0.00000000000E+00 0.  1.
         11    1    1    2    0    0  0.26461355600E+01  0.71954309710E+01 -0.48108065279E+03  0.48114173665E+03  0.00000000000E+00 0.  1.
        -15    1    1    2    0    0  0.71477806070E+01  0.42337082979E+01 -0.19100562814E+01  0.87075310827E+01  0.17770000000E+01 0.  1.
         15    1    1    2    0    0 -0.23087280340E+01 -0.38317840074E+01 -0.13094331848E+02  0.13951059077E+02  0.17770000000E+01 0. -1.
</event>
<event>
 6    1  0.3365733E-003  0.5177494E+03  0.7546771E-02  0.9360947E-01
        -11   -1    0    0    0    0  0.00000000000E+00  0.00000000000E+00  0.50000000000E+03  0.50000000000E+03  0.00000000000E+00 0.  1.
         11   -1    0    0    0    0 -0.00000000000E+00 -0.00000000000E+00 -0.50000000000E+03  0.50000000000E+03  0.00000000000E+00 0. -1.
        -11    1    1    2    0    0 -0.88445613748E+01  0.15439772244E+01  0.48216702901E+03  0.48225061326E+03  0.00000000000E+00 0.  1.
         11    1    1    2    0    0 -0.62239091002E+01 -0.15231875405E+02 -0.45939802896E+03  0.45969261043E+03  0.00000000000E+00 0. -1.
        -15    1    1    2    0    0  0.14332130988E+02  0.19865153947E+02 -0.35854275224E+02  0.43459419012E+02  0.17770000000E+01 0. -1.
         15    1    1    2    0    0  0.73633948754E+00 -0.61772557665E+01  0.13085275176E+02  0.14597357298E+02  0.17770000000E+01 0.  1.
</event>
<event>
 6    1  0.3365733E-003  0.5160329E+03  0.7546771E-02  0.9364633E-01
        -11   -1    0    0    0    0  0.00000000000E+00  0.00000000000E+00  0.50000000000E+03  0.50000000000E+03  0.00000000000E+00 0.  1.
         11   -1    0    0    0    0 -0.00000000000E+00 -0.00000000000E+00 -0.50000000000E+03  0.50000000000E+03  0.00000000000E+00 0.  1.
        -11    1    1    2    0    0 -0.87760350250E+01  0.14305004836E+02  0.41868994111E+03  0.41902615520E+03  0.00000000000E+00 0.  1.
         11    1    1    2    0    0  0.66232402280E+01  0.14097067421E+01 -0.48391970811E+03  0.48396708408E+03  0.00000000000E+00 0.  1.
        -15    1    1    2    0    0  0.62331498774E+01 -0.16266263562E+02  0.79832865320E+02  0.81730579356E+02  0.17770000000E+01 0.  1.
         15    1    1    2    0    0 -0.40803550804E+01  0.55155198330E+00 -0.14603098327E+02  0.15276181359E+02  0.17770000000E+01 0.  1.
</event>
<event>
 6    1  0.3365733E-003  0.5051728E+03  0.7546771E-02  0.9388309E-01
        -11   -1    0    0    0    0  0.00000000000E+00  0.00000000000E+00  0.50000000000E+03  0.50000000000E+03  0.00000000000E+00 0. -1.
         11   -1    0    0    0    0 -0.00000000000E+00 -0.00000000000E+00 -0.50000000000E+03  0.50000000000E+03  0.00000000000E+00 0.  1.
        -11    1    1    2    0    0 -0.80695331941E+01 -0.45688291094E+01  0.28476946479E+03  0.28492040931E+03  0.00000000000E+00 0. -1.
         11    1    1    2    0    0 -0.70326349212E+01 -0.52676193145E+01 -0.49474922430E+03  0.49482724330E+03  0.00000000000E+00 0.  1.
        -15    1    1    2    0    0  0.12130960249E+02  0.64686028745E+01  0.21370412100E+03  0.21415324439E+03  0.17770000000E+01 0. -1.
         15    1    1    2    0    0  0.29712078668E+01  0.33678455493E+01 -0.37243614901E+01  0.60991029948E+01  0.17770000000E+01 0. -1.
</event>
<event>
 6    1  0.3365733E-003  0.5103705E+03  0.7546771E-02  0.9376899E-01
        -11   -1    0    0    0    0  0.00000000000E+00  0.00000000000E+00  0.50000000000E+03  0.50000000000E+03  0.00000000000E+00 0.  1.
         11   -1    0    0    0    0 -0.00000000000E+00 -0.00000000000E+00 -0.50000000000E+03  0.50000000000E+03  0.00000000000E+00 0. -1.
        -11    1    1    2    0    0 -0.92990948034E+01  0.19592366011E+02  0.43373484085E+03  0.43427669306E+03  0.00000000000E+00 0.  1.
         11    1    1    2    0    0 -0.11132484438E+02 -0.20232674318E+02 -0.48908463385E+03  0.48962952565E+03  0.00000000000E+00 0. -1.
        -15    1    1    2    0    0  0.15560875122E+02 -0.12299098787E+02  0.58505292946E+02  0.61801583291E+02  0.17770000000E+01 0.  1.
         15    1    1    2    0    0  0.48707041192E+01  0.12939407094E+02 -0.31554999451E+01  0.14292197993E+02  0.17770000000E+01 0. -1.
</event>
<event>
 6    1  0.3365733E-003  0.5384360E+03  0.7546771E-02  0.9317689E-01
        -11   -1    0    0    0    0  0.00000000000E+00  0.00000000000E+00  0.50000000000E+03  0.50000000000E+03  0.00000000000E+00 0. -1.
         11   -1    0    0    0    0 -0.00000000000E+00 -0.00000000000E+00 -0.50000000000E+03  0.50000000000E+03  0.00000000000E+00 0. -1.
        -11    1    1    2    0    0  0.24983244538E+02 -0.41691414944E+02  0.45899784415E+03  0.46156403404E+03  0.00000000000E+00 0. -1.
         11    1    1    2    0    0  0.75757234930E+00 -0.65546741282E+01 -0.27580522870E+03  0.27588414569E+03  0.00000000000E+00 0. -1.
        -15    1    1    2    0    0 -0.58763151673E+02  0.52889113027E+02 -0.20696629524E+03  0.22155940821E+03  0.17770000000E+01 0. -1.
         15    1    1    2    0    0  0.33022334786E+02 -0.46430239548E+01  0.23773679792E+02  0.40992412054E+02  0.17770000000E+01 0.  1.
</event>
<event>
 6    1  0.3365733E-003  0.5000678E+03  0.7546771E-02  0.9399658E-01
        -11   -1    0    0    0    0  0.00000000000E+00  0.00000000000E+00  0.50000000000E+03  0.50000000000E+03  0.00000000000E+00 0. -1.
         11   -1    0    0    0    0 -0.00000000000E+00 -0.00000000000E+00 -0.50000000000E+03  0.50000000000E+03  0.00000000000E+00 0. -1.
        -11    1    1    2    0    0 -0.50148294457E+00 -0.14854621831E+01  0.42057587047E+02  0.42086799727E+02  0.00000000000E+00 0. -1.
         11    1    1    2    0    0  0.11747161657E+02 -0.12772630777E+01 -0.49979250680E+03  0.49993217246E+03  0.00000000000E+00 0. -1.
        -15    1    1    2    0    0 -0.10499197607E+02 -0.78393214550E+00  0.36883284092E+03  0.36898735747E+03  0.17770000000E+01 0. -1.
         15    1    1    2    0    0 -0.74648110461E+00  0.35466574063E+01  0.88902078828E+02  0.88993670347E+02  0.17770000000E+01 0.  1.
</event>
<event>
 6    1  0.3365733E-003  0.5031854E+03  0.7546771E-02  0.9392710E-01
        -11   -1    0    0    0    0  0.00000000000E+00  0.00000000000E+00  0.50000000000E+03  0.50000000000E+03  0.00000000000E+00 0.  1.
         11   -1    0    0    0    0 -0.00000000000E+00 -0.00000000000E+00 -0.50000000000E+03  0.50000000000E+03  0.00000000000E+00 0.  1.
        -11    1    1    2    0    0  0.18172285006E+02 -0.11549797670E+02  0.49634778232E+03  0.49681460403E+03  0.00000000000E+00 0.  1.
         11    1    1    2    0    0 -0.10055140349E+02 -0.92348367440E+01 -0.35010099440E+03  0.35036708512E+03  0.00000000000E+00 0.  1.
        -15    1    1    2    0    0 -0.20635016408E+02  0.21075098006E+02 -0.77994140130E+02  0.83403880495E+02  0.17770000000E+01 0. -1.
         15    1    1    2    0    0  0.12517871751E+02 -0.29046359250E+00 -0.68252647788E+02  0.69414430354E+02  0.17770000000E+01 0.  1.
</event>
<event>
 6    1  0.3365733E-003  0.5165828E+03  0.7546771E-02  0.9363450E-01
        -11   -1    0    0    0    0  0.00000000000E+00  0.00000000000E+00  0.50000000000E+03  0.50000000000E+03  0.00000000000E+00 0.  1.
         11   -1    0    0    0    0 -0.00000000000E+00 -0.00000000000E+00 -0.50000000000E+03  0.50000000000E+03  0.00000000000E+00 0.  1.
        -11    1    1    2    0    0  0.93956592326E+01  0.43263768772E+01  0.45710064246E+03  0.45721766511E+03  0.00000000000E+00 0.  1.
         11    1    1    2    0    0 -0.17252232101E+02  0.64272458738E+01 -0.48306652356E+03  0.48341722682E+03  0.00000000000E+00 0.  1.
        -15    1    1    2    0    0  0.59540124691E+01  0.10119942419E+02  0.34634404073E+02  0.36613701991E+02  0.17770000000E+01 0. -1.
         15    1    1    2    0    0  0.19025603995E+01 -0.20873565170E+02 -0.86685229698E+01  0.22751406076E+02  0.17770000000E+01 0.  1.
</event>
<event>
 6    1  0.3365733E-003  0.5072013E+03  0.7546771E-02  0.9383839E-01
        -11   -1    0    0    0    0  0.00000000000E+00  0.00000000000E+00  0.50000000000E+03  0.50000000000E+03  0.00000000000E+00 0.  1.
         11   -1    0    0    0    0 -0.00000000000E+00 -0.00000000000E+00 -0.50000000000E+03  0.50000000000E+03  0.00000000000E+00 0.  1.
        -11    1    1    2    0    0 -0.11520797868E+02  0.11298279216E+02  0.49253443648E+03  0.49279869218E+03  0.00000000000E+00 0.  1.
         11    1    1    2    0    0  0.11491319613E+02 -0.23255843072E+00 -0.19608240308E+03  0.19641897390E+03  0.00000000000E+00 0.  1.
        -15    1    1    2    0    0 -0.34424082116E+01 -0.45380308884E+02 -0.84105858793E+02  0.95646096737E+02  0.17770000000E+01 0.  1.
         15    1    1    2    0    0  0.34718864667E+01  0.34314588099E+02 -0.21234617461E+03  0.21513623719E+03  0.17770000000E+01 0. -1.
</event>
<event>
 6    1  0.3365733E-003  0.5029563E+03  0.7546771E-02  0.9393219E-01
        -11   -1    0    0    0    0  0.00000000000E+00  0.00000000000E+00  0.50000000000E+03  0.50000000000E+03  0.00000000000E+00 0. -1.
         11   -1    0    0    0    0 -0.00000000000E+00 -0.00000000000E+00 -0.50000000000E+03  0.50000000000E+03  0.00000000000E+00 0.  1.
        -11    1    1    2    0    0  0.13378298860E+02 -0.51753086182E+01  0.13661925892E+03  0.13737024644E+03  0.00000000000E+00 0. -1.
         11    1    1    2    0    0 -0.26518276636E+01 -0.82405512623E+01 -0.49696833100E+03  0.49704372131E+03  0.00000000000E+00 0.  1.
        -15    1    1    2    0    0 -0.11411737227E+02  0.22503883559E+02  0.60261882436E+02  0.65355219573E+02  0.17770000000E+01 0.  1.
         15    1    1    2    0    0  0.68526603085E+00 -0.90880236782E+01  0.30008718964E+03  0.30023081268E+03  0.17770000000E+01 0. -1.
</event>
<event>
 6    1  0.3365733E-003  0.5025911E+03  0.7546771E-02  0.9394030E-01
        -11   -1    0    0    0    0  0.00000000000E+00  0.00000000000E+00  0.50000000000E+03  0.50000000000E+03  0.00000000000E+00 0.  1.
         11   -1    0    0    0    0 -0.00000000000E+00 -0.00000000000E+00 -0.50000000000E+03  0.50000000000E+03  0.00000000000E+00 0.  1.
        -11    1    1    2    0    0  0.10038768666E+02  0.63888568790E+01  0.49726651077E+03  0.49740886311E+03  0.00000000000E+00 0.  1.
         11    1    1    2    0    0  0.57866627011E+01 -0.32082823569E+01 -0.43760846225E+03  0.43765847961E+03  0.00000000000E+00 0.  1.
        -15    1    1    2    0    0 -0.13579523066E+02 -0.64944502922E+01 -0.20313991497E+02  0.25345558010E+02  0.17770000000E+01 0. -1.
         15    1    1    2    0    0 -0.22459083013E+01  0.33138757701E+01 -0.39344057020E+02  0.39587099268E+02  0.17770000000E+01 0.  1.
</event>
<event>
 6    1  0.3365733E-003  0.5062723E+03  0.7546771E-02  0.9385883E-01
        -11   -1    0    0    0    0  0.00000000000E+00  0.00000000000E+00  0.50000000000E+03  0.50000000000E+03  0.00000000000E+00 0.  1.
         11   -1    0    0    0    0 -0.00000000000E+00 -0.00000000000E+00 -0.50000000000E+03  0.50000000000E+03  0.00000000000E+00 0.  1.
        -11    1    1    2    0    0  0.18631741122E+02  0.26648902591E+02  0.49265579445E+03  0.49372769579E+03  0.00000000000E+00 0.  1.
         11    1    1    2    0    0  0.38477263456E+01 -0.64668854852E+01 -0.20378025502E+03  0.20391914559E+03  0.00000000000E+00 0.  1.
        -15    1    1    2    0    0  0.15678183936E+01  0.12592975461E+02 -0.23236412004E+03  0.23271717405E+03  0.17770000000E+01 0.  1.
         15    1    1    2    0    0 -0.24047285861E+02 -0.32774992567E+02 -0.56511419399E+02  0.69635984567E+02  0.17770000000E+01 0. -1.
</event>
<event>
 6    1  0.3365733E-003  0.5128039E+03  0.7546771E-02  0.9371607E-01
        -11   -1    0    0    0    0  0.00000000000E+00  0.00000000000E+00  0.50000000000E+03  0.50000000000E+03  0.00000000000E+00 0. -1.
         11   -1    0    0    0    0 -0.00000000000E+00 -0.00000000000E+00 -0.50000000000E+03  0.50000000000E+03  0.00000000000E+00 0. -1.
        -11    1    1    2    0    0 -0.37965648395E+01 -0.11306455767E+02  0.48705012259E+03  0.48719613274E+03  0.00000000000E+00 0. -1.
         11    1    1    2    0    0  0.65719876555E+01 -0.34983706089E+01 -0.47796372302E+03  0.47802170468E+03  0.00000000000E+00 0. -1.
        -15    1    1    2    0    0 -0.54702436573E+01  0.91836419310E+01 -0.19620224186E+02  0.22413696056E+02  0.17770000000E+01 0.  1.
         15    1    1    2    0    0  0.26948208413E+01  0.56211844449E+01  0.10533824620E+02  0.12368466520E+02  0.17770000000E+01 0. -1.
</event>
<event>
 6    1  0.3365733E-003  0.5093394E+03  0.7546771E-02  0.9379151E-01
        -11   -1    0    0    0    0  0.00000000000E+00  0.00000000000E+00  0.50000000000E+03  0.50000000000E+03  0.00000000000E+00 0. -1.
         11   -1    0    0    0    0 -0.00000000000E+00 -0.00000000000E+00 -0.50000000000E+03  0.50000000000E+03  0.00000000000E+00 0.  1.
        -11    1    1    2    0    0  0.97671948851E+01 -0.14149667537E+02  0.49035923875E+03  0.49066056925E+03  0.00000000000E+00 0. -1.
         11    1    1    2    0    0 -0.75295830684E+01 -0.31743141043E+01 -0.36935653391E+03  0.36944691098E+03  0.00000000000E+00 0.  1.
        -15    1    1    2    0    0 -0.12013542964E+02  0.17167014780E+02 -0.27319506983E+01  0.21205020505E+02  0.17770000000E+01 0.  1.
         15    1    1    2    0    0  0.97759311475E+01  0.15696686153E+00 -0.11827075414E+03  0.11868749926E+03  0.17770000000E+01 0.  1.
</event>
<event>
 6    1  0.3365733E-003  0.5008211E+03  0.7546771E-02  0.9397974E-01
        -11   -1    0    0    0    0  0.00000000000E+00  0.00000000000E+00  0.50000000000E+03  0.50000000000E+03  0.00000000000E+00 0. -1.
         11   -1    0    0    0    0 -0.00000000000E+00 -0.00000000000E+00 -0.50000000000E+03  0.50000000000E+03  0.00000000000E+00 0.  1.
        -11    1    1    2    0    0 -0.42924815887E+01  0.48560760548E+01  0.42169601194E+03  0.42174581606E+03  0.00000000000E+00 0. -1.
         11    1    1    2    0    0  0.64499986605E+00 -0.10075911541E+02 -0.49907678475E+03  0.49917890290E+03  0.00000000000E+00 0.  1.
        -15    1    1    2    0    0  0.48391817650E+01 -0.22973898564E+01  0.12373939333E+02  0.13600286171E+02  0.17770000000E+01 0.  1.
         15    1    1    2    0    0 -0.11917000424E+01  0.75172253429E+01  0.65006833477E+02  0.65474994872E+02  0.17770000000E+01 0.  1.
</event>
<event>
 6    1  0.3365733E-003  0.5001525E+03  0.7546771E-02  0.9399469E-01
        -11   -1    0    0    0    0  0.00000000000E+00  0.00000000000E+00  0.50000000000E+03  0.50000000000E+03  0.00000000000E+00 0. -1.
         11   -1    0    0    0    0 -0.00000000000E+00 -0.00000000000E+00 -0.50000000000E+03  0.50000000000E+03  0.00000000000E+00 0. -1.
        -11    1    1    2    0    0  0.21499737732E+01  0.18039066497E+01  0.12934997079E+03  0.12938041354E+03  0.00000000000E+00 0. -1.
         11    1    1    2    0    0  0.77817124673E+01  0.81868233336E+01 -0.49971989490E+03  0.49984752923E+03  0.00000000000E+00 0. -1.
        -15    1    1    2    0    0  0.45887087855E+00 -0.18670848574E+01  0.23220095796E+02  0.23367223757E+02  0.17770000000E+01 0. -1.
         15    1    1    2    0    0 -0.10390557119E+02 -0.81236451259E+01  0.34714982831E+03  0.34740483347E+03  0.17770000000E+01 0. -1.
</event>
<event>
 6    1  0.3365733E-003  0.5010467E+03  0.7546771E-02  0.9397471E-01
        -11   -1    0    0    0    0  0.00000000000E+00  0.00000000000E+00  0.50000000000E+03  0.50000000000E+03  0.00000000000E+00 0.  1.
         11   -1    0    0    0    0 -0.00000000000E+00 -0.00000000000E+00 -0.50000000000E+03  0.50000000000E+03  0.00000000000E+00 0. -1.
        -11    1    1    2    0    0  0.46799615430E+00 -0.12968252364E+01  0.57660017230E+02  0.57676497493E+02  0.00000000000E+00 0.  1.
         11    1    1    2    0    0  0.26208573382E+01  0.94774560753E+01 -0.49885640669E+03  0.49895331000E+03  0.00000000000E+00 0. -1.
        -15    1    1    2    0    0  0.31164288142E+01 -0.97041490177E+01  0.24172093914E+02  0.26293164319E+02  0.17770000000E+01 0. -1.
         15    1    1    2    0    0 -0.62052823067E+01  0.15235181788E+01  0.41702429555E+03  0.41707702819E+03  0.17770000000E+01 0.  1.
</event>
<event>
 6    1  0.3365733E-003  0.5131090E+03  0.7546771E-02  0.9370946E-01
        -11   -1    0    0    0    0  0.00000000000E+00  0.00000000000E+00  0.50000000000E+03  0.50000000000E+03  0.00000000000E+00 0. -1.
         11   -1    0    0    0    0 -0.00000000000E+00 -0.00000000000E+00 -0.50000000000E+03  0.50000000000E+03  0.00000000000E+00 0.  1.
        -11    1    1    2    0    0  0.19485182626E+00  0.94912882694E+01  0.48679839937E+03  0.48689095714E+03  0.00000000000E+00 0. -1.
         11    1    1    2    0    0 -0.14177352746E+02  0.21602086484E+02 -0.40838417404E+03  0.40920078333E+03  0.00000000000E+00 0.  1.
        -15    1    1    2    0    0  0.23795296669E+01  0.90623760684E+01 -0.55290309128E+02  0.56106727172E+02  0.17770000000E+01 0.  1.
         15    1    1    2    0    0  0.11602971253E+02 -0.40155750821E+02 -0.23123916197E+02  0.47801532352E+02  0.17770000000E+01 0. -1.
</event>
<event>
 6    1  0.3365733E-003  0.5005542E+03  0.7546771E-02  0.9398571E-01
        -11   -1    0    0    0    0  0.00000000000E+00  0.00000000000E+00  0.50000000000E+03  0.50000000000E+03  0.00000000000E+00 0.  1.
         11   -1    0    0    0    0 -0.00000000000E+00 -0.00000000000E+00 -0.50000000000E+03  0.50000000000E+03  0.00000000000E+00 0. -1.
        -11    1    1    2    0    0  0.94561988329E+00  0.69058720662E+01  0.39932051003E+03  0.39938134033E+03  0.00000000000E+00 0.  1.
         11    1    1    2    0    0 -0.80788445031E+01 -0.75753611419E+01 -0.49932300441E+03  0.49944580943E+03  0.00000000000E+00 0. -1.
        -15    1    1    2    0    0  0.43954695207E+01  0.47677603269E+01  0.22242807700E+02  0.23236865413E+02  0.17770000000E+01 0.  1.
         15    1    1    2    0    0  0.27377550991E+01 -0.40982712511E+01  0.77759686676E+02  0.77935984829E+02  0.17770000000E+01 0. -1.
</event>
<event>
 6    1  0.3365733E-003  0.5047612E+03  0.7546771E-02  0.9389219E-01
        -11   -1    0    0    0    0  0.00000000000E+00  0.00000000000E+00  0.50000000000E+03  0.50000000000E+03  0.00000000000E+00 0.  1.
         11   -1    0    0    0    0 -0.00000000000E+00 -0.00000000000E+00 -0.50000000000E+03  0.50000000000E+03  0.00000000000E+00 0. -1.
        -11    1    1    2    0    0 -0.24937741515E+02  0.18960131286E+02  0.49424696639E+03  0.49523877203E+03  0.00000000000E+00 0.  1.
         11    1    1    2    0    0  0.13585425262E+02  0.82231223004E+01 -0.42248003238E+03  0.42277838318E+03  0.00000000000E+00 0. -1.
        -15    1    1    2    0    0  0.17306844240E+02 -0.25946167791E+02 -0.47121809344E+02  0.56536299184E+02  0.17770000000E+01 0.  1.
         15    1    1    2    0    0 -0.59545279865E+01 -0.12370857961E+01 -0.24645124666E+02  0.25446545612E+02  0.17770000000E+01 0. -1.
</event>
<event>
 6    1  0.3365733E-003  0.5069976E+03  0.7546771E-02  0.9384287E-01
        -11   -1    0    0    0    0  0.00000000000E+00  0.00000000000E+00  0.50000000000E+03  0.50000000000E+03  0.00000000000E+00 0.  1.
         11   -1    0    0    0    0 -0.00000000000E+00 -0.00000000000E+00 -0.50000000000E+03  0.50000000000E+03  0.00000000000E+00 0.  1.
        -11    1    1    2    0    0  0.12772288481E+02 -0.75385075450E+01  0.44967151947E+03  0.44991603202E+03  0.00000000000E+00 0.  1.
         11    1    1    2    0    0  0.89113682919E+01 -0.47710087456E+01 -0.49289878338E+03  0.49300241953E+03  0.00000000000E+00 0.  1.
        -15    1    1    2    0    0 -0.14258605389E+02  0.96085781052E+01  0.45497914389E+02  0.48670838740E+02  0.17770000000E+01 0. -1.
         15    1    1    2    0    0 -0.74250513844E+01  0.27009381854E+01 -0.22706504792E+01  0.84107097049E+01  0.17770000000E+01 0.  1.
</event>
<event>
 6    1  0.3365733E-003  0.5153230E+03  0.7546771E-02  0.9366161E-01
        -11   -1    0    0    0    0  0.00000000000E+00  0.00000000000E+00  0.50000000000E+03  0.50000000000E+03  0.00000000000E+00 0.  1.
         11   -1    0    0    0    0 -0.00000000000E+00 -0.00000000000E+00 -0.50000000000E+03  0.50000000000E+03  0.00000000000E+00 0. -1.
        -11    1    1    2    0    0 -0.37856631745E+01 -0.55531705269E+01  0.39676695946E+03  0.39682387664E+03  0.00000000000E+00 0.  1.
         11    1    1    2    0    0  0.19422580307E+02 -0.25310903160E+02 -0.48362580955E+03  0.48467700802E+03  0.00000000000E+00 0. -1.
        -15    1    1    2    0    0 -0.55859933204E+01  0.50921200431E+01  0.90240619820E+02  0.90574059214E+02  0.17770000000E+01 0. -1.
         15    1    1    2    0    0 -0.10050923812E+02  0.25771953644E+02 -0.33817697384E+01  0.27925056127E+02  0.17770000000E+01 0.  1.
</event>
<event>
 6    1  0.3365733E-003  0.5011125E+03  0.7546771E-02  0.9397324E-01
        -11   -1    0    0    0    0  0.00000000000E+00  0.00000000000E+00  0.50000000000E+03  0.50000000000E+03  0.00000000000E+00 0. -1.
         11   -1    0    0    0    0 -0.00000000000E+00 -0.00000000000E+00 -0.50000000000E+03  0.50000000000E+03  0.00000000000E+00 0.  1.
        -11    1    1    2    0    0 -0.18510236789E+01 -0.10109310046E+02  0.49878167195E+03  0.49888754315E+03  0.00000000000E+00 0. -1.
         11    1    1    2    0    0 -0.35132472957E+01  0.25319456531E+01 -0.17910560858E+03  0.17915795455E+03  0.00000000000E+00 0.  1.
        -15    1    1    2    0    0 -0.39010172266E+01  0.20976957207E+02 -0.20465331506E+03  0.20577023050E+03  0.17770000000E+01 0.  1.
         15    1    1    2    0    0  0.92652882012E+01 -0.13399592815E+02 -0.11502274832E+03  0.11618427180E+03  0.17770000000E+01 0. -1.
</event>
<event>
 6    1  0.3365733E-003  0.5009852E+03  0.7546771E-02  0.9397608E-01
        -11   -1    0    0    0    0  0.00000000000E+00  0.00000000000E+00  0.50000000000E+03  0.50000000000E+03  0.00000000000E+00 0.  1.
         11   -1    0    0    0    0 -0.00000000000E+00 -0.00000000000E+00 -0.50000000000E+03  0.50000000000E+03  0.00000000000E+00 0.  1.
        -11    1    1    2    0    0  0.12121601609E+02  0.12947477928E+01  0.49886587515E+03  0.49901480037E+03  0.00000000000E+00 0.  1.
         11    1    1    2    0    0 -0.37194970836E+01  0.36943499184E+01 -0.24476010961E+03  0.24481624566E+03  0.00000000000E+00 0.  1.
        -15    1    1    2    0    0  0.14541175216E+01 -0.87796366487E+01 -0.22454621301E+03  0.22472951739E+03  0.17770000000E+01 0.  1.
         15    1    1    2    0    0 -0.98562220468E+01  0.37905389376E+01 -0.29559552524E+02  0.31439436587E+02  0.17770000000E+01 0. -1.
</event>
<event>
 6    1  0.3365733E-003  0.5001628E+03  0.7546771E-02  0.9399445E-01
        -11   -1    0    0    0    0  0.00000000000E+00  0.00000000000E+00  0.50000000000E+03  0.50000000000E+03  0.00000000000E+00 0.  1.
         11   -1    0    0    0    0 -0.00000000000E+00 -0.00000000000E+00 -0.50000000000E+03  0.50000000000E+03  0.00000000000E+00 0. -1.
        -11    1    1    2    0    0  0.26260881893E+01 -0.70034651568E+01  0.49978119114E+03  0.49983715736E+03  0.00000000000E+00 0.  1.
         11    1    1    2    0    0 -0.44160550379E+01  0.35512061309E+01 -0.17424493447E+03  0.17433705801E+03  0.00000000000E+00 0. -1.
        -15    1    1    2    0    0  0.43241711898E+01  0.58239316809E+01 -0.10951923500E+03  0.10977357241E+03  0.17770000000E+01 0.  1.
         15    1    1    2    0    0 -0.25342043412E+01 -0.23716726550E+01 -0.21601702167E+03  0.21605221222E+03  0.17770000000E+01 0. -1.
</event>
<event>
 6    1  0.3365733E-003  0.5001040E+03  0.7546771E-02  0.9399577E-01
        -11   -1    0    0    0    0  0.00000000000E+00  0.00000000000E+00  0.50000000000E+03  0.50000000000E+03  0.00000000000E+00 0.  1.
         11   -1    0    0    0    0 -0.00000000000E+00 -0.00000000000E+00 -0.50000000000E+03  0.50000000000E+03  0.00000000000E+00 0.  1.
        -11    1    1    2    0    0  0.55957719792E+00 -0.69961280846E+01  0.49984675273E+03  0.49989602434E+03  0.00000000000E+00 0.  1.
         11    1    1    2    0    0 -0.72136880711E+00 -0.17039063527E+01 -0.10550450917E+03  0.10552073315E+03  0.00000000000E+00 0.  1.
        -15    1    1    2    0    0 -0.31155157927E+01  0.58841145873E+01 -0.32985704200E+03  0.32992901529E+03  0.17770000000E+01 0.  1.
         15    1    1    2    0    0  0.32773074019E+01  0.28159198500E+01 -0.64485201558E+02  0.64654227220E+02  0.17770000000E+01 0. -1.
</event>
<event>
 6    1  0.3365733E-003  0.5038108E+03  0.7546771E-02  0.9391323E-01
        -11   -1    0    0    0    0  0.00000000000E+00  0.00000000000E+00  0.50000000000E+03  0.50000000000E+03  0.00000000000E+00 0.  1.
         11   -1    0    0    0    0 -0.00000000000E+00 -0.00000000000E+00 -0.50000000000E+03  0.50000000000E+03  0.00000000000E+00 0. -1.
        -11    1    1    2    0    0  0.36269009441E+02 -0.18786609717E+02  0.49450514675E+03  0.49618919568E+03  0.00000000000E+00 0.  1.
         11    1    1    2    0    0  0.40315933601E+01 -0.52978892632E+01 -0.24682272302E+03  0.24691249052E+03  0.00000000000E+00 0. -1.
        -15    1    1    2    0    0 -0.14917840902E+02 -0.14782888989E+02 -0.61654228353E+02  0.65157327960E+02  0.17770000000E+01 0. -1.
         15    1    1    2    0    0 -0.25382761899E+02  0.38867387969E+02 -0.18602819537E+03  0.19174098584E+03  0.17770000000E+01 0.  1.
</event>
<event>
 6    1  0.3365733E-003  0.5010763E+03  0.7546771E-02  0.9397405E-01
        -11   -1    0    0    0    0  0.00000000000E+00  0.00000000000E+00  0.50000000000E+03  0.50000000000E+03  0.00000000000E+00 0.  1.
         11   -1    0    0    0    0 -0.00000000000E+00 -0.00000000000E+00 -0.50000000000E+03  0.50000000000E+03  0.00000000000E+00 0.  1.
        -11    1    1    2    0    0  0.63012456353E+01  0.23920841393E+01  0.32140003696E+03  0.32147070087E+03  0.00000000000E+00 0.  1.
         11    1    1    2    0    0  0.39852425352E+01  0.93725264453E+01 -0.49881970488E+03  0.49892366589E+03  0.00000000000E+00 0.  1.
        -15    1    1    2    0    0 -0.33115779669E+01 -0.86795288820E+01  0.21488517579E+02  0.23477965989E+02  0.17770000000E+01 0.  1.
         15    1    1    2    0    0 -0.69749102036E+01 -0.30850817026E+01  0.15593115035E+03  0.15612766724E+03  0.17770000000E+01 0.  1.
</event>
<event>
 6    1  0.3365733E-003  0.5080777E+03  0.7546771E-02  0.9381915E-01
        -11   -1    0    0    0    0  0.00000000000E+00  0.00000000000E+00  0.50000000000E+03  0.50000000000E+03  0.00000000000E+00 0. -1.
         11   -1    0    0    0    0 -0.00000000000E+00 -0.00000000000E+00 -0.50000000000E+03  0.50000000000E+03  0.00000000000E+00 0.  1.
        -11    1    1    2    0    0  0.54580742195E+01 -0.46786809391E+01  0.46949150565E+03  0.46954654136E+03  0.00000000000E+00 0. -1.
         11    1    1    2    0    0 -0.72278369371E+01 -0.44460522472E+01 -0.49184914478E+03  0.49192234167E+03  0.00000000000E+00 0.  1.
        -15    1    1    2    0    0 -0.86565331281E+01 -0.25965030852E+01  0.20699892796E+02  0.22656581490E+02  0.17770000000E+01 0. -1.
         15    1    1    2    0    0  0.10426295846E+02  0.11721236272E+02  0.16577463414E+01  0.15874535481E+02  0.17770000000E+01 0.  1.
</event>
<event>
 6    1  0.3365733E-003  0.5052027E+03  0.7546771E-02  0.9388243E-01
        -11   -1    0    0    0    0  0.00000000000E+00  0.00000000000E+00  0.50000000000E+03  0.50000000000E+03  0.00000000000E+00 0. -1.
         11   -1    0    0    0    0 -0.00000000000E+00 -0.00000000000E+00 -0.50000000000E+03  0.50000000000E+03  0.00000000000E+00 0.  1.
        -11    1    1    2    0    0 -0.82953664031E+01  0.11477185581E+01  0.48359476291E+03  0.48366726690E+03  0.00000000000E+00 0. -1.
         11    1    1    2    0    0  0.39415757959E+01  0.10115421201E+02 -0.49467820248E+03  0.49479731383E+03  0.00000000000E+00 0.  1.
        -15    1    1    2    0    0  0.20675940499E+01  0.12034026394E+01  0.77599985832E+01  0.83125465459E+01  0.17770000000E+01 0. -1.
         15    1    1    2    0    0  0.22861965573E+01 -0.12466542399E+02  0.33234409848E+01  0.13222872723E+02  0.17770000000E+01 0. -1.
</event>
<event>
 6    1  0.3365733E-003  0.5063729E+03  0.7546771E-02  0.9385662E-01
        -11   -1    0    0    0    0  0.00000000000E+00  0.00000000000E+00  0.50000000000E+03  0.50000000000E+03  0.00000000000E+00 0. -1.
         11   -1    0    0    0    0 -0.00000000000E+00 -0.00000000000E+00 -0.50000000000E+03  0.50000000000E+03  0.00000000000E+00 0. -1.
        -11    1    1    2    0    0  0.43708978209E+01 -0.63157250030E+01  0.49356732239E+03  0.49362708076E+03  0.00000000000E+00 0. -1.
         11    1    1    2    0    0 -0.11908952482E+01 -0.14676623595E+02 -0.45924384931E+03  0.45947985227E+03  0.00000000000E+00 0. -1.
        -15    1    1    2    0    0 -0.65996262370E+00  0.19716259956E+02 -0.37421083024E+02  0.42339835156E+02  0.17770000000E+01 0.  1.
         15    1    1    2    0    0 -0.25200399490E+01  0.12760886416E+01  0.30976099417E+01  0.45532318101E+01  0.17770000000E+01 0. -1.
</event>
<event>
 6    1  0.3365733E-003  0.5054329E+03  0.7546771E-02  0.9387735E-01
        -11   -1    0    0    0    0  0.00000000000E+00  0.00000000000E+00  0.50000000000E+03  0.50000000000E+03  0.00000000000E+00 0.  1.
         11   -1    0    0    0    0 -0.00000000000E+00 -0.00000000000E+00 -0.50000000000E+03  0.50000000000E+03  0.00000000000E+00 0.  1.
        -11    1    1    2    0    0  0.16506674929E+02 -0.21043879614E+02  0.30824975460E+03  0.30940786415E+03  0.00000000000E+00 0.  1.
         11    1    1    2    0    0  0.12353049807E+02 -0.25891434458E+02 -0.49373437614E+03  0.49456708180E+03  0.00000000000E+00 0.  1.
        -15    1    1    2    0    0 -0.17881693143E+02  0.69305640999E+01  0.87700825634E+02  0.89790757956E+02  0.17770000000E+01 0. -1.
         15    1    1    2    0    0 -0.10978031593E+02  0.40004749972E+02  0.97783795897E+02  0.10623429610E+03  0.17770000000E+01 0.  1.
</event>
<event>
 6    1  0.3365733E-003  0.5019511E+03  0.7546771E-02  0.9395455E-01
        -11   -1    0    0    0    0  0.00000000000E+00  0.00000000000E+00  0.50000000000E+03  0.50000000000E+03  0.00000000000E+00 0. -1.
         11   -1    0    0    0    0 -0.00000000000E+00 -0.00000000000E+00 -0.50000000000E+03  0.50000000000E+03  0.00000000000E+00 0.  1.
        -11    1    1    2    0    0  0.19285634411E+01  0.22611096018E+01  0.16254493900E+03  0.16257210452E+03  0.00000000000E+00 0. -1.
         11    1    1    2    0    0 -0.75718668447E+01 -0.10034821771E+02 -0.49789025917E+03  0.49804893433E+03  0.00000000000E+00 0.  1.
        -15    1    1    2    0    0  0.45620198588E+01  0.15693163770E+01  0.33198129289E+03  0.33202110074E+03  0.17770000000E+01 0. -1.
         15    1    1    2    0    0  0.10812835448E+01  0.62043957922E+01  0.33640272700E+01  0.73578604039E+01  0.17770000000E+01 0.  1.
</event>
<event>
 6    1  0.3365733E-003  0.5034946E+03  0.7546771E-02  0.9392024E-01
        -11   -1    0    0    0    0  0.00000000000E+00  0.00000000000E+00  0.50000000000E+03  0.50000000000E+03  0.00000000000E+00 0. -1.
         11   -1    0    0    0    0 -0.00000000000E+00 -0.00000000000E+00 -0.50000000000E+03  0.50000000000E+03  0.00000000000E+00 0.  1.
        -11    1    1    2    0    0 -0.60931106735E+01  0.37168702393E+01  0.11398284760E+03  0.11420608858E+03  0.00000000000E+00 0. -1.
         11    1    1    2    0    0  0.12507222267E+02  0.23679992851E+01 -0.49634217332E+03  0.49650537867E+03  0.00000000000E+00 0.  1.
        -15    1    1    2    0    0  0.81415130590E+01  0.24848809987E+02  0.64952050960E+02  0.70040518599E+02  0.17770000000E+01 0.  1.
         15    1    1    2    0    0 -0.14555624652E+02 -0.30933679511E+02  0.31740727476E+03  0.31924801415E+03  0.17770000000E+01 0. -1.
</event>
<event>
 6    1  0.3365733E-003  0.5059123E+03  0.7546771E-02  0.9386677E-01
        -11   -1    0    0    0    0  0.00000000000E+00  0.00000000000E+00  0.50000000000E+03  0.50000000000E+03  0.00000000000E+00 0. -1.
         11   -1    0    0    0    0 -0.00000000000E+00 -0.00000000000E+00 -0.50000000000E+03  0.50000000000E+03  0.00000000000E+00 0.  1.
        -11    1    1    2    0    0  0.12466723976E+02 -0.12279312140E+02  0.47158929146E+03  0.47191382744E+03  0.00000000000E+00 0. -1.
         11    1    1    2    0    0  0.63959541007E+01  0.10431446282E+02 -0.49393612150E+03  0.49408765965E+03  0.00000000000E+00 0.  1.
        -15    1    1    2    0    0 -0.53152132700E+01 -0.47539785702E+01  0.45716508013E+00  0.73633235202E+01  0.17770000000E+01 0.  1.
         15    1    1    2    0    0 -0.13547464807E+02  0.66018444290E+01  0.21889664958E+02  0.26635189384E+02  0.17770000000E+01 0. -1.
</event>
<event>
 6    1  0.3365733E-003  0.5102027E+03  0.7546771E-02  0.9377265E-01
        -11   -1    0    0    0    0  0.00000000000E+00  0.00000000000E+00  0.50000000000E+03  0.50000000000E+03  0.00000000000E+00 0.  1.
         11   -1    0    0    0    0 -0.00000000000E+00 -0.00000000000E+00 -0.50000000000E+03  0.50000000000E+03  0.00000000000E+00 0.  1.
        -11    1    1    2    0    0  0.20729031928E+02 -0.31919832783E+02  0.41570072543E+03  0.41743941071E+03  0.00000000000E+00 0.  1.
         11    1    1    2    0    0  0.24504316620E+01  0.63892344521E+01 -0.48974947209E+03  0.48979727678E+03  0.00000000000E+00 0.  1.
        -15    1    1    2    0    0 -0.18708965021E+01 -0.17446737329E+01  0.51103762208E+02  0.51198597451E+02  0.17770000000E+01 0. -1.
         15    1    1    2    0    0 -0.21308567087E+02  0.27275272064E+02  0.22944984448E+02  0.41564715058E+02  0.17770000000E+01 0.  1.
</event>
<event>
 6    1  0.3365733E-003  0.5089458E+03  0.7546771E-02  0.9380012E-01
        -11   -1    0    0    0    0  0.00000000000E+00  0.00000000000E+00  0.50000000000E+03  0.50000000000E+03  0.00000000000E+00 0. -1.
         11   -1    0    0    0    0 -0.00000000000E+00 -0.00000000000E+00 -0.50000000000E+03  0.50000000000E+03  0.00000000000E+00 0. -1.
        -11    1    1    2    0    0 -0.19546598866E+02 -0.41706775838E+01  0.49064728547E+03  0.49105419540E+03  0.00000000000E+00 0. -1.
         11    1    1    2    0    0 -0.81931308695E+00 -0.72237003279E+01 -0.46861001890E+03  0.46866640901E+03  0.00000000000E+00 0. -1.
        -15    1    1    2    0    0  0.21770907482E+02  0.10831676542E+02 -0.26023153645E+02  0.35660340491E+02  0.17770000000E+01 0.  1.
         15    1    1    2    0    0 -0.14049955297E+01  0.56270136923E+00  0.39858870734E+01  0.46190551016E+01  0.17770000000E+01 0. -1.
</event>
<event>
 6    1  0.3365733E-003  0.5044540E+03  0.7546771E-02  0.9389898E-01
        -11   -1    0    0    0    0  0.00000000000E+00  0.00000000000E+00  0.50000000000E+03  0.50000000000E+03  0.00000000000E+00 0.  1.
         11   -1    0    0    0    0 -0.00000000000E+00 -0.00000000000E+00 -0.50000000000E+03  0.50000000000E+03  0.00000000000E+00 0.  1.
        -11    1    1    2    0    0  0.11724066112E+02 -0.58779808125E+01  0.49537246877E+03  0.49554604952E+03  0.00000000000E+00 0.  1.
         11    1    1    2    0    0 -0.17550198612E+01  0.63920749698E+01 -0.23922424081E+03  0.23931605902E+03  0.00000000000E+00 0.  1.
        -15    1    1    2    0    0 -0.55730052378E+01 -0.27563705946E+02 -0.51935952730E+02  0.59087369106E+02  0.17770000000E+01 0.  1.
         15    1    1    2    0    0 -0.43960410127E+01  0.27049611789E+02 -0.20421227523E+03  0.20605052235E+03  0.17770000000E+01 0. -1.
</event>
<event>
 6    1  0.3365733E-003  0.5415317E+03  0.7546771E-02  0.9311393E-01
        -11   -1    0    0    0    0  0.00000000000E+00  0.00000000000E+00  0.50000000000E+03  0.50000000000E+03  0.00000000000E+00 0. -1.
         11   -1    0    0    0    0 -0.00000000000E+00 -0.00000000000E+00 -0.50000000000E+03  0.50000000000E+03  0.00000000000E+00 0.  1.
        -11    1    1    2    0    0 -0.32458071828E+02 -0.87988219828E+02  0.44877358472E+03  0.45846830163E+03  0.00000000000E+00 0. -1.
         11    1    1    2    0    0  0.25555639910E+02  0.50519959525E+02 -0.36932232194E+03  0.37363663434E+03  0.00000000000E+00 0.  1.
        -15    1    1    2    0    0 -0.51665594475E+02 -0.16963812734E+02 -0.68024019800E+02  0.87106426822E+02  0.17770000000E+01 0. -1.
         15    1    1    2    0    0  0.58568026394E+02  0.54432073037E+02 -0.11427242985E+02  0.80788637208E+02  0.17770000000E+01 0.  1.
</event>
<event>
 6    1  0.3365733E-003  0.5013386E+03  0.7546771E-02  0.9396819E-01
        -11   -1    0    0    0    0  0.00000000000E+00  0.00000000000E+00  0.50000000000E+03  0.50000000000E+03  0.00000000000E+00 0. -1.
         11   -1    0    0    0    0 -0.00000000000E+00 -0.00000000000E+00 -0.50000000000E+03  0.50000000000E+03  0.00000000000E+00 0.  1.
        -11    1    1    2    0    0  0.30143471966E+01 -0.12861565258E+02  0.49848636515E+03  0.49866137046E+03  0.00000000000E+00 0. -1.
         11    1    1    2    0    0  0.48499544937E+01  0.16898595727E+02 -0.12088690238E+03  0.12215861723E+03  0.00000000000E+00 0.  1.
        -15    1    1    2    0    0  0.11738106387E+02  0.38916006136E+01 -0.10142876766E+03  0.10219530486E+03  0.17770000000E+01 0.  1.
         15    1    1    2    0    0 -0.19602408077E+02 -0.79286310829E+01 -0.27617069511E+03  0.27698470745E+03  0.17770000000E+01 0. -1.
</event>
<event>
 6    1  0.3365733E-003  0.5058339E+03  0.7546771E-02  0.9386850E-01
        -11   -1    0    0    0    0  0.00000000000E+00  0.00000000000E+00  0.50000000000E+03  0.50000000000E+03  0.00000000000E+00 0.  1.
         11   -1    0    0    0    0 -0.00000000000E+00 -0.00000000000E+00 -0.50000000000E+03  0.50000000000E+03  0.00000000000E+00 0. -1.
        -11    1    1    2    0    0 -0.14511558048E+02  0.52588105737E+01  0.49392502275E+03  0.49416613452E+03  0.00000000000E+00 0.  1.
         11    1    1    2    0    0 -0.12918871913E+01 -0.91222072502E+01 -0.40364526324E+03  0.40375039588E+03  0.00000000000E+00 0. -1.
        -15    1    1    2    0    0  0.30257886111E+02 -0.29440272738E+01 -0.47938607699E+02  0.56793263735E+02  0.17770000000E+01 0. -1.
         15    1    1    2    0    0 -0.14454440871E+02  0.68074239503E+01 -0.42341151814E+02  0.45290205869E+02  0.17770000000E+01 0.  1.
</event>
<event>
 6    1  0.3365733E-003  0.5001376E+03  0.7546771E-02  0.9399502E-01
        -11   -1    0    0    0    0  0.00000000000E+00  0.00000000000E+00  0.50000000000E+03  0.50000000000E+03  0.00000000000E+00 0.  1.
         11   -1    0    0    0    0 -0.00000000000E+00 -0.00000000000E+00 -0.50000000000E+03  0.50000000000E+03  0.00000000000E+00 0.  1.
        -11    1    1    2    0    0 -0.85027012247E+01 -0.38544895651E-01  0.49979003006E+03  0.49986235262E+03  0.00000000000E+00 0.  1.
         11    1    1    2    0    0  0.14929513197E+01 -0.25961173842E+01 -0.19983071089E+03  0.19985315045E+03  0.00000000000E+00 0.  1.
        -15    1    1    2    0    0  0.45124104800E+01  0.21456159868E+01 -0.28260846178E+03  0.28265821396E+03  0.17770000000E+01 0.  1.
         15    1    1    2    0    0  0.24973394251E+01  0.48904629304E+00 -0.17350857386E+02  0.17626282975E+02  0.17770000000E+01 0. -1.
</event>
<event>
 6    1  0.3365733E-003  0.5280743E+03  0.7546771E-02  0.9339094E-01
        -11   -1    0    0    0    0  0.00000000000E+00  0.00000000000E+00  0.50000000000E+03  0.50000000000E+03  0.00000000000E+00 0.  1.
         11   -1    0    0    0    0 -0.00000000000E+00 -0.00000000000E+00 -0.50000000000E+03  0.50000000000E+03  0.00000000000E+00 0. -1.
        -11    1    1    2    0    0 -0.16909496263E+02  0.23494598335E+02  0.47103709041E+03  0.47192570152E+03  0.00000000000E+00 0.  1.
         11    1    1    2    0    0  0.57768948647E+01  0.15202931352E+01 -0.40191414753E+03  0.40195853740E+03  0.00000000000E+00 0. -1.
        -15    1    1    2    0    0  0.22019298169E+02 -0.47651181441E+02  0.27952978350E-01  0.52522786436E+02  0.17770000000E+01 0.  1.
         15    1    1    2    0    0 -0.10886696770E+02  0.22636289971E+02 -0.69150895857E+02  0.73592974645E+02  0.17770000000E+01 0. -1.
</event>
<event>
 6    1  0.3365733E-003  0.5101071E+03  0.7546771E-02  0.9377474E-01
        -11   -1    0    0    0    0  0.00000000000E+00  0.00000000000E+00  0.50000000000E+03  0.50000000000E+03  0.00000000000E+00 0.  1.
         11   -1    0    0    0    0 -0.00000000000E+00 -0.00000000000E+00 -0.50000000000E+03  0.50000000000E+03  0.00000000000E+00 0.  1.
        -11    1    1    2    0    0 -0.23548142665E+02  0.10994494722E+02  0.31055214473E+03  0.31163765583E+03  0.00000000000E+00 0.  1.
         11    1    1    2    0    0  0.85588762375E+01 -0.78978526213E+01 -0.48975445801E+03  0.48989290623E+03  0.00000000000E+00 0.  1.
        -15    1    1    2    0    0 -0.12293639121E+02 -0.14788614835E+01  0.16865803612E+03  0.16912129219E+03  0.17770000000E+01 0.  1.
         15    1    1    2    0    0  0.27282905549E+02 -0.16177806171E+01  0.10544277160E+02  0.29348145754E+02  0.17770000000E+01 0. -1.
</event>
<event>
 6    1  0.3365733E-003  0.5064704E+03  0.7546771E-02  0.9385447E-01
        -11   -1    0    0    0    0  0.00000000000E+00  0.00000000000E+00  0.50000000000E+03  0.50000000000E+03  0.00000000000E+00 0. -1.
         11   -1    0    0    0    0 -0.00000000000E+00 -0.00000000000E+00 -0.50000000000E+03  0.50000000000E+03  0.00000000000E+00 0. -1.
        -11    1    1    2    0    0 -0.13907025177E+02  0.57385836266E+01  0.41938895910E+03  0.41965871337E+03  0.00000000000E+00 0. -1.
         11    1    1    2    0    0 -0.18904676248E+02 -0.82588447813E+01 -0.49309818654E+03  0.49352955015E+03  0.00000000000E+00 0. -1.
        -15    1    1    2    0    0  0.23964720062E+02  0.12298122671E+00  0.17238648313E+02  0.29574510252E+02  0.17770000000E+01 0.  1.
         15    1    1    2    0    0  0.88469813630E+01  0.23972799280E+01  0.56470579131E+02  0.57237226231E+02  0.17770000000E+01 0. -1.
</event>
<event>
 6    1  0.3365733E-003  0.5006217E+03  0.7546771E-02  0.9398420E-01
        -11   -1    0    0    0    0  0.00000000000E+00  0.00000000000E+00  0.50000000000E+03  0.50000000000E+03  0.00000000000E+00 0. -1.
         11   -1    0    0    0    0 -0.00000000000E+00 -0.00000000000E+00 -0.50000000000E+03  0.50000000000E+03  0.00000000000E+00 0.  1.
        -11    1    1    2    0    0  0.12125271466E+01  0.93871004131E+01  0.49928860066E+03  0.49937830812E+03  0.00000000000E+00 0. -1.
         11    1    1    2    0    0 -0.10201325386E+01 -0.62057839828E+01 -0.37721517353E+03  0.37726759676E+03  0.00000000000E+00 0.  1.
        -15    1    1    2    0    0 -0.18327258056E+01  0.95029237935E+00 -0.11351522476E+03  0.11354790143E+03  0.17770000000E+01 0.  1.
         15    1    1    2    0    0  0.16403311975E+01 -0.41316088097E+01 -0.85582023703E+01  0.98061936859E+01  0.17770000000E+01 0. -1.
</event>
<event>
 6    1  0.3365733E-003  0.5347252E+03  0.7546771E-02  0.9325295E-01
        -11   -1    0    0    0    0  0.00000000000E+00  0.00000000000E+00  0.50000000000E+03  0.50000000000E+03  0.00000000000E+00 0. -1.
         11   -1    0    0    0    0 -0.00000000000E+00 -0.00000000000E+00 -0.50000000000E+03  0.50000000000E+03  0.00000000000E+00 0.  1.
        -11    1    1    2    0    0 -0.45988427695E+01  0.60057976423E+00  0.79543034611E+02  0.79678130036E+02  0.00000000000E+00 0. -1.
         11    1    1    2    0    0 -0.28368386572E+02  0.75972806331E+01 -0.46434702606E+03  0.46527480551E+03  0.00000000000E+00 0.  1.
        -15    1    1    2    0    0  0.56810343549E+01 -0.19868755388E+01 -0.34369020238E+02  0.34937216644E+02  0.17770000000E+01 0.  1.
         15    1    1    2    0    0  0.27286194986E+02 -0.62109848586E+01  0.41917301169E+03  0.42010984781E+03  0.17770000000E+01 0. -1.
</event>
<event>
 6    1  0.3365733E-003  0.5128364E+03  0.7546771E-02  0.9371537E-01
        -11   -1    0    0    0    0  0.00000000000E+00  0.00000000000E+00  0.50000000000E+03  0.50000000000E+03  0.00000000000E+00 0. -1.
         11   -1    0    0    0    0 -0.00000000000E+00 -0.00000000000E+00 -0.50000000000E+03  0.50000000000E+03  0.00000000000E+00 0.  1.
        -11    1    1    2    0    0  0.13127401582E+02  0.41562559395E+01  0.24701127294E+03  0.24739476974E+03  0.00000000000E+00 0. -1.
         11    1    1    2    0    0 -0.43774691262E+01 -0.23660038026E+02 -0.48656900847E+03  0.48716358612E+03  0.00000000000E+00 0.  1.
        -15    1    1    2    0    0 -0.90704681390E+01 -0.48738640055E+01  0.24074188792E+03  0.24096855038E+03  0.17770000000E+01 0. -1.
         15    1    1    2    0    0  0.32053568297E+00  0.24377646092E+02 -0.11841523916E+01  0.24473093756E+02  0.17770000000E+01 0.  1.
</event>
<event>
 6    1  0.3365733E-003  0.5007367E+03  0.7546771E-02  0.9398163E-01
        -11   -1    0    0    0    0  0.00000000000E+00  0.00000000000E+00  0.50000000000E+03  0.50000000000E+03  0.00000000000E+00 0. -1.
         11   -1    0    0    0    0 -0.00000000000E+00 -0.00000000000E+00 -0.50000000000E+03  0.50000000000E+03  0.00000000000E+00 0. -1.
        -11    1    1    2    0    0  0.99686487728E+00  0.55636101230E+01  0.39462433639E+03  0.39466481269E+03  0.00000000000E+00 0. -1.
         11    1    1    2    0    0  0.65589150702E+01 -0.54417850847E+01 -0.49919056807E+03  0.49926331294E+03  0.00000000000E+00 0. -1.
        -15    1    1    2    0    0 -0.81994373505E+01 -0.57012752293E+01  0.41116133543E+02  0.42348901740E+02  0.17770000000E+01 0.  1.
         15    1    1    2    0    0  0.64365740304E+00  0.55794501910E+01  0.63450098136E+02  0.63722972637E+02  0.17770000000E+01 0. -1.
</event>
<event>
 6    1  0.4118693E-003  0.5341452E+03  0.7546771E-02  0.9326490E-01
        -11   -1    0    0    0    0  0.00000000000E+00  0.00000000000E+00  0.50000000000E+03  0.50000000000E+03  0.00000000000E+00 0.  1.
         11   -1    0    0    0    0 -0.00000000000E+00 -0.00000000000E+00 -0.50000000000E+03  0.50000000000E+03  0.00000000000E+00 0. -1.
        -11    1    1    2    0    0 -0.77202083958E+01  0.82948969479E+00  0.46579004036E+03  0.46585475351E+03  0.00000000000E+00 0.  1.
         11    1    1    2    0    0  0.62275914306E+01  0.24334270998E+01 -0.45579942698E+03  0.45584846396E+03  0.00000000000E+00 0. -1.
        -15    1    1    2    0    0 -0.82312712423E+00 -0.25268621399E+01 -0.44019282090E+02  0.44135218310E+02  0.17770000000E+01 0.  1.
         15    1    1    2    0    0  0.23157440894E+01 -0.73605465469E+00  0.34028668704E+02  0.34161564220E+02  0.17770000000E+01 0. -1.
</event>
<event>
 6    1  0.3365733E-003  0.5237048E+03  0.7546771E-02  0.9348277E-01
        -11   -1    0    0    0    0  0.00000000000E+00  0.00000000000E+00  0.50000000000E+03  0.50000000000E+03  0.00000000000E+00 0.  1.
         11   -1    0    0    0    0 -0.00000000000E+00 -0.00000000000E+00 -0.50000000000E+03  0.50000000000E+03  0.00000000000E+00 0.  1.
        -11    1    1    2    0    0 -0.57984533754E+00 -0.81605119753E+01  0.39313335598E+03  0.39321847078E+03  0.00000000000E+00 0.  1.
         11    1    1    2    0    0 -0.14634779035E+02  0.12315660686E+02 -0.47591100076E+03  0.47629521612E+03  0.00000000000E+00 0.  1.
        -15    1    1    2    0    0  0.50458410155E+02 -0.26892902049E+01  0.12886006828E+02  0.52177488807E+02  0.17770000000E+01 0. -1.
         15    1    1    2    0    0 -0.35243785783E+02 -0.14658585055E+01  0.69891637953E+02  0.78308824294E+02  0.17770000000E+01 0.  1.
</event>
<event>
 6    1  0.3365733E-003  0.5040217E+03  0.7546771E-02  0.9390856E-01
        -11   -1    0    0    0    0  0.00000000000E+00  0.00000000000E+00  0.50000000000E+03  0.50000000000E+03  0.00000000000E+00 0.  1.
         11   -1    0    0    0    0 -0.00000000000E+00 -0.00000000000E+00 -0.50000000000E+03  0.50000000000E+03  0.00000000000E+00 0.  1.
        -11    1    1    2    0    0 -0.14776492226E+02 -0.22606108660E+01  0.49575300969E+03  0.49597832786E+03  0.00000000000E+00 0.  1.
         11    1    1    2    0    0  0.36553875391E+01 -0.57256268727E+01 -0.26512623190E+03  0.26521324156E+03  0.00000000000E+00 0.  1.
        -15    1    1    2    0    0  0.12242163669E+02  0.27801609664E+01 -0.58533972594E+01  0.13964950941E+02  0.17770000000E+01 0. -1.
         15    1    1    2    0    0 -0.11210589827E+01  0.52060767723E+01 -0.22477338054E+03  0.22484347964E+03  0.17770000000E+01 0.  1.
</event>
<event>
 6    1  0.3365733E-003  0.5011813E+03  0.7546771E-02  0.9397170E-01
        -11   -1    0    0    0    0  0.00000000000E+00  0.00000000000E+00  0.50000000000E+03  0.50000000000E+03  0.00000000000E+00 0.  1.
         11   -1    0    0    0    0 -0.00000000000E+00 -0.00000000000E+00 -0.50000000000E+03  0.50000000000E+03  0.00000000000E+00 0.  1.
        -11    1    1    2    0    0 -0.97920922857E+00  0.15565167393E+01  0.37818704745E+02  0.37863386320E+02  0.00000000000E+00 0.  1.
         11    1    1    2    0    0 -0.26301745791E+01  0.68015719208E+01 -0.49876537243E+03  0.49881868041E+03  0.00000000000E+00 0.  1.
        -15    1    1    2    0    0  0.71206759216E+01 -0.20536880995E+00  0.44436781053E+03  0.44442845877E+03  0.17770000000E+01 0.  1.
         15    1    1    2    0    0 -0.35112921140E+01 -0.81527198502E+01  0.16578857150E+02  0.18889474494E+02  0.17770000000E+01 0. -1.
</event>
<event>
 6    1  0.3365733E-003  0.5060203E+03  0.7546771E-02  0.9386439E-01
        -11   -1    0    0    0    0  0.00000000000E+00  0.00000000000E+00  0.50000000000E+03  0.50000000000E+03  0.00000000000E+00 0.  1.
         11   -1    0    0    0    0 -0.00000000000E+00 -0.00000000000E+00 -0.50000000000E+03  0.50000000000E+03  0.00000000000E+00 0.  1.
        -11    1    1    2    0    0 -0.19222954037E+02 -0.29731762858E+02  0.49270932768E+03  0.49397973771E+03  0.00000000000E+00 0.  1.
         11    1    1    2    0    0  0.18961613246E+01  0.45246108820E+01 -0.33790816794E+03  0.33794377859E+03  0.00000000000E+00 0.  1.
        -15    1    1    2    0    0 -0.14386822217E+01 -0.26863127337E+01 -0.11855701166E+03  0.11860948034E+03  0.17770000000E+01 0. -1.
         15    1    1    2    0    0  0.18765474934E+02  0.27893464710E+02 -0.36244148078E+02  0.49467003365E+02  0.17770000000E+01 0. -1.
</event>
<event>
 6    1  0.3365733E-003  0.5130851E+03  0.7546771E-02  0.9370997E-01
        -11   -1    0    0    0    0  0.00000000000E+00  0.00000000000E+00  0.50000000000E+03  0.50000000000E+03  0.00000000000E+00 0. -1.
         11   -1    0    0    0    0 -0.00000000000E+00 -0.00000000000E+00 -0.50000000000E+03  0.50000000000E+03  0.00000000000E+00 0. -1.
        -11    1    1    2    0    0 -0.11094523575E+02  0.11177113695E+02  0.48666010435E+03  0.48691485240E+03  0.00000000000E+00 0. -1.
         11    1    1    2    0    0  0.15665112637E+02 -0.64899256144E+00 -0.33080863950E+03  0.33117997058E+03  0.00000000000E+00 0. -1.
        -15    1    1    2    0    0 -0.12372965710E+02 -0.99783624258E+00 -0.16561425931E+03  0.16608830956E+03  0.17770000000E+01 0. -1.
         15    1    1    2    0    0  0.78023766482E+01 -0.95302848908E+01  0.97627944630E+01  0.15816867458E+02  0.17770000000E+01 0.  1.
</event>
<event>
 6    1  0.3365733E-003  0.5254325E+03  0.7546771E-02  0.9344634E-01
        -11   -1    0    0    0    0  0.00000000000E+00  0.00000000000E+00  0.50000000000E+03  0.50000000000E+03  0.00000000000E+00 0.  1.
         11   -1    0    0    0    0 -0.00000000000E+00 -0.00000000000E+00 -0.50000000000E+03  0.50000000000E+03  0.00000000000E+00 0. -1.
        -11    1    1    2    0    0 -0.16652330454E+02  0.29386897374E+01  0.47426615846E+03  0.47456751371E+03  0.00000000000E+00 0.  1.
         11    1    1    2    0    0 -0.52007420646E+01 -0.64000457362E+01 -0.45812043120E+03  0.45819465054E+03  0.00000000000E+00 0. -1.
        -15    1    1    2    0    0  0.18048038987E+02  0.94812866082E+01  0.21030505636E+02  0.29343932990E+02  0.17770000000E+01 0.  1.
         15    1    1    2    0    0  0.38050335315E+01 -0.60199306095E+01 -0.37176232899E+02  0.37893902759E+02  0.17770000000E+01 0. -1.
</event>
<event>
 6    1  0.3365733E-003  0.5141776E+03  0.7546771E-02  0.9368633E-01
        -11   -1    0    0    0    0  0.00000000000E+00  0.00000000000E+00  0.50000000000E+03  0.50000000000E+03  0.00000000000E+00 0. -1.
         11   -1    0    0    0    0 -0.00000000000E+00 -0.00000000000E+00 -0.50000000000E+03  0.50000000000E+03  0.00000000000E+00 0.  1.
        -11    1    1    2    0    0 -0.12525178436E+02  0.26753306104E+02  0.21789884566E+03  0.21989207903E+03  0.00000000000E+00 0. -1.
         11    1    1    2    0    0  0.10581995166E+02  0.16559733028E+02 -0.48542472590E+03  0.48582236249E+03  0.00000000000E+00 0.  1.
        -15    1    1    2    0    0 -0.28710904195E+02 -0.58879510260E+02  0.24385600430E+03  0.25250746783E+03  0.17770000000E+01 0. -1.
         15    1    1    2    0    0  0.30654087465E+02  0.15566471128E+02  0.23669875945E+02  0.41778090645E+02  0.17770000000E+01 0.  1.
</event>
<event>
 6    1  0.3365733E-003  0.5002997E+03  0.7546771E-02  0.9399139E-01
        -11   -1    0    0    0    0  0.00000000000E+00  0.00000000000E+00  0.50000000000E+03  0.50000000000E+03  0.00000000000E+00 0. -1.
         11   -1    0    0    0    0 -0.00000000000E+00 -0.00000000000E+00 -0.50000000000E+03  0.50000000000E+03  0.00000000000E+00 0.  1.
        -11    1    1    2    0    0  0.48814413850E+00  0.48597484141E+00  0.32886178657E+02  0.32893391477E+02  0.00000000000E+00 0. -1.
         11    1    1    2    0    0  0.31360050309E+01 -0.13011404987E+02 -0.49952102354E+03  0.49970029432E+03  0.00000000000E+00 0.  1.
        -15    1    1    2    0    0 -0.13927488854E+01 -0.55845935426E+01  0.48938970630E+02  0.49308295548E+02  0.17770000000E+01 0.  1.
         15    1    1    2    0    0 -0.22314002841E+01  0.18110023688E+02  0.41769587425E+03  0.41809801865E+03  0.17770000000E+01 0. -1.
</event>
<event>
 6    1  0.3365733E-003  0.5057005E+03  0.7546771E-02  0.9387144E-01
        -11   -1    0    0    0    0  0.00000000000E+00  0.00000000000E+00  0.50000000000E+03  0.50000000000E+03  0.00000000000E+00 0.  1.
         11   -1    0    0    0    0 -0.00000000000E+00 -0.00000000000E+00 -0.50000000000E+03  0.50000000000E+03  0.00000000000E+00 0.  1.
        -11    1    1    2    0    0 -0.11659658186E+02  0.17304620104E+01  0.49415892561E+03  0.49429949007E+03  0.00000000000E+00 0.  1.
         11    1    1    2    0    0  0.62829751274E+01 -0.48682335537E+01 -0.48517105829E+03  0.48523616032E+03  0.00000000000E+00 0.  1.
        -15    1    1    2    0    0  0.37397093330E+01  0.65542396259E-01 -0.13717422821E+02  0.14328821987E+02  0.17770000000E+01 0. -1.
         15    1    1    2    0    0  0.16369737252E+01  0.30722291470E+01  0.47295555087E+01  0.61355276235E+01  0.17770000000E+01 0.  1.
</event>
<event>
 6    1  0.3365733E-003  0.5525800E+03  0.7546771E-02  0.9289281E-01
        -11   -1    0    0    0    0  0.00000000000E+00  0.00000000000E+00  0.50000000000E+03  0.50000000000E+03  0.00000000000E+00 0.  1.
         11   -1    0    0    0    0 -0.00000000000E+00 -0.00000000000E+00 -0.50000000000E+03  0.50000000000E+03  0.00000000000E+00 0.  1.
        -11    1    1    2    0    0 -0.44537836892E+01 -0.11401081112E+01  0.17618757372E+03  0.17624754515E+03  0.00000000000E+00 0.  1.
         11    1    1    2    0    0 -0.33133325170E+02 -0.27766349376E+02 -0.44532669162E+03  0.44741999247E+03  0.00000000000E+00 0.  1.
        -15    1    1    2    0    0 -0.83976475245E+00  0.62807464921E+02  0.30650968611E+03  0.31288468844E+03  0.17770000000E+01 0.  1.
         15    1    1    2    0    0  0.38426873612E+02 -0.33901007434E+02 -0.37370568210E+02  0.63447773940E+02  0.17770000000E+01 0. -1.
</event>
<event>
 6    1  0.3365733E-003  0.5095016E+03  0.7546771E-02  0.9378797E-01
        -11   -1    0    0    0    0  0.00000000000E+00  0.00000000000E+00  0.50000000000E+03  0.50000000000E+03  0.00000000000E+00 0.  1.
         11   -1    0    0    0    0 -0.00000000000E+00 -0.00000000000E+00 -0.50000000000E+03  0.50000000000E+03  0.00000000000E+00 0.  1.
        -11    1    1    2    0    0 -0.69949819082E+01 -0.81830416936E+01  0.49038028920E+03  0.49049844035E+03  0.00000000000E+00 0.  1.
         11    1    1    2    0    0 -0.36804996162E+01 -0.10836791608E+02 -0.43225484732E+03  0.43240633108E+03  0.00000000000E+00 0.  1.
        -15    1    1    2    0    0  0.11464973752E+01  0.15341559761E+02 -0.63539125971E+02  0.65399206190E+02  0.17770000000E+01 0.  1.
         15    1    1    2    0    0  0.95289841493E+01  0.36782735407E+01  0.54136840877E+01  0.11696022382E+02  0.17770000000E+01 0. -1.
</event>
<event>
 6    1  0.3365733E-003  0.5007075E+03  0.7546771E-02  0.9398228E-01
        -11   -1    0    0    0    0  0.00000000000E+00  0.00000000000E+00  0.50000000000E+03  0.50000000000E+03  0.00000000000E+00 0. -1.
         11   -1    0    0    0    0 -0.00000000000E+00 -0.00000000000E+00 -0.50000000000E+03  0.50000000000E+03  0.00000000000E+00 0. -1.
        -11    1    1    2    0    0 -0.39223382002E+00  0.57840146379E+01  0.31065375663E+03  0.31070784538E+03  0.00000000000E+00 0. -1.
         11    1    1    2    0    0 -0.10223335398E+02 -0.16558077644E+01 -0.49918510449E+03  0.49929252631E+03  0.00000000000E+00 0. -1.
        -15    1    1    2    0    0  0.79986013261E+01 -0.76081018296E+01  0.44220753938E+02  0.45612428619E+02  0.17770000000E+01 0.  1.
         15    1    1    2    0    0  0.26169678923E+01  0.34798949561E+01  0.14431059391E+03  0.14438719969E+03  0.17770000000E+01 0. -1.
</event>
<event>
 6    1  0.3365733E-003  0.4626670E+03  0.7546771E-02  0.9487452E-01
        -11   -1    0    0    0    0  0.00000000000E+00  0.00000000000E+00  0.50000000000E+03  0.50000000000E+03  0.00000000000E+00 0.  1.
         11   -1    0    0    0    0 -0.00000000000E+00 -0.00000000000E+00 -0.50000000000E+03  0.50000000000E+03  0.00000000000E+00 0.  1.
        -11    1    1    2    0    0 -0.50760144547E+01  0.87643500443E+01  0.45411413602E+03  0.45422706688E+03  0.00000000000E+00 0.  1.
         11    1    1    2    0    0 -0.15989025858E+02  0.21031834392E+02 -0.47124461571E+03  0.47198461292E+03  0.00000000000E+00 0.  1.
        -15    1    1    2    0    0  0.22953151804E+02 -0.17445652322E+02 -0.19628605859E+02  0.34923313985E+02  0.17770000000E+01 0.  1.
         15    1    1    2    0    0 -0.18881114918E+01 -0.12350532114E+02  0.36759085548E+02  0.38865006211E+02  0.17770000000E+01 0. -1.
</event>
<event>
 6    1  0.3365733E-003  0.4935049E+03  0.7546771E-02  0.9414461E-01
        -11   -1    0    0    0    0  0.00000000000E+00  0.00000000000E+00  0.50000000000E+03  0.50000000000E+03  0.00000000000E+00 0. -1.
         11   -1    0    0    0    0 -0.00000000000E+00 -0.00000000000E+00 -0.50000000000E+03  0.50000000000E+03  0.00000000000E+00 0. -1.
        -11    1    1    2    0    0  0.87892172248E+01  0.51359589606E+00  0.49234088568E+03  0.49241959936E+03  0.00000000000E+00 0. -1.
         11    1    1    2    0    0 -0.40523508956E+01 -0.53083583991E+01 -0.49457067333E+03  0.49461576111E+03  0.00000000000E+00 0. -1.
        -15    1    1    2    0    0 -0.41877267419E+01 -0.65123707171E+00 -0.27490156113E+01  0.53549958748E+01  0.17770000000E+01 0. -1.
         15    1    1    2    0    0 -0.54913958732E+00  0.54459995748E+01  0.49788032666E+01  0.76096436593E+01  0.17770000000E+01 0.  1.
</event>
<event>
 6    1  0.3365733E-003  0.5013185E+03  0.7546771E-02  0.9396864E-01
        -11   -1    0    0    0    0  0.00000000000E+00  0.00000000000E+00  0.50000000000E+03  0.50000000000E+03  0.00000000000E+00 0.  1.
         11   -1    0    0    0    0 -0.00000000000E+00 -0.00000000000E+00 -0.50000000000E+03  0.50000000000E+03  0.00000000000E+00 0.  1.
        -11    1    1    2    0    0 -0.66234464154E+01  0.92316586669E+01  0.27372125282E+03  0.27395696342E+03  0.00000000000E+00 0.  1.
         11    1    1    2    0    0 -0.23688633914E+01  0.94008421149E+01 -0.49858729280E+03  0.49868153754E+03  0.00000000000E+00 0.  1.
        -15    1    1    2    0    0  0.14737935602E+02 -0.16135877827E+02  0.10233045811E+03  0.10465301565E+03  0.17770000000E+01 0. -1.
         15    1    1    2    0    0 -0.57456257955E+01 -0.24966229550E+01  0.12253558187E+03  0.12270848339E+03  0.17770000000E+01 0.  1.
</event>
<event>
 6    1  0.3365733E-003  0.5140644E+03  0.7546771E-02  0.9368878E-01
        -11   -1    0    0    0    0  0.00000000000E+00  0.00000000000E+00  0.50000000000E+03  0.50000000000E+03  0.00000000000E+00 0.  1.
         11   -1    0    0    0    0 -0.00000000000E+00 -0.00000000000E+00 -0.50000000000E+03  0.50000000000E+03  0.00000000000E+00 0.  1.
        -11    1    1    2    0    0 -0.14276391585E+02  0.49562334691E+01  0.42757086694E+03  0.42783784996E+03  0.00000000000E+00 0.  1.
         11    1    1    2    0    0 -0.80522571576E+01 -0.36718192445E+01 -0.48585499608E+03  0.48593559071E+03  0.00000000000E+00 0.  1.
        -15    1    1    2    0    0  0.25672015710E+02 -0.36022095730E-01  0.69612755619E+02  0.74216892700E+02  0.17770000000E+01 0. -1.
         15    1    1    2    0    0 -0.33433669666E+01 -0.12483921289E+01 -0.11328626477E+02  0.12009666625E+02  0.17770000000E+01 0.  1.
</event>
<event>
 6    1  0.3365733E-003  0.5029232E+03  0.7546771E-02  0.9393292E-01
        -11   -1    0    0    0    0  0.00000000000E+00  0.00000000000E+00  0.50000000000E+03  0.50000000000E+03  0.00000000000E+00 0. -1.
         11   -1    0    0    0    0 -0.00000000000E+00 -0.00000000000E+00 -0.50000000000E+03  0.50000000000E+03  0.00000000000E+00 0.  1.
        -11    1    1    2    0    0  0.84676851829E+00  0.45683936818E+01  0.36863285444E+02  0.37154933071E+02  0.00000000000E+00 0. -1.
         11    1    1    2    0    0  0.16619319098E+02  0.64957278963E+01 -0.49675642970E+03  0.49707680161E+03  0.00000000000E+00 0.  1.
        -15    1    1    2    0    0 -0.18475313318E+02  0.40251382700E+01  0.29368046378E+02  0.34973973428E+02  0.17770000000E+01 0.  1.
         15    1    1    2    0    0  0.10092257018E+01 -0.15089259848E+02  0.43052509788E+03  0.43079429190E+03  0.17770000000E+01 0. -1.
</event>
<event>
 6    1  0.3365733E-003  0.4832889E+03  0.7546771E-02  0.9437999E-01
        -11   -1    0    0    0    0  0.00000000000E+00  0.00000000000E+00  0.50000000000E+03  0.50000000000E+03  0.00000000000E+00 0. -1.
         11   -1    0    0    0    0 -0.00000000000E+00 -0.00000000000E+00 -0.50000000000E+03  0.50000000000E+03  0.00000000000E+00 0. -1.
        -11    1    1    2    0    0 -0.20221626147E+01 -0.73259705023E+00  0.11754304461E+02  0.11949456616E+02  0.00000000000E+00 0. -1.
         11    1    1    2    0    0 -0.19114244458E+02  0.26251705230E+01 -0.48792325534E+03  0.48830456578E+03  0.00000000000E+00 0. -1.
        -15    1    1    2    0    0 -0.72877634190E+00  0.21073330397E+02 -0.13201488724E+01  0.21201813390E+02  0.17770000000E+01 0.  1.
         15    1    1    2    0    0  0.21865183414E+02 -0.22965903870E+02  0.47748909975E+03  0.47854416421E+03  0.17770000000E+01 0. -1.
</event>
<event>
 6    1  0.3365733E-003  0.5051062E+03  0.7546771E-02  0.9388456E-01
        -11   -1    0    0    0    0  0.00000000000E+00  0.00000000000E+00  0.50000000000E+03  0.50000000000E+03  0.00000000000E+00 0. -1.
         11   -1    0    0    0    0 -0.00000000000E+00 -0.00000000000E+00 -0.50000000000E+03  0.50000000000E+03  0.00000000000E+00 0.  1.
        -11    1    1    2    0    0  0.30726304605E+01  0.73158078548E+01  0.43439580577E+03  0.43446827061E+03  0.00000000000E+00 0. -1.
         11    1    1    2    0    0  0.25280008996E+01  0.91801697281E+01 -0.49480214031E+03  0.49489375058E+03  0.00000000000E+00 0.  1.
        -15    1    1    2    0    0 -0.78077950261E+01  0.65405848280E+01  0.72280488032E+01  0.12615202399E+02  0.17770000000E+01 0.  1.
         15    1    1    2    0    0  0.22071636661E+01 -0.23036562411E+02  0.53178285739E+02  0.58022776410E+02  0.17770000000E+01 0. -1.
</event>
<event>
 6    1  0.3365733E-003  0.5050203E+03  0.7546771E-02  0.9388646E-01
        -11   -1    0    0    0    0  0.00000000000E+00  0.00000000000E+00  0.50000000000E+03  0.50000000000E+03  0.00000000000E+00 0. -1.
         11   -1    0    0    0    0 -0.00000000000E+00 -0.00000000000E+00 -0.50000000000E+03  0.50000000000E+03  0.00000000000E+00 0.  1.
        -11    1    1    2    0    0  0.55833771334E+01  0.48740286399E+01  0.34320754584E+03  0.34328756135E+03  0.00000000000E+00 0. -1.
         11    1    1    2    0    0  0.16899018703E+02 -0.74344351883E+01 -0.49463530927E+03  0.49497973376E+03  0.00000000000E+00 0.  1.
        -15    1    1    2    0    0 -0.13178898752E+02  0.16717018135E+02  0.20185277383E+02  0.29389542692E+02  0.17770000000E+01 0.  1.
         15    1    1    2    0    0 -0.93034970836E+01 -0.14156611586E+02  0.13124248604E+03  0.13234316220E+03  0.17770000000E+01 0. -1.
</event>
<event>
 6    1  0.3365733E-003  0.5213990E+03  0.7546771E-02  0.9353161E-01
        -11   -1    0    0    0    0  0.00000000000E+00  0.00000000000E+00  0.50000000000E+03  0.50000000000E+03  0.00000000000E+00 0. -1.
         11   -1    0    0    0    0 -0.00000000000E+00 -0.00000000000E+00 -0.50000000000E+03  0.50000000000E+03  0.00000000000E+00 0.  1.
        -11    1    1    2    0    0 -0.13109290231E+02 -0.77157392428E+01  0.42229129902E+03  0.42256517527E+03  0.00000000000E+00 0. -1.
         11    1    1    2    0    0 -0.27904819332E+02 -0.89893975531E+01 -0.47770220730E+03  0.47860096852E+03  0.00000000000E+00 0.  1.
        -15    1    1    2    0    0  0.95146073122E+01 -0.26498107069E+02  0.21833586395E+02  0.35672687794E+02  0.17770000000E+01 0.  1.
         15    1    1    2    0    0  0.31499502250E+02  0.43203243865E+02  0.33577321886E+02  0.63161168423E+02  0.17770000000E+01 0. -1.
</event>
<event>
 6    1  0.3365733E-003  0.5082265E+03  0.7546771E-02  0.9381588E-01
        -11   -1    0    0    0    0  0.00000000000E+00  0.00000000000E+00  0.50000000000E+03  0.50000000000E+03  0.00000000000E+00 0.  1.
         11   -1    0    0    0    0 -0.00000000000E+00 -0.00000000000E+00 -0.50000000000E+03  0.50000000000E+03  0.00000000000E+00 0. -1.
        -11    1    1    2    0    0  0.66890258090E+01  0.12548944450E+01  0.49172637917E+03  0.49177347407E+03  0.00000000000E+00 0.  1.
         11    1    1    2    0    0 -0.94666702940E+01 -0.12795912387E+02 -0.43933770200E+03  0.43962594284E+03  0.00000000000E+00 0. -1.
        -15    1    1    2    0    0 -0.23889174800E+01 -0.44312994318E+01  0.58764046995E+01  0.79393452231E+01  0.17770000000E+01 0. -1.
         15    1    1    2    0    0  0.51665619650E+01  0.15972317374E+02 -0.58265081870E+02  0.60661237863E+02  0.17770000000E+01 0.  1.
</event>
<event>
 6    1  0.3365733E-003  0.5048737E+03  0.7546771E-02  0.9388970E-01
        -11   -1    0    0    0    0  0.00000000000E+00  0.00000000000E+00  0.50000000000E+03  0.50000000000E+03  0.00000000000E+00 0. -1.
         11   -1    0    0    0    0 -0.00000000000E+00 -0.00000000000E+00 -0.50000000000E+03  0.50000000000E+03  0.00000000000E+00 0. -1.
        -11    1    1    2    0    0 -0.99038961514E+01  0.34744682305E+01  0.49501508920E+03  0.49512634511E+03  0.00000000000E+00 0. -1.
         11    1    1    2    0    0 -0.16844903936E+01  0.99726994955E+01 -0.43709469306E+03  0.43721169123E+03  0.00000000000E+00 0. -1.
        -15    1    1    2    0    0  0.45469248185E+01  0.91200179278E+01 -0.25333008713E+02  0.27363631187E+02  0.17770000000E+01 0.  1.
         15    1    1    2    0    0  0.70414617264E+01 -0.22567185654E+02 -0.32587387426E+02  0.40298332469E+02  0.17770000000E+01 0. -1.
</event>
<event>
 6    1  0.3365733E-003  0.5012484E+03  0.7546771E-02  0.9397021E-01
        -11   -1    0    0    0    0  0.00000000000E+00  0.00000000000E+00  0.50000000000E+03  0.50000000000E+03  0.00000000000E+00 0.  1.
         11   -1    0    0    0    0 -0.00000000000E+00 -0.00000000000E+00 -0.50000000000E+03  0.50000000000E+03  0.00000000000E+00 0. -1.
        -11    1    1    2    0    0 -0.60087351627E+01  0.41256474165E+01  0.14930344387E+03  0.14948125038E+03  0.00000000000E+00 0.  1.
         11    1    1    2    0    0 -0.79350876431E+01 -0.22414921806E+02 -0.49818445802E+03  0.49875159003E+03  0.00000000000E+00 0. -1.
        -15    1    1    2    0    0  0.15584077967E+02  0.19283736337E+02  0.34817166224E+03  0.34905786066E+03  0.17770000000E+01 0. -1.
         15    1    1    2    0    0 -0.16402551610E+01 -0.99446194715E+00  0.70935191578E+00  0.27092989311E+01  0.17770000000E+01 0.  1.
</event>
<event>
 6    1  0.3365733E-003  0.5077627E+03  0.7546771E-02  0.9382606E-01
        -11   -1    0    0    0    0  0.00000000000E+00  0.00000000000E+00  0.50000000000E+03  0.50000000000E+03  0.00000000000E+00 0.  1.
         11   -1    0    0    0    0 -0.00000000000E+00 -0.00000000000E+00 -0.50000000000E+03  0.50000000000E+03  0.00000000000E+00 0. -1.
        -11    1    1    2    0    0 -0.16242748471E+02 -0.10780247892E+01  0.43328103651E+03  0.43358672214E+03  0.00000000000E+00 0.  1.
         11    1    1    2    0    0  0.18621963806E+02  0.57337006634E+01 -0.49185147324E+03  0.49223726452E+03  0.00000000000E+00 0. -1.
        -15    1    1    2    0    0 -0.17697070964E+02 -0.97679322322E+01  0.93472528145E+01  0.22341165703E+02  0.17770000000E+01 0. -1.
         15    1    1    2    0    0  0.15317855629E+02  0.51122563580E+01  0.49223183909E+02  0.51834847635E+02  0.17770000000E+01 0.  1.
</event>
<event>
 6    1  0.3365733E-003  0.5180761E+03  0.7546771E-02  0.9360247E-01
        -11   -1    0    0    0    0  0.00000000000E+00  0.00000000000E+00  0.50000000000E+03  0.50000000000E+03  0.00000000000E+00 0. -1.
         11   -1    0    0    0    0 -0.00000000000E+00 -0.00000000000E+00 -0.50000000000E+03  0.50000000000E+03  0.00000000000E+00 0.  1.
        -11    1    1    2    0    0  0.71718557692E+01 -0.52830741860E+01  0.45924274542E+03  0.45932912559E+03  0.00000000000E+00 0. -1.
         11    1    1    2    0    0  0.25085996865E+01  0.89126890517E+01 -0.48183496498E+03  0.48192391783E+03  0.00000000000E+00 0.  1.
        -15    1    1    2    0    0 -0.49946940208E+01 -0.52854409036E+01 -0.17120207996E+02  0.18685344651E+02  0.17770000000E+01 0.  1.
         15    1    1    2    0    0 -0.46857614349E+01  0.16558260379E+01  0.39712427549E+02  0.40061611936E+02  0.17770000000E+01 0. -1.
</event>
<event>
 6    1  0.3365733E-003  0.5047004E+03  0.7546771E-02  0.9389353E-01
        -11   -1    0    0    0    0  0.00000000000E+00  0.00000000000E+00  0.50000000000E+03  0.50000000000E+03  0.00000000000E+00 0. -1.
         11   -1    0    0    0    0 -0.00000000000E+00 -0.00000000000E+00 -0.50000000000E+03  0.50000000000E+03  0.00000000000E+00 0. -1.
        -11    1    1    2    0    0  0.14276715539E+02 -0.53687224496E+01  0.48398623812E+03  0.48422652393E+03  0.00000000000E+00 0. -1.
         11    1    1    2    0    0 -0.22452024022E+01  0.78114847353E+01 -0.49523290359E+03  0.49529959523E+03  0.00000000000E+00 0. -1.
        -15    1    1    2    0    0 -0.12484003755E+02 -0.11552648929E+01  0.12594163283E+02  0.17859329901E+02  0.17770000000E+01 0. -1.
         15    1    1    2    0    0  0.45249061805E+00 -0.12874973929E+01 -0.13474978084E+01  0.26145509441E+01  0.17770000000E+01 0.  1.
</event>
<event>
 6    1  0.3365733E-003  0.5036009E+03  0.7546771E-02  0.9391788E-01
        -11   -1    0    0    0    0  0.00000000000E+00  0.00000000000E+00  0.50000000000E+03  0.50000000000E+03  0.00000000000E+00 0.  1.
         11   -1    0    0    0    0 -0.00000000000E+00 -0.00000000000E+00 -0.50000000000E+03  0.50000000000E+03  0.00000000000E+00 0.  1.
        -11    1    1    2    0    0 -0.47328781760E+01  0.80227014181E+01  0.45766135694E+03  0.45775613760E+03  0.00000000000E+00 0.  1.
         11    1    1    2    0    0  0.64657279142E+00 -0.74931991065E+01 -0.49634207941E+03  0.49639905910E+03  0.00000000000E+00 0.  1.
        -15    1    1    2    0    0  0.64365857148E+01 -0.65413132146E+01  0.37979796285E+02  0.39113182804E+02  0.17770000000E+01 0. -1.
         15    1    1    2    0    0 -0.23502803303E+01  0.60118109029E+01  0.70092618088E+00  0.67316204940E+01  0.17770000000E+01 0.  1.
</event>
<event>
 6    1  0.3365733E-003  0.5011478E+03  0.7546771E-02  0.9397245E-01
        -11   -1    0    0    0    0  0.00000000000E+00  0.00000000000E+00  0.50000000000E+03  0.50000000000E+03  0.00000000000E+00 0.  1.
         11   -1    0    0    0    0 -0.00000000000E+00 -0.00000000000E+00 -0.50000000000E+03  0.50000000000E+03  0.00000000000E+00 0.  1.
        -11    1    1    2    0    0  0.48022151740E+01  0.15393321882E+02  0.18615551292E+03  0.18685259062E+03  0.00000000000E+00 0.  1.
         11    1    1    2    0    0 -0.13503475635E+02  0.43047893312E+00 -0.49866925564E+03  0.49885223833E+03  0.00000000000E+00 0.  1.
        -15    1    1    2    0    0  0.64368872763E+01 -0.19642554741E+02  0.30236814912E+03  0.30307906362E+03  0.17770000000E+01 0.  1.
         15    1    1    2    0    0  0.22643731844E+01  0.38187539251E+01  0.10145593594E+02  0.11216107428E+02  0.17770000000E+01 0. -1.
</event>
<event>
 6    1  0.3365733E-003  0.5009558E+03  0.7546771E-02  0.9397674E-01
        -11   -1    0    0    0    0  0.00000000000E+00  0.00000000000E+00  0.50000000000E+03  0.50000000000E+03  0.00000000000E+00 0.  1.
         11   -1    0    0    0    0 -0.00000000000E+00 -0.00000000000E+00 -0.50000000000E+03  0.50000000000E+03  0.00000000000E+00 0.  1.
        -11    1    1    2    0    0 -0.10576277887E+01  0.59242825067E+00  0.74672659806E+02  0.74682499090E+02  0.00000000000E+00 0.  1.
         11    1    1    2    0    0  0.43593781768E+01  0.18847867576E+02 -0.49866908409E+03  0.49904418814E+03  0.00000000000E+00 0.  1.
        -15    1    1    2    0    0  0.40610922517E+01 -0.46473532500E+01  0.36290090687E+03  0.36295773349E+03  0.17770000000E+01 0.  1.
         15    1    1    2    0    0 -0.73628426398E+01 -0.14792942577E+02  0.61095517414E+02  0.63315579274E+02  0.17770000000E+01 0. -1.
</event>
<event>
 6    1  0.3365733E-003  0.4700209E+03  0.7546771E-02  0.9469508E-01
        -11   -1    0    0    0    0  0.00000000000E+00  0.00000000000E+00  0.50000000000E+03  0.50000000000E+03  0.00000000000E+00 0. -1.
         11   -1    0    0    0    0 -0.00000000000E+00 -0.00000000000E+00 -0.50000000000E+03  0.50000000000E+03  0.00000000000E+00 0. -1.
        -11    1    1    2    0    0 -0.52594613997E+01 -0.48051736345E+01  0.47278697905E+03  0.47284064884E+03  0.00000000000E+00 0. -1.
         11    1    1    2    0    0 -0.76772634003E+01 -0.63244185067E+01 -0.46726647495E+03  0.46737233257E+03  0.00000000000E+00 0. -1.
        -15    1    1    2    0    0  0.18732260813E+02 -0.16692855464E+02  0.10336184290E+02  0.27194548230E+02  0.17770000000E+01 0.  1.
         15    1    1    2    0    0 -0.57955360131E+01  0.27822447605E+02 -0.15856688393E+02  0.32592470361E+02  0.17770000000E+01 0. -1.
</event>
<event>
 6    1  0.3365733E-003  0.5016572E+03  0.7546771E-02  0.9396109E-01
        -11   -1    0    0    0    0  0.00000000000E+00  0.00000000000E+00  0.50000000000E+03  0.50000000000E+03  0.00000000000E+00 0. -1.
         11   -1    0    0    0    0 -0.00000000000E+00 -0.00000000000E+00 -0.50000000000E+03  0.50000000000E+03  0.00000000000E+00 0.  1.
        -11    1    1    2    0    0  0.17115868671E+02  0.38477032093E+01  0.49803390962E+03  0.49834278656E+03  0.00000000000E+00 0. -1.
         11    1    1    2    0    0 -0.42425042488E+01 -0.54650920549E+01 -0.43658617384E+03  0.43664098898E+03  0.00000000000E+00 0.  1.
        -15    1    1    2    0    0 -0.19161146653E+01  0.25491260905E+01 -0.13459830181E+01  0.38908788879E+01  0.17770000000E+01 0.  1.
         15    1    1    2    0    0 -0.10957249757E+02 -0.93173724488E+00 -0.60101752766E+02  0.61125345570E+02  0.17770000000E+01 0.  1.
</event>
<event>
 6    1  0.3365733E-003  0.5004802E+03  0.7546771E-02  0.9398736E-01
        -11   -1    0    0    0    0  0.00000000000E+00  0.00000000000E+00  0.50000000000E+03  0.50000000000E+03  0.00000000000E+00 0. -1.
         11   -1    0    0    0    0 -0.00000000000E+00 -0.00000000000E+00 -0.50000000000E+03  0.50000000000E+03  0.00000000000E+00 0.  1.
        -11    1    1    2    0    0  0.97114230568E+01  0.84978337743E+01  0.49935306483E+03  0.49951977766E+03  0.00000000000E+00 0. -1.
         11    1    1    2    0    0  0.20764973984E+00 -0.23570675916E+01 -0.17381292125E+03  0.17382902658E+03  0.00000000000E+00 0.  1.
        -15    1    1    2    0    0 -0.12747508593E+02 -0.84504402395E+01 -0.10995268056E+03  0.11102548630E+03  0.17770000000E+01 0. -1.
         15    1    1    2    0    0  0.28284357959E+01  0.23096740568E+01 -0.21558746302E+03  0.21562570947E+03  0.17770000000E+01 0.  1.
</event>
<event>
 6    1  0.3365733E-003  0.5088672E+03  0.7546771E-02  0.9380184E-01
        -11   -1    0    0    0    0  0.00000000000E+00  0.00000000000E+00  0.50000000000E+03  0.50000000000E+03  0.00000000000E+00 0. -1.
         11   -1    0    0    0    0 -0.00000000000E+00 -0.00000000000E+00 -0.50000000000E+03  0.50000000000E+03  0.00000000000E+00 0.  1.
        -11    1    1    2    0    0 -0.95371704847E+01  0.79904896432E+01  0.38836404753E+03  0.38856330110E+03  0.00000000000E+00 0. -1.
         11    1    1    2    0    0 -0.55314948717E+00 -0.10559906461E+02 -0.49101894976E+03  0.49113279938E+03  0.00000000000E+00 0.  1.
        -15    1    1    2    0    0  0.15713791518E+02 -0.85480267591E+01  0.10581276564E+03  0.10732889223E+03  0.17770000000E+01 0. -1.
         15    1    1    2    0    0 -0.56234715459E+01  0.11117443577E+02 -0.31578634119E+01  0.12975007292E+02  0.17770000000E+01 0.  1.
</event>
<event>
 6    1  0.3365733E-003  0.5042887E+03  0.7546771E-02  0.9390264E-01
        -11   -1    0    0    0    0  0.00000000000E+00  0.00000000000E+00  0.50000000000E+03  0.50000000000E+03  0.00000000000E+00 0.  1.
         11   -1    0    0    0    0 -0.00000000000E+00 -0.00000000000E+00 -0.50000000000E+03  0.50000000000E+03  0.00000000000E+00 0. -1.
        -11    1    1    2    0    0  0.13155041967E+02 -0.38027344890E+01  0.49552209090E+03  0.49571126525E+03  0.00000000000E+00 0.  1.
         11    1    1    2    0    0 -0.13735407394E+02  0.97578507943E+01 -0.40537985210E+03  0.40572983814E+03  0.00000000000E+00 0. -1.
        -15    1    1    2    0    0  0.17376881825E+02 -0.84958598991E+00 -0.21653043657E+02  0.27833250743E+02  0.17770000000E+01 0.  1.
         15    1    1    2    0    0 -0.16796516398E+02 -0.51055303154E+01 -0.68489195143E+02  0.70725645867E+02  0.17770000000E+01 0. -1.
</event>
<event>
 6    1  0.3365733E-003  0.4761070E+03  0.7546771E-02  0.9454919E-01
        -11   -1    0    0    0    0  0.00000000000E+00  0.00000000000E+00  0.50000000000E+03  0.50000000000E+03  0.00000000000E+00 0.  1.
         11   -1    0    0    0    0 -0.00000000000E+00 -0.00000000000E+00 -0.50000000000E+03  0.50000000000E+03  0.00000000000E+00 0.  1.
        -11    1    1    2    0    0 -0.34187901623E+02  0.80974915566E+01  0.47611603977E+03  0.47741058358E+03  0.00000000000E+00 0.  1.
         11    1    1    2    0    0  0.18005068445E+02 -0.11336937281E+02 -0.47447099941E+03  0.47494782652E+03  0.00000000000E+00 0.  1.
        -15    1    1    2    0    0  0.23339666651E+02  0.16289182405E+02  0.82430809012E+01  0.29684737064E+02  0.17770000000E+01 0. -1.
         15    1    1    2    0    0 -0.71568334741E+01 -0.13049736681E+02 -0.98881212554E+01  0.17956852836E+02  0.17770000000E+01 0.  1.
</event>
<event>
 6    1  0.3365733E-003  0.5108920E+03  0.7546771E-02  0.9375762E-01
        -11   -1    0    0    0    0  0.00000000000E+00  0.00000000000E+00  0.50000000000E+03  0.50000000000E+03  0.00000000000E+00 0.  1.
         11   -1    0    0    0    0 -0.00000000000E+00 -0.00000000000E+00 -0.50000000000E+03  0.50000000000E+03  0.00000000000E+00 0.  1.
        -11    1    1    2    0    0 -0.43600669307E+01 -0.37851896086E+01  0.41346066220E+03  0.41350097585E+03  0.00000000000E+00 0.  1.
         11    1    1    2    0    0 -0.22016627979E+02 -0.96667760549E+01 -0.48851655405E+03  0.48910796564E+03  0.00000000000E+00 0.  1.
        -15    1    1    2    0    0  0.12687674484E+01  0.12516408067E+02  0.70695710803E+02  0.71828347445E+02  0.17770000000E+01 0.  1.
         15    1    1    2    0    0  0.25107927461E+02  0.93555759700E+00  0.43601810537E+01  0.25562711070E+02  0.17770000000E+01 0. -1.
</event>
<event>
 6    1  0.3365733E-003  0.5103121E+03  0.7546771E-02  0.9377027E-01
        -11   -1    0    0    0    0  0.00000000000E+00  0.00000000000E+00  0.50000000000E+03  0.50000000000E+03  0.00000000000E+00 0. -1.
         11   -1    0    0    0    0 -0.00000000000E+00 -0.00000000000E+00 -0.50000000000E+03  0.50000000000E+03  0.00000000000E+00 0. -1.
        -11    1    1    2    0    0 -0.70984451933E+01 -0.12058184544E+02  0.48948789854E+03  0.48968785012E+03  0.00000000000E+00 0. -1.
         11    1    1    2    0    0  0.21499976782E+02  0.23319559320E+00 -0.47371661504E+03  0.47420431751E+03  0.00000000000E+00 0. -1.
        -15    1    1    2    0    0 -0.34804372030E+01  0.17366801241E+02 -0.15695898226E+02  0.23732639519E+02  0.17770000000E+01 0.  1.
         15    1    1    2    0    0 -0.10921094386E+02 -0.55418122902E+01 -0.75385273432E-01  0.12375192846E+02  0.17770000000E+01 0. -1.
</event>
<event>
 6    1  0.3365733E-003  0.5135113E+03  0.7546771E-02  0.9370075E-01
        -11   -1    0    0    0    0  0.00000000000E+00  0.00000000000E+00  0.50000000000E+03  0.50000000000E+03  0.00000000000E+00 0.  1.
         11   -1    0    0    0    0 -0.00000000000E+00 -0.00000000000E+00 -0.50000000000E+03  0.50000000000E+03  0.00000000000E+00 0.  1.
        -11    1    1    2    0    0  0.64300788443E+01  0.18670014487E+02  0.44928750069E+03  0.44972121768E+03  0.00000000000E+00 0.  1.
         11    1    1    2    0    0  0.74641347819E+01  0.10714659076E+01 -0.48643025113E+03  0.48648869520E+03  0.00000000000E+00 0.  1.
        -15    1    1    2    0    0  0.59618800698E+00 -0.52995009431E+00 -0.10343404111E+02  0.10525209017E+02  0.17770000000E+01 0.  1.
         15    1    1    2    0    0 -0.14490401633E+02 -0.19211530300E+02  0.47486154553E+02  0.53264878101E+02  0.17770000000E+01 0. -1.
</event>
<event>
 6    1  0.3365733E-003  0.5010978E+03  0.7546771E-02  0.9397357E-01
        -11   -1    0    0    0    0  0.00000000000E+00  0.00000000000E+00  0.50000000000E+03  0.50000000000E+03  0.00000000000E+00 0.  1.
         11   -1    0    0    0    0 -0.00000000000E+00 -0.00000000000E+00 -0.50000000000E+03  0.50000000000E+03  0.00000000000E+00 0. -1.
        -11    1    1    2    0    0  0.43366732400E+01  0.62389531946E+01  0.45055436640E+03  0.45061842877E+03  0.00000000000E+00 0.  1.
         11    1    1    2    0    0  0.39845405954E+01 -0.88541740247E+01 -0.49880775625E+03  0.49890224559E+03  0.00000000000E+00 0. -1.
        -15    1    1    2    0    0 -0.61838241644E+01 -0.17483171923E+01  0.41177410259E+02  0.41713704450E+02  0.17770000000E+01 0. -1.
         15    1    1    2    0    0 -0.21373896710E+01  0.43635380223E+01  0.70759795894E+01  0.87656211889E+01  0.17770000000E+01 0.  1.
</event>
<event>
 6    1  0.3365733E-003  0.5022556E+03  0.7546771E-02  0.9394777E-01
        -11   -1    0    0    0    0  0.00000000000E+00  0.00000000000E+00  0.50000000000E+03  0.50000000000E+03  0.00000000000E+00 0.  1.
         11   -1    0    0    0    0 -0.00000000000E+00 -0.00000000000E+00 -0.50000000000E+03  0.50000000000E+03  0.00000000000E+00 0.  1.
        -11    1    1    2    0    0 -0.75755967246E+01 -0.42035778117E+01  0.49766896447E+03  0.49774437006E+03  0.00000000000E+00 0.  1.
         11    1    1    2    0    0  0.53664146395E+01 -0.79709061139E+00 -0.32427621814E+03  0.32432159875E+03  0.00000000000E+00 0.  1.
        -15    1    1    2    0    0 -0.97577420254E+01  0.22603380395E+00 -0.15548662701E+03  0.15580280334E+03  0.17770000000E+01 0.  1.
         15    1    1    2    0    0  0.11966924110E+02  0.47746346191E+01 -0.17906119318E+02  0.22131227856E+02  0.17770000000E+01 0. -1.
</event>
<event>
 6    1  0.3365733E-003  0.5032843E+03  0.7546771E-02  0.9392491E-01
        -11   -1    0    0    0    0  0.00000000000E+00  0.00000000000E+00  0.50000000000E+03  0.50000000000E+03  0.00000000000E+00 0.  1.
         11   -1    0    0    0    0 -0.00000000000E+00 -0.00000000000E+00 -0.50000000000E+03  0.50000000000E+03  0.00000000000E+00 0.  1.
        -11    1    1    2    0    0 -0.74080732707E+01  0.14335689321E+02  0.49645355456E+03  0.49671573699E+03  0.00000000000E+00 0.  1.
         11    1    1    2    0    0 -0.23619081721E+01 -0.43545375028E+01 -0.14102444334E+03  0.14111142486E+03  0.00000000000E+00 0.  1.
        -15    1    1    2    0    0 -0.52500622686E+00 -0.17043633365E+02 -0.19330370945E+02  0.25837609017E+02  0.17770000000E+01 0. -1.
         15    1    1    2    0    0  0.10294987670E+02  0.70624815468E+01 -0.33609874028E+03  0.33633522914E+03  0.17770000000E+01 0.  1.
</event>
<event>
 6    1  0.3365733E-003  0.5108392E+03  0.7546771E-02  0.9375878E-01
        -11   -1    0    0    0    0  0.00000000000E+00  0.00000000000E+00  0.50000000000E+03  0.50000000000E+03  0.00000000000E+00 0.  1.
         11   -1    0    0    0    0 -0.00000000000E+00 -0.00000000000E+00 -0.50000000000E+03  0.50000000000E+03  0.00000000000E+00 0.  1.
        -11    1    1    2    0    0 -0.87914076664E+01  0.55231279946E+01  0.48905062577E+03  0.48916082055E+03  0.00000000000E+00 0.  1.
         11    1    1    2    0    0 -0.35556381473E+01 -0.51819651471E+01 -0.39266389120E+03  0.39271417950E+03  0.00000000000E+00 0.  1.
        -15    1    1    2    0    0 -0.12769175037E+02  0.55076389322E+01 -0.90544783910E+02  0.91623695297E+02  0.17770000000E+01 0.  1.
         15    1    1    2    0    0  0.25116220850E+02 -0.58488017798E+01 -0.58419506558E+01  0.26501304657E+02  0.17770000000E+01 0. -1.
</event>
<event>
 6    1  0.3365733E-003  0.5018628E+03  0.7546771E-02  0.9395651E-01
        -11   -1    0    0    0    0  0.00000000000E+00  0.00000000000E+00  0.50000000000E+03  0.50000000000E+03  0.00000000000E+00 0.  1.
         11   -1    0    0    0    0 -0.00000000000E+00 -0.00000000000E+00 -0.50000000000E+03  0.50000000000E+03  0.00000000000E+00 0. -1.
        -11    1    1    2    0    0 -0.37055391398E+01  0.60097352868E+01  0.36904996566E+03  0.36911749497E+03  0.00000000000E+00 0.  1.
         11    1    1    2    0    0 -0.23049888792E+01 -0.79021654256E+01 -0.49806917748E+03  0.49813719270E+03  0.00000000000E+00 0. -1.
        -15    1    1    2    0    0 -0.76395057807E+01  0.66058753415E+00  0.90979629995E+01  0.12030340153E+02  0.17770000000E+01 0. -1.
         15    1    1    2    0    0  0.13650033800E+02  0.12318426046E+01  0.11992124882E+03  0.12071497218E+03  0.17770000000E+01 0.  1.
</event>
<event>
 6    1  0.3365733E-003  0.5184864E+03  0.7546771E-02  0.9359369E-01
        -11   -1    0    0    0    0  0.00000000000E+00  0.00000000000E+00  0.50000000000E+03  0.50000000000E+03  0.00000000000E+00 0. -1.
         11   -1    0    0    0    0 -0.00000000000E+00 -0.00000000000E+00 -0.50000000000E+03  0.50000000000E+03  0.00000000000E+00 0.  1.
        -11    1    1    2    0    0  0.15598689567E+02 -0.30127585817E+02  0.48031696249E+03  0.48151362908E+03  0.00000000000E+00 0. -1.
         11    1    1    2    0    0  0.81857607453E+01  0.14461652380E+01 -0.36143905862E+03  0.36153463343E+03  0.00000000000E+00 0.  1.
        -15    1    1    2    0    0  0.40603453458E+00 -0.18094101560E+02 -0.98968196721E+02  0.10062516120E+03  0.17770000000E+01 0.  1.
         15    1    1    2    0    0 -0.24190484846E+02  0.46775522139E+02 -0.19909707145E+02  0.56326576286E+02  0.17770000000E+01 0. -1.
</event>
<event>
 6    1  0.3365733E-003  0.5017475E+03  0.7546771E-02  0.9395908E-01
        -11   -1    0    0    0    0  0.00000000000E+00  0.00000000000E+00  0.50000000000E+03  0.50000000000E+03  0.00000000000E+00 0. -1.
         11   -1    0    0    0    0 -0.00000000000E+00 -0.00000000000E+00 -0.50000000000E+03  0.50000000000E+03  0.00000000000E+00 0.  1.
        -11    1    1    2    0    0 -0.73343223364E+01 -0.45456210021E+01  0.49817779409E+03  0.49825251578E+03  0.00000000000E+00 0. -1.
         11    1    1    2    0    0  0.91453681509E+01  0.32903009456E+01 -0.47251294728E+03  0.47261289570E+03  0.00000000000E+00 0.  1.
        -15    1    1    2    0    0  0.33201780989E+01  0.21822082386E+01 -0.19164355457E+01  0.47556355628E+01  0.17770000000E+01 0.  1.
         15    1    1    2    0    0 -0.51312239134E+01 -0.92688818206E+00 -0.23748411268E+02  0.24378952957E+02  0.17770000000E+01 0. -1.
</event>
<event>
 6    1  0.3827453E-003  0.5003841E+03  0.7546771E-02  0.9398951E-01
        -11   -1    0    0    0    0  0.00000000000E+00  0.00000000000E+00  0.50000000000E+03  0.50000000000E+03  0.00000000000E+00 0.  1.
         11   -1    0    0    0    0 -0.00000000000E+00 -0.00000000000E+00 -0.50000000000E+03  0.50000000000E+03  0.00000000000E+00 0. -1.
        -11    1    1    2    0    0 -0.55881995730E+01 -0.66731908762E+01  0.49954008645E+03  0.49961590989E+03  0.00000000000E+00 0.  1.
         11    1    1    2    0    0  0.15350073518E+01  0.39115048956E+01 -0.27906172197E+03  0.27909335497E+03  0.00000000000E+00 0. -1.
        -15    1    1    2    0    0  0.63534204605E+01  0.51803501127E+01 -0.20971099315E+03  0.20987868008E+03  0.17770000000E+01 0.  1.
         15    1    1    2    0    0 -0.23002282393E+01 -0.24186641321E+01 -0.10767371334E+02  0.11412055055E+02  0.17770000000E+01 0. -1.
</event>
<event>
 6    1  0.3365733E-003  0.5089481E+03  0.7546771E-02  0.9380007E-01
        -11   -1    0    0    0    0  0.00000000000E+00  0.00000000000E+00  0.50000000000E+03  0.50000000000E+03  0.00000000000E+00 0. -1.
         11   -1    0    0    0    0 -0.00000000000E+00 -0.00000000000E+00 -0.50000000000E+03  0.50000000000E+03  0.00000000000E+00 0. -1.
        -11    1    1    2    0    0 -0.43580104930E+01 -0.52957566383E+01  0.49100402654E+03  0.49105192330E+03  0.00000000000E+00 0. -1.
         11    1    1    2    0    0  0.14682213722E+02  0.63767198644E+01 -0.47761632987E+03  0.47788449286E+03  0.00000000000E+00 0. -1.
        -15    1    1    2    0    0 -0.18322100233E+02 -0.28779978130E+01 -0.12900160919E+02  0.22661732262E+02  0.17770000000E+01 0. -1.
         15    1    1    2    0    0  0.79978970044E+01  0.17970345868E+01 -0.48753575158E+00  0.84018515762E+01  0.17770000000E+01 0.  1.
</event>
<event>
 6    1  0.3365733E-003  0.5186767E+03  0.7546771E-02  0.9358962E-01
        -11   -1    0    0    0    0  0.00000000000E+00  0.00000000000E+00  0.50000000000E+03  0.50000000000E+03  0.00000000000E+00 0. -1.
         11   -1    0    0    0    0 -0.00000000000E+00 -0.00000000000E+00 -0.50000000000E+03  0.50000000000E+03  0.00000000000E+00 0. -1.
        -11    1    1    2    0    0  0.49092531938E+01  0.18420934449E+02  0.48094565791E+03  0.48132333982E+03  0.00000000000E+00 0. -1.
         11    1    1    2    0    0  0.17291150341E+01  0.85227716767E+01 -0.39241512440E+03  0.39251147414E+03  0.00000000000E+00 0. -1.
        -15    1    1    2    0    0  0.14832415773E+02 -0.13393905399E+02 -0.97222318124E+02  0.99271013543E+02  0.17770000000E+01 0. -1.
         15    1    1    2    0    0 -0.21470784001E+02 -0.13549800727E+02  0.86917846115E+01  0.26894172493E+02  0.17770000000E+01 0.  1.
</event>
<event>
 6    1  0.3365733E-003  0.5070631E+03  0.7546771E-02  0.9384143E-01
        -11   -1    0    0    0    0  0.00000000000E+00  0.00000000000E+00  0.50000000000E+03  0.50000000000E+03  0.00000000000E+00 0.  1.
         11   -1    0    0    0    0 -0.00000000000E+00 -0.00000000000E+00 -0.50000000000E+03  0.50000000000E+03  0.00000000000E+00 0. -1.
        -11    1    1    2    0    0  0.86334272728E+01 -0.30691648720E+01  0.49285172738E+03  0.49293689355E+03  0.00000000000E+00 0.  1.
         11    1    1    2    0    0  0.20028885108E+02 -0.70528461072E+00 -0.44459317697E+03  0.44504465695E+03  0.00000000000E+00 0. -1.
        -15    1    1    2    0    0 -0.25017339266E+02  0.12238454231E+02 -0.27230745253E+02  0.38991258533E+02  0.17770000000E+01 0. -1.
         15    1    1    2    0    0 -0.36449731145E+01 -0.84640047480E+01 -0.21027805156E+02  0.23027190972E+02  0.17770000000E+01 0.  1.
</event>
<event>
 6    1  0.3365733E-003  0.5135783E+03  0.7546771E-02  0.9369930E-01
        -11   -1    0    0    0    0  0.00000000000E+00  0.00000000000E+00  0.50000000000E+03  0.50000000000E+03  0.00000000000E+00 0.  1.
         11   -1    0    0    0    0 -0.00000000000E+00 -0.00000000000E+00 -0.50000000000E+03  0.50000000000E+03  0.00000000000E+00 0. -1.
        -11    1    1    2    0    0 -0.96695857022E+01 -0.37695466507E+01  0.48631098569E+03  0.48642171536E+03  0.00000000000E+00 0.  1.
         11    1    1    2    0    0 -0.19492779099E+01 -0.85077250125E+01 -0.35987926413E+03  0.35998509111E+03  0.00000000000E+00 0. -1.
        -15    1    1    2    0    0  0.53533079096E+01  0.24039767123E+02  0.17064982398E+01  0.24751528723E+02  0.17770000000E+01 0. -1.
         15    1    1    2    0    0  0.62655557025E+01 -0.11762495459E+02 -0.12813821980E+03  0.12884166481E+03  0.17770000000E+01 0.  1.
</event>
<event>
 6    1  0.3365733E-003  0.5068794E+03  0.7546771E-02  0.9384547E-01
        -11   -1    0    0    0    0  0.00000000000E+00  0.00000000000E+00  0.50000000000E+03  0.50000000000E+03  0.00000000000E+00 0. -1.
         11   -1    0    0    0    0 -0.00000000000E+00 -0.00000000000E+00 -0.50000000000E+03  0.50000000000E+03  0.00000000000E+00 0. -1.
        -11    1    1    2    0    0  0.30147559385E+02  0.20169378232E+02  0.49178476550E+03  0.49312060871E+03  0.00000000000E+00 0. -1.
         11    1    1    2    0    0 -0.75026991495E+01  0.10462014995E+02 -0.38758592338E+03  0.38779968058E+03  0.00000000000E+00 0. -1.
        -15    1    1    2    0    0 -0.27767642557E+02 -0.14600397313E+01 -0.54110757005E+02  0.60863005528E+02  0.17770000000E+01 0. -1.
         15    1    1    2    0    0  0.51227823208E+01 -0.29171353496E+02 -0.50088085111E+02  0.58216705185E+02  0.17770000000E+01 0.  1.
</event>
<event>
 6    1  0.3365733E-003  0.4943215E+03  0.7546771E-02  0.9412606E-01
        -11   -1    0    0    0    0  0.00000000000E+00  0.00000000000E+00  0.50000000000E+03  0.50000000000E+03  0.00000000000E+00 0. -1.
         11   -1    0    0    0    0 -0.00000000000E+00 -0.00000000000E+00 -0.50000000000E+03  0.50000000000E+03  0.00000000000E+00 0.  1.
        -11    1    1    2    0    0  0.80126967371E-01 -0.50760816000E+01  0.52859387693E+02  0.53102616621E+02  0.00000000000E+00 0. -1.
         11    1    1    2    0    0 -0.42439194415E+02  0.38080446996E+01 -0.47500935571E+03  0.47691663259E+03  0.00000000000E+00 0.  1.
        -15    1    1    2    0    0 -0.50286808308E+02  0.72888561440E+02  0.20355648044E+03  0.22199077444E+03  0.17770000000E+01 0. -1.
         15    1    1    2    0    0  0.92645875755E+02 -0.71620524540E+02  0.21859348758E+03  0.24798997635E+03  0.17770000000E+01 0.  1.
</event>
<event>
 6    1  0.3365733E-003  0.4782053E+03  0.7546771E-02  0.9449942E-01
        -11   -1    0    0    0    0  0.00000000000E+00  0.00000000000E+00  0.50000000000E+03  0.50000000000E+03  0.00000000000E+00 0.  1.
         11   -1    0    0    0    0 -0.00000000000E+00 -0.00000000000E+00 -0.50000000000E+03  0.50000000000E+03  0.00000000000E+00 0. -1.
        -11    1    1    2    0    0 -0.14708562224E+01 -0.16027318660E+02  0.48056235220E+03  0.48083179254E+03  0.00000000000E+00 0.  1.
         11    1    1    2    0    0  0.11273764468E+02  0.13282524274E+02 -0.47532821134E+03  0.47564738169E+03  0.00000000000E+00 0. -1.
        -15    1    1    2    0    0 -0.62604084908E+01 -0.14295515625E+02 -0.16445785080E+02  0.22741505169E+02  0.17770000000E+01 0.  1.
         15    1    1    2    0    0 -0.35424997545E+01  0.17040310011E+02  0.11211644215E+02  0.20779320605E+02  0.17770000000E+01 0. -1.
</event>
<event>
 6    1  0.3365733E-003  0.5096914E+03  0.7546771E-02  0.9378382E-01
        -11   -1    0    0    0    0  0.00000000000E+00  0.00000000000E+00  0.50000000000E+03  0.50000000000E+03  0.00000000000E+00 0. -1.
         11   -1    0    0    0    0 -0.00000000000E+00 -0.00000000000E+00 -0.50000000000E+03  0.50000000000E+03  0.00000000000E+00 0.  1.
        -11    1    1    2    0    0 -0.68620958597E+01 -0.15381214364E+02  0.49001925118E+03  0.49030861368E+03  0.00000000000E+00 0. -1.
         11    1    1    2    0    0 -0.53013944576E+01 -0.50231702292E+01 -0.38325720904E+03  0.38332678657E+03  0.00000000000E+00 0.  1.
        -15    1    1    2    0    0  0.14960431375E+02  0.16354418239E+02 -0.29616110666E+01  0.22432351013E+02  0.17770000000E+01 0. -1.
         15    1    1    2    0    0 -0.27969410576E+01  0.40499663547E+01 -0.10380043108E+03  0.10393224874E+03  0.17770000000E+01 0.  1.
</event>
<event>
 6    1  0.3365733E-003  0.5065772E+03  0.7546771E-02  0.9385212E-01
        -11   -1    0    0    0    0  0.00000000000E+00  0.00000000000E+00  0.50000000000E+03  0.50000000000E+03  0.00000000000E+00 0.  1.
         11   -1    0    0    0    0 -0.00000000000E+00 -0.00000000000E+00 -0.50000000000E+03  0.50000000000E+03  0.00000000000E+00 0. -1.
        -11    1    1    2    0    0  0.75544603046E+01 -0.16405754441E+02  0.43519147665E+03  0.43556611438E+03  0.00000000000E+00 0.  1.
         11    1    1    2    0    0 -0.66887705171E+01  0.85067038052E+00 -0.49337670144E+03  0.49342277290E+03  0.00000000000E+00 0. -1.
        -15    1    1    2    0    0  0.80481489083E+01  0.83145794878E+00 -0.18874326353E+01  0.84961258302E+01  0.17770000000E+01 0.  1.
         15    1    1    2    0    0 -0.89138386958E+01  0.14723626111E+02  0.60072657424E+02  0.62514986885E+02  0.17770000000E+01 0. -1.
</event>
<event>
 6    1  0.3365733E-003  0.5161434E+03  0.7546771E-02  0.9364395E-01
        -11   -1    0    0    0    0  0.00000000000E+00  0.00000000000E+00  0.50000000000E+03  0.50000000000E+03  0.00000000000E+00 0.  1.
         11   -1    0    0    0    0 -0.00000000000E+00 -0.00000000000E+00 -0.50000000000E+03  0.50000000000E+03  0.00000000000E+00 0.  1.
        -11    1    1    2    0    0 -0.44491130456E+01 -0.64639944991E+01  0.47752153361E+03  0.47758600575E+03  0.00000000000E+00 0.  1.
         11    1    1    2    0    0  0.73911025587E+01  0.27925133606E+01 -0.48379204833E+03  0.48385656196E+03  0.00000000000E+00 0.  1.
        -15    1    1    2    0    0 -0.92408410574E+01 -0.22037553338E+01 -0.13682726545E+02  0.16751848128E+02  0.17770000000E+01 0. -1.
         15    1    1    2    0    0  0.62988515443E+01  0.58752364724E+01  0.19953241268E+02  0.21805584159E+02  0.17770000000E+01 0. -1.
</event>
<event>
 6    1  0.3365733E-003  0.5005495E+03  0.7546771E-02  0.9398581E-01
        -11   -1    0    0    0    0  0.00000000000E+00  0.00000000000E+00  0.50000000000E+03  0.50000000000E+03  0.00000000000E+00 0. -1.
         11   -1    0    0    0    0 -0.00000000000E+00 -0.00000000000E+00 -0.50000000000E+03  0.50000000000E+03  0.00000000000E+00 0. -1.
        -11    1    1    2    0    0  0.33315800451E+01  0.65630218309E+00  0.11805481359E+03  0.11810363741E+03  0.00000000000E+00 0. -1.
         11    1    1    2    0    0  0.80114756760E+01  0.66010259798E+01 -0.49934265784E+03  0.49945054533E+03  0.00000000000E+00 0. -1.
        -15    1    1    2    0    0 -0.74106983265E+01 -0.33560014783E+01  0.36590505859E+03  0.36599979622E+03  0.17770000000E+01 0. -1.
         15    1    1    2    0    0 -0.39323573946E+01 -0.39013266846E+01  0.15382785658E+02  0.16446021044E+02  0.17770000000E+01 0.  1.
</event>
<event>
 6    1  0.3365733E-003  0.3722255E+03  0.7546771E-02  0.9742224E-01
        -11   -1    0    0    0    0  0.00000000000E+00  0.00000000000E+00  0.50000000000E+03  0.50000000000E+03  0.00000000000E+00 0. -1.
         11   -1    0    0    0    0 -0.00000000000E+00 -0.00000000000E+00 -0.50000000000E+03  0.50000000000E+03  0.00000000000E+00 0.  1.
        -11    1    1    2    0    0 -0.17509413952E+02  0.12663044770E+02  0.40374521873E+03  0.40432305639E+03  0.00000000000E+00 0. -1.
         11    1    1    2    0    0  0.80981590040E+01  0.60708023180E+01 -0.15384341812E+03  0.15417597777E+03  0.00000000000E+00 0.  1.
        -15    1    1    2    0    0  0.12667997314E+02 -0.28583124599E+02  0.93157651244E+02  0.98280104202E+02  0.17770000000E+01 0. -1.
         15    1    1    2    0    0 -0.32567423654E+01  0.98492775103E+01 -0.34305945185E+03  0.34322086165E+03  0.17770000000E+01 0.  1.
</event>
<event>
 6    1  0.3365733E-003  0.5005038E+03  0.7546771E-02  0.9398683E-01
        -11   -1    0    0    0    0  0.00000000000E+00  0.00000000000E+00  0.50000000000E+03  0.50000000000E+03  0.00000000000E+00 0. -1.
         11   -1    0    0    0    0 -0.00000000000E+00 -0.00000000000E+00 -0.50000000000E+03  0.50000000000E+03  0.00000000000E+00 0. -1.
        -11    1    1    2    0    0  0.17410044585E+01  0.86696251765E-01  0.10656610078E+03  0.10658035676E+03  0.00000000000E+00 0. -1.
         11    1    1    2    0    0 -0.71463863193E+01  0.93861910752E+01 -0.49935683851E+03  0.49949616974E+03  0.00000000000E+00 0. -1.
        -15    1    1    2    0    0 -0.23719073201E+01 -0.17627094979E+02  0.20073976345E+03  0.20153399411E+03  0.17770000000E+01 0. -1.
         15    1    1    2    0    0  0.77772891809E+01  0.81542076523E+01  0.19205097428E+03  0.19238947939E+03  0.17770000000E+01 0.  1.
</event>
<event>
 6    1  0.3365733E-003  0.5065882E+03  0.7546771E-02  0.9385188E-01
        -11   -1    0    0    0    0  0.00000000000E+00  0.00000000000E+00  0.50000000000E+03  0.50000000000E+03  0.00000000000E+00 0.  1.
         11   -1    0    0    0    0 -0.00000000000E+00 -0.00000000000E+00 -0.50000000000E+03  0.50000000000E+03  0.00000000000E+00 0. -1.
        -11    1    1    2    0    0 -0.95523020179E+01 -0.11077175360E+02  0.37113937463E+03  0.37142749721E+03  0.00000000000E+00 0.  1.
         11    1    1    2    0    0  0.15987751581E+02 -0.42935174656E+02 -0.49128008778E+03  0.49341175713E+03  0.00000000000E+00 0. -1.
        -15    1    1    2    0    0 -0.52639911960E+00  0.14734007404E+02  0.95900989075E+01  0.17677550630E+02  0.17770000000E+01 0.  1.
         15    1    1    2    0    0 -0.59090504433E+01  0.39278342613E+02  0.11055061425E+03  0.11748319503E+03  0.17770000000E+01 0. -1.
</event>
<event>
 6    1  0.3365733E-003  0.5090994E+03  0.7546771E-02  0.9379676E-01
        -11   -1    0    0    0    0  0.00000000000E+00  0.00000000000E+00  0.50000000000E+03  0.50000000000E+03  0.00000000000E+00 0. -1.
         11   -1    0    0    0    0 -0.00000000000E+00 -0.00000000000E+00 -0.50000000000E+03  0.50000000000E+03  0.00000000000E+00 0. -1.
        -11    1    1    2    0    0  0.65708008545E+00  0.93610304760E+01  0.49081094339E+03  0.49090064453E+03  0.00000000000E+00 0. -1.
         11    1    1    2    0    0  0.15427622656E+02 -0.12920450786E+01 -0.42787243733E+03  0.42815243028E+03  0.00000000000E+00 0. -1.
        -15    1    1    2    0    0 -0.19680517464E+02  0.73615620812E+01 -0.61543287176E+01  0.21966994671E+02  0.17770000000E+01 0. -1.
         15    1    1    2    0    0  0.35958147221E+01 -0.15430547479E+02 -0.56784177343E+02  0.58979930523E+02  0.17770000000E+01 0.  1.
</event>
<event>
 6    1  0.3365733E-003  0.5005440E+03  0.7546771E-02  0.9398593E-01
        -11   -1    0    0    0    0  0.00000000000E+00  0.00000000000E+00  0.50000000000E+03  0.50000000000E+03  0.00000000000E+00 0.  1.
         11   -1    0    0    0    0 -0.00000000000E+00 -0.00000000000E+00 -0.50000000000E+03  0.50000000000E+03  0.00000000000E+00 0.  1.
        -11    1    1    2    0    0  0.12642428911E+01  0.40988930382E+01  0.28376806609E+03  0.28380048373E+03  0.00000000000E+00 0.  1.
         11    1    1    2    0    0 -0.92191301517E+01 -0.98540291139E+01 -0.49927371910E+03  0.49945604494E+03  0.00000000000E+00 0.  1.
        -15    1    1    2    0    0  0.25968658820E+01 -0.56762398075E+01  0.14141909040E+03  0.14156793517E+03  0.17770000000E+01 0. -1.
         15    1    1    2    0    0  0.53580213786E+01  0.11431375883E+02  0.74086562608E+02  0.75175536152E+02  0.17770000000E+01 0.  1.
</event>
<event>
 6    1  0.3365733E-003  0.5017426E+03  0.7546771E-02  0.9395919E-01
        -11   -1    0    0    0    0  0.00000000000E+00  0.00000000000E+00  0.50000000000E+03  0.50000000000E+03  0.00000000000E+00 0. -1.
         11   -1    0    0    0    0 -0.00000000000E+00 -0.00000000000E+00 -0.50000000000E+03  0.50000000000E+03  0.00000000000E+00 0.  1.
        -11    1    1    2    0    0  0.11200437683E+02  0.33363339473E+01  0.49812033744E+03  0.49825741490E+03  0.00000000000E+00 0. -1.
         11    1    1    2    0    0 -0.21708337749E+01  0.85704233725E+01 -0.24458387318E+03  0.24474361216E+03  0.00000000000E+00 0.  1.
        -15    1    1    2    0    0 -0.21618795057E+02 -0.14763693923E+02 -0.12038515938E+03  0.12321153877E+03  0.17770000000E+01 0. -1.
         15    1    1    2    0    0  0.12589191149E+02  0.28569366033E+01 -0.13315130489E+03  0.13378743417E+03  0.17770000000E+01 0.  1.
</event>
<event>
 6    1  0.3365733E-003  0.5001531E+03  0.7546771E-02  0.9399467E-01
        -11   -1    0    0    0    0  0.00000000000E+00  0.00000000000E+00  0.50000000000E+03  0.50000000000E+03  0.00000000000E+00 0. -1.
         11   -1    0    0    0    0 -0.00000000000E+00 -0.00000000000E+00 -0.50000000000E+03  0.50000000000E+03  0.00000000000E+00 0.  1.
        -11    1    1    2    0    0 -0.93672155737E+01  0.62017169659E+01  0.49972060215E+03  0.49984686278E+03  0.00000000000E+00 0. -1.
         11    1    1    2    0    0 -0.19362554207E+01  0.22455309523E-01 -0.81097803267E+02  0.81120917673E+02  0.00000000000E+00 0.  1.
        -15    1    1    2    0    0  0.75998971407E+01 -0.62400781534E+01 -0.13117354108E+03  0.13155361120E+03  0.17770000000E+01 0. -1.
         15    1    1    2    0    0  0.37035738537E+01  0.15905877912E-01 -0.28744925780E+03  0.28747860834E+03  0.17770000000E+01 0.  1.
</event>
<event>
 6    1  0.3365733E-003  0.5054323E+03  0.7546771E-02  0.9387736E-01
        -11   -1    0    0    0    0  0.00000000000E+00  0.00000000000E+00  0.50000000000E+03  0.50000000000E+03  0.00000000000E+00 0. -1.
         11   -1    0    0    0    0 -0.00000000000E+00 -0.00000000000E+00 -0.50000000000E+03  0.50000000000E+03  0.00000000000E+00 0. -1.
        -11    1    1    2    0    0  0.36210841535E+01 -0.73772240906E+01  0.30304596440E+03  0.30315737205E+03  0.00000000000E+00 0. -1.
         11    1    1    2    0    0 -0.73577800176E+01  0.45349340665E+01 -0.49449219799E+03  0.49456772683E+03  0.00000000000E+00 0. -1.
        -15    1    1    2    0    0 -0.36997513294E+01  0.13889033986E+02  0.18779544488E+03  0.18835307343E+03  0.17770000000E+01 0. -1.
         15    1    1    2    0    0  0.74364471936E+01 -0.11046743962E+02  0.36507887079E+01  0.13921827689E+02  0.17770000000E+01 0.  1.
</event>
<event>
 6    1  0.3365733E-003  0.5032773E+03  0.7546771E-02  0.9392506E-01
        -11   -1    0    0    0    0  0.00000000000E+00  0.00000000000E+00  0.50000000000E+03  0.50000000000E+03  0.00000000000E+00 0. -1.
         11   -1    0    0    0    0 -0.00000000000E+00 -0.00000000000E+00 -0.50000000000E+03  0.50000000000E+03  0.00000000000E+00 0.  1.
        -11    1    1    2    0    0  0.13542182789E+02 -0.22570369289E+01  0.49653292167E+03  0.49672268645E+03  0.00000000000E+00 0. -1.
         11    1    1    2    0    0  0.23243158305E+01 -0.68078688412E+01 -0.42508988247E+03  0.42515074703E+03  0.00000000000E+00 0.  1.
        -15    1    1    2    0    0  0.35773872569E+01  0.69886504269E+01 -0.41815822746E+02  0.42583561328E+02  0.17770000000E+01 0. -1.
         15    1    1    2    0    0 -0.19443885877E+02  0.20762553432E+01 -0.29627216451E+02  0.35543005189E+02  0.17770000000E+01 0.  1.
</event>
<event>
 6    1  0.3365733E-003  0.5175122E+03  0.7546771E-02  0.9361455E-01
        -11   -1    0    0    0    0  0.00000000000E+00  0.00000000000E+00  0.50000000000E+03  0.50000000000E+03  0.00000000000E+00 0.  1.
         11   -1    0    0    0    0 -0.00000000000E+00 -0.00000000000E+00 -0.50000000000E+03  0.50000000000E+03  0.00000000000E+00 0.  1.
        -11    1    1    2    0    0 -0.74369352443E+01  0.10378728666E+02  0.48231880371E+03  0.48248777646E+03  0.00000000000E+00 0.  1.
         11    1    1    2    0    0 -0.46511493471E+01  0.26280644373E+02 -0.43386969254E+03  0.43468979234E+03  0.00000000000E+00 0.  1.
        -15    1    1    2    0    0 -0.60119058213E-01  0.90063866115E+01  0.57982810761E+01  0.10858011168E+02  0.17770000000E+01 0. -1.
         15    1    1    2    0    0  0.12148203650E+02 -0.45665759651E+02 -0.54247392245E+02  0.71964420034E+02  0.17770000000E+01 0.  1.
</event>
<event>
 6    1  0.3365733E-003  0.5151707E+03  0.7546771E-02  0.9366490E-01
        -11   -1    0    0    0    0  0.00000000000E+00  0.00000000000E+00  0.50000000000E+03  0.50000000000E+03  0.00000000000E+00 0.  1.
         11   -1    0    0    0    0 -0.00000000000E+00 -0.00000000000E+00 -0.50000000000E+03  0.50000000000E+03  0.00000000000E+00 0.  1.
        -11    1    1    2    0    0 -0.21941625748E+02  0.50849957734E+01  0.30838029586E+03  0.30920171248E+03  0.00000000000E+00 0.  1.
         11    1    1    2    0    0  0.79742328566E+01 -0.69722507759E+01 -0.48471358417E+03  0.48482930950E+03  0.00000000000E+00 0.  1.
        -15    1    1    2    0    0  0.22733693396E+02 -0.20602332045E+01  0.18876770039E+03  0.19015117095E+03  0.17770000000E+01 0. -1.
         15    1    1    2    0    0 -0.87663005044E+01  0.39474882070E+01 -0.12434412086E+02  0.15817807073E+02  0.17770000000E+01 0.  1.
</event>
<event>
 6    1  0.3365733E-003  0.5001976E+03  0.7546771E-02  0.9399368E-01
        -11   -1    0    0    0    0  0.00000000000E+00  0.00000000000E+00  0.50000000000E+03  0.50000000000E+03  0.00000000000E+00 0.  1.
         11   -1    0    0    0    0 -0.00000000000E+00 -0.00000000000E+00 -0.50000000000E+03  0.50000000000E+03  0.00000000000E+00 0. -1.
        -11    1    1    2    0    0 -0.14403303941E+02  0.60653336567E+01  0.49955796913E+03  0.49980236890E+03  0.00000000000E+00 0.  1.
         11    1    1    2    0    0  0.25559793709E+01  0.24426560613E+00 -0.12080702709E+03  0.12083431008E+03  0.00000000000E+00 0. -1.
        -15    1    1    2    0    0 -0.36574903932E+01  0.39726642071E+00 -0.11019074754E+03  0.11026646648E+03  0.17770000000E+01 0. -1.
         15    1    1    2    0    0  0.15504814963E+02 -0.67068656835E+01 -0.26856019449E+03  0.26909685455E+03  0.17770000000E+01 0. -1.
</event>
<event>
 6    1  0.3365733E-003  0.5032002E+03  0.7546771E-02  0.9392677E-01
        -11   -1    0    0    0    0  0.00000000000E+00  0.00000000000E+00  0.50000000000E+03  0.50000000000E+03  0.00000000000E+00 0.  1.
         11   -1    0    0    0    0 -0.00000000000E+00 -0.00000000000E+00 -0.50000000000E+03  0.50000000000E+03  0.00000000000E+00 0.  1.
        -11    1    1    2    0    0 -0.11635172435E+02  0.30795528709E+01  0.49665403362E+03  0.49679984903E+03  0.00000000000E+00 0.  1.
         11    1    1    2    0    0 -0.10380975645E+02 -0.17607108005E+01 -0.42715728589E+03  0.42728703660E+03  0.00000000000E+00 0.  1.
        -15    1    1    2    0    0 -0.24306697710E+01 -0.25112130029E+01 -0.27253398234E+01  0.47748876882E+01  0.17770000000E+01 0.  1.
         15    1    1    2    0    0  0.24446817851E+02  0.11923709325E+01 -0.66771407914E+02  0.71138226681E+02  0.17770000000E+01 0.  1.
</event>
<event>
 6    1  0.3365733E-003  0.5012693E+03  0.7546771E-02  0.9396974E-01
        -11   -1    0    0    0    0  0.00000000000E+00  0.00000000000E+00  0.50000000000E+03  0.50000000000E+03  0.00000000000E+00 0.  1.
         11   -1    0    0    0    0 -0.00000000000E+00 -0.00000000000E+00 -0.50000000000E+03  0.50000000000E+03  0.00000000000E+00 0.  1.
        -11    1    1    2    0    0 -0.73681019842E+01 -0.41455805322E+01  0.43575140604E+03  0.43583341156E+03  0.00000000000E+00 0.  1.
         11    1    1    2    0    0 -0.35185058202E+01  0.64903920302E+01 -0.49867600797E+03  0.49873065476E+03  0.00000000000E+00 0.  1.
        -15    1    1    2    0    0 -0.25044298276E+01 -0.16286373226E+01  0.60757415347E+01  0.69997851743E+01  0.17770000000E+01 0. -1.
         15    1    1    2    0    0  0.13391037632E+02 -0.71617417547E+00  0.56848860399E+02  0.58436148504E+02  0.17770000000E+01 0.  1.
</event>
<event>
 6    1  0.3365733E-003  0.5005009E+03  0.7546771E-02  0.9398690E-01
        -11   -1    0    0    0    0  0.00000000000E+00  0.00000000000E+00  0.50000000000E+03  0.50000000000E+03  0.00000000000E+00 0.  1.
         11   -1    0    0    0    0 -0.00000000000E+00 -0.00000000000E+00 -0.50000000000E+03  0.50000000000E+03  0.00000000000E+00 0. -1.
        -11    1    1    2    0    0 -0.32301088537E+01  0.51924028383E+01  0.36318261744E+03  0.36323409568E+03  0.00000000000E+00 0.  1.
         11    1    1    2    0    0 -0.45983350750E+01 -0.75496674833E+01 -0.49942090020E+03  0.49949912685E+03  0.00000000000E+00 0. -1.
        -15    1    1    2    0    0  0.13489440489E+00 -0.44812994499E+01  0.20569633931E+02  0.21127418449E+02  0.17770000000E+01 0. -1.
         15    1    1    2    0    0  0.76935495238E+01  0.68385640948E+01  0.11566864883E+03  0.11613935902E+03  0.17770000000E+01 0.  1.
</event>
<event>
 6    1  0.3365733E-003  0.5013948E+03  0.7546771E-02  0.9396694E-01
        -11   -1    0    0    0    0  0.00000000000E+00  0.00000000000E+00  0.50000000000E+03  0.50000000000E+03  0.00000000000E+00 0. -1.
         11   -1    0    0    0    0 -0.00000000000E+00 -0.00000000000E+00 -0.50000000000E+03  0.50000000000E+03  0.00000000000E+00 0. -1.
        -11    1    1    2    0    0 -0.34077832069E+01  0.60609745225E+01  0.42510692178E+03  0.42516378414E+03  0.00000000000E+00 0. -1.
         11    1    1    2    0    0 -0.60504603285E+01  0.81916111855E+01 -0.49850117173E+03  0.49860518327E+03  0.00000000000E+00 0. -1.
        -15    1    1    2    0    0  0.55961063792E+01 -0.14867839916E+02  0.51671099744E+02  0.54087238312E+02  0.17770000000E+01 0. -1.
         15    1    1    2    0    0  0.38621371562E+01  0.61525420812E+00  0.21723150207E+02  0.22143794279E+02  0.17770000000E+01 0.  1.
</event>
<event>
 6    1  0.3365733E-003  0.5287226E+03  0.7546771E-02  0.9337739E-01
        -11   -1    0    0    0    0  0.00000000000E+00  0.00000000000E+00  0.50000000000E+03  0.50000000000E+03  0.00000000000E+00 0. -1.
         11   -1    0    0    0    0 -0.00000000000E+00 -0.00000000000E+00 -0.50000000000E+03  0.50000000000E+03  0.00000000000E+00 0.  1.
        -11    1    1    2    0    0  0.72570812172E+01  0.18460118831E+02  0.44730159705E+03  0.44774117517E+03  0.00000000000E+00 0. -1.
         11    1    1    2    0    0 -0.12154659940E+02  0.67860425173E+01 -0.47107172201E+03  0.47127736356E+03  0.00000000000E+00 0.  1.
        -15    1    1    2    0    0  0.23233510975E+02 -0.14725283646E+01  0.40365115922E+02  0.46631155727E+02  0.17770000000E+01 0.  1.
         15    1    1    2    0    0 -0.18335932252E+02 -0.23773632984E+02 -0.16594990965E+02  0.34350305544E+02  0.17770000000E+01 0. -1.
</event>
<event>
 6    1  0.3365733E-003  0.5416406E+03  0.7546771E-02  0.9311172E-01
        -11   -1    0    0    0    0  0.00000000000E+00  0.00000000000E+00  0.50000000000E+03  0.50000000000E+03  0.00000000000E+00 0. -1.
         11   -1    0    0    0    0 -0.00000000000E+00 -0.00000000000E+00 -0.50000000000E+03  0.50000000000E+03  0.00000000000E+00 0.  1.
        -11    1    1    2    0    0  0.39449058956E+02  0.10277651478E+02  0.45654299800E+03  0.45835943036E+03  0.00000000000E+00 0. -1.
         11    1    1    2    0    0 -0.40396418201E+01 -0.42228951355E+01 -0.41952673363E+03  0.41956743413E+03  0.00000000000E+00 0.  1.
        -15    1    1    2    0    0 -0.19388308464E+02 -0.17093102664E+02  0.37197521593E+02  0.45330938722E+02  0.17770000000E+01 0. -1.
         15    1    1    2    0    0 -0.16021108671E+02  0.11038346321E+02 -0.74213785962E+02  0.76742196792E+02  0.17770000000E+01 0.  1.
</event>
<event>
 6    1  0.3365733E-003  0.5072157E+03  0.7546771E-02  0.9383807E-01
        -11   -1    0    0    0    0  0.00000000000E+00  0.00000000000E+00  0.50000000000E+03  0.50000000000E+03  0.00000000000E+00 0. -1.
         11   -1    0    0    0    0 -0.00000000000E+00 -0.00000000000E+00 -0.50000000000E+03  0.50000000000E+03  0.00000000000E+00 0. -1.
        -11    1    1    2    0    0 -0.54153379746E+01 -0.97233451093E+01  0.49265861426E+03  0.49278431340E+03  0.00000000000E+00 0. -1.
         11    1    1    2    0    0  0.14616710431E+02  0.40131564751E+01 -0.36335731197E+03  0.36367332843E+03  0.00000000000E+00 0. -1.
        -15    1    1    2    0    0 -0.10434974200E+02 -0.27252936730E+02 -0.57471242784E+02  0.64480328187E+02  0.17770000000E+01 0.  1.
         15    1    1    2    0    0  0.12336017435E+01  0.32963125365E+02 -0.71830059505E+02  0.79062029980E+02  0.17770000000E+01 0. -1.
</event>
<event>
 6    1  0.3365733E-003  0.4926844E+03  0.7546771E-02  0.9416329E-01
        -11   -1    0    0    0    0  0.00000000000E+00  0.00000000000E+00  0.50000000000E+03  0.50000000000E+03  0.00000000000E+00 0. -1.
         11   -1    0    0    0    0 -0.00000000000E+00 -0.00000000000E+00 -0.50000000000E+03  0.50000000000E+03  0.00000000000E+00 0.  1.
        -11    1    1    2    0    0  0.52217325415E+00 -0.78295775861E+01  0.49267568068E+03  0.49273816707E+03  0.00000000000E+00 0. -1.
         11    1    1    2    0    0 -0.77411538028E+01  0.28407330556E+01 -0.49260072706E+03  0.49266973879E+03  0.00000000000E+00 0.  1.
        -15    1    1    2    0    0  0.57214243826E+01 -0.12855689010E+01  0.34474125519E+01  0.70306306025E+01  0.17770000000E+01 0. -1.
         15    1    1    2    0    0  0.14975561660E+01  0.62744134315E+01 -0.35223661765E+01  0.75614635396E+01  0.17770000000E+01 0.  1.
</event>
<event>
 6    1  0.3365733E-003  0.4207680E+03  0.7546771E-02  0.9596953E-01
        -11   -1    0    0    0    0  0.00000000000E+00  0.00000000000E+00  0.50000000000E+03  0.50000000000E+03  0.00000000000E+00 0. -1.
         11   -1    0    0    0    0 -0.00000000000E+00 -0.00000000000E+00 -0.50000000000E+03  0.50000000000E+03  0.00000000000E+00 0.  1.
        -11    1    1    2    0    0  0.27799734357E+02  0.12758604790E+02  0.42455157372E+03  0.42565202451E+03  0.00000000000E+00 0. -1.
         11    1    1    2    0    0  0.11399155056E+02 -0.10319097749E+02 -0.41655428603E+03  0.41683797539E+03  0.00000000000E+00 0.  1.
        -15    1    1    2    0    0 -0.27368576442E+02 -0.34832084079E+01  0.71735209660E+02  0.76878278800E+02  0.17770000000E+01 0. -1.
         15    1    1    2    0    0 -0.11830312971E+02  0.10437013664E+01 -0.79732497344E+02  0.80631721296E+02  0.17770000000E+01 0.  1.
</event>
<event>
 6    1  0.3365733E-003  0.5003096E+03  0.7546771E-02  0.9399117E-01
        -11   -1    0    0    0    0  0.00000000000E+00  0.00000000000E+00  0.50000000000E+03  0.50000000000E+03  0.00000000000E+00 0. -1.
         11   -1    0    0    0    0 -0.00000000000E+00 -0.00000000000E+00 -0.50000000000E+03  0.50000000000E+03  0.00000000000E+00 0.  1.
        -11    1    1    2    0    0 -0.12052597314E+01  0.86041741987E+01  0.14695879797E+03  0.14721539582E+03  0.00000000000E+00 0. -1.
         11    1    1    2    0    0  0.59964259098E+01 -0.66588185626E+01 -0.49961005819E+03  0.49969041138E+03  0.00000000000E+00 0.  1.
        -15    1    1    2    0    0  0.15984512538E+01  0.62562265881E+01  0.10085879673E+03  0.10108090831E+03  0.17770000000E+01 0.  1.
         15    1    1    2    0    0 -0.63896174322E+01 -0.82015822241E+01  0.25179246348E+03  0.25201328448E+03  0.17770000000E+01 0. -1.
</event>
<event>
 6    1  0.3365733E-003  0.5012401E+03  0.7546771E-02  0.9397039E-01
        -11   -1    0    0    0    0  0.00000000000E+00  0.00000000000E+00  0.50000000000E+03  0.50000000000E+03  0.00000000000E+00 0. -1.
         11   -1    0    0    0    0 -0.00000000000E+00 -0.00000000000E+00 -0.50000000000E+03  0.50000000000E+03  0.00000000000E+00 0.  1.
        -11    1    1    2    0    0 -0.38842634697E+00  0.35279908120E+01  0.17927938224E+03  0.17931451277E+03  0.00000000000E+00 0. -1.
         11    1    1    2    0    0 -0.12185134416E+02  0.63930834786E+01 -0.49857006941E+03  0.49875992535E+03  0.00000000000E+00 0.  1.
        -15    1    1    2    0    0  0.25407327456E+01 -0.10208141458E+02  0.29926408398E+03  0.29945418875E+03  0.17770000000E+01 0. -1.
         15    1    1    2    0    0  0.10032828017E+02  0.28706716702E+00  0.20026603200E+02  0.22471373129E+02  0.17770000000E+01 0.  1.
</event>
<event>
 6    1  0.3365733E-003  0.5275782E+03  0.7546771E-02  0.9340131E-01
        -11   -1    0    0    0    0  0.00000000000E+00  0.00000000000E+00  0.50000000000E+03  0.50000000000E+03  0.00000000000E+00 0. -1.
         11   -1    0    0    0    0 -0.00000000000E+00 -0.00000000000E+00 -0.50000000000E+03  0.50000000000E+03  0.00000000000E+00 0.  1.
        -11    1    1    2    0    0  0.63896977314E+01  0.30026077551E+01  0.47236908205E+03  0.47242183858E+03  0.00000000000E+00 0. -1.
         11    1    1    2    0    0  0.62313801913E+01  0.15044381425E+01 -0.45638665802E+03  0.45643167621E+03  0.00000000000E+00 0.  1.
        -15    1    1    2    0    0 -0.86534913238E+01  0.81448196448E+00 -0.42673067690E+02  0.43585487585E+02  0.17770000000E+01 0. -1.
         15    1    1    2    0    0 -0.39675865989E+01 -0.53215278621E+01  0.26690643659E+02  0.27560997626E+02  0.17770000000E+01 0.  1.
</event>
<event>
 6    1  0.3365733E-003  0.5063517E+03  0.7546771E-02  0.9385708E-01
        -11   -1    0    0    0    0  0.00000000000E+00  0.00000000000E+00  0.50000000000E+03  0.50000000000E+03  0.00000000000E+00 0. -1.
         11   -1    0    0    0    0 -0.00000000000E+00 -0.00000000000E+00 -0.50000000000E+03  0.50000000000E+03  0.00000000000E+00 0. -1.
        -11    1    1    2    0    0  0.84228966126E+01  0.32499802397E+01  0.49356574825E+03  0.49364831146E+03  0.00000000000E+00 0. -1.
         11    1    1    2    0    0  0.21206304120E+02  0.37992300350E+01 -0.39467302270E+03  0.39526059294E+03  0.00000000000E+00 0. -1.
        -15    1    1    2    0    0  0.80126087154E+00  0.68961893342E+01 -0.54431876672E+00  0.71870340361E+01  0.17770000000E+01 0.  1.
         15    1    1    2    0    0 -0.30430461604E+02 -0.13945399609E+02 -0.98348406782E+02  0.10390406156E+03  0.17770000000E+01 0. -1.
</event>
<event>
 6    1  0.3365733E-003  0.5188845E+03  0.7546771E-02  0.9358518E-01
        -11   -1    0    0    0    0  0.00000000000E+00  0.00000000000E+00  0.50000000000E+03  0.50000000000E+03  0.00000000000E+00 0.  1.
         11   -1    0    0    0    0 -0.00000000000E+00 -0.00000000000E+00 -0.50000000000E+03  0.50000000000E+03  0.00000000000E+00 0. -1.
        -11    1    1    2    0    0  0.17738550976E+01  0.66776991037E+01  0.48106593020E+03  0.48111554477E+03  0.00000000000E+00 0.  1.
         11    1    1    2    0    0 -0.12118123291E+02  0.45055562694E-01 -0.46395245917E+03  0.46411069295E+03  0.00000000000E+00 0. -1.
        -15    1    1    2    0    0  0.26634834835E+02 -0.33027730765E+01 -0.24586307740E+02  0.36441281453E+02  0.17770000000E+01 0. -1.
         15    1    1    2    0    0 -0.16290566641E+02 -0.34199815899E+01  0.74728367133E+01  0.18332480823E+02  0.17770000000E+01 0.  1.
</event>
<event>
 6    1  0.3365733E-003  0.5089628E+03  0.7546771E-02  0.9379975E-01
        -11   -1    0    0    0    0  0.00000000000E+00  0.00000000000E+00  0.50000000000E+03  0.50000000000E+03  0.00000000000E+00 0.  1.
         11   -1    0    0    0    0 -0.00000000000E+00 -0.00000000000E+00 -0.50000000000E+03  0.50000000000E+03  0.00000000000E+00 0. -1.
        -11    1    1    2    0    0  0.47965629187E+01  0.82706777652E+01  0.49094411884E+03  0.49103720730E+03  0.00000000000E+00 0.  1.
         11    1    1    2    0    0  0.82436361593E+01  0.12144857913E+02 -0.44807372801E+03  0.44831408727E+03  0.00000000000E+00 0. -1.
        -15    1    1    2    0    0  0.10657027243E+02 -0.11195990814E+02 -0.81145052586E+01  0.17547802271E+02  0.17770000000E+01 0. -1.
         15    1    1    2    0    0 -0.23697226321E+02 -0.92195448642E+01 -0.34755885572E+02  0.43100903165E+02  0.17770000000E+01 0.  1.
</event>
<event>
 6    1  0.3365733E-003  0.5033489E+03  0.7546771E-02  0.9392347E-01
        -11   -1    0    0    0    0  0.00000000000E+00  0.00000000000E+00  0.50000000000E+03  0.50000000000E+03  0.00000000000E+00 0.  1.
         11   -1    0    0    0    0 -0.00000000000E+00 -0.00000000000E+00 -0.50000000000E+03  0.50000000000E+03  0.00000000000E+00 0.  1.
        -11    1    1    2    0    0 -0.70388271528E+01 -0.49588020726E+01  0.49657646331E+03  0.49665110362E+03  0.00000000000E+00 0.  1.
         11    1    1    2    0    0  0.54268345574E+01 -0.66511064099E+01 -0.48173194458E+03  0.48180842062E+03  0.00000000000E+00 0.  1.
        -15    1    1    2    0    0  0.42543525848E+01  0.74833183242E+01 -0.43154237475E+01  0.97918425323E+01  0.17770000000E+01 0. -1.
         15    1    1    2    0    0 -0.26423599895E+01  0.41265901583E+01 -0.10529094983E+02  0.11748633231E+02  0.17770000000E+01 0.  1.
</event>
<event>
 6    1  0.3365733E-003  0.5073327E+03  0.7546771E-02  0.9383550E-01
        -11   -1    0    0    0    0  0.00000000000E+00  0.00000000000E+00  0.50000000000E+03  0.50000000000E+03  0.00000000000E+00 0. -1.
         11   -1    0    0    0    0 -0.00000000000E+00 -0.00000000000E+00 -0.50000000000E+03  0.50000000000E+03  0.00000000000E+00 0. -1.
        -11    1    1    2    0    0  0.62254656221E+01 -0.72368757699E+01  0.49257480493E+03  0.49266729874E+03  0.00000000000E+00 0. -1.
         11    1    1    2    0    0 -0.76155143779E+01  0.37578790711E+01 -0.48557595201E+03  0.48565020630E+03  0.00000000000E+00 0. -1.
        -15    1    1    2    0    0 -0.49086444923E+01  0.77472006294E+01 -0.96504835726E+01  0.13431435907E+02  0.17770000000E+01 0. -1.
         15    1    1    2    0    0  0.62986932481E+01 -0.42682039306E+01  0.26516306487E+01  0.82510590547E+01  0.17770000000E+01 0.  1.
</event>
<event>
 6    1  0.3365733E-003  0.5014381E+03  0.7546771E-02  0.9396598E-01
        -11   -1    0    0    0    0  0.00000000000E+00  0.00000000000E+00  0.50000000000E+03  0.50000000000E+03  0.00000000000E+00 0.  1.
         11   -1    0    0    0    0 -0.00000000000E+00 -0.00000000000E+00 -0.50000000000E+03  0.50000000000E+03  0.00000000000E+00 0.  1.
        -11    1    1    2    0    0  0.44993688158E+00  0.77627311734E+01  0.49850130370E+03  0.49856194422E+03  0.00000000000E+00 0.  1.
         11    1    1    2    0    0  0.37673866030E+01 -0.13571021169E+02 -0.40250509250E+03  0.40275143116E+03  0.00000000000E+00 0.  1.
        -15    1    1    2    0    0 -0.38542881635E+01  0.11226958828E+02 -0.88241456669E+02  0.89053986692E+02  0.17770000000E+01 0.  1.
         15    1    1    2    0    0 -0.36303532106E+00 -0.54186688321E+01 -0.77547545315E+01  0.96326379253E+01  0.17770000000E+01 0.  1.
</event>
<event>
 6    1  0.3365733E-003  0.5145206E+03  0.7546771E-02  0.9367892E-01
        -11   -1    0    0    0    0  0.00000000000E+00  0.00000000000E+00  0.50000000000E+03  0.50000000000E+03  0.00000000000E+00 0. -1.
         11   -1    0    0    0    0 -0.00000000000E+00 -0.00000000000E+00 -0.50000000000E+03  0.50000000000E+03  0.00000000000E+00 0. -1.
        -11    1    1    2    0    0 -0.98058904040E+01  0.17896827314E+02  0.48505026591E+03  0.48547936348E+03  0.00000000000E+00 0. -1.
         11    1    1    2    0    0 -0.22278609474E+02 -0.56518225992E+01 -0.43530493165E+03  0.43591130183E+03  0.00000000000E+00 0. -1.
        -15    1    1    2    0    0  0.32094401754E+02  0.33474487599E+01 -0.53472173909E+02  0.62479493825E+02  0.17770000000E+01 0. -1.
         15    1    1    2    0    0 -0.99018758007E-02 -0.15592453475E+02  0.37268396575E+01  0.16129840862E+02  0.17770000000E+01 0.  1.
</event>
<event>
 6    1  0.3365733E-003  0.5070947E+03  0.7546771E-02  0.9384073E-01
        -11   -1    0    0    0    0  0.00000000000E+00  0.00000000000E+00  0.50000000000E+03  0.50000000000E+03  0.00000000000E+00 0. -1.
         11   -1    0    0    0    0 -0.00000000000E+00 -0.00000000000E+00 -0.50000000000E+03  0.50000000000E+03  0.00000000000E+00 0.  1.
        -11    1    1    2    0    0 -0.87544972723E+01 -0.61371780619E+01  0.41503503165E+03  0.41517271548E+03  0.00000000000E+00 0. -1.
         11    1    1    2    0    0 -0.27922738920E+02 -0.60882492301E+01 -0.49207608469E+03  0.49290528426E+03  0.00000000000E+00 0.  1.
        -15    1    1    2    0    0  0.28442152025E+02  0.22599985806E+02  0.61246443855E+02  0.71232015163E+02  0.17770000000E+01 0. -1.
         15    1    1    2    0    0  0.82350841673E+01 -0.10374558514E+02  0.15794609178E+02  0.20689985106E+02  0.17770000000E+01 0.  1.
</event>
<event>
 6    1  0.3365733E-003  0.4847645E+03  0.7546771E-02  0.9434561E-01
        -11   -1    0    0    0    0  0.00000000000E+00  0.00000000000E+00  0.50000000000E+03  0.50000000000E+03  0.00000000000E+00 0. -1.
         11   -1    0    0    0    0 -0.00000000000E+00 -0.00000000000E+00 -0.50000000000E+03  0.50000000000E+03  0.00000000000E+00 0.  1.
        -11    1    1    2    0    0 -0.80777650175E+00  0.90638394181E+01  0.47961195972E+03  0.47969827766E+03  0.00000000000E+00 0. -1.
         11    1    1    2    0    0  0.13570321643E+01  0.13403770299E+02 -0.48996114899E+03  0.49014633541E+03  0.00000000000E+00 0.  1.
        -15    1    1    2    0    0 -0.37715260377E+01 -0.22341792130E+02  0.43855750202E+01  0.23146729391E+02  0.17770000000E+01 0.  1.
         15    1    1    2    0    0  0.32222703751E+01 -0.12581758687E+00  0.59636142546E+01  0.70086575329E+01  0.17770000000E+01 0. -1.
</event>
<event>
 6    1  0.3365733E-003  0.5021340E+03  0.7546771E-02  0.9395047E-01
        -11   -1    0    0    0    0  0.00000000000E+00  0.00000000000E+00  0.50000000000E+03  0.50000000000E+03  0.00000000000E+00 0. -1.
         11   -1    0    0    0    0 -0.00000000000E+00 -0.00000000000E+00 -0.50000000000E+03  0.50000000000E+03  0.00000000000E+00 0.  1.
        -11    1    1    2    0    0 -0.50997671386E+01 -0.48061154001E+01  0.49781663971E+03  0.49786595901E+03  0.00000000000E+00 0. -1.
         11    1    1    2    0    0 -0.11294942138E+01  0.13658514662E+02 -0.43435059400E+03  0.43456676045E+03  0.00000000000E+00 0.  1.
        -15    1    1    2    0    0  0.47806017296E+01 -0.14700107724E+02 -0.54076805034E+02  0.56270826293E+02  0.17770000000E+01 0. -1.
         15    1    1    2    0    0  0.14486596227E+01  0.58477084615E+01 -0.93892406732E+01  0.11296454239E+02  0.17770000000E+01 0.  1.
</event>
<event>
 6    1  0.3365733E-003  0.5006376E+03  0.7546771E-02  0.9398384E-01
        -11   -1    0    0    0    0  0.00000000000E+00  0.00000000000E+00  0.50000000000E+03  0.50000000000E+03  0.00000000000E+00 0.  1.
         11   -1    0    0    0    0 -0.00000000000E+00 -0.00000000000E+00 -0.50000000000E+03  0.50000000000E+03  0.00000000000E+00 0. -1.
        -11    1    1    2    0    0  0.76726457841E+01  0.68826206394E+00  0.39171735549E+03  0.39179309564E+03  0.00000000000E+00 0.  1.
         11    1    1    2    0    0 -0.97140954179E+01 -0.42997649546E+01 -0.49924942889E+03  0.49936243739E+03  0.00000000000E+00 0. -1.
        -15    1    1    2    0    0  0.45234654294E+01  0.46188499975E+01  0.17279687192E+02  0.18534854552E+02  0.17770000000E+01 0. -1.
         15    1    1    2    0    0 -0.24820157956E+01 -0.10073471068E+01  0.90252386207E+02  0.90309612421E+02  0.17770000000E+01 0.  1.
</event>
<event>
 6    1  0.3365733E-003  0.5485046E+03  0.7546771E-02  0.9297373E-01
        -11   -1    0    0    0    0  0.00000000000E+00  0.00000000000E+00  0.50000000000E+03  0.50000000000E+03  0.00000000000E+00 0.  1.
         11   -1    0    0    0    0 -0.00000000000E+00 -0.00000000000E+00 -0.50000000000E+03  0.50000000000E+03  0.00000000000E+00 0. -1.
        -11    1    1    2    0    0 -0.31379208840E+01  0.90286857341E+01  0.37092453668E+03  0.37104767298E+03  0.00000000000E+00 0.  1.
         11    1    1    2    0    0 -0.36588815981E+02 -0.40567421344E+02 -0.44817815254E+03  0.45149541919E+03  0.00000000000E+00 0. -1.
        -15    1    1    2    0    0  0.14351735787E+02  0.18686892156E+01  0.11922158055E+03  0.12010998009E+03  0.17770000000E+01 0.  1.
         15    1    1    2    0    0  0.25375001078E+02  0.29670046394E+02 -0.41967964685E+02  0.57346927743E+02  0.17770000000E+01 0. -1.
</event>
<event>
 6    1  0.3365733E-003  0.5081546E+03  0.7546771E-02  0.9381746E-01
        -11   -1    0    0    0    0  0.00000000000E+00  0.00000000000E+00  0.50000000000E+03  0.50000000000E+03  0.00000000000E+00 0.  1.
         11   -1    0    0    0    0 -0.00000000000E+00 -0.00000000000E+00 -0.50000000000E+03  0.50000000000E+03  0.00000000000E+00 0. -1.
        -11    1    1    2    0    0 -0.22383755581E+01 -0.93723076825E+01  0.40864284050E+03  0.40875643306E+03  0.00000000000E+00 0.  1.
         11    1    1    2    0    0  0.61654456665E+01 -0.98568800228E+01 -0.49170797928E+03  0.49184541036E+03  0.00000000000E+00 0. -1.
        -15    1    1    2    0    0 -0.14295321480E+02  0.19019480492E+02  0.10488250473E+02  0.26062578180E+02  0.17770000000E+01 0.  1.
         15    1    1    2    0    0  0.10368251372E+02  0.20970721364E+00  0.72576888313E+02  0.73335578403E+02  0.17770000000E+01 0. -1.
</event>
<event>
 6    1  0.3365733E-003  0.5102780E+03  0.7546771E-02  0.9377101E-01
        -11   -1    0    0    0    0  0.00000000000E+00  0.00000000000E+00  0.50000000000E+03  0.50000000000E+03  0.00000000000E+00 0.  1.
         11   -1    0    0    0    0 -0.00000000000E+00 -0.00000000000E+00 -0.50000000000E+03  0.50000000000E+03  0.00000000000E+00 0. -1.
        -11    1    1    2    0    0  0.11029384650E+02  0.18393386075E+01  0.47814960810E+03  0.47828033435E+03  0.00000000000E+00 0.  1.
         11    1    1    2    0    0 -0.19873476371E+01  0.97768123143E+01 -0.48962038715E+03  0.48972202230E+03  0.00000000000E+00 0. -1.
        -15    1    1    2    0    0  0.73353076216E+01 -0.25161487395E+01  0.10471988277E+02  0.13151350116E+02  0.17770000000E+01 0.  1.
         15    1    1    2    0    0 -0.16377344634E+02 -0.91000021823E+01  0.99879076805E+00  0.18846293243E+02  0.17770000000E+01 0. -1.
</event>
<event>
 6    1  0.3365733E-003  0.5038096E+03  0.7546771E-02  0.9391326E-01
        -11   -1    0    0    0    0  0.00000000000E+00  0.00000000000E+00  0.50000000000E+03  0.50000000000E+03  0.00000000000E+00 0.  1.
         11   -1    0    0    0    0 -0.00000000000E+00 -0.00000000000E+00 -0.50000000000E+03  0.50000000000E+03  0.00000000000E+00 0. -1.
        -11    1    1    2    0    0 -0.11018965464E+02 -0.50700337663E+01  0.47092156189E+03  0.47107774336E+03  0.00000000000E+00 0.  1.
         11    1    1    2    0    0  0.39292229443E+01 -0.88953854942E+01 -0.49609514348E+03  0.49619044536E+03  0.00000000000E+00 0. -1.
        -15    1    1    2    0    0 -0.78338159073E+00  0.27283878668E+01 -0.67239225928E+00  0.34157908921E+01  0.17770000000E+01 0.  1.
         15    1    1    2    0    0  0.78731241108E+01  0.11237031394E+02  0.25845973856E+02  0.29316020388E+02  0.17770000000E+01 0. -1.
</event>
<event>
 6    1  0.3365733E-003  0.5390150E+03  0.7546771E-02  0.9316508E-01
        -11   -1    0    0    0    0  0.00000000000E+00  0.00000000000E+00  0.50000000000E+03  0.50000000000E+03  0.00000000000E+00 0.  1.
         11   -1    0    0    0    0 -0.00000000000E+00 -0.00000000000E+00 -0.50000000000E+03  0.50000000000E+03  0.00000000000E+00 0. -1.
        -11    1    1    2    0    0  0.70633369649E+01 -0.55068652051E+01  0.38172653448E+03  0.38183159039E+03  0.00000000000E+00 0.  1.
         11    1    1    2    0    0  0.33877865999E+02 -0.64038125263E+02 -0.45525655945E+03  0.46098495227E+03  0.00000000000E+00 0. -1.
        -15    1    1    2    0    0 -0.39048391950E+01  0.18337392483E+01  0.79609024280E+02  0.79745625865E+02  0.17770000000E+01 0.  1.
         15    1    1    2    0    0 -0.37036363769E+02  0.67711251219E+02 -0.60789993067E+01  0.77437831481E+02  0.17770000000E+01 0. -1.
</event>
<event>
 6    1  0.3365733E-003  0.5174424E+03  0.7546771E-02  0.9361605E-01
        -11   -1    0    0    0    0  0.00000000000E+00  0.00000000000E+00  0.50000000000E+03  0.50000000000E+03  0.00000000000E+00 0. -1.
         11   -1    0    0    0    0 -0.00000000000E+00 -0.00000000000E+00 -0.50000000000E+03  0.50000000000E+03  0.00000000000E+00 0. -1.
        -11    1    1    2    0    0 -0.36599380258E+02 -0.39589257095E+01  0.45111346308E+03  0.45261301826E+03  0.00000000000E+00 0. -1.
         11    1    1    2    0    0 -0.10676618140E+01 -0.87695339144E+01 -0.48247668580E+03  0.48255755819E+03  0.00000000000E+00 0. -1.
        -15    1    1    2    0    0  0.41782583627E+02  0.11161528160E+02  0.37361663553E+02  0.57178804096E+02  0.17770000000E+01 0. -1.
         15    1    1    2    0    0 -0.41155415547E+01  0.15669314637E+01 -0.59984408352E+01  0.76506194490E+01  0.17770000000E+01 0.  1.
</event>
<event>
 6    1  0.3365733E-003  0.5045479E+03  0.7546771E-02  0.9389691E-01
        -11   -1    0    0    0    0  0.00000000000E+00  0.00000000000E+00  0.50000000000E+03  0.50000000000E+03  0.00000000000E+00 0.  1.
         11   -1    0    0    0    0 -0.00000000000E+00 -0.00000000000E+00 -0.50000000000E+03  0.50000000000E+03  0.00000000000E+00 0. -1.
        -11    1    1    2    0    0  0.92495151134E+01 -0.16664493040E+01  0.49536294230E+03  0.49545209172E+03  0.00000000000E+00 0.  1.
         11    1    1    2    0    0 -0.65701431985E+01  0.94710826183E+01 -0.45609972151E+03  0.45624535521E+03  0.00000000000E+00 0. -1.
        -15    1    1    2    0    0  0.40804684155E+01 -0.15277860860E+02 -0.14579538855E+02  0.21582028106E+02  0.17770000000E+01 0.  1.
         15    1    1    2    0    0 -0.67598403303E+01  0.74732275456E+01 -0.24683681937E+02  0.26720524961E+02  0.17770000000E+01 0. -1.
</event>
<event>
 6    1  0.3365733E-003  0.5022398E+03  0.7546771E-02  0.9394812E-01
        -11   -1    0    0    0    0  0.00000000000E+00  0.00000000000E+00  0.50000000000E+03  0.50000000000E+03  0.00000000000E+00 0. -1.
         11   -1    0    0    0    0 -0.00000000000E+00 -0.00000000000E+00 -0.50000000000E+03  0.50000000000E+03  0.00000000000E+00 0.  1.
        -11    1    1    2    0    0 -0.58165270050E+01 -0.86117652989E+01  0.27006006339E+03  0.27025993474E+03  0.00000000000E+00 0. -1.
         11    1    1    2    0    0 -0.34178192612E+01 -0.92737556745E+01 -0.49766205815E+03  0.49776019141E+03  0.00000000000E+00 0.  1.
        -15    1    1    2    0    0  0.10004790070E+02  0.70771413094E+01  0.16689288716E+02  0.20781526419E+02  0.17770000000E+01 0.  1.
         15    1    1    2    0    0 -0.77044380344E+00  0.10808379664E+02  0.21091270605E+03  0.21119834743E+03  0.17770000000E+01 0. -1.
</event>
<event>
 6    1  0.3365733E-003  0.5003818E+03  0.7546771E-02  0.9398956E-01
        -11   -1    0    0    0    0  0.00000000000E+00  0.00000000000E+00  0.50000000000E+03  0.50000000000E+03  0.00000000000E+00 0.  1.
         11   -1    0    0    0    0 -0.00000000000E+00 -0.00000000000E+00 -0.50000000000E+03  0.50000000000E+03  0.00000000000E+00 0. -1.
        -11    1    1    2    0    0 -0.21940852911E+02  0.80235230859E+01  0.49907170922E+03  0.49961820313E+03  0.00000000000E+00 0.  1.
         11    1    1    2    0    0  0.12411021028E+02 -0.48366635382E+01 -0.18038497300E+03  0.18087610467E+03  0.00000000000E+00 0. -1.
        -15    1    1    2    0    0 -0.16942905551E+01 -0.95318755563E+01 -0.13990794779E+03  0.14025376593E+03  0.17770000000E+01 0.  1.
         15    1    1    2    0    0  0.11224122438E+02  0.63450160086E+01 -0.17877878843E+03  0.17925192628E+03  0.17770000000E+01 0. -1.
</event>
<event>
 6    1  0.3365733E-003  0.4898958E+03  0.7546771E-02  0.9422707E-01
        -11   -1    0    0    0    0  0.00000000000E+00  0.00000000000E+00  0.50000000000E+03  0.50000000000E+03  0.00000000000E+00 0.  1.
         11   -1    0    0    0    0 -0.00000000000E+00 -0.00000000000E+00 -0.50000000000E+03  0.50000000000E+03  0.00000000000E+00 0. -1.
        -11    1    1    2    0    0 -0.84672382530E+01 -0.55763597056E+01  0.48982216449E+03  0.48992707900E+03  0.00000000000E+00 0.  1.
         11    1    1    2    0    0  0.17853583781E+01 -0.71166614289E+01 -0.48991459994E+03  0.48996953947E+03  0.00000000000E+00 0. -1.
        -15    1    1    2    0    0  0.12091528341E+01  0.49823350090E+01  0.65579349201E+01  0.85117537637E+01  0.17770000000E+01 0. -1.
         15    1    1    2    0    0  0.54727270407E+01  0.77106861255E+01 -0.64654994742E+01  0.11591627765E+02  0.17770000000E+01 0.  1.
</event>
<event>
 6    1  0.3365733E-003  0.5012672E+03  0.7546771E-02  0.9396979E-01
        -11   -1    0    0    0    0  0.00000000000E+00  0.00000000000E+00  0.50000000000E+03  0.50000000000E+03  0.00000000000E+00 0. -1.
         11   -1    0    0    0    0 -0.00000000000E+00 -0.00000000000E+00 -0.50000000000E+03  0.50000000000E+03  0.00000000000E+00 0. -1.
        -11    1    1    2    0    0 -0.24166286703E+01 -0.80702901142E+01  0.39504782849E+03  0.39513764243E+03  0.00000000000E+00 0. -1.
         11    1    1    2    0    0  0.98183319274E+01  0.17705350449E+00 -0.49863614728E+03  0.49873283265E+03  0.00000000000E+00 0. -1.
        -15    1    1    2    0    0 -0.70563255753E+01  0.84953946615E+00  0.10762886966E+02  0.13019635662E+02  0.17770000000E+01 0.  1.
         15    1    1    2    0    0 -0.34537768185E+00  0.70436971435E+01  0.92825431824E+02  0.93109889257E+02  0.17770000000E+01 0. -1.
</event>
<event>
 6    1  0.3365733E-003  0.5084861E+03  0.7546771E-02  0.9381019E-01
        -11   -1    0    0    0    0  0.00000000000E+00  0.00000000000E+00  0.50000000000E+03  0.50000000000E+03  0.00000000000E+00 0.  1.
         11   -1    0    0    0    0 -0.00000000000E+00 -0.00000000000E+00 -0.50000000000E+03  0.50000000000E+03  0.00000000000E+00 0. -1.
        -11    1    1    2    0    0 -0.12558306625E+02  0.32197084235E+01  0.18476074281E+03  0.18521503630E+03  0.00000000000E+00 0.  1.
         11    1    1    2    0    0  0.16490896577E+01 -0.17960244064E+02 -0.49118288781E+03  0.49151390534E+03  0.00000000000E+00 0. -1.
        -15    1    1    2    0    0 -0.74850798897E+01  0.48560951398E+00  0.29853625483E+03  0.29863575710E+03  0.17770000000E+01 0.  1.
         15    1    1    2    0    0  0.18394296857E+02  0.14254926127E+02  0.78858901627E+01  0.24635301264E+02  0.17770000000E+01 0. -1.
</event>
<event>
 6    1  0.3365733E-003  0.5135214E+03  0.7546771E-02  0.9370053E-01
        -11   -1    0    0    0    0  0.00000000000E+00  0.00000000000E+00  0.50000000000E+03  0.50000000000E+03  0.00000000000E+00 0.  1.
         11   -1    0    0    0    0 -0.00000000000E+00 -0.00000000000E+00 -0.50000000000E+03  0.50000000000E+03  0.00000000000E+00 0.  1.
        -11    1    1    2    0    0  0.10450677548E+02  0.99258129506E+01  0.48626506726E+03  0.48647862652E+03  0.00000000000E+00 0.  1.
         11    1    1    2    0    0  0.65480481800E+01  0.18624038822E+01 -0.45384201870E+03  0.45389307488E+03  0.00000000000E+00 0.  1.
        -15    1    1    2    0    0 -0.19633125041E+02 -0.96719872212E+01  0.45783364633E+01  0.22430466546E+02  0.17770000000E+01 0. -1.
         15    1    1    2    0    0  0.26343993137E+01 -0.21162296115E+01 -0.37001385018E+02  0.37197832057E+02  0.17770000000E+01 0.  1.
</event>
<event>
 6    1  0.3365733E-003  0.5312186E+03  0.7546771E-02  0.9332544E-01
        -11   -1    0    0    0    0  0.00000000000E+00  0.00000000000E+00  0.50000000000E+03  0.50000000000E+03  0.00000000000E+00 0. -1.
         11   -1    0    0    0    0 -0.00000000000E+00 -0.00000000000E+00 -0.50000000000E+03  0.50000000000E+03  0.00000000000E+00 0. -1.
        -11    1    1    2    0    0  0.67986709728E+01 -0.45483075833E+01  0.46871005345E+03  0.46878142373E+03  0.00000000000E+00 0. -1.
         11    1    1    2    0    0  0.44220925189E+01 -0.77213847921E+01 -0.37940317519E+03  0.37950750195E+03  0.00000000000E+00 0. -1.
        -15    1    1    2    0    0 -0.43612120008E+02 -0.12856599466E+02  0.79142787103E+01  0.46185524767E+02  0.17770000000E+01 0. -1.
         15    1    1    2    0    0  0.32391356517E+02  0.25126291842E+02 -0.97221156966E+02  0.10552554956E+03  0.17770000000E+01 0.  1.
</event>
<event>
 6    1  0.3365733E-003  0.5030146E+03  0.7546771E-02  0.9393089E-01
        -11   -1    0    0    0    0  0.00000000000E+00  0.00000000000E+00  0.50000000000E+03  0.50000000000E+03  0.00000000000E+00 0.  1.
         11   -1    0    0    0    0 -0.00000000000E+00 -0.00000000000E+00 -0.50000000000E+03  0.50000000000E+03  0.00000000000E+00 0. -1.
        -11    1    1    2    0    0  0.10301828687E+02 -0.77329072958E+00  0.49687801026E+03  0.49698539489E+03  0.00000000000E+00 0.  1.
         11    1    1    2    0    0 -0.11111537184E+02 -0.39358405252E-01 -0.45124188960E+03  0.45137867776E+03  0.00000000000E+00 0. -1.
        -15    1    1    2    0    0 -0.41653826446E+01 -0.64798748835E+01 -0.36723300931E+01  0.87168187084E+01  0.17770000000E+01 0.  1.
         15    1    1    2    0    0  0.49750911424E+01  0.72925240183E+01 -0.41963790571E+02  0.42919108640E+02  0.17770000000E+01 0. -1.
</event>
<event>
 6    1  0.3365733E-003  0.5261961E+03  0.7546771E-02  0.9343029E-01
        -11   -1    0    0    0    0  0.00000000000E+00  0.00000000000E+00  0.50000000000E+03  0.50000000000E+03  0.00000000000E+00 0. -1.
         11   -1    0    0    0    0 -0.00000000000E+00 -0.00000000000E+00 -0.50000000000E+03  0.50000000000E+03  0.00000000000E+00 0.  1.
        -11    1    1    2    0    0  0.54072314794E+01 -0.90528760111E+01  0.26660347171E+03  0.26681192598E+03  0.00000000000E+00 0. -1.
         11    1    1    2    0    0 -0.31030157727E+02 -0.31536050283E+02 -0.47173373140E+03  0.47380386923E+03  0.00000000000E+00 0.  1.
        -15    1    1    2    0    0  0.25630239910E+02 -0.51731586006E+01 -0.17876402245E+02  0.31723717531E+02  0.17770000000E+01 0.  1.
         15    1    1    2    0    0 -0.73136617459E-02  0.45762084895E+02  0.22300666193E+03  0.22766048726E+03  0.17770000000E+01 0. -1.
</event>
<event>
 6    1  0.3365733E-003  0.4811410E+03  0.7546771E-02  0.9443026E-01
        -11   -1    0    0    0    0  0.00000000000E+00  0.00000000000E+00  0.50000000000E+03  0.50000000000E+03  0.00000000000E+00 0. -1.
         11   -1    0    0    0    0 -0.00000000000E+00 -0.00000000000E+00 -0.50000000000E+03  0.50000000000E+03  0.00000000000E+00 0. -1.
        -11    1    1    2    0    0 -0.53179317616E+00 -0.83817874305E+01  0.47767367068E+03  0.47774749902E+03  0.00000000000E+00 0. -1.
         11    1    1    2    0    0 -0.16016574328E+02  0.11751699893E+02 -0.48429813009E+03  0.48470538672E+03  0.00000000000E+00 0. -1.
        -15    1    1    2    0    0 -0.26134314710E+01  0.81008023343E+01  0.11698656798E+02  0.14576327466E+02  0.17770000000E+01 0.  1.
         15    1    1    2    0    0  0.19161798975E+02 -0.11470714797E+02 -0.50741973865E+01  0.22970786796E+02  0.17770000000E+01 0.  1.
</event>
<event>
 6    1  0.3365733E-003  0.5089216E+03  0.7546771E-02  0.9380065E-01
        -11   -1    0    0    0    0  0.00000000000E+00  0.00000000000E+00  0.50000000000E+03  0.50000000000E+03  0.00000000000E+00 0. -1.
         11   -1    0    0    0    0 -0.00000000000E+00 -0.00000000000E+00 -0.50000000000E+03  0.50000000000E+03  0.00000000000E+00 0.  1.
        -11    1    1    2    0    0 -0.73838830092E+01 -0.48253407270E+01  0.49099922165E+03  0.49107844720E+03  0.00000000000E+00 0. -1.
         11    1    1    2    0    0  0.10013541606E+02 -0.84165509996E+01 -0.45104181491E+03  0.45123145740E+03  0.00000000000E+00 0.  1.
        -15    1    1    2    0    0  0.14482733879E+02  0.18553762028E+02 -0.22956974018E+02  0.32926768002E+02  0.17770000000E+01 0.  1.
         15    1    1    2    0    0 -0.17112392476E+02 -0.53118703014E+01 -0.17000432720E+02  0.24763327402E+02  0.17770000000E+01 0. -1.
</event>
<event>
 6    1  0.3365733E-003  0.5473206E+03  0.7546771E-02  0.9299738E-01
        -11   -1    0    0    0    0  0.00000000000E+00  0.00000000000E+00  0.50000000000E+03  0.50000000000E+03  0.00000000000E+00 0.  1.
         11   -1    0    0    0    0 -0.00000000000E+00 -0.00000000000E+00 -0.50000000000E+03  0.50000000000E+03  0.00000000000E+00 0. -1.
        -11    1    1    2    0    0  0.50794365237E+01 -0.15463684011E+01  0.34685456485E+03  0.34689520189E+03  0.00000000000E+00 0.  1.
         11    1    1    2    0    0  0.17699419972E+00  0.61768994971E+01 -0.45263718846E+03  0.45267936754E+03  0.00000000000E+00 0. -1.
        -15    1    1    2    0    0 -0.50955493301E+01 -0.17009820806E+01 -0.47132961645E+02  0.47471378382E+02  0.17770000000E+01 0.  1.
         15    1    1    2    0    0 -0.16088139327E+00 -0.29295490153E+01  0.15291558525E+03  0.15295405219E+03  0.17770000000E+01 0. -1.
</event>
<event>
 6    1  0.3365733E-003  0.5166566E+03  0.7546771E-02  0.9363292E-01
        -11   -1    0    0    0    0  0.00000000000E+00  0.00000000000E+00  0.50000000000E+03  0.50000000000E+03  0.00000000000E+00 0. -1.
         11   -1    0    0    0    0 -0.00000000000E+00 -0.00000000000E+00 -0.50000000000E+03  0.50000000000E+03  0.00000000000E+00 0.  1.
        -11    1    1    2    0    0  0.70680983187E+01  0.16341677777E+01  0.41113193154E+03  0.41119593097E+03  0.00000000000E+00 0. -1.
         11    1    1    2    0    0 -0.38536618000E+02  0.18939345570E+02 -0.48143233490E+03  0.48334342121E+03  0.00000000000E+00 0.  1.
        -15    1    1    2    0    0 -0.39748033103E+01 -0.18353128110E+02  0.67167338876E+02  0.69765647087E+02  0.17770000000E+01 0. -1.
         15    1    1    2    0    0  0.35443322992E+02 -0.22203852376E+01  0.31330644843E+01  0.35695000734E+02  0.17770000000E+01 0.  1.
</event>
<event>
 6    1  0.3365733E-003  0.5183794E+03  0.7546771E-02  0.9359598E-01
        -11   -1    0    0    0    0  0.00000000000E+00  0.00000000000E+00  0.50000000000E+03  0.50000000000E+03  0.00000000000E+00 0.  1.
         11   -1    0    0    0    0 -0.00000000000E+00 -0.00000000000E+00 -0.50000000000E+03  0.50000000000E+03  0.00000000000E+00 0. -1.
        -11    1    1    2    0    0  0.91086567804E+01  0.13484359614E+02  0.46235552676E+03  0.46264179308E+03  0.00000000000E+00 0.  1.
         11    1    1    2    0    0  0.60671022073E+00  0.12061908313E+02 -0.48146910626E+03  0.48162055398E+03  0.00000000000E+00 0. -1.
        -15    1    1    2    0    0 -0.82352424742E+01 -0.27953022845E+02  0.31476806937E+02  0.42931780870E+02  0.17770000000E+01 0. -1.
         15    1    1    2    0    0 -0.14801245269E+01  0.24067549180E+01 -0.12363227433E+02  0.12805872068E+02  0.17770000000E+01 0.  1.
</event>
<event>
 6    1  0.3365733E-003  0.5018110E+03  0.7546771E-02  0.9395767E-01
        -11   -1    0    0    0    0  0.00000000000E+00  0.00000000000E+00  0.50000000000E+03  0.50000000000E+03  0.00000000000E+00 0. -1.
         11   -1    0    0    0    0 -0.00000000000E+00 -0.00000000000E+00 -0.50000000000E+03  0.50000000000E+03  0.00000000000E+00 0. -1.
        -11    1    1    2    0    0  0.23024652538E+02 -0.78934583896E+01  0.49759409194E+03  0.49818904208E+03  0.00000000000E+00 0. -1.
         11    1    1    2    0    0  0.22221576020E+01 -0.58771481431E+01 -0.25018931635E+03  0.25026820187E+03  0.00000000000E+00 0. -1.
        -15    1    1    2    0    0 -0.73796797799E+01  0.34688766708E+01 -0.19527507071E+03  0.19545332882E+03  0.17770000000E+01 0. -1.
         15    1    1    2    0    0 -0.17867130360E+02  0.10301729862E+02 -0.52129704893E+02  0.56089427227E+02  0.17770000000E+01 0.  1.
</event>
<event>
 6    1  0.3365733E-003  0.5004574E+03  0.7546771E-02  0.9398787E-01
        -11   -1    0    0    0    0  0.00000000000E+00  0.00000000000E+00  0.50000000000E+03  0.50000000000E+03  0.00000000000E+00 0.  1.
         11   -1    0    0    0    0 -0.00000000000E+00 -0.00000000000E+00 -0.50000000000E+03  0.50000000000E+03  0.00000000000E+00 0.  1.
        -11    1    1    2    0    0  0.36866126957E+00  0.51292636428E+00  0.33143232829E+02  0.33149251680E+02  0.00000000000E+00 0.  1.
         11    1    1    2    0    0  0.16293331760E+02  0.32952023892E+01 -0.49926595205E+03  0.49954261269E+03  0.00000000000E+00 0.  1.
        -15    1    1    2    0    0 -0.19237565743E+01 -0.97642118527E+01  0.58166460351E+02  0.59038424024E+02  0.17770000000E+01 0. -1.
         15    1    1    2    0    0 -0.14738236456E+02  0.59560830992E+01  0.40795625887E+03  0.40826971161E+03  0.17770000000E+01 0.  1.
</event>
<event>
 6    1  0.3365733E-003  0.5168001E+03  0.7546771E-02  0.9362983E-01
        -11   -1    0    0    0    0  0.00000000000E+00  0.00000000000E+00  0.50000000000E+03  0.50000000000E+03  0.00000000000E+00 0. -1.
         11   -1    0    0    0    0 -0.00000000000E+00 -0.00000000000E+00 -0.50000000000E+03  0.50000000000E+03  0.00000000000E+00 0.  1.
        -11    1    1    2    0    0  0.14728539968E+02 -0.59549272405E+00  0.48297500843E+03  0.48319989991E+03  0.00000000000E+00 0. -1.
         11    1    1    2    0    0  0.11954932059E+02 -0.72355413782E+01 -0.42646265609E+03  0.42669154022E+03  0.00000000000E+00 0.  1.
        -15    1    1    2    0    0 -0.13691599294E+02 -0.56955308241E+01  0.11933643130E+02  0.19117231231E+02  0.17770000000E+01 0.  1.
         15    1    1    2    0    0 -0.12991872733E+02  0.13526564926E+02 -0.68445995477E+02  0.70991328637E+02  0.17770000000E+01 0. -1.
</event>
<event>
 6    1  0.3365733E-003  0.5128891E+03  0.7546771E-02  0.9371422E-01
        -11   -1    0    0    0    0  0.00000000000E+00  0.00000000000E+00  0.50000000000E+03  0.50000000000E+03  0.00000000000E+00 0. -1.
         11   -1    0    0    0    0 -0.00000000000E+00 -0.00000000000E+00 -0.50000000000E+03  0.50000000000E+03  0.00000000000E+00 0. -1.
        -11    1    1    2    0    0 -0.25185818294E+01 -0.57519957233E+01  0.43193185030E+03  0.43197749017E+03  0.00000000000E+00 0. -1.
         11    1    1    2    0    0 -0.67152495229E+01  0.31295889699E+01 -0.48705459293E+03  0.48711093747E+03  0.00000000000E+00 0. -1.
        -15    1    1    2    0    0  0.35344438476E+01 -0.38298599352E+01 -0.12006694369E+02  0.13209033239E+02  0.17770000000E+01 0. -1.
         15    1    1    2    0    0  0.56993875047E+01  0.64522666887E+01  0.67129437001E+02  0.67702539129E+02  0.17770000000E+01 0.  1.
</event>
<event>
 6    1  0.3365733E-003  0.5045438E+03  0.7546771E-02  0.9389700E-01
        -11   -1    0    0    0    0  0.00000000000E+00  0.00000000000E+00  0.50000000000E+03  0.50000000000E+03  0.00000000000E+00 0. -1.
         11   -1    0    0    0    0 -0.00000000000E+00 -0.00000000000E+00 -0.50000000000E+03  0.50000000000E+03  0.00000000000E+00 0. -1.
        -11    1    1    2    0    0 -0.12368837360E+02 -0.19731341472E+02  0.49490861511E+03  0.49545620521E+03  0.00000000000E+00 0. -1.
         11    1    1    2    0    0  0.14541756452E+02 -0.27291686037E+01 -0.32250664992E+03  0.32284586150E+03  0.00000000000E+00 0. -1.
        -15    1    1    2    0    0 -0.96284070852E+01  0.27379387689E+02 -0.42604513536E+02  0.51581386138E+02  0.17770000000E+01 0.  1.
         15    1    1    2    0    0  0.74554879932E+01 -0.49188776125E+01 -0.12979745165E+03  0.13011654715E+03  0.17770000000E+01 0. -1.
</event>
<event>
 6    1  0.3365733E-003  0.5001113E+03  0.7546771E-02  0.9399561E-01
        -11   -1    0    0    0    0  0.00000000000E+00  0.00000000000E+00  0.50000000000E+03  0.50000000000E+03  0.00000000000E+00 0. -1.
         11   -1    0    0    0    0 -0.00000000000E+00 -0.00000000000E+00 -0.50000000000E+03  0.50000000000E+03  0.00000000000E+00 0. -1.
        -11    1    1    2    0    0  0.15421609441E+02 -0.85548896634E+01  0.49957756082E+03  0.49988873907E+03  0.00000000000E+00 0. -1.
         11    1    1    2    0    0 -0.96346271080E+00  0.43466910588E+00 -0.69897700160E+02  0.69905691366E+02  0.00000000000E+00 0. -1.
        -15    1    1    2    0    0 -0.13422474610E+02  0.95790851435E+01 -0.27179420159E+03  0.27229977496E+03  0.17770000000E+01 0. -1.
         15    1    1    2    0    0 -0.10356721202E+01 -0.14588645860E+01 -0.15788565906E+03  0.15790579460E+03  0.17770000000E+01 0. -1.
</event>
<event>
 6    1  0.3365733E-003  0.5023276E+03  0.7546771E-02  0.9394616E-01
        -11   -1    0    0    0    0  0.00000000000E+00  0.00000000000E+00  0.50000000000E+03  0.50000000000E+03  0.00000000000E+00 0.  1.
         11   -1    0    0    0    0 -0.00000000000E+00 -0.00000000000E+00 -0.50000000000E+03  0.50000000000E+03  0.00000000000E+00 0. -1.
        -11    1    1    2    0    0  0.63210426018E+01 -0.25773657492E+01  0.38698421842E+03  0.38704442084E+03  0.00000000000E+00 0.  1.
         11    1    1    2    0    0  0.10626092491E+02  0.20815214481E+02 -0.49712330599E+03  0.49767235040E+03  0.00000000000E+00 0. -1.
        -15    1    1    2    0    0 -0.73718144877E+01 -0.16030388758E+02  0.97871842288E+02  0.99465432460E+02  0.17770000000E+01 0. -1.
         15    1    1    2    0    0 -0.95753206051E+01 -0.22074599733E+01  0.12267245280E+02  0.15817796306E+02  0.17770000000E+01 0.  1.
</event>
<event>
 6    1  0.3365733E-003  0.5043858E+03  0.7546771E-02  0.9390049E-01
        -11   -1    0    0    0    0  0.00000000000E+00  0.00000000000E+00  0.50000000000E+03  0.50000000000E+03  0.00000000000E+00 0. -1.
         11   -1    0    0    0    0 -0.00000000000E+00 -0.00000000000E+00 -0.50000000000E+03  0.50000000000E+03  0.00000000000E+00 0. -1.
        -11    1    1    2    0    0  0.93165878417E+01 -0.12101249422E+02  0.49537880369E+03  0.49561416262E+03  0.00000000000E+00 0. -1.
         11    1    1    2    0    0 -0.62587857254E+01 -0.19028301549E+01 -0.47635992511E+03  0.47640483983E+03  0.00000000000E+00 0. -1.
        -15    1    1    2    0    0  0.36854994879E+01  0.12440948334E+02 -0.10022161865E+02  0.16491257058E+02  0.17770000000E+01 0.  1.
         15    1    1    2    0    0 -0.67433016042E+01  0.15631312431E+01 -0.89967167176E+01  0.11489740489E+02  0.17770000000E+01 0. -1.
</event>
<event>
 6    1  0.3365733E-003  0.5108819E+03  0.7546771E-02  0.9375785E-01
        -11   -1    0    0    0    0  0.00000000000E+00  0.00000000000E+00  0.50000000000E+03  0.50000000000E+03  0.00000000000E+00 0.  1.
         11   -1    0    0    0    0 -0.00000000000E+00 -0.00000000000E+00 -0.50000000000E+03  0.50000000000E+03  0.00000000000E+00 0. -1.
        -11    1    1    2    0    0 -0.90902272495E+01 -0.17164301927E+02  0.48873235261E+03  0.48911814317E+03  0.00000000000E+00 0.  1.
         11    1    1    2    0    0 -0.45564865946E+01 -0.48937991195E+01 -0.45066328204E+03  0.45071288491E+03  0.00000000000E+00 0. -1.
        -15    1    1    2    0    0  0.17628232269E+02  0.76433686535E+01 -0.71716256194E-01  0.19296075495E+02  0.17770000000E+01 0.  1.
         15    1    1    2    0    0 -0.39815184248E+01  0.14414732393E+02 -0.37997354308E+02  0.40872896427E+02  0.17770000000E+01 0. -1.
</event>
<event>
 6    1  0.3365733E-003  0.5008343E+03  0.7546771E-02  0.9397945E-01
        -11   -1    0    0    0    0  0.00000000000E+00  0.00000000000E+00  0.50000000000E+03  0.50000000000E+03  0.00000000000E+00 0. -1.
         11   -1    0    0    0    0 -0.00000000000E+00 -0.00000000000E+00 -0.50000000000E+03  0.50000000000E+03  0.00000000000E+00 0.  1.
        -11    1    1    2    0    0 -0.72557968703E+01  0.45359560710E+01  0.49909233821E+03  0.49916568747E+03  0.00000000000E+00 0. -1.
         11    1    1    2    0    0  0.45807866465E+01  0.38282077786E+01 -0.35178967731E+03  0.35184032720E+03  0.00000000000E+00 0.  1.
        -15    1    1    2    0    0  0.50205686730E+01 -0.71837954155E+01 -0.14445736404E+03  0.14473389645E+03  0.17770000000E+01 0.  1.
         15    1    1    2    0    0 -0.23455584492E+01 -0.11803684341E+01 -0.28452968561E+01  0.42600888815E+01  0.17770000000E+01 0. -1.
</event>
<event>
 6    1  0.3365733E-003  0.4732996E+03  0.7546771E-02  0.9461619E-01
        -11   -1    0    0    0    0  0.00000000000E+00  0.00000000000E+00  0.50000000000E+03  0.50000000000E+03  0.00000000000E+00 0.  1.
         11   -1    0    0    0    0 -0.00000000000E+00 -0.00000000000E+00 -0.50000000000E+03  0.50000000000E+03  0.00000000000E+00 0. -1.
        -11    1    1    2    0    0 -0.44029191967E+01  0.76299832457E+01  0.46680635712E+03  0.46688947020E+03  0.00000000000E+00 0.  1.
         11    1    1    2    0    0  0.10482024047E+02 -0.42795639856E+02 -0.47842886736E+03  0.48045345325E+03  0.00000000000E+00 0. -1.
        -15    1    1    2    0    0  0.12821441493E+02  0.42706628622E+01  0.89315696105E+01  0.16295968457E+02  0.17770000000E+01 0.  1.
         15    1    1    2    0    0 -0.18900546343E+02  0.30894993749E+02  0.26909406368E+01  0.36361108087E+02  0.17770000000E+01 0. -1.
</event>
<event>
 6    1  0.3365733E-003  0.5107125E+03  0.7546771E-02  0.9376154E-01
        -11   -1    0    0    0    0  0.00000000000E+00  0.00000000000E+00  0.50000000000E+03  0.50000000000E+03  0.00000000000E+00 0. -1.
         11   -1    0    0    0    0 -0.00000000000E+00 -0.00000000000E+00 -0.50000000000E+03  0.50000000000E+03  0.00000000000E+00 0. -1.
        -11    1    1    2    0    0 -0.20692453157E+02 -0.17504670790E+02  0.48853628489E+03  0.48928753589E+03  0.00000000000E+00 0. -1.
         11    1    1    2    0    0 -0.61426283948E+01 -0.24066400560E+01 -0.44410977877E+03  0.44415877724E+03  0.00000000000E+00 0. -1.
        -15    1    1    2    0    0  0.27922340772E+02  0.28798869984E+02 -0.38769165407E+02  0.55814316639E+02  0.17770000000E+01 0.  1.
         15    1    1    2    0    0 -0.10872592209E+01 -0.88875591382E+01 -0.56573407141E+01  0.10739370233E+02  0.17770000000E+01 0. -1.
</event>
<event>
 6    1  0.3365733E-003  0.5018774E+03  0.7546771E-02  0.9395619E-01
        -11   -1    0    0    0    0  0.00000000000E+00  0.00000000000E+00  0.50000000000E+03  0.50000000000E+03  0.00000000000E+00 0. -1.
         11   -1    0    0    0    0 -0.00000000000E+00 -0.00000000000E+00 -0.50000000000E+03  0.50000000000E+03  0.00000000000E+00 0.  1.
        -11    1    1    2    0    0  0.58486069516E+01 -0.38572546287E+01  0.49807336770E+03  0.49812263975E+03  0.00000000000E+00 0. -1.
         11    1    1    2    0    0 -0.65237115098E+01  0.39553578218E+00 -0.45930067017E+03  0.45934716815E+03  0.00000000000E+00 0.  1.
        -15    1    1    2    0    0 -0.11333152626E+01  0.40435347578E+01 -0.39552557046E+02  0.39814533461E+02  0.17770000000E+01 0.  1.
         15    1    1    2    0    0  0.18084198208E+01 -0.58181591133E+00  0.77985951960E+00  0.27156586445E+01  0.17770000000E+01 0. -1.
</event>
<event>
 6    1  0.3365733E-003  0.5097239E+03  0.7546771E-02  0.9378311E-01
        -11   -1    0    0    0    0  0.00000000000E+00  0.00000000000E+00  0.50000000000E+03  0.50000000000E+03  0.00000000000E+00 0. -1.
         11   -1    0    0    0    0 -0.00000000000E+00 -0.00000000000E+00 -0.50000000000E+03  0.50000000000E+03  0.00000000000E+00 0. -1.
        -11    1    1    2    0    0  0.43081747867E+01 -0.67019736848E+01  0.49021131047E+03  0.49027605054E+03  0.00000000000E+00 0. -1.
         11    1    1    2    0    0 -0.73326264713E+01  0.63724583978E+01 -0.47963591302E+03  0.47973428552E+03  0.00000000000E+00 0. -1.
        -15    1    1    2    0    0  0.31706930676E+01 -0.13474292955E+02 -0.35584676719E+01  0.14402440292E+02  0.17770000000E+01 0.  1.
         15    1    1    2    0    0 -0.14624138300E+00  0.13803808242E+02 -0.70169297781E+01  0.15587223648E+02  0.17770000000E+01 0. -1.
</event>
<event>
 6    1  0.3365733E-003  0.4937430E+03  0.7546771E-02  0.9413920E-01
        -11   -1    0    0    0    0  0.00000000000E+00  0.00000000000E+00  0.50000000000E+03  0.50000000000E+03  0.00000000000E+00 0. -1.
         11   -1    0    0    0    0 -0.00000000000E+00 -0.00000000000E+00 -0.50000000000E+03  0.50000000000E+03  0.00000000000E+00 0. -1.
        -11    1    1    2    0    0  0.52442606489E+01  0.48821301763E+01  0.49377759357E+03  0.49382957523E+03  0.00000000000E+00 0. -1.
         11    1    1    2    0    0 -0.65575572418E+01  0.38216553679E+01 -0.49363733238E+03  0.49369567805E+03  0.00000000000E+00 0. -1.
        -15    1    1    2    0    0 -0.11584572656E+01 -0.66117039285E+01  0.30594553282E+01  0.75877959896E+01  0.17770000000E+01 0. -1.
         15    1    1    2    0    0  0.24717538585E+01 -0.20920816157E+01 -0.31997165126E+01  0.48869507246E+01  0.17770000000E+01 0.  1.
</event>
<event>
 6    1  0.3365733E-003  0.4790765E+03  0.7546771E-02  0.9447885E-01
        -11   -1    0    0    0    0  0.00000000000E+00  0.00000000000E+00  0.50000000000E+03  0.50000000000E+03  0.00000000000E+00 0.  1.
         11   -1    0    0    0    0 -0.00000000000E+00 -0.00000000000E+00 -0.50000000000E+03  0.50000000000E+03  0.00000000000E+00 0.  1.
        -11    1    1    2    0    0 -0.83474229418E+01 -0.89693745054E+01  0.48413293283E+03  0.48428795752E+03  0.00000000000E+00 0.  1.
         11    1    1    2    0    0 -0.80309874721E+01 -0.21945494696E+01 -0.47404988632E+03  0.47412298776E+03  0.00000000000E+00 0.  1.
        -15    1    1    2    0    0  0.14015900305E+02  0.51397137327E+01 -0.22741678440E+02  0.27261764174E+02  0.17770000000E+01 0.  1.
         15    1    1    2    0    0  0.23625101090E+01  0.60242102423E+01  0.12658631924E+02  0.14327290541E+02  0.17770000000E+01 0. -1.
</event>
<event>
 6    1  0.3365733E-003  0.5016447E+03  0.7546771E-02  0.9396137E-01
        -11   -1    0    0    0    0  0.00000000000E+00  0.00000000000E+00  0.50000000000E+03  0.50000000000E+03  0.00000000000E+00 0.  1.
         11   -1    0    0    0    0 -0.00000000000E+00 -0.00000000000E+00 -0.50000000000E+03  0.50000000000E+03  0.00000000000E+00 0. -1.
        -11    1    1    2    0    0  0.32015748349E+01 -0.64239833759E+01  0.41368002987E+03  0.41374229269E+03  0.00000000000E+00 0.  1.
         11    1    1    2    0    0  0.96194659899E+01  0.23010584153E+01 -0.49825710137E+03  0.49835526290E+03  0.00000000000E+00 0. -1.
        -15    1    1    2    0    0 -0.56040944547E+01 -0.16189952761E+01  0.53247427592E+01  0.80955317807E+01  0.17770000000E+01 0. -1.
         15    1    1    2    0    0 -0.72169463701E+01  0.57419202366E+01  0.79252328742E+02  0.79806912626E+02  0.17770000000E+01 0.  1.
</event>
<event>
 6    1  0.3365733E-003  0.3829644E+03  0.7546771E-02  0.9708120E-01
        -11   -1    0    0    0    0  0.00000000000E+00  0.00000000000E+00  0.50000000000E+03  0.50000000000E+03  0.00000000000E+00 0. -1.
         11   -1    0    0    0    0 -0.00000000000E+00 -0.00000000000E+00 -0.50000000000E+03  0.50000000000E+03  0.00000000000E+00 0. -1.
        -11    1    1    2    0    0 -0.65524142297E+02 -0.44574428087E+02  0.41524890485E+03  0.42274335694E+03  0.00000000000E+00 0. -1.
         11    1    1    2    0    0 -0.28160877544E+01 -0.32193363573E+01 -0.12593816885E+03  0.12601078069E+03  0.00000000000E+00 0. -1.
        -15    1    1    2    0    0  0.75473551097E+02  0.30849789985E+02  0.60125235854E+02  0.10132210111E+03  0.17770000000E+01 0.  1.
         15    1    1    2    0    0 -0.71333210456E+01  0.16943974460E+02 -0.34943597185E+03  0.34992376126E+03  0.17770000000E+01 0. -1.
</event>
<event>
 6    1  0.3365733E-003  0.5347938E+03  0.7546771E-02  0.9325154E-01
        -11   -1    0    0    0    0  0.00000000000E+00  0.00000000000E+00  0.50000000000E+03  0.50000000000E+03  0.00000000000E+00 0.  1.
         11   -1    0    0    0    0 -0.00000000000E+00 -0.00000000000E+00 -0.50000000000E+03  0.50000000000E+03  0.00000000000E+00 0.  1.
        -11    1    1    2    0    0  0.51529118232E+01 -0.25401907611E+02  0.34458317114E+03  0.34555661076E+03  0.00000000000E+00 0.  1.
         11    1    1    2    0    0  0.82697299400E+01 -0.12425937736E+01 -0.46513098685E+03  0.46520615581E+03  0.00000000000E+00 0.  1.
        -15    1    1    2    0    0 -0.70005496008E+00 -0.14759702253E+02 -0.29505875987E+02  0.33046835466E+02  0.17770000000E+01 0.  1.
         15    1    1    2    0    0 -0.12722586803E+02  0.41404203638E+02  0.15005369170E+03  0.15619039796E+03  0.17770000000E+01 0. -1.
</event>
<event>
 6    1  0.3365733E-003  0.5008739E+03  0.7546771E-02  0.9397856E-01
        -11   -1    0    0    0    0  0.00000000000E+00  0.00000000000E+00  0.50000000000E+03  0.50000000000E+03  0.00000000000E+00 0. -1.
         11   -1    0    0    0    0 -0.00000000000E+00 -0.00000000000E+00 -0.50000000000E+03  0.50000000000E+03  0.00000000000E+00 0.  1.
        -11    1    1    2    0    0 -0.66995922359E+01  0.13884405460E+02  0.49888792135E+03  0.49912605554E+03  0.00000000000E+00 0. -1.
         11    1    1    2    0    0  0.66108625741E+01  0.47636576721E+01 -0.21615321255E+03  0.21630674339E+03  0.00000000000E+00 0.  1.
        -15    1    1    2    0    0  0.60551772832E+01 -0.21044855769E+01 -0.17150504258E+02  0.18395422169E+02  0.17770000000E+01 0. -1.
         15    1    1    2    0    0 -0.59664476214E+01 -0.16543577555E+02 -0.26558420454E+03  0.26617177890E+03  0.17770000000E+01 0.  1.
</event>
<event>
 6    1  0.3365733E-003  0.4298256E+03  0.7546771E-02  0.9572162E-01
        -11   -1    0    0    0    0  0.00000000000E+00  0.00000000000E+00  0.50000000000E+03  0.50000000000E+03  0.00000000000E+00 0.  1.
         11   -1    0    0    0    0 -0.00000000000E+00 -0.00000000000E+00 -0.50000000000E+03  0.50000000000E+03  0.00000000000E+00 0.  1.
        -11    1    1    2    0    0  0.68335944199E+01 -0.52868169253E+01  0.42651079732E+03  0.42659829896E+03  0.00000000000E+00 0.  1.
         11    1    1    2    0    0  0.34848500453E+02  0.38027576403E+01 -0.43266835686E+03  0.43408615041E+03  0.00000000000E+00 0.  1.
        -15    1    1    2    0    0 -0.58985235945E+02 -0.12778818265E+02  0.57427287246E+02  0.83328310346E+02  0.17770000000E+01 0.  1.
         15    1    1    2    0    0  0.17303141073E+02  0.14262877550E+02 -0.51269727703E+02  0.55987240285E+02  0.17770000000E+01 0. -1.
</event>
<event>
 6    1  0.3365733E-003  0.5071698E+03  0.7546771E-02  0.9383908E-01
        -11   -1    0    0    0    0  0.00000000000E+00  0.00000000000E+00  0.50000000000E+03  0.50000000000E+03  0.00000000000E+00 0.  1.
         11   -1    0    0    0    0 -0.00000000000E+00 -0.00000000000E+00 -0.50000000000E+03  0.50000000000E+03  0.00000000000E+00 0. -1.
        -11    1    1    2    0    0  0.28261766033E+01 -0.10042860505E+02  0.46572046289E+03  0.46583730623E+03  0.00000000000E+00 0.  1.
         11    1    1    2    0    0  0.20901247579E+01  0.97120428818E+01 -0.49273007447E+03  0.49283021284E+03  0.00000000000E+00 0. -1.
        -15    1    1    2    0    0  0.32386707095E+01  0.88402615831E+01 -0.21600216652E+01  0.98215393608E+01  0.17770000000E+01 0. -1.
         15    1    1    2    0    0 -0.81549720707E+01 -0.85094439596E+01  0.29169633243E+02  0.31510941568E+02  0.17770000000E+01 0.  1.
</event>
<event>
 6    1  0.3365733E-003  0.5022556E+03  0.7546771E-02  0.9394777E-01
        -11   -1    0    0    0    0  0.00000000000E+00  0.00000000000E+00  0.50000000000E+03  0.50000000000E+03  0.00000000000E+00 0.  1.
         11   -1    0    0    0    0 -0.00000000000E+00 -0.00000000000E+00 -0.50000000000E+03  0.50000000000E+03  0.00000000000E+00 0. -1.
        -11    1    1    2    0    0 -0.95880867299E+01  0.69730437188E+01  0.49760316890E+03  0.49774438062E+03  0.00000000000E+00 0.  1.
         11    1    1    2    0    0  0.12251393679E+01  0.96906658083E+01 -0.44901802390E+03  0.44912425425E+03  0.00000000000E+00 0. -1.
        -15    1    1    2    0    0 -0.21886206860E+01 -0.44030556449E+01 -0.11460559344E+02  0.12596789630E+02  0.17770000000E+01 0. -1.
         15    1    1    2    0    0  0.10551568048E+02 -0.12260653882E+02 -0.37124585652E+02  0.40534575497E+02  0.17770000000E+01 0.  1.
</event>
<event>
 6    1  0.3365733E-003  0.5005357E+03  0.7546771E-02  0.9398612E-01
        -11   -1    0    0    0    0  0.00000000000E+00  0.00000000000E+00  0.50000000000E+03  0.50000000000E+03  0.00000000000E+00 0. -1.
         11   -1    0    0    0    0 -0.00000000000E+00 -0.00000000000E+00 -0.50000000000E+03  0.50000000000E+03  0.00000000000E+00 0. -1.
        -11    1    1    2    0    0 -0.23423431454E+01 -0.78973591889E+01  0.20839583246E+03  0.20855857172E+03  0.00000000000E+00 0. -1.
         11    1    1    2    0    0  0.21371402488E+01 -0.83023304504E+01 -0.49939068967E+03  0.49946426998E+03  0.00000000000E+00 0. -1.
        -15    1    1    2    0    0  0.58574625680E+01  0.82171670311E+00  0.12860814280E+03  0.12875634823E+03  0.17770000000E+01 0. -1.
         15    1    1    2    0    0 -0.56522596714E+01  0.15377972936E+02  0.16238671442E+03  0.16322081007E+03  0.17770000000E+01 0.  1.
</event>
<event>
 6    1  0.3365733E-003  0.5181764E+03  0.7546771E-02  0.9360033E-01
        -11   -1    0    0    0    0  0.00000000000E+00  0.00000000000E+00  0.50000000000E+03  0.50000000000E+03  0.00000000000E+00 0.  1.
         11   -1    0    0    0    0 -0.00000000000E+00 -0.00000000000E+00 -0.50000000000E+03  0.50000000000E+03  0.00000000000E+00 0. -1.
        -11    1    1    2    0    0  0.64107670035E+01 -0.47398675015E+01  0.46688044723E+03  0.46694851567E+03  0.00000000000E+00 0.  1.
         11    1    1    2    0    0 -0.89480586555E+01 -0.11096807195E+02 -0.48161269387E+03  0.48182361273E+03  0.00000000000E+00 0. -1.
        -15    1    1    2    0    0  0.63626110329E+01  0.97736761891E+01 -0.15854599374E+02  0.19761923381E+02  0.17770000000E+01 0. -1.
         15    1    1    2    0    0 -0.38253193809E+01  0.60629985076E+01  0.30586846016E+02  0.31465948221E+02  0.17770000000E+01 0.  1.
</event>
<event>
 6    1  0.3365733E-003  0.5017611E+03  0.7546771E-02  0.9395878E-01
        -11   -1    0    0    0    0  0.00000000000E+00  0.00000000000E+00  0.50000000000E+03  0.50000000000E+03  0.00000000000E+00 0.  1.
         11   -1    0    0    0    0 -0.00000000000E+00 -0.00000000000E+00 -0.50000000000E+03  0.50000000000E+03  0.00000000000E+00 0. -1.
        -11    1    1    2    0    0 -0.56715985553E+01  0.19384512476E+01  0.40215416157E+03  0.40219882433E+03  0.00000000000E+00 0.  1.
         11    1    1    2    0    0 -0.73843895844E+01 -0.98483787428E+01 -0.49808687107E+03  0.49823894961E+03  0.00000000000E+00 0. -1.
        -15    1    1    2    0    0  0.74235338857E+01  0.38564940025E+01  0.89581502499E+02  0.89988803305E+02  0.17770000000E+01 0.  1.
         15    1    1    2    0    0  0.56324542539E+01  0.40534334926E+01  0.63512070012E+01  0.95734227617E+01  0.17770000000E+01 0. -1.
</event>
<event>
 6    1  0.3365733E-003  0.5027108E+03  0.7546771E-02  0.9393765E-01
        -11   -1    0    0    0    0  0.00000000000E+00  0.00000000000E+00  0.50000000000E+03  0.50000000000E+03  0.00000000000E+00 0.  1.
         11   -1    0    0    0    0 -0.00000000000E+00 -0.00000000000E+00 -0.50000000000E+03  0.50000000000E+03  0.00000000000E+00 0. -1.
        -11    1    1    2    0    0 -0.49070821854E+01 -0.56838418734E+01  0.49723254608E+03  0.49728924218E+03  0.00000000000E+00 0.  1.
         11    1    1    2    0    0 -0.48946221687E+01  0.32069487479E+01 -0.40015438787E+03  0.40019717138E+03  0.00000000000E+00 0. -1.
        -15    1    1    2    0    0 -0.63240302798E+01  0.10574233470E+01 -0.34788579842E+01  0.75081079500E+01  0.17770000000E+01 0.  1.
         15    1    1    2    0    0  0.16125734634E+02  0.14194697785E+01 -0.93599300219E+02  0.95005478487E+02  0.17770000000E+01 0.  1.
</event>
<event>
 6    1  0.3365733E-003  0.5046146E+03  0.7546771E-02  0.9389543E-01
        -11   -1    0    0    0    0  0.00000000000E+00  0.00000000000E+00  0.50000000000E+03  0.50000000000E+03  0.00000000000E+00 0. -1.
         11   -1    0    0    0    0 -0.00000000000E+00 -0.00000000000E+00 -0.50000000000E+03  0.50000000000E+03  0.00000000000E+00 0. -1.
        -11    1    1    2    0    0 -0.98007549919E+01 -0.24530163444E+01  0.49528239801E+03  0.49538543163E+03  0.00000000000E+00 0. -1.
         11    1    1    2    0    0  0.89644725989E+01  0.25498882782E+01 -0.47668183012E+03  0.47677293429E+03  0.00000000000E+00 0. -1.
        -15    1    1    2    0    0  0.11536628016E+01  0.37085652829E+01  0.33890266072E+01  0.54523045276E+01  0.17770000000E+01 0. -1.
         15    1    1    2    0    0 -0.31738040859E+00 -0.38054372168E+01 -0.21989594501E+02  0.22389329558E+02  0.17770000000E+01 0.  1.
</event>
<event>
 6    1  0.3365733E-003  0.5007708E+03  0.7546771E-02  0.9398087E-01
        -11   -1    0    0    0    0  0.00000000000E+00  0.00000000000E+00  0.50000000000E+03  0.50000000000E+03  0.00000000000E+00 0. -1.
         11   -1    0    0    0    0 -0.00000000000E+00 -0.00000000000E+00 -0.50000000000E+03  0.50000000000E+03  0.00000000000E+00 0. -1.
        -11    1    1    2    0    0 -0.93676662431E+01 -0.87597354205E+01  0.49906445525E+03  0.49922922253E+03  0.00000000000E+00 0. -1.
         11    1    1    2    0    0  0.73395471537E+01  0.42508218954E+01 -0.41203624552E+03  0.41212353253E+03  0.00000000000E+00 0. -1.
        -15    1    1    2    0    0  0.57639507728E+01  0.86652110939E+01 -0.45613688253E+02  0.46819603766E+02  0.17770000000E+01 0. -1.
         15    1    1    2    0    0 -0.37358316834E+01 -0.41562975688E+01 -0.41414521475E+02  0.41827641170E+02  0.17770000000E+01 0.  1.
</event>
<event>
 6    1  0.3365733E-003  0.4552908E+03  0.7546771E-02  0.9505812E-01
        -11   -1    0    0    0    0  0.00000000000E+00  0.00000000000E+00  0.50000000000E+03  0.50000000000E+03  0.00000000000E+00 0.  1.
         11   -1    0    0    0    0 -0.00000000000E+00 -0.00000000000E+00 -0.50000000000E+03  0.50000000000E+03  0.00000000000E+00 0. -1.
        -11    1    1    2    0    0  0.47303247086E+02  0.20006616695E+02  0.46312162729E+03  0.46596083909E+03  0.00000000000E+00 0.  1.
         11    1    1    2    0    0  0.55519983454E+01  0.47535642284E+01 -0.44657966580E+03  0.44663947314E+03  0.00000000000E+00 0. -1.
        -15    1    1    2    0    0 -0.27194684509E+02 -0.18452244555E+01 -0.38011755359E+02  0.46808193656E+02  0.17770000000E+01 0.  1.
         15    1    1    2    0    0 -0.25660560923E+02 -0.22914956468E+02  0.21469793870E+02  0.40591494117E+02  0.17770000000E+01 0. -1.
</event>
<event>
 6    1  0.3365733E-003  0.5013271E+03  0.7546771E-02  0.9396845E-01
        -11   -1    0    0    0    0  0.00000000000E+00  0.00000000000E+00  0.50000000000E+03  0.50000000000E+03  0.00000000000E+00 0.  1.
         11   -1    0    0    0    0 -0.00000000000E+00 -0.00000000000E+00 -0.50000000000E+03  0.50000000000E+03  0.00000000000E+00 0.  1.
        -11    1    1    2    0    0  0.75677242434E+01  0.87695352810E+00  0.29620378150E+03  0.29630173755E+03  0.00000000000E+00 0.  1.
         11    1    1    2    0    0 -0.10034119867E+02 -0.65037442671E+01 -0.49852950683E+03  0.49867289021E+03  0.00000000000E+00 0.  1.
        -15    1    1    2    0    0 -0.60145178783E+01  0.29487574334E+01  0.18761913452E+03  0.18774708244E+03  0.17770000000E+01 0.  1.
         15    1    1    2    0    0  0.84809135018E+01  0.26780333056E+01  0.14706590812E+02  0.17278289803E+02  0.17770000000E+01 0. -1.
</event>
<event>
 6    1  0.3365733E-003  0.5001993E+03  0.7546771E-02  0.9399364E-01
        -11   -1    0    0    0    0  0.00000000000E+00  0.00000000000E+00  0.50000000000E+03  0.50000000000E+03  0.00000000000E+00 0.  1.
         11   -1    0    0    0    0 -0.00000000000E+00 -0.00000000000E+00 -0.50000000000E+03  0.50000000000E+03  0.00000000000E+00 0.  1.
        -11    1    1    2    0    0  0.19072402502E+01 -0.26686666341E-01  0.10197210696E+03  0.10198994497E+03  0.00000000000E+00 0.  1.
         11    1    1    2    0    0 -0.54939193475E+01  0.77829558472E+01 -0.49970985675E+03  0.49980065875E+03  0.00000000000E+00 0.  1.
        -15    1    1    2    0    0 -0.11687024123E+01 -0.62760458011E+00  0.63906938638E+01  0.67644992348E+01  0.17770000000E+01 0.  1.
         15    1    1    2    0    0  0.47553815096E+01 -0.71286646008E+01  0.39134705593E+03  0.39144489705E+03  0.17770000000E+01 0.  1.
</event>
<event>
 6    1  0.3365733E-003  0.5139251E+03  0.7546771E-02  0.9369179E-01
        -11   -1    0    0    0    0  0.00000000000E+00  0.00000000000E+00  0.50000000000E+03  0.50000000000E+03  0.00000000000E+00 0. -1.
         11   -1    0    0    0    0 -0.00000000000E+00 -0.00000000000E+00 -0.50000000000E+03  0.50000000000E+03  0.00000000000E+00 0.  1.
        -11    1    1    2    0    0  0.63031772522E+01 -0.44510772672E+01  0.48601362986E+03  0.48607488162E+03  0.00000000000E+00 0. -1.
         11    1    1    2    0    0 -0.19840992414E+02 -0.60838562330E+01 -0.44092967104E+03  0.44141777613E+03  0.00000000000E+00 0.  1.
        -15    1    1    2    0    0  0.78613333600E+01  0.56812572754E+01  0.11646219236E+02  0.15260058910E+02  0.17770000000E+01 0.  1.
         15    1    1    2    0    0  0.56764818014E+01  0.48536762249E+01 -0.56730178055E+02  0.57247283339E+02  0.17770000000E+01 0. -1.
</event>
<event>
 6    1  0.3365733E-003  0.4536815E+03  0.7546771E-02  0.9509867E-01
        -11   -1    0    0    0    0  0.00000000000E+00  0.00000000000E+00  0.50000000000E+03  0.50000000000E+03  0.00000000000E+00 0. -1.
         11   -1    0    0    0    0 -0.00000000000E+00 -0.00000000000E+00 -0.50000000000E+03  0.50000000000E+03  0.00000000000E+00 0. -1.
        -11    1    1    2    0    0  0.43831246556E+02  0.47112999149E+01  0.44454235655E+03  0.44672282378E+03  0.00000000000E+00 0. -1.
         11    1    1    2    0    0 -0.70642780879E+01  0.27239474484E+01 -0.46151164564E+03  0.46157374597E+03  0.00000000000E+00 0. -1.
        -15    1    1    2    0    0  0.14199022725E+02  0.20819053114E+02  0.21573835312E+02  0.33220977077E+02  0.17770000000E+01 0.  1.
         15    1    1    2    0    0 -0.50965991193E+02 -0.28254300477E+02 -0.46045462248E+01  0.58482453169E+02  0.17770000000E+01 0. -1.
</event>
<event>
 6    1  0.3365733E-003  0.5170028E+03  0.7546771E-02  0.9362548E-01
        -11   -1    0    0    0    0  0.00000000000E+00  0.00000000000E+00  0.50000000000E+03  0.50000000000E+03  0.00000000000E+00 0.  1.
         11   -1    0    0    0    0 -0.00000000000E+00 -0.00000000000E+00 -0.50000000000E+03  0.50000000000E+03  0.00000000000E+00 0.  1.
        -11    1    1    2    0    0  0.12573801964E+02  0.40622593383E+01  0.42512530855E+03  0.42533061307E+03  0.00000000000E+00 0.  1.
         11    1    1    2    0    0  0.83828408214E+01 -0.74313431638E+01 -0.48286728117E+03  0.48299721335E+03  0.00000000000E+00 0.  1.
        -15    1    1    2    0    0 -0.89363279637E+01  0.11638457429E+02  0.70608041065E+02  0.72138511496E+02  0.17770000000E+01 0. -1.
         15    1    1    2    0    0 -0.12020314821E+02 -0.82693736031E+01 -0.12866068440E+02  0.19533662081E+02  0.17770000000E+01 0.  1.
</event>
<event>
 6    1  0.3365733E-003  0.5529547E+03  0.7546771E-02  0.9288541E-01
        -11   -1    0    0    0    0  0.00000000000E+00  0.00000000000E+00  0.50000000000E+03  0.50000000000E+03  0.00000000000E+00 0. -1.
         11   -1    0    0    0    0 -0.00000000000E+00 -0.00000000000E+00 -0.50000000000E+03  0.50000000000E+03  0.00000000000E+00 0. -1.
        -11    1    1    2    0    0  0.24814407624E+02  0.56706193536E+01  0.41073387063E+03  0.41152183810E+03  0.00000000000E+00 0. -1.
         11    1    1    2    0    0 -0.15493791244E+02  0.45805239046E+01 -0.44675324880E+03  0.44704530428E+03  0.00000000000E+00 0. -1.
        -15    1    1    2    0    0 -0.85129752838E+01 -0.60180962981E+02 -0.22180749674E+02  0.64725284384E+02  0.17770000000E+01 0.  1.
         15    1    1    2    0    0 -0.80764109666E+00  0.49929819722E+02  0.58200127843E+02  0.76707573235E+02  0.17770000000E+01 0. -1.
</event>
<event>
 6    1  0.3365733E-003  0.5342288E+03  0.7546771E-02  0.9326318E-01
        -11   -1    0    0    0    0  0.00000000000E+00  0.00000000000E+00  0.50000000000E+03  0.50000000000E+03  0.00000000000E+00 0. -1.
         11   -1    0    0    0    0 -0.00000000000E+00 -0.00000000000E+00 -0.50000000000E+03  0.50000000000E+03  0.00000000000E+00 0. -1.
        -11    1    1    2    0    0  0.24012325549E+02  0.13146368455E+02  0.43853325362E+03  0.43938688341E+03  0.00000000000E+00 0. -1.
         11    1    1    2    0    0  0.18947809769E+01 -0.94519727198E+01 -0.46567147554E+03  0.46577124548E+03  0.00000000000E+00 0. -1.
        -15    1    1    2    0    0  0.11705021191E+02 -0.20352672543E+02 -0.20962633325E+02  0.31525046006E+02  0.17770000000E+01 0. -1.
         15    1    1    2    0    0 -0.37612127717E+02  0.16658276808E+02  0.48100855248E+02  0.63316825111E+02  0.17770000000E+01 0. -1.
</event>
<event>
 6    1  0.3365733E-003  0.5033203E+03  0.7546771E-02  0.9392411E-01
        -11   -1    0    0    0    0  0.00000000000E+00  0.00000000000E+00  0.50000000000E+03  0.50000000000E+03  0.00000000000E+00 0. -1.
         11   -1    0    0    0    0 -0.00000000000E+00 -0.00000000000E+00 -0.50000000000E+03  0.50000000000E+03  0.00000000000E+00 0. -1.
        -11    1    1    2    0    0  0.11326896900E+02  0.45100289359E+01  0.49653006571E+03  0.49667972085E+03  0.00000000000E+00 0. -1.
         11    1    1    2    0    0 -0.17930795808E+02  0.59948682670E+01 -0.43930194801E+03  0.43970860056E+03  0.00000000000E+00 0. -1.
        -15    1    1    2    0    0  0.78409263638E+01 -0.27748615557E+01 -0.54460214825E+02  0.55120347520E+02  0.17770000000E+01 0. -1.
         15    1    1    2    0    0 -0.12370274559E+01 -0.77300356471E+01 -0.27679028749E+01  0.84913310710E+01  0.17770000000E+01 0.  1.
</event>
<event>
 6    1  0.3365733E-003  0.5166175E+03  0.7546771E-02  0.9363376E-01
        -11   -1    0    0    0    0  0.00000000000E+00  0.00000000000E+00  0.50000000000E+03  0.50000000000E+03  0.00000000000E+00 0.  1.
         11   -1    0    0    0    0 -0.00000000000E+00 -0.00000000000E+00 -0.50000000000E+03  0.50000000000E+03  0.00000000000E+00 0.  1.
        -11    1    1    2    0    0  0.16309269893E+02 -0.19065902796E+02  0.37651492506E+03  0.37734995657E+03  0.00000000000E+00 0.  1.
         11    1    1    2    0    0  0.60242217729E+01 -0.53595796543E+01 -0.48331523328E+03  0.48338248941E+03  0.00000000000E+00 0.  1.
        -15    1    1    2    0    0 -0.39260334010E+00 -0.17101363153E+02  0.86289519179E+02  0.87986644487E+02  0.17770000000E+01 0.  1.
         15    1    1    2    0    0 -0.21940888326E+02  0.41526845603E+02  0.20510789045E+02  0.51280909533E+02  0.17770000000E+01 0. -1.
</event>
<event>
 6    1  0.3365733E-003  0.5537920E+03  0.7546771E-02  0.9286889E-01
        -11   -1    0    0    0    0  0.00000000000E+00  0.00000000000E+00  0.50000000000E+03  0.50000000000E+03  0.00000000000E+00 0.  1.
         11   -1    0    0    0    0 -0.00000000000E+00 -0.00000000000E+00 -0.50000000000E+03  0.50000000000E+03  0.00000000000E+00 0.  1.
        -11    1    1    2    0    0  0.20808481701E+02 -0.15354436982E+02  0.42800417843E+03  0.42878471101E+03  0.00000000000E+00 0.  1.
         11    1    1    2    0    0 -0.27388355868E+02  0.28584292269E+02 -0.44444840524E+03  0.44620798819E+03  0.00000000000E+00 0.  1.
        -15    1    1    2    0    0  0.64115103161E+02 -0.11318811404E+02  0.17363563042E+02  0.67405585788E+02  0.17770000000E+01 0. -1.
         15    1    1    2    0    0 -0.57535228994E+02 -0.19110438828E+01 -0.91933622562E+00  0.57601715011E+02  0.17770000000E+01 0.  1.
</event>
<event>
 6    1  0.3365733E-003  0.5016169E+03  0.7546771E-02  0.9396199E-01
        -11   -1    0    0    0    0  0.00000000000E+00  0.00000000000E+00  0.50000000000E+03  0.50000000000E+03  0.00000000000E+00 0. -1.
         11   -1    0    0    0    0 -0.00000000000E+00 -0.00000000000E+00 -0.50000000000E+03  0.50000000000E+03  0.00000000000E+00 0.  1.
        -11    1    1    2    0    0  0.68773390762E+01 -0.15568861412E+01  0.34285205074E+03  0.34292455494E+03  0.00000000000E+00 0. -1.
         11    1    1    2    0    0  0.93503528885E+01  0.85392074627E+01 -0.49822222869E+03  0.49838312203E+03  0.00000000000E+00 0.  1.
        -15    1    1    2    0    0 -0.95397538977E+01 -0.19269663998E+01  0.14452824019E+02  0.17514621179E+02  0.17770000000E+01 0. -1.
         15    1    1    2    0    0 -0.66879380670E+01 -0.50553549217E+01  0.14091735394E+03  0.14117770185E+03  0.17770000000E+01 0.  1.
</event>
<event>
 6    1  0.3365733E-003  0.5096089E+03  0.7546771E-02  0.9378562E-01
        -11   -1    0    0    0    0  0.00000000000E+00  0.00000000000E+00  0.50000000000E+03  0.50000000000E+03  0.00000000000E+00 0. -1.
         11   -1    0    0    0    0 -0.00000000000E+00 -0.00000000000E+00 -0.50000000000E+03  0.50000000000E+03  0.00000000000E+00 0. -1.
        -11    1    1    2    0    0  0.10832634681E+02  0.12278822840E+01  0.49026992911E+03  0.49039112661E+03  0.00000000000E+00 0. -1.
         11    1    1    2    0    0  0.24419317987E+01 -0.86754415584E+01 -0.35994860097E+03  0.36006141373E+03  0.00000000000E+00 0. -1.
        -15    1    1    2    0    0  0.54466916374E+01 -0.29806882947E+02 -0.41543152915E+02  0.51450053488E+02  0.17770000000E+01 0.  1.
         15    1    1    2    0    0 -0.18721258118E+02  0.37254442222E+02 -0.88778175228E+02  0.98097406166E+02  0.17770000000E+01 0. -1.
</event>
<event>
 6    1  0.3365733E-003  0.4885400E+03  0.7546771E-02  0.9425824E-01
        -11   -1    0    0    0    0  0.00000000000E+00  0.00000000000E+00  0.50000000000E+03  0.50000000000E+03  0.00000000000E+00 0. -1.
         11   -1    0    0    0    0 -0.00000000000E+00 -0.00000000000E+00 -0.50000000000E+03  0.50000000000E+03  0.00000000000E+00 0. -1.
        -11    1    1    2    0    0  0.19396698638E+02 -0.10999633477E+01  0.26211835386E+02  0.32626709177E+02  0.00000000000E+00 0. -1.
         11    1    1    2    0    0 -0.60981112924E+01  0.14818583335E+02 -0.49119804332E+03  0.49145935248E+03  0.00000000000E+00 0. -1.
        -15    1    1    2    0    0  0.21394879273E+02 -0.28779972620E+02  0.39245952183E+03  0.39409854311E+03  0.17770000000E+01 0. -1.
         15    1    1    2    0    0 -0.34693466619E+02  0.15061352632E+02  0.72526686112E+02  0.81815395229E+02  0.17770000000E+01 0.  1.
</event>
<event>
 6    1  0.3365733E-003  0.5101211E+03  0.7546771E-02  0.9377444E-01
        -11   -1    0    0    0    0  0.00000000000E+00  0.00000000000E+00  0.50000000000E+03  0.50000000000E+03  0.00000000000E+00 0.  1.
         11   -1    0    0    0    0 -0.00000000000E+00 -0.00000000000E+00 -0.50000000000E+03  0.50000000000E+03  0.00000000000E+00 0.  1.
        -11    1    1    2    0    0  0.50032419801E+01 -0.22534246248E+01  0.33390252460E+03  0.33394761010E+03  0.00000000000E+00 0.  1.
         11    1    1    2    0    0  0.26408865520E+00 -0.27902584731E+02 -0.48908356675E+03  0.48987892305E+03  0.00000000000E+00 0.  1.
        -15    1    1    2    0    0 -0.64128989729E+01  0.23958514592E+02  0.44018166529E+01  0.25252117011E+02  0.17770000000E+01 0. -1.
         15    1    1    2    0    0  0.11455683376E+01  0.61974947636E+01  0.15077922550E+03  0.15092134984E+03  0.17770000000E+01 0.  1.
</event>
<event>
 6    1  0.3365733E-003  0.5055764E+03  0.7546771E-02  0.9387418E-01
        -11   -1    0    0    0    0  0.00000000000E+00  0.00000000000E+00  0.50000000000E+03  0.50000000000E+03  0.00000000000E+00 0.  1.
         11   -1    0    0    0    0 -0.00000000000E+00 -0.00000000000E+00 -0.50000000000E+03  0.50000000000E+03  0.00000000000E+00 0. -1.
        -11    1    1    2    0    0  0.11809246241E+02  0.41414646593E+00  0.49428238157E+03  0.49442360638E+03  0.00000000000E+00 0.  1.
         11    1    1    2    0    0 -0.47554484222E+01 -0.11924409301E+02 -0.45367331276E+03  0.45385491133E+03  0.00000000000E+00 0. -1.
        -15    1    1    2    0    0 -0.14954400999E+02  0.12980078125E+02 -0.15239484240E+02  0.25050272379E+02  0.17770000000E+01 0.  1.
         15    1    1    2    0    0  0.79006031800E+01 -0.14698152896E+01 -0.25369584575E+02  0.26671209910E+02  0.17770000000E+01 0. -1.
</event>
<event>
 6    1  0.3365733E-003  0.5159054E+03  0.7546771E-02  0.9364907E-01
        -11   -1    0    0    0    0  0.00000000000E+00  0.00000000000E+00  0.50000000000E+03  0.50000000000E+03  0.00000000000E+00 0. -1.
         11   -1    0    0    0    0 -0.00000000000E+00 -0.00000000000E+00 -0.50000000000E+03  0.50000000000E+03  0.00000000000E+00 0.  1.
        -11    1    1    2    0    0 -0.62408953805E-01 -0.20200595331E+02  0.47284073931E+03  0.47327204935E+03  0.00000000000E+00 0. -1.
         11    1    1    2    0    0 -0.39935992733E+00  0.71848189936E+01 -0.48404106544E+03  0.48409455084E+03  0.00000000000E+00 0.  1.
        -15    1    1    2    0    0 -0.16177406918E+00 -0.13924923416E+02  0.24964331825E+01  0.14259017169E+02  0.17770000000E+01 0. -1.
         15    1    1    2    0    0  0.62354295031E+00  0.26940699753E+02  0.87038929549E+01  0.28374382647E+02  0.17770000000E+01 0.  1.
</event>
<event>
 6    1  0.3365733E-003  0.5016729E+03  0.7546771E-02  0.9396074E-01
        -11   -1    0    0    0    0  0.00000000000E+00  0.00000000000E+00  0.50000000000E+03  0.50000000000E+03  0.00000000000E+00 0. -1.
         11   -1    0    0    0    0 -0.00000000000E+00 -0.00000000000E+00 -0.50000000000E+03  0.50000000000E+03  0.00000000000E+00 0. -1.
        -11    1    1    2    0    0  0.77627103062E+01 -0.27021622013E+01  0.49825934603E+03  0.49832713880E+03  0.00000000000E+00 0. -1.
         11    1    1    2    0    0 -0.64822464975E+01 -0.61392164242E+01 -0.46132342432E+03  0.46140980844E+03  0.00000000000E+00 0. -1.
        -15    1    1    2    0    0 -0.50326385063E+01  0.19941607033E+01 -0.58647261433E+01  0.81766049789E+01  0.17770000000E+01 0. -1.
         15    1    1    2    0    0  0.37521746976E+01  0.68472179222E+01 -0.31071195567E+02  0.32086447781E+02  0.17770000000E+01 0.  1.
</event>
<event>
 6    1  0.3365733E-003  0.5107164E+03  0.7546771E-02  0.9376145E-01
        -11   -1    0    0    0    0  0.00000000000E+00  0.00000000000E+00  0.50000000000E+03  0.50000000000E+03  0.00000000000E+00 0.  1.
         11   -1    0    0    0    0 -0.00000000000E+00 -0.00000000000E+00 -0.50000000000E+03  0.50000000000E+03  0.00000000000E+00 0.  1.
        -11    1    1    2    0    0 -0.68285058768E+01  0.74803267924E+01  0.48917874933E+03  0.48928359116E+03  0.00000000000E+00 0.  1.
         11    1    1    2    0    0  0.89318581699E+01 -0.57902579901E+01 -0.47683534841E+03  0.47695414315E+03  0.00000000000E+00 0.  1.
        -15    1    1    2    0    0 -0.22743348293E+01  0.14180123213E+02 -0.10072662606E+02  0.17631357129E+02  0.17770000000E+01 0. -1.
         15    1    1    2    0    0  0.17098253619E+00 -0.15870192015E+02 -0.22707383126E+01  0.16130908564E+02  0.17770000000E+01 0.  1.
</event>
<event>
 6    1  0.3365733E-003  0.5008904E+03  0.7546771E-02  0.9397819E-01
        -11   -1    0    0    0    0  0.00000000000E+00  0.00000000000E+00  0.50000000000E+03  0.50000000000E+03  0.00000000000E+00 0. -1.
         11   -1    0    0    0    0 -0.00000000000E+00 -0.00000000000E+00 -0.50000000000E+03  0.50000000000E+03  0.00000000000E+00 0.  1.
        -11    1    1    2    0    0 -0.12480910573E+02 -0.40242136250E+01  0.49893724605E+03  0.49910955002E+03  0.00000000000E+00 0. -1.
         11    1    1    2    0    0 -0.52702176495E+01  0.20017043048E+01 -0.24396145774E+03  0.24402658641E+03  0.00000000000E+00 0.  1.
        -15    1    1    2    0    0  0.30211425812E+01  0.70479229494E+01 -0.22066247438E+02  0.23428135338E+02  0.17770000000E+01 0. -1.
         15    1    1    2    0    0  0.14729985642E+02 -0.50254136292E+01 -0.23290954087E+03  0.23343572823E+03  0.17770000000E+01 0.  1.
</event>
<event>
 6    1  0.3365733E-003  0.5010269E+03  0.7546771E-02  0.9397515E-01
        -11   -1    0    0    0    0  0.00000000000E+00  0.00000000000E+00  0.50000000000E+03  0.50000000000E+03  0.00000000000E+00 0. -1.
         11   -1    0    0    0    0 -0.00000000000E+00 -0.00000000000E+00 -0.50000000000E+03  0.50000000000E+03  0.00000000000E+00 0. -1.
        -11    1    1    2    0    0  0.27556936418E+01 -0.56998678422E+01  0.39706338022E+03  0.39711385049E+03  0.00000000000E+00 0. -1.
         11    1    1    2    0    0 -0.12078404863E+02 -0.20549103455E+01 -0.49882263443E+03  0.49897307657E+03  0.00000000000E+00 0. -1.
        -15    1    1    2    0    0 -0.43621340271E+00  0.95199915722E+01  0.32190757744E+02  0.33618791394E+02  0.17770000000E+01 0. -1.
         15    1    1    2    0    0  0.97589246243E+01 -0.17652133844E+01  0.69568496470E+02  0.70294281547E+02  0.17770000000E+01 0.  1.
</event>
<event>
 6    1  0.3365733E-003  0.5078487E+03  0.7546771E-02  0.9382417E-01
        -11   -1    0    0    0    0  0.00000000000E+00  0.00000000000E+00  0.50000000000E+03  0.50000000000E+03  0.00000000000E+00 0. -1.
         11   -1    0    0    0    0 -0.00000000000E+00 -0.00000000000E+00 -0.50000000000E+03  0.50000000000E+03  0.00000000000E+00 0. -1.
        -11    1    1    2    0    0 -0.11356147270E+00 -0.12603668319E+02  0.49198985850E+03  0.49215128387E+03  0.00000000000E+00 0. -1.
         11    1    1    2    0    0 -0.84266948012E+01  0.11097497676E+01 -0.10033951485E+03  0.10069885287E+03  0.00000000000E+00 0. -1.
        -15    1    1    2    0    0 -0.71927182468E+01  0.20123202872E+02 -0.38819879911E+03  0.38879061697E+03  0.17770000000E+01 0. -1.
         15    1    1    2    0    0  0.15732974521E+02 -0.86292843206E+01 -0.34515445421E+01  0.18359246278E+02  0.17770000000E+01 0.  1.
</event>
<event>
 6    1  0.3365733E-003  0.5034264E+03  0.7546771E-02  0.9392175E-01
        -11   -1    0    0    0    0  0.00000000000E+00  0.00000000000E+00  0.50000000000E+03  0.50000000000E+03  0.00000000000E+00 0.  1.
         11   -1    0    0    0    0 -0.00000000000E+00 -0.00000000000E+00 -0.50000000000E+03  0.50000000000E+03  0.00000000000E+00 0. -1.
        -11    1    1    2    0    0 -0.84480286174E+01  0.16533424049E+01  0.49649896978E+03  0.49657358943E+03  0.00000000000E+00 0.  1.
         11    1    1    2    0    0 -0.11680116362E+02 -0.51088908560E+01 -0.43874072138E+03  0.43892590090E+03  0.00000000000E+00 0. -1.
        -15    1    1    2    0    0  0.23603373915E+02  0.47551604147E+01 -0.52798934544E+02  0.58057006715E+02  0.17770000000E+01 0. -1.
         15    1    1    2    0    0 -0.34752289360E+01 -0.12996119636E+01 -0.49593138597E+01  0.64435029582E+01  0.17770000000E+01 0. -1.
</event>
<event>
 6    1  0.3365733E-003  0.5005160E+03  0.7546771E-02  0.9398656E-01
        -11   -1    0    0    0    0  0.00000000000E+00  0.00000000000E+00  0.50000000000E+03  0.50000000000E+03  0.00000000000E+00 0.  1.
         11   -1    0    0    0    0 -0.00000000000E+00 -0.00000000000E+00 -0.50000000000E+03  0.50000000000E+03  0.00000000000E+00 0.  1.
        -11    1    1    2    0    0  0.80142487855E+00  0.48129774253E+01  0.33660512743E+03  0.33664048902E+03  0.00000000000E+00 0.  1.
         11    1    1    2    0    0 -0.83340343440E+01 -0.32764088323E+01 -0.49940369441E+03  0.49948397469E+03  0.00000000000E+00 0.  1.
        -15    1    1    2    0    0  0.99918710858E+01  0.38634711017E+01  0.66757861134E+02  0.67635298838E+02  0.17770000000E+01 0.  1.
         15    1    1    2    0    0 -0.24592616203E+01 -0.54000396947E+01  0.96040705845E+02  0.96240237451E+02  0.17770000000E+01 0.  1.
</event>
<event>
 6    1  0.3365733E-003  0.5046181E+03  0.7546771E-02  0.9389535E-01
        -11   -1    0    0    0    0  0.00000000000E+00  0.00000000000E+00  0.50000000000E+03  0.50000000000E+03  0.00000000000E+00 0. -1.
         11   -1    0    0    0    0 -0.00000000000E+00 -0.00000000000E+00 -0.50000000000E+03  0.50000000000E+03  0.00000000000E+00 0. -1.
        -11    1    1    2    0    0  0.52935175276E+01  0.63087064158E+01  0.49531343857E+03  0.49538189665E+03  0.00000000000E+00 0. -1.
         11    1    1    2    0    0 -0.18543878519E+01 -0.77489018602E+01 -0.48990508653E+03  0.48996987463E+03  0.00000000000E+00 0. -1.
        -15    1    1    2    0    0 -0.53332003535E+01 -0.68516716093E+00 -0.84145457665E+01  0.10142721011E+02  0.17770000000E+01 0.  1.
         15    1    1    2    0    0  0.18940706779E+01  0.21253626053E+01  0.30061937342E+01  0.45055077078E+01  0.17770000000E+01 0. -1.
</event>
<event>
 6    1  0.3365733E-003  0.4806116E+03  0.7546771E-02  0.9444269E-01
        -11   -1    0    0    0    0  0.00000000000E+00  0.00000000000E+00  0.50000000000E+03  0.50000000000E+03  0.00000000000E+00 0.  1.
         11   -1    0    0    0    0 -0.00000000000E+00 -0.00000000000E+00 -0.50000000000E+03  0.50000000000E+03  0.00000000000E+00 0.  1.
        -11    1    1    2    0    0  0.60300344522E+01 -0.45293357620E+01  0.48169529158E+03  0.48175432549E+03  0.00000000000E+00 0.  1.
         11    1    1    2    0    0 -0.44396817889E+01  0.18381419179E+02 -0.47920021668E+03  0.47957318004E+03  0.00000000000E+00 0.  1.
        -15    1    1    2    0    0  0.12154161550E+01  0.12177930350E+01 -0.17187908430E+02  0.17364969954E+02  0.17770000000E+01 0. -1.
         15    1    1    2    0    0 -0.28057688184E+01 -0.15069876452E+02  0.14692833524E+02  0.21307524514E+02  0.17770000000E+01 0.  1.
</event>
<event>
 6    1  0.3365733E-003  0.5026158E+03  0.7546771E-02  0.9393976E-01
        -11   -1    0    0    0    0  0.00000000000E+00  0.00000000000E+00  0.50000000000E+03  0.50000000000E+03  0.00000000000E+00 0. -1.
         11   -1    0    0    0    0 -0.00000000000E+00 -0.00000000000E+00 -0.50000000000E+03  0.50000000000E+03  0.00000000000E+00 0.  1.
        -11    1    1    2    0    0 -0.16375199975E+02  0.73411488997E+01  0.19359300582E+03  0.19442297072E+03  0.00000000000E+00 0. -1.
         11    1    1    2    0    0  0.74903468120E+01  0.14425566754E+01 -0.49732567974E+03  0.49738417545E+03  0.00000000000E+00 0.  1.
        -15    1    1    2    0    0  0.61267189438E+01 -0.66372912586E+01  0.30411429113E+03  0.30425359508E+03  0.17770000000E+01 0. -1.
         15    1    1    2    0    0  0.27581342193E+01 -0.21464143165E+01 -0.38161721025E+00  0.39392587482E+01  0.17770000000E+01 0.  1.
</event>
<event>
 6    1  0.3365733E-003  0.5019645E+03  0.7546771E-02  0.9395425E-01
        -11   -1    0    0    0    0  0.00000000000E+00  0.00000000000E+00  0.50000000000E+03  0.50000000000E+03  0.00000000000E+00 0. -1.
         11   -1    0    0    0    0 -0.00000000000E+00 -0.00000000000E+00 -0.50000000000E+03  0.50000000000E+03  0.00000000000E+00 0.  1.
        -11    1    1    2    0    0  0.10351966354E+02 -0.58896747366E+01  0.49789302895E+03  0.49803546034E+03  0.00000000000E+00 0. -1.
         11    1    1    2    0    0 -0.58794811217E+01  0.84207488986E+01 -0.34337516734E+03  0.34352872203E+03  0.00000000000E+00 0.  1.
        -15    1    1    2    0    0 -0.86670883740E+01  0.12236736527E+01 -0.86011325614E+01  0.12399718079E+02  0.17770000000E+01 0.  1.
         15    1    1    2    0    0  0.41946031413E+01 -0.37547478146E+01 -0.14591672905E+03  0.14603609955E+03  0.17770000000E+01 0. -1.
</event>
<event>
 6    1  0.3365733E-003  0.4700243E+03  0.7546771E-02  0.9469499E-01
        -11   -1    0    0    0    0  0.00000000000E+00  0.00000000000E+00  0.50000000000E+03  0.50000000000E+03  0.00000000000E+00 0. -1.
         11   -1    0    0    0    0 -0.00000000000E+00 -0.00000000000E+00 -0.50000000000E+03  0.50000000000E+03  0.00000000000E+00 0. -1.
        -11    1    1    2    0    0 -0.23243375968E+02  0.20912940735E+02  0.46762021203E+03  0.46866434504E+03  0.00000000000E+00 0. -1.
         11    1    1    2    0    0  0.30436505681E+01 -0.15830184638E+02 -0.47134679762E+03  0.47162237244E+03  0.00000000000E+00 0. -1.
        -15    1    1    2    0    0  0.35037003174E+02 -0.99860916920E+01  0.15934264617E+02  0.39804172352E+02  0.17770000000E+01 0.  1.
         15    1    1    2    0    0 -0.14837277774E+02  0.49033355949E+01 -0.12207679018E+02  0.19909110169E+02  0.17770000000E+01 0. -1.
</event>
<event>
 6    1  0.3365733E-003  0.5004543E+03  0.7546771E-02  0.9398794E-01
        -11   -1    0    0    0    0  0.00000000000E+00  0.00000000000E+00  0.50000000000E+03  0.50000000000E+03  0.00000000000E+00 0.  1.
         11   -1    0    0    0    0 -0.00000000000E+00 -0.00000000000E+00 -0.50000000000E+03  0.50000000000E+03  0.00000000000E+00 0. -1.
        -11    1    1    2    0    0  0.32672071585E+01  0.91120950595E+01  0.49945190065E+03  0.49954569959E+03  0.00000000000E+00 0.  1.
         11    1    1    2    0    0 -0.80237073556E+00  0.18400331892E+01 -0.10256741907E+03  0.10258706047E+03  0.00000000000E+00 0. -1.
        -15    1    1    2    0    0  0.70101437747E+00  0.28980536530E+01 -0.80156420507E+01  0.87348945396E+01  0.17770000000E+01 0. -1.
         15    1    1    2    0    0 -0.31658508005E+01 -0.13850181902E+02 -0.38886883953E+03  0.38913234540E+03  0.17770000000E+01 0. -1.
</event>
<event>
 6    1  0.3365733E-003  0.5057479E+03  0.7546771E-02  0.9387039E-01
        -11   -1    0    0    0    0  0.00000000000E+00  0.00000000000E+00  0.50000000000E+03  0.50000000000E+03  0.00000000000E+00 0. -1.
         11   -1    0    0    0    0 -0.00000000000E+00 -0.00000000000E+00 -0.50000000000E+03  0.50000000000E+03  0.00000000000E+00 0. -1.
        -11    1    1    2    0    0  0.84693998495E+01  0.90290481288E+01  0.49409705361E+03  0.49425211464E+03  0.00000000000E+00 0. -1.
         11    1    1    2    0    0  0.85601813983E+01 -0.54880030290E+01 -0.24604368716E+03  0.24625371240E+03  0.00000000000E+00 0. -1.
        -15    1    1    2    0    0  0.17587178593E+00 -0.84304982163E+01  0.19582510394E+01  0.88372341370E+01  0.17770000000E+01 0. -1.
         15    1    1    2    0    0 -0.17205453034E+02  0.48894531164E+01 -0.25001161749E+03  0.25065693882E+03  0.17770000000E+01 0.  1.
</event>
<event>
 6    1  0.3728295E-003  0.5771648E+03  0.7546771E-02  0.9241986E-01
        -11   -1    0    0    0    0  0.00000000000E+00  0.00000000000E+00  0.50000000000E+03  0.50000000000E+03  0.00000000000E+00 0.  1.
         11   -1    0    0    0    0 -0.00000000000E+00 -0.00000000000E+00 -0.50000000000E+03  0.50000000000E+03  0.00000000000E+00 0. -1.
        -11    1    1    2    0    0  0.10777163979E+02 -0.18734678106E+01  0.33659652098E+03  0.33677421974E+03  0.00000000000E+00 0.  1.
         11    1    1    2    0    0  0.10606329816E+01  0.99486422315E+01 -0.42271682415E+03  0.42283520885E+03  0.00000000000E+00 0. -1.
        -15    1    1    2    0    0 -0.42257440516E+01  0.72800076024E+00  0.16277295945E+03  0.16283912600E+03  0.17770000000E+01 0.  1.
         15    1    1    2    0    0 -0.76120529090E+01 -0.88031751811E+01 -0.76652656281E+02  0.77551445420E+02  0.17770000000E+01 0. -1.
</event>
<event>
 6    1  0.3365733E-003  0.5058581E+03  0.7546771E-02  0.9386796E-01
        -11   -1    0    0    0    0  0.00000000000E+00  0.00000000000E+00  0.50000000000E+03  0.50000000000E+03  0.00000000000E+00 0.  1.
         11   -1    0    0    0    0 -0.00000000000E+00 -0.00000000000E+00 -0.50000000000E+03  0.50000000000E+03  0.00000000000E+00 0. -1.
        -11    1    1    2    0    0 -0.15566266373E+01  0.82572896688E+01  0.49407049047E+03  0.49414193859E+03  0.00000000000E+00 0.  1.
         11    1    1    2    0    0  0.75421201599E+01 -0.18942707846E+01 -0.42974708974E+03  0.42981744146E+03  0.00000000000E+00 0. -1.
        -15    1    1    2    0    0 -0.29503277491E+01 -0.12728898821E+02 -0.67004174004E+02  0.68289430821E+02  0.17770000000E+01 0.  1.
         15    1    1    2    0    0 -0.30351657735E+01  0.63658799366E+01  0.26807732773E+01  0.77511891349E+01  0.17770000000E+01 0. -1.
</event>
<event>
 6    1  0.3365733E-003  0.5084315E+03  0.7546771E-02  0.9381139E-01
        -11   -1    0    0    0    0  0.00000000000E+00  0.00000000000E+00  0.50000000000E+03  0.50000000000E+03  0.00000000000E+00 0. -1.
         11   -1    0    0    0    0 -0.00000000000E+00 -0.00000000000E+00 -0.50000000000E+03  0.50000000000E+03  0.00000000000E+00 0.  1.
        -11    1    1    2    0    0 -0.85699198022E+01 -0.18495028388E+01  0.42164524671E+03  0.42173638480E+03  0.00000000000E+00 0. -1.
         11    1    1    2    0    0 -0.26481715860E+02  0.13175901287E+02 -0.49067783069E+03  0.49156852948E+03  0.00000000000E+00 0.  1.
        -15    1    1    2    0    0  0.37009037181E+02 -0.11012076449E+02  0.33756118673E+02  0.51318300222E+02  0.17770000000E+01 0.  1.
         15    1    1    2    0    0 -0.19574015196E+01 -0.31432199880E+00  0.35276465300E+02  0.35376785497E+02  0.17770000000E+01 0. -1.
</event>
<event>
 6    1  0.3365733E-003  0.5002301E+03  0.7546771E-02  0.9399295E-01
        -11   -1    0    0    0    0  0.00000000000E+00  0.00000000000E+00  0.50000000000E+03  0.50000000000E+03  0.00000000000E+00 0. -1.
         11   -1    0    0    0    0 -0.00000000000E+00 -0.00000000000E+00 -0.50000000000E+03  0.50000000000E+03  0.00000000000E+00 0.  1.
        -11    1    1    2    0    0 -0.12844212027E+01  0.43217812059E+01  0.29162073645E+03  0.29165558705E+03  0.00000000000E+00 0. -1.
         11    1    1    2    0    0  0.34787326298E+01 -0.59120771046E+01 -0.49972279202E+03  0.49976987014E+03  0.00000000000E+00 0.  1.
        -15    1    1    2    0    0 -0.14772590863E+01 -0.26705348543E+01  0.18343325072E+03  0.18346724299E+03  0.17770000000E+01 0. -1.
         15    1    1    2    0    0 -0.71705234084E+00  0.42608307531E+01  0.24668804852E+02  0.25107299827E+02  0.17770000000E+01 0.  1.
</event>
<event>
 6    1  0.3365733E-003  0.5028112E+03  0.7546771E-02  0.9393541E-01
        -11   -1    0    0    0    0  0.00000000000E+00  0.00000000000E+00  0.50000000000E+03  0.50000000000E+03  0.00000000000E+00 0. -1.
         11   -1    0    0    0    0 -0.00000000000E+00 -0.00000000000E+00 -0.50000000000E+03  0.50000000000E+03  0.00000000000E+00 0. -1.
        -11    1    1    2    0    0 -0.13284820695E+02 -0.67664298604E+01  0.49696524410E+03  0.49718882216E+03  0.00000000000E+00 0. -1.
         11    1    1    2    0    0 -0.92012937132E+01  0.10793019133E+02 -0.41911743597E+03  0.41935733951E+03  0.00000000000E+00 0. -1.
        -15    1    1    2    0    0  0.15737848514E+02 -0.46316342911E+00 -0.22298405594E+02  0.27354542900E+02  0.17770000000E+01 0.  1.
         15    1    1    2    0    0  0.67482658940E+01 -0.35634258437E+01 -0.55549402540E+02  0.56099295431E+02  0.17770000000E+01 0. -1.
</event>
<event>
 6    1  0.3365733E-003  0.5006530E+03  0.7546771E-02  0.9398350E-01
        -11   -1    0    0    0    0  0.00000000000E+00  0.00000000000E+00  0.50000000000E+03  0.50000000000E+03  0.00000000000E+00 0. -1.
         11   -1    0    0    0    0 -0.00000000000E+00 -0.00000000000E+00 -0.50000000000E+03  0.50000000000E+03  0.00000000000E+00 0.  1.
        -11    1    1    2    0    0 -0.63177972422E+00  0.13504891051E+02  0.34426423128E+03  0.34452959548E+03  0.00000000000E+00 0. -1.
         11    1    1    2    0    0  0.46546008264E+00 -0.76898621457E+01 -0.49928757477E+03  0.49934700655E+03  0.00000000000E+00 0.  1.
        -15    1    1    2    0    0 -0.21088057292E+01 -0.60839657721E+01  0.15108668271E+03  0.15123427231E+03  0.17770000000E+01 0.  1.
         15    1    1    2    0    0  0.22751253708E+01  0.26893686697E+00  0.39366607857E+01  0.48891256512E+01  0.17770000000E+01 0. -1.
</event>
<event>
 6    1  0.3365733E-003  0.5139104E+03  0.7546771E-02  0.9369211E-01
        -11   -1    0    0    0    0  0.00000000000E+00  0.00000000000E+00  0.50000000000E+03  0.50000000000E+03  0.00000000000E+00 0.  1.
         11   -1    0    0    0    0 -0.00000000000E+00 -0.00000000000E+00 -0.50000000000E+03  0.50000000000E+03  0.00000000000E+00 0.  1.
        -11    1    1    2    0    0  0.10793889669E+02  0.56490732136E+01  0.48593686580E+03  0.48608955720E+03  0.00000000000E+00 0.  1.
         11    1    1    2    0    0  0.33289115414E+02 -0.61166434204E+01 -0.43032568563E+03  0.43165469330E+03  0.00000000000E+00 0.  1.
        -15    1    1    2    0    0 -0.61950665275E+01 -0.44746918093E+01  0.59033192216E+01  0.98187892788E+01  0.17770000000E+01 0. -1.
         15    1    1    2    0    0 -0.37887938556E+02  0.49422620161E+01 -0.61514499388E+02  0.72436960219E+02  0.17770000000E+01 0.  1.
</event>
<event>
 6    1  0.3365733E-003  0.5013173E+03  0.7546771E-02  0.9396867E-01
        -11   -1    0    0    0    0  0.00000000000E+00  0.00000000000E+00  0.50000000000E+03  0.50000000000E+03  0.00000000000E+00 0.  1.
         11   -1    0    0    0    0 -0.00000000000E+00 -0.00000000000E+00 -0.50000000000E+03  0.50000000000E+03  0.00000000000E+00 0. -1.
        -11    1    1    2    0    0 -0.83721561055E+01  0.78368458778E+00  0.42993085898E+03  0.43001308196E+03  0.00000000000E+00 0.  1.
         11    1    1    2    0    0  0.99997921509E+01 -0.62438329994E+01 -0.49854335052E+03  0.49868271841E+03  0.00000000000E+00 0. -1.
        -15    1    1    2    0    0 -0.62458851132E+01 -0.72839717751E+00  0.87559232673E+01  0.10925454890E+02  0.17770000000E+01 0. -1.
         15    1    1    2    0    0  0.46182490678E+01  0.61885455891E+01  0.59856568278E+02  0.60378744736E+02  0.17770000000E+01 0.  1.
</event>
<event>
 6    1  0.3365733E-003  0.5038052E+03  0.7546771E-02  0.9391335E-01
        -11   -1    0    0    0    0  0.00000000000E+00  0.00000000000E+00  0.50000000000E+03  0.50000000000E+03  0.00000000000E+00 0.  1.
         11   -1    0    0    0    0 -0.00000000000E+00 -0.00000000000E+00 -0.50000000000E+03  0.50000000000E+03  0.00000000000E+00 0. -1.
        -11    1    1    2    0    0 -0.82723445035E+01 -0.43336083058E+01  0.49610693653E+03  0.49619482496E+03  0.00000000000E+00 0.  1.
         11    1    1    2    0    0 -0.13435869090E+00  0.15268708403E+02 -0.35840578302E+03  0.35873089749E+03  0.00000000000E+00 0. -1.
        -15    1    1    2    0    0  0.85929095733E+01 -0.26344572278E+02 -0.10863481981E+03  0.11212741140E+03  0.17770000000E+01 0. -1.
         15    1    1    2    0    0 -0.18620637889E+00  0.15409472181E+02 -0.29066333695E+02  0.32946866151E+02  0.17770000000E+01 0.  1.
</event>
<event>
 6    1  0.3365733E-003  0.4633993E+03  0.7546771E-02  0.9485650E-01
        -11   -1    0    0    0    0  0.00000000000E+00  0.00000000000E+00  0.50000000000E+03  0.50000000000E+03  0.00000000000E+00 0.  1.
         11   -1    0    0    0    0 -0.00000000000E+00 -0.00000000000E+00 -0.50000000000E+03  0.50000000000E+03  0.00000000000E+00 0. -1.
        -11    1    1    2    0    0 -0.35443695331E+01  0.54380200446E+01  0.46394778076E+03  0.46399318734E+03  0.00000000000E+00 0.  1.
         11    1    1    2    0    0 -0.20061818181E+02 -0.29629636476E+02 -0.46203993030E+03  0.46342344470E+03  0.00000000000E+00 0. -1.
        -15    1    1    2    0    0  0.41744260322E+01 -0.45734006101E+01  0.26761932954E+02  0.27526362096E+02  0.17770000000E+01 0.  1.
         15    1    1    2    0    0  0.19431761682E+02  0.28765017042E+02 -0.28669783420E+02  0.45057005869E+02  0.17770000000E+01 0. -1.
</event>
<event>
 6    1  0.3365733E-003  0.5032657E+03  0.7546771E-02  0.9392532E-01
        -11   -1    0    0    0    0  0.00000000000E+00  0.00000000000E+00  0.50000000000E+03  0.50000000000E+03  0.00000000000E+00 0.  1.
         11   -1    0    0    0    0 -0.00000000000E+00 -0.00000000000E+00 -0.50000000000E+03  0.50000000000E+03  0.00000000000E+00 0. -1.
        -11    1    1    2    0    0 -0.88038505748E+01  0.23723179269E+01  0.49665064279E+03  0.49673433207E+03  0.00000000000E+00 0.  1.
         11    1    1    2    0    0  0.47527271068E+01 -0.51470169553E+01 -0.48168329879E+03  0.48173424264E+03  0.00000000000E+00 0. -1.
        -15    1    1    2    0    0  0.87344288275E+01  0.31121350325E+00 -0.12671723368E+02  0.15495722084E+02  0.17770000000E+01 0. -1.
         15    1    1    2    0    0 -0.46833053595E+01  0.24634855251E+01 -0.22956206280E+01  0.60357031977E+01  0.17770000000E+01 0.  1.
</event>
<event>
 6    1  0.3365733E-003  0.5007228E+03  0.7546771E-02  0.9398194E-01
        -11   -1    0    0    0    0  0.00000000000E+00  0.00000000000E+00  0.50000000000E+03  0.50000000000E+03  0.00000000000E+00 0.  1.
         11   -1    0    0    0    0 -0.00000000000E+00 -0.00000000000E+00 -0.50000000000E+03  0.50000000000E+03  0.00000000000E+00 0.  1.
        -11    1    1    2    0    0 -0.16600597479E+02 -0.22977125155E+01  0.49899589836E+03  0.49927724353E+03  0.00000000000E+00 0.  1.
         11    1    1    2    0    0  0.86176981540E+01  0.14003583744E+02 -0.19295071116E+03  0.19365005039E+03  0.00000000000E+00 0.  1.
        -15    1    1    2    0    0  0.49999346803E+01 -0.11373860094E+02 -0.78195713430E+02  0.79196536339E+02  0.17770000000E+01 0. -1.
         15    1    1    2    0    0  0.29829646450E+01 -0.33201113496E+00 -0.22784947377E+03  0.22787616974E+03  0.17770000000E+01 0.  1.
</event>
<event>
 6    1  0.3365733E-003  0.5055640E+03  0.7546771E-02  0.9387445E-01
        -11   -1    0    0    0    0  0.00000000000E+00  0.00000000000E+00  0.50000000000E+03  0.50000000000E+03  0.00000000000E+00 0.  1.
         11   -1    0    0    0    0 -0.00000000000E+00 -0.00000000000E+00 -0.50000000000E+03  0.50000000000E+03  0.00000000000E+00 0.  1.
        -11    1    1    2    0    0  0.61420794400E+01 -0.76272011446E+01  0.49433897042E+03  0.49443595846E+03  0.00000000000E+00 0.  1.
         11    1    1    2    0    0 -0.67860972261E+01  0.45839292334E+01 -0.48366959404E+03  0.48373891690E+03  0.00000000000E+00 0.  1.
        -15    1    1    2    0    0 -0.31181131867E+01 -0.44872093927E+01 -0.11822392740E+02  0.13144747128E+02  0.17770000000E+01 0.  1.
         15    1    1    2    0    0  0.37621309728E+01  0.75304813039E+01  0.11530163569E+01  0.86803775174E+01  0.17770000000E+01 0. -1.
</event>
<event>
 6    1  0.3365733E-003  0.5026836E+03  0.7546771E-02  0.9393825E-01
        -11   -1    0    0    0    0  0.00000000000E+00  0.00000000000E+00  0.50000000000E+03  0.50000000000E+03  0.00000000000E+00 0. -1.
         11   -1    0    0    0    0 -0.00000000000E+00 -0.00000000000E+00 -0.50000000000E+03  0.50000000000E+03  0.00000000000E+00 0.  1.
        -11    1    1    2    0    0  0.49627135877E+01 -0.72427636499E+01  0.49723887457E+03  0.49731638274E+03  0.00000000000E+00 0. -1.
         11    1    1    2    0    0  0.45900825747E+01 -0.54942092957E+01 -0.36484538044E+03  0.36491561603E+03  0.00000000000E+00 0.  1.
        -15    1    1    2    0    0 -0.16726567060E+02  0.53936829221E+01 -0.29763879516E+02  0.34610924777E+02  0.17770000000E+01 0.  1.
         15    1    1    2    0    0  0.71737708977E+01  0.73432900234E+01 -0.10262961462E+03  0.10315707646E+03  0.17770000000E+01 0. -1.
</event>
<event>
 6    1  0.3365733E-003  0.5099415E+03  0.7546771E-02  0.9377836E-01
        -11   -1    0    0    0    0  0.00000000000E+00  0.00000000000E+00  0.50000000000E+03  0.50000000000E+03  0.00000000000E+00 0.  1.
         11   -1    0    0    0    0 -0.00000000000E+00 -0.00000000000E+00 -0.50000000000E+03  0.50000000000E+03  0.00000000000E+00 0.  1.
        -11    1    1    2    0    0 -0.77958644099E+01 -0.65229610295E+01  0.48995310869E+03  0.49005854062E+03  0.00000000000E+00 0.  1.
         11    1    1    2    0    0  0.45065292485E+01  0.88531648717E+01 -0.26188683384E+03  0.26207518210E+03  0.00000000000E+00 0.  1.
        -15    1    1    2    0    0  0.32024061167E+01  0.11438789003E+02  0.59740805251E+01  0.13414494620E+02  0.17770000000E+01 0. -1.
         15    1    1    2    0    0  0.86929044707E-01 -0.13768992846E+02 -0.23404035537E+03  0.23445178266E+03  0.17770000000E+01 0.  1.
</event>
<event>
 6    1  0.3365733E-003  0.5000464E+03  0.7546771E-02  0.9399706E-01
        -11   -1    0    0    0    0  0.00000000000E+00  0.00000000000E+00  0.50000000000E+03  0.50000000000E+03  0.00000000000E+00 0.  1.
         11   -1    0    0    0    0 -0.00000000000E+00 -0.00000000000E+00 -0.50000000000E+03  0.50000000000E+03  0.00000000000E+00 0. -1.
        -11    1    1    2    0    0 -0.22732445100E+01  0.16875587338E+01  0.15285348801E+03  0.15287970530E+03  0.00000000000E+00 0.  1.
         11    1    1    2    0    0 -0.13548163389E+01 -0.69024832807E+01 -0.49990408823E+03  0.49995357508E+03  0.00000000000E+00 0. -1.
        -15    1    1    2    0    0 -0.10536999059E+01  0.25215736518E+01  0.11257490770E+03  0.11262209459E+03  0.17770000000E+01 0. -1.
         15    1    1    2    0    0  0.46817607549E+01  0.26933508950E+01  0.23447569252E+03  0.23454462503E+03  0.17770000000E+01 0.  1.
</event>
<event>
 6    1  0.3365733E-003  0.5075596E+03  0.7546771E-02  0.9383052E-01
        -11   -1    0    0    0    0  0.00000000000E+00  0.00000000000E+00  0.50000000000E+03  0.50000000000E+03  0.00000000000E+00 0.  1.
         11   -1    0    0    0    0 -0.00000000000E+00 -0.00000000000E+00 -0.50000000000E+03  0.50000000000E+03  0.00000000000E+00 0. -1.
        -11    1    1    2    0    0  0.12888403910E+01  0.41867442884E+01  0.27181066257E+03  0.27184596047E+03  0.00000000000E+00 0.  1.
         11    1    1    2    0    0  0.76411024256E+01  0.28177057215E+01 -0.49237302379E+03  0.49244037250E+03  0.00000000000E+00 0. -1.
        -15    1    1    2    0    0 -0.95831551705E+01 -0.46155626029E+01 -0.37221559090E+01  0.11408437876E+02  0.17770000000E+01 0. -1.
         15    1    1    2    0    0  0.65321235385E+00 -0.23888874069E+01  0.22428451713E+03  0.22430522915E+03  0.17770000000E+01 0. -1.
</event>
<event>
 6    1  0.3365733E-003  0.5005603E+03  0.7546771E-02  0.9398557E-01
        -11   -1    0    0    0    0  0.00000000000E+00  0.00000000000E+00  0.50000000000E+03  0.50000000000E+03  0.00000000000E+00 0. -1.
         11   -1    0    0    0    0 -0.00000000000E+00 -0.00000000000E+00 -0.50000000000E+03  0.50000000000E+03  0.00000000000E+00 0. -1.
        -11    1    1    2    0    0 -0.30485132515E+01 -0.10462625988E+02  0.49932075323E+03  0.49943966060E+03  0.00000000000E+00 0. -1.
         11    1    1    2    0    0  0.13263238622E+00  0.85442336981E+01 -0.43399356208E+03  0.43407768136E+03  0.00000000000E+00 0. -1.
        -15    1    1    2    0    0  0.28405056920E+01  0.64617535779E+01 -0.44518199109E+02  0.45109317361E+02  0.17770000000E+01 0. -1.
         15    1    1    2    0    0  0.75375173247E-01 -0.45433612878E+01 -0.20808992037E+02  0.21373340679E+02  0.17770000000E+01 0.  1.
</event>
<event>
 6    1  0.3365733E-003  0.5011090E+03  0.7546771E-02  0.9397332E-01
        -11   -1    0    0    0    0  0.00000000000E+00  0.00000000000E+00  0.50000000000E+03  0.50000000000E+03  0.00000000000E+00 0.  1.
         11   -1    0    0    0    0 -0.00000000000E+00 -0.00000000000E+00 -0.50000000000E+03  0.50000000000E+03  0.00000000000E+00 0.  1.
        -11    1    1    2    0    0 -0.60534465464E+01 -0.21238574950E+02  0.35186342481E+03  0.35255579842E+03  0.00000000000E+00 0.  1.
         11    1    1    2    0    0  0.12831301917E+02  0.67687128192E+01 -0.49867998346E+03  0.49889095371E+03  0.00000000000E+00 0.  1.
        -15    1    1    2    0    0 -0.40385052259E+00  0.12336616244E+02  0.12579985547E+03  0.12641644103E+03  0.17770000000E+01 0. -1.
         15    1    1    2    0    0 -0.63740048479E+01  0.21332458859E+01  0.21016703180E+02  0.22136806846E+02  0.17770000000E+01 0.  1.
</event>
<event>
 6    1  0.3365733E-003  0.5016858E+03  0.7546771E-02  0.9396045E-01
        -11   -1    0    0    0    0  0.00000000000E+00  0.00000000000E+00  0.50000000000E+03  0.50000000000E+03  0.00000000000E+00 0. -1.
         11   -1    0    0    0    0 -0.00000000000E+00 -0.00000000000E+00 -0.50000000000E+03  0.50000000000E+03  0.00000000000E+00 0.  1.
        -11    1    1    2    0    0  0.72057586116E+01  0.27099751379E+01  0.49825471642E+03  0.49831418739E+03  0.00000000000E+00 0. -1.
         11    1    1    2    0    0  0.14423154365E+01  0.11108964891E+01 -0.11581711673E+03  0.11583142446E+03  0.00000000000E+00 0.  1.
        -15    1    1    2    0    0 -0.93514928549E+01 -0.22289452921E+02 -0.10351761903E+03  0.10631709792E+03  0.17770000000E+01 0. -1.
         15    1    1    2    0    0  0.70341880677E+00  0.18468581294E+02 -0.27891998065E+03  0.27953729023E+03  0.17770000000E+01 0.  1.
</event>
<event>
 6    1  0.3365733E-003  0.5047964E+03  0.7546771E-02  0.9389141E-01
        -11   -1    0    0    0    0  0.00000000000E+00  0.00000000000E+00  0.50000000000E+03  0.50000000000E+03  0.00000000000E+00 0.  1.
         11   -1    0    0    0    0 -0.00000000000E+00 -0.00000000000E+00 -0.50000000000E+03  0.50000000000E+03  0.00000000000E+00 0. -1.
        -11    1    1    2    0    0 -0.74374551788E+01 -0.46844943715E+01  0.49512555216E+03  0.49520356686E+03  0.00000000000E+00 0.  1.
         11    1    1    2    0    0 -0.81333234067E+01 -0.18008576252E+01 -0.45470698244E+03  0.45478328237E+03  0.00000000000E+00 0. -1.
        -15    1    1    2    0    0  0.19183753066E+02  0.11947869592E+02 -0.31110302360E+02  0.38493851606E+02  0.17770000000E+01 0.  1.
         15    1    1    2    0    0 -0.36129744802E+01 -0.54625175957E+01 -0.93082673606E+01  0.11519299169E+02  0.17770000000E+01 0. -1.
</event>
<event>
 6    1  0.3365733E-003  0.5069272E+03  0.7546771E-02  0.9384442E-01
        -11   -1    0    0    0    0  0.00000000000E+00  0.00000000000E+00  0.50000000000E+03  0.50000000000E+03  0.00000000000E+00 0. -1.
         11   -1    0    0    0    0 -0.00000000000E+00 -0.00000000000E+00 -0.50000000000E+03  0.50000000000E+03  0.00000000000E+00 0. -1.
        -11    1    1    2    0    0  0.48517805926E+01 -0.34455311980E+01  0.14755217060E+03  0.14767211825E+03  0.00000000000E+00 0. -1.
         11    1    1    2    0    0  0.13099315031E+02  0.29520595163E+02 -0.49201400071E+03  0.49307284907E+03  0.00000000000E+00 0. -1.
        -15    1    1    2    0    0 -0.14950950806E+02 -0.36021197505E+02  0.44867101160E+02  0.59474970325E+02  0.17770000000E+01 0. -1.
         15    1    1    2    0    0 -0.30001448178E+01  0.99461335400E+01  0.29959472895E+03  0.29978006236E+03  0.17770000000E+01 0.  1.
</event>
<event>
 6    1  0.3365733E-003  0.5004199E+03  0.7546771E-02  0.9398871E-01
        -11   -1    0    0    0    0  0.00000000000E+00  0.00000000000E+00  0.50000000000E+03  0.50000000000E+03  0.00000000000E+00 0. -1.
         11   -1    0    0    0    0 -0.00000000000E+00 -0.00000000000E+00 -0.50000000000E+03  0.50000000000E+03  0.00000000000E+00 0. -1.
        -11    1    1    2    0    0 -0.17126892967E+01  0.97531756896E-01  0.87737468725E+02  0.87754237706E+02  0.00000000000E+00 0. -1.
         11    1    1    2    0    0  0.21708048276E+02 -0.12683148089E+02 -0.49894703708E+03  0.49958007107E+03  0.00000000000E+00 0. -1.
        -15    1    1    2    0    0  0.29372727075E+01  0.27936761659E+00  0.17260191205E+03  0.17263627483E+03  0.17770000000E+01 0. -1.
         15    1    1    2    0    0 -0.22932631687E+02  0.12306248716E+02  0.23860765631E+03  0.24002941638E+03  0.17770000000E+01 0. -1.
</event>
<event>
 6    1  0.3365733E-003  0.5349991E+03  0.7546771E-02  0.9324732E-01
        -11   -1    0    0    0    0  0.00000000000E+00  0.00000000000E+00  0.50000000000E+03  0.50000000000E+03  0.00000000000E+00 0. -1.
         11   -1    0    0    0    0 -0.00000000000E+00 -0.00000000000E+00 -0.50000000000E+03  0.50000000000E+03  0.00000000000E+00 0. -1.
        -11    1    1    2    0    0 -0.66700821709E+01 -0.13003801084E+02  0.46477119115E+03  0.46500091286E+03  0.00000000000E+00 0. -1.
         11    1    1    2    0    0 -0.13792956387E+01 -0.26776690948E+02 -0.37055789410E+03  0.37152664308E+03  0.00000000000E+00 0. -1.
        -15    1    1    2    0    0  0.28742306343E+02  0.10630959412E+01 -0.11231536489E+03  0.11595322016E+03  0.17770000000E+01 0. -1.
         15    1    1    2    0    0 -0.20692928534E+02  0.38717396091E+02  0.18102067842E+02  0.47519223905E+02  0.17770000000E+01 0.  1.
</event>
<event>
 6    1  0.3365733E-003  0.5256193E+03  0.7546771E-02  0.9344241E-01
        -11   -1    0    0    0    0  0.00000000000E+00  0.00000000000E+00  0.50000000000E+03  0.50000000000E+03  0.00000000000E+00 0. -1.
         11   -1    0    0    0    0 -0.00000000000E+00 -0.00000000000E+00 -0.50000000000E+03  0.50000000000E+03  0.00000000000E+00 0.  1.
        -11    1    1    2    0    0  0.26085705536E+02  0.15559386174E+02  0.47340728421E+03  0.47438066495E+03  0.00000000000E+00 0. -1.
         11    1    1    2    0    0  0.11095464811E+01 -0.25027870366E+02 -0.44900721637E+03  0.44970557673E+03  0.00000000000E+00 0.  1.
        -15    1    1    2    0    0 -0.16481056242E+02 -0.53897067526E+01  0.20783708140E+02  0.27125530535E+02  0.17770000000E+01 0. -1.
         15    1    1    2    0    0 -0.10714195776E+02  0.14858190945E+02 -0.45183775986E+02  0.48788227787E+02  0.17770000000E+01 0.  1.
</event>
<event>
 6    1  0.3365733E-003  0.5050000E+03  0.7546771E-02  0.9388691E-01
        -11   -1    0    0    0    0  0.00000000000E+00  0.00000000000E+00  0.50000000000E+03  0.50000000000E+03  0.00000000000E+00 0.  1.
         11   -1    0    0    0    0 -0.00000000000E+00 -0.00000000000E+00 -0.50000000000E+03  0.50000000000E+03  0.00000000000E+00 0. -1.
        -11    1    1    2    0    0 -0.13098747982E+02  0.90515400118E+01  0.49474386390E+03  0.49499999843E+03  0.00000000000E+00 0.  1.
         11    1    1    2    0    0  0.81979449928E+01  0.11506584212E+02 -0.47447568806E+03  0.47468598709E+03  0.00000000000E+00 0. -1.
        -15    1    1    2    0    0 -0.92563595968E+00 -0.23762315415E+01 -0.45995642205E+01  0.55513059983E+01  0.17770000000E+01 0. -1.
         15    1    1    2    0    0  0.58264389492E+01 -0.18181892682E+02 -0.15668611624E+02  0.24762708485E+02  0.17770000000E+01 0.  1.
</event>
<event>
 6    1  0.3365733E-003  0.5210722E+03  0.7546771E-02  0.9353856E-01
        -11   -1    0    0    0    0  0.00000000000E+00  0.00000000000E+00  0.50000000000E+03  0.50000000000E+03  0.00000000000E+00 0.  1.
         11   -1    0    0    0    0 -0.00000000000E+00 -0.00000000000E+00 -0.50000000000E+03  0.50000000000E+03  0.00000000000E+00 0.  1.
        -11    1    1    2    0    0  0.81281269417E+01 -0.38507537172E+01  0.47884337139E+03  0.47892783285E+03  0.00000000000E+00 0.  1.
         11    1    1    2    0    0 -0.63687218984E+01 -0.27557304206E+01 -0.46089629650E+03  0.46094853378E+03  0.00000000000E+00 0.  1.
        -15    1    1    2    0    0 -0.92061328449E+01  0.41068414350E+00  0.19372634657E+02  0.21526222288E+02  0.17770000000E+01 0.  1.
         15    1    1    2    0    0  0.74467278016E+01  0.61957999943E+01 -0.37319709552E+02  0.38597411086E+02  0.17770000000E+01 0. -1.
</event>
<event>
 6    1  0.3365733E-003  0.5233530E+03  0.7546771E-02  0.9349020E-01
        -11   -1    0    0    0    0  0.00000000000E+00  0.00000000000E+00  0.50000000000E+03  0.50000000000E+03  0.00000000000E+00 0.  1.
         11   -1    0    0    0    0 -0.00000000000E+00 -0.00000000000E+00 -0.50000000000E+03  0.50000000000E+03  0.00000000000E+00 0.  1.
        -11    1    1    2    0    0 -0.42523061927E+02 -0.16429736063E+01  0.47474355709E+03  0.47664699218E+03  0.00000000000E+00 0.  1.
         11    1    1    2    0    0 -0.13650945714E+02 -0.48172326687E+02 -0.35829701454E+03  0.36177848472E+03  0.00000000000E+00 0.  1.
        -15    1    1    2    0    0  0.40873864894E+02  0.49763346572E+01 -0.10500371058E+03  0.11280236568E+03  0.17770000000E+01 0. -1.
         15    1    1    2    0    0  0.15300142747E+02  0.44838965636E+02 -0.11442831965E+02  0.48772157423E+02  0.17770000000E+01 0.  1.
</event>
<event>
 6    1  0.3365733E-003  0.4301775E+03  0.7546771E-02  0.9571212E-01
        -11   -1    0    0    0    0  0.00000000000E+00  0.00000000000E+00  0.50000000000E+03  0.50000000000E+03  0.00000000000E+00 0.  1.
         11   -1    0    0    0    0 -0.00000000000E+00 -0.00000000000E+00 -0.50000000000E+03  0.50000000000E+03  0.00000000000E+00 0. -1.
        -11    1    1    2    0    0  0.22639236850E+01  0.12815429573E+02  0.44300740718E+02  0.46172678217E+02  0.00000000000E+00 0.  1.
         11    1    1    2    0    0  0.48960855557E+02  0.49988339357E+02 -0.41435493052E+03  0.42022137963E+03  0.00000000000E+00 0. -1.
        -15    1    1    2    0    0 -0.51577177805E+02 -0.27160370236E+02 -0.70564337411E+02  0.91544384999E+02  0.17770000000E+01 0. -1.
         15    1    1    2    0    0  0.35239856276E+00 -0.35643398694E+02  0.44061852722E+03  0.44206155715E+03  0.17770000000E+01 0.  1.
</event>
<event>
 6    1  0.3365733E-003  0.5063971E+03  0.7546771E-02  0.9385608E-01
        -11   -1    0    0    0    0  0.00000000000E+00  0.00000000000E+00  0.50000000000E+03  0.50000000000E+03  0.00000000000E+00 0. -1.
         11   -1    0    0    0    0 -0.00000000000E+00 -0.00000000000E+00 -0.50000000000E+03  0.50000000000E+03  0.00000000000E+00 0.  1.
        -11    1    1    2    0    0 -0.73447874376E+00  0.96186873918E+01  0.46502159868E+03  0.46512164629E+03  0.00000000000E+00 0. -1.
         11    1    1    2    0    0  0.17726578538E+02  0.94229437221E+01 -0.49319449459E+03  0.49360291019E+03  0.00000000000E+00 0.  1.
        -15    1    1    2    0    0 -0.47232632969E+01  0.21929064377E+01  0.40720286835E+01  0.68452320206E+01  0.17770000000E+01 0. -1.
         15    1    1    2    0    0 -0.12268836497E+02 -0.21234537552E+02  0.24100867226E+02  0.34430211501E+02  0.17770000000E+01 0.  1.
</event>
<event>
 6    1  0.3365733E-003  0.5009807E+03  0.7546771E-02  0.9397618E-01
        -11   -1    0    0    0    0  0.00000000000E+00  0.00000000000E+00  0.50000000000E+03  0.50000000000E+03  0.00000000000E+00 0.  1.
         11   -1    0    0    0    0 -0.00000000000E+00 -0.00000000000E+00 -0.50000000000E+03  0.50000000000E+03  0.00000000000E+00 0.  1.
        -11    1    1    2    0    0 -0.80565055478E+01 -0.11235389966E+01  0.42448167806E+03  0.42455961257E+03  0.00000000000E+00 0.  1.
         11    1    1    2    0    0 -0.13935716858E+01 -0.75589092663E+01 -0.49896008752E+03  0.49901928629E+03  0.00000000000E+00 0.  1.
        -15    1    1    2    0    0  0.16012052480E+01 -0.21512500144E+01  0.87781899678E+01  0.93491220434E+01  0.17770000000E+01 0.  1.
         15    1    1    2    0    0  0.78488719856E+01  0.10833698277E+02  0.65700219493E+02  0.67071979099E+02  0.17770000000E+01 0. -1.
</event>
<event>
 6    1  0.3365733E-003  0.5114163E+03  0.7546771E-02  0.9374621E-01
        -11   -1    0    0    0    0  0.00000000000E+00  0.00000000000E+00  0.50000000000E+03  0.50000000000E+03  0.00000000000E+00 0.  1.
         11   -1    0    0    0    0 -0.00000000000E+00 -0.00000000000E+00 -0.50000000000E+03  0.50000000000E+03  0.00000000000E+00 0. -1.
        -11    1    1    2    0    0 -0.67991999372E+01 -0.62329907667E+01  0.47570772311E+03  0.47579713862E+03  0.00000000000E+00 0.  1.
         11    1    1    2    0    0  0.59431742422E+00  0.15402310720E+02 -0.48834048399E+03  0.48858368034E+03  0.00000000000E+00 0. -1.
        -15    1    1    2    0    0  0.78962951318E+01 -0.20314898403E+02  0.89327687498E+01  0.23621995269E+02  0.17770000000E+01 0. -1.
         15    1    1    2    0    0 -0.16914126189E+01  0.11145578450E+02  0.36999921321E+01  0.11997185770E+02  0.17770000000E+01 0.  1.
</event>
<event>
 6    1  0.3365733E-003  0.5008686E+03  0.7546771E-02  0.9397868E-01
        -11   -1    0    0    0    0  0.00000000000E+00  0.00000000000E+00  0.50000000000E+03  0.50000000000E+03  0.00000000000E+00 0. -1.
         11   -1    0    0    0    0 -0.00000000000E+00 -0.00000000000E+00 -0.50000000000E+03  0.50000000000E+03  0.00000000000E+00 0. -1.
        -11    1    1    2    0    0 -0.61749239961E+01 -0.29774241916E+01  0.21165377002E+03  0.21176475889E+03  0.00000000000E+00 0. -1.
         11    1    1    2    0    0  0.12723144089E+02 -0.91920480797E+01 -0.49888457390E+03  0.49913143581E+03  0.00000000000E+00 0. -1.
        -15    1    1    2    0    0 -0.10500309696E+02 -0.23032211673E+00  0.36330366409E+02  0.37859778187E+02  0.17770000000E+01 0.  1.
         15    1    1    2    0    0  0.39520896032E+01  0.12399794388E+02  0.25090043746E+03  0.25124402712E+03  0.17770000000E+01 0. -1.
</event>
<event>
 6    1  0.3365733E-003  0.5068699E+03  0.7546771E-02  0.9384568E-01
        -11   -1    0    0    0    0  0.00000000000E+00  0.00000000000E+00  0.50000000000E+03  0.50000000000E+03  0.00000000000E+00 0.  1.
         11   -1    0    0    0    0 -0.00000000000E+00 -0.00000000000E+00 -0.50000000000E+03  0.50000000000E+03  0.00000000000E+00 0. -1.
        -11    1    1    2    0    0 -0.41909808832E+00  0.14810182486E+02  0.47415400269E+03  0.47438542918E+03  0.00000000000E+00 0.  1.
         11    1    1    2    0    0  0.63686680674E+01 -0.10280342365E+02 -0.49298177150E+03  0.49313007655E+03  0.00000000000E+00 0. -1.
        -15    1    1    2    0    0 -0.15234093817E+02  0.35377152278E+00  0.14117109794E+02  0.20848340142E+02  0.17770000000E+01 0.  1.
         15    1    1    2    0    0  0.92845238381E+01 -0.48836116443E+01  0.47106590075E+01  0.11636154127E+02  0.17770000000E+01 0. -1.
</event>
<event>
 6    1  0.3365733E-003  0.5022221E+03  0.7546771E-02  0.9394851E-01
        -11   -1    0    0    0    0  0.00000000000E+00  0.00000000000E+00  0.50000000000E+03  0.50000000000E+03  0.00000000000E+00 0. -1.
         11   -1    0    0    0    0 -0.00000000000E+00 -0.00000000000E+00 -0.50000000000E+03  0.50000000000E+03  0.00000000000E+00 0.  1.
        -11    1    1    2    0    0 -0.22921813202E+01  0.14560850343E+02  0.28346961262E+03  0.28385259156E+03  0.00000000000E+00 0. -1.
         11    1    1    2    0    0  0.90897079552E+01  0.43614886475E+01 -0.49767579204E+03  0.49777790164E+03  0.00000000000E+00 0.  1.
        -15    1    1    2    0    0 -0.46797159266E+01 -0.76107838604E+01  0.89069279814E+01  0.12740285208E+02  0.17770000000E+01 0.  1.
         15    1    1    2    0    0 -0.21178107084E+01 -0.11311555130E+02  0.20529925144E+03  0.20562922159E+03  0.17770000000E+01 0. -1.
</event>
<event>
 6    1  0.3428479E-003  0.5024734E+03  0.7546771E-02  0.9394292E-01
        -11   -1    0    0    0    0  0.00000000000E+00  0.00000000000E+00  0.50000000000E+03  0.50000000000E+03  0.00000000000E+00 0. -1.
         11   -1    0    0    0    0 -0.00000000000E+00 -0.00000000000E+00 -0.50000000000E+03  0.50000000000E+03  0.00000000000E+00 0.  1.
        -11    1    1    2    0    0 -0.13038218680E+02 -0.18707401091E+01  0.49735216362E+03  0.49752655152E+03  0.00000000000E+00 0. -1.
         11    1    1    2    0    0  0.34580875671E+01 -0.13659533420E+02 -0.38129088553E+03  0.38155115071E+03  0.00000000000E+00 0.  1.
        -15    1    1    2    0    0  0.41828483915E+00  0.14530719358E+02 -0.10657826104E+03  0.10757973890E+03  0.17770000000E+01 0.  1.
         15    1    1    2    0    0  0.91618462740E+01  0.99955417131E+00 -0.94830170461E+01  0.13342558862E+02  0.17770000000E+01 0. -1.
</event>
<event>
 6    1  0.3365733E-003  0.5156668E+03  0.7546771E-02  0.9365421E-01
        -11   -1    0    0    0    0  0.00000000000E+00  0.00000000000E+00  0.50000000000E+03  0.50000000000E+03  0.00000000000E+00 0. -1.
         11   -1    0    0    0    0 -0.00000000000E+00 -0.00000000000E+00 -0.50000000000E+03  0.50000000000E+03  0.00000000000E+00 0. -1.
        -11    1    1    2    0    0  0.39477893618E+02 -0.37139930158E+02  0.40254067428E+03  0.40617345180E+03  0.00000000000E+00 0. -1.
         11    1    1    2    0    0 -0.99853646181E+01  0.11617262561E+02 -0.48409083393E+03  0.48433315371E+03  0.00000000000E+00 0. -1.
        -15    1    1    2    0    0  0.77502696586E+01 -0.68444108092E+01 -0.35764573351E+01  0.11084286859E+02  0.17770000000E+01 0. -1.
         15    1    1    2    0    0 -0.37242798659E+02  0.32367078406E+02  0.85126616977E+02  0.98409107624E+02  0.17770000000E+01 0.  1.
</event>
<event>
 6    1  0.3365733E-003  0.4570870E+03  0.7546771E-02  0.9501307E-01
        -11   -1    0    0    0    0  0.00000000000E+00  0.00000000000E+00  0.50000000000E+03  0.50000000000E+03  0.00000000000E+00 0. -1.
         11   -1    0    0    0    0 -0.00000000000E+00 -0.00000000000E+00 -0.50000000000E+03  0.50000000000E+03  0.00000000000E+00 0. -1.
        -11    1    1    2    0    0 -0.21364883952E+01 -0.25779074759E+02  0.47199047032E+03  0.47269877232E+03  0.00000000000E+00 0. -1.
         11    1    1    2    0    0 -0.57940682444E+02  0.30199089490E+02 -0.43921074665E+03  0.44404412805E+03  0.00000000000E+00 0. -1.
        -15    1    1    2    0    0  0.27819688332E+02  0.15087645664E+02  0.22350437846E+01  0.31776174412E+02  0.17770000000E+01 0. -1.
         15    1    1    2    0    0  0.32257482507E+02 -0.19507660395E+02 -0.35014767458E+02  0.51480925214E+02  0.17770000000E+01 0.  1.
</event>
<event>
 6    1  0.3365733E-003  0.4739308E+03  0.7546771E-02  0.9460109E-01
        -11   -1    0    0    0    0  0.00000000000E+00  0.00000000000E+00  0.50000000000E+03  0.50000000000E+03  0.00000000000E+00 0.  1.
         11   -1    0    0    0    0 -0.00000000000E+00 -0.00000000000E+00 -0.50000000000E+03  0.50000000000E+03  0.00000000000E+00 0. -1.
        -11    1    1    2    0    0 -0.27911234289E+01 -0.85561396813E+01  0.46994164239E+03  0.47002781317E+03  0.00000000000E+00 0.  1.
         11    1    1    2    0    0 -0.28534693474E+02 -0.29553434538E+01 -0.47759109787E+03  0.47845189889E+03  0.00000000000E+00 0. -1.
        -15    1    1    2    0    0 -0.54297286463E+01  0.18732845325E+01  0.11811328216E+02  0.13253541087E+02  0.17770000000E+01 0.  1.
         15    1    1    2    0    0  0.36755545549E+02  0.96381986026E+01 -0.41618727395E+01  0.38266746852E+02  0.17770000000E+01 0. -1.
</event>
<event>
 6    1  0.3365733E-003  0.5030233E+03  0.7546771E-02  0.9393070E-01
        -11   -1    0    0    0    0  0.00000000000E+00  0.00000000000E+00  0.50000000000E+03  0.50000000000E+03  0.00000000000E+00 0. -1.
         11   -1    0    0    0    0 -0.00000000000E+00 -0.00000000000E+00 -0.50000000000E+03  0.50000000000E+03  0.00000000000E+00 0.  1.
        -11    1    1    2    0    0 -0.30716467850E+01  0.86978559807E+01  0.49689108625E+03  0.49697669896E+03  0.00000000000E+00 0. -1.
         11    1    1    2    0    0 -0.33138710111E+01 -0.67882985766E+01 -0.48791291567E+03  0.48797138853E+03  0.00000000000E+00 0.  1.
        -15    1    1    2    0    0  0.50689203309E+01  0.18976259639E+01 -0.89970702238E+01  0.10648940756E+02  0.17770000000E+01 0.  1.
         15    1    1    2    0    0  0.13165974651E+01 -0.38071833680E+01  0.18899645426E-01  0.44029717555E+01  0.17770000000E+01 0. -1.
</event>
<event>
 6    1  0.3365733E-003  0.5015968E+03  0.7546771E-02  0.9396244E-01
        -11   -1    0    0    0    0  0.00000000000E+00  0.00000000000E+00  0.50000000000E+03  0.50000000000E+03  0.00000000000E+00 0. -1.
         11   -1    0    0    0    0 -0.00000000000E+00 -0.00000000000E+00 -0.50000000000E+03  0.50000000000E+03  0.00000000000E+00 0. -1.
        -11    1    1    2    0    0 -0.23866554746E+02  0.10894346099E+01  0.49783027750E+03  0.49840323484E+03  0.00000000000E+00 0. -1.
         11    1    1    2    0    0 -0.76226188418E+00  0.13678951877E+01 -0.67383555050E+02  0.67401748283E+02  0.00000000000E+00 0. -1.
        -15    1    1    2    0    0  0.11699572527E+02 -0.13916972446E+02 -0.38663495427E+03  0.38706628335E+03  0.17770000000E+01 0.  1.
         15    1    1    2    0    0  0.12929244103E+02  0.11459642649E+02 -0.43811768184E+02  0.47128733520E+02  0.17770000000E+01 0. -1.
</event>
<event>
 6    1  0.3365733E-003  0.5163999E+03  0.7546771E-02  0.9363843E-01
        -11   -1    0    0    0    0  0.00000000000E+00  0.00000000000E+00  0.50000000000E+03  0.50000000000E+03  0.00000000000E+00 0.  1.
         11   -1    0    0    0    0 -0.00000000000E+00 -0.00000000000E+00 -0.50000000000E+03  0.50000000000E+03  0.00000000000E+00 0. -1.
        -11    1    1    2    0    0  0.85217446994E+01  0.48418253414E+01  0.34418502782E+03  0.34432455152E+03  0.00000000000E+00 0.  1.
         11    1    1    2    0    0 -0.85175054059E+01  0.14259250772E+01 -0.48352294355E+03  0.48360006007E+03  0.00000000000E+00 0. -1.
        -15    1    1    2    0    0  0.11649309841E+02 -0.19995276940E+02 -0.72961097173E+01  0.24329169030E+02  0.17770000000E+01 0.  1.
         15    1    1    2    0    0 -0.11653549134E+02  0.13727526522E+02  0.14663402545E+03  0.14774621937E+03  0.17770000000E+01 0. -1.
</event>
<event>
 6    1  0.3365733E-003  0.5045481E+03  0.7546771E-02  0.9389690E-01
        -11   -1    0    0    0    0  0.00000000000E+00  0.00000000000E+00  0.50000000000E+03  0.50000000000E+03  0.00000000000E+00 0.  1.
         11   -1    0    0    0    0 -0.00000000000E+00 -0.00000000000E+00 -0.50000000000E+03  0.50000000000E+03  0.00000000000E+00 0. -1.
        -11    1    1    2    0    0  0.58153291917E+01 -0.44025630151E+01  0.40723598349E+03  0.40730129740E+03  0.00000000000E+00 0.  1.
         11    1    1    2    0    0  0.15636561496E+02  0.27831212119E+01 -0.49519726949E+03  0.49545189830E+03  0.00000000000E+00 0. -1.
        -15    1    1    2    0    0 -0.19098667761E+02 -0.17960507005E+01  0.15720337306E+02  0.24865068719E+02  0.17770000000E+01 0. -1.
         15    1    1    2    0    0 -0.23532229265E+01  0.34154925036E+01  0.72240948698E+02  0.72381735576E+02  0.17770000000E+01 0.  1.
</event>
<event>
 6    1  0.3365733E-003  0.5171605E+03  0.7546771E-02  0.9362210E-01
        -11   -1    0    0    0    0  0.00000000000E+00  0.00000000000E+00  0.50000000000E+03  0.50000000000E+03  0.00000000000E+00 0. -1.
         11   -1    0    0    0    0 -0.00000000000E+00 -0.00000000000E+00 -0.50000000000E+03  0.50000000000E+03  0.00000000000E+00 0.  1.
        -11    1    1    2    0    0  0.17521623299E+01 -0.43804804745E+01  0.30138234529E+03  0.30141927067E+03  0.00000000000E+00 0. -1.
         11    1    1    2    0    0 -0.18717582693E+01  0.77499504695E+01 -0.48277371716E+03  0.48283954601E+03  0.00000000000E+00 0.  1.
        -15    1    1    2    0    0  0.98998294199E+01  0.12192490845E+02 -0.13005887290E+02  0.20468861443E+02  0.17770000000E+01 0.  1.
         15    1    1    2    0    0 -0.97802334806E+01 -0.15561960840E+02  0.19439725916E+03  0.19527232187E+03  0.17770000000E+01 0. -1.
</event>
<event>
 6    1  0.3365733E-003  0.5066797E+03  0.7546771E-02  0.9384986E-01
        -11   -1    0    0    0    0  0.00000000000E+00  0.00000000000E+00  0.50000000000E+03  0.50000000000E+03  0.00000000000E+00 0. -1.
         11   -1    0    0    0    0 -0.00000000000E+00 -0.00000000000E+00 -0.50000000000E+03  0.50000000000E+03  0.00000000000E+00 0.  1.
        -11    1    1    2    0    0 -0.53357938175E+01 -0.66141132143E+01  0.49324713267E+03  0.49332033313E+03  0.00000000000E+00 0. -1.
         11    1    1    2    0    0 -0.11022525032E+02  0.74497624569E+01 -0.46843512768E+03  0.46862401119E+03  0.00000000000E+00 0.  1.
        -15    1    1    2    0    0  0.10289592079E+02 -0.54594216616E+01 -0.27383281797E+02  0.29810783971E+02  0.17770000000E+01 0.  1.
         15    1    1    2    0    0  0.60687267709E+01  0.46237724190E+01  0.25712768070E+01  0.82448717043E+01  0.17770000000E+01 0. -1.
</event>
<event>
 6    1  0.3365733E-003  0.5107665E+03  0.7546771E-02  0.9376036E-01
        -11   -1    0    0    0    0  0.00000000000E+00  0.00000000000E+00  0.50000000000E+03  0.50000000000E+03  0.00000000000E+00 0. -1.
         11   -1    0    0    0    0 -0.00000000000E+00 -0.00000000000E+00 -0.50000000000E+03  0.50000000000E+03  0.00000000000E+00 0. -1.
        -11    1    1    2    0    0  0.35048034681E+01 -0.13786065068E+01  0.16490761700E+03  0.16495061791E+03  0.00000000000E+00 0. -1.
         11    1    1    2    0    0 -0.35141383563E+01  0.77116706499E+01 -0.48916008147E+03  0.48923348652E+03  0.00000000000E+00 0. -1.
        -15    1    1    2    0    0  0.57302834690E+02  0.84413601934E+01  0.12171909281E+03  0.13480937174E+03  0.17770000000E+01 0. -1.
         15    1    1    2    0    0 -0.57293499802E+02 -0.14774424336E+02  0.20253337166E+03  0.21100652383E+03  0.17770000000E+01 0.  1.
</event>
<event>
 6    1  0.3365733E-003  0.5026455E+03  0.7546771E-02  0.9393910E-01
        -11   -1    0    0    0    0  0.00000000000E+00  0.00000000000E+00  0.50000000000E+03  0.50000000000E+03  0.00000000000E+00 0.  1.
         11   -1    0    0    0    0 -0.00000000000E+00 -0.00000000000E+00 -0.50000000000E+03  0.50000000000E+03  0.00000000000E+00 0.  1.
        -11    1    1    2    0    0 -0.86884710075E+01  0.27560615180E+01  0.49727097371E+03  0.49735450807E+03  0.00000000000E+00 0.  1.
         11    1    1    2    0    0 -0.11209390847E+02 -0.77408543658E+00 -0.42444528212E+03  0.42459397919E+03  0.00000000000E+00 0.  1.
        -15    1    1    2    0    0  0.28317646484E+01 -0.31373269039E+01 -0.17215365574E+01  0.48972572165E+01  0.17770000000E+01 0.  1.
         15    1    1    2    0    0  0.17066097206E+02  0.11553508225E+01 -0.71104155035E+02  0.73154255526E+02  0.17770000000E+01 0. -1.
</event>
<event>
 6    1  0.3365733E-003  0.5003011E+03  0.7546771E-02  0.9399136E-01
        -11   -1    0    0    0    0  0.00000000000E+00  0.00000000000E+00  0.50000000000E+03  0.50000000000E+03  0.00000000000E+00 0. -1.
         11   -1    0    0    0    0 -0.00000000000E+00 -0.00000000000E+00 -0.50000000000E+03  0.50000000000E+03  0.00000000000E+00 0.  1.
        -11    1    1    2    0    0  0.89742020967E+00 -0.22177476743E+00  0.63846188361E+02  0.63852880242E+02  0.00000000000E+00 0. -1.
         11    1    1    2    0    0  0.99847364330E+01 -0.33597177733E+01 -0.49958788205E+03  0.49969894392E+03  0.00000000000E+00 0.  1.
        -15    1    1    2    0    0 -0.14702292592E+01  0.69134208798E+01  0.35464284258E+03  0.35471771944E+03  0.17770000000E+01 0. -1.
         15    1    1    2    0    0 -0.94119273835E+01 -0.33319283390E+01  0.81098851106E+02  0.81730456399E+02  0.17770000000E+01 0.  1.
</event>
<event>
 6    1  0.3365733E-003  0.5039107E+03  0.7546771E-02  0.9391102E-01
        -11   -1    0    0    0    0  0.00000000000E+00  0.00000000000E+00  0.50000000000E+03  0.50000000000E+03  0.00000000000E+00 0. -1.
         11   -1    0    0    0    0 -0.00000000000E+00 -0.00000000000E+00 -0.50000000000E+03  0.50000000000E+03  0.00000000000E+00 0. -1.
        -11    1    1    2    0    0 -0.18376559206E+01  0.15414408040E+02  0.49584640493E+03  0.49608934501E+03  0.00000000000E+00 0. -1.
         11    1    1    2    0    0  0.71704901432E+01  0.68164262589E+01 -0.40795454144E+03  0.40807448766E+03  0.00000000000E+00 0. -1.
        -15    1    1    2    0    0 -0.49438578650E+01 -0.37927646878E+01 -0.69252781335E+02  0.69555246000E+02  0.17770000000E+01 0. -1.
         15    1    1    2    0    0 -0.38897635758E+00 -0.18438069611E+02 -0.18639082153E+02  0.26280921333E+02  0.17770000000E+01 0.  1.
</event>
<event>
 6    1  0.3365733E-003  0.5113817E+03  0.7546771E-02  0.9374696E-01
        -11   -1    0    0    0    0  0.00000000000E+00  0.00000000000E+00  0.50000000000E+03  0.50000000000E+03  0.00000000000E+00 0. -1.
         11   -1    0    0    0    0 -0.00000000000E+00 -0.00000000000E+00 -0.50000000000E+03  0.50000000000E+03  0.00000000000E+00 0. -1.
        -11    1    1    2    0    0  0.11313966253E+02  0.32509917074E+01  0.47425747158E+03  0.47440354566E+03  0.00000000000E+00 0. -1.
         11    1    1    2    0    0  0.15690088275E+01  0.88888559430E+01 -0.48853497078E+03  0.48861834925E+03  0.00000000000E+00 0. -1.
        -15    1    1    2    0    0 -0.91294411999E+01 -0.29162695527E+01  0.22124112762E+02  0.24176133257E+02  0.17770000000E+01 0. -1.
         15    1    1    2    0    0 -0.37535338805E+01 -0.92235780976E+01 -0.78466135664E+01  0.12801971839E+02  0.17770000000E+01 0. -1.
</event>
<event>
 6    1  0.3365733E-003  0.5012700E+03  0.7546771E-02  0.9396973E-01
        -11   -1    0    0    0    0  0.00000000000E+00  0.00000000000E+00  0.50000000000E+03  0.50000000000E+03  0.00000000000E+00 0. -1.
         11   -1    0    0    0    0 -0.00000000000E+00 -0.00000000000E+00 -0.50000000000E+03  0.50000000000E+03  0.00000000000E+00 0. -1.
        -11    1    1    2    0    0  0.69133188645E+01  0.53144717145E+01  0.11425906484E+03  0.11459132378E+03  0.00000000000E+00 0. -1.
         11    1    1    2    0    0 -0.44395211971E+01  0.98976797411E+01 -0.49861204784E+03  0.49873003485E+03  0.00000000000E+00 0. -1.
        -15    1    1    2    0    0  0.11491837873E+02 -0.17519726542E+02  0.32321465056E+03  0.32389793334E+03  0.17770000000E+01 0. -1.
         15    1    1    2    0    0 -0.13965635540E+02  0.23075750864E+01  0.61138332435E+02  0.62780708030E+02  0.17770000000E+01 0.  1.
</event>
<event>
 6    1  0.3365733E-003  0.5002873E+03  0.7546771E-02  0.9399167E-01
        -11   -1    0    0    0    0  0.00000000000E+00  0.00000000000E+00  0.50000000000E+03  0.50000000000E+03  0.00000000000E+00 0. -1.
         11   -1    0    0    0    0 -0.00000000000E+00 -0.00000000000E+00 -0.50000000000E+03  0.50000000000E+03  0.00000000000E+00 0. -1.
        -11    1    1    2    0    0  0.74098862100E+01 -0.61892069855E+00  0.49965737488E+03  0.49971269921E+03  0.00000000000E+00 0. -1.
         11    1    1    2    0    0  0.20628381543E+01 -0.25408427128E+01 -0.12369842010E+03  0.12374170808E+03  0.00000000000E+00 0. -1.
        -15    1    1    2    0    0  0.51021772545E+01  0.33510616366E+00 -0.14651770129E+03  0.14661766274E+03  0.17770000000E+01 0. -1.
         15    1    1    2    0    0 -0.14574901619E+02  0.28246572477E+01 -0.22944125349E+03  0.22992792997E+03  0.17770000000E+01 0.  1.
</event>
<event>
 6    1  0.3365733E-003  0.5061271E+03  0.7546771E-02  0.9386203E-01
        -11   -1    0    0    0    0  0.00000000000E+00  0.00000000000E+00  0.50000000000E+03  0.50000000000E+03  0.00000000000E+00 0.  1.
         11   -1    0    0    0    0 -0.00000000000E+00 -0.00000000000E+00 -0.50000000000E+03  0.50000000000E+03  0.00000000000E+00 0. -1.
        -11    1    1    2    0    0  0.32660081342E+02  0.17477046308E+02  0.49248181052E+03  0.49387292065E+03  0.00000000000E+00 0.  1.
         11    1    1    2    0    0 -0.32825069051E+01 -0.88794752747E+01 -0.37704309011E+03  0.37716191713E+03  0.00000000000E+00 0. -1.
        -15    1    1    2    0    0  0.97694355144E+01  0.21490032566E+01 -0.56316369901E+02  0.57225443058E+02  0.17770000000E+01 0.  1.
         15    1    1    2    0    0 -0.39147009951E+02 -0.10746574290E+02 -0.59122350504E+02  0.71739719160E+02  0.17770000000E+01 0. -1.
</event>
<event>
 6    1  0.3365733E-003  0.5376277E+03  0.7546771E-02  0.9319340E-01
        -11   -1    0    0    0    0  0.00000000000E+00  0.00000000000E+00  0.50000000000E+03  0.50000000000E+03  0.00000000000E+00 0.  1.
         11   -1    0    0    0    0 -0.00000000000E+00 -0.00000000000E+00 -0.50000000000E+03  0.50000000000E+03  0.00000000000E+00 0.  1.
        -11    1    1    2    0    0 -0.11657628679E+02 -0.53049372929E+01  0.46219482477E+03  0.46237225123E+03  0.00000000000E+00 0.  1.
         11    1    1    2    0    0 -0.18919894096E+02  0.75781472932E+02 -0.34544531420E+03  0.35416558152E+03  0.00000000000E+00 0.  1.
        -15    1    1    2    0    0 -0.15918896259E+02 -0.25824846857E+02  0.17112473004E+02  0.34875900484E+02  0.17770000000E+01 0. -1.
         15    1    1    2    0    0  0.46496419034E+02 -0.44651688782E+02 -0.13386198358E+03  0.14858626676E+03  0.17770000000E+01 0.  1.
</event>
<event>
 6    1  0.3365733E-003  0.5080204E+03  0.7546771E-02  0.9382040E-01
        -11   -1    0    0    0    0  0.00000000000E+00  0.00000000000E+00  0.50000000000E+03  0.50000000000E+03  0.00000000000E+00 0. -1.
         11   -1    0    0    0    0 -0.00000000000E+00 -0.00000000000E+00 -0.50000000000E+03  0.50000000000E+03  0.00000000000E+00 0.  1.
        -11    1    1    2    0    0 -0.15582457699E+02  0.99363110342E+01  0.49163237774E+03  0.49197961147E+03  0.00000000000E+00 0. -1.
         11    1    1    2    0    0  0.76667612522E+01  0.13096123677E+02 -0.42812854668E+03  0.42839740914E+03  0.00000000000E+00 0.  1.
        -15    1    1    2    0    0 -0.10576421025E+02 -0.17287152121E+02 -0.54540661966E+02  0.58211234713E+02  0.17770000000E+01 0.  1.
         15    1    1    2    0    0  0.18492117472E+02 -0.57452825905E+01 -0.89631690950E+01  0.21411744671E+02  0.17770000000E+01 0. -1.
</event>
<event>
 6    1  0.3365733E-003  0.5002388E+03  0.7546771E-02  0.9399275E-01
        -11   -1    0    0    0    0  0.00000000000E+00  0.00000000000E+00  0.50000000000E+03  0.50000000000E+03  0.00000000000E+00 0. -1.
         11   -1    0    0    0    0 -0.00000000000E+00 -0.00000000000E+00 -0.50000000000E+03  0.50000000000E+03  0.00000000000E+00 0. -1.
        -11    1    1    2    0    0 -0.26791357604E+01  0.99598089450E+00  0.20254867919E+03  0.20256884555E+03  0.00000000000E+00 0. -1.
         11    1    1    2    0    0  0.44456702631E+01 -0.95815556237E+01 -0.49964953942E+03  0.49976117540E+03  0.00000000000E+00 0. -1.
        -15    1    1    2    0    0 -0.31252811281E+01  0.45945788591E+01  0.27673740252E+03  0.27679888948E+03  0.17770000000E+01 0. -1.
         15    1    1    2    0    0  0.13587466253E+01  0.39909958701E+01  0.20363457716E+02  0.20871089564E+02  0.17770000000E+01 0.  1.
</event>
<event>
 6    1  0.3365733E-003  0.4962796E+03  0.7546771E-02  0.9408173E-01
        -11   -1    0    0    0    0  0.00000000000E+00  0.00000000000E+00  0.50000000000E+03  0.50000000000E+03  0.00000000000E+00 0.  1.
         11   -1    0    0    0    0 -0.00000000000E+00 -0.00000000000E+00 -0.50000000000E+03  0.50000000000E+03  0.00000000000E+00 0. -1.
        -11    1    1    2    0    0  0.97134003235E+00  0.11685881613E+01  0.78561474808E+01  0.80017593683E+01  0.00000000000E+00 0.  1.
         11    1    1    2    0    0 -0.80804799885E+01 -0.25611306811E+01 -0.49956561653E+03  0.49963752738E+03  0.00000000000E+00 0. -1.
        -15    1    1    2    0    0  0.18127199519E+01 -0.90516741090E+01  0.35918237693E+03  0.35930538040E+03  0.17770000000E+01 0.  1.
         15    1    1    2    0    0  0.52964200043E+01  0.10444216629E+02  0.13252709212E+03  0.13305533285E+03  0.17770000000E+01 0. -1.
</event>
<event>
 6    1  0.3365733E-003  0.5357662E+03  0.7546771E-02  0.9323155E-01
        -11   -1    0    0    0    0  0.00000000000E+00  0.00000000000E+00  0.50000000000E+03  0.50000000000E+03  0.00000000000E+00 0.  1.
         11   -1    0    0    0    0 -0.00000000000E+00 -0.00000000000E+00 -0.50000000000E+03  0.50000000000E+03  0.00000000000E+00 0. -1.
        -11    1    1    2    0    0  0.95645505461E+00 -0.69052798184E+01  0.45176856177E+03  0.45182234462E+03  0.00000000000E+00 0.  1.
         11    1    1    2    0    0  0.14063867585E+02  0.43788831154E+01 -0.46400010247E+03  0.46423384417E+03  0.00000000000E+00 0. -1.
        -15    1    1    2    0    0 -0.62308535396E+00  0.11189980884E+02  0.45358621795E+02  0.46756456321E+02  0.17770000000E+01 0. -1.
         15    1    1    2    0    0 -0.14397237286E+02 -0.86635841807E+01 -0.33127081097E+02  0.37187354885E+02  0.17770000000E+01 0.  1.
</event>
<event>
 6    1  0.3365733E-003  0.5044352E+03  0.7546771E-02  0.9389940E-01
        -11   -1    0    0    0    0  0.00000000000E+00  0.00000000000E+00  0.50000000000E+03  0.50000000000E+03  0.00000000000E+00 0. -1.
         11   -1    0    0    0    0 -0.00000000000E+00 -0.00000000000E+00 -0.50000000000E+03  0.50000000000E+03  0.00000000000E+00 0.  1.
        -11    1    1    2    0    0 -0.97537307433E+01  0.17959075044E+02  0.16972108958E+03  0.17094710260E+03  0.00000000000E+00 0. -1.
         11    1    1    2    0    0  0.26867250506E+01  0.86320928327E+01 -0.49548233738E+03  0.49556480724E+03  0.00000000000E+00 0.  1.
        -15    1    1    2    0    0  0.30521819022E+01 -0.19856075834E+02  0.32476068386E+03  0.32538629208E+03  0.17770000000E+01 0. -1.
         15    1    1    2    0    0  0.40148237905E+01 -0.67350920430E+01  0.10005639464E+01  0.81017980787E+01  0.17770000000E+01 0.  1.
</event>
<event>
 6    1  0.3365733E-003  0.5143608E+03  0.7546771E-02  0.9368237E-01
        -11   -1    0    0    0    0  0.00000000000E+00  0.00000000000E+00  0.50000000000E+03  0.50000000000E+03  0.00000000000E+00 0.  1.
         11   -1    0    0    0    0 -0.00000000000E+00 -0.00000000000E+00 -0.50000000000E+03  0.50000000000E+03  0.00000000000E+00 0.  1.
        -11    1    1    2    0    0  0.79613226604E+01 -0.60438874341E-01  0.43820170862E+03  0.43827402815E+03  0.00000000000E+00 0.  1.
         11    1    1    2    0    0 -0.11099361526E+02  0.14951648377E+02 -0.48528206428E+03  0.48563919686E+03  0.00000000000E+00 0.  1.
        -15    1    1    2    0    0  0.26849144347E+02 -0.41322849297E+01  0.67484707504E+01  0.28047315689E+02  0.17770000000E+01 0. -1.
         15    1    1    2    0    0 -0.23711105481E+02 -0.10758924573E+02  0.40331884910E+02  0.48039459307E+02  0.17770000000E+01 0.  1.
</event>
<event>
 6    1  0.3365733E-003  0.5014008E+03  0.7546771E-02  0.9396681E-01
        -11   -1    0    0    0    0  0.00000000000E+00  0.00000000000E+00  0.50000000000E+03  0.50000000000E+03  0.00000000000E+00 0. -1.
         11   -1    0    0    0    0 -0.00000000000E+00 -0.00000000000E+00 -0.50000000000E+03  0.50000000000E+03  0.00000000000E+00 0. -1.
        -11    1    1    2    0    0 -0.10265643840E+02 -0.61425349082E+01  0.49845566567E+03  0.49859920258E+03  0.00000000000E+00 0. -1.
         11    1    1    2    0    0  0.28457778944E+01  0.53815397837E+01 -0.34502737566E+03  0.34508107653E+03  0.00000000000E+00 0. -1.
        -15    1    1    2    0    0 -0.10749038713E+01 -0.91874225911E+00 -0.14126663596E+03  0.14128488833E+03  0.17770000000E+01 0. -1.
         15    1    1    2    0    0  0.84947698165E+01  0.16797373835E+01 -0.12161654045E+02  0.15034832557E+02  0.17770000000E+01 0.  1.
</event>
<event>
 6    1  0.3365733E-003  0.5000619E+03  0.7546771E-02  0.9399671E-01
        -11   -1    0    0    0    0  0.00000000000E+00  0.00000000000E+00  0.50000000000E+03  0.50000000000E+03  0.00000000000E+00 0. -1.
         11   -1    0    0    0    0 -0.00000000000E+00 -0.00000000000E+00 -0.50000000000E+03  0.50000000000E+03  0.00000000000E+00 0. -1.
        -11    1    1    2    0    0  0.28336019657E+01 -0.93006770799E+01  0.49984354468E+03  0.49993809722E+03  0.00000000000E+00 0. -1.
         11    1    1    2    0    0 -0.11329521786E+01  0.22490006413E+00 -0.78541461661E+02  0.78549954555E+02  0.00000000000E+00 0. -1.
        -15    1    1    2    0    0  0.32366016720E+01  0.64202626794E+01 -0.24377430289E+03  0.24388678489E+03  0.17770000000E+01 0. -1.
         15    1    1    2    0    0 -0.49372514591E+01  0.26555143364E+01 -0.17752778012E+03  0.17762516334E+03  0.17770000000E+01 0.  1.
</event>
<event>
 6    1  0.3365733E-003  0.5049442E+03  0.7546771E-02  0.9388814E-01
        -11   -1    0    0    0    0  0.00000000000E+00  0.00000000000E+00  0.50000000000E+03  0.50000000000E+03  0.00000000000E+00 0.  1.
         11   -1    0    0    0    0 -0.00000000000E+00 -0.00000000000E+00 -0.50000000000E+03  0.50000000000E+03  0.00000000000E+00 0. -1.
        -11    1    1    2    0    0  0.65256848671E+01 -0.64260649742E+01  0.49497110168E+03  0.49505582551E+03  0.00000000000E+00 0.  1.
         11    1    1    2    0    0 -0.44545607391E+01  0.27654252876E+01 -0.26543783636E+03  0.26548961497E+03  0.00000000000E+00 0. -1.
        -15    1    1    2    0    0 -0.62223350289E+00 -0.81025648656E+01 -0.22706641860E+03  0.22721873804E+03  0.17770000000E+01 0.  1.
         15    1    1    2    0    0 -0.14488906250E+01  0.11763204552E+02 -0.24668467156E+01  0.12235821472E+02  0.17770000000E+01 0. -1.
</event>
<event>
 6    1  0.3365733E-003  0.5027006E+03  0.7546771E-02  0.9393787E-01
        -11   -1    0    0    0    0  0.00000000000E+00  0.00000000000E+00  0.50000000000E+03  0.50000000000E+03  0.00000000000E+00 0.  1.
         11   -1    0    0    0    0 -0.00000000000E+00 -0.00000000000E+00 -0.50000000000E+03  0.50000000000E+03  0.00000000000E+00 0.  1.
        -11    1    1    2    0    0 -0.59912542133E+01  0.52210522743E+01  0.49723587448E+03  0.49729937601E+03  0.00000000000E+00 0.  1.
         11    1    1    2    0    0  0.21497260846E+02 -0.13710939587E+02 -0.16813639294E+03  0.17005872138E+03  0.00000000000E+00 0.  1.
        -15    1    1    2    0    0 -0.20347129938E+02  0.16699764698E+02 -0.31093250198E+03  0.31204978185E+03  0.17770000000E+01 0. -1.
         15    1    1    2    0    0  0.48411233054E+01 -0.82098773851E+01 -0.18166979559E+02  0.20592120746E+02  0.17770000000E+01 0.  1.
</event>
<event>
 6    1  0.3365733E-003  0.5100476E+03  0.7546771E-02  0.9377604E-01
        -11   -1    0    0    0    0  0.00000000000E+00  0.00000000000E+00  0.50000000000E+03  0.50000000000E+03  0.00000000000E+00 0. -1.
         11   -1    0    0    0    0 -0.00000000000E+00 -0.00000000000E+00 -0.50000000000E+03  0.50000000000E+03  0.00000000000E+00 0.  1.
        -11    1    1    2    0    0 -0.19606569637E+02  0.15945325798E+02  0.48930024321E+03  0.48995244565E+03  0.00000000000E+00 0. -1.
         11    1    1    2    0    0 -0.11171299781E+02 -0.33935394191E+01 -0.37987563485E+03  0.38005501181E+03  0.00000000000E+00 0.  1.
        -15    1    1    2    0    0  0.23682498926E+02 -0.15007208888E+02 -0.93315973145E+01  0.29602592985E+02  0.17770000000E+01 0.  1.
         15    1    1    2    0    0  0.70953704916E+01  0.24554225092E+01 -0.10009301105E+03  0.10038994955E+03  0.17770000000E+01 0. -1.
</event>
<event>
 6    1  0.3365733E-003  0.4383819E+03  0.7546771E-02  0.9549334E-01
        -11   -1    0    0    0    0  0.00000000000E+00  0.00000000000E+00  0.50000000000E+03  0.50000000000E+03  0.00000000000E+00 0.  1.
         11   -1    0    0    0    0 -0.00000000000E+00 -0.00000000000E+00 -0.50000000000E+03  0.50000000000E+03  0.00000000000E+00 0. -1.
        -11    1    1    2    0    0 -0.88963900760E+01 -0.70936366401E+01  0.43375161805E+03  0.43390083152E+03  0.00000000000E+00 0.  1.
         11    1    1    2    0    0  0.34274560386E+00 -0.17285880264E+02 -0.44295453188E+03  0.44329181861E+03  0.00000000000E+00 0. -1.
        -15    1    1    2    0    0  0.12122205171E+02  0.21749812315E+01  0.63133701084E+02  0.64348273817E+02  0.17770000000E+01 0. -1.
         15    1    1    2    0    0 -0.35685606987E+01  0.22204535673E+02 -0.53930787255E+02  0.58459076052E+02  0.17770000000E+01 0. -1.
</event>
<event>
 6    1  0.3365733E-003  0.5067360E+03  0.7546771E-02  0.9384862E-01
        -11   -1    0    0    0    0  0.00000000000E+00  0.00000000000E+00  0.50000000000E+03  0.50000000000E+03  0.00000000000E+00 0.  1.
         11   -1    0    0    0    0 -0.00000000000E+00 -0.00000000000E+00 -0.50000000000E+03  0.50000000000E+03  0.00000000000E+00 0. -1.
        -11    1    1    2    0    0 -0.69088729397E+00 -0.25131215471E+01  0.47181061123E+02  0.47252996030E+02  0.00000000000E+00 0.  1.
         11    1    1    2    0    0  0.71119404361E+01 -0.10316370172E+02 -0.49310485167E+03  0.49326402862E+03  0.00000000000E+00 0. -1.
        -15    1    1    2    0    0  0.22387050766E+02 -0.13066834327E+02  0.39308093611E+03  0.39393870369E+03  0.17770000000E+01 0.  1.
         15    1    1    2    0    0 -0.28808103908E+02  0.25896326046E+02  0.52842854435E+02  0.65544271659E+02  0.17770000000E+01 0. -1.
</event>
<event>
 6    1  0.6306535E-003  0.5006380E+03  0.7546771E-02  0.9398383E-01
        -11   -1    0    0    0    0  0.00000000000E+00  0.00000000000E+00  0.50000000000E+03  0.50000000000E+03  0.00000000000E+00 0. -1.
         11   -1    0    0    0    0 -0.00000000000E+00 -0.00000000000E+00 -0.50000000000E+03  0.50000000000E+03  0.00000000000E+00 0.  1.
        -11    1    1    2    0    0 -0.68152862017E+01 -0.11959406892E+01  0.49931405677E+03  0.49936199865E+03  0.00000000000E+00 0. -1.
         11    1    1    2    0    0  0.33689223312E+00  0.60837183647E+01 -0.43745571785E+03  0.43749814880E+03  0.00000000000E+00 0.  1.
        -15    1    1    2    0    0  0.44803666792E+01  0.13956313272E+01 -0.15789590118E+02  0.16567750525E+02  0.17770000000E+01 0. -1.
         15    1    1    2    0    0  0.19980272893E+01 -0.62834090027E+01 -0.46068748809E+02  0.46572102031E+02  0.17770000000E+01 0.  1.
</event>
<event>
 6    1  0.3365733E-003  0.5027111E+03  0.7546771E-02  0.9393764E-01
        -11   -1    0    0    0    0  0.00000000000E+00  0.00000000000E+00  0.50000000000E+03  0.50000000000E+03  0.00000000000E+00 0.  1.
         11   -1    0    0    0    0 -0.00000000000E+00 -0.00000000000E+00 -0.50000000000E+03  0.50000000000E+03  0.00000000000E+00 0.  1.
        -11    1    1    2    0    0  0.22822997061E+01  0.70755407074E+01  0.45901283427E+03  0.45907303797E+03  0.00000000000E+00 0.  1.
         11    1    1    2    0    0 -0.65471350768E+00  0.72274030660E+01 -0.49723590240E+03  0.49728885634E+03  0.00000000000E+00 0.  1.
        -15    1    1    2    0    0  0.73460833637E+00 -0.57882552582E+01  0.32258543996E+02  0.32830091960E+02  0.17770000000E+01 0.  1.
         15    1    1    2    0    0 -0.23621945348E+01 -0.85146885153E+01  0.59645241384E+01  0.10808013727E+02  0.17770000000E+01 0. -1.
</event>
<event>
 6    1  0.3365733E-003  0.5014537E+03  0.7546771E-02  0.9396563E-01
        -11   -1    0    0    0    0  0.00000000000E+00  0.00000000000E+00  0.50000000000E+03  0.50000000000E+03  0.00000000000E+00 0.  1.
         11   -1    0    0    0    0 -0.00000000000E+00 -0.00000000000E+00 -0.50000000000E+03  0.50000000000E+03  0.00000000000E+00 0. -1.
        -11    1    1    2    0    0  0.13425318324E+02  0.30143352012E+02  0.49745306422E+03  0.49854629870E+03  0.00000000000E+00 0.  1.
         11    1    1    2    0    0  0.43466267714E+01  0.17801858180E+01 -0.21460823440E+03  0.21465962941E+03  0.00000000000E+00 0. -1.
        -15    1    1    2    0    0 -0.16572163969E+02 -0.29623447679E+02 -0.14566434726E+03  0.14957755535E+03  0.17770000000E+01 0. -1.
         15    1    1    2    0    0 -0.11997811264E+01 -0.23000901512E+01 -0.13718048256E+03  0.13721651655E+03  0.17770000000E+01 0.  1.
</event>
<event>
 6    1  0.3365733E-003  0.5300797E+03  0.7546771E-02  0.9334910E-01
        -11   -1    0    0    0    0  0.00000000000E+00  0.00000000000E+00  0.50000000000E+03  0.50000000000E+03  0.00000000000E+00 0. -1.
         11   -1    0    0    0    0 -0.00000000000E+00 -0.00000000000E+00 -0.50000000000E+03  0.50000000000E+03  0.00000000000E+00 0. -1.
        -11    1    1    2    0    0 -0.22826615690E+01 -0.78231961832E+01  0.46984967217E+03  0.46992034152E+03  0.00000000000E+00 0. -1.
         11    1    1    2    0    0 -0.12854271742E+02 -0.69576348318E+01 -0.39853595627E+03  0.39880389846E+03  0.00000000000E+00 0. -1.
        -15    1    1    2    0    0  0.51440764506E+01  0.11314009307E+02  0.28366228425E+02  0.31020460558E+02  0.17770000000E+01 0. -1.
         15    1    1    2    0    0  0.99928568608E+01  0.34668217082E+01 -0.99679944324E+02  0.10025529946E+03  0.17770000000E+01 0.  1.
</event>
<event>
 6    1  0.3365733E-003  0.5021672E+03  0.7546771E-02  0.9394973E-01
        -11   -1    0    0    0    0  0.00000000000E+00  0.00000000000E+00  0.50000000000E+03  0.50000000000E+03  0.00000000000E+00 0. -1.
         11   -1    0    0    0    0 -0.00000000000E+00 -0.00000000000E+00 -0.50000000000E+03  0.50000000000E+03  0.00000000000E+00 0. -1.
        -11    1    1    2    0    0  0.39995839501E+01 -0.60049480292E+01  0.44069533267E+03  0.44075439000E+03  0.00000000000E+00 0. -1.
         11    1    1    2    0    0  0.20097405610E+01 -0.71146497560E+01 -0.49777791244E+03  0.49783281071E+03  0.00000000000E+00 0. -1.
        -15    1    1    2    0    0  0.17719070057E+01  0.14105266638E+02  0.31712114614E+02  0.34798191673E+02  0.17770000000E+01 0. -1.
         15    1    1    2    0    0 -0.77812315167E+01 -0.98566885321E+00  0.25370465163E+02  0.26614607616E+02  0.17770000000E+01 0.  1.
</event>
<event>
 6    1  0.3365733E-003  0.5072742E+03  0.7546771E-02  0.9383679E-01
        -11   -1    0    0    0    0  0.00000000000E+00  0.00000000000E+00  0.50000000000E+03  0.50000000000E+03  0.00000000000E+00 0.  1.
         11   -1    0    0    0    0 -0.00000000000E+00 -0.00000000000E+00 -0.50000000000E+03  0.50000000000E+03  0.00000000000E+00 0.  1.
        -11    1    1    2    0    0  0.88064069881E+01  0.18200244772E+02  0.49231080689E+03  0.49272581858E+03  0.00000000000E+00 0.  1.
         11    1    1    2    0    0 -0.72589825362E+01  0.49964429595E+01 -0.45990366321E+03  0.45998808322E+03  0.00000000000E+00 0.  1.
        -15    1    1    2    0    0  0.50449162455E+01 -0.10897026650E+01 -0.20598665102E+02  0.21309654263E+02  0.17770000000E+01 0.  1.
         15    1    1    2    0    0 -0.65923406974E+01 -0.22106985066E+02 -0.11808478571E+02  0.25976443940E+02  0.17770000000E+01 0. -1.
</event>
<event>
 6    1  0.3365733E-003  0.4847668E+03  0.7546771E-02  0.9434555E-01
        -11   -1    0    0    0    0  0.00000000000E+00  0.00000000000E+00  0.50000000000E+03  0.50000000000E+03  0.00000000000E+00 0.  1.
         11   -1    0    0    0    0 -0.00000000000E+00 -0.00000000000E+00 -0.50000000000E+03  0.50000000000E+03  0.00000000000E+00 0. -1.
        -11    1    1    2    0    0 -0.10887209395E+02  0.46905288482E+00  0.48574934078E+03  0.48587156060E+03  0.00000000000E+00 0.  1.
         11    1    1    2    0    0  0.57463252986E+00 -0.93166802659E+01 -0.48366938736E+03  0.48375945159E+03  0.00000000000E+00 0. -1.
        -15    1    1    2    0    0  0.54659083372E+01  0.33878833354E+01 -0.14438594447E+02  0.15905491066E+02  0.17770000000E+01 0. -1.
         15    1    1    2    0    0  0.48466685276E+01  0.54597440457E+01  0.12358641029E+02  0.14463496740E+02  0.17770000000E+01 0.  1.
</event>
<event>
 6    1  0.3365733E-003  0.5173080E+03  0.7546771E-02  0.9361893E-01
        -11   -1    0    0    0    0  0.00000000000E+00  0.00000000000E+00  0.50000000000E+03  0.50000000000E+03  0.00000000000E+00 0.  1.
         11   -1    0    0    0    0 -0.00000000000E+00 -0.00000000000E+00 -0.50000000000E+03  0.50000000000E+03  0.00000000000E+00 0.  1.
        -11    1    1    2    0    0 -0.46800789831E+01 -0.10218968995E+02  0.45810179175E+03  0.45823965572E+03  0.00000000000E+00 0.  1.
         11    1    1    2    0    0  0.47308847284E+01 -0.84766457519E+01 -0.48259432915E+03  0.48269195282E+03  0.00000000000E+00 0.  1.
        -15    1    1    2    0    0  0.17279715926E+02  0.27803554160E+02  0.88823751120E+01  0.33965872918E+02  0.17770000000E+01 0.  1.
         15    1    1    2    0    0 -0.17330521672E+02 -0.91079394130E+01  0.15610162282E+02  0.25102518544E+02  0.17770000000E+01 0. -1.
</event>
<event>
 6    1  0.3365733E-003  0.5013767E+03  0.7546771E-02  0.9396735E-01
        -11   -1    0    0    0    0  0.00000000000E+00  0.00000000000E+00  0.50000000000E+03  0.50000000000E+03  0.00000000000E+00 0.  1.
         11   -1    0    0    0    0 -0.00000000000E+00 -0.00000000000E+00 -0.50000000000E+03  0.50000000000E+03  0.00000000000E+00 0.  1.
        -11    1    1    2    0    0  0.23366030489E+01  0.46220819445E+01  0.24819605366E+03  0.24825008441E+03  0.00000000000E+00 0.  1.
         11    1    1    2    0    0 -0.83278325112E+01  0.28112144868E+01 -0.49854582386E+03  0.49862329890E+03  0.00000000000E+00 0.  1.
        -15    1    1    2    0    0  0.55285144369E+01  0.51595322951E+01  0.22100164808E+03  0.22113812749E+03  0.17770000000E+01 0.  1.
         15    1    1    2    0    0  0.46271502542E+00 -0.12592828726E+02  0.29348122119E+02  0.31988489202E+02  0.17770000000E+01 0. -1.
</event>
<event>
 6    1  0.3365733E-003  0.5025885E+03  0.7546771E-02  0.9394036E-01
        -11   -1    0    0    0    0  0.00000000000E+00  0.00000000000E+00  0.50000000000E+03  0.50000000000E+03  0.00000000000E+00 0.  1.
         11   -1    0    0    0    0 -0.00000000000E+00 -0.00000000000E+00 -0.50000000000E+03  0.50000000000E+03  0.00000000000E+00 0.  1.
        -11    1    1    2    0    0 -0.35540789864E+01  0.44353479494E+01  0.31446131241E+03  0.31451267191E+03  0.00000000000E+00 0.  1.
         11    1    1    2    0    0 -0.97452326053E+01  0.81574541374E+01 -0.49724913871E+03  0.49741151934E+03  0.00000000000E+00 0.  1.
        -15    1    1    2    0    0 -0.56581746256E+00 -0.16053882186E+02  0.25903159795E+02  0.30531601645E+02  0.17770000000E+01 0.  1.
         15    1    1    2    0    0  0.13865129054E+02  0.34610800993E+01  0.15688466651E+03  0.15754420711E+03  0.17770000000E+01 0. -1.
</event>
<event>
 6    1  0.3365733E-003  0.5088520E+03  0.7546771E-02  0.9380218E-01
        -11   -1    0    0    0    0  0.00000000000E+00  0.00000000000E+00  0.50000000000E+03  0.50000000000E+03  0.00000000000E+00 0. -1.
         11   -1    0    0    0    0 -0.00000000000E+00 -0.00000000000E+00 -0.50000000000E+03  0.50000000000E+03  0.00000000000E+00 0. -1.
        -11    1    1    2    0    0 -0.14142089916E+02 -0.99225170463E+01  0.41103556465E+03  0.41139845705E+03  0.00000000000E+00 0. -1.
         11    1    1    2    0    0 -0.88745777468E+01 -0.10399070282E+02 -0.49095767292E+03  0.49114797708E+03  0.00000000000E+00 0. -1.
        -15    1    1    2    0    0  0.22351447694E+02  0.27705646280E+02  0.28959523490E+02  0.45923869388E+02  0.17770000000E+01 0. -1.
         15    1    1    2    0    0  0.66521996945E+00 -0.73840589523E+01  0.50962584773E+02  0.51529696486E+02  0.17770000000E+01 0.  1.
</event>
<event>
 6    1  0.3365733E-003  0.5038006E+03  0.7546771E-02  0.9391346E-01
        -11   -1    0    0    0    0  0.00000000000E+00  0.00000000000E+00  0.50000000000E+03  0.50000000000E+03  0.00000000000E+00 0. -1.
         11   -1    0    0    0    0 -0.00000000000E+00 -0.00000000000E+00 -0.50000000000E+03  0.50000000000E+03  0.00000000000E+00 0.  1.
        -11    1    1    2    0    0 -0.73563324867E+01  0.96450324431E+01  0.36898190221E+03  0.36918123792E+03  0.00000000000E+00 0. -1.
         11    1    1    2    0    0 -0.54291444388E+00 -0.10514132120E+02 -0.49608769490E+03  0.49619939818E+03  0.00000000000E+00 0.  1.
        -15    1    1    2    0    0  0.16020297954E+02 -0.14739707422E+02  0.38483502726E+02  0.44249820706E+02  0.17770000000E+01 0.  1.
         15    1    1    2    0    0 -0.81210510235E+01  0.15608807099E+02  0.88622289964E+02  0.90369543189E+02  0.17770000000E+01 0. -1.
</event>
<event>
 6    1  0.3365733E-003  0.5036952E+03  0.7546771E-02  0.9391579E-01
        -11   -1    0    0    0    0  0.00000000000E+00  0.00000000000E+00  0.50000000000E+03  0.50000000000E+03  0.00000000000E+00 0. -1.
         11   -1    0    0    0    0 -0.00000000000E+00 -0.00000000000E+00 -0.50000000000E+03  0.50000000000E+03  0.00000000000E+00 0.  1.
        -11    1    1    2    0    0 -0.54881200068E+01 -0.27892439893E+01  0.37001629741E+03  0.37006750694E+03  0.00000000000E+00 0. -1.
         11    1    1    2    0    0 -0.63414683278E+01  0.21424907066E+02 -0.49580157092E+03  0.49630478397E+03  0.00000000000E+00 0.  1.
        -15    1    1    2    0    0  0.14215104583E+02 -0.24108118811E+02  0.47986258997E+02  0.55579756859E+02  0.17770000000E+01 0. -1.
         15    1    1    2    0    0 -0.23855162484E+01  0.54724557338E+01  0.77799014514E+02  0.78047952234E+02  0.17770000000E+01 0.  1.
</event>
<event>
 6    1  0.3365733E-003  0.5067836E+03  0.7546771E-02  0.9384758E-01
        -11   -1    0    0    0    0  0.00000000000E+00  0.00000000000E+00  0.50000000000E+03  0.50000000000E+03  0.00000000000E+00 0.  1.
         11   -1    0    0    0    0 -0.00000000000E+00 -0.00000000000E+00 -0.50000000000E+03  0.50000000000E+03  0.00000000000E+00 0. -1.
        -11    1    1    2    0    0 -0.46416153389E+01  0.50143226698E+01  0.49316909953E+03  0.49321643196E+03  0.00000000000E+00 0.  1.
         11    1    1    2    0    0 -0.58287345204E+00 -0.56628082815E+01 -0.25472274967E+03  0.25478635431E+03  0.00000000000E+00 0. -1.
        -15    1    1    2    0    0 -0.22893955647E+01  0.19197714570E+01 -0.24294584034E+03  0.24297071001E+03  0.17770000000E+01 0. -1.
         15    1    1    2    0    0  0.75138843556E+01 -0.12712858453E+01  0.44994904882E+01  0.90265037231E+01  0.17770000000E+01 0.  1.
</event>
<event>
 6    1  0.3365733E-003  0.5014056E+03  0.7546771E-02  0.9396670E-01
        -11   -1    0    0    0    0  0.00000000000E+00  0.00000000000E+00  0.50000000000E+03  0.50000000000E+03  0.00000000000E+00 0.  1.
         11   -1    0    0    0    0 -0.00000000000E+00 -0.00000000000E+00 -0.50000000000E+03  0.50000000000E+03  0.00000000000E+00 0.  1.
        -11    1    1    2    0    0  0.10730839575E+02  0.12700943547E+02  0.49831704868E+03  0.49859437010E+03  0.00000000000E+00 0.  1.
         11    1    1    2    0    0  0.12449187761E+02 -0.47091252191E+01 -0.16682711079E+03  0.16735723179E+03  0.00000000000E+00 0.  1.
        -15    1    1    2    0    0 -0.18507766435E+02  0.15625685080E+01 -0.30319249822E+03  0.30376607405E+03  0.17770000000E+01 0.  1.
         15    1    1    2    0    0 -0.46722609009E+01 -0.95543868355E+01 -0.28297439673E+02  0.30282324065E+02  0.17770000000E+01 0. -1.
</event>
<event>
 6    1  0.3365733E-003  0.5000956E+03  0.7546771E-02  0.9399596E-01
        -11   -1    0    0    0    0  0.00000000000E+00  0.00000000000E+00  0.50000000000E+03  0.50000000000E+03  0.00000000000E+00 0. -1.
         11   -1    0    0    0    0 -0.00000000000E+00 -0.00000000000E+00 -0.50000000000E+03  0.50000000000E+03  0.00000000000E+00 0. -1.
        -11    1    1    2    0    0 -0.50266566224E+01  0.69730704767E+01  0.49983045318E+03  0.49990436377E+03  0.00000000000E+00 0. -1.
         11    1    1    2    0    0 -0.16575068800E+01  0.72218413593E+00 -0.56911988018E+02  0.56940699496E+02  0.00000000000E+00 0. -1.
        -15    1    1    2    0    0  0.34029702207E+01 -0.92937117371E+01 -0.26618923200E+03  0.26637908747E+03  0.17770000000E+01 0. -1.
         15    1    1    2    0    0  0.32811932817E+01  0.15984571245E+01 -0.17672923317E+03  0.17677584926E+03  0.17770000000E+01 0.  1.
</event>
<event>
 6    1  0.3365733E-003  0.4916160E+03  0.7546771E-02  0.9418767E-01
        -11   -1    0    0    0    0  0.00000000000E+00  0.00000000000E+00  0.50000000000E+03  0.50000000000E+03  0.00000000000E+00 0. -1.
         11   -1    0    0    0    0 -0.00000000000E+00 -0.00000000000E+00 -0.50000000000E+03  0.50000000000E+03  0.00000000000E+00 0. -1.
        -11    1    1    2    0    0 -0.14267125032E+02 -0.12046441242E+02  0.49925475619E+03  0.49960382223E+03  0.00000000000E+00 0. -1.
         11    1    1    2    0    0  0.14519811843E+01 -0.27427293887E+00 -0.17289209059E+02  0.17352239765E+02  0.00000000000E+00 0. -1.
        -15    1    1    2    0    0  0.18457837645E+02  0.12959748463E+02 -0.25532721120E+03  0.25632750410E+03  0.17770000000E+01 0. -1.
         15    1    1    2    0    0 -0.56426937976E+01 -0.63903428235E+00 -0.22663833593E+03  0.22671643390E+03  0.17770000000E+01 0. -1.
</event>
<event>
 6    1  0.3365733E-003  0.5211498E+03  0.7546771E-02  0.9353691E-01
        -11   -1    0    0    0    0  0.00000000000E+00  0.00000000000E+00  0.50000000000E+03  0.50000000000E+03  0.00000000000E+00 0. -1.
         11   -1    0    0    0    0 -0.00000000000E+00 -0.00000000000E+00 -0.50000000000E+03  0.50000000000E+03  0.00000000000E+00 0. -1.
        -11    1    1    2    0    0  0.12393378131E+02  0.14161267351E+02  0.47848027730E+03  0.47885019900E+03  0.00000000000E+00 0. -1.
         11    1    1    2    0    0  0.91512389423E+01 -0.11489571814E+02 -0.31679160180E+03  0.31713195110E+03  0.00000000000E+00 0. -1.
        -15    1    1    2    0    0  0.45422813685E+01  0.26433491500E+02 -0.16267425068E+03  0.16488005142E+03  0.17770000000E+01 0.  1.
         15    1    1    2    0    0 -0.26086898441E+02 -0.29105187037E+02  0.98557517518E+00  0.39137798484E+02  0.17770000000E+01 0. -1.
</event>
<event>
 6    1  0.3365733E-003  0.5181300E+03  0.7546771E-02  0.9360132E-01
        -11   -1    0    0    0    0  0.00000000000E+00  0.00000000000E+00  0.50000000000E+03  0.50000000000E+03  0.00000000000E+00 0. -1.
         11   -1    0    0    0    0 -0.00000000000E+00 -0.00000000000E+00 -0.50000000000E+03  0.50000000000E+03  0.00000000000E+00 0. -1.
        -11    1    1    2    0    0 -0.17633206734E+02 -0.64583869511E+01  0.48150393925E+03  0.48186998688E+03  0.00000000000E+00 0. -1.
         11    1    1    2    0    0  0.91035602188E+01  0.14832377440E+01 -0.35093762750E+03  0.35105881729E+03  0.00000000000E+00 0. -1.
        -15    1    1    2    0    0 -0.17857725935E+02 -0.13142819567E+02 -0.13306934723E+03  0.13491568101E+03  0.17770000000E+01 0.  1.
         15    1    1    2    0    0  0.26387372451E+02  0.18117968774E+02  0.25030354764E+01  0.32155514814E+02  0.17770000000E+01 0. -1.
</event>
<event>
 6    1  0.3365733E-003  0.4884922E+03  0.7546771E-02  0.9425934E-01
        -11   -1    0    0    0    0  0.00000000000E+00  0.00000000000E+00  0.50000000000E+03  0.50000000000E+03  0.00000000000E+00 0. -1.
         11   -1    0    0    0    0 -0.00000000000E+00 -0.00000000000E+00 -0.50000000000E+03  0.50000000000E+03  0.00000000000E+00 0. -1.
        -11    1    1    2    0    0  0.89270479439E+01 -0.18157554256E+01  0.49132874919E+03  0.49141319572E+03  0.00000000000E+00 0. -1.
         11    1    1    2    0    0  0.50387545479E+01  0.42591824902E+01 -0.48564581050E+03  0.48569062471E+03  0.00000000000E+00 0. -1.
        -15    1    1    2    0    0 -0.10270528055E+02 -0.92799135077E+01 -0.52572392347E+01  0.14912975377E+02  0.17770000000E+01 0. -1.
         15    1    1    2    0    0 -0.36952744372E+01  0.68364864431E+01 -0.42569945647E+00  0.79832041863E+01  0.17770000000E+01 0.  1.
</event>
<event>
 6    1  0.3365733E-003  0.5280786E+03  0.7546771E-02  0.9339085E-01
        -11   -1    0    0    0    0  0.00000000000E+00  0.00000000000E+00  0.50000000000E+03  0.50000000000E+03  0.00000000000E+00 0. -1.
         11   -1    0    0    0    0 -0.00000000000E+00 -0.00000000000E+00 -0.50000000000E+03  0.50000000000E+03  0.00000000000E+00 0. -1.
        -11    1    1    2    0    0  0.56911480056E+00 -0.75123214431E+01  0.44999214515E+03  0.45005520724E+03  0.00000000000E+00 0. -1.
         11    1    1    2    0    0 -0.37919072458E+01  0.15409917135E+02 -0.47165453087E+03  0.47192143478E+03  0.00000000000E+00 0. -1.
        -15    1    1    2    0    0 -0.12378299936E+02 -0.17902657808E+02 -0.21728837942E+02  0.30806291455E+02  0.17770000000E+01 0.  1.
         15    1    1    2    0    0  0.15601092381E+02  0.10005062116E+02  0.43391223663E+02  0.47217066527E+02  0.17770000000E+01 0. -1.
</event>
<event>
 6    1  0.3365733E-003  0.5058721E+03  0.7546771E-02  0.9386765E-01
        -11   -1    0    0    0    0  0.00000000000E+00  0.00000000000E+00  0.50000000000E+03  0.50000000000E+03  0.00000000000E+00 0. -1.
         11   -1    0    0    0    0 -0.00000000000E+00 -0.00000000000E+00 -0.50000000000E+03  0.50000000000E+03  0.00000000000E+00 0.  1.
        -11    1    1    2    0    0  0.80636331694E+01  0.32068375979E+02  0.49302027688E+03  0.49412791495E+03  0.00000000000E+00 0. -1.
         11    1    1    2    0    0  0.57470839635E+01 -0.65744906021E+01 -0.22993300154E+03  0.23009875727E+03  0.00000000000E+00 0.  1.
        -15    1    1    2    0    0 -0.52641990895E+01  0.60041249172E+01 -0.22675488976E+03  0.22690239987E+03  0.17770000000E+01 0. -1.
         15    1    1    2    0    0 -0.85465180435E+01 -0.31498010295E+02 -0.36332385586E+02  0.48870927908E+02  0.17770000000E+01 0. -1.
</event>
<event>
 6    1  0.3365733E-003  0.5055643E+03  0.7546771E-02  0.9387445E-01
        -11   -1    0    0    0    0  0.00000000000E+00  0.00000000000E+00  0.50000000000E+03  0.50000000000E+03  0.00000000000E+00 0. -1.
         11   -1    0    0    0    0 -0.00000000000E+00 -0.00000000000E+00 -0.50000000000E+03  0.50000000000E+03  0.00000000000E+00 0.  1.
        -11    1    1    2    0    0  0.18339198138E+02 -0.12931027284E+02  0.49392628121E+03  0.49443574802E+03  0.00000000000E+00 0. -1.
         11    1    1    2    0    0 -0.25403356602E+01 -0.79799573071E+01 -0.42376848256E+03  0.42385122371E+03  0.00000000000E+00 0.  1.
        -15    1    1    2    0    0 -0.11511950953E+02  0.14213717060E+02 -0.98365019835E+01  0.20843926398E+02  0.17770000000E+01 0. -1.
         15    1    1    2    0    0 -0.42869115244E+01  0.66972675302E+01 -0.60321296662E+02  0.60869101873E+02  0.17770000000E+01 0.  1.
</event>
<event>
 6    1  0.3365733E-003  0.5089657E+03  0.7546771E-02  0.9379969E-01
        -11   -1    0    0    0    0  0.00000000000E+00  0.00000000000E+00  0.50000000000E+03  0.50000000000E+03  0.00000000000E+00 0.  1.
         11   -1    0    0    0    0 -0.00000000000E+00 -0.00000000000E+00 -0.50000000000E+03  0.50000000000E+03  0.00000000000E+00 0.  1.
        -11    1    1    2    0    0 -0.31206074171E+00 -0.67712688484E+01  0.49098746668E+03  0.49103425532E+03  0.00000000000E+00 0.  1.
         11    1    1    2    0    0  0.80619263873E+01  0.58305658178E+01 -0.46482592960E+03  0.46493239830E+03  0.00000000000E+00 0.  1.
        -15    1    1    2    0    0  0.24498151730E+00  0.50369810380E+01  0.74649570780E+01  0.91822931284E+01  0.17770000000E+01 0. -1.
         15    1    1    2    0    0 -0.79948471629E+01 -0.40962780073E+01 -0.33626494154E+02  0.34851053252E+02  0.17770000000E+01 0.  1.
</event>
<event>
 6    1  0.3365733E-003  0.5091855E+03  0.7546771E-02  0.9379488E-01
        -11   -1    0    0    0    0  0.00000000000E+00  0.00000000000E+00  0.50000000000E+03  0.50000000000E+03  0.00000000000E+00 0. -1.
         11   -1    0    0    0    0 -0.00000000000E+00 -0.00000000000E+00 -0.50000000000E+03  0.50000000000E+03  0.00000000000E+00 0. -1.
        -11    1    1    2    0    0  0.67612321294E+01  0.96163906810E+01  0.49067372850E+03  0.49081452410E+03  0.00000000000E+00 0. -1.
         11    1    1    2    0    0 -0.85665511804E+01 -0.18660447949E+01 -0.47792044498E+03  0.47800085738E+03  0.00000000000E+00 0. -1.
        -15    1    1    2    0    0 -0.58303924099E+01 -0.78115841444E+01  0.54904014898E+01  0.11327689968E+02  0.17770000000E+01 0.  1.
         15    1    1    2    0    0  0.76357114609E+01  0.61238258294E-01 -0.18243685011E+02  0.19856928549E+02  0.17770000000E+01 0. -1.
</event>
<event>
 6    1  0.3365733E-003  0.5050795E+03  0.7546771E-02  0.9388515E-01
        -11   -1    0    0    0    0  0.00000000000E+00  0.00000000000E+00  0.50000000000E+03  0.50000000000E+03  0.00000000000E+00 0.  1.
         11   -1    0    0    0    0 -0.00000000000E+00 -0.00000000000E+00 -0.50000000000E+03  0.50000000000E+03  0.00000000000E+00 0.  1.
        -11    1    1    2    0    0  0.21079312056E+01 -0.72566734956E+01  0.49486282255E+03  0.49492051466E+03  0.00000000000E+00 0.  1.
         11    1    1    2    0    0  0.11011037857E+02  0.11051161456E+01 -0.47491712474E+03  0.47504603946E+03  0.00000000000E+00 0.  1.
        -15    1    1    2    0    0 -0.10646427113E+02  0.83522824394E+01 -0.21895479195E+02  0.25800712595E+02  0.17770000000E+01 0. -1.
         15    1    1    2    0    0 -0.24725419494E+01 -0.22007250894E+01  0.19497813866E+01  0.42327332855E+01  0.17770000000E+01 0.  1.
</event>
<event>
 6    1  0.3365733E-003  0.5099844E+03  0.7546771E-02  0.9377742E-01
        -11   -1    0    0    0    0  0.00000000000E+00  0.00000000000E+00  0.50000000000E+03  0.50000000000E+03  0.00000000000E+00 0.  1.
         11   -1    0    0    0    0 -0.00000000000E+00 -0.00000000000E+00 -0.50000000000E+03  0.50000000000E+03  0.00000000000E+00 0.  1.
        -11    1    1    2    0    0  0.22753899314E+02 -0.55907861586E+00  0.48948671961E+03  0.49001561319E+03  0.00000000000E+00 0.  1.
         11    1    1    2    0    0  0.14872345770E+02 -0.13116577995E+02 -0.44497551753E+03  0.44541715559E+03  0.00000000000E+00 0.  1.
        -15    1    1    2    0    0 -0.36241853601E+02  0.36196972352E+01 -0.34456429219E+02  0.50169486783E+02  0.17770000000E+01 0.  1.
         15    1    1    2    0    0 -0.13843914828E+01  0.10055959376E+02 -0.10054772851E+02  0.14397744436E+02  0.17770000000E+01 0. -1.
</event>
<event>
 6    1  0.3365733E-003  0.5005087E+03  0.7546771E-02  0.9398672E-01
        -11   -1    0    0    0    0  0.00000000000E+00  0.00000000000E+00  0.50000000000E+03  0.50000000000E+03  0.00000000000E+00 0.  1.
         11   -1    0    0    0    0 -0.00000000000E+00 -0.00000000000E+00 -0.50000000000E+03  0.50000000000E+03  0.00000000000E+00 0. -1.
        -11    1    1    2    0    0 -0.45012001847E+01 -0.63361171343E+01  0.32967171062E+03  0.32976331507E+03  0.00000000000E+00 0.  1.
         11    1    1    2    0    0  0.94900469071E+00  0.67490149136E+01 -0.49944479708E+03  0.49949129636E+03  0.00000000000E+00 0. -1.
        -15    1    1    2    0    0 -0.47540486582E+01  0.30099781054E+01  0.11945949006E+03  0.11960513551E+03  0.17770000000E+01 0.  1.
         15    1    1    2    0    0  0.83062441522E+01 -0.34228758847E+01  0.50313596398E+02  0.51140253057E+02  0.17770000000E+01 0. -1.
</event>
<event>
 6    1  0.3365733E-003  0.5152856E+03  0.7546771E-02  0.9366242E-01
        -11   -1    0    0    0    0  0.00000000000E+00  0.00000000000E+00  0.50000000000E+03  0.50000000000E+03  0.00000000000E+00 0. -1.
         11   -1    0    0    0    0 -0.00000000000E+00 -0.00000000000E+00 -0.50000000000E+03  0.50000000000E+03  0.00000000000E+00 0.  1.
        -11    1    1    2    0    0 -0.48380690973E+01  0.53167621460E+01  0.43557133991E+03  0.43563065437E+03  0.00000000000E+00 0. -1.
         11    1    1    2    0    0 -0.14211110757E+02 -0.14067149499E+02 -0.48430179892E+03  0.48471442396E+03  0.00000000000E+00 0.  1.
        -15    1    1    2    0    0  0.21612698573E+02 -0.12531437013E+02 -0.14202472305E+01  0.25086260869E+02  0.17770000000E+01 0.  1.
         15    1    1    2    0    0 -0.25635187181E+01  0.21281824366E+02  0.50150706237E+02  0.54568660801E+02  0.17770000000E+01 0. -1.
</event>
<event>
 6    1  0.3365733E-003  0.4534481E+03  0.7546771E-02  0.9510456E-01
        -11   -1    0    0    0    0  0.00000000000E+00  0.00000000000E+00  0.50000000000E+03  0.50000000000E+03  0.00000000000E+00 0.  1.
         11   -1    0    0    0    0 -0.00000000000E+00 -0.00000000000E+00 -0.50000000000E+03  0.50000000000E+03  0.00000000000E+00 0.  1.
        -11    1    1    2    0    0  0.10295099026E+02  0.66488140511E+01  0.43560831721E+03  0.43578068086E+03  0.00000000000E+00 0.  1.
         11    1    1    2    0    0  0.48164021595E+02 -0.36322927138E+02 -0.47029002344E+03  0.47414326333E+03  0.00000000000E+00 0.  1.
        -15    1    1    2    0    0 -0.33888060597E+01 -0.35372201225E+01  0.24369765298E+02  0.24920656540E+02  0.17770000000E+01 0.  1.
         15    1    1    2    0    0 -0.55070314561E+02  0.33211333209E+02  0.10311940936E+02  0.65155399272E+02  0.17770000000E+01 0. -1.
</event>
<event>
 6    1  0.3365733E-003  0.5054567E+03  0.7546771E-02  0.9387682E-01
        -11   -1    0    0    0    0  0.00000000000E+00  0.00000000000E+00  0.50000000000E+03  0.50000000000E+03  0.00000000000E+00 0. -1.
         11   -1    0    0    0    0 -0.00000000000E+00 -0.00000000000E+00 -0.50000000000E+03  0.50000000000E+03  0.00000000000E+00 0.  1.
        -11    1    1    2    0    0 -0.13579343674E+02  0.33022603435E+02  0.49325264194E+03  0.49454328394E+03  0.00000000000E+00 0. -1.
         11    1    1    2    0    0 -0.88918498515E+01 -0.20142747651E+02 -0.31464665909E+03  0.31541609875E+03  0.00000000000E+00 0.  1.
        -15    1    1    2    0    0 -0.25527439222E+01  0.12718203957E+02 -0.12421002918E+03  0.12489819171E+03  0.17770000000E+01 0.  1.
         15    1    1    2    0    0  0.25023937448E+02 -0.25598059740E+02 -0.54395953671E+02  0.65142425597E+02  0.17770000000E+01 0. -1.
</event>
<event>
 6    1  0.3365733E-003  0.5074919E+03  0.7546771E-02  0.9383200E-01
        -11   -1    0    0    0    0  0.00000000000E+00  0.00000000000E+00  0.50000000000E+03  0.50000000000E+03  0.00000000000E+00 0.  1.
         11   -1    0    0    0    0 -0.00000000000E+00 -0.00000000000E+00 -0.50000000000E+03  0.50000000000E+03  0.00000000000E+00 0.  1.
        -11    1    1    2    0    0 -0.79587042029E+01  0.13277141757E+01  0.49244200803E+03  0.49250810660E+03  0.00000000000E+00 0.  1.
         11    1    1    2    0    0  0.14284757621E+02  0.18209104542E+02 -0.40115657702E+03  0.40182362433E+03  0.00000000000E+00 0.  1.
        -15    1    1    2    0    0 -0.65526794634E+01 -0.47158548011E+01 -0.90331537058E+02  0.90708991897E+02  0.17770000000E+01 0.  1.
         15    1    1    2    0    0  0.22662604529E+00 -0.14820963917E+02 -0.95389395052E+00  0.14959277170E+02  0.17770000000E+01 0. -1.
</event>
<event>
 6    1  0.3365733E-003  0.5141782E+03  0.7546771E-02  0.9368632E-01
        -11   -1    0    0    0    0  0.00000000000E+00  0.00000000000E+00  0.50000000000E+03  0.50000000000E+03  0.00000000000E+00 0.  1.
         11   -1    0    0    0    0 -0.00000000000E+00 -0.00000000000E+00 -0.50000000000E+03  0.50000000000E+03  0.00000000000E+00 0.  1.
        -11    1    1    2    0    0 -0.77090639035E+01  0.38313291354E+01  0.41187391940E+03  0.41196387491E+03  0.00000000000E+00 0.  1.
         11    1    1    2    0    0  0.30345638575E+01 -0.77744065535E+01 -0.48575015022E+03  0.48582183814E+03  0.00000000000E+00 0.  1.
        -15    1    1    2    0    0  0.59672962951E+01 -0.12991333308E+02  0.82034003188E+02  0.83289367715E+02  0.17770000000E+01 0. -1.
         15    1    1    2    0    0 -0.12927962492E+01  0.16934410726E+02 -0.81577723679E+01  0.18924919228E+02  0.17770000000E+01 0.  1.
</event>
<event>
 6    1  0.3365733E-003  0.5013260E+03  0.7546771E-02  0.9396848E-01
        -11   -1    0    0    0    0  0.00000000000E+00  0.00000000000E+00  0.50000000000E+03  0.50000000000E+03  0.00000000000E+00 0.  1.
         11   -1    0    0    0    0 -0.00000000000E+00 -0.00000000000E+00 -0.50000000000E+03  0.50000000000E+03  0.00000000000E+00 0.  1.
        -11    1    1    2    0    0  0.11019018396E+02  0.10015572493E+02  0.41142317576E+03  0.41169255521E+03  0.00000000000E+00 0.  1.
         11    1    1    2    0    0  0.80970456042E+00 -0.23660695437E+02 -0.49811174464E+03  0.49867403610E+03  0.00000000000E+00 0.  1.
        -15    1    1    2    0    0 -0.68930393913E+01  0.15601038682E+02  0.67561598439E+02  0.69703900268E+02  0.17770000000E+01 0.  1.
         15    1    1    2    0    0 -0.49356835650E+01 -0.19559157375E+01  0.19126970442E+02  0.19929508421E+02  0.17770000000E+01 0. -1.
</event>
<event>
 6    1  0.3365733E-003  0.5112795E+03  0.7546771E-02  0.9374919E-01
        -11   -1    0    0    0    0  0.00000000000E+00  0.00000000000E+00  0.50000000000E+03  0.50000000000E+03  0.00000000000E+00 0. -1.
         11   -1    0    0    0    0 -0.00000000000E+00 -0.00000000000E+00 -0.50000000000E+03  0.50000000000E+03  0.00000000000E+00 0. -1.
        -11    1    1    2    0    0  0.21019385549E+02 -0.80762286076E+01  0.48820149133E+03  0.48872050926E+03  0.00000000000E+00 0. -1.
         11    1    1    2    0    0  0.14945026290E+01  0.82384823155E+01 -0.45596495197E+03  0.45604182216E+03  0.00000000000E+00 0. -1.
        -15    1    1    2    0    0 -0.21834062054E+02  0.65564379249E+01 -0.63642776585E+00  0.22875224881E+02  0.17770000000E+01 0. -1.
         15    1    1    2    0    0 -0.67982612364E+00 -0.67186916327E+01 -0.31600111591E+02  0.32362443702E+02  0.17770000000E+01 0.  1.
</event>
<event>
 6    1  0.3365733E-003  0.5003466E+03  0.7546771E-02  0.9399035E-01
        -11   -1    0    0    0    0  0.00000000000E+00  0.00000000000E+00  0.50000000000E+03  0.50000000000E+03  0.00000000000E+00 0. -1.
         11   -1    0    0    0    0 -0.00000000000E+00 -0.00000000000E+00 -0.50000000000E+03  0.50000000000E+03  0.00000000000E+00 0. -1.
        -11    1    1    2    0    0  0.54718272163E+01 -0.33122608443E+01  0.30289287206E+03  0.30296039990E+03  0.00000000000E+00 0. -1.
         11    1    1    2    0    0 -0.77731293452E+01 -0.27258325749E-01 -0.49959295683E+03  0.49965342468E+03  0.00000000000E+00 0. -1.
        -15    1    1    2    0    0  0.74434113556E+01  0.54102952063E+01  0.81119481557E+02  0.81659069820E+02  0.17770000000E+01 0.  1.
         15    1    1    2    0    0 -0.51421092267E+01 -0.20707760362E+01  0.11558060321E+03  0.11572710559E+03  0.17770000000E+01 0. -1.
</event>
<event>
 6    1  0.3949550E-003  0.2824289E+03  0.7546771E-02  0.1008641E+00
        -11   -1    0    0    0    0  0.00000000000E+00  0.00000000000E+00  0.50000000000E+03  0.50000000000E+03  0.00000000000E+00 0.  1.
         11   -1    0    0    0    0 -0.00000000000E+00 -0.00000000000E+00 -0.50000000000E+03  0.50000000000E+03  0.00000000000E+00 0. -1.
        -11    1    1    2    0    0 -0.13319022806E+02 -0.12193013318E+02  0.26210050171E+03  0.26272179000E+03  0.00000000000E+00 0.  1.
         11    1    1    2    0    0 -0.98699303161E+02 -0.30313262857E+02 -0.36165217087E+03  0.37610203276E+03  0.00000000000E+00 0. -1.
        -15    1    1    2    0    0  0.84864760930E+02  0.44618214238E+02 -0.11224337238E+03  0.14762975670E+03  0.17770000000E+01 0. -1.
         15    1    1    2    0    0  0.27153565037E+02 -0.21119380635E+01  0.21179504154E+03  0.21354642055E+03  0.17770000000E+01 0.  1.
</event>
<event>
 6    1  0.3365733E-003  0.4781952E+03  0.7546771E-02  0.9449966E-01
        -11   -1    0    0    0    0  0.00000000000E+00  0.00000000000E+00  0.50000000000E+03  0.50000000000E+03  0.00000000000E+00 0. -1.
         11   -1    0    0    0    0 -0.00000000000E+00 -0.00000000000E+00 -0.50000000000E+03  0.50000000000E+03  0.00000000000E+00 0. -1.
        -11    1    1    2    0    0  0.39584230433E+01 -0.25455450703E+02  0.48034755966E+03  0.48103786457E+03  0.00000000000E+00 0. -1.
         11    1    1    2    0    0  0.87251833850E+01  0.96942811193E+00 -0.47568045894E+03  0.47576146086E+03  0.00000000000E+00 0. -1.
        -15    1    1    2    0    0  0.23879282767E+00  0.19684007598E+02  0.10703251324E+02  0.22477421895E+02  0.17770000000E+01 0. -1.
         15    1    1    2    0    0 -0.12922399256E+02  0.48020149929E+01 -0.15370352039E+02  0.20723252672E+02  0.17770000000E+01 0.  1.
</event>
<event>
 6    1  0.3365733E-003  0.5168645E+03  0.7546771E-02  0.9362845E-01
        -11   -1    0    0    0    0  0.00000000000E+00  0.00000000000E+00  0.50000000000E+03  0.50000000000E+03  0.00000000000E+00 0.  1.
         11   -1    0    0    0    0 -0.00000000000E+00 -0.00000000000E+00 -0.50000000000E+03  0.50000000000E+03  0.00000000000E+00 0.  1.
        -11    1    1    2    0    0 -0.55991620456E+01  0.33492322824E+01  0.47330303915E+03  0.47334800606E+03  0.00000000000E+00 0.  1.
         11    1    1    2    0    0 -0.61967532633E+00 -0.68673278205E+01 -0.48308631924E+03  0.48313552553E+03  0.00000000000E+00 0.  1.
        -15    1    1    2    0    0 -0.10892109977E+01 -0.17000694573E+00  0.25564506712E+02  0.25649893087E+02  0.17770000000E+01 0.  1.
         15    1    1    2    0    0  0.73080483697E+01  0.36881024838E+01 -0.15781226622E+02  0.17866575318E+02  0.17770000000E+01 0. -1.
</event>
<event>
 6    1  0.3365733E-003  0.5019400E+03  0.7546771E-02  0.9395479E-01
        -11   -1    0    0    0    0  0.00000000000E+00  0.00000000000E+00  0.50000000000E+03  0.50000000000E+03  0.00000000000E+00 0. -1.
         11   -1    0    0    0    0 -0.00000000000E+00 -0.00000000000E+00 -0.50000000000E+03  0.50000000000E+03  0.00000000000E+00 0.  1.
        -11    1    1    2    0    0 -0.18469992060E+02  0.14506703973E+02  0.49750594509E+03  0.49805998681E+03  0.00000000000E+00 0. -1.
         11    1    1    2    0    0  0.43747213999E+01 -0.25224159210E+01 -0.19773784640E+03  0.19780231714E+03  0.00000000000E+00 0.  1.
        -15    1    1    2    0    0  0.18840792669E+02 -0.21165535566E+02 -0.96266900124E+02  0.10036647425E+03  0.17770000000E+01 0.  1.
         15    1    1    2    0    0 -0.47455220092E+01  0.91812475140E+01 -0.20350119857E+03  0.20377122180E+03  0.17770000000E+01 0. -1.
</event>
<event>
 6    1  0.3365733E-003  0.5030700E+03  0.7546771E-02  0.9392966E-01
        -11   -1    0    0    0    0  0.00000000000E+00  0.00000000000E+00  0.50000000000E+03  0.50000000000E+03  0.00000000000E+00 0.  1.
         11   -1    0    0    0    0 -0.00000000000E+00 -0.00000000000E+00 -0.50000000000E+03  0.50000000000E+03  0.00000000000E+00 0. -1.
        -11    1    1    2    0    0  0.97810886134E+00 -0.84463013702E+01  0.28668531069E+03  0.28681137367E+03  0.00000000000E+00 0.  1.
         11    1    1    2    0    0 -0.82116850992E+01 -0.34372584586E+00 -0.49686205043E+03  0.49693002232E+03  0.00000000000E+00 0. -1.
        -15    1    1    2    0    0  0.69966464100E+01  0.45997732050E+01  0.30577485483E+01  0.90894735661E+01  0.17770000000E+01 0. -1.
         15    1    1    2    0    0  0.23692982783E+00  0.41902540110E+01  0.20711899120E+03  0.20716913044E+03  0.17770000000E+01 0.  1.
</event>
<event>
 6    1  0.3365733E-003  0.5005909E+03  0.7546771E-02  0.9398489E-01
        -11   -1    0    0    0    0  0.00000000000E+00  0.00000000000E+00  0.50000000000E+03  0.50000000000E+03  0.00000000000E+00 0.  1.
         11   -1    0    0    0    0 -0.00000000000E+00 -0.00000000000E+00 -0.50000000000E+03  0.50000000000E+03  0.00000000000E+00 0.  1.
        -11    1    1    2    0    0  0.67406114286E+01 -0.45073156550E+01  0.49934329588E+03  0.49940912974E+03  0.00000000000E+00 0.  1.
         11    1    1    2    0    0  0.95361231657E+00 -0.29800369954E+01 -0.50057839449E+02  0.50155530974E+02  0.00000000000E+00 0.  1.
        -15    1    1    2    0    0 -0.17273856852E+02  0.80750148299E+01 -0.37799148050E+03  0.37847629920E+03  0.17770000000E+01 0.  1.
         15    1    1    2    0    0  0.95796331071E+01 -0.58766217947E+00 -0.71293975923E+02  0.71959040080E+02  0.17770000000E+01 0. -1.
</event>
<event>
 6    1  0.3365733E-003  0.5061236E+03  0.7546771E-02  0.9386211E-01
        -11   -1    0    0    0    0  0.00000000000E+00  0.00000000000E+00  0.50000000000E+03  0.50000000000E+03  0.00000000000E+00 0.  1.
         11   -1    0    0    0    0 -0.00000000000E+00 -0.00000000000E+00 -0.50000000000E+03  0.50000000000E+03  0.00000000000E+00 0. -1.
        -11    1    1    2    0    0  0.52372152579E+01  0.90166144839E+01  0.49376633444E+03  0.49387642259E+03  0.00000000000E+00 0.  1.
         11    1    1    2    0    0  0.25563592752E+02 -0.95762795547E-01 -0.39720483857E+03  0.39802662000E+03  0.00000000000E+00 0. -1.
        -15    1    1    2    0    0 -0.17035923571E+02  0.53806955880E+01 -0.80567473435E+02  0.82543625324E+02  0.17770000000E+01 0.  1.
         15    1    1    2    0    0 -0.13764884439E+02 -0.14301547276E+02 -0.15994022440E+02  0.25553332091E+02  0.17770000000E+01 0. -1.
</event>
<event>
 6    1  0.3365733E-003  0.5001741E+03  0.7546771E-02  0.9399420E-01
        -11   -1    0    0    0    0  0.00000000000E+00  0.00000000000E+00  0.50000000000E+03  0.50000000000E+03  0.00000000000E+00 0.  1.
         11   -1    0    0    0    0 -0.00000000000E+00 -0.00000000000E+00 -0.50000000000E+03  0.50000000000E+03  0.00000000000E+00 0. -1.
        -11    1    1    2    0    0 -0.23159554846E+01 -0.35793670931E+01  0.11298440860E+03  0.11306481373E+03  0.00000000000E+00 0.  1.
         11    1    1    2    0    0  0.57340652244E+01  0.68972690703E+01 -0.49974543749E+03  0.49982592381E+03  0.00000000000E+00 0. -1.
        -15    1    1    2    0    0 -0.87208675819E+01  0.14672770959E+01  0.20023260099E+03  0.20043567213E+03  0.17770000000E+01 0. -1.
         15    1    1    2    0    0  0.53027578421E+01 -0.47851790732E+01  0.18652842790E+03  0.18667359032E+03  0.17770000000E+01 0.  1.
</event>
<event>
 6    1  0.3365733E-003  0.5005202E+03  0.7546771E-02  0.9398646E-01
        -11   -1    0    0    0    0  0.00000000000E+00  0.00000000000E+00  0.50000000000E+03  0.50000000000E+03  0.00000000000E+00 0. -1.
         11   -1    0    0    0    0 -0.00000000000E+00 -0.00000000000E+00 -0.50000000000E+03  0.50000000000E+03  0.00000000000E+00 0.  1.
        -11    1    1    2    0    0 -0.55572615594E+01  0.47423933421E+01  0.49942634433E+03  0.49947977623E+03  0.00000000000E+00 0. -1.
         11    1    1    2    0    0 -0.19623730955E+01  0.52996528986E+01 -0.38266585041E+03  0.38270757805E+03  0.00000000000E+00 0.  1.
        -15    1    1    2    0    0  0.69287486522E+01 -0.73533471376E+01 -0.53944643908E+02  0.54911397791E+02  0.17770000000E+01 0.  1.
         15    1    1    2    0    0  0.59088600267E+00 -0.26886991030E+01 -0.62815850010E+02  0.62901247926E+02  0.17770000000E+01 0. -1.
</event>
<event>
 6    1  0.3365733E-003  0.5049715E+03  0.7546771E-02  0.9388754E-01
        -11   -1    0    0    0    0  0.00000000000E+00  0.00000000000E+00  0.50000000000E+03  0.50000000000E+03  0.00000000000E+00 0. -1.
         11   -1    0    0    0    0 -0.00000000000E+00 -0.00000000000E+00 -0.50000000000E+03  0.50000000000E+03  0.00000000000E+00 0.  1.
        -11    1    1    2    0    0 -0.15258284768E+02 -0.18458276564E+02  0.42254683737E+03  0.42322494373E+03  0.00000000000E+00 0. -1.
         11    1    1    2    0    0  0.15697979884E+02  0.65850378171E+01 -0.49473571932E+03  0.49502850551E+03  0.00000000000E+00 0.  1.
        -15    1    1    2    0    0 -0.54393806946E+01 -0.55349015924E+01  0.71618907650E+00  0.79932880451E+01  0.17770000000E+01 0.  1.
         15    1    1    2    0    0  0.49996855785E+01  0.17408140339E+02  0.71472692874E+02  0.73753262718E+02  0.17770000000E+01 0. -1.
</event>
<event>
 6    1  0.3365733E-003  0.4748102E+03  0.7546771E-02  0.9458008E-01
        -11   -1    0    0    0    0  0.00000000000E+00  0.00000000000E+00  0.50000000000E+03  0.50000000000E+03  0.00000000000E+00 0.  1.
         11   -1    0    0    0    0 -0.00000000000E+00 -0.00000000000E+00 -0.50000000000E+03  0.50000000000E+03  0.00000000000E+00 0.  1.
        -11    1    1    2    0    0 -0.11348988595E+02 -0.59284365523E+01  0.11745551894E+02  0.17375381762E+02  0.00000000000E+00 0.  1.
         11    1    1    2    0    0  0.75923663228E+01 -0.84113240908E-01 -0.48215509714E+03  0.48221487824E+03  0.00000000000E+00 0.  1.
        -15    1    1    2    0    0 -0.10761650425E+02  0.30258896864E+02  0.31785033888E+01  0.32321425898E+02  0.17770000000E+01 0. -1.
         15    1    1    2    0    0  0.14518272697E+02 -0.24246347071E+02  0.46723104186E+03  0.46808831410E+03  0.17770000000E+01 0.  1.
</event>
<event>
 6    1  0.3365733E-003  0.5030648E+03  0.7546771E-02  0.9392978E-01
        -11   -1    0    0    0    0  0.00000000000E+00  0.00000000000E+00  0.50000000000E+03  0.50000000000E+03  0.00000000000E+00 0.  1.
         11   -1    0    0    0    0 -0.00000000000E+00 -0.00000000000E+00 -0.50000000000E+03  0.50000000000E+03  0.00000000000E+00 0. -1.
        -11    1    1    2    0    0 -0.48508269211E+01 -0.50105810037E+01  0.26672076672E+03  0.26681192598E+03  0.00000000000E+00 0.  1.
         11    1    1    2    0    0  0.15985019800E+02 -0.13969753673E+02 -0.49648155764E+03  0.49693521907E+03  0.00000000000E+00 0. -1.
        -15    1    1    2    0    0  0.99083584536E-01  0.67244367470E+01  0.21103236913E+03  0.21114697824E+03  0.17770000000E+01 0.  1.
         15    1    1    2    0    0 -0.11233276463E+02  0.12255897930E+02  0.18728421780E+02  0.25105876713E+02  0.17770000000E+01 0. -1.
</event>
<event>
 6    1  0.3365733E-003  0.5001545E+03  0.7546771E-02  0.9399464E-01
        -11   -1    0    0    0    0  0.00000000000E+00  0.00000000000E+00  0.50000000000E+03  0.50000000000E+03  0.00000000000E+00 0.  1.
         11   -1    0    0    0    0 -0.00000000000E+00 -0.00000000000E+00 -0.50000000000E+03  0.50000000000E+03  0.00000000000E+00 0. -1.
        -11    1    1    2    0    0  0.66410066296E+01 -0.25044266456E+01  0.33753230524E+03  0.33760691966E+03  0.00000000000E+00 0.  1.
         11    1    1    2    0    0 -0.10914880488E+02 -0.37478959380E+01 -0.49971224371E+03  0.49984548398E+03  0.00000000000E+00 0. -1.
        -15    1    1    2    0    0 -0.12443959337E+01  0.40356828160E+01  0.81919041311E+02  0.82047073777E+02  0.17770000000E+01 0.  1.
         15    1    1    2    0    0  0.55182697924E+01  0.22166397675E+01  0.80260897160E+02  0.80500522578E+02  0.17770000000E+01 0. -1.
</event>
<event>
 6    1  0.3365733E-003  0.4903508E+03  0.7546771E-02  0.9421663E-01
        -11   -1    0    0    0    0  0.00000000000E+00  0.00000000000E+00  0.50000000000E+03  0.50000000000E+03  0.00000000000E+00 0. -1.
         11   -1    0    0    0    0 -0.00000000000E+00 -0.00000000000E+00 -0.50000000000E+03  0.50000000000E+03  0.00000000000E+00 0.  1.
        -11    1    1    2    0    0  0.81675526834E+01 -0.25445413656E+00  0.48704134986E+03  0.48710989533E+03  0.00000000000E+00 0. -1.
         11    1    1    2    0    0  0.28716030918E+01  0.72385289876E+01 -0.49363949608E+03  0.49370091603E+03  0.00000000000E+00 0.  1.
        -15    1    1    2    0    0 -0.25293499735E+01  0.22855420442E+01  0.51092061636E+01  0.63939839183E+01  0.17770000000E+01 0. -1.
         15    1    1    2    0    0 -0.85098058016E+01 -0.92696168952E+01  0.14889400578E+01  0.12795204714E+02  0.17770000000E+01 0.  1.
</event>
<event>
 6    1  0.3365733E-003  0.5007109E+03  0.7546771E-02  0.9398220E-01
        -11   -1    0    0    0    0  0.00000000000E+00  0.00000000000E+00  0.50000000000E+03  0.50000000000E+03  0.00000000000E+00 0.  1.
         11   -1    0    0    0    0 -0.00000000000E+00 -0.00000000000E+00 -0.50000000000E+03  0.50000000000E+03  0.00000000000E+00 0. -1.
        -11    1    1    2    0    0  0.58751446163E+01  0.77768642079E+00  0.20351872631E+03  0.20360499522E+03  0.00000000000E+00 0.  1.
         11    1    1    2    0    0 -0.12487547599E+02  0.32282590045E+01 -0.49912245261E+03  0.49928907779E+03  0.00000000000E+00 0. -1.
        -15    1    1    2    0    0 -0.34577294076E+01 -0.51776023973E+01  0.25904632508E+03  0.25912722691E+03  0.17770000000E+01 0.  1.
         15    1    1    2    0    0  0.10070132390E+02  0.11716569720E+01  0.36557401224E+02  0.37978700079E+02  0.17770000000E+01 0. -1.
</event>
<event>
 6    1  0.3365733E-003  0.5032317E+03  0.7546771E-02  0.9392607E-01
        -11   -1    0    0    0    0  0.00000000000E+00  0.00000000000E+00  0.50000000000E+03  0.50000000000E+03  0.00000000000E+00 0.  1.
         11   -1    0    0    0    0 -0.00000000000E+00 -0.00000000000E+00 -0.50000000000E+03  0.50000000000E+03  0.00000000000E+00 0. -1.
        -11    1    1    2    0    0  0.21326992282E+01 -0.10033333365E+02  0.10721447699E+03  0.10770404014E+03  0.00000000000E+00 0.  1.
         11    1    1    2    0    0  0.56704665246E+01 -0.85641344836E+01 -0.49666209886E+03  0.49676829512E+03  0.00000000000E+00 0. -1.
        -15    1    1    2    0    0 -0.23730496094E+01  0.12679596014E+02  0.11156924044E+02  0.17147542176E+02  0.17770000000E+01 0. -1.
         15    1    1    2    0    0 -0.54301161434E+01  0.59178718346E+01  0.37829069782E+03  0.37838012257E+03  0.17770000000E+01 0.  1.
</event>
<event>
 6    1  0.3365733E-003  0.5041556E+03  0.7546771E-02  0.9390559E-01
        -11   -1    0    0    0    0  0.00000000000E+00  0.00000000000E+00  0.50000000000E+03  0.50000000000E+03  0.00000000000E+00 0.  1.
         11   -1    0    0    0    0 -0.00000000000E+00 -0.00000000000E+00 -0.50000000000E+03  0.50000000000E+03  0.00000000000E+00 0.  1.
        -11    1    1    2    0    0 -0.50257643056E+01  0.36923803395E+01  0.32671850845E+03  0.32677802212E+03  0.00000000000E+00 0.  1.
         11    1    1    2    0    0  0.31327971199E+01  0.77478580305E+01 -0.49577399032E+03  0.49584442439E+03  0.00000000000E+00 0.  1.
        -15    1    1    2    0    0 -0.20791775423E+02 -0.10056066950E+02  0.39170443791E+02  0.45507184087E+02  0.17770000000E+01 0.  1.
         15    1    1    2    0    0  0.22684742609E+02 -0.13841714199E+01  0.12988503808E+03  0.13187036940E+03  0.17770000000E+01 0. -1.
</event>
<event>
 6    1  0.3365733E-003  0.4806121E+03  0.7546771E-02  0.9444268E-01
        -11   -1    0    0    0    0  0.00000000000E+00  0.00000000000E+00  0.50000000000E+03  0.50000000000E+03  0.00000000000E+00 0. -1.
         11   -1    0    0    0    0 -0.00000000000E+00 -0.00000000000E+00 -0.50000000000E+03  0.50000000000E+03  0.00000000000E+00 0. -1.
        -11    1    1    2    0    0  0.92451762975E+01 -0.57774217451E+01  0.47954548914E+03  0.47966939452E+03  0.00000000000E+00 0. -1.
         11    1    1    2    0    0  0.21023144135E+02  0.38283706199E+01 -0.48156144027E+03  0.48203532004E+03  0.00000000000E+00 0. -1.
        -15    1    1    2    0    0 -0.77559025558E+01  0.63765928739E+00  0.11307236329E+02  0.13840952143E+02  0.17770000000E+01 0. -1.
         15    1    1    2    0    0 -0.22512417877E+02  0.13113918378E+01 -0.92912851935E+01  0.24454333292E+02  0.17770000000E+01 0.  1.
</event>
<event>
 6    1  0.3365733E-003  0.4830211E+03  0.7546771E-02  0.9438624E-01
        -11   -1    0    0    0    0  0.00000000000E+00  0.00000000000E+00  0.50000000000E+03  0.50000000000E+03  0.00000000000E+00 0. -1.
         11   -1    0    0    0    0 -0.00000000000E+00 -0.00000000000E+00 -0.50000000000E+03  0.50000000000E+03  0.00000000000E+00 0. -1.
        -11    1    1    2    0    0  0.75465997864E+01  0.61891430724E+01  0.47911506045E+03  0.47921445910E+03  0.00000000000E+00 0. -1.
         11    1    1    2    0    0 -0.97598693510E+01 -0.20637314026E+02 -0.48643071250E+03  0.48696610955E+03  0.00000000000E+00 0. -1.
        -15    1    1    2    0    0  0.53305602701E+01  0.14085645858E+02 -0.86452252060E+01  0.17456171972E+02  0.17770000000E+01 0. -1.
         15    1    1    2    0    0 -0.31172907056E+01  0.36252509551E+00  0.15960877254E+02  0.16363259379E+02  0.17770000000E+01 0.  1.
</event>
<event>
 6    1  0.3365733E-003  0.5335834E+03  0.7546771E-02  0.9327649E-01
        -11   -1    0    0    0    0  0.00000000000E+00  0.00000000000E+00  0.50000000000E+03  0.50000000000E+03  0.00000000000E+00 0. -1.
         11   -1    0    0    0    0 -0.00000000000E+00 -0.00000000000E+00 -0.50000000000E+03  0.50000000000E+03  0.00000000000E+00 0.  1.
        -11    1    1    2    0    0 -0.70006230590E+01  0.24042141942E+02  0.46574393002E+03  0.46641659668E+03  0.00000000000E+00 0. -1.
         11    1    1    2    0    0  0.25046156434E+01 -0.61765310784E+01 -0.40141576799E+03  0.40147109662E+03  0.00000000000E+00 0.  1.
        -15    1    1    2    0    0  0.12602398976E+02 -0.21047351265E+02  0.29190990527E+02  0.38171758044E+02  0.17770000000E+01 0.  1.
         15    1    1    2    0    0 -0.81063915601E+01  0.31817404014E+01 -0.93519152558E+02  0.93940548648E+02  0.17770000000E+01 0. -1.
</event>
<event>
 6    1  0.3365733E-003  0.5049477E+03  0.7546771E-02  0.9388807E-01
        -11   -1    0    0    0    0  0.00000000000E+00  0.00000000000E+00  0.50000000000E+03  0.50000000000E+03  0.00000000000E+00 0.  1.
         11   -1    0    0    0    0 -0.00000000000E+00 -0.00000000000E+00 -0.50000000000E+03  0.50000000000E+03  0.00000000000E+00 0. -1.
        -11    1    1    2    0    0 -0.10081830245E+02  0.81500208155E+01  0.49488256701E+03  0.49505234195E+03  0.00000000000E+00 0.  1.
         11    1    1    2    0    0  0.80184506672E+01 -0.48227138390E+01 -0.48257712252E+03  0.48266782915E+03  0.00000000000E+00 0. -1.
        -15    1    1    2    0    0  0.87585519341E+01 -0.63500531011E+01 -0.64569170811E+01  0.12723400236E+02  0.17770000000E+01 0.  1.
         15    1    1    2    0    0 -0.66951723566E+01  0.30227461246E+01 -0.58485274093E+01  0.95564286674E+01  0.17770000000E+01 0. -1.
</event>
<event>
 6    1  0.3365733E-003  0.5449609E+03  0.7546771E-02  0.9304470E-01
        -11   -1    0    0    0    0  0.00000000000E+00  0.00000000000E+00  0.50000000000E+03  0.50000000000E+03  0.00000000000E+00 0. -1.
         11   -1    0    0    0    0 -0.00000000000E+00 -0.00000000000E+00 -0.50000000000E+03  0.50000000000E+03  0.00000000000E+00 0. -1.
        -11    1    1    2    0    0  0.88794685575E+01  0.24576646537E+01  0.45494578389E+03  0.45503906574E+03  0.00000000000E+00 0. -1.
         11    1    1    2    0    0 -0.90917294037E+01  0.30167843683E+01 -0.17926725615E+03  0.17952300593E+03  0.00000000000E+00 0. -1.
        -15    1    1    2    0    0  0.29377148295E+01 -0.14021220060E+02 -0.31992790580E+03  0.32025341125E+03  0.17770000000E+01 0. -1.
         15    1    1    2    0    0 -0.27254539833E+01  0.85467710381E+01  0.44249378066E+02  0.45184517069E+02  0.17770000000E+01 0.  1.
</event>
<event>
 6    1  0.3365733E-003  0.5028042E+03  0.7546771E-02  0.9393557E-01
        -11   -1    0    0    0    0  0.00000000000E+00  0.00000000000E+00  0.50000000000E+03  0.50000000000E+03  0.00000000000E+00 0. -1.
         11   -1    0    0    0    0 -0.00000000000E+00 -0.00000000000E+00 -0.50000000000E+03  0.50000000000E+03  0.00000000000E+00 0. -1.
        -11    1    1    2    0    0 -0.58660613301E+01 -0.40444388260E+01  0.49714470741E+03  0.49719576453E+03  0.00000000000E+00 0. -1.
         11    1    1    2    0    0  0.11361250938E+02  0.51470421873E+01 -0.42278639914E+03  0.42297034100E+03  0.00000000000E+00 0. -1.
        -15    1    1    2    0    0  0.12418888670E+01  0.85496319901E+01 -0.65441477727E+01  0.10982809030E+02  0.17770000000E+01 0.  1.
         15    1    1    2    0    0 -0.67370784753E+01 -0.96522353514E+01 -0.67814160494E+02  0.68851085440E+02  0.17770000000E+01 0. -1.
</event>
<event>
 6    1  0.3365733E-003  0.5172898E+03  0.7546771E-02  0.9361932E-01
        -11   -1    0    0    0    0  0.00000000000E+00  0.00000000000E+00  0.50000000000E+03  0.50000000000E+03  0.00000000000E+00 0. -1.
         11   -1    0    0    0    0 -0.00000000000E+00 -0.00000000000E+00 -0.50000000000E+03  0.50000000000E+03  0.00000000000E+00 0.  1.
        -11    1    1    2    0    0 -0.48273885887E+01 -0.11711105216E+02  0.48254397546E+03  0.48271020491E+03  0.00000000000E+00 0. -1.
         11    1    1    2    0    0 -0.43908450751E+01  0.45156427839E+01 -0.24406662204E+03  0.24414787844E+03  0.00000000000E+00 0.  1.
        -15    1    1    2    0    0  0.68596062495E+01  0.14016931142E+02  0.13708049878E+02  0.20846988199E+02  0.17770000000E+01 0. -1.
         15    1    1    2    0    0  0.23586274143E+01 -0.68214687095E+01 -0.25218540330E+03  0.25229492846E+03  0.17770000000E+01 0. -1.
</event>
<event>
 6    1  0.3365733E-003  0.5002580E+03  0.7546771E-02  0.9399233E-01
        -11   -1    0    0    0    0  0.00000000000E+00  0.00000000000E+00  0.50000000000E+03  0.50000000000E+03  0.00000000000E+00 0. -1.
         11   -1    0    0    0    0 -0.00000000000E+00 -0.00000000000E+00 -0.50000000000E+03  0.50000000000E+03  0.00000000000E+00 0.  1.
        -11    1    1    2    0    0  0.17842220404E+00 -0.36617850900E+01  0.11145686406E+03  0.11151714241E+03  0.00000000000E+00 0. -1.
         11    1    1    2    0    0  0.91112455603E+01  0.13776339209E+00 -0.49965889381E+03  0.49974197736E+03  0.00000000000E+00 0.  1.
        -15    1    1    2    0    0 -0.44777112575E+01  0.10568117832E+02  0.24332780425E+03  0.24360482972E+03  0.17770000000E+01 0. -1.
         15    1    1    2    0    0 -0.48119565069E+01 -0.70440961342E+01  0.14487422550E+03  0.14513605052E+03  0.17770000000E+01 0.  1.
</event>
<event>
 6    1  0.3365733E-003  0.5062392E+03  0.7546771E-02  0.9385956E-01
        -11   -1    0    0    0    0  0.00000000000E+00  0.00000000000E+00  0.50000000000E+03  0.50000000000E+03  0.00000000000E+00 0.  1.
         11   -1    0    0    0    0 -0.00000000000E+00 -0.00000000000E+00 -0.50000000000E+03  0.50000000000E+03  0.00000000000E+00 0. -1.
        -11    1    1    2    0    0 -0.51674587507E+01 -0.80455400787E+01  0.35780566487E+03  0.35793341162E+03  0.00000000000E+00 0.  1.
         11    1    1    2    0    0  0.25241773906E+01  0.97366947659E+01 -0.49365838275E+03  0.49376084652E+03  0.00000000000E+00 0. -1.
        -15    1    1    2    0    0 -0.83040719300E+01  0.47408918456E+01 -0.19403765413E+01  0.99174823535E+01  0.17770000000E+01 0.  1.
         15    1    1    2    0    0  0.10947353290E+02 -0.64320465327E+01  0.13779309443E+03  0.13838825950E+03  0.17770000000E+01 0. -1.
</event>
<event>
 6    1  0.3365733E-003  0.5008420E+03  0.7546771E-02  0.9397928E-01
        -11   -1    0    0    0    0  0.00000000000E+00  0.00000000000E+00  0.50000000000E+03  0.50000000000E+03  0.00000000000E+00 0. -1.
         11   -1    0    0    0    0 -0.00000000000E+00 -0.00000000000E+00 -0.50000000000E+03  0.50000000000E+03  0.00000000000E+00 0.  1.
        -11    1    1    2    0    0  0.33500253490E+01 -0.12617840032E+02  0.49898722878E+03  0.49915797804E+03  0.00000000000E+00 0. -1.
         11    1    1    2    0    0 -0.35461171815E+00 -0.58889956886E+01 -0.16651373825E+03  0.16661821943E+03  0.00000000000E+00 0.  1.
        -15    1    1    2    0    0  0.10278775307E+02  0.15810988577E+02 -0.14148410494E+03  0.14274645446E+03  0.17770000000E+01 0.  1.
         15    1    1    2    0    0 -0.13274188938E+02  0.26958471431E+01 -0.19098938560E+03  0.19147734807E+03  0.17770000000E+01 0. -1.
</event>
<event>
 6    1  0.3365733E-003  0.5137124E+03  0.7546771E-02  0.9369639E-01
        -11   -1    0    0    0    0  0.00000000000E+00  0.00000000000E+00  0.50000000000E+03  0.50000000000E+03  0.00000000000E+00 0.  1.
         11   -1    0    0    0    0 -0.00000000000E+00 -0.00000000000E+00 -0.50000000000E+03  0.50000000000E+03  0.00000000000E+00 0. -1.
        -11    1    1    2    0    0 -0.14462828950E+02  0.20630654427E+01  0.37822318517E+03  0.37850522778E+03  0.00000000000E+00 0.  1.
         11    1    1    2    0    0  0.50686937997E+01 -0.12127875585E+02 -0.48610994742E+03  0.48628762888E+03  0.00000000000E+00 0. -1.
        -15    1    1    2    0    0  0.29849090413E+02  0.49765549839E+00  0.10850119462E+03  0.11254724707E+03  0.17770000000E+01 0.  1.
         15    1    1    2    0    0 -0.20454955262E+02  0.95671546441E+01 -0.61443236359E+00  0.22659896269E+02  0.17770000000E+01 0. -1.
</event>
<event>
 6    1  0.3365733E-003  0.5075159E+03  0.7546771E-02  0.9383148E-01
        -11   -1    0    0    0    0  0.00000000000E+00  0.00000000000E+00  0.50000000000E+03  0.50000000000E+03  0.00000000000E+00 0. -1.
         11   -1    0    0    0    0 -0.00000000000E+00 -0.00000000000E+00 -0.50000000000E+03  0.50000000000E+03  0.00000000000E+00 0.  1.
        -11    1    1    2    0    0 -0.29721067996E+02  0.70593014802E+01  0.49153577161E+03  0.49248410167E+03  0.00000000000E+00 0. -1.
         11    1    1    2    0    0 -0.75360957372E+01 -0.21179007889E+02 -0.17003613321E+03  0.17151568357E+03  0.00000000000E+00 0.  1.
        -15    1    1    2    0    0  0.19940922668E+02 -0.30571535143E+02 -0.60891260465E+02  0.71015227155E+02  0.17770000000E+01 0. -1.
         15    1    1    2    0    0  0.17316241066E+02  0.44691241552E+02 -0.26060837794E+03  0.26498498761E+03  0.17770000000E+01 0.  1.
</event>
<event>
 6    1  0.3365733E-003  0.5029357E+03  0.7546771E-02  0.9393265E-01
        -11   -1    0    0    0    0  0.00000000000E+00  0.00000000000E+00  0.50000000000E+03  0.50000000000E+03  0.00000000000E+00 0.  1.
         11   -1    0    0    0    0 -0.00000000000E+00 -0.00000000000E+00 -0.50000000000E+03  0.50000000000E+03  0.00000000000E+00 0.  1.
        -11    1    1    2    0    0 -0.25338402243E+01  0.70843568808E+01  0.33472997879E+03  0.33481452650E+03  0.00000000000E+00 0.  1.
         11    1    1    2    0    0 -0.16587308605E+02 -0.37517788651E+01 -0.49677331286E+03  0.49706432081E+03  0.00000000000E+00 0.  1.
        -15    1    1    2    0    0  0.40088216626E+01 -0.52360705568E+00  0.14513145276E+03  0.14519862645E+03  0.17770000000E+01 0.  1.
         15    1    1    2    0    0  0.15112327166E+02 -0.28089709600E+01  0.16911881319E+02  0.22922526235E+02  0.17770000000E+01 0. -1.
</event>
<event>
 6    1  0.3365733E-003  0.4804395E+03  0.7546771E-02  0.9444674E-01
        -11   -1    0    0    0    0  0.00000000000E+00  0.00000000000E+00  0.50000000000E+03  0.50000000000E+03  0.00000000000E+00 0.  1.
         11   -1    0    0    0    0 -0.00000000000E+00 -0.00000000000E+00 -0.50000000000E+03  0.50000000000E+03  0.00000000000E+00 0. -1.
        -11    1    1    2    0    0  0.72608737665E+01  0.72170639470E+01  0.47821929426E+03  0.47832886146E+03  0.00000000000E+00 0.  1.
         11    1    1    2    0    0  0.36427551803E+00  0.21581994844E+02 -0.48253896718E+03  0.48302150061E+03  0.00000000000E+00 0. -1.
        -15    1    1    2    0    0 -0.97059626623E+01 -0.22610356052E+02  0.12806325576E+02  0.27795568276E+02  0.17770000000E+01 0.  1.
         15    1    1    2    0    0  0.20808133778E+01 -0.61887027382E+01 -0.84866526560E+01  0.10854069661E+02  0.17770000000E+01 0. -1.
</event>
<event>
 6    1  0.3365733E-003  0.5023453E+03  0.7546771E-02  0.9394577E-01
        -11   -1    0    0    0    0  0.00000000000E+00  0.00000000000E+00  0.50000000000E+03  0.50000000000E+03  0.00000000000E+00 0.  1.
         11   -1    0    0    0    0 -0.00000000000E+00 -0.00000000000E+00 -0.50000000000E+03  0.50000000000E+03  0.00000000000E+00 0.  1.
        -11    1    1    2    0    0 -0.99512815282E+01  0.12549261486E+02  0.31515995989E+03  0.31556665268E+03  0.00000000000E+00 0.  1.
         11    1    1    2    0    0  0.89505256039E+01 -0.18070915527E+01 -0.49757089716E+03  0.49765467464E+03  0.00000000000E+00 0.  1.
        -15    1    1    2    0    0 -0.15426165790E+02 -0.10055157582E+02  0.49518418746E+02  0.52861179603E+02  0.17770000000E+01 0. -1.
         15    1    1    2    0    0  0.16426921714E+02 -0.68701235089E+00  0.13289251853E+03  0.13391749308E+03  0.17770000000E+01 0.  1.
</event>
<event>
 6    1  0.5142181E-003  0.5730424E+03  0.7546771E-02  0.9249741E-01
        -11   -1    0    0    0    0  0.00000000000E+00  0.00000000000E+00  0.50000000000E+03  0.50000000000E+03  0.00000000000E+00 0.  1.
         11   -1    0    0    0    0 -0.00000000000E+00 -0.00000000000E+00 -0.50000000000E+03  0.50000000000E+03  0.00000000000E+00 0. -1.
        -11    1    1    2    0    0 -0.61565903328E+01 -0.37572454902E+02  0.42525666094E+03  0.42695763331E+03  0.00000000000E+00 0.  1.
         11    1    1    2    0    0 -0.94542243087E+01  0.47198791900E+01 -0.38042764591E+03  0.38057437300E+03  0.00000000000E+00 0. -1.
        -15    1    1    2    0    0  0.64521418854E+01  0.32629588466E+02  0.69862897546E+02  0.77397043619E+02  0.17770000000E+01 0.  1.
         15    1    1    2    0    0  0.91586727561E+01  0.22298724665E+00 -0.11469191258E+03  0.11507095007E+03  0.17770000000E+01 0. -1.
</event>
<event>
 6    1  0.3365733E-003  0.5293602E+03  0.7546771E-02  0.9336409E-01
        -11   -1    0    0    0    0  0.00000000000E+00  0.00000000000E+00  0.50000000000E+03  0.50000000000E+03  0.00000000000E+00 0.  1.
         11   -1    0    0    0    0 -0.00000000000E+00 -0.00000000000E+00 -0.50000000000E+03  0.50000000000E+03  0.00000000000E+00 0. -1.
        -11    1    1    2    0    0 -0.16386854931E+02  0.24140751225E+02  0.37033499029E+03  0.37148258360E+03  0.00000000000E+00 0.  1.
         11    1    1    2    0    0  0.33743902432E+01  0.41318516351E+02 -0.46881043527E+03  0.47063980975E+03  0.00000000000E+00 0. -1.
        -15    1    1    2    0    0  0.19249699650E+02 -0.39690249488E+02  0.11728677476E+03  0.12532043770E+03  0.17770000000E+01 0.  1.
         15    1    1    2    0    0 -0.62372349620E+01 -0.25769018088E+02 -0.18811329781E+02  0.32557168954E+02  0.17770000000E+01 0. -1.
</event>
<event>
 6    1  0.3365733E-003  0.5202113E+03  0.7546771E-02  0.9355687E-01
        -11   -1    0    0    0    0  0.00000000000E+00  0.00000000000E+00  0.50000000000E+03  0.50000000000E+03  0.00000000000E+00 0. -1.
         11   -1    0    0    0    0 -0.00000000000E+00 -0.00000000000E+00 -0.50000000000E+03  0.50000000000E+03  0.00000000000E+00 0.  1.
        -11    1    1    2    0    0 -0.10970146903E+02  0.12282073408E+01  0.46368448716E+03  0.46381586460E+03  0.00000000000E+00 0. -1.
         11    1    1    2    0    0  0.17017835568E+02  0.15176841553E+02 -0.47924656210E+03  0.47978871446E+03  0.00000000000E+00 0.  1.
        -15    1    1    2    0    0  0.93199800833E+01 -0.64915910030E+01  0.30577060354E+02  0.32666758814E+02  0.17770000000E+01 0.  1.
         15    1    1    2    0    0 -0.15367668749E+02 -0.99134578908E+01 -0.15014985421E+02  0.23728662127E+02  0.17770000000E+01 0.  1.
</event>
<event>
 6    1  0.3365733E-003  0.5032110E+03  0.7546771E-02  0.9392653E-01
        -11   -1    0    0    0    0  0.00000000000E+00  0.00000000000E+00  0.50000000000E+03  0.50000000000E+03  0.00000000000E+00 0. -1.
         11   -1    0    0    0    0 -0.00000000000E+00 -0.00000000000E+00 -0.50000000000E+03  0.50000000000E+03  0.00000000000E+00 0. -1.
        -11    1    1    2    0    0 -0.80369201875E+00  0.10927525316E+02  0.43825227395E+03  0.43838922473E+03  0.00000000000E+00 0. -1.
         11    1    1    2    0    0 -0.47171449768E+01  0.64202122184E+01 -0.49672512758E+03  0.49678901251E+03  0.00000000000E+00 0. -1.
        -15    1    1    2    0    0 -0.22540561519E+01 -0.15845892952E+01  0.36412117062E+02  0.36559426832E+02  0.17770000000E+01 0. -1.
         15    1    1    2    0    0  0.77748931474E+01 -0.15763148240E+02  0.22060736562E+02  0.28262335935E+02  0.17770000000E+01 0.  1.
</event>
<event>
 6    1  0.3365733E-003  0.5044733E+03  0.7546771E-02  0.9389856E-01
        -11   -1    0    0    0    0  0.00000000000E+00  0.00000000000E+00  0.50000000000E+03  0.50000000000E+03  0.00000000000E+00 0. -1.
         11   -1    0    0    0    0 -0.00000000000E+00 -0.00000000000E+00 -0.50000000000E+03  0.50000000000E+03  0.00000000000E+00 0.  1.
        -11    1    1    2    0    0  0.89733868209E+01 -0.27433117551E+01  0.49543787968E+03  0.49552672990E+03  0.00000000000E+00 0. -1.
         11    1    1    2    0    0  0.42598524891E+01  0.48874558347E+01 -0.48104741785E+03  0.48109110549E+03  0.00000000000E+00 0.  1.
        -15    1    1    2    0    0 -0.41958456772E+01  0.14834927700E+01  0.11764953441E+01  0.49343431215E+01  0.17770000000E+01 0. -1.
         15    1    1    2    0    0 -0.90373936328E+01 -0.36276368495E+01 -0.15566957172E+02  0.18447821481E+02  0.17770000000E+01 0.  1.
</event>
<event>
 6    1  0.3365733E-003  0.5002152E+03  0.7546771E-02  0.9399328E-01
        -11   -1    0    0    0    0  0.00000000000E+00  0.00000000000E+00  0.50000000000E+03  0.50000000000E+03  0.00000000000E+00 0.  1.
         11   -1    0    0    0    0 -0.00000000000E+00 -0.00000000000E+00 -0.50000000000E+03  0.50000000000E+03  0.00000000000E+00 0.  1.
        -11    1    1    2    0    0 -0.67818354544E+00 -0.39677956591E+01  0.20328246742E+03  0.20332231775E+03  0.00000000000E+00 0.  1.
         11    1    1    2    0    0  0.19400139259E+01 -0.74608495951E+01 -0.49972538829E+03  0.49978484534E+03  0.00000000000E+00 0.  1.
        -15    1    1    2    0    0 -0.49350133887E+01  0.13565632491E+01  0.87617990918E+02  0.87785332958E+02  0.17770000000E+01 0. -1.
         15    1    1    2    0    0  0.36731830083E+01  0.10072082005E+02  0.20882492995E+03  0.20910750395E+03  0.17770000000E+01 0.  1.
</event>
<event>
 6    1  0.3365733E-003  0.5026072E+03  0.7546771E-02  0.9393995E-01
        -11   -1    0    0    0    0  0.00000000000E+00  0.00000000000E+00  0.50000000000E+03  0.50000000000E+03  0.00000000000E+00 0.  1.
         11   -1    0    0    0    0 -0.00000000000E+00 -0.00000000000E+00 -0.50000000000E+03  0.50000000000E+03  0.00000000000E+00 0.  1.
        -11    1    1    2    0    0  0.15924444826E+02  0.46282758078E+01  0.49711629703E+03  0.49739282429E+03  0.00000000000E+00 0.  1.
         11    1    1    2    0    0 -0.24630890490E-01 -0.24909791182E+02 -0.17162252349E+03  0.17342084325E+03  0.00000000000E+00 0.  1.
        -15    1    1    2    0    0 -0.96155173026E+01  0.34505780170E+01 -0.15389082320E+02  0.18556568791E+02  0.17770000000E+01 0. -1.
         15    1    1    2    0    0 -0.62842966328E+01  0.16830937357E+02 -0.31010469121E+03  0.31062976367E+03  0.17770000000E+01 0.  1.
</event>
<event>
 6    1  0.5620200E-003  0.5029218E+03  0.7546771E-02  0.9393296E-01
        -11   -1    0    0    0    0  0.00000000000E+00  0.00000000000E+00  0.50000000000E+03  0.50000000000E+03  0.00000000000E+00 0. -1.
         11   -1    0    0    0    0 -0.00000000000E+00 -0.00000000000E+00 -0.50000000000E+03  0.50000000000E+03  0.00000000000E+00 0.  1.
        -11    1    1    2    0    0 -0.68728546644E+01 -0.22126145305E+01  0.49702576080E+03  0.49707820178E+03  0.00000000000E+00 0. -1.
         11    1    1    2    0    0 -0.14350057129E+02  0.17004344535E+02 -0.33404248421E+03  0.33478269539E+03  0.00000000000E+00 0.  1.
        -15    1    1    2    0    0  0.15277690308E+02 -0.14024783488E+02 -0.15974978336E+03  0.16110013466E+03  0.17770000000E+01 0. -1.
         15    1    1    2    0    0  0.59452214856E+01 -0.76694651633E+00 -0.32334932195E+01  0.70389681681E+01  0.17770000000E+01 0.  1.
</event>
<event>
 6    1  0.3365733E-003  0.5004679E+03  0.7546771E-02  0.9398763E-01
        -11   -1    0    0    0    0  0.00000000000E+00  0.00000000000E+00  0.50000000000E+03  0.50000000000E+03  0.00000000000E+00 0. -1.
         11   -1    0    0    0    0 -0.00000000000E+00 -0.00000000000E+00 -0.50000000000E+03  0.50000000000E+03  0.00000000000E+00 0. -1.
        -11    1    1    2    0    0 -0.39290060295E+01 -0.46605014942E+00  0.10769463445E+03  0.10776728901E+03  0.00000000000E+00 0. -1.
         11    1    1    2    0    0 -0.14562412695E+02  0.98393127924E+01 -0.49922285555E+03  0.49953211652E+03  0.00000000000E+00 0. -1.
        -15    1    1    2    0    0  0.22669312762E+01 -0.80092442362E+01  0.26237392788E+03  0.26251194779E+03  0.17770000000E+01 0. -1.
         15    1    1    2    0    0  0.16224487448E+02 -0.13640184068E+01  0.12915429321E+03  0.13018864668E+03  0.17770000000E+01 0.  1.
</event>
<event>
 6    1  0.4719903E-003  0.5009705E+03  0.7546771E-02  0.9397641E-01
        -11   -1    0    0    0    0  0.00000000000E+00  0.00000000000E+00  0.50000000000E+03  0.50000000000E+03  0.00000000000E+00 0.  1.
         11   -1    0    0    0    0 -0.00000000000E+00 -0.00000000000E+00 -0.50000000000E+03  0.50000000000E+03  0.00000000000E+00 0. -1.
        -11    1    1    2    0    0  0.19318354158E+01  0.30295152621E+01  0.23712192082E+03  0.23714914144E+03  0.00000000000E+00 0.  1.
         11    1    1    2    0    0  0.23979146768E+02 -0.12237138046E+02 -0.49830279065E+03  0.49902947628E+03  0.00000000000E+00 0. -1.
        -15    1    1    2    0    0 -0.24010456878E+01 -0.93063775611E+00  0.13603866105E+03  0.13607463444E+03  0.17770000000E+01 0.  1.
         15    1    1    2    0    0 -0.23509936496E+02  0.10138260540E+02  0.12514220877E+03  0.12774674785E+03  0.17770000000E+01 0. -1.
</event>
<event>
 6    1  0.3365733E-003  0.5179007E+03  0.7546771E-02  0.9360623E-01
        -11   -1    0    0    0    0  0.00000000000E+00  0.00000000000E+00  0.50000000000E+03  0.50000000000E+03  0.00000000000E+00 0.  1.
         11   -1    0    0    0    0 -0.00000000000E+00 -0.00000000000E+00 -0.50000000000E+03  0.50000000000E+03  0.00000000000E+00 0.  1.
        -11    1    1    2    0    0  0.41800575704E+01 -0.19729609004E+01  0.18858252885E+03  0.18863916784E+03  0.00000000000E+00 0.  1.
         11    1    1    2    0    0  0.14539021167E+02  0.37663790754E+02 -0.48040584415E+03  0.48209928372E+03  0.00000000000E+00 0.  1.
        -15    1    1    2    0    0 -0.16282982905E+02 -0.61433947082E+02  0.37900663259E+02  0.74019479806E+02  0.17770000000E+01 0. -1.
         15    1    1    2    0    0 -0.24360958321E+01  0.25743117228E+02  0.25392265204E+03  0.25524206863E+03  0.17770000000E+01 0.  1.
</event>
<event>
 6    1  0.3365733E-003  0.5035900E+03  0.7546771E-02  0.9391812E-01
        -11   -1    0    0    0    0  0.00000000000E+00  0.00000000000E+00  0.50000000000E+03  0.50000000000E+03  0.00000000000E+00 0. -1.
         11   -1    0    0    0    0 -0.00000000000E+00 -0.00000000000E+00 -0.50000000000E+03  0.50000000000E+03  0.00000000000E+00 0. -1.
        -11    1    1    2    0    0 -0.93318973534E+01  0.78656095279E+01  0.44485096309E+03  0.44501834961E+03  0.00000000000E+00 0. -1.
         11    1    1    2    0    0  0.93170814597E+01 -0.13259783472E+02 -0.49614539888E+03  0.49640999859E+03  0.00000000000E+00 0. -1.
        -15    1    1    2    0    0 -0.13024325347E+02  0.17181639840E+01  0.16338202686E+02  0.21039955661E+02  0.17770000000E+01 0. -1.
         15    1    1    2    0    0  0.13039141241E+02  0.36760099598E+01  0.34956233106E+02  0.37531696145E+02  0.17770000000E+01 0.  1.
</event>
<event>
 6    1  0.3365733E-003  0.5002587E+03  0.7546771E-02  0.9399231E-01
        -11   -1    0    0    0    0  0.00000000000E+00  0.00000000000E+00  0.50000000000E+03  0.50000000000E+03  0.00000000000E+00 0.  1.
         11   -1    0    0    0    0 -0.00000000000E+00 -0.00000000000E+00 -0.50000000000E+03  0.50000000000E+03  0.00000000000E+00 0.  1.
        -11    1    1    2    0    0  0.15813908379E+01 -0.44704630660E+00  0.35357993489E+02  0.35396162941E+02  0.00000000000E+00 0.  1.
         11    1    1    2    0    0  0.12708395434E+02 -0.18464126781E+02 -0.49923838703E+03  0.49974132747E+03  0.00000000000E+00 0.  1.
        -15    1    1    2    0    0 -0.78865839416E+00 -0.88271985754E+00  0.63035621901E+01  0.66553588704E+01  0.17770000000E+01 0.  1.
         15    1    1    2    0    0 -0.13501127877E+02  0.19793892945E+02  0.45757683135E+03  0.45820715072E+03  0.17770000000E+01 0.  1.
</event>
<event>
 6    1  0.3365733E-003  0.5708430E+03  0.7546771E-02  0.9253906E-01
        -11   -1    0    0    0    0  0.00000000000E+00  0.00000000000E+00  0.50000000000E+03  0.50000000000E+03  0.00000000000E+00 0.  1.
         11   -1    0    0    0    0 -0.00000000000E+00 -0.00000000000E+00 -0.50000000000E+03  0.50000000000E+03  0.00000000000E+00 0. -1.
        -11    1    1    2    0    0 -0.18153950226E+02  0.67129527544E+01  0.40575175488E+03  0.40621314138E+03  0.00000000000E+00 0.  1.
         11    1    1    2    0    0 -0.99102697007E+00  0.89012658094E+01 -0.42906349186E+03  0.42915695814E+03  0.00000000000E+00 0. -1.
        -15    1    1    2    0    0  0.20571664016E+02 -0.17711957268E+02 -0.68013419771E+02  0.73252234018E+02  0.17770000000E+01 0. -1.
         15    1    1    2    0    0 -0.14266868198E+01  0.20977387044E+01  0.91325156753E+02  0.91377666461E+02  0.17770000000E+01 0.  1.
</event>
<event>
 6    1  0.3365733E-003  0.4782370E+03  0.7546771E-02  0.9449868E-01
        -11   -1    0    0    0    0  0.00000000000E+00  0.00000000000E+00  0.50000000000E+03  0.50000000000E+03  0.00000000000E+00 0. -1.
         11   -1    0    0    0    0 -0.00000000000E+00 -0.00000000000E+00 -0.50000000000E+03  0.50000000000E+03  0.00000000000E+00 0. -1.
        -11    1    1    2    0    0 -0.11915958735E+01  0.19595993192E+02  0.48367427504E+03  0.48407254331E+03  0.00000000000E+00 0. -1.
         11    1    1    2    0    0  0.65236790784E-01  0.78524970132E+01 -0.47279248641E+03  0.47285769653E+03  0.00000000000E+00 0. -1.
        -15    1    1    2    0    0 -0.32996450675E+01 -0.28405794869E+02  0.25684745394E+01  0.28766849501E+02  0.17770000000E+01 0.  1.
         15    1    1    2    0    0  0.44260041502E+01  0.95730466382E+00 -0.13450263172E+02  0.14302910660E+02  0.17770000000E+01 0. -1.
</event>
<event>
 6    1  0.3365733E-003  0.5036732E+03  0.7546771E-02  0.9391628E-01
        -11   -1    0    0    0    0  0.00000000000E+00  0.00000000000E+00  0.50000000000E+03  0.50000000000E+03  0.00000000000E+00 0. -1.
         11   -1    0    0    0    0 -0.00000000000E+00 -0.00000000000E+00 -0.50000000000E+03  0.50000000000E+03  0.00000000000E+00 0. -1.
        -11    1    1    2    0    0  0.24777437499E+00 -0.10088686492E+02  0.49622416152E+03  0.49632676883E+03  0.00000000000E+00 0. -1.
         11    1    1    2    0    0  0.59459060663E+01  0.22014786764E+01 -0.44578606110E+03  0.44583114806E+03  0.00000000000E+00 0. -1.
        -15    1    1    2    0    0 -0.53925649409E+01 -0.20519218725E+01 -0.46633425729E+02  0.47022593125E+02  0.17770000000E+01 0. -1.
         15    1    1    2    0    0 -0.80111550037E+00  0.99391296881E+01 -0.38046746904E+01  0.10819489983E+02  0.17770000000E+01 0. -1.
</event>
<event>
 6    1  0.3365733E-003  0.5024291E+03  0.7546771E-02  0.9394391E-01
        -11   -1    0    0    0    0  0.00000000000E+00  0.00000000000E+00  0.50000000000E+03  0.50000000000E+03  0.00000000000E+00 0.  1.
         11   -1    0    0    0    0 -0.00000000000E+00 -0.00000000000E+00 -0.50000000000E+03  0.50000000000E+03  0.00000000000E+00 0.  1.
        -11    1    1    2    0    0 -0.15392562628E+02  0.14751572761E+01  0.49733056953E+03  0.49757090195E+03  0.00000000000E+00 0.  1.
         11    1    1    2    0    0  0.74046324402E+01  0.10938362371E+02 -0.41650317212E+03  0.41671257329E+03  0.00000000000E+00 0.  1.
        -15    1    1    2    0    0  0.97751420236E+01 -0.90782514007E+01 -0.16677060726E+02  0.21430122107E+02  0.17770000000E+01 0.  1.
         15    1    1    2    0    0 -0.17872118357E+01 -0.33352682466E+01 -0.64150336684E+02  0.64286402654E+02  0.17770000000E+01 0. -1.
</event>
<event>
 6    1  0.3365733E-003  0.5051025E+03  0.7546771E-02  0.9388464E-01
        -11   -1    0    0    0    0  0.00000000000E+00  0.00000000000E+00  0.50000000000E+03  0.50000000000E+03  0.00000000000E+00 0.  1.
         11   -1    0    0    0    0 -0.00000000000E+00 -0.00000000000E+00 -0.50000000000E+03  0.50000000000E+03  0.00000000000E+00 0. -1.
        -11    1    1    2    0    0  0.27584930027E+02  0.26388109930E+01  0.44903478302E+03  0.44988901748E+03  0.00000000000E+00 0.  1.
         11    1    1    2    0    0 -0.21767794398E+02 -0.87805482410E+01 -0.49434061305E+03  0.49489754153E+03  0.00000000000E+00 0. -1.
        -15    1    1    2    0    0  0.10195929261E+02  0.89214211474E+01  0.29319593899E+02  0.32347257136E+02  0.17770000000E+01 0.  1.
         15    1    1    2    0    0 -0.16013064890E+02 -0.27796838994E+01  0.15986236131E+02  0.22866183861E+02  0.17770000000E+01 0. -1.
</event>
<event>
 6    1  0.3365733E-003  0.5002153E+03  0.7546771E-02  0.9399328E-01
        -11   -1    0    0    0    0  0.00000000000E+00  0.00000000000E+00  0.50000000000E+03  0.50000000000E+03  0.00000000000E+00 0.  1.
         11   -1    0    0    0    0 -0.00000000000E+00 -0.00000000000E+00 -0.50000000000E+03  0.50000000000E+03  0.00000000000E+00 0.  1.
        -11    1    1    2    0    0 -0.51878209653E+01 -0.48676441351E+01  0.49973404721E+03  0.49978467902E+03  0.00000000000E+00 0.  1.
         11    1    1    2    0    0  0.50988623434E+01  0.34473250607E+01 -0.35941440437E+03  0.35946710074E+03  0.00000000000E+00 0.  1.
        -15    1    1    2    0    0 -0.39422527425E+01  0.20928691995E+01 -0.34282238340E+02  0.34617207467E+02  0.17770000000E+01 0. -1.
         15    1    1    2    0    0  0.40312113644E+01 -0.67255012521E+00 -0.10603740450E+03  0.10613101277E+03  0.17770000000E+01 0.  1.
</event>
<event>
 6    1  0.3365733E-003  0.5021177E+03  0.7546771E-02  0.9395084E-01
        -11   -1    0    0    0    0  0.00000000000E+00  0.00000000000E+00  0.50000000000E+03  0.50000000000E+03  0.00000000000E+00 0.  1.
         11   -1    0    0    0    0 -0.00000000000E+00 -0.00000000000E+00 -0.50000000000E+03  0.50000000000E+03  0.00000000000E+00 0.  1.
        -11    1    1    2    0    0 -0.65557055929E+01 -0.14837441563E+01  0.49783696797E+03  0.49788234097E+03  0.00000000000E+00 0.  1.
         11    1    1    2    0    0  0.93878285214E+01  0.22562729956E+01 -0.43939765923E+03  0.43950372584E+03  0.00000000000E+00 0.  1.
        -15    1    1    2    0    0  0.31102800687E+01 -0.20904878587E+01 -0.33099836861E+00  0.41606814963E+01  0.17770000000E+01 0.  1.
         15    1    1    2    0    0 -0.59424029972E+01  0.13179590195E+01 -0.58108310379E+02  0.58453251693E+02  0.17770000000E+01 0. -1.
</event>
<event>
 6    1  0.3365733E-003  0.4786062E+03  0.7546771E-02  0.9448995E-01
        -11   -1    0    0    0    0  0.00000000000E+00  0.00000000000E+00  0.50000000000E+03  0.50000000000E+03  0.00000000000E+00 0.  1.
         11   -1    0    0    0    0 -0.00000000000E+00 -0.00000000000E+00 -0.50000000000E+03  0.50000000000E+03  0.00000000000E+00 0. -1.
        -11    1    1    2    0    0  0.38599221133E+01  0.54002460189E+01  0.47836833741E+03  0.47841438930E+03  0.00000000000E+00 0.  1.
         11    1    1    2    0    0  0.59696707377E+01  0.70284690017E+01 -0.47884042079E+03  0.47892920659E+03  0.00000000000E+00 0. -1.
        -15    1    1    2    0    0  0.40701138496E+01 -0.21783513928E+02 -0.82141807176E+01  0.23700586483E+02  0.17770000000E+01 0. -1.
         15    1    1    2    0    0 -0.13899706701E+02  0.93547989072E+01  0.86862640939E+01  0.18955817626E+02  0.17770000000E+01 0.  1.
</event>
<event>
 6    1  0.3696786E-003  0.5177149E+03  0.7546771E-02  0.9361021E-01
        -11   -1    0    0    0    0  0.00000000000E+00  0.00000000000E+00  0.50000000000E+03  0.50000000000E+03  0.00000000000E+00 0. -1.
         11   -1    0    0    0    0 -0.00000000000E+00 -0.00000000000E+00 -0.50000000000E+03  0.50000000000E+03  0.00000000000E+00 0. -1.
        -11    1    1    2    0    0 -0.71477566311E+01 -0.36397494779E+00  0.48223202776E+03  0.48228513506E+03  0.00000000000E+00 0. -1.
         11    1    1    2    0    0  0.77898241344E+01  0.44960128810E+02 -0.37338710847E+03  0.37616489378E+03  0.00000000000E+00 0. -1.
        -15    1    1    2    0    0  0.49411593396E+01 -0.85738444064E+01  0.11801992974E+02  0.15503890824E+02  0.17770000000E+01 0.  1.
         15    1    1    2    0    0 -0.55832268429E+01 -0.36022309456E+02 -0.12064691226E+03  0.12604608034E+03  0.17770000000E+01 0.  1.
</event>
<event>
 6    1  0.3365733E-003  0.5010070E+03  0.7546771E-02  0.9397559E-01
        -11   -1    0    0    0    0  0.00000000000E+00  0.00000000000E+00  0.50000000000E+03  0.50000000000E+03  0.00000000000E+00 0. -1.
         11   -1    0    0    0    0 -0.00000000000E+00 -0.00000000000E+00 -0.50000000000E+03  0.50000000000E+03  0.00000000000E+00 0. -1.
        -11    1    1    2    0    0 -0.12262874561E+01  0.66108874053E+01  0.34530091457E+03  0.34536636955E+03  0.00000000000E+00 0. -1.
         11    1    1    2    0    0 -0.32662807469E+01 -0.72084999746E+01 -0.49893020668E+03  0.49899296808E+03  0.00000000000E+00 0. -1.
        -15    1    1    2    0    0  0.75951021513E+01 -0.66918290344E+01  0.13406801778E+03  0.13446135977E+03  0.17770000000E+01 0. -1.
         15    1    1    2    0    0 -0.31025339482E+01  0.72894416038E+01  0.19561274333E+02  0.21179302593E+02  0.17770000000E+01 0.  1.
</event>
<event>
 6    1  0.3365733E-003  0.5018263E+03  0.7546771E-02  0.9395732E-01
        -11   -1    0    0    0    0  0.00000000000E+00  0.00000000000E+00  0.50000000000E+03  0.50000000000E+03  0.00000000000E+00 0.  1.
         11   -1    0    0    0    0 -0.00000000000E+00 -0.00000000000E+00 -0.50000000000E+03  0.50000000000E+03  0.00000000000E+00 0.  1.
        -11    1    1    2    0    0 -0.11594531604E+02  0.97598429956E-01  0.49803872502E+03  0.49817367886E+03  0.00000000000E+00 0.  1.
         11    1    1    2    0    0  0.40639659812E+01  0.48068176080E+01 -0.45050487978E+03  0.45054885198E+03  0.00000000000E+00 0.  1.
        -15    1    1    2    0    0  0.10374644968E+02 -0.38961217553E+01 -0.15967505394E+02  0.19517478845E+02  0.17770000000E+01 0.  1.
         15    1    1    2    0    0 -0.28440793455E+01 -0.10082942827E+01 -0.31566339844E+02  0.31759990315E+02  0.17770000000E+01 0. -1.
</event>
<event>
 6    1  0.3365733E-003  0.5017481E+03  0.7546771E-02  0.9395907E-01
        -11   -1    0    0    0    0  0.00000000000E+00  0.00000000000E+00  0.50000000000E+03  0.50000000000E+03  0.00000000000E+00 0.  1.
         11   -1    0    0    0    0 -0.00000000000E+00 -0.00000000000E+00 -0.50000000000E+03  0.50000000000E+03  0.00000000000E+00 0.  1.
        -11    1    1    2    0    0  0.53183629424E+01 -0.73180116921E+01  0.49816974290E+03  0.49825187508E+03  0.00000000000E+00 0.  1.
         11    1    1    2    0    0 -0.14252230252E+01 -0.86215642865E+01 -0.38584175236E+03  0.38594069556E+03  0.00000000000E+00 0.  1.
        -15    1    1    2    0    0 -0.40362023165E+01  0.21683532086E+02 -0.90527157534E+02  0.93192223243E+02  0.17770000000E+01 0.  1.
         15    1    1    2    0    0  0.14306239931E+00 -0.57439561072E+01 -0.21800833010E+02  0.22615206113E+02  0.17770000000E+01 0.  1.
</event>
<event>
 6    1  0.3365733E-003  0.5002362E+03  0.7546771E-02  0.9399281E-01
        -11   -1    0    0    0    0  0.00000000000E+00  0.00000000000E+00  0.50000000000E+03  0.50000000000E+03  0.00000000000E+00 0. -1.
         11   -1    0    0    0    0 -0.00000000000E+00 -0.00000000000E+00 -0.50000000000E+03  0.50000000000E+03  0.00000000000E+00 0. -1.
        -11    1    1    2    0    0  0.59499591340E+01 -0.10300079115E+02  0.49962224718E+03  0.49976382774E+03  0.00000000000E+00 0. -1.
         11    1    1    2    0    0 -0.66185818609E+00 -0.29789980997E+01 -0.19400356212E+03  0.19402756145E+03  0.00000000000E+00 0. -1.
        -15    1    1    2    0    0 -0.31747761891E+01  0.12078925357E+01 -0.16534145155E+03  0.16538588676E+03  0.17770000000E+01 0. -1.
         15    1    1    2    0    0 -0.21133247588E+01  0.12071184679E+02 -0.14027723350E+03  0.14082272405E+03  0.17770000000E+01 0.  1.
</event>
<event>
 6    1  0.3365733E-003  0.5001080E+03  0.7546771E-02  0.9399568E-01
        -11   -1    0    0    0    0  0.00000000000E+00  0.00000000000E+00  0.50000000000E+03  0.50000000000E+03  0.00000000000E+00 0. -1.
         11   -1    0    0    0    0 -0.00000000000E+00 -0.00000000000E+00 -0.50000000000E+03  0.50000000000E+03  0.00000000000E+00 0.  1.
        -11    1    1    2    0    0  0.44763543231E+01 -0.22320681872E+01  0.22726214936E+03  0.22731718898E+03  0.00000000000E+00 0. -1.
         11    1    1    2    0    0 -0.73787383883E+01  0.26870474979E+01 -0.49983033684E+03  0.49989201997E+03  0.00000000000E+00 0.  1.
        -15    1    1    2    0    0  0.55314889599E+01 -0.26986889488E+01  0.11800857462E+03  0.11818232399E+03  0.17770000000E+01 0. -1.
         15    1    1    2    0    0 -0.26291048946E+01  0.22437096382E+01  0.15455961287E+03  0.15460846705E+03  0.17770000000E+01 0.  1.
</event>
<event>
 6    1  0.3365733E-003  0.5044887E+03  0.7546771E-02  0.9389822E-01
        -11   -1    0    0    0    0  0.00000000000E+00  0.00000000000E+00  0.50000000000E+03  0.50000000000E+03  0.00000000000E+00 0.  1.
         11   -1    0    0    0    0 -0.00000000000E+00 -0.00000000000E+00 -0.50000000000E+03  0.50000000000E+03  0.00000000000E+00 0. -1.
        -11    1    1    2    0    0  0.76532406254E+01 -0.10827452814E+01  0.49545103266E+03  0.49551132197E+03  0.00000000000E+00 0.  1.
         11    1    1    2    0    0 -0.57737519073E+00  0.11457604225E+02 -0.48556161563E+03  0.48569712026E+03  0.00000000000E+00 0. -1.
        -15    1    1    2    0    0 -0.14987515552E+01 -0.89528965711E+01 -0.86030250447E+01  0.12632117089E+02  0.17770000000E+01 0. -1.
         15    1    1    2    0    0 -0.55771138794E+01 -0.14219623723E+01 -0.12863919938E+01  0.61594406868E+01  0.17770000000E+01 0.  1.
</event>
<event>
 6    1  0.3365733E-003  0.2862046E+03  0.7546771E-02  0.1006928E+00
        -11   -1    0    0    0    0  0.00000000000E+00  0.00000000000E+00  0.50000000000E+03  0.50000000000E+03  0.00000000000E+00 0.  1.
         11   -1    0    0    0    0 -0.00000000000E+00 -0.00000000000E+00 -0.50000000000E+03  0.50000000000E+03  0.00000000000E+00 0.  1.
        -11    1    1    2    0    0  0.42856194088E+01 -0.48094693647E+01  0.25903836128E+03  0.25911844809E+03  0.00000000000E+00 0.  1.
         11    1    1    2    0    0  0.89229239069E+01  0.65266830113E+00 -0.37769860247E+03  0.37780455113E+03  0.00000000000E+00 0.  1.
        -15    1    1    2    0    0 -0.16465581648E+02  0.10212161485E+03 -0.87046293225E+02  0.13520412158E+03  0.17770000000E+01 0.  1.
         15    1    1    2    0    0  0.32570383322E+01 -0.97964813787E+02  0.20570653442E+03  0.22787287919E+03  0.17770000000E+01 0. -1.
</event>
<event>
 6    1  0.3365733E-003  0.5002081E+03  0.7546771E-02  0.9399344E-01
        -11   -1    0    0    0    0  0.00000000000E+00  0.00000000000E+00  0.50000000000E+03  0.50000000000E+03  0.00000000000E+00 0. -1.
         11   -1    0    0    0    0 -0.00000000000E+00 -0.00000000000E+00 -0.50000000000E+03  0.50000000000E+03  0.00000000000E+00 0.  1.
        -11    1    1    2    0    0  0.40163568619E+01 -0.10561659914E+01  0.30036371671E+03  0.30039242488E+03  0.00000000000E+00 0. -1.
         11    1    1    2    0    0 -0.18686269477E+01  0.68791407916E+01 -0.49974103660E+03  0.49979187469E+03  0.00000000000E+00 0.  1.
        -15    1    1    2    0    0 -0.39642055495E+01  0.20392863042E+01  0.89184398468E+02  0.89313427173E+02  0.17770000000E+01 0.  1.
         15    1    1    2    0    0  0.18164756353E+01 -0.78622611044E+01  0.11019292143E+03  0.11050227326E+03  0.17770000000E+01 0. -1.
</event>
<event>
 6    1  0.3365733E-003  0.5083201E+03  0.7546771E-02  0.9381383E-01
        -11   -1    0    0    0    0  0.00000000000E+00  0.00000000000E+00  0.50000000000E+03  0.50000000000E+03  0.00000000000E+00 0.  1.
         11   -1    0    0    0    0 -0.00000000000E+00 -0.00000000000E+00 -0.50000000000E+03  0.50000000000E+03  0.00000000000E+00 0.  1.
        -11    1    1    2    0    0  0.38673631933E+02 -0.24140665772E+02  0.48956178920E+03  0.49167994366E+03  0.00000000000E+00 0.  1.
         11    1    1    2    0    0 -0.10940081134E+02  0.70774756135E+01 -0.38630668372E+03  0.38652636382E+03  0.00000000000E+00 0.  1.
        -15    1    1    2    0    0 -0.21517013626E+02 -0.10434028646E+02 -0.13115401510E+02  0.27331708965E+02  0.17770000000E+01 0.  1.
         15    1    1    2    0    0 -0.62165371727E+01  0.27497218804E+02 -0.90139703970E+02  0.94461983555E+02  0.17770000000E+01 0. -1.
</event>
<event>
 6    1  0.3365733E-003  0.5077427E+03  0.7546771E-02  0.9382649E-01
        -11   -1    0    0    0    0  0.00000000000E+00  0.00000000000E+00  0.50000000000E+03  0.50000000000E+03  0.00000000000E+00 0. -1.
         11   -1    0    0    0    0 -0.00000000000E+00 -0.00000000000E+00 -0.50000000000E+03  0.50000000000E+03  0.00000000000E+00 0.  1.
        -11    1    1    2    0    0  0.10848350764E+01  0.13022709499E+02  0.49208377533E+03  0.49225725974E+03  0.00000000000E+00 0. -1.
         11    1    1    2    0    0 -0.45948214930E+01  0.41606679257E+01 -0.42115642278E+03  0.42120203702E+03  0.00000000000E+00 0.  1.
        -15    1    1    2    0    0  0.89844846520E+01  0.78066043828E+01 -0.55114624068E+02  0.56413150520E+02  0.17770000000E+01 0.  1.
         15    1    1    2    0    0 -0.54744982353E+01 -0.24989981808E+02 -0.15812728475E+02  0.30127552713E+02  0.17770000000E+01 0. -1.
</event>
<event>
 6    1  0.3365733E-003  0.5007379E+03  0.7546771E-02  0.9398160E-01
        -11   -1    0    0    0    0  0.00000000000E+00  0.00000000000E+00  0.50000000000E+03  0.50000000000E+03  0.00000000000E+00 0. -1.
         11   -1    0    0    0    0 -0.00000000000E+00 -0.00000000000E+00 -0.50000000000E+03  0.50000000000E+03  0.00000000000E+00 0.  1.
        -11    1    1    2    0    0 -0.34219938534E+01  0.16036374678E+01  0.24307592034E+03  0.24310529559E+03  0.00000000000E+00 0. -1.
         11    1    1    2    0    0 -0.13423465567E+02  0.52939370804E+01 -0.49905354772E+03  0.49926211422E+03  0.00000000000E+00 0.  1.
        -15    1    1    2    0    0  0.12029853708E+02 -0.85114671742E+01  0.69041554973E+02  0.70619094414E+02  0.17770000000E+01 0.  1.
         15    1    1    2    0    0  0.48156057120E+01  0.16138926260E+01  0.18693607240E+03  0.18701349578E+03  0.17770000000E+01 0. -1.
</event>
<event>
 6    1  0.3365733E-003  0.4857601E+03  0.7546771E-02  0.9432249E-01
        -11   -1    0    0    0    0  0.00000000000E+00  0.00000000000E+00  0.50000000000E+03  0.50000000000E+03  0.00000000000E+00 0.  1.
         11   -1    0    0    0    0 -0.00000000000E+00 -0.00000000000E+00 -0.50000000000E+03  0.50000000000E+03  0.00000000000E+00 0. -1.
        -11    1    1    2    0    0  0.13960386108E+02 -0.12744596412E+01  0.48861907265E+03  0.48882012518E+03  0.00000000000E+00 0.  1.
         11    1    1    2    0    0  0.29297607782E+01  0.61990934302E+01 -0.48282792696E+03  0.48287660879E+03  0.00000000000E+00 0. -1.
        -15    1    1    2    0    0 -0.18554208223E+02  0.10830901913E+01  0.12752184762E+01  0.18714049222E+02  0.17770000000E+01 0. -1.
         15    1    1    2    0    0  0.16640613365E+01 -0.60077239804E+01 -0.70663641593E+01  0.95892168078E+01  0.17770000000E+01 0.  1.
</event>
<event>
 6    1  0.3365733E-003  0.5001390E+03  0.7546771E-02  0.9399499E-01
        -11   -1    0    0    0    0  0.00000000000E+00  0.00000000000E+00  0.50000000000E+03  0.50000000000E+03  0.00000000000E+00 0.  1.
         11   -1    0    0    0    0 -0.00000000000E+00 -0.00000000000E+00 -0.50000000000E+03  0.50000000000E+03  0.00000000000E+00 0.  1.
        -11    1    1    2    0    0 -0.83270067005E-01 -0.63007173002E+00  0.40617332654E+02  0.40622304664E+02  0.00000000000E+00 0.  1.
         11    1    1    2    0    0 -0.73207441146E+00 -0.14614506756E+02 -0.49964677722E+03  0.49986100240E+03  0.00000000000E+00 0.  1.
        -15    1    1    2    0    0  0.42741630795E+00  0.16242499467E+01  0.10663812941E+02  0.10940544229E+02  0.17770000000E+01 0. -1.
         15    1    1    2    0    0  0.38792817051E+00  0.13620328540E+02  0.44836563162E+03  0.44857614870E+03  0.17770000000E+01 0.  1.
</event>
<event>
 6    1  0.3365733E-003  0.5182942E+03  0.7546771E-02  0.9359780E-01
        -11   -1    0    0    0    0  0.00000000000E+00  0.00000000000E+00  0.50000000000E+03  0.50000000000E+03  0.00000000000E+00 0. -1.
         11   -1    0    0    0    0 -0.00000000000E+00 -0.00000000000E+00 -0.50000000000E+03  0.50000000000E+03  0.00000000000E+00 0.  1.
        -11    1    1    2    0    0  0.68994744091E+01 -0.44446377366E+01  0.34246000427E+03  0.34255833383E+03  0.00000000000E+00 0. -1.
         11    1    1    2    0    0  0.10373314206E+02  0.28097471528E+02 -0.48077375205E+03  0.48170579632E+03  0.00000000000E+00 0.  1.
        -15    1    1    2    0    0 -0.12147726777E+02 -0.25398834456E+02 -0.79908872250E+01  0.29320301247E+02  0.17770000000E+01 0.  1.
         15    1    1    2    0    0 -0.51250618383E+01  0.17460006649E+01  0.14630463500E+03  0.14641556860E+03  0.17770000000E+01 0. -1.
</event>
<event>
 6    1  0.3365733E-003  0.4698360E+03  0.7546771E-02  0.9469954E-01
        -11   -1    0    0    0    0  0.00000000000E+00  0.00000000000E+00  0.50000000000E+03  0.50000000000E+03  0.00000000000E+00 0. -1.
         11   -1    0    0    0    0 -0.00000000000E+00 -0.00000000000E+00 -0.50000000000E+03  0.50000000000E+03  0.00000000000E+00 0.  1.
        -11    1    1    2    0    0  0.81817039676E+01 -0.48500824672E+01  0.47200223218E+03  0.47209805206E+03  0.00000000000E+00 0. -1.
         11    1    1    2    0    0  0.10196436202E+02 -0.42298950622E+01 -0.46767729458E+03  0.46780755786E+03  0.00000000000E+00 0.  1.
        -15    1    1    2    0    0 -0.23852824047E+02  0.65760287188E+01 -0.26941796255E+02  0.36622663518E+02  0.17770000000E+01 0.  1.
         15    1    1    2    0    0  0.54746838768E+01  0.25039488107E+01  0.22616858660E+02  0.23471726563E+02  0.17770000000E+01 0. -1.
</event>
<event>
 6    1  0.3365733E-003  0.5055311E+03  0.7546771E-02  0.9387518E-01
        -11   -1    0    0    0    0  0.00000000000E+00  0.00000000000E+00  0.50000000000E+03  0.50000000000E+03  0.00000000000E+00 0. -1.
         11   -1    0    0    0    0 -0.00000000000E+00 -0.00000000000E+00 -0.50000000000E+03  0.50000000000E+03  0.00000000000E+00 0. -1.
        -11    1    1    2    0    0 -0.74504269589E+01  0.15135472249E+02  0.49418107448E+03  0.49446893306E+03  0.00000000000E+00 0. -1.
         11    1    1    2    0    0 -0.36917525023E+01  0.11278426121E+02 -0.39866974202E+03  0.39884633022E+03  0.00000000000E+00 0. -1.
        -15    1    1    2    0    0  0.96323274689E+00 -0.24157298444E+02 -0.23034364201E+02  0.33440133800E+02  0.17770000000E+01 0. -1.
         15    1    1    2    0    0  0.10178946714E+02 -0.22565999265E+01 -0.72476968263E+02  0.73244602921E+02  0.17770000000E+01 0.  1.
</event>
<event>
 6    1  0.3365733E-003  0.5010350E+03  0.7546771E-02  0.9397497E-01
        -11   -1    0    0    0    0  0.00000000000E+00  0.00000000000E+00  0.50000000000E+03  0.50000000000E+03  0.00000000000E+00 0.  1.
         11   -1    0    0    0    0 -0.00000000000E+00 -0.00000000000E+00 -0.50000000000E+03  0.50000000000E+03  0.00000000000E+00 0. -1.
        -11    1    1    2    0    0  0.61633263317E+01 -0.91134681546E+00  0.43399544935E+03  0.43404016772E+03  0.00000000000E+00 0.  1.
         11    1    1    2    0    0 -0.78520600374E+01  0.37544283066E+01 -0.49888910469E+03  0.49896501817E+03  0.00000000000E+00 0. -1.
        -15    1    1    2    0    0  0.11372925499E+01 -0.83993999919E+01  0.21058333346E+02  0.22769595668E+02  0.17770000000E+01 0. -1.
         15    1    1    2    0    0  0.55144115576E+00  0.55563185007E+01  0.43835321995E+02  0.44225218440E+02  0.17770000000E+01 0.  1.
</event>
<event>
 6    1  0.3365733E-003  0.5036618E+03  0.7546771E-02  0.9391653E-01
        -11   -1    0    0    0    0  0.00000000000E+00  0.00000000000E+00  0.50000000000E+03  0.50000000000E+03  0.00000000000E+00 0. -1.
         11   -1    0    0    0    0 -0.00000000000E+00 -0.00000000000E+00 -0.50000000000E+03  0.50000000000E+03  0.00000000000E+00 0. -1.
        -11    1    1    2    0    0 -0.86126872289E+01 -0.15677891957E+02  0.49601574202E+03  0.49633818210E+03  0.00000000000E+00 0. -1.
         11    1    1    2    0    0 -0.89740527424E+00  0.14819403451E+02 -0.39362776451E+03  0.39390765040E+03  0.00000000000E+00 0. -1.
        -15    1    1    2    0    0  0.34029573913E+01 -0.15927326807E+01 -0.10283891315E+03  0.10292286773E+03  0.17770000000E+01 0. -1.
         15    1    1    2    0    0  0.61071351118E+01  0.24512211860E+01  0.45093563315E+00  0.68312997681E+01  0.17770000000E+01 0.  1.
</event>
<event>
 6    1  0.3429610E-003  0.5003311E+03  0.7546771E-02  0.9399069E-01
        -11   -1    0    0    0    0  0.00000000000E+00  0.00000000000E+00  0.50000000000E+03  0.50000000000E+03  0.00000000000E+00 0.  1.
         11   -1    0    0    0    0 -0.00000000000E+00 -0.00000000000E+00 -0.50000000000E+03  0.50000000000E+03  0.00000000000E+00 0.  1.
        -11    1    1    2    0    0 -0.10205776339E+02 -0.25772517145E+01  0.49955801549E+03  0.49966890131E+03  0.00000000000E+00 0.  1.
         11    1    1    2    0    0 -0.30723900630E+01 -0.26163960993E+01 -0.24286646647E+03  0.24289999104E+03  0.00000000000E+00 0.  1.
        -15    1    1    2    0    0  0.10822870016E+02  0.73728973266E+01 -0.12698174423E+03  0.12766759663E+03  0.17770000000E+01 0. -1.
         15    1    1    2    0    0  0.24552963861E+01 -0.21792495129E+01 -0.12970980478E+03  0.12976351103E+03  0.17770000000E+01 0.  1.
</event>
<event>
 6    1  0.3365733E-003  0.5010360E+03  0.7546771E-02  0.9397495E-01
        -11   -1    0    0    0    0  0.00000000000E+00  0.00000000000E+00  0.50000000000E+03  0.50000000000E+03  0.00000000000E+00 0.  1.
         11   -1    0    0    0    0 -0.00000000000E+00 -0.00000000000E+00 -0.50000000000E+03  0.50000000000E+03  0.00000000000E+00 0.  1.
        -11    1    1    2    0    0 -0.90441972215E+01  0.22286631193E+01  0.42561853437E+03  0.42572044964E+03  0.00000000000E+00 0.  1.
         11    1    1    2    0    0  0.10775366961E+02  0.37860663965E+01 -0.49883331505E+03  0.49896404584E+03  0.00000000000E+00 0.  1.
        -15    1    1    2    0    0 -0.74106185340E+01  0.14071278620E+01  0.25091622480E+02  0.26261083823E+02  0.17770000000E+01 0. -1.
         15    1    1    2    0    0  0.56794487948E+01 -0.74218573777E+01  0.48123158202E+02  0.49054420697E+02  0.17770000000E+01 0.  1.
</event>
<event>
 6    1  0.3365733E-003  0.5017674E+03  0.7546771E-02  0.9395864E-01
        -11   -1    0    0    0    0  0.00000000000E+00  0.00000000000E+00  0.50000000000E+03  0.50000000000E+03  0.00000000000E+00 0.  1.
         11   -1    0    0    0    0 -0.00000000000E+00 -0.00000000000E+00 -0.50000000000E+03  0.50000000000E+03  0.00000000000E+00 0. -1.
        -11    1    1    2    0    0  0.97680604374E+00  0.19992102385E+02  0.49783041292E+03  0.49823263476E+03  0.00000000000E+00 0.  1.
         11    1    1    2    0    0 -0.18606260515E+01 -0.87891456055E+01 -0.34652256229E+03  0.34663900125E+03  0.00000000000E+00 0. -1.
        -15    1    1    2    0    0 -0.51665509539E+01  0.57427207557E+01 -0.10671977606E+03  0.10701373940E+03  0.17770000000E+01 0. -1.
         15    1    1    2    0    0  0.60503709616E+01 -0.16945677535E+02 -0.44588074574E+02  0.48114624587E+02  0.17770000000E+01 0.  1.
</event>
<event>
 6    1  0.3365733E-003  0.5112320E+03  0.7546771E-02  0.9375022E-01
        -11   -1    0    0    0    0  0.00000000000E+00  0.00000000000E+00  0.50000000000E+03  0.50000000000E+03  0.00000000000E+00 0. -1.
         11   -1    0    0    0    0 -0.00000000000E+00 -0.00000000000E+00 -0.50000000000E+03  0.50000000000E+03  0.00000000000E+00 0.  1.
        -11    1    1    2    0    0  0.12329827012E+02  0.79882845465E-01  0.32370954007E+03  0.32394428124E+03  0.00000000000E+00 0. -1.
         11    1    1    2    0    0 -0.42147846373E+01  0.59536080277E+01 -0.48871355999E+03  0.48876799565E+03  0.00000000000E+00 0.  1.
        -15    1    1    2    0    0 -0.14497028571E+02 -0.22881460898E+02  0.67110120243E+01  0.27962841443E+02  0.17770000000E+01 0.  1.
         15    1    1    2    0    0  0.63819861959E+01  0.16847970025E+02  0.15829300789E+03  0.15932488166E+03  0.17770000000E+01 0. -1.
</event>
<event>
 6    1  0.3365733E-003  0.5176436E+03  0.7546771E-02  0.9361174E-01
        -11   -1    0    0    0    0  0.00000000000E+00  0.00000000000E+00  0.50000000000E+03  0.50000000000E+03  0.00000000000E+00 0.  1.
         11   -1    0    0    0    0 -0.00000000000E+00 -0.00000000000E+00 -0.50000000000E+03  0.50000000000E+03  0.00000000000E+00 0. -1.
        -11    1    1    2    0    0  0.60364043145E+01  0.55236389430E+01  0.48228699963E+03  0.48235640223E+03  0.00000000000E+00 0.  1.
         11    1    1    2    0    0  0.22907249575E+01  0.94120583453E+01 -0.45946135612E+03  0.45956345811E+03  0.00000000000E+00 0. -1.
        -15    1    1    2    0    0 -0.24167940004E+02 -0.22785850303E+02 -0.22772631971E+02  0.40311720305E+02  0.17770000000E+01 0. -1.
         15    1    1    2    0    0  0.15840810732E+02  0.78501530151E+01 -0.53011535123E-01  0.17768419351E+02  0.17770000000E+01 0.  1.
</event>
<event>
 6    1  0.3365733E-003  0.5112573E+03  0.7546771E-02  0.9374967E-01
        -11   -1    0    0    0    0  0.00000000000E+00  0.00000000000E+00  0.50000000000E+03  0.50000000000E+03  0.00000000000E+00 0. -1.
         11   -1    0    0    0    0 -0.00000000000E+00 -0.00000000000E+00 -0.50000000000E+03  0.50000000000E+03  0.00000000000E+00 0. -1.
        -11    1    1    2    0    0 -0.26065073045E+02  0.21733230759E+01  0.41896687643E+02  0.49390725865E+02  0.00000000000E+00 0. -1.
         11    1    1    2    0    0  0.78880486795E+01  0.77593484666E+01 -0.48861741290E+03  0.48874267768E+03  0.00000000000E+00 0. -1.
        -15    1    1    2    0    0  0.31508134161E+02  0.21852254802E+02  0.40877368671E+03  0.41057200128E+03  0.17770000000E+01 0. -1.
         15    1    1    2    0    0 -0.13331109796E+02 -0.31784926345E+02  0.37947038542E+02  0.51294595176E+02  0.17770000000E+01 0.  1.
</event>
<event>
 6    1  0.3365733E-003  0.5027903E+03  0.7546771E-02  0.9393588E-01
        -11   -1    0    0    0    0  0.00000000000E+00  0.00000000000E+00  0.50000000000E+03  0.50000000000E+03  0.00000000000E+00 0. -1.
         11   -1    0    0    0    0 -0.00000000000E+00 -0.00000000000E+00 -0.50000000000E+03  0.50000000000E+03  0.00000000000E+00 0.  1.
        -11    1    1    2    0    0  0.95559413048E+01  0.20889054698E+01  0.49711344024E+03  0.49720966604E+03  0.00000000000E+00 0. -1.
         11    1    1    2    0    0 -0.62236146473E+01 -0.11545032501E+01 -0.38772907521E+03  0.38778073962E+03  0.00000000000E+00 0.  1.
        -15    1    1    2    0    0 -0.15141662436E+02 -0.11806274622E+02 -0.63711585352E+02  0.66565620998E+02  0.17770000000E+01 0.  1.
         15    1    1    2    0    0  0.11809335778E+02  0.10871872402E+02 -0.45672779670E+02  0.48443973339E+02  0.17770000000E+01 0. -1.
</event>
<event>
 6    1  0.3365733E-003  0.4795598E+03  0.7546771E-02  0.9446745E-01
        -11   -1    0    0    0    0  0.00000000000E+00  0.00000000000E+00  0.50000000000E+03  0.50000000000E+03  0.00000000000E+00 0.  1.
         11   -1    0    0    0    0 -0.00000000000E+00 -0.00000000000E+00 -0.50000000000E+03  0.50000000000E+03  0.00000000000E+00 0.  1.
        -11    1    1    2    0    0 -0.30798093552E+01 -0.18836257396E+02  0.47754635529E+03  0.47792762137E+03  0.00000000000E+00 0.  1.
         11    1    1    2    0    0  0.33968462216E+01  0.75793711315E+01 -0.48119326860E+03  0.48126494488E+03  0.00000000000E+00 0.  1.
        -15    1    1    2    0    0 -0.68035595450E+01 -0.93466083365E+01 -0.98360176884E+01  0.15282423985E+02  0.17770000000E+01 0.  1.
         15    1    1    2    0    0  0.64865226786E+01  0.20603494601E+02  0.13482930997E+02  0.25525009764E+02  0.17770000000E+01 0. -1.
</event>
<event>
 6    1  0.3365733E-003  0.5278551E+03  0.7546771E-02  0.9339552E-01
        -11   -1    0    0    0    0  0.00000000000E+00  0.00000000000E+00  0.50000000000E+03  0.50000000000E+03  0.00000000000E+00 0.  1.
         11   -1    0    0    0    0 -0.00000000000E+00 -0.00000000000E+00 -0.50000000000E+03  0.50000000000E+03  0.00000000000E+00 0.  1.
        -11    1    1    2    0    0  0.23209259357E+02  0.21653345136E+02  0.42840378824E+03  0.42957809867E+03  0.00000000000E+00 0.  1.
         11    1    1    2    0    0 -0.36119153620E+01  0.54699375459E+01 -0.47209934979E+03  0.47214485300E+03  0.00000000000E+00 0.  1.
        -15    1    1    2    0    0 -0.73516972346E+01 -0.91540830515E+01 -0.24203165897E+02  0.26959147931E+02  0.17770000000E+01 0.  1.
         15    1    1    2    0    0 -0.12245646760E+02 -0.17969199631E+02  0.67898727442E+02  0.71317900398E+02  0.17770000000E+01 0. -1.
</event>
<event>
 6    1  0.3365733E-003  0.5006965E+03  0.7546771E-02  0.9398253E-01
        -11   -1    0    0    0    0  0.00000000000E+00  0.00000000000E+00  0.50000000000E+03  0.50000000000E+03  0.00000000000E+00 0.  1.
         11   -1    0    0    0    0 -0.00000000000E+00 -0.00000000000E+00 -0.50000000000E+03  0.50000000000E+03  0.00000000000E+00 0.  1.
        -11    1    1    2    0    0  0.84065978341E+01 -0.18367868927E+02  0.49889472256E+03  0.49930350859E+03  0.00000000000E+00 0.  1.
         11    1    1    2    0    0  0.15938105158E+01 -0.20016739564E+01 -0.11528415594E+03  0.11531254720E+03  0.00000000000E+00 0.  1.
        -15    1    1    2    0    0 -0.77162949846E+01  0.24312652353E+02 -0.19014059363E+03  0.19185215492E+03  0.17770000000E+01 0.  1.
         15    1    1    2    0    0 -0.22841133653E+01 -0.39431094700E+01 -0.19346997299E+03  0.19353178928E+03  0.17770000000E+01 0.  1.
</event>
<event>
 6    1  0.3365733E-003  0.5060915E+03  0.7546771E-02  0.9386282E-01
        -11   -1    0    0    0    0  0.00000000000E+00  0.00000000000E+00  0.50000000000E+03  0.50000000000E+03  0.00000000000E+00 0. -1.
         11   -1    0    0    0    0 -0.00000000000E+00 -0.00000000000E+00 -0.50000000000E+03  0.50000000000E+03  0.00000000000E+00 0. -1.
        -11    1    1    2    0    0  0.11298485969E+01  0.54793123609E+01  0.37984294003E+03  0.37988413827E+03  0.00000000000E+00 0. -1.
         11    1    1    2    0    0 -0.34112377761E+02 -0.82793941056E+01 -0.49265948034E+03  0.49390845938E+03  0.00000000000E+00 0. -1.
        -15    1    1    2    0    0  0.13965617445E+02  0.19725257375E+02  0.85312213526E+02  0.88687404713E+02  0.17770000000E+01 0.  1.
         15    1    1    2    0    0  0.19016911720E+02 -0.16925175630E+02  0.27504326784E+02  0.37519997632E+02  0.17770000000E+01 0. -1.
</event>
<event>
 6    1  0.3365733E-003  0.5027237E+03  0.7546771E-02  0.9393736E-01
        -11   -1    0    0    0    0  0.00000000000E+00  0.00000000000E+00  0.50000000000E+03  0.50000000000E+03  0.00000000000E+00 0.  1.
         11   -1    0    0    0    0 -0.00000000000E+00 -0.00000000000E+00 -0.50000000000E+03  0.50000000000E+03  0.00000000000E+00 0. -1.
        -11    1    1    2    0    0  0.47216657930E+01 -0.93351311564E+01  0.49716620058E+03  0.49727625099E+03  0.00000000000E+00 0.  1.
         11    1    1    2    0    0  0.77533393586E+01  0.10063747451E+02 -0.42193242100E+03  0.42212363257E+03  0.00000000000E+00 0. -1.
        -15    1    1    2    0    0 -0.12151616765E+02 -0.12191197538E+02 -0.44010266761E+02  0.47290045430E+02  0.17770000000E+01 0. -1.
         15    1    1    2    0    0 -0.32338838656E+00  0.11462581244E+02 -0.31223512820E+02  0.33310071010E+02  0.17770000000E+01 0.  1.
</event>
<event>
 6    1  0.3365733E-003  0.5063893E+03  0.7546771E-02  0.9385626E-01
        -11   -1    0    0    0    0  0.00000000000E+00  0.00000000000E+00  0.50000000000E+03  0.50000000000E+03  0.00000000000E+00 0.  1.
         11   -1    0    0    0    0 -0.00000000000E+00 -0.00000000000E+00 -0.50000000000E+03  0.50000000000E+03  0.00000000000E+00 0.  1.
        -11    1    1    2    0    0  0.19763774951E+02 -0.19985066624E+01  0.49321085751E+03  0.49361072800E+03  0.00000000000E+00 0.  1.
         11    1    1    2    0    0 -0.13548735776E+02  0.78229549335E+01 -0.42916964750E+03  0.42945471613E+03  0.00000000000E+00 0.  1.
        -15    1    1    2    0    0  0.84567154297E+01 -0.35754153609E+01 -0.60957501368E+02  0.61670692658E+02  0.17770000000E+01 0. -1.
         15    1    1    2    0    0 -0.14671754604E+02 -0.22490329102E+01 -0.30837086415E+01  0.15263863213E+02  0.17770000000E+01 0.  1.
</event>
<event>
 6    1  0.3365733E-003  0.5086641E+03  0.7546771E-02  0.9380629E-01
        -11   -1    0    0    0    0  0.00000000000E+00  0.00000000000E+00  0.50000000000E+03  0.50000000000E+03  0.00000000000E+00 0.  1.
         11   -1    0    0    0    0 -0.00000000000E+00 -0.00000000000E+00 -0.50000000000E+03  0.50000000000E+03  0.00000000000E+00 0. -1.
        -11    1    1    2    0    0  0.34612587014E+02  0.62908280404E+01  0.34440697643E+03  0.34619903395E+03  0.00000000000E+00 0.  1.
         11    1    1    2    0    0 -0.78353447491E+01  0.96660980406E+01 -0.49117827785E+03  0.49133585938E+03  0.00000000000E+00 0. -1.
        -15    1    1    2    0    0 -0.24231758570E+02 -0.87863526858E+01  0.15126210904E+03  0.15345279886E+03  0.17770000000E+01 0.  1.
         15    1    1    2    0    0 -0.25454836951E+01 -0.71705733952E+01 -0.44908076209E+01  0.90123078146E+01  0.17770000000E+01 0. -1.
</event>
<event>
 6    1  0.3365733E-003  0.5181744E+03  0.7546771E-02  0.9360037E-01
        -11   -1    0    0    0    0  0.00000000000E+00  0.00000000000E+00  0.50000000000E+03  0.50000000000E+03  0.00000000000E+00 0. -1.
         11   -1    0    0    0    0 -0.00000000000E+00 -0.00000000000E+00 -0.50000000000E+03  0.50000000000E+03  0.00000000000E+00 0. -1.
        -11    1    1    2    0    0 -0.15398450638E+02  0.10409649976E+02  0.48146700419E+03  0.48182564193E+03  0.00000000000E+00 0. -1.
         11    1    1    2    0    0  0.75692027363E+01  0.12623984066E+02 -0.44355925028E+03  0.44380340953E+03  0.00000000000E+00 0. -1.
        -15    1    1    2    0    0  0.16393925368E+02 -0.19406698340E+02  0.86228121423E+01  0.26886638832E+02  0.17770000000E+01 0.  1.
         15    1    1    2    0    0 -0.85646774666E+01 -0.36269357023E+01 -0.46530566051E+02  0.47484309711E+02  0.17770000000E+01 0. -1.
</event>
<event>
 6    1  0.3365733E-003  0.5039407E+03  0.7546771E-02  0.9391035E-01
        -11   -1    0    0    0    0  0.00000000000E+00  0.00000000000E+00  0.50000000000E+03  0.50000000000E+03  0.00000000000E+00 0. -1.
         11   -1    0    0    0    0 -0.00000000000E+00 -0.00000000000E+00 -0.50000000000E+03  0.50000000000E+03  0.00000000000E+00 0. -1.
        -11    1    1    2    0    0  0.15033151050E+02  0.32162407821E+02  0.33109863900E+03  0.33299658385E+03  0.00000000000E+00 0. -1.
         11    1    1    2    0    0 -0.35434761709E+01 -0.72342445886E+01 -0.49599385870E+03  0.49605926902E+03  0.00000000000E+00 0. -1.
        -15    1    1    2    0    0  0.10478647611E+02  0.13827850712E+01  0.36576240666E+02  0.38114213367E+02  0.17770000000E+01 0.  1.
         15    1    1    2    0    0 -0.21968322490E+02 -0.26310948303E+02  0.12831897903E+03  0.13282993376E+03  0.17770000000E+01 0. -1.
</event>
<event>
 6    1  0.3365733E-003  0.5065583E+03  0.7546771E-02  0.9385253E-01
        -11   -1    0    0    0    0  0.00000000000E+00  0.00000000000E+00  0.50000000000E+03  0.50000000000E+03  0.00000000000E+00 0. -1.
         11   -1    0    0    0    0 -0.00000000000E+00 -0.00000000000E+00 -0.50000000000E+03  0.50000000000E+03  0.00000000000E+00 0. -1.
        -11    1    1    2    0    0 -0.68116630027E+02 -0.10911863571E+02  0.48859572068E+03  0.49344171116E+03  0.00000000000E+00 0. -1.
         11    1    1    2    0    0 -0.64487407823E+01  0.43312118248E+01 -0.12990196977E+03  0.13013403630E+03  0.00000000000E+00 0. -1.
        -15    1    1    2    0    0  0.93573104794E+02  0.96413095550E+01 -0.31225251961E+03  0.32611911094E+03  0.17770000000E+01 0. -1.
         15    1    1    2    0    0 -0.19007733984E+02 -0.30606578090E+01 -0.46441231297E+02  0.50305141594E+02  0.17770000000E+01 0.  1.
</event>
<event>
 6    1  0.3365733E-003  0.5100218E+03  0.7546771E-02  0.9377660E-01
        -11   -1    0    0    0    0  0.00000000000E+00  0.00000000000E+00  0.50000000000E+03  0.50000000000E+03  0.00000000000E+00 0. -1.
         11   -1    0    0    0    0 -0.00000000000E+00 -0.00000000000E+00 -0.50000000000E+03  0.50000000000E+03  0.00000000000E+00 0.  1.
        -11    1    1    2    0    0  0.25580434193E+02 -0.20560554261E+02  0.45704768935E+03  0.45822449230E+03  0.00000000000E+00 0. -1.
         11    1    1    2    0    0 -0.87089317342E+00  0.66591268804E+01 -0.48993215087E+03  0.48997817797E+03  0.00000000000E+00 0.  1.
        -15    1    1    2    0    0 -0.85675168459E+01  0.11438635729E+02 -0.69257621364E+00  0.14418117875E+02  0.17770000000E+01 0.  1.
         15    1    1    2    0    0 -0.16142024174E+02  0.24627916511E+01  0.33577037736E+02  0.37379211860E+02  0.17770000000E+01 0. -1.
</event>
<event>
 6    1  0.3365733E-003  0.4747340E+03  0.7546771E-02  0.9458190E-01
        -11   -1    0    0    0    0  0.00000000000E+00  0.00000000000E+00  0.50000000000E+03  0.50000000000E+03  0.00000000000E+00 0. -1.
         11   -1    0    0    0    0 -0.00000000000E+00 -0.00000000000E+00 -0.50000000000E+03  0.50000000000E+03  0.00000000000E+00 0. -1.
        -11    1    1    2    0    0 -0.52089347013E+01 -0.43855649972E+01  0.47298829647E+03  0.47303730802E+03  0.00000000000E+00 0. -1.
         11    1    1    2    0    0 -0.64178669105E+01 -0.23021205552E+01 -0.47648309167E+03  0.47653187241E+03  0.00000000000E+00 0. -1.
        -15    1    1    2    0    0 -0.11877943043E+01  0.20109284148E+00  0.24680567677E+02  0.24773765227E+02  0.17770000000E+01 0. -1.
         15    1    1    2    0    0  0.12814595916E+02  0.64865927109E+01 -0.21185772471E+02  0.25657054345E+02  0.17770000000E+01 0.  1.
</event>
<event>
 6    1  0.3365733E-003  0.5020716E+03  0.7546771E-02  0.9395186E-01
        -11   -1    0    0    0    0  0.00000000000E+00  0.00000000000E+00  0.50000000000E+03  0.50000000000E+03  0.00000000000E+00 0.  1.
         11   -1    0    0    0    0 -0.00000000000E+00 -0.00000000000E+00 -0.50000000000E+03  0.50000000000E+03  0.00000000000E+00 0. -1.
        -11    1    1    2    0    0 -0.64484005449E+01 -0.21281844784E+02  0.49743157588E+03  0.49792837986E+03  0.00000000000E+00 0.  1.
         11    1    1    2    0    0  0.42583106660E+01  0.58748263100E+01 -0.40551605100E+03  0.40558095913E+03  0.00000000000E+00 0. -1.
        -15    1    1    2    0    0 -0.22850163644E+01 -0.68830396623E+00 -0.62840458103E+02  0.62910857296E+02  0.17770000000E+01 0. -1.
         15    1    1    2    0    0  0.44751062432E+01  0.16095322441E+02 -0.29075066776E+02  0.33579803713E+02  0.17770000000E+01 0.  1.
</event>
<event>
 6    1  0.3365733E-003  0.5010584E+03  0.7546771E-02  0.9397445E-01
        -11   -1    0    0    0    0  0.00000000000E+00  0.00000000000E+00  0.50000000000E+03  0.50000000000E+03  0.00000000000E+00 0. -1.
         11   -1    0    0    0    0 -0.00000000000E+00 -0.00000000000E+00 -0.50000000000E+03  0.50000000000E+03  0.00000000000E+00 0. -1.
        -11    1    1    2    0    0  0.10693209850E+02  0.36150923966E+00  0.49882690879E+03  0.49894164023E+03  0.00000000000E+00 0. -1.
         11    1    1    2    0    0 -0.85711120681E+01  0.67230939336E+01 -0.43369076306E+03  0.43382754859E+03  0.00000000000E+00 0. -1.
        -15    1    1    2    0    0 -0.26620709789E+01 -0.14471951060E+01 -0.24937408721E+01  0.43078379854E+01  0.17770000000E+01 0. -1.
         15    1    1    2    0    0  0.53997319653E+00 -0.56374080673E+01 -0.62642404852E+02  0.62922973193E+02  0.17770000000E+01 0.  1.
</event>
<event>
 6    1  0.3365733E-003  0.5100073E+03  0.7546771E-02  0.9377692E-01
        -11   -1    0    0    0    0  0.00000000000E+00  0.00000000000E+00  0.50000000000E+03  0.50000000000E+03  0.00000000000E+00 0. -1.
         11   -1    0    0    0    0 -0.00000000000E+00 -0.00000000000E+00 -0.50000000000E+03  0.50000000000E+03  0.00000000000E+00 0.  1.
        -11    1    1    2    0    0 -0.72070350234E+01 -0.23437317294E+02  0.46651699666E+03  0.46716095445E+03  0.00000000000E+00 0. -1.
         11    1    1    2    0    0 -0.12943761905E+02  0.13419878119E+02 -0.48963783890E+03  0.48999270136E+03  0.00000000000E+00 0.  1.
        -15    1    1    2    0    0  0.17662352643E+02  0.11933470007E+02  0.20714422970E+01  0.21489881561E+02  0.17770000000E+01 0. -1.
         15    1    1    2    0    0  0.24884442855E+01 -0.19160308319E+01  0.21049399944E+02  0.21356462631E+02  0.17770000000E+01 0.  1.
</event>
<event>
 6    1  0.3365733E-003  0.5012459E+03  0.7546771E-02  0.9397026E-01
        -11   -1    0    0    0    0  0.00000000000E+00  0.00000000000E+00  0.50000000000E+03  0.50000000000E+03  0.00000000000E+00 0. -1.
         11   -1    0    0    0    0 -0.00000000000E+00 -0.00000000000E+00 -0.50000000000E+03  0.50000000000E+03  0.00000000000E+00 0. -1.
        -11    1    1    2    0    0 -0.59400293371E+01 -0.36073158664E+01  0.49870572659E+03  0.49875414626E+03  0.00000000000E+00 0. -1.
         11    1    1    2    0    0 -0.16507981253E+01 -0.62563886064E+01 -0.43373231666E+03  0.43378057823E+03  0.00000000000E+00 0. -1.
        -15    1    1    2    0    0  0.10416397112E+02  0.59168366276E+01 -0.34674165975E+02  0.36728269760E+02  0.17770000000E+01 0.  1.
         15    1    1    2    0    0 -0.28255696500E+01  0.39468678451E+01 -0.30299243954E+02  0.30737005756E+02  0.17770000000E+01 0. -1.
</event>
<event>
 6    1  0.3365733E-003  0.5017790E+03  0.7546771E-02  0.9395838E-01
        -11   -1    0    0    0    0  0.00000000000E+00  0.00000000000E+00  0.50000000000E+03  0.50000000000E+03  0.00000000000E+00 0.  1.
         11   -1    0    0    0    0 -0.00000000000E+00 -0.00000000000E+00 -0.50000000000E+03  0.50000000000E+03  0.00000000000E+00 0.  1.
        -11    1    1    2    0    0 -0.54199616410E+01  0.33857050701E+01  0.43089979037E+03  0.43094717579E+03  0.00000000000E+00 0.  1.
         11    1    1    2    0    0  0.41863027178E+01 -0.58931530126E+01 -0.49816857041E+03  0.49822101413E+03  0.00000000000E+00 0.  1.
        -15    1    1    2    0    0 -0.14767597809E+01  0.10338579319E+02  0.18384442894E+02  0.21218211784E+02  0.17770000000E+01 0. -1.
         15    1    1    2    0    0  0.27104187041E+01 -0.78311313760E+01  0.48884337149E+02  0.49613598294E+02  0.17770000000E+01 0.  1.
</event>
<event>
 6    1  0.3365733E-003  0.5004177E+03  0.7546771E-02  0.9398876E-01
        -11   -1    0    0    0    0  0.00000000000E+00  0.00000000000E+00  0.50000000000E+03  0.50000000000E+03  0.00000000000E+00 0.  1.
         11   -1    0    0    0    0 -0.00000000000E+00 -0.00000000000E+00 -0.50000000000E+03  0.50000000000E+03  0.00000000000E+00 0.  1.
        -11    1    1    2    0    0  0.17281904018E+02  0.28683011271E+01  0.49927507211E+03  0.49958231453E+03  0.00000000000E+00 0.  1.
         11    1    1    2    0    0 -0.53363851125E+01  0.93967413793E+01 -0.15713186041E+03  0.15750300731E+03  0.00000000000E+00 0.  1.
        -15    1    1    2    0    0 -0.83081497465E+01  0.13982490018E+01 -0.11179548167E+03  0.11212657091E+03  0.17770000000E+01 0.  1.
         15    1    1    2    0    0 -0.36373691588E+01 -0.13663291508E+02 -0.23034773003E+03  0.23078810725E+03  0.17770000000E+01 0. -1.
</event>
<event>
 6    1  0.3365733E-003  0.5015510E+03  0.7546771E-02  0.9396346E-01
        -11   -1    0    0    0    0  0.00000000000E+00  0.00000000000E+00  0.50000000000E+03  0.50000000000E+03  0.00000000000E+00 0. -1.
         11   -1    0    0    0    0 -0.00000000000E+00 -0.00000000000E+00 -0.50000000000E+03  0.50000000000E+03  0.00000000000E+00 0. -1.
        -11    1    1    2    0    0 -0.41413137083E+01  0.65845650114E+01  0.40236028199E+03  0.40243546501E+03  0.00000000000E+00 0. -1.
         11    1    1    2    0    0  0.12509110290E+02 -0.72326863713E-01 -0.49829204887E+03  0.49844904357E+03  0.00000000000E+00 0. -1.
        -15    1    1    2    0    0  0.68838964580E+01  0.19330325055E+01  0.26307256363E+02  0.27319482269E+02  0.17770000000E+01 0. -1.
         15    1    1    2    0    0 -0.15251693040E+02 -0.84452706532E+01  0.69624510516E+02  0.71796009155E+02  0.17770000000E+01 0.  1.
</event>
<event>
 6    1  0.3365733E-003  0.5009915E+03  0.7546771E-02  0.9397594E-01
        -11   -1    0    0    0    0  0.00000000000E+00  0.00000000000E+00  0.50000000000E+03  0.50000000000E+03  0.00000000000E+00 0. -1.
         11   -1    0    0    0    0 -0.00000000000E+00 -0.00000000000E+00 -0.50000000000E+03  0.50000000000E+03  0.00000000000E+00 0. -1.
        -11    1    1    2    0    0  0.22322909760E+01  0.55116678001E+01  0.40500561789E+03  0.40504927123E+03  0.00000000000E+00 0. -1.
         11    1    1    2    0    0 -0.70316453539E+01 -0.55281439378E+01 -0.49892834202E+03  0.49900851183E+03  0.00000000000E+00 0. -1.
        -15    1    1    2    0    0  0.35508690031E+01  0.49249722829E+01  0.99029915538E+01  0.11751212422E+02  0.17770000000E+01 0.  1.
         15    1    1    2    0    0  0.12484853747E+01 -0.49084961451E+01  0.84019732573E+02  0.84191004512E+02  0.17770000000E+01 0. -1.
</event>
<event>
 6    1  0.3365733E-003  0.5031672E+03  0.7546771E-02  0.9392751E-01
        -11   -1    0    0    0    0  0.00000000000E+00  0.00000000000E+00  0.50000000000E+03  0.50000000000E+03  0.00000000000E+00 0. -1.
         11   -1    0    0    0    0 -0.00000000000E+00 -0.00000000000E+00 -0.50000000000E+03  0.50000000000E+03  0.00000000000E+00 0. -1.
        -11    1    1    2    0    0  0.32550348966E+01  0.16229421776E+02  0.40452392601E+03  0.40486244096E+03  0.00000000000E+00 0. -1.
         11    1    1    2    0    0  0.89844642047E+01 -0.24557279639E+01 -0.49674550516E+03  0.49683281704E+03  0.00000000000E+00 0. -1.
        -15    1    1    2    0    0  0.90401838108E+01 -0.47315534015E+01  0.21228133339E+02  0.23619989310E+02  0.17770000000E+01 0.  1.
         15    1    1    2    0    0 -0.21279682912E+02 -0.90421404108E+01  0.70993445803E+02  0.74684752688E+02  0.17770000000E+01 0. -1.
</event>
<event>
 6    1  0.3365733E-003  0.5076120E+03  0.7546771E-02  0.9382936E-01
        -11   -1    0    0    0    0  0.00000000000E+00  0.00000000000E+00  0.50000000000E+03  0.50000000000E+03  0.00000000000E+00 0. -1.
         11   -1    0    0    0    0 -0.00000000000E+00 -0.00000000000E+00 -0.50000000000E+03  0.50000000000E+03  0.00000000000E+00 0. -1.
        -11    1    1    2    0    0  0.55640678506E+01 -0.82423242041E+01  0.49228753135E+03  0.49238796521E+03  0.00000000000E+00 0. -1.
         11    1    1    2    0    0 -0.87023889401E+01  0.11122350427E+02 -0.45496123911E+03  0.45518036792E+03  0.00000000000E+00 0. -1.
        -15    1    1    2    0    0  0.11799204809E+01  0.22543202962E+01  0.70385956695E+01  0.76924463169E+01  0.17770000000E+01 0. -1.
         15    1    1    2    0    0  0.19584006086E+01 -0.51343465190E+01 -0.44364887914E+02  0.44739220553E+02  0.17770000000E+01 0.  1.
</event>
<event>
 6    1  0.3365733E-003  0.5046771E+03  0.7546771E-02  0.9389405E-01
        -11   -1    0    0    0    0  0.00000000000E+00  0.00000000000E+00  0.50000000000E+03  0.50000000000E+03  0.00000000000E+00 0.  1.
         11   -1    0    0    0    0 -0.00000000000E+00 -0.00000000000E+00 -0.50000000000E+03  0.50000000000E+03  0.00000000000E+00 0.  1.
        -11    1    1    2    0    0 -0.34697280669E+01 -0.13010483096E+02  0.49513983084E+03  0.49532288839E+03  0.00000000000E+00 0.  1.
         11    1    1    2    0    0 -0.39314154540E+01  0.27294579766E+01 -0.11592343375E+03  0.11602218952E+03  0.00000000000E+00 0.  1.
        -15    1    1    2    0    0 -0.30944401531E+00  0.81030864625E+01  0.98974996538E+00  0.83602093162E+01  0.17770000000E+01 0. -1.
         15    1    1    2    0    0  0.77105875362E+01  0.21779386564E+01 -0.38020614705E+03  0.38029471277E+03  0.17770000000E+01 0.  1.
</event>
<event>
 6    1  0.3365733E-003  0.5068826E+03  0.7546771E-02  0.9384540E-01
        -11   -1    0    0    0    0  0.00000000000E+00  0.00000000000E+00  0.50000000000E+03  0.50000000000E+03  0.00000000000E+00 0.  1.
         11   -1    0    0    0    0 -0.00000000000E+00 -0.00000000000E+00 -0.50000000000E+03  0.50000000000E+03  0.00000000000E+00 0. -1.
        -11    1    1    2    0    0 -0.22687232282E+01 -0.78774096620E+01  0.46397611142E+03  0.46404852403E+03  0.00000000000E+00 0.  1.
         11    1    1    2    0    0 -0.25775140109E+01 -0.10763281005E+02 -0.49299314269E+03  0.49311735980E+03  0.00000000000E+00 0. -1.
        -15    1    1    2    0    0  0.12161357696E+02  0.18961104260E+02  0.15638843357E+02  0.27480051789E+02  0.17770000000E+01 0. -1.
         15    1    1    2    0    0 -0.73151204571E+01 -0.32041359233E+00  0.13378187909E+02  0.15354064377E+02  0.17770000000E+01 0. -1.
</event>
<event>
 6    1  0.3365733E-003  0.5058274E+03  0.7546771E-02  0.9386864E-01
        -11   -1    0    0    0    0  0.00000000000E+00  0.00000000000E+00  0.50000000000E+03  0.50000000000E+03  0.00000000000E+00 0.  1.
         11   -1    0    0    0    0 -0.00000000000E+00 -0.00000000000E+00 -0.50000000000E+03  0.50000000000E+03  0.00000000000E+00 0.  1.
        -11    1    1    2    0    0 -0.54336198367E+01 -0.38849425253E+01  0.49412742542E+03  0.49417257062E+03  0.00000000000E+00 0.  1.
         11    1    1    2    0    0 -0.80246738688E+01 -0.83596793740E+01 -0.47531122285E+03  0.47545245629E+03  0.00000000000E+00 0.  1.
        -15    1    1    2    0    0  0.12747969074E+02  0.63041162071E+01 -0.19385122354E+02  0.24107950853E+02  0.17770000000E+01 0.  1.
         15    1    1    2    0    0  0.71032463182E+00  0.59405056922E+01  0.56891978349E+00  0.62670222340E+01  0.17770000000E+01 0. -1.
</event>
<event>
 6    1  0.3365733E-003  0.5062744E+03  0.7546771E-02  0.9385879E-01
        -11   -1    0    0    0    0  0.00000000000E+00  0.00000000000E+00  0.50000000000E+03  0.50000000000E+03  0.00000000000E+00 0. -1.
         11   -1    0    0    0    0 -0.00000000000E+00 -0.00000000000E+00 -0.50000000000E+03  0.50000000000E+03  0.00000000000E+00 0.  1.
        -11    1    1    2    0    0  0.12929451294E+02 -0.86153674536E+00  0.49355549043E+03  0.49372556657E+03  0.00000000000E+00 0. -1.
         11    1    1    2    0    0  0.59132141089E+01 -0.16994598395E+02 -0.38119789443E+03  0.38162234892E+03  0.00000000000E+00 0.  1.
        -15    1    1    2    0    0 -0.59134202881E+01  0.10167878094E+02 -0.64081315539E+00  0.11913129519E+02  0.17770000000E+01 0. -1.
         15    1    1    2    0    0 -0.12929245115E+02  0.76882570461E+01 -0.11171678284E+03  0.11273895499E+03  0.17770000000E+01 0.  1.
</event>
<event>
 6    1  0.3365733E-003  0.5007905E+03  0.7546771E-02  0.9398043E-01
        -11   -1    0    0    0    0  0.00000000000E+00  0.00000000000E+00  0.50000000000E+03  0.50000000000E+03  0.00000000000E+00 0. -1.
         11   -1    0    0    0    0 -0.00000000000E+00 -0.00000000000E+00 -0.50000000000E+03  0.50000000000E+03  0.00000000000E+00 0.  1.
        -11    1    1    2    0    0 -0.54175832586E+01 -0.47107147564E+01  0.49915789514E+03  0.49920952046E+03  0.00000000000E+00 0. -1.
         11    1    1    2    0    0 -0.45817933487E+01  0.57729063928E+01 -0.34495432960E+03  0.34503305463E+03  0.00000000000E+00 0.  1.
        -15    1    1    2    0    0  0.16490540963E+01 -0.26420168775E+00 -0.16078080839E+01  0.29209515195E+01  0.17770000000E+01 0. -1.
         15    1    1    2    0    0  0.83503225110E+01 -0.79798994858E+00 -0.15259575746E+03  0.15283647339E+03  0.17770000000E+01 0.  1.
</event>
<event>
 6    1  0.6560655E-003  0.5001962E+03  0.7546771E-02  0.9399371E-01
        -11   -1    0    0    0    0  0.00000000000E+00  0.00000000000E+00  0.50000000000E+03  0.50000000000E+03  0.00000000000E+00 0. -1.
         11   -1    0    0    0    0 -0.00000000000E+00 -0.00000000000E+00 -0.50000000000E+03  0.50000000000E+03  0.00000000000E+00 0.  1.
        -11    1    1    2    0    0 -0.28742537408E+01 -0.69098423727E+01  0.49974776292E+03  0.49980379531E+03  0.00000000000E+00 0. -1.
         11    1    1    2    0    0  0.37915934166E+00  0.52011788879E+00 -0.21683917252E+02  0.21693467952E+02  0.00000000000E+00 0.  1.
        -15    1    1    2    0    0 -0.38341679653E+01  0.62842185003E+01 -0.41992871045E+03  0.41999699027E+03  0.17770000000E+01 0.  1.
         15    1    1    2    0    0  0.63292623645E+01  0.10550598360E+00 -0.58135135226E+02  0.58505746473E+02  0.17770000000E+01 0. -1.
</event>
<event>
 6    1  0.3365733E-003  0.6406852E+03  0.7546771E-02  0.9130517E-01
        -11   -1    0    0    0    0  0.00000000000E+00  0.00000000000E+00  0.50000000000E+03  0.50000000000E+03  0.00000000000E+00 0. -1.
         11   -1    0    0    0    0 -0.00000000000E+00 -0.00000000000E+00 -0.50000000000E+03  0.50000000000E+03  0.00000000000E+00 0.  1.
        -11    1    1    2    0    0  0.13418338756E+02 -0.13312584683E+02  0.35881728598E+03  0.35931479436E+03  0.00000000000E+00 0. -1.
         11    1    1    2    0    0  0.85414834738E+01 -0.13013901491E+02 -0.31169142343E+03  0.31207989684E+03  0.00000000000E+00 0.  1.
        -15    1    1    2    0    0 -0.33846184219E+01  0.15343129923E+02  0.13966823897E+03  0.14056045669E+03  0.17770000000E+01 0. -1.
         15    1    1    2    0    0 -0.18575203808E+02  0.10983356251E+02 -0.18679410152E+03  0.18804485211E+03  0.17770000000E+01 0.  1.
</event>
<event>
 6    1  0.3365733E-003  0.5041887E+03  0.7546771E-02  0.9390486E-01
        -11   -1    0    0    0    0  0.00000000000E+00  0.00000000000E+00  0.50000000000E+03  0.50000000000E+03  0.00000000000E+00 0.  1.
         11   -1    0    0    0    0 -0.00000000000E+00 -0.00000000000E+00 -0.50000000000E+03  0.50000000000E+03  0.00000000000E+00 0. -1.
        -11    1    1    2    0    0  0.21374592200E+01 -0.73675705301E+01  0.49575194357E+03  0.49581129413E+03  0.00000000000E+00 0.  1.
         11    1    1    2    0    0 -0.27435833183E+01  0.44289070576E+01 -0.36315544959E+03  0.36319281798E+03  0.00000000000E+00 0. -1.
        -15    1    1    2    0    0  0.87806725924E+00 -0.76763342722E+01 -0.12957015686E+03  0.12981248163E+03  0.17770000000E+01 0.  1.
         15    1    1    2    0    0 -0.27194316091E+00  0.10614997745E+02 -0.30263371253E+01  0.11183406261E+02  0.17770000000E+01 0.  1.
</event>
<event>
 6    1  0.3365733E-003  0.5022990E+03  0.7546771E-02  0.9394680E-01
        -11   -1    0    0    0    0  0.00000000000E+00  0.00000000000E+00  0.50000000000E+03  0.50000000000E+03  0.00000000000E+00 0. -1.
         11   -1    0    0    0    0 -0.00000000000E+00 -0.00000000000E+00 -0.50000000000E+03  0.50000000000E+03  0.00000000000E+00 0. -1.
        -11    1    1    2    0    0  0.10341670385E+02 -0.12969998206E+02  0.49742449897E+03  0.49770101785E+03  0.00000000000E+00 0. -1.
         11    1    1    2    0    0 -0.34549770084E+01 -0.16432223152E+01 -0.27023243762E+03  0.27025951859E+03  0.00000000000E+00 0. -1.
        -15    1    1    2    0    0 -0.13069794647E+01  0.73183520760E+01 -0.22026958502E+03  0.22040216488E+03  0.17770000000E+01 0. -1.
         15    1    1    2    0    0 -0.55797139114E+01  0.72948684448E+01 -0.69224763264E+01  0.11637298675E+02  0.17770000000E+01 0.  1.
</event>
<event>
 6    1  0.3365733E-003  0.5111270E+03  0.7546771E-02  0.9375251E-01
        -11   -1    0    0    0    0  0.00000000000E+00  0.00000000000E+00  0.50000000000E+03  0.50000000000E+03  0.00000000000E+00 0.  1.
         11   -1    0    0    0    0 -0.00000000000E+00 -0.00000000000E+00 -0.50000000000E+03  0.50000000000E+03  0.00000000000E+00 0. -1.
        -11    1    1    2    0    0 -0.11492967903E+02  0.29904818456E+02  0.43924550585E+03  0.44041230783E+03  0.00000000000E+00 0.  1.
         11    1    1    2    0    0  0.26964593780E+01 -0.87188057057E+01 -0.48878777431E+03  0.48887296590E+03  0.00000000000E+00 0. -1.
        -15    1    1    2    0    0  0.16927686991E+02 -0.25098415343E+02  0.52857298469E+02  0.60938729639E+02  0.17770000000E+01 0. -1.
         15    1    1    2    0    0 -0.81311784652E+01  0.39124025927E+01 -0.33150300070E+01  0.97759966360E+01  0.17770000000E+01 0.  1.
</event>
<event>
 6    1  0.3365733E-003  0.5011022E+03  0.7546771E-02  0.9397347E-01
        -11   -1    0    0    0    0  0.00000000000E+00  0.00000000000E+00  0.50000000000E+03  0.50000000000E+03  0.00000000000E+00 0. -1.
         11   -1    0    0    0    0 -0.00000000000E+00 -0.00000000000E+00 -0.50000000000E+03  0.50000000000E+03  0.00000000000E+00 0. -1.
        -11    1    1    2    0    0  0.48121361858E+01  0.51122168172E+01  0.49884840969E+03  0.49889781245E+03  0.00000000000E+00 0. -1.
         11    1    1    2    0    0  0.38950750083E+01 -0.51755210775E+01 -0.40904279610E+03  0.40909408046E+03  0.00000000000E+00 0. -1.
        -15    1    1    2    0    0 -0.79923744296E+01 -0.48235695134E+00 -0.14367318038E+02  0.16543526645E+02  0.17770000000E+01 0.  1.
         15    1    1    2    0    0 -0.71483676441E+00  0.54566121161E+00 -0.75438295550E+02  0.75464580448E+02  0.17770000000E+01 0. -1.
</event>
<event>
 6    1  0.3365733E-003  0.5026312E+03  0.7546771E-02  0.9393941E-01
        -11   -1    0    0    0    0  0.00000000000E+00  0.00000000000E+00  0.50000000000E+03  0.50000000000E+03  0.00000000000E+00 0. -1.
         11   -1    0    0    0    0 -0.00000000000E+00 -0.00000000000E+00 -0.50000000000E+03  0.50000000000E+03  0.00000000000E+00 0. -1.
        -11    1    1    2    0    0  0.64050061708E+01 -0.11739610315E-02  0.27497150521E+03  0.27504609211E+03  0.00000000000E+00 0. -1.
         11    1    1    2    0    0 -0.37367157295E+00 -0.26926334465E+02 -0.49663929011E+03  0.49736882854E+03  0.00000000000E+00 0. -1.
        -15    1    1    2    0    0 -0.24302310989E+01 -0.20633817506E+01  0.15168257858E+03  0.15172648398E+03  0.17770000000E+01 0. -1.
         15    1    1    2    0    0 -0.36011034990E+01  0.28990890176E+02  0.69985206325E+02  0.75858595380E+02  0.17770000000E+01 0.  1.
</event>
<event>
 6    1  0.3365733E-003  0.5005720E+03  0.7546771E-02  0.9398531E-01
        -11   -1    0    0    0    0  0.00000000000E+00  0.00000000000E+00  0.50000000000E+03  0.50000000000E+03  0.00000000000E+00 0.  1.
         11   -1    0    0    0    0 -0.00000000000E+00 -0.00000000000E+00 -0.50000000000E+03  0.50000000000E+03  0.00000000000E+00 0.  1.
        -11    1    1    2    0    0 -0.36198661093E+01  0.24549489207E+00  0.22036675049E+03  0.22039661617E+03  0.00000000000E+00 0.  1.
         11    1    1    2    0    0  0.83377963710E+00 -0.10343507050E+02 -0.49932016000E+03  0.49942797830E+03  0.00000000000E+00 0.  1.
        -15    1    1    2    0    0  0.41170355678E+01 -0.42975781767E+01  0.23495686652E+02  0.24302760754E+02  0.17770000000E+01 0. -1.
         15    1    1    2    0    0 -0.13309490956E+01  0.14395590335E+02  0.25545772286E+03  0.25587264478E+03  0.17770000000E+01 0.  1.
</event>
<event>
 6    1  0.3365733E-003  0.5103532E+03  0.7546771E-02  0.9376937E-01
        -11   -1    0    0    0    0  0.00000000000E+00  0.00000000000E+00  0.50000000000E+03  0.50000000000E+03  0.00000000000E+00 0.  1.
         11   -1    0    0    0    0 -0.00000000000E+00 -0.00000000000E+00 -0.50000000000E+03  0.50000000000E+03  0.00000000000E+00 0. -1.
        -11    1    1    2    0    0  0.47063134608E+01 -0.99162625552E+01  0.48952370940E+03  0.48964675401E+03  0.00000000000E+00 0.  1.
         11    1    1    2    0    0  0.10092573901E+02 -0.35898459805E+01 -0.98985203910E+02  0.99563133916E+02  0.00000000000E+00 0. -1.
        -15    1    1    2    0    0 -0.20515331111E+02  0.27245415057E+02 -0.19258268593E+02  0.39207525941E+02  0.17770000000E+01 0.  1.
         15    1    1    2    0    0  0.57164437493E+01 -0.13739306521E+02 -0.37128023690E+03  0.37158258613E+03  0.17770000000E+01 0. -1.
</event>
<event>
 6    1  0.3365733E-003  0.5123798E+03  0.7546771E-02  0.9372527E-01
        -11   -1    0    0    0    0  0.00000000000E+00  0.00000000000E+00  0.50000000000E+03  0.50000000000E+03  0.00000000000E+00 0.  1.
         11   -1    0    0    0    0 -0.00000000000E+00 -0.00000000000E+00 -0.50000000000E+03  0.50000000000E+03  0.00000000000E+00 0. -1.
        -11    1    1    2    0    0  0.30438777918E+01  0.13929060676E+02  0.43389421813E+03  0.43412841010E+03  0.00000000000E+00 0.  1.
         11    1    1    2    0    0 -0.83171026521E+01 -0.80968521816E+01 -0.48748203665E+03  0.48762021007E+03  0.00000000000E+00 0. -1.
        -15    1    1    2    0    0  0.60729017406E+01 -0.11408254607E+01 -0.11387782257E+02  0.13077497162E+02  0.17770000000E+01 0. -1.
         15    1    1    2    0    0 -0.79967688034E+00 -0.46913830332E+01  0.64975600774E+02  0.65173882674E+02  0.17770000000E+01 0.  1.
</event>
<event>
 6    1  0.3365733E-003  0.5514115E+03  0.7546771E-02  0.9291594E-01
        -11   -1    0    0    0    0  0.00000000000E+00  0.00000000000E+00  0.50000000000E+03  0.50000000000E+03  0.00000000000E+00 0. -1.
         11   -1    0    0    0    0 -0.00000000000E+00 -0.00000000000E+00 -0.50000000000E+03  0.50000000000E+03  0.00000000000E+00 0.  1.
        -11    1    1    2    0    0 -0.75276757148E+00  0.24147267586E+02  0.41625855911E+03  0.41695904501E+03  0.00000000000E+00 0. -1.
         11    1    1    2    0    0 -0.37326328585E+01  0.56040641093E+01 -0.44853799162E+03  0.44858852862E+03  0.00000000000E+00 0.  1.
        -15    1    1    2    0    0 -0.87695027907E+01 -0.59517093812E+02  0.64760994051E+02  0.88410026097E+02  0.17770000000E+01 0.  1.
         15    1    1    2    0    0  0.13254903221E+02  0.29765762117E+02 -0.32481561537E+02  0.46042400271E+02  0.17770000000E+01 0. -1.
</event>
<event>
 6    1  0.3365733E-003  0.5042219E+03  0.7546771E-02  0.9390412E-01
        -11   -1    0    0    0    0  0.00000000000E+00  0.00000000000E+00  0.50000000000E+03  0.50000000000E+03  0.00000000000E+00 0.  1.
         11   -1    0    0    0    0 -0.00000000000E+00 -0.00000000000E+00 -0.50000000000E+03  0.50000000000E+03  0.00000000000E+00 0. -1.
        -11    1    1    2    0    0 -0.16243226826E+01 -0.11100498024E+02  0.34594252155E+03  0.34612438183E+03  0.00000000000E+00 0.  1.
         11    1    1    2    0    0 -0.23565587546E+02 -0.31816194774E+00 -0.49521759597E+03  0.49577808090E+03  0.00000000000E+00 0. -1.
        -15    1    1    2    0    0  0.18921554780E+02  0.13485409734E+02  0.14945405113E+03  0.15125988443E+03  0.17770000000E+01 0.  1.
         15    1    1    2    0    0  0.62683554480E+01 -0.20667497619E+01 -0.17897671596E+00  0.68376528331E+01  0.17770000000E+01 0. -1.
</event>
<event>
 6    1  0.3365733E-003  0.5022232E+03  0.7546771E-02  0.9394849E-01
        -11   -1    0    0    0    0  0.00000000000E+00  0.00000000000E+00  0.50000000000E+03  0.50000000000E+03  0.00000000000E+00 0. -1.
         11   -1    0    0    0    0 -0.00000000000E+00 -0.00000000000E+00 -0.50000000000E+03  0.50000000000E+03  0.00000000000E+00 0.  1.
        -11    1    1    2    0    0 -0.21317892865E+02 -0.15131529272E+01  0.49731780864E+03  0.49777680237E+03  0.00000000000E+00 0. -1.
         11    1    1    2    0    0 -0.21812478500E+01  0.10099438881E+01 -0.11829968177E+03  0.11832409955E+03  0.00000000000E+00 0.  1.
        -15    1    1    2    0    0 -0.57508289134E+01  0.68005626875E+01 -0.28656334473E+03  0.28670721644E+03  0.17770000000E+01 0.  1.
         15    1    1    2    0    0  0.29249969628E+02 -0.62973536484E+01 -0.92454782148E+02  0.97191881642E+02  0.17770000000E+01 0. -1.
</event>
<event>
 6    1  0.3365733E-003  0.5016128E+03  0.7546771E-02  0.9396208E-01
        -11   -1    0    0    0    0  0.00000000000E+00  0.00000000000E+00  0.50000000000E+03  0.50000000000E+03  0.00000000000E+00 0.  1.
         11   -1    0    0    0    0 -0.00000000000E+00 -0.00000000000E+00 -0.50000000000E+03  0.50000000000E+03  0.00000000000E+00 0. -1.
        -11    1    1    2    0    0 -0.84010091692E+01 -0.80168303554E+01  0.49825189869E+03  0.49838719995E+03  0.00000000000E+00 0.  1.
         11    1    1    2    0    0 -0.21022189267E+01 -0.16424005281E+02 -0.11343133247E+03  0.11463347879E+03  0.00000000000E+00 0. -1.
        -15    1    1    2    0    0  0.91856655625E+00  0.70940218225E+01 -0.15930535545E+02  0.17553022586E+02  0.17770000000E+01 0.  1.
         15    1    1    2    0    0  0.95846615396E+01  0.17346813814E+02 -0.36889003068E+03  0.36942629867E+03  0.17770000000E+01 0. -1.
</event>
<event>
 6    1  0.3365733E-003  0.5005289E+03  0.7546771E-02  0.9398627E-01
        -11   -1    0    0    0    0  0.00000000000E+00  0.00000000000E+00  0.50000000000E+03  0.50000000000E+03  0.00000000000E+00 0. -1.
         11   -1    0    0    0    0 -0.00000000000E+00 -0.00000000000E+00 -0.50000000000E+03  0.50000000000E+03  0.00000000000E+00 0.  1.
        -11    1    1    2    0    0 -0.26023483739E+01  0.15744289511E+01  0.13384931048E+03  0.13388386370E+03  0.00000000000E+00 0. -1.
         11    1    1    2    0    0 -0.53048826094E+01 -0.59785342254E+01 -0.49940714770E+03  0.49947110410E+03  0.00000000000E+00 0.  1.
        -15    1    1    2    0    0 -0.43601535739E+01 -0.27691280337E+00  0.28230685753E+03  0.28234625401E+03  0.17770000000E+01 0. -1.
         15    1    1    2    0    0  0.12267384557E+02  0.46810180777E+01  0.83250979696E+02  0.84298778185E+02  0.17770000000E+01 0.  1.
</event>
<event>
 6    1  0.3365733E-003  0.5313711E+03  0.7546771E-02  0.9332227E-01
        -11   -1    0    0    0    0  0.00000000000E+00  0.00000000000E+00  0.50000000000E+03  0.50000000000E+03  0.00000000000E+00 0. -1.
         11   -1    0    0    0    0 -0.00000000000E+00 -0.00000000000E+00 -0.50000000000E+03  0.50000000000E+03  0.00000000000E+00 0. -1.
        -11    1    1    2    0    0  0.79107273404E+01  0.72848128696E+01  0.46850549878E+03  0.46862890488E+03  0.00000000000E+00 0. -1.
         11    1    1    2    0    0 -0.14716991394E+02  0.79839080728E+01 -0.44417729424E+03  0.44449274611E+03  0.00000000000E+00 0. -1.
        -15    1    1    2    0    0  0.31262843218E+02 -0.38482631758E+02 -0.13466103165E+02  0.51407897998E+02  0.17770000000E+01 0. -1.
         15    1    1    2    0    0 -0.24456579165E+02  0.23213910816E+02 -0.10862101374E+02  0.35470451013E+02  0.17770000000E+01 0.  1.
</event>
<event>
 6    1  0.3365733E-003  0.5082842E+03  0.7546771E-02  0.9381462E-01
        -11   -1    0    0    0    0  0.00000000000E+00  0.00000000000E+00  0.50000000000E+03  0.50000000000E+03  0.00000000000E+00 0. -1.
         11   -1    0    0    0    0 -0.00000000000E+00 -0.00000000000E+00 -0.50000000000E+03  0.50000000000E+03  0.00000000000E+00 0. -1.
        -11    1    1    2    0    0  0.15374086469E+02  0.32426522247E+01  0.49146468890E+03  0.49171578962E+03  0.00000000000E+00 0. -1.
         11    1    1    2    0    0  0.65459926922E+00 -0.92782580120E+01 -0.44926859153E+03  0.44936486502E+03  0.00000000000E+00 0. -1.
        -15    1    1    2    0    0  0.34529652444E+01  0.79298735142E+01 -0.37749761119E+02  0.38768647854E+02  0.17770000000E+01 0.  1.
         15    1    1    2    0    0 -0.19481650982E+02 -0.18942677269E+01 -0.44463362417E+01  0.20150697511E+02  0.17770000000E+01 0.  1.
</event>
<event>
 6    1  0.3365733E-003  0.5005063E+03  0.7546771E-02  0.9398678E-01
        -11   -1    0    0    0    0  0.00000000000E+00  0.00000000000E+00  0.50000000000E+03  0.50000000000E+03  0.00000000000E+00 0. -1.
         11   -1    0    0    0    0 -0.00000000000E+00 -0.00000000000E+00 -0.50000000000E+03  0.50000000000E+03  0.00000000000E+00 0.  1.
        -11    1    1    2    0    0 -0.15443009349E+01  0.47750845521E+01  0.28039915074E+03  0.28044405865E+03  0.00000000000E+00 0. -1.
         11    1    1    2    0    0  0.12175483156E+02  0.31509071530E+00 -0.49934519393E+03  0.49949370805E+03  0.00000000000E+00 0.  1.
        -15    1    1    2    0    0 -0.12315358786E+02  0.27133235864E+01  0.16605038184E+03  0.16653803537E+03  0.17770000000E+01 0.  1.
         15    1    1    2    0    0  0.16841765646E+01 -0.78034988538E+01  0.52895661356E+02  0.53524197933E+02  0.17770000000E+01 0. -1.
</event>
<event>
 6    1  0.3365733E-003  0.5199121E+03  0.7546771E-02  0.9356325E-01
        -11   -1    0    0    0    0  0.00000000000E+00  0.00000000000E+00  0.50000000000E+03  0.50000000000E+03  0.00000000000E+00 0. -1.
         11   -1    0    0    0    0 -0.00000000000E+00 -0.00000000000E+00 -0.50000000000E+03  0.50000000000E+03  0.00000000000E+00 0.  1.
        -11    1    1    2    0    0 -0.39558067259E+01  0.70547724218E+01  0.48001975665E+03  0.48008789299E+03  0.00000000000E+00 0. -1.
         11    1    1    2    0    0  0.15226540780E+02 -0.19176080328E+01 -0.43822660182E+03  0.43849524434E+03  0.00000000000E+00 0.  1.
        -15    1    1    2    0    0 -0.86897974213E+01  0.75202842942E+01 -0.58826820932E+02  0.59965155257E+02  0.17770000000E+01 0.  1.
         15    1    1    2    0    0 -0.25809366329E+01 -0.12657448683E+02  0.17033666103E+02  0.21451707414E+02  0.17770000000E+01 0. -1.
</event>
<event>
 6    1  0.3365733E-003  0.5050751E+03  0.7546771E-02  0.9388525E-01
        -11   -1    0    0    0    0  0.00000000000E+00  0.00000000000E+00  0.50000000000E+03  0.50000000000E+03  0.00000000000E+00 0. -1.
         11   -1    0    0    0    0 -0.00000000000E+00 -0.00000000000E+00 -0.50000000000E+03  0.50000000000E+03  0.00000000000E+00 0. -1.
        -11    1    1    2    0    0 -0.21294239149E+02  0.63125974879E+01  0.35573698921E+03  0.35642965505E+03  0.00000000000E+00 0. -1.
         11    1    1    2    0    0  0.60497657034E+01  0.63996331863E+01 -0.49484655128E+03  0.49492490772E+03  0.00000000000E+00 0. -1.
        -15    1    1    2    0    0  0.25734610803E+01 -0.10256014037E+01 -0.36057137206E+01  0.48819525403E+01  0.17770000000E+01 0.  1.
         15    1    1    2    0    0  0.12671012365E+02 -0.11686629271E+02  0.14271527579E+03  0.14376348469E+03  0.17770000000E+01 0. -1.
</event>
<event>
 6    1  0.3365733E-003  0.5011083E+03  0.7546771E-02  0.9397333E-01
        -11   -1    0    0    0    0  0.00000000000E+00  0.00000000000E+00  0.50000000000E+03  0.50000000000E+03  0.00000000000E+00 0.  1.
         11   -1    0    0    0    0 -0.00000000000E+00 -0.00000000000E+00 -0.50000000000E+03  0.50000000000E+03  0.00000000000E+00 0. -1.
        -11    1    1    2    0    0  0.14071219135E+02 -0.18054325430E+02  0.49836625750E+03  0.49889165607E+03  0.00000000000E+00 0.  1.
         11    1    1    2    0    0  0.99219169515E+01  0.37141932874E+01 -0.27504557426E+03  0.27524953694E+03  0.00000000000E+00 0. -1.
        -15    1    1    2    0    0 -0.21204898520E+02  0.32548666152E+01 -0.12254457621E+03  0.12442094987E+03  0.17770000000E+01 0. -1.
         15    1    1    2    0    0 -0.27882375665E+01  0.11085265527E+02 -0.10077610703E+03  0.10143785713E+03  0.17770000000E+01 0.  1.
</event>
<event>
 6    1  0.3365733E-003  0.5016581E+03  0.7546771E-02  0.9396107E-01
        -11   -1    0    0    0    0  0.00000000000E+00  0.00000000000E+00  0.50000000000E+03  0.50000000000E+03  0.00000000000E+00 0.  1.
         11   -1    0    0    0    0 -0.00000000000E+00 -0.00000000000E+00 -0.50000000000E+03  0.50000000000E+03  0.00000000000E+00 0. -1.
        -11    1    1    2    0    0  0.39545843396E+01  0.79408459740E+01  0.49826295552E+03  0.49834191939E+03  0.00000000000E+00 0.  1.
         11    1    1    2    0    0 -0.24485680957E+01 -0.81858366464E+01 -0.46613956738E+03  0.46621786719E+03  0.00000000000E+00 0. -1.
        -15    1    1    2    0    0 -0.53091711223E+01 -0.14487509021E+01 -0.29792707130E+02  0.30348794117E+02  0.17770000000E+01 0.  1.
         15    1    1    2    0    0  0.38031548783E+01  0.16937415746E+01 -0.23306810101E+01  0.50914193032E+01  0.17770000000E+01 0. -1.
</event>
<event>
 6    1  0.3365733E-003  0.5037615E+03  0.7546771E-02  0.9391432E-01
        -11   -1    0    0    0    0  0.00000000000E+00  0.00000000000E+00  0.50000000000E+03  0.50000000000E+03  0.00000000000E+00 0.  1.
         11   -1    0    0    0    0 -0.00000000000E+00 -0.00000000000E+00 -0.50000000000E+03  0.50000000000E+03  0.00000000000E+00 0.  1.
        -11    1    1    2    0    0  0.39225770018E+01 -0.95918561807E+01  0.49613029051E+03  0.49623850665E+03  0.00000000000E+00 0.  1.
         11    1    1    2    0    0  0.16325574985E+02  0.14499628946E+02 -0.24320539148E+03  0.24418359093E+03  0.00000000000E+00 0.  1.
        -15    1    1    2    0    0 -0.11325169326E+02  0.20655455239E+02 -0.18390245864E+03  0.18541353595E+03  0.17770000000E+01 0. -1.
         15    1    1    2    0    0 -0.89229826608E+01 -0.25563228005E+02 -0.69022440403E+02  0.74164366469E+02  0.17770000000E+01 0.  1.
</event>
<event>
 6    1  0.3365733E-003  0.5184522E+03  0.7546771E-02  0.9359442E-01
        -11   -1    0    0    0    0  0.00000000000E+00  0.00000000000E+00  0.50000000000E+03  0.50000000000E+03  0.00000000000E+00 0.  1.
         11   -1    0    0    0    0 -0.00000000000E+00 -0.00000000000E+00 -0.50000000000E+03  0.50000000000E+03  0.00000000000E+00 0.  1.
        -11    1    1    2    0    0 -0.18356521850E+02  0.13645545305E+02  0.34354538293E+03  0.34430595832E+03  0.00000000000E+00 0.  1.
         11    1    1    2    0    0  0.37307663775E+00  0.17807924171E+02 -0.48121822688E+03  0.48154775799E+03  0.00000000000E+00 0.  1.
        -15    1    1    2    0    0  0.54702553435E+01 -0.14661769833E+02 -0.13970870086E+02  0.21053126326E+02  0.17770000000E+01 0. -1.
         15    1    1    2    0    0  0.12513189869E+02 -0.16791699643E+02  0.15164371403E+03  0.15309315736E+03  0.17770000000E+01 0.  1.
</event>
<event>
 6    1  0.3365733E-003  0.4710231E+03  0.7546771E-02  0.9467089E-01
        -11   -1    0    0    0    0  0.00000000000E+00  0.00000000000E+00  0.50000000000E+03  0.50000000000E+03  0.00000000000E+00 0. -1.
         11   -1    0    0    0    0 -0.00000000000E+00 -0.00000000000E+00 -0.50000000000E+03  0.50000000000E+03  0.00000000000E+00 0. -1.
        -11    1    1    2    0    0 -0.81525618254E+01 -0.60829018287E+01  0.47303348408E+03  0.47314283575E+03  0.00000000000E+00 0. -1.
         11    1    1    2    0    0 -0.84898843878E+00  0.16585421542E+02 -0.46872069133E+03  0.46901480091E+03  0.00000000000E+00 0. -1.
        -15    1    1    2    0    0  0.96855116849E+01  0.65314405721E+01  0.22849636598E+02  0.25724161293E+02  0.17770000000E+01 0. -1.
         15    1    1    2    0    0 -0.68396142068E+00 -0.17033960286E+02 -0.27162429344E+02  0.32118202053E+02  0.17770000000E+01 0. -1.
</event>
<event>
 6    1  0.3365733E-003  0.5005888E+03  0.7546771E-02  0.9398493E-01
        -11   -1    0    0    0    0  0.00000000000E+00  0.00000000000E+00  0.50000000000E+03  0.50000000000E+03  0.00000000000E+00 0.  1.
         11   -1    0    0    0    0 -0.00000000000E+00 -0.00000000000E+00 -0.50000000000E+03  0.50000000000E+03  0.00000000000E+00 0. -1.
        -11    1    1    2    0    0  0.81162052148E+01  0.60295881940E+01  0.26627590633E+03  0.26646779733E+03  0.00000000000E+00 0.  1.
         11    1    1    2    0    0  0.63807983335E+01 -0.83250971649E+01 -0.49930100888E+03  0.49941117259E+03  0.00000000000E+00 0. -1.
        -15    1    1    2    0    0 -0.96977071864E+01  0.94686638753E+01  0.15430001659E+03  0.15490433812E+03  0.17770000000E+01 0. -1.
         15    1    1    2    0    0 -0.47992963618E+01 -0.71731549044E+01  0.78725085970E+02  0.79216691971E+02  0.17770000000E+01 0.  1.
</event>
<event>
 6    1  0.3365733E-003  0.5027469E+03  0.7546771E-02  0.9393684E-01
        -11   -1    0    0    0    0  0.00000000000E+00  0.00000000000E+00  0.50000000000E+03  0.50000000000E+03  0.00000000000E+00 0.  1.
         11   -1    0    0    0    0 -0.00000000000E+00 -0.00000000000E+00 -0.50000000000E+03  0.50000000000E+03  0.00000000000E+00 0.  1.
        -11    1    1    2    0    0  0.97219977638E+01 -0.58490286117E+01  0.49712367498E+03  0.49725313132E+03  0.00000000000E+00 0.  1.
         11    1    1    2    0    0  0.60280545639E+01  0.23032356189E+01 -0.42866866355E+03  0.42871723251E+03  0.00000000000E+00 0.  1.
        -15    1    1    2    0    0 -0.71943321758E+01 -0.82102757243E+01 -0.45298306743E+02  0.46628975602E+02  0.17770000000E+01 0. -1.
         15    1    1    2    0    0 -0.85557201519E+01  0.11756068717E+02 -0.23156704685E+02  0.27400660573E+02  0.17770000000E+01 0. -1.
</event>
<event>
 6    1  0.3365733E-003  0.5172719E+03  0.7546771E-02  0.9361971E-01
        -11   -1    0    0    0    0  0.00000000000E+00  0.00000000000E+00  0.50000000000E+03  0.50000000000E+03  0.00000000000E+00 0. -1.
         11   -1    0    0    0    0 -0.00000000000E+00 -0.00000000000E+00 -0.50000000000E+03  0.50000000000E+03  0.00000000000E+00 0.  1.
        -11    1    1    2    0    0  0.86038907587E+01 -0.80946769461E+00  0.47837845843E+03  0.47845650969E+03  0.00000000000E+00 0. -1.
         11    1    1    2    0    0 -0.10879216900E+02 -0.61656299916E+00 -0.48260507501E+03  0.48272807659E+03  0.00000000000E+00 0.  1.
        -15    1    1    2    0    0 -0.82680670050E+01 -0.40836580548E+01  0.18138032740E+02  0.20425061953E+02  0.17770000000E+01 0. -1.
         15    1    1    2    0    0  0.10543393146E+02  0.55096887486E+01 -0.13911416166E+02  0.18390351761E+02  0.17770000000E+01 0.  1.
</event>
<event>
 6    1  0.3365733E-003  0.4728211E+03  0.7546771E-02  0.9462766E-01
        -11   -1    0    0    0    0  0.00000000000E+00  0.00000000000E+00  0.50000000000E+03  0.50000000000E+03  0.00000000000E+00 0. -1.
         11   -1    0    0    0    0 -0.00000000000E+00 -0.00000000000E+00 -0.50000000000E+03  0.50000000000E+03  0.00000000000E+00 0.  1.
        -11    1    1    2    0    0 -0.98069823798E+01 -0.19089173592E+01  0.47409037056E+03  0.47419563507E+03  0.00000000000E+00 0. -1.
         11    1    1    2    0    0  0.10491512934E+02  0.24202969968E+02 -0.47097651480E+03  0.47171467339E+03  0.00000000000E+00 0.  1.
        -15    1    1    2    0    0  0.15464167252E+02  0.25752168192E+01  0.12866354268E+02  0.20358610258E+02  0.17770000000E+01 0. -1.
         15    1    1    2    0    0 -0.16148697807E+02 -0.24869269428E+02 -0.15980210022E+02  0.33731081277E+02  0.17770000000E+01 0.  1.
</event>
<event>
 6    1  0.3365733E-003  0.5005584E+03  0.7546771E-02  0.9398561E-01
        -11   -1    0    0    0    0  0.00000000000E+00  0.00000000000E+00  0.50000000000E+03  0.50000000000E+03  0.00000000000E+00 0.  1.
         11   -1    0    0    0    0 -0.00000000000E+00 -0.00000000000E+00 -0.50000000000E+03  0.50000000000E+03  0.00000000000E+00 0.  1.
        -11    1    1    2    0    0  0.86399947034E+01  0.23721242031E+02  0.49880314375E+03  0.49944161125E+03  0.00000000000E+00 0.  1.
         11    1    1    2    0    0 -0.17818708061E+01 -0.14537447118E+01 -0.61161388777E+02  0.61204606971E+02  0.00000000000E+00 0.  1.
        -15    1    1    2    0    0 -0.15600838849E+01  0.73296315122E+01 -0.13419975598E+03  0.13442056983E+03  0.17770000000E+01 0. -1.
         15    1    1    2    0    0 -0.52980400124E+01 -0.29597128831E+02 -0.30344199900E+03  0.30493321195E+03  0.17770000000E+01 0.  1.
</event>
<event>
 6    1  0.3365733E-003  0.5025421E+03  0.7546771E-02  0.9394140E-01
        -11   -1    0    0    0    0  0.00000000000E+00  0.00000000000E+00  0.50000000000E+03  0.50000000000E+03  0.00000000000E+00 0.  1.
         11   -1    0    0    0    0 -0.00000000000E+00 -0.00000000000E+00 -0.50000000000E+03  0.50000000000E+03  0.00000000000E+00 0.  1.
        -11    1    1    2    0    0 -0.55274244127E+01 -0.54017630842E+00  0.31806622048E+03  0.31811470387E+03  0.00000000000E+00 0.  1.
         11    1    1    2    0    0 -0.18198731278E+01 -0.80693314142E+01 -0.49738915581E+03  0.49745793628E+03  0.00000000000E+00 0.  1.
        -15    1    1    2    0    0 -0.12984208088E+01  0.96221459183E+01  0.17355371455E+03  0.17383417717E+03  0.17770000000E+01 0.  1.
         15    1    1    2    0    0  0.86457183493E+01 -0.10126381956E+01  0.57692207829E+01  0.10593182682E+02  0.17770000000E+01 0. -1.
</event>
<event>
 6    1  0.3365733E-003  0.5008811E+03  0.7546771E-02  0.9397840E-01
        -11   -1    0    0    0    0  0.00000000000E+00  0.00000000000E+00  0.50000000000E+03  0.50000000000E+03  0.00000000000E+00 0. -1.
         11   -1    0    0    0    0 -0.00000000000E+00 -0.00000000000E+00 -0.50000000000E+03  0.50000000000E+03  0.00000000000E+00 0.  1.
        -11    1    1    2    0    0 -0.81660779921E+01 -0.15400565673E+01  0.49904969121E+03  0.49911887452E+03  0.00000000000E+00 0. -1.
         11    1    1    2    0    0  0.76084155516E+01  0.63159569906E+01 -0.43693257717E+03  0.43704445574E+03  0.00000000000E+00 0.  1.
        -15    1    1    2    0    0  0.42658292070E+01  0.32722241713E+01 -0.22463229961E+02  0.23165905533E+02  0.17770000000E+01 0. -1.
         15    1    1    2    0    0 -0.37081667665E+01 -0.80481245946E+01 -0.39653884077E+02  0.40670764213E+02  0.17770000000E+01 0.  1.
</event>
<event>
 6    1  0.3365733E-003  0.5006380E+03  0.7546771E-02  0.9398383E-01
        -11   -1    0    0    0    0  0.00000000000E+00  0.00000000000E+00  0.50000000000E+03  0.50000000000E+03  0.00000000000E+00 0.  1.
         11   -1    0    0    0    0 -0.00000000000E+00 -0.00000000000E+00 -0.50000000000E+03  0.50000000000E+03  0.00000000000E+00 0.  1.
        -11    1    1    2    0    0 -0.84293629170E+01  0.35039615352E+01  0.49927859252E+03  0.49936203786E+03  0.00000000000E+00 0.  1.
         11    1    1    2    0    0  0.19277251096E+01 -0.76949415997E+01 -0.33970057647E+03  0.33979318696E+03  0.00000000000E+00 0.  1.
        -15    1    1    2    0    0  0.80001375042E+01 -0.44613814278E+01 -0.47406565722E+02  0.48316108358E+02  0.17770000000E+01 0. -1.
         15    1    1    2    0    0 -0.14984996968E+01  0.86523614922E+01 -0.11217145033E+03  0.11252866683E+03  0.17770000000E+01 0.  1.
</event>
<event>
 6    1  0.3365733E-003  0.5157468E+03  0.7546771E-02  0.9365248E-01
        -11   -1    0    0    0    0  0.00000000000E+00  0.00000000000E+00  0.50000000000E+03  0.50000000000E+03  0.00000000000E+00 0. -1.
         11   -1    0    0    0    0 -0.00000000000E+00 -0.00000000000E+00 -0.50000000000E+03  0.50000000000E+03  0.00000000000E+00 0.  1.
        -11    1    1    2    0    0 -0.70001403569E+01  0.22384016228E+01  0.48419747285E+03  0.48425324482E+03  0.00000000000E+00 0. -1.
         11    1    1    2    0    0  0.25939717936E+02  0.24021959813E+02 -0.43091735720E+03  0.43236523016E+03  0.00000000000E+00 0.  1.
        -15    1    1    2    0    0 -0.18101124632E+02 -0.15846747242E+02 -0.63946735039E+02  0.68345539446E+02  0.17770000000E+01 0.  1.
         15    1    1    2    0    0 -0.83845294677E+00 -0.10413614195E+02  0.10666619383E+02  0.15035985568E+02  0.17770000000E+01 0. -1.
</event>
<event>
 6    1  0.3365733E-003  0.5101382E+03  0.7546771E-02  0.9377406E-01
        -11   -1    0    0    0    0  0.00000000000E+00  0.00000000000E+00  0.50000000000E+03  0.50000000000E+03  0.00000000000E+00 0.  1.
         11   -1    0    0    0    0 -0.00000000000E+00 -0.00000000000E+00 -0.50000000000E+03  0.50000000000E+03  0.00000000000E+00 0.  1.
        -11    1    1    2    0    0 -0.28304618102E+01 -0.62207346668E+01  0.48981410599E+03  0.48986178406E+03  0.00000000000E+00 0.  1.
         11    1    1    2    0    0  0.63691219386E+01 -0.32889761952E+01 -0.48148310976E+03  0.48153646597E+03  0.00000000000E+00 0.  1.
        -15    1    1    2    0    0 -0.36417057080E+01  0.43373352558E+01 -0.17192282400E+02  0.18188095027E+02  0.17770000000E+01 0. -1.
         15    1    1    2    0    0  0.10304557962E+00  0.51723756062E+01  0.88612861616E+01  0.10413654942E+02  0.17770000000E+01 0.  1.
</event>
<event>
 6    1  0.3365733E-003  0.5096305E+03  0.7546771E-02  0.9378515E-01
        -11   -1    0    0    0    0  0.00000000000E+00  0.00000000000E+00  0.50000000000E+03  0.50000000000E+03  0.00000000000E+00 0. -1.
         11   -1    0    0    0    0 -0.00000000000E+00 -0.00000000000E+00 -0.50000000000E+03  0.50000000000E+03  0.00000000000E+00 0. -1.
        -11    1    1    2    0    0 -0.10161277938E+02 -0.30307676540E+01  0.44279463430E+03  0.44292157917E+03  0.00000000000E+00 0. -1.
         11    1    1    2    0    0  0.48492649985E+01  0.75943539367E+01 -0.49028667245E+03  0.49036946354E+03  0.00000000000E+00 0. -1.
        -15    1    1    2    0    0  0.10370061682E+02 -0.24216045001E+02  0.24953296124E+02  0.36328772773E+02  0.17770000000E+01 0.  1.
         15    1    1    2    0    0 -0.50580487428E+01  0.19652458718E+02  0.22538742024E+02  0.30380184525E+02  0.17770000000E+01 0. -1.
</event>
<event>
 6    1  0.3365733E-003  0.5199762E+03  0.7546771E-02  0.9356188E-01
        -11   -1    0    0    0    0  0.00000000000E+00  0.00000000000E+00  0.50000000000E+03  0.50000000000E+03  0.00000000000E+00 0. -1.
         11   -1    0    0    0    0 -0.00000000000E+00 -0.00000000000E+00 -0.50000000000E+03  0.50000000000E+03  0.00000000000E+00 0.  1.
        -11    1    1    2    0    0 -0.74009806712E+01  0.17294899300E+02  0.47965502059E+03  0.48002377736E+03  0.00000000000E+00 0. -1.
         11    1    1    2    0    0  0.36483340019E+01 -0.12464903636E+02 -0.39827563852E+03  0.39848735037E+03  0.00000000000E+00 0.  1.
        -15    1    1    2    0    0  0.33688370375E+00  0.14457385911E+02 -0.95925866787E+02  0.97026074566E+02  0.17770000000E+01 0.  1.
         15    1    1    2    0    0  0.34157629655E+01 -0.19287381575E+02  0.14546484726E+02  0.24462797705E+02  0.17770000000E+01 0. -1.
</event>
<event>
 6    1  0.3365733E-003  0.5004592E+03  0.7546771E-02  0.9398783E-01
        -11   -1    0    0    0    0  0.00000000000E+00  0.00000000000E+00  0.50000000000E+03  0.50000000000E+03  0.00000000000E+00 0.  1.
         11   -1    0    0    0    0 -0.00000000000E+00 -0.00000000000E+00 -0.50000000000E+03  0.50000000000E+03  0.00000000000E+00 0.  1.
        -11    1    1    2    0    0  0.47651975270E+01  0.57780391639E+01  0.49948463983E+03  0.49954078740E+03  0.00000000000E+00 0.  1.
         11    1    1    2    0    0  0.28658971994E+01 -0.13988728922E+01 -0.68456551291E+02  0.68530793274E+02  0.00000000000E+00 0.  1.
        -15    1    1    2    0    0 -0.69805373642E+01  0.10054475542E+02 -0.25484344477E+03  0.25514340958E+03  0.17770000000E+01 0. -1.
         15    1    1    2    0    0 -0.65055736227E+00 -0.14433641813E+02 -0.17618464377E+03  0.17678500975E+03  0.17770000000E+01 0.  1.
</event>
<event>
 6    1  0.3365733E-003  0.5103224E+03  0.7546771E-02  0.9377004E-01
        -11   -1    0    0    0    0  0.00000000000E+00  0.00000000000E+00  0.50000000000E+03  0.50000000000E+03  0.00000000000E+00 0.  1.
         11   -1    0    0    0    0 -0.00000000000E+00 -0.00000000000E+00 -0.50000000000E+03  0.50000000000E+03  0.00000000000E+00 0.  1.
        -11    1    1    2    0    0  0.58567143583E+01 -0.74094961632E+01  0.44719040289E+03  0.44729012752E+03  0.00000000000E+00 0.  1.
         11    1    1    2    0    0  0.33040838676E+01 -0.64809031554E+01 -0.48962358490E+03  0.48967762249E+03  0.00000000000E+00 0.  1.
        -15    1    1    2    0    0  0.91709679604E+01 -0.96765008024E+01  0.25063897318E+02  0.28444647983E+02  0.17770000000E+01 0.  1.
         15    1    1    2    0    0 -0.18331766186E+02  0.23566900121E+02  0.17369284694E+02  0.34587602007E+02  0.17770000000E+01 0. -1.
</event>
<event>
 6    1  0.3365733E-003  0.5013796E+03  0.7546771E-02  0.9396728E-01
        -11   -1    0    0    0    0  0.00000000000E+00  0.00000000000E+00  0.50000000000E+03  0.50000000000E+03  0.00000000000E+00 0. -1.
         11   -1    0    0    0    0 -0.00000000000E+00 -0.00000000000E+00 -0.50000000000E+03  0.50000000000E+03  0.00000000000E+00 0.  1.
        -11    1    1    2    0    0  0.52467811846E+01  0.66801122362E+01  0.43356153878E+03  0.43364473999E+03  0.00000000000E+00 0. -1.
         11    1    1    2    0    0  0.43841612020E+01  0.62854262986E+01 -0.49856150418E+03  0.49862039760E+03  0.00000000000E+00 0.  1.
        -15    1    1    2    0    0 -0.69074636671E+01 -0.13526272651E+02  0.58217040661E+02  0.60191815544E+02  0.17770000000E+01 0. -1.
         15    1    1    2    0    0 -0.27234787195E+01  0.56073411594E+00  0.67829247347E+01  0.75430468672E+01  0.17770000000E+01 0.  1.
</event>
<event>
 6    1  0.3365733E-003  0.5036574E+03  0.7546771E-02  0.9391663E-01
        -11   -1    0    0    0    0  0.00000000000E+00  0.00000000000E+00  0.50000000000E+03  0.50000000000E+03  0.00000000000E+00 0. -1.
         11   -1    0    0    0    0 -0.00000000000E+00 -0.00000000000E+00 -0.50000000000E+03  0.50000000000E+03  0.00000000000E+00 0. -1.
        -11    1    1    2    0    0  0.47639119780E+00 -0.16815640163E+02  0.49605740036E+03  0.49634256029E+03  0.00000000000E+00 0. -1.
         11    1    1    2    0    0  0.68325334014E+00  0.74393333501E+01 -0.32280487698E+03  0.32289131162E+03  0.00000000000E+00 0. -1.
        -15    1    1    2    0    0  0.18432916998E+02 -0.11809311104E+02 -0.89822475858E+02  0.92468736100E+02  0.17770000000E+01 0. -1.
         15    1    1    2    0    0 -0.19592561536E+02  0.21185617917E+02 -0.83430047523E+02  0.88297391993E+02  0.17770000000E+01 0.  1.
</event>
<event>
 6    1  0.3365733E-003  0.5010254E+03  0.7546771E-02  0.9397518E-01
        -11   -1    0    0    0    0  0.00000000000E+00  0.00000000000E+00  0.50000000000E+03  0.50000000000E+03  0.00000000000E+00 0. -1.
         11   -1    0    0    0    0 -0.00000000000E+00 -0.00000000000E+00 -0.50000000000E+03  0.50000000000E+03  0.00000000000E+00 0. -1.
        -11    1    1    2    0    0  0.52983907021E+01  0.28682227909E+01  0.28888826982E+03  0.28895108943E+03  0.00000000000E+00 0. -1.
         11    1    1    2    0    0  0.99315983465E+01  0.46346167428E+01 -0.49885424415E+03  0.49897462183E+03  0.00000000000E+00 0. -1.
        -15    1    1    2    0    0 -0.74926506724E+00 -0.44484105857E+01  0.15634363084E+03  0.15641879167E+03  0.17770000000E+01 0. -1.
         15    1    1    2    0    0 -0.14480723981E+02 -0.30544289480E+01  0.53622343494E+02  0.55655497069E+02  0.17770000000E+01 0. -1.
</event>
<event>
 6    1  0.3365733E-003  0.5017505E+03  0.7546771E-02  0.9395901E-01
        -11   -1    0    0    0    0  0.00000000000E+00  0.00000000000E+00  0.50000000000E+03  0.50000000000E+03  0.00000000000E+00 0.  1.
         11   -1    0    0    0    0 -0.00000000000E+00 -0.00000000000E+00 -0.50000000000E+03  0.50000000000E+03  0.00000000000E+00 0.  1.
        -11    1    1    2    0    0  0.11830707201E+02 -0.14427127338E+02  0.40475260716E+03  0.40518240415E+03  0.00000000000E+00 0.  1.
         11    1    1    2    0    0 -0.52017658827E+01 -0.75008096156E+01 -0.49816592814E+03  0.49824954839E+03  0.00000000000E+00 0.  1.
        -15    1    1    2    0    0  0.12535818352E+01  0.40612170151E+01  0.24001003556E+02  0.24439125429E+02  0.17770000000E+01 0.  1.
         15    1    1    2    0    0 -0.78825231537E+01  0.17866719938E+02  0.69412317428E+02  0.72128922024E+02  0.17770000000E+01 0. -1.
</event>
<event>
 6    1  0.3365733E-003  0.5062938E+03  0.7546771E-02  0.9385836E-01
        -11   -1    0    0    0    0  0.00000000000E+00  0.00000000000E+00  0.50000000000E+03  0.50000000000E+03  0.00000000000E+00 0. -1.
         11   -1    0    0    0    0 -0.00000000000E+00 -0.00000000000E+00 -0.50000000000E+03  0.50000000000E+03  0.00000000000E+00 0.  1.
        -11    1    1    2    0    0 -0.70203088272E+01 -0.79251936991E+01  0.47900219408E+03  0.47911918701E+03  0.00000000000E+00 0. -1.
         11    1    1    2    0    0 -0.87493342583E+01  0.81378154533E+01 -0.49356154343E+03  0.49370615962E+03  0.00000000000E+00 0.  1.
        -15    1    1    2    0    0  0.13582419629E+02 -0.48601561995E+01  0.36496566793E+01  0.14986025628E+02  0.17770000000E+01 0.  1.
         15    1    1    2    0    0  0.21872234566E+01  0.46475344453E+01  0.10909692679E+02  0.12188627741E+02  0.17770000000E+01 0. -1.
</event>
<event>
 6    1  0.3365733E-003  0.5016711E+03  0.7546771E-02  0.9396078E-01
        -11   -1    0    0    0    0  0.00000000000E+00  0.00000000000E+00  0.50000000000E+03  0.50000000000E+03  0.00000000000E+00 0.  1.
         11   -1    0    0    0    0 -0.00000000000E+00 -0.00000000000E+00 -0.50000000000E+03  0.50000000000E+03  0.00000000000E+00 0.  1.
        -11    1    1    2    0    0 -0.48930488352E+01 -0.60513767196E+01  0.44313457141E+03  0.44320289876E+03  0.00000000000E+00 0.  1.
         11    1    1    2    0    0 -0.39235946994E+01  0.70373746474E+01 -0.49826376964E+03  0.49832891083E+03  0.00000000000E+00 0.  1.
        -15    1    1    2    0    0 -0.72096429516E+00 -0.75143019482E+01  0.20496174984E+02  0.21914274829E+02  0.17770000000E+01 0. -1.
         15    1    1    2    0    0  0.95376078298E+01  0.65283040204E+01  0.34633023238E+02  0.36553915579E+02  0.17770000000E+01 0.  1.
</event>
<event>
 6    1  0.3365733E-003  0.4821530E+03  0.7546771E-02  0.9440654E-01
        -11   -1    0    0    0    0  0.00000000000E+00  0.00000000000E+00  0.50000000000E+03  0.50000000000E+03  0.00000000000E+00 0.  1.
         11   -1    0    0    0    0 -0.00000000000E+00 -0.00000000000E+00 -0.50000000000E+03  0.50000000000E+03  0.00000000000E+00 0. -1.
        -11    1    1    2    0    0  0.16599649488E+01  0.16146137034E+02  0.47699160399E+03  0.47726768538E+03  0.00000000000E+00 0.  1.
         11    1    1    2    0    0  0.16281964662E+02  0.10854164131E+01 -0.48713929668E+03  0.48741253048E+03  0.00000000000E+00 0. -1.
        -15    1    1    2    0    0  0.46645776227E+01 -0.66412843702E+01 -0.14527776636E-01  0.83080011158E+01  0.17770000000E+01 0.  1.
         15    1    1    2    0    0 -0.22606507233E+02 -0.10590269077E+02  0.10162220461E+02  0.27011783024E+02  0.17770000000E+01 0. -1.
</event>
<event>
 6    1  0.3365733E-003  0.5007014E+03  0.7546771E-02  0.9398242E-01
        -11   -1    0    0    0    0  0.00000000000E+00  0.00000000000E+00  0.50000000000E+03  0.50000000000E+03  0.00000000000E+00 0.  1.
         11   -1    0    0    0    0 -0.00000000000E+00 -0.00000000000E+00 -0.50000000000E+03  0.50000000000E+03  0.00000000000E+00 0.  1.
        -11    1    1    2    0    0 -0.16618597001E+01  0.65012627107E+01  0.34042315235E+03  0.34048928155E+03  0.00000000000E+00 0.  1.
         11    1    1    2    0    0 -0.28986331470E+01  0.75293572878E+01 -0.49923336668E+03  0.49929855568E+03  0.00000000000E+00 0.  1.
        -15    1    1    2    0    0  0.20412482844E+01 -0.35404850262E+01  0.11400846096E+03  0.11409552414E+03  0.17770000000E+01 0. -1.
         15    1    1    2    0    0  0.25192445627E+01 -0.10490134972E+02  0.44801753374E+02  0.46116638638E+02  0.17770000000E+01 0. -1.
</event>
<event>
 6    1  0.3365733E-003  0.5018556E+03  0.7546771E-02  0.9395667E-01
        -11   -1    0    0    0    0  0.00000000000E+00  0.00000000000E+00  0.50000000000E+03  0.50000000000E+03  0.00000000000E+00 0. -1.
         11   -1    0    0    0    0 -0.00000000000E+00 -0.00000000000E+00 -0.50000000000E+03  0.50000000000E+03  0.00000000000E+00 0.  1.
        -11    1    1    2    0    0  0.16482130530E+01 -0.26597933227E+01  0.17113899619E+03  0.17116759952E+03  0.00000000000E+00 0. -1.
         11    1    1    2    0    0  0.43519350314E+02  0.61394760319E+01 -0.49620178298E+03  0.49814439317E+03  0.00000000000E+00 0.  1.
        -15    1    1    2    0    0  0.22393095110E+01 -0.19666484758E+01  0.17066127059E+01  0.38668422830E+01  0.17770000000E+01 0. -1.
         15    1    1    2    0    0 -0.47406872878E+02 -0.15130342333E+01  0.32335617408E+03  0.32682116503E+03  0.17770000000E+01 0. -1.
</event>
<event>
 6    1  0.3365733E-003  0.5044718E+03  0.7546771E-02  0.9389859E-01
        -11   -1    0    0    0    0  0.00000000000E+00  0.00000000000E+00  0.50000000000E+03  0.50000000000E+03  0.00000000000E+00 0.  1.
         11   -1    0    0    0    0 -0.00000000000E+00 -0.00000000000E+00 -0.50000000000E+03  0.50000000000E+03  0.00000000000E+00 0. -1.
        -11    1    1    2    0    0 -0.13148857833E+00 -0.73192894683E+01  0.20294309623E+03  0.20307508364E+03  0.00000000000E+00 0.  1.
         11    1    1    2    0    0  0.91649548688E+01 -0.20834927849E+02 -0.49500511229E+03  0.49552815441E+03  0.00000000000E+00 0. -1.
        -15    1    1    2    0    0 -0.15264246996E+02 -0.20340309049E+02  0.97549969956E+02  0.10082598760E+03  0.17770000000E+01 0.  1.
         15    1    1    2    0    0  0.62307807051E+01  0.48494526366E+02  0.19451204610E+03  0.20057077435E+03  0.17770000000E+01 0. -1.
</event>
<event>
 6    1  0.3365733E-003  0.4797689E+03  0.7546771E-02  0.9446252E-01
        -11   -1    0    0    0    0  0.00000000000E+00  0.00000000000E+00  0.50000000000E+03  0.50000000000E+03  0.00000000000E+00 0. -1.
         11   -1    0    0    0    0 -0.00000000000E+00 -0.00000000000E+00 -0.50000000000E+03  0.50000000000E+03  0.00000000000E+00 0.  1.
        -11    1    1    2    0    0  0.79443651767E+01 -0.57085458204E+01  0.48230314280E+03  0.48240234451E+03  0.00000000000E+00 0. -1.
         11    1    1    2    0    0  0.19920786861E+01 -0.86644164942E+01 -0.47722526510E+03  0.47730807048E+03  0.00000000000E+00 0.  1.
        -15    1    1    2    0    0 -0.32672940751E+01  0.12911493675E+02 -0.19820671693E+02  0.23945743565E+02  0.17770000000E+01 0.  1.
         15    1    1    2    0    0 -0.66691497878E+01  0.14614686391E+01  0.14742793997E+02  0.16343841449E+02  0.17770000000E+01 0. -1.
</event>
<event>
 6    1  0.3365733E-003  0.5004769E+03  0.7546771E-02  0.9398743E-01
        -11   -1    0    0    0    0  0.00000000000E+00  0.00000000000E+00  0.50000000000E+03  0.50000000000E+03  0.00000000000E+00 0.  1.
         11   -1    0    0    0    0 -0.00000000000E+00 -0.00000000000E+00 -0.50000000000E+03  0.50000000000E+03  0.00000000000E+00 0. -1.
        -11    1    1    2    0    0 -0.10446125109E+02  0.51269754920E-01  0.49941385460E+03  0.49952309489E+03  0.00000000000E+00 0.  1.
         11    1    1    2    0    0 -0.21336164861E+01  0.13780464048E+01 -0.11964204577E+03  0.11966900370E+03  0.00000000000E+00 0. -1.
        -15    1    1    2    0    0  0.58475508749E+00  0.10718237663E+02 -0.15566369851E+03  0.15604347895E+03  0.17770000000E+01 0. -1.
         15    1    1    2    0    0  0.11994986507E+02 -0.12147553823E+02 -0.22410811032E+03  0.22476442246E+03  0.17770000000E+01 0.  1.
</event>
<event>
 6    1  0.3365733E-003  0.4919001E+03  0.7546771E-02  0.9418119E-01
        -11   -1    0    0    0    0  0.00000000000E+00  0.00000000000E+00  0.50000000000E+03  0.50000000000E+03  0.00000000000E+00 0. -1.
         11   -1    0    0    0    0 -0.00000000000E+00 -0.00000000000E+00 -0.50000000000E+03  0.50000000000E+03  0.00000000000E+00 0.  1.
        -11    1    1    2    0    0 -0.69609922098E+01 -0.76042206919E+00  0.48950427707E+03  0.48955435952E+03  0.00000000000E+00 0. -1.
         11    1    1    2    0    0 -0.65784576983E+01  0.28028993089E+01 -0.49430101359E+03  0.49435273276E+03  0.00000000000E+00 0.  1.
        -15    1    1    2    0    0  0.12591767204E+02 -0.26942634307E+01  0.30582199530E+01  0.13353729630E+02  0.17770000000E+01 0.  1.
         15    1    1    2    0    0  0.94768270432E+00  0.65178619100E+00  0.17385165661E+01  0.27391780879E+01  0.17770000000E+01 0. -1.
</event>
<event>
 6    1  0.3365733E-003  0.5148071E+03  0.7546771E-02  0.9367274E-01
        -11   -1    0    0    0    0  0.00000000000E+00  0.00000000000E+00  0.50000000000E+03  0.50000000000E+03  0.00000000000E+00 0.  1.
         11   -1    0    0    0    0 -0.00000000000E+00 -0.00000000000E+00 -0.50000000000E+03  0.50000000000E+03  0.00000000000E+00 0. -1.
        -11    1    1    2    0    0 -0.24758462211E+01  0.71841278606E+01  0.42075242276E+03  0.42082103413E+03  0.00000000000E+00 0.  1.
         11    1    1    2    0    0 -0.10591797381E+02 -0.27575988816E+02 -0.48429278581E+03  0.48519287270E+03  0.00000000000E+00 0. -1.
        -15    1    1    2    0    0  0.31779912462E+02  0.33596253514E+02  0.42093755420E+02  0.62559675995E+02  0.17770000000E+01 0.  1.
         15    1    1    2    0    0 -0.18712268860E+02 -0.13204392559E+02  0.21446607626E+02  0.31426417174E+02  0.17770000000E+01 0. -1.
</event>
<event>
 6    1  0.3365733E-003  0.5027317E+03  0.7546771E-02  0.9393718E-01
        -11   -1    0    0    0    0  0.00000000000E+00  0.00000000000E+00  0.50000000000E+03  0.50000000000E+03  0.00000000000E+00 0. -1.
         11   -1    0    0    0    0 -0.00000000000E+00 -0.00000000000E+00 -0.50000000000E+03  0.50000000000E+03  0.00000000000E+00 0. -1.
        -11    1    1    2    0    0  0.83299005208E+01  0.34574887109E+01  0.49718645952E+03  0.49726825457E+03  0.00000000000E+00 0. -1.
         11    1    1    2    0    0 -0.89177070417E+01 -0.62303408649E+01 -0.37660942816E+03  0.37676651128E+03  0.00000000000E+00 0. -1.
        -15    1    1    2    0    0 -0.63465806833E+01 -0.94959759082E+00 -0.17773063777E+01  0.68918334944E+01  0.17770000000E+01 0. -1.
         15    1    1    2    0    0  0.69343872042E+01  0.37224497448E+01 -0.11879972498E+03  0.11907340065E+03  0.17770000000E+01 0. -1.
</event>
<event>
 6    1  0.3365733E-003  0.5242726E+03  0.7546771E-02  0.9347078E-01
        -11   -1    0    0    0    0  0.00000000000E+00  0.00000000000E+00  0.50000000000E+03  0.50000000000E+03  0.00000000000E+00 0.  1.
         11   -1    0    0    0    0 -0.00000000000E+00 -0.00000000000E+00 -0.50000000000E+03  0.50000000000E+03  0.00000000000E+00 0.  1.
        -11    1    1    2    0    0 -0.74712423991E+01  0.24281559453E+02  0.45757351240E+03  0.45827822646E+03  0.00000000000E+00 0.  1.
         11    1    1    2    0    0 -0.11816287578E+02 -0.78565893243E+01 -0.47551574374E+03  0.47572741480E+03  0.00000000000E+00 0.  1.
        -15    1    1    2    0    0  0.17395921889E+02 -0.10212291432E+02  0.38968731997E+02  0.43916156447E+02  0.17770000000E+01 0.  1.
         15    1    1    2    0    0  0.18916080879E+01 -0.62126786974E+01 -0.21026500654E+02  0.22078202293E+02  0.17770000000E+01 0. -1.
</event>
<event>
 6    1  0.3365733E-003  0.5009964E+03  0.7546771E-02  0.9397583E-01
        -11   -1    0    0    0    0  0.00000000000E+00  0.00000000000E+00  0.50000000000E+03  0.50000000000E+03  0.00000000000E+00 0. -1.
         11   -1    0    0    0    0 -0.00000000000E+00 -0.00000000000E+00 -0.50000000000E+03  0.50000000000E+03  0.00000000000E+00 0. -1.
        -11    1    1    2    0    0 -0.35490000914E+01  0.13951402490E+02  0.49879589601E+03  0.49900359008E+03  0.00000000000E+00 0. -1.
         11    1    1    2    0    0  0.48859041399E+01 -0.51026131281E+01 -0.38415993087E+03  0.38422488364E+03  0.00000000000E+00 0. -1.
        -15    1    1    2    0    0 -0.57915674442E+00 -0.49167936912E+00 -0.12164318343E+00  0.19364134891E+01  0.17770000000E+01 0. -1.
         15    1    1    2    0    0 -0.75774730411E+00 -0.83571099923E+01 -0.11451432196E+03  0.11483511280E+03  0.17770000000E+01 0.  1.
</event>
<event>
 6    1  0.3442820E-003  0.5003304E+03  0.7546771E-02  0.9399071E-01
        -11   -1    0    0    0    0  0.00000000000E+00  0.00000000000E+00  0.50000000000E+03  0.50000000000E+03  0.00000000000E+00 0. -1.
         11   -1    0    0    0    0 -0.00000000000E+00 -0.00000000000E+00 -0.50000000000E+03  0.50000000000E+03  0.00000000000E+00 0. -1.
        -11    1    1    2    0    0 -0.33166050682E+01 -0.65864953275E+01  0.49961520695E+03  0.49966962765E+03  0.00000000000E+00 0. -1.
         11    1    1    2    0    0 -0.39622603154E+01 -0.20998413450E+01 -0.33165313749E+03  0.33168345218E+03  0.00000000000E+00 0. -1.
        -15    1    1    2    0    0 -0.12710236416E+01  0.23929241338E+00 -0.52803732762E+02  0.52849453021E+02  0.17770000000E+01 0.  1.
         15    1    1    2    0    0  0.85498890252E+01  0.84470442591E+01 -0.11515833669E+03  0.11579746715E+03  0.17770000000E+01 0. -1.
</event>
<event>
 6    1  0.3365733E-003  0.5080085E+03  0.7546771E-02  0.9382066E-01
        -11   -1    0    0    0    0  0.00000000000E+00  0.00000000000E+00  0.50000000000E+03  0.50000000000E+03  0.00000000000E+00 0.  1.
         11   -1    0    0    0    0 -0.00000000000E+00 -0.00000000000E+00 -0.50000000000E+03  0.50000000000E+03  0.00000000000E+00 0.  1.
        -11    1    1    2    0    0 -0.75872439031E+01  0.48537754044E-01  0.48338702775E+03  0.48344657121E+03  0.00000000000E+00 0.  1.
         11    1    1    2    0    0  0.15987572688E+01  0.77892327806E+01 -0.49192720388E+03  0.49199146547E+03  0.00000000000E+00 0.  1.
        -15    1    1    2    0    0  0.23125725005E+01  0.20224202722E+01  0.12640500792E+02  0.13129286523E+02  0.17770000000E+01 0. -1.
         15    1    1    2    0    0  0.36759141337E+01 -0.98601908069E+01 -0.41003246535E+01  0.11432676796E+02  0.17770000000E+01 0.  1.
</event>
<event>
 6    1  0.3365733E-003  0.5048099E+03  0.7546771E-02  0.9389111E-01
        -11   -1    0    0    0    0  0.00000000000E+00  0.00000000000E+00  0.50000000000E+03  0.50000000000E+03  0.00000000000E+00 0. -1.
         11   -1    0    0    0    0 -0.00000000000E+00 -0.00000000000E+00 -0.50000000000E+03  0.50000000000E+03  0.00000000000E+00 0.  1.
        -11    1    1    2    0    0  0.33894964303E+01  0.30006959615E+01  0.32658304201E+03  0.32661441517E+03  0.00000000000E+00 0. -1.
         11    1    1    2    0    0  0.30122517735E+02 -0.33069673859E+02 -0.49316551353E+03  0.49519005759E+03  0.00000000000E+00 0.  1.
        -15    1    1    2    0    0 -0.32153926036E+01  0.10887127442E+02  0.11368905801E+03  0.11426822802E+03  0.17770000000E+01 0. -1.
         15    1    1    2    0    0 -0.30296621562E+02  0.19181850456E+02  0.52893413505E+02  0.63927299225E+02  0.17770000000E+01 0.  1.
</event>
<event>
 6    1  0.3365733E-003  0.5044806E+03  0.7546771E-02  0.9389840E-01
        -11   -1    0    0    0    0  0.00000000000E+00  0.00000000000E+00  0.50000000000E+03  0.50000000000E+03  0.00000000000E+00 0. -1.
         11   -1    0    0    0    0 -0.00000000000E+00 -0.00000000000E+00 -0.50000000000E+03  0.50000000000E+03  0.00000000000E+00 0.  1.
        -11    1    1    2    0    0 -0.37513326931E+01 -0.66344419938E+01  0.49546080747E+03  0.49551942450E+03  0.00000000000E+00 0. -1.
         11    1    1    2    0    0 -0.85500286490E+01  0.65732282279E+01 -0.47120597252E+03  0.47132937407E+03  0.00000000000E+00 0.  1.
        -15    1    1    2    0    0  0.43395047627E+01  0.71368718244E+01 -0.25561730600E+01  0.89139211762E+01  0.17770000000E+01 0. -1.
         15    1    1    2    0    0  0.79618565794E+01 -0.70756580584E+01 -0.21698661893E+02  0.24237280254E+02  0.17770000000E+01 0. -1.
</event>
<event>
 6    1  0.3365733E-003  0.5000844E+03  0.7546771E-02  0.9399621E-01
        -11   -1    0    0    0    0  0.00000000000E+00  0.00000000000E+00  0.50000000000E+03  0.50000000000E+03  0.00000000000E+00 0. -1.
         11   -1    0    0    0    0 -0.00000000000E+00 -0.00000000000E+00 -0.50000000000E+03  0.50000000000E+03  0.00000000000E+00 0.  1.
        -11    1    1    2    0    0 -0.10494937864E+01  0.55025909411E+00  0.46399716407E+02  0.46414845739E+02  0.00000000000E+00 0. -1.
         11    1    1    2    0    0  0.96036308696E+01 -0.75809152139E+00 -0.49982275532E+03  0.49991558404E+03  0.00000000000E+00 0.  1.
        -15    1    1    2    0    0  0.16677602116E+01  0.64384121914E+00  0.26347099150E+02  0.26467401048E+02  0.17770000000E+01 0. -1.
         15    1    1    2    0    0 -0.10221897295E+02 -0.43600879186E+00  0.42707593977E+03  0.42720216917E+03  0.17770000000E+01 0. -1.
</event>
<event>
 6    1  0.3365733E-003  0.5040502E+03  0.7546771E-02  0.9390792E-01
        -11   -1    0    0    0    0  0.00000000000E+00  0.00000000000E+00  0.50000000000E+03  0.50000000000E+03  0.00000000000E+00 0.  1.
         11   -1    0    0    0    0 -0.00000000000E+00 -0.00000000000E+00 -0.50000000000E+03  0.50000000000E+03  0.00000000000E+00 0.  1.
        -11    1    1    2    0    0 -0.62912986442E+01  0.13258193850E+02  0.49573259590E+03  0.49594976236E+03  0.00000000000E+00 0.  1.
         11    1    1    2    0    0  0.14360253355E+02  0.32623496136E+00 -0.47350761997E+03  0.47372543680E+03  0.00000000000E+00 0.  1.
        -15    1    1    2    0    0  0.12313268190E+00 -0.96207343242E+00 -0.11704593565E+02  0.11878383158E+02  0.17770000000E+01 0. -1.
         15    1    1    2    0    0 -0.81920873929E+01 -0.12622355379E+02 -0.10520382365E+02  0.18446417681E+02  0.17770000000E+01 0.  1.
</event>
<event>
 6    1  0.3365733E-003  0.5083434E+03  0.7546771E-02  0.9381332E-01
        -11   -1    0    0    0    0  0.00000000000E+00  0.00000000000E+00  0.50000000000E+03  0.50000000000E+03  0.00000000000E+00 0. -1.
         11   -1    0    0    0    0 -0.00000000000E+00 -0.00000000000E+00 -0.50000000000E+03  0.50000000000E+03  0.00000000000E+00 0. -1.
        -11    1    1    2    0    0 -0.36355903430E+01 -0.39009779103E+02  0.39314522873E+03  0.39509258568E+03  0.00000000000E+00 0. -1.
         11    1    1    2    0    0  0.62567977611E+01 -0.43331008729E+01 -0.49159769603E+03  0.49165660580E+03  0.00000000000E+00 0. -1.
        -15    1    1    2    0    0  0.51682499199E+00  0.17410446864E+01  0.46624330067E+02  0.46693513766E+02  0.17770000000E+01 0.  1.
         15    1    1    2    0    0 -0.31380324101E+01  0.41601835289E+02  0.51828137238E+02  0.66557294757E+02  0.17770000000E+01 0. -1.
</event>
<event>
 6    1  0.3365733E-003  0.5034631E+03  0.7546771E-02  0.9392094E-01
        -11   -1    0    0    0    0  0.00000000000E+00  0.00000000000E+00  0.50000000000E+03  0.50000000000E+03  0.00000000000E+00 0. -1.
         11   -1    0    0    0    0 -0.00000000000E+00 -0.00000000000E+00 -0.50000000000E+03  0.50000000000E+03  0.00000000000E+00 0.  1.
        -11    1    1    2    0    0 -0.98245977934E+01 -0.11886509988E+01  0.38440256787E+03  0.38452993355E+03  0.00000000000E+00 0. -1.
         11    1    1    2    0    0  0.69530450412E+01 -0.40768896848E+00 -0.49648805104E+03  0.49653690283E+03  0.00000000000E+00 0.  1.
        -15    1    1    2    0    0 -0.83722243664E+01  0.15202054647E-02  0.27420944982E+01  0.89872662356E+01  0.17770000000E+01 0. -1.
         15    1    1    2    0    0  0.11243777119E+02  0.15948197618E+01  0.10934338868E+03  0.10994589738E+03  0.17770000000E+01 0. -1.
</event>
<event>
 6    1  0.3365733E-003  0.5011166E+03  0.7546771E-02  0.9397315E-01
        -11   -1    0    0    0    0  0.00000000000E+00  0.00000000000E+00  0.50000000000E+03  0.50000000000E+03  0.00000000000E+00 0.  1.
         11   -1    0    0    0    0 -0.00000000000E+00 -0.00000000000E+00 -0.50000000000E+03  0.50000000000E+03  0.00000000000E+00 0.  1.
        -11    1    1    2    0    0  0.73651903770E+01 -0.75658939266E+01  0.49877159959E+03  0.49888335043E+03  0.00000000000E+00 0.  1.
         11    1    1    2    0    0  0.24209532672E+01 -0.48227800058E+01 -0.37978675252E+03  0.37982508818E+03  0.00000000000E+00 0.  1.
        -15    1    1    2    0    0 -0.53653297772E+01  0.41062205605E+01 -0.12034822049E+02  0.13915548198E+02  0.17770000000E+01 0.  1.
         15    1    1    2    0    0 -0.44208138670E+01  0.82824533719E+01 -0.10695002502E+03  0.10737601319E+03  0.17770000000E+01 0. -1.
</event>
<event>
 6    1  0.3365733E-003  0.5100056E+03  0.7546771E-02  0.9377696E-01
        -11   -1    0    0    0    0  0.00000000000E+00  0.00000000000E+00  0.50000000000E+03  0.50000000000E+03  0.00000000000E+00 0.  1.
         11   -1    0    0    0    0 -0.00000000000E+00 -0.00000000000E+00 -0.50000000000E+03  0.50000000000E+03  0.00000000000E+00 0. -1.
        -11    1    1    2    0    0 -0.67650498522E+00 -0.70807402537E+01  0.47956355479E+03  0.47961630250E+03  0.00000000000E+00 0.  1.
         11    1    1    2    0    0 -0.12069066580E+02 -0.95823407382E+00 -0.48984478303E+03  0.48999437960E+03  0.00000000000E+00 0. -1.
        -15    1    1    2    0    0  0.17893565585E+01  0.59797679488E+01  0.16336997719E+02  0.17578812391E+02  0.17770000000E+01 0.  1.
         15    1    1    2    0    0  0.10956215006E+02  0.20592063787E+01 -0.60557694805E+01  0.12810505500E+02  0.17770000000E+01 0. -1.
</event>
<event>
 6    1  0.3365733E-003  0.5023556E+03  0.7546771E-02  0.9394554E-01
        -11   -1    0    0    0    0  0.00000000000E+00  0.00000000000E+00  0.50000000000E+03  0.50000000000E+03  0.00000000000E+00 0.  1.
         11   -1    0    0    0    0 -0.00000000000E+00 -0.00000000000E+00 -0.50000000000E+03  0.50000000000E+03  0.00000000000E+00 0.  1.
        -11    1    1    2    0    0 -0.52741884865E+01  0.98276244550E+01  0.21955985780E+03  0.21984296765E+03  0.00000000000E+00 0.  1.
         11    1    1    2    0    0 -0.21795668233E+02  0.31971928933E+01 -0.49715662678E+03  0.49764443607E+03  0.00000000000E+00 0.  1.
        -15    1    1    2    0    0  0.32884427988E+02 -0.10558621020E+01  0.24579162185E+03  0.24799028116E+03  0.17770000000E+01 0.  1.
         15    1    1    2    0    0 -0.58145712686E+01 -0.11968955246E+02  0.31805147127E+02  0.34522315124E+02  0.17770000000E+01 0. -1.
</event>
<event>
 6    1  0.3365733E-003  0.5008836E+03  0.7546771E-02  0.9397835E-01
        -11   -1    0    0    0    0  0.00000000000E+00  0.00000000000E+00  0.50000000000E+03  0.50000000000E+03  0.00000000000E+00 0. -1.
         11   -1    0    0    0    0 -0.00000000000E+00 -0.00000000000E+00 -0.50000000000E+03  0.50000000000E+03  0.00000000000E+00 0. -1.
        -11    1    1    2    0    0 -0.23507417399E+02  0.14962456970E+02  0.49833790394E+03  0.49911635948E+03  0.00000000000E+00 0. -1.
         11    1    1    2    0    0 -0.94753666303E+00  0.19986507481E+01 -0.32904315460E+02  0.32978574961E+02  0.00000000000E+00 0. -1.
        -15    1    1    2    0    0  0.72759442978E+01  0.57729684646E+01 -0.29074962793E+03  0.29090336952E+03  0.17770000000E+01 0. -1.
         15    1    1    2    0    0  0.17179009764E+02 -0.22734076183E+02 -0.17468396056E+03  0.17700169604E+03  0.17770000000E+01 0. -1.
</event>
<event>
 6    1  0.3365733E-003  0.4863323E+03  0.7546771E-02  0.9430922E-01
        -11   -1    0    0    0    0  0.00000000000E+00  0.00000000000E+00  0.50000000000E+03  0.50000000000E+03  0.00000000000E+00 0. -1.
         11   -1    0    0    0    0 -0.00000000000E+00 -0.00000000000E+00 -0.50000000000E+03  0.50000000000E+03  0.00000000000E+00 0. -1.
        -11    1    1    2    0    0 -0.75679375210E+01  0.15147332173E+01  0.48371278749E+03  0.48377435740E+03  0.00000000000E+00 0. -1.
         11    1    1    2    0    0 -0.29523308752E+01  0.59373788019E+01 -0.48894484003E+03  0.48898980083E+03  0.00000000000E+00 0. -1.
        -15    1    1    2    0    0  0.16056308240E+02 -0.91425967449E+01  0.84317915696E+01  0.20387372258E+02  0.17770000000E+01 0. -1.
         15    1    1    2    0    0 -0.55360398434E+01  0.16904847257E+01 -0.31997390313E+01  0.68484695096E+01  0.17770000000E+01 0. -1.
</event>
<event>
 6    1  0.3365733E-003  0.5066299E+03  0.7546771E-02  0.9385096E-01
        -11   -1    0    0    0    0  0.00000000000E+00  0.00000000000E+00  0.50000000000E+03  0.50000000000E+03  0.00000000000E+00 0. -1.
         11   -1    0    0    0    0 -0.00000000000E+00 -0.00000000000E+00 -0.50000000000E+03  0.50000000000E+03  0.00000000000E+00 0. -1.
        -11    1    1    2    0    0 -0.74268411275E+00 -0.77585279685E+01  0.26478809490E+03  0.26490277751E+03  0.00000000000E+00 0. -1.
         11    1    1    2    0    0 -0.13099625549E+02  0.35314689839E+01 -0.49318350069E+03  0.49337008099E+03  0.00000000000E+00 0. -1.
        -15    1    1    2    0    0 -0.15534154192E+01  0.42569598828E+01  0.22599142162E+03  0.22604383464E+03  0.17770000000E+01 0. -1.
         15    1    1    2    0    0  0.15395725081E+02 -0.29900898268E-01  0.24039841791E+01  0.15683306850E+02  0.17770000000E+01 0. -1.
</event>
<event>
 6    1  0.3365733E-003  0.5115256E+03  0.7546771E-02  0.9374383E-01
        -11   -1    0    0    0    0  0.00000000000E+00  0.00000000000E+00  0.50000000000E+03  0.50000000000E+03  0.00000000000E+00 0. -1.
         11   -1    0    0    0    0 -0.00000000000E+00 -0.00000000000E+00 -0.50000000000E+03  0.50000000000E+03  0.00000000000E+00 0. -1.
        -11    1    1    2    0    0  0.88259975635E+01 -0.38365784804E+00  0.43776467644E+03  0.43785380821E+03  0.00000000000E+00 0. -1.
         11    1    1    2    0    0 -0.10328035625E+02  0.27573254568E+01 -0.48835744977E+03  0.48847443117E+03  0.00000000000E+00 0. -1.
        -15    1    1    2    0    0 -0.11402214744E+02  0.47715733421E+01  0.56365818928E+02  0.57732501121E+02  0.17770000000E+01 0.  1.
         15    1    1    2    0    0  0.12904252805E+02 -0.71452409509E+01 -0.57730456013E+01  0.15939259494E+02  0.17770000000E+01 0.  1.
</event>
<event>
 6    1  0.3365733E-003  0.5268301E+03  0.7546771E-02  0.9341699E-01
        -11   -1    0    0    0    0  0.00000000000E+00  0.00000000000E+00  0.50000000000E+03  0.50000000000E+03  0.00000000000E+00 0. -1.
         11   -1    0    0    0    0 -0.00000000000E+00 -0.00000000000E+00 -0.50000000000E+03  0.50000000000E+03  0.00000000000E+00 0. -1.
        -11    1    1    2    0    0 -0.14478592683E+02 -0.64943365773E+01  0.45180306753E+03  0.45208164957E+03  0.00000000000E+00 0. -1.
         11    1    1    2    0    0  0.57301049145E+01 -0.89632542624E+01 -0.47305031836E+03  0.47316992480E+03  0.00000000000E+00 0. -1.
        -15    1    1    2    0    0 -0.13133197893E+02 -0.93467031222E+01  0.35238002095E+02  0.38790672420E+02  0.17770000000E+01 0. -1.
         15    1    1    2    0    0  0.21881685661E+02  0.24804293962E+02 -0.13990751258E+02  0.35957753213E+02  0.17770000000E+01 0.  1.
</event>
<event>
 6    1  0.3365733E-003  0.4032758E+03  0.7546771E-02  0.9646771E-01
        -11   -1    0    0    0    0  0.00000000000E+00  0.00000000000E+00  0.50000000000E+03  0.50000000000E+03  0.00000000000E+00 0. -1.
         11   -1    0    0    0    0 -0.00000000000E+00 -0.00000000000E+00 -0.50000000000E+03  0.50000000000E+03  0.00000000000E+00 0.  1.
        -11    1    1    2    0    0  0.12964483312E+02 -0.69451688657E+02  0.40950332775E+03  0.41555335436E+03  0.00000000000E+00 0. -1.
         11    1    1    2    0    0  0.46137437686E+02 -0.68732560062E+01 -0.39414883068E+03  0.39689949047E+03  0.00000000000E+00 0.  1.
        -15    1    1    2    0    0 -0.16077684150E+02  0.32137825192E+02  0.72065203990E+02  0.80547396549E+02  0.17770000000E+01 0.  1.
         15    1    1    2    0    0 -0.43024236848E+02  0.44187119471E+02 -0.87419701053E+02  0.10699975862E+03  0.17770000000E+01 0. -1.
</event>
<event>
 6    1  0.3365733E-003  0.5034278E+03  0.7546771E-02  0.9392172E-01
        -11   -1    0    0    0    0  0.00000000000E+00  0.00000000000E+00  0.50000000000E+03  0.50000000000E+03  0.00000000000E+00 0. -1.
         11   -1    0    0    0    0 -0.00000000000E+00 -0.00000000000E+00 -0.50000000000E+03  0.50000000000E+03  0.00000000000E+00 0.  1.
        -11    1    1    2    0    0  0.80402777990E+01  0.16773007831E+02  0.49622375379E+03  0.49657224418E+03  0.00000000000E+00 0. -1.
         11    1    1    2    0    0 -0.94303718867E+00 -0.81402506581E+01 -0.35131880070E+03  0.35141436045E+03  0.00000000000E+00 0.  1.
        -15    1    1    2    0    0  0.18363404345E+02 -0.58444969570E+00 -0.46366070030E+02  0.49905173876E+02  0.17770000000E+01 0.  1.
         15    1    1    2    0    0 -0.25460644955E+02 -0.80483074773E+01 -0.98538883057E+02  0.10210822150E+03  0.17770000000E+01 0. -1.
</event>
<event>
 6    1  0.3365733E-003  0.5000395E+03  0.7546771E-02  0.9399721E-01
        -11   -1    0    0    0    0  0.00000000000E+00  0.00000000000E+00  0.50000000000E+03  0.50000000000E+03  0.00000000000E+00 0. -1.
         11   -1    0    0    0    0 -0.00000000000E+00 -0.00000000000E+00 -0.50000000000E+03  0.50000000000E+03  0.00000000000E+00 0. -1.
        -11    1    1    2    0    0  0.13674546206E+01 -0.11796339491E+01  0.70158880871E+02  0.70182120469E+02  0.00000000000E+00 0. -1.
         11    1    1    2    0    0 -0.78698826612E+01 -0.47929296225E+00 -0.49989828827E+03  0.49996046183E+03  0.00000000000E+00 0. -1.
        -15    1    1    2    0    0  0.65506386957E+01  0.74566886202E+00  0.39600418594E+03  0.39606305041E+03  0.17770000000E+01 0. -1.
         15    1    1    2    0    0 -0.48210655103E-01  0.91325804938E+00  0.33735221460E+02  0.33794367289E+02  0.17770000000E+01 0.  1.
</event>
<event>
 6    1  0.3365733E-003  0.5076188E+03  0.7546771E-02  0.9382922E-01
        -11   -1    0    0    0    0  0.00000000000E+00  0.00000000000E+00  0.50000000000E+03  0.50000000000E+03  0.00000000000E+00 0. -1.
         11   -1    0    0    0    0 -0.00000000000E+00 -0.00000000000E+00 -0.50000000000E+03  0.50000000000E+03  0.00000000000E+00 0.  1.
        -11    1    1    2    0    0 -0.79887564270E+01  0.11331284961E+02  0.49218598443E+03  0.49238121565E+03  0.00000000000E+00 0. -1.
         11    1    1    2    0    0  0.97268136252E+01 -0.17228095714E+00 -0.22471518686E+03  0.22492566725E+03  0.00000000000E+00 0.  1.
        -15    1    1    2    0    0  0.91013745319E+01 -0.11230140516E+02  0.42700946488E+00  0.14570214153E+02  0.17770000000E+01 0.  1.
         15    1    1    2    0    0 -0.10839431730E+02  0.71136512412E-01 -0.26789780704E+03  0.26812290295E+03  0.17770000000E+01 0.  1.
</event>
<event>
 6    1  0.3365733E-003  0.5014369E+03  0.7546771E-02  0.9396600E-01
        -11   -1    0    0    0    0  0.00000000000E+00  0.00000000000E+00  0.50000000000E+03  0.50000000000E+03  0.00000000000E+00 0. -1.
         11   -1    0    0    0    0 -0.00000000000E+00 -0.00000000000E+00 -0.50000000000E+03  0.50000000000E+03  0.00000000000E+00 0.  1.
        -11    1    1    2    0    0  0.21689352555E+02  0.48055715818E+01  0.49806786649E+03  0.49856305635E+03  0.00000000000E+00 0. -1.
         11    1    1    2    0    0 -0.21145575453E+01 -0.92772981025E+01 -0.35107917095E+03  0.35120809201E+03  0.00000000000E+00 0.  1.
        -15    1    1    2    0    0 -0.22047792786E+02  0.54233853868E+00 -0.13947737076E+03  0.14122143598E+03  0.17770000000E+01 0.  1.
         15    1    1    2    0    0  0.24729977764E+01  0.39293879820E+01 -0.75113247731E+01  0.90074156539E+01  0.17770000000E+01 0. -1.
</event>
<event>
 6    1  0.3365733E-003  0.5008516E+03  0.7546771E-02  0.9397906E-01
        -11   -1    0    0    0    0  0.00000000000E+00  0.00000000000E+00  0.50000000000E+03  0.50000000000E+03  0.00000000000E+00 0.  1.
         11   -1    0    0    0    0 -0.00000000000E+00 -0.00000000000E+00 -0.50000000000E+03  0.50000000000E+03  0.00000000000E+00 0. -1.
        -11    1    1    2    0    0 -0.11661049876E+02 -0.72595470016E+01  0.49895936827E+03  0.49914840708E+03  0.00000000000E+00 0.  1.
         11    1    1    2    0    0  0.77030935994E-01  0.10757853793E+01 -0.78148694983E+02  0.78156137158E+02  0.00000000000E+00 0. -1.
        -15    1    1    2    0    0  0.78477804207E+01  0.21468202396E+02 -0.29555119648E+03  0.29643909803E+03  0.17770000000E+01 0. -1.
         15    1    1    2    0    0  0.37362385198E+01 -0.15284440774E+02 -0.12525947681E+03  0.12625635773E+03  0.17770000000E+01 0.  1.
</event>
<event>
 6    1  0.3365733E-003  0.5023134E+03  0.7546771E-02  0.9394648E-01
        -11   -1    0    0    0    0  0.00000000000E+00  0.00000000000E+00  0.50000000000E+03  0.50000000000E+03  0.00000000000E+00 0. -1.
         11   -1    0    0    0    0 -0.00000000000E+00 -0.00000000000E+00 -0.50000000000E+03  0.50000000000E+03  0.00000000000E+00 0. -1.
        -11    1    1    2    0    0  0.46145739760E+01  0.55468090720E+01  0.49763429229E+03  0.49768659842E+03  0.00000000000E+00 0. -1.
         11    1    1    2    0    0  0.48050389568E+01  0.31065363880E+01 -0.25037787785E+03  0.25044324843E+03  0.00000000000E+00 0. -1.
        -15    1    1    2    0    0  0.36378793683E+01 -0.23910158998E+02 -0.85842151368E+02  0.89201807997E+02  0.17770000000E+01 0.  1.
         15    1    1    2    0    0 -0.13057492301E+02  0.15256813538E+02 -0.16141426306E+03  0.16266834515E+03  0.17770000000E+01 0. -1.
</event>
<event>
 6    1  0.3365733E-003  0.5102235E+03  0.7546771E-02  0.9377220E-01
        -11   -1    0    0    0    0  0.00000000000E+00  0.00000000000E+00  0.50000000000E+03  0.50000000000E+03  0.00000000000E+00 0. -1.
         11   -1    0    0    0    0 -0.00000000000E+00 -0.00000000000E+00 -0.50000000000E+03  0.50000000000E+03  0.00000000000E+00 0. -1.
        -11    1    1    2    0    0  0.98463512882E+01 -0.23110516631E+01  0.48967201949E+03  0.48977645745E+03  0.00000000000E+00 0. -1.
         11    1    1    2    0    0 -0.97702285609E+01 -0.54440350199E+00 -0.47744991960E+03  0.47755018528E+03  0.00000000000E+00 0. -1.
        -15    1    1    2    0    0 -0.26435830365E+01  0.71280362606E+01 -0.21010767375E+02  0.22414448619E+02  0.17770000000E+01 0. -1.
         15    1    1    2    0    0  0.25674603092E+01 -0.42725810954E+01  0.87886674778E+01  0.10258908650E+02  0.17770000000E+01 0.  1.
</event>
<event>
 6    1  0.3365733E-003  0.5086481E+03  0.7546771E-02  0.9380664E-01
        -11   -1    0    0    0    0  0.00000000000E+00  0.00000000000E+00  0.50000000000E+03  0.50000000000E+03  0.00000000000E+00 0. -1.
         11   -1    0    0    0    0 -0.00000000000E+00 -0.00000000000E+00 -0.50000000000E+03  0.50000000000E+03  0.00000000000E+00 0.  1.
        -11    1    1    2    0    0  0.22758878337E+02 -0.23713462581E+02  0.36888673100E+03  0.37034809998E+03  0.00000000000E+00 0. -1.
         11    1    1    2    0    0  0.14106549249E+02 -0.47013116200E+01 -0.49112689326E+03  0.49135193329E+03  0.00000000000E+00 0.  1.
        -15    1    1    2    0    0 -0.14687943707E+02  0.95091476758E+01  0.10016571032E+03  0.10169801784E+03  0.17770000000E+01 0. -1.
         15    1    1    2    0    0 -0.22177483879E+02  0.18905626525E+02  0.22074451939E+02  0.36601948895E+02  0.17770000000E+01 0.  1.
</event>
<event>
 6    1  0.3365733E-003  0.5006120E+03  0.7546771E-02  0.9398441E-01
        -11   -1    0    0    0    0  0.00000000000E+00  0.00000000000E+00  0.50000000000E+03  0.50000000000E+03  0.00000000000E+00 0.  1.
         11   -1    0    0    0    0 -0.00000000000E+00 -0.00000000000E+00 -0.50000000000E+03  0.50000000000E+03  0.00000000000E+00 0.  1.
        -11    1    1    2    0    0  0.26325978719E+00  0.21528177607E+01  0.10113740389E+03  0.10116065636E+03  0.00000000000E+00 0.  1.
         11    1    1    2    0    0  0.19028684788E+02  0.19389324323E+02 -0.49864855648E+03  0.49938804513E+03  0.00000000000E+00 0.  1.
        -15    1    1    2    0    0 -0.24356453765E+02 -0.20334662328E+02  0.27742296590E+03  0.27923716634E+03  0.17770000000E+01 0.  1.
         15    1    1    2    0    0  0.50645091902E+01 -0.12074797563E+01  0.12008818669E+03  0.12021413216E+03  0.17770000000E+01 0. -1.
</event>
<event>
 6    1  0.3365733E-003  0.5047505E+03  0.7546771E-02  0.9389242E-01
        -11   -1    0    0    0    0  0.00000000000E+00  0.00000000000E+00  0.50000000000E+03  0.50000000000E+03  0.00000000000E+00 0. -1.
         11   -1    0    0    0    0 -0.00000000000E+00 -0.00000000000E+00 -0.50000000000E+03  0.50000000000E+03  0.00000000000E+00 0.  1.
        -11    1    1    2    0    0 -0.35092512201E+01 -0.57939532567E+01  0.47805842067E+03  0.47810640898E+03  0.00000000000E+00 0. -1.
         11    1    1    2    0    0  0.13748441910E+01 -0.80865202480E+01 -0.49518158935E+03  0.49524952139E+03  0.00000000000E+00 0.  1.
        -15    1    1    2    0    0  0.28568465044E+01  0.19278098897E+01  0.13443529539E+02  0.13991577409E+02  0.17770000000E+01 0. -1.
         15    1    1    2    0    0 -0.72243947526E+00  0.11952663615E+02  0.36796391421E+01  0.12652492225E+02  0.17770000000E+01 0.  1.
</event>
<event>
 6    1  0.3365733E-003  0.5004320E+03  0.7546771E-02  0.9398844E-01
        -11   -1    0    0    0    0  0.00000000000E+00  0.00000000000E+00  0.50000000000E+03  0.50000000000E+03  0.00000000000E+00 0. -1.
         11   -1    0    0    0    0 -0.00000000000E+00 -0.00000000000E+00 -0.50000000000E+03  0.50000000000E+03  0.00000000000E+00 0.  1.
        -11    1    1    2    0    0 -0.24650138953E+01  0.69220665802E+01  0.49951398071E+03  0.49956802162E+03  0.00000000000E+00 0. -1.
         11    1    1    2    0    0 -0.94664790626E+00 -0.78698913701E+00 -0.78443838066E+01  0.79403936594E+01  0.00000000000E+00 0.  1.
        -15    1    1    2    0    0 -0.43676216265E+01  0.45142921613E+01 -0.33572651273E+02  0.34201397558E+02  0.17770000000E+01 0. -1.
         15    1    1    2    0    0  0.77792834280E+01 -0.10649369604E+02 -0.45809694563E+03  0.45829018716E+03  0.17770000000E+01 0.  1.
</event>
<event>
 6    1  0.3365733E-003  0.5336679E+03  0.7546771E-02  0.9327475E-01
        -11   -1    0    0    0    0  0.00000000000E+00  0.00000000000E+00  0.50000000000E+03  0.50000000000E+03  0.00000000000E+00 0.  1.
         11   -1    0    0    0    0 -0.00000000000E+00 -0.00000000000E+00 -0.50000000000E+03  0.50000000000E+03  0.00000000000E+00 0. -1.
        -11    1    1    2    0    0 -0.22675971479E+01  0.49088205162E+01  0.39631063289E+03  0.39634751955E+03  0.00000000000E+00 0.  1.
         11    1    1    2    0    0  0.30874726298E+02  0.35366161762E+02 -0.46396298335E+03  0.46633213919E+03  0.00000000000E+00 0. -1.
        -15    1    1    2    0    0  0.32440238008E+02 -0.47974743685E+02  0.32414546021E+02  0.66391306633E+02  0.17770000000E+01 0.  1.
         15    1    1    2    0    0 -0.61047367158E+02  0.76997614071E+01  0.35237804438E+02  0.70929034628E+02  0.17770000000E+01 0. -1.
</event>
<event>
 6    1  0.3365733E-003  0.5005347E+03  0.7546771E-02  0.9398614E-01
        -11   -1    0    0    0    0  0.00000000000E+00  0.00000000000E+00  0.50000000000E+03  0.50000000000E+03  0.00000000000E+00 0.  1.
         11   -1    0    0    0    0 -0.00000000000E+00 -0.00000000000E+00 -0.50000000000E+03  0.50000000000E+03  0.00000000000E+00 0. -1.
        -11    1    1    2    0    0 -0.39254282353E+01  0.90373826840E+01  0.49936805639E+03  0.49946525306E+03  0.00000000000E+00 0.  1.
         11    1    1    2    0    0  0.21408709427E+01 -0.58959026687E+01 -0.44579639831E+03  0.44584052502E+03  0.00000000000E+00 0. -1.
        -15    1    1    2    0    0 -0.24758229878E+01  0.77976835796E+00 -0.63578037129E+01  0.70934572115E+01  0.17770000000E+01 0.  1.
         15    1    1    2    0    0  0.42603802804E+01 -0.39212483733E+01 -0.47213854360E+02  0.47600764715E+02  0.17770000000E+01 0. -1.
</event>
<event>
 6    1  0.3365733E-003  0.5022883E+03  0.7546771E-02  0.9394704E-01
        -11   -1    0    0    0    0  0.00000000000E+00  0.00000000000E+00  0.50000000000E+03  0.50000000000E+03  0.00000000000E+00 0. -1.
         11   -1    0    0    0    0 -0.00000000000E+00 -0.00000000000E+00 -0.50000000000E+03  0.50000000000E+03  0.00000000000E+00 0.  1.
        -11    1    1    2    0    0  0.64750098368E+01  0.18333088100E+01  0.45457552778E+03  0.45462533720E+03  0.00000000000E+00 0. -1.
         11    1    1    2    0    0 -0.11288951655E+02 -0.82117207291E+01 -0.49751587568E+03  0.49771168294E+03  0.00000000000E+00 0.  1.
        -15    1    1    2    0    0 -0.33688052184E+01 -0.14787492235E+01  0.10376187573E+01  0.42154394256E+01  0.17770000000E+01 0.  1.
         15    1    1    2    0    0  0.81827470369E+01  0.78571611427E+01  0.41902729145E+02  0.43447540426E+02  0.17770000000E+01 0. -1.
</event>
<event>
 6    1  0.3365733E-003  0.5010796E+03  0.7546771E-02  0.9397397E-01
        -11   -1    0    0    0    0  0.00000000000E+00  0.00000000000E+00  0.50000000000E+03  0.50000000000E+03  0.00000000000E+00 0.  1.
         11   -1    0    0    0    0 -0.00000000000E+00 -0.00000000000E+00 -0.50000000000E+03  0.50000000000E+03  0.00000000000E+00 0. -1.
        -11    1    1    2    0    0 -0.27977453492E+01  0.26704322582E+01  0.25756350738E+03  0.25759254438E+03  0.00000000000E+00 0.  1.
         11    1    1    2    0    0  0.10863138573E+02 -0.67963199644E+01 -0.49875579522E+03  0.49892037542E+03  0.00000000000E+00 0. -1.
        -15    1    1    2    0    0 -0.67036346178E+01  0.12650030578E+02  0.48667278592E+02  0.50760454345E+02  0.17770000000E+01 0. -1.
         15    1    1    2    0    0 -0.13617586064E+01 -0.85241428722E+01  0.19252500925E+03  0.19272662585E+03  0.17770000000E+01 0.  1.
</event>
<event>
 6    1  0.3365733E-003  0.5113456E+03  0.7546771E-02  0.9374775E-01
        -11   -1    0    0    0    0  0.00000000000E+00  0.00000000000E+00  0.50000000000E+03  0.50000000000E+03  0.00000000000E+00 0. -1.
         11   -1    0    0    0    0 -0.00000000000E+00 -0.00000000000E+00 -0.50000000000E+03  0.50000000000E+03  0.00000000000E+00 0.  1.
        -11    1    1    2    0    0 -0.38265062291E+02  0.39245021505E+01  0.41396291465E+03  0.41574621035E+03  0.00000000000E+00 0. -1.
         11    1    1    2    0    0 -0.35905269681E+01 -0.83902813463E+01 -0.48856916720E+03  0.48865439714E+03  0.00000000000E+00 0.  1.
        -15    1    1    2    0    0  0.32072847337E+02  0.15028336502E+01  0.78252631019E+02  0.84602352424E+02  0.17770000000E+01 0. -1.
         15    1    1    2    0    0  0.97827419225E+01  0.29629455456E+01 -0.36463784725E+01  0.10997040092E+02  0.17770000000E+01 0.  1.
</event>
<event>
 6    1  0.3365733E-003  0.5147167E+03  0.7546771E-02  0.9367469E-01
        -11   -1    0    0    0    0  0.00000000000E+00  0.00000000000E+00  0.50000000000E+03  0.50000000000E+03  0.00000000000E+00 0.  1.
         11   -1    0    0    0    0 -0.00000000000E+00 -0.00000000000E+00 -0.50000000000E+03  0.50000000000E+03  0.00000000000E+00 0. -1.
        -11    1    1    2    0    0 -0.58382226864E+01  0.47947734875E+01  0.48522450175E+03  0.48528331086E+03  0.00000000000E+00 0.  1.
         11    1    1    2    0    0  0.97056148825E+01 -0.53053659723E+01 -0.22664804995E+03  0.22691779219E+03  0.00000000000E+00 0. -1.
        -15    1    1    2    0    0 -0.14009775921E+02  0.11432962510E+02 -0.26894319473E+03  0.26955627645E+03  0.17770000000E+01 0. -1.
         15    1    1    2    0    0  0.10142383725E+02 -0.10922370025E+02  0.10366742927E+02  0.18242620494E+02  0.17770000000E+01 0.  1.
</event>
<event>
 6    1  0.3365733E-003  0.5053004E+03  0.7546771E-02  0.9388027E-01
        -11   -1    0    0    0    0  0.00000000000E+00  0.00000000000E+00  0.50000000000E+03  0.50000000000E+03  0.00000000000E+00 0.  1.
         11   -1    0    0    0    0 -0.00000000000E+00 -0.00000000000E+00 -0.50000000000E+03  0.50000000000E+03  0.00000000000E+00 0. -1.
        -11    1    1    2    0    0  0.96546807267E+01  0.56620687621E+01  0.49457300477E+03  0.49469963506E+03  0.00000000000E+00 0.  1.
         11    1    1    2    0    0 -0.30009704721E+01 -0.69784948850E+01 -0.45608958847E+03  0.45615284491E+03  0.00000000000E+00 0. -1.
        -15    1    1    2    0    0 -0.35587475589E+01  0.41083087248E+01  0.36415958821E+01  0.67795157891E+01  0.17770000000E+01 0. -1.
         15    1    1    2    0    0 -0.30949626957E+01 -0.27918826018E+01 -0.42125012185E+02  0.42368004239E+02  0.17770000000E+01 0.  1.
</event>
<event>
 6    1  0.3365733E-003  0.4856503E+03  0.7546771E-02  0.9432503E-01
        -11   -1    0    0    0    0  0.00000000000E+00  0.00000000000E+00  0.50000000000E+03  0.50000000000E+03  0.00000000000E+00 0.  1.
         11   -1    0    0    0    0 -0.00000000000E+00 -0.00000000000E+00 -0.50000000000E+03  0.50000000000E+03  0.00000000000E+00 0.  1.
        -11    1    1    2    0    0 -0.82348311714E+00  0.75833459618E+01  0.48713119260E+03  0.48719091131E+03  0.00000000000E+00 0.  1.
         11    1    1    2    0    0 -0.74998221038E+01  0.33860442473E+01 -0.48414197074E+03  0.48421189624E+03  0.00000000000E+00 0.  1.
        -15    1    1    2    0    0  0.93261642605E+01  0.57546994347E+01  0.13918709823E+01  0.11188786316E+02  0.17770000000E+01 0.  1.
         15    1    1    2    0    0 -0.10028590395E+01 -0.16724089644E+02 -0.43810928470E+01  0.17408406136E+02  0.17770000000E+01 0. -1.
</event>
<event>
 6    1  0.3365733E-003  0.5220786E+03  0.7546771E-02  0.9351719E-01
        -11   -1    0    0    0    0  0.00000000000E+00  0.00000000000E+00  0.50000000000E+03  0.50000000000E+03  0.00000000000E+00 0. -1.
         11   -1    0    0    0    0 -0.00000000000E+00 -0.00000000000E+00 -0.50000000000E+03  0.50000000000E+03  0.00000000000E+00 0.  1.
        -11    1    1    2    0    0 -0.16226742699E+02 -0.22900263575E+01  0.47764036499E+03  0.47792140532E+03  0.00000000000E+00 0. -1.
         11    1    1    2    0    0 -0.40411170795E+01 -0.16634492149E+02 -0.17200273611E+03  0.17285247521E+03  0.00000000000E+00 0.  1.
        -15    1    1    2    0    0 -0.19723465338E+02  0.56984813650E+02 -0.28651056330E+02  0.66785663353E+02  0.17770000000E+01 0. -1.
         15    1    1    2    0    0  0.39991325116E+02 -0.38060295143E+02 -0.27698657254E+03  0.28244045611E+03  0.17770000000E+01 0.  1.
</event>
<event>
 6    1  0.3365733E-003  0.4070219E+03  0.7546771E-02  0.9635878E-01
        -11   -1    0    0    0    0  0.00000000000E+00  0.00000000000E+00  0.50000000000E+03  0.50000000000E+03  0.00000000000E+00 0. -1.
         11   -1    0    0    0    0 -0.00000000000E+00 -0.00000000000E+00 -0.50000000000E+03  0.50000000000E+03  0.00000000000E+00 0. -1.
        -11    1    1    2    0    0  0.10697147952E+03 -0.10463242908E+03  0.27311085865E+03  0.31141673648E+03  0.00000000000E+00 0. -1.
         11    1    1    2    0    0 -0.13645342352E+01  0.52597855023E+02 -0.31246088316E+03  0.31685990565E+03  0.00000000000E+00 0. -1.
        -15    1    1    2    0    0 -0.13562035309E+01 -0.42159049040E+02 -0.13865640287E+03  0.14494130015E+03  0.17770000000E+01 0.  1.
         15    1    1    2    0    0 -0.10425074176E+03  0.94193623099E+02  0.17800642737E+03  0.22678205772E+03  0.17770000000E+01 0. -1.
</event>
<event>
 6    1  0.3365733E-003  0.5040006E+03  0.7546771E-02  0.9390902E-01
        -11   -1    0    0    0    0  0.00000000000E+00  0.00000000000E+00  0.50000000000E+03  0.50000000000E+03  0.00000000000E+00 0.  1.
         11   -1    0    0    0    0 -0.00000000000E+00 -0.00000000000E+00 -0.50000000000E+03  0.50000000000E+03  0.00000000000E+00 0. -1.
        -11    1    1    2    0    0  0.67610882390E+01  0.74783373935E+00  0.49595279465E+03  0.49599944163E+03  0.00000000000E+00 0.  1.
         11    1    1    2    0    0 -0.17571996627E+01  0.13159182065E+02 -0.47089149238E+03  0.47107860217E+03  0.00000000000E+00 0. -1.
        -15    1    1    2    0    0 -0.61958153676E+01 -0.88298786585E+01 -0.25137531905E+02  0.27411824537E+02  0.17770000000E+01 0. -1.
         15    1    1    2    0    0  0.11919267914E+01 -0.50771371455E+01  0.76229630356E-01  0.55101316706E+01  0.17770000000E+01 0.  1.
</event>
<event>
 6    1  0.3365733E-003  0.5267854E+03  0.7546771E-02  0.9341793E-01
        -11   -1    0    0    0    0  0.00000000000E+00  0.00000000000E+00  0.50000000000E+03  0.50000000000E+03  0.00000000000E+00 0.  1.
         11   -1    0    0    0    0 -0.00000000000E+00 -0.00000000000E+00 -0.50000000000E+03  0.50000000000E+03  0.00000000000E+00 0.  1.
        -11    1    1    2    0    0  0.39006071381E+00 -0.72223731755E+01  0.24350509439E+03  0.24361249110E+03  0.00000000000E+00 0.  1.
         11    1    1    2    0    0  0.18567240075E+02 -0.21407824253E+02 -0.47236535564E+03  0.47321460940E+03  0.00000000000E+00 0.  1.
        -15    1    1    2    0    0 -0.74409617327E+02 -0.11098589710E+02  0.19064994803E+03  0.20496470491E+03  0.17770000000E+01 0.  1.
         15    1    1    2    0    0  0.55452316538E+02  0.39728787138E+02  0.38210313210E+02  0.78208194593E+02  0.17770000000E+01 0. -1.
</event>
<event>
 6    1  0.3365733E-003  0.5488338E+03  0.7546771E-02  0.9296717E-01
        -11   -1    0    0    0    0  0.00000000000E+00  0.00000000000E+00  0.50000000000E+03  0.50000000000E+03  0.00000000000E+00 0. -1.
         11   -1    0    0    0    0 -0.00000000000E+00 -0.00000000000E+00 -0.50000000000E+03  0.50000000000E+03  0.00000000000E+00 0.  1.
        -11    1    1    2    0    0 -0.31814190075E+01  0.93248635255E+01  0.45105860067E+03  0.45116619526E+03  0.00000000000E+00 0. -1.
         11    1    1    2    0    0  0.79751146602E+01 -0.74442551846E+02 -0.29283818442E+03  0.30225733776E+03  0.00000000000E+00 0.  1.
        -15    1    1    2    0    0 -0.15635079593E+02  0.73317766772E+02 -0.19414584041E+03  0.20812427950E+03  0.17770000000E+01 0.  1.
         15    1    1    2    0    0  0.10841383940E+02 -0.82000784511E+01  0.35925424156E+02  0.38452187482E+02  0.17770000000E+01 0. -1.
</event>
<event>
 6    1  0.3365733E-003  0.5031111E+03  0.7546771E-02  0.9392875E-01
        -11   -1    0    0    0    0  0.00000000000E+00  0.00000000000E+00  0.50000000000E+03  0.50000000000E+03  0.00000000000E+00 0.  1.
         11   -1    0    0    0    0 -0.00000000000E+00 -0.00000000000E+00 -0.50000000000E+03  0.50000000000E+03  0.00000000000E+00 0.  1.
        -11    1    1    2    0    0 -0.48742554741E+01 -0.96519384329E+01  0.49677125612E+03  0.49688892038E+03  0.00000000000E+00 0.  1.
         11    1    1    2    0    0 -0.13522661070E+02 -0.78355231125E+01 -0.43142717574E+03  0.43171016405E+03  0.00000000000E+00 0.  1.
        -15    1    1    2    0    0  0.16167243121E+02  0.19349473423E+02 -0.59318746319E+02  0.64479867135E+02  0.17770000000E+01 0.  1.
         15    1    1    2    0    0  0.22296734229E+01 -0.18620118776E+01 -0.60253340685E+01  0.69210484352E+01  0.17770000000E+01 0. -1.
</event>
<event>
 6    1  0.3365733E-003  0.5024525E+03  0.7546771E-02  0.9394339E-01
        -11   -1    0    0    0    0  0.00000000000E+00  0.00000000000E+00  0.50000000000E+03  0.50000000000E+03  0.00000000000E+00 0.  1.
         11   -1    0    0    0    0 -0.00000000000E+00 -0.00000000000E+00 -0.50000000000E+03  0.50000000000E+03  0.00000000000E+00 0. -1.
        -11    1    1    2    0    0 -0.11574752513E+01  0.10777533898E+02  0.39393789410E+03  0.39408699470E+03  0.00000000000E+00 0.  1.
         11    1    1    2    0    0 -0.15185633869E+02 -0.10846325276E+02 -0.49719739428E+03  0.49754748027E+03  0.00000000000E+00 0. -1.
        -15    1    1    2    0    0  0.78557333246E+01 -0.48671083040E+01  0.94852405147E+02  0.95318087374E+02  0.17770000000E+01 0. -1.
         15    1    1    2    0    0  0.84873757959E+01  0.49358996819E+01  0.84070950301E+01  0.13047437657E+02  0.17770000000E+01 0.  1.
</event>
<event>
 6    1  0.3365733E-003  0.5010960E+03  0.7546771E-02  0.9397361E-01
        -11   -1    0    0    0    0  0.00000000000E+00  0.00000000000E+00  0.50000000000E+03  0.50000000000E+03  0.00000000000E+00 0.  1.
         11   -1    0    0    0    0 -0.00000000000E+00 -0.00000000000E+00 -0.50000000000E+03  0.50000000000E+03  0.00000000000E+00 0. -1.
        -11    1    1    2    0    0  0.36721169045E+01  0.86127368967E+01  0.49881613824E+03  0.49890400223E+03  0.00000000000E+00 0.  1.
         11    1    1    2    0    0 -0.11211422607E+02  0.71202866875E+00 -0.40316119210E+03  0.40331767850E+03  0.00000000000E+00 0. -1.
        -15    1    1    2    0    0  0.59778206107E+01  0.49736172616E+00 -0.68833054096E+02  0.69116776351E+02  0.17770000000E+01 0.  1.
         15    1    1    2    0    0  0.15614850914E+01 -0.98221272916E+01 -0.26821892045E+02  0.28661542912E+02  0.17770000000E+01 0. -1.
</event>
<event>
 6    1  0.3365733E-003  0.5075464E+03  0.7546771E-02  0.9383081E-01
        -11   -1    0    0    0    0  0.00000000000E+00  0.00000000000E+00  0.50000000000E+03  0.50000000000E+03  0.00000000000E+00 0.  1.
         11   -1    0    0    0    0 -0.00000000000E+00 -0.00000000000E+00 -0.50000000000E+03  0.50000000000E+03  0.00000000000E+00 0. -1.
        -11    1    1    2    0    0 -0.85883879117E+01 -0.54634430634E+01  0.49234838456E+03  0.49245359314E+03  0.00000000000E+00 0.  1.
         11    1    1    2    0    0  0.34732655220E+01  0.46857317747E+01 -0.43020711900E+03  0.43024665587E+03  0.00000000000E+00 0. -1.
        -15    1    1    2    0    0  0.40555702158E+01 -0.13748594533E+02 -0.60883103549E+02  0.62573009582E+02  0.17770000000E+01 0. -1.
         15    1    1    2    0    0  0.10595521739E+01  0.14526305822E+02 -0.12581620162E+01  0.14726741402E+02  0.17770000000E+01 0.  1.
</event>
<event>
 6    1  0.3365733E-003  0.5056603E+03  0.7546771E-02  0.9387233E-01
        -11   -1    0    0    0    0  0.00000000000E+00  0.00000000000E+00  0.50000000000E+03  0.50000000000E+03  0.00000000000E+00 0.  1.
         11   -1    0    0    0    0 -0.00000000000E+00 -0.00000000000E+00 -0.50000000000E+03  0.50000000000E+03  0.00000000000E+00 0. -1.
        -11    1    1    2    0    0  0.15209384136E+02  0.92262475310E+01  0.49401951875E+03  0.49433969486E+03  0.00000000000E+00 0.  1.
         11    1    1    2    0    0  0.68397879365E+01 -0.12663999198E+02 -0.45748565166E+03  0.45771200667E+03  0.00000000000E+00 0. -1.
        -15    1    1    2    0    0 -0.63576538128E+01  0.43755659293E+01 -0.29661104152E+02  0.30700230744E+02  0.17770000000E+01 0.  1.
         15    1    1    2    0    0 -0.15691518259E+02 -0.93781426222E+00 -0.68727629413E+01  0.17248067727E+02  0.17770000000E+01 0. -1.
</event>
<event>
 6    1  0.3365733E-003  0.5054614E+03  0.7546771E-02  0.9387672E-01
        -11   -1    0    0    0    0  0.00000000000E+00  0.00000000000E+00  0.50000000000E+03  0.50000000000E+03  0.00000000000E+00 0.  1.
         11   -1    0    0    0    0 -0.00000000000E+00 -0.00000000000E+00 -0.50000000000E+03  0.50000000000E+03  0.00000000000E+00 0.  1.
        -11    1    1    2    0    0 -0.53435575704E+00  0.12317602001E+02  0.27226279206E+03  0.27254180743E+03  0.00000000000E+00 0.  1.
         11    1    1    2    0    0 -0.89524659866E+01  0.16783053770E+01 -0.49445466938E+03  0.49453855606E+03  0.00000000000E+00 0.  1.
        -15    1    1    2    0    0 -0.75301388629E-01 -0.18995064734E+02  0.22110920568E+03  0.22193074758E+03  0.17770000000E+01 0.  1.
         15    1    1    2    0    0  0.95621231323E+01  0.49991573561E+01  0.10826716387E+01  0.10988888931E+02  0.17770000000E+01 0. -1.
</event>
<event>
 6    1  0.3365733E-003  0.4861499E+03  0.7546771E-02  0.9431345E-01
        -11   -1    0    0    0    0  0.00000000000E+00  0.00000000000E+00  0.50000000000E+03  0.50000000000E+03  0.00000000000E+00 0.  1.
         11   -1    0    0    0    0 -0.00000000000E+00 -0.00000000000E+00 -0.50000000000E+03  0.50000000000E+03  0.00000000000E+00 0.  1.
        -11    1    1    2    0    0 -0.85366181174E+01 -0.95671894327E+01  0.48719873235E+03  0.48736742788E+03  0.00000000000E+00 0.  1.
         11    1    1    2    0    0  0.77847681130E+01  0.99223864224E+00 -0.48490964956E+03  0.48497314914E+03  0.00000000000E+00 0.  1.
        -15    1    1    2    0    0  0.51733378171E+01 -0.16371995275E+01  0.96683629733E+01  0.11228482446E+02  0.17770000000E+01 0.  1.
         15    1    1    2    0    0 -0.44214878126E+01  0.10212150318E+02 -0.11957445757E+02  0.16430940528E+02  0.17770000000E+01 0. -1.
</event>
<event>
 6    1  0.3365733E-003  0.5007100E+03  0.7546771E-02  0.9398223E-01
        -11   -1    0    0    0    0  0.00000000000E+00  0.00000000000E+00  0.50000000000E+03  0.50000000000E+03  0.00000000000E+00 0. -1.
         11   -1    0    0    0    0 -0.00000000000E+00 -0.00000000000E+00 -0.50000000000E+03  0.50000000000E+03  0.00000000000E+00 0. -1.
        -11    1    1    2    0    0 -0.11232837646E+02  0.31927155348E+01  0.49915344704E+03  0.49929002971E+03  0.00000000000E+00 0. -1.
         11    1    1    2    0    0  0.15062409667E+02  0.28876367774E+01 -0.21411962960E+03  0.21466818677E+03  0.00000000000E+00 0. -1.
        -15    1    1    2    0    0 -0.14566253956E+01  0.52241417324E+01 -0.21365845600E+02  0.22114938426E+02  0.17770000000E+01 0.  1.
         15    1    1    2    0    0 -0.23729466249E+01 -0.11304494045E+02 -0.26366797184E+03  0.26392684510E+03  0.17770000000E+01 0. -1.
</event>
<event>
 6    1  0.3365733E-003  0.5002748E+03  0.7546771E-02  0.9399195E-01
        -11   -1    0    0    0    0  0.00000000000E+00  0.00000000000E+00  0.50000000000E+03  0.50000000000E+03  0.00000000000E+00 0. -1.
         11   -1    0    0    0    0 -0.00000000000E+00 -0.00000000000E+00 -0.50000000000E+03  0.50000000000E+03  0.00000000000E+00 0. -1.
        -11    1    1    2    0    0 -0.72491200895E+01  0.13383156252E+00  0.49967264245E+03  0.49972524178E+03  0.00000000000E+00 0. -1.
         11    1    1    2    0    0  0.11114754277E+01  0.23877636423E+01 -0.18039144692E+03  0.18041067295E+03  0.00000000000E+00 0. -1.
        -15    1    1    2    0    0  0.81228030093E+01  0.11434090467E+01 -0.64645590293E+02  0.65188169067E+02  0.17770000000E+01 0. -1.
         15    1    1    2    0    0 -0.19851583475E+01 -0.36650042515E+01 -0.25463560524E+03  0.25467591620E+03  0.17770000000E+01 0. -1.
</event>
<event>
 6    1  0.3365733E-003  0.5047436E+03  0.7546771E-02  0.9389258E-01
        -11   -1    0    0    0    0  0.00000000000E+00  0.00000000000E+00  0.50000000000E+03  0.50000000000E+03  0.00000000000E+00 0. -1.
         11   -1    0    0    0    0 -0.00000000000E+00 -0.00000000000E+00 -0.50000000000E+03  0.50000000000E+03  0.00000000000E+00 0. -1.
        -11    1    1    2    0    0 -0.22915234561E+01  0.92489933787E+01  0.49516475030E+03  0.49525642338E+03  0.00000000000E+00 0. -1.
         11    1    1    2    0    0 -0.21259227508E+02  0.29369635240E+01 -0.33519032058E+03  0.33587666117E+03  0.00000000000E+00 0. -1.
        -15    1    1    2    0    0  0.47053500197E+01 -0.14287475030E+02 -0.11098753226E+02  0.18777974164E+02  0.17770000000E+01 0. -1.
         15    1    1    2    0    0  0.18845400944E+02  0.21015181276E+01 -0.14887567649E+03  0.15008894128E+03  0.17770000000E+01 0.  1.
</event>
<event>
 6    1  0.3365733E-003  0.5055444E+03  0.7546771E-02  0.9387488E-01
        -11   -1    0    0    0    0  0.00000000000E+00  0.00000000000E+00  0.50000000000E+03  0.50000000000E+03  0.00000000000E+00 0.  1.
         11   -1    0    0    0    0 -0.00000000000E+00 -0.00000000000E+00 -0.50000000000E+03  0.50000000000E+03  0.00000000000E+00 0.  1.
        -11    1    1    2    0    0 -0.10078505571E+02 -0.49906605305E+01  0.38239658654E+03  0.38256193272E+03  0.00000000000E+00 0.  1.
         11    1    1    2    0    0 -0.69391955607E+01  0.16792202929E+01 -0.49440405167E+03  0.49445559813E+03  0.00000000000E+00 0.  1.
        -15    1    1    2    0    0  0.17635447345E+02 -0.30063688952E+01  0.11452399016E+03  0.11592648234E+03  0.17770000000E+01 0.  1.
         15    1    1    2    0    0 -0.61774621393E+00  0.63178091327E+01 -0.25165250279E+01  0.70559868083E+01  0.17770000000E+01 0. -1.
</event>
<event>
 6    1  0.3365733E-003  0.5031720E+03  0.7546771E-02  0.9392740E-01
        -11   -1    0    0    0    0  0.00000000000E+00  0.00000000000E+00  0.50000000000E+03  0.50000000000E+03  0.00000000000E+00 0. -1.
         11   -1    0    0    0    0 -0.00000000000E+00 -0.00000000000E+00 -0.50000000000E+03  0.50000000000E+03  0.00000000000E+00 0.  1.
        -11    1    1    2    0    0 -0.37711979288E+01 -0.94865714798E+01  0.47916907372E+03  0.47927780898E+03  0.00000000000E+00 0. -1.
         11    1    1    2    0    0  0.52355486295E+01 -0.43886859821E+01 -0.49678106027E+03  0.49682803200E+03  0.00000000000E+00 0.  1.
        -15    1    1    2    0    0 -0.43980495911E+00  0.35809828344E+01  0.10422183493E+02  0.11171235573E+02  0.17770000000E+01 0.  1.
         15    1    1    2    0    0 -0.10245457416E+01  0.10294274628E+02  0.71898030532E+01  0.12722923447E+02  0.17770000000E+01 0. -1.
</event>
<event>
 6    1  0.3365733E-003  0.5166682E+03  0.7546771E-02  0.9363267E-01
        -11   -1    0    0    0    0  0.00000000000E+00  0.00000000000E+00  0.50000000000E+03  0.50000000000E+03  0.00000000000E+00 0. -1.
         11   -1    0    0    0    0 -0.00000000000E+00 -0.00000000000E+00 -0.50000000000E+03  0.50000000000E+03  0.00000000000E+00 0. -1.
        -11    1    1    2    0    0  0.88537186700E+01 -0.97908075658E+00  0.48324971143E+03  0.48333180169E+03  0.00000000000E+00 0. -1.
         11    1    1    2    0    0 -0.14397497325E+02 -0.41324415958E+01 -0.42601234865E+03  0.42627559888E+03  0.00000000000E+00 0. -1.
        -15    1    1    2    0    0  0.25731418030E+02 -0.22805495141E+02 -0.36340224528E+02  0.50059625750E+02  0.17770000000E+01 0. -1.
         15    1    1    2    0    0 -0.20187639375E+02  0.27917017493E+02 -0.20897138250E+02  0.40332973673E+02  0.17770000000E+01 0.  1.
</event>
<event>
 6    1  0.3365733E-003  0.4414928E+03  0.7546771E-02  0.9541171E-01
        -11   -1    0    0    0    0  0.00000000000E+00  0.00000000000E+00  0.50000000000E+03  0.50000000000E+03  0.00000000000E+00 0.  1.
         11   -1    0    0    0    0 -0.00000000000E+00 -0.00000000000E+00 -0.50000000000E+03  0.50000000000E+03  0.00000000000E+00 0. -1.
        -11    1    1    2    0    0 -0.21546204125E+02 -0.14991789767E+02  0.44874165436E+03  0.44950869294E+03  0.00000000000E+00 0.  1.
         11    1    1    2    0    0  0.41683844501E+01  0.15141296205E+01 -0.53990856962E+02  0.54172692871E+02  0.00000000000E+00 0. -1.
        -15    1    1    2    0    0  0.34055944002E+02  0.31994709008E+02  0.39583919815E+02  0.61265921713E+02  0.17770000000E+01 0.  1.
         15    1    1    2    0    0 -0.16678124327E+02 -0.18517048861E+02 -0.43433471721E+03  0.43505269248E+03  0.17770000000E+01 0. -1.
</event>
<event>
 6    1  0.3365733E-003  0.5035020E+03  0.7546771E-02  0.9392008E-01
        -11   -1    0    0    0    0  0.00000000000E+00  0.00000000000E+00  0.50000000000E+03  0.50000000000E+03  0.00000000000E+00 0.  1.
         11   -1    0    0    0    0 -0.00000000000E+00 -0.00000000000E+00 -0.50000000000E+03  0.50000000000E+03  0.00000000000E+00 0.  1.
        -11    1    1    2    0    0 -0.89169631371E+01  0.32921909990E+01  0.49640698975E+03  0.49649798612E+03  0.00000000000E+00 0.  1.
         11    1    1    2    0    0 -0.60198627591E+00  0.65128892449E+01 -0.42624124194E+03  0.42629142197E+03  0.00000000000E+00 0.  1.
        -15    1    1    2    0    0  0.25832681450E+01 -0.13033209597E+02 -0.67647575206E+02  0.68962960979E+02  0.17770000000E+01 0. -1.
         15    1    1    2    0    0  0.69356812680E+01  0.32281293530E+01 -0.25181726002E+01  0.82476309335E+01  0.17770000000E+01 0.  1.
</event>
<event>
 6    1  0.3365733E-003  0.5019177E+03  0.7546771E-02  0.9395529E-01
        -11   -1    0    0    0    0  0.00000000000E+00  0.00000000000E+00  0.50000000000E+03  0.50000000000E+03  0.00000000000E+00 0.  1.
         11   -1    0    0    0    0 -0.00000000000E+00 -0.00000000000E+00 -0.50000000000E+03  0.50000000000E+03  0.00000000000E+00 0.  1.
        -11    1    1    2    0    0 -0.60308073715E+01 -0.60995247778E+01  0.49800846634E+03  0.49808232992E+03  0.00000000000E+00 0.  1.
         11    1    1    2    0    0  0.49353865973E+01 -0.58469413389E+01 -0.47412599881E+03  0.47418773446E+03  0.00000000000E+00 0.  1.
        -15    1    1    2    0    0 -0.17379241882E+01  0.13517661843E+01 -0.66450587536E+01  0.72223394506E+01  0.17770000000E+01 0. -1.
         15    1    1    2    0    0  0.28333449625E+01  0.10594699932E+02 -0.17237408771E+02  0.20507596165E+02  0.17770000000E+01 0.  1.
</event>
<event>
 6    1  0.3365733E-003  0.4476708E+03  0.7546771E-02  0.9525171E-01
        -11   -1    0    0    0    0  0.00000000000E+00  0.00000000000E+00  0.50000000000E+03  0.50000000000E+03  0.00000000000E+00 0. -1.
         11   -1    0    0    0    0 -0.00000000000E+00 -0.00000000000E+00 -0.50000000000E+03  0.50000000000E+03  0.00000000000E+00 0. -1.
        -11    1    1    2    0    0 -0.19754315846E+02 -0.29023487564E+02  0.46222317429E+03  0.46355459083E+03  0.00000000000E+00 0. -1.
         11    1    1    2    0    0 -0.65037452105E+01 -0.45985822084E+02 -0.43329069209E+03  0.43577266824E+03  0.00000000000E+00 0. -1.
        -15    1    1    2    0    0 -0.90766232503E+01  0.48390456397E+02 -0.29894323351E+01  0.49357023762E+02  0.17770000000E+01 0.  1.
         15    1    1    2    0    0  0.35334684307E+02  0.26618853251E+02 -0.25943049863E+02  0.51315717169E+02  0.17770000000E+01 0. -1.
</event>
<event>
 6    1  0.3365733E-003  0.5135648E+03  0.7546771E-02  0.9369959E-01
        -11   -1    0    0    0    0  0.00000000000E+00  0.00000000000E+00  0.50000000000E+03  0.50000000000E+03  0.00000000000E+00 0. -1.
         11   -1    0    0    0    0 -0.00000000000E+00 -0.00000000000E+00 -0.50000000000E+03  0.50000000000E+03  0.00000000000E+00 0. -1.
        -11    1    1    2    0    0  0.10329727603E+02  0.11040164510E+02  0.48620022460E+03  0.48643524431E+03  0.00000000000E+00 0. -1.
         11    1    1    2    0    0 -0.17251538653E+02 -0.29778464746E+01 -0.33888528642E+03  0.33933717820E+03  0.00000000000E+00 0. -1.
        -15    1    1    2    0    0  0.20850125532E+02 -0.69995709514E+01  0.38581308297E+01  0.22400103364E+02  0.17770000000E+01 0.  1.
         15    1    1    2    0    0 -0.13928314482E+02 -0.10627470838E+01 -0.15117306901E+03  0.15182747413E+03  0.17770000000E+01 0. -1.
</event>
<event>
 6    1  0.3365733E-003  0.5149542E+03  0.7546771E-02  0.9366957E-01
        -11   -1    0    0    0    0  0.00000000000E+00  0.00000000000E+00  0.50000000000E+03  0.50000000000E+03  0.00000000000E+00 0.  1.
         11   -1    0    0    0    0 -0.00000000000E+00 -0.00000000000E+00 -0.50000000000E+03  0.50000000000E+03  0.00000000000E+00 0.  1.
        -11    1    1    2    0    0 -0.79053344483E+01 -0.35117740461E+01  0.48496865259E+03  0.48504579255E+03  0.00000000000E+00 0.  1.
         11    1    1    2    0    0  0.18121857844E+02  0.15996511704E+02 -0.37753768224E+03  0.37831070779E+03  0.00000000000E+00 0.  1.
        -15    1    1    2    0    0 -0.37557962639E+02  0.17514867238E+02 -0.70185266505E+02  0.81526072488E+02  0.17770000000E+01 0.  1.
         15    1    1    2    0    0  0.27341439242E+02 -0.29999604896E+02 -0.37245703850E+02  0.55117427172E+02  0.17770000000E+01 0. -1.
</event>
<event>
 6    1  0.3365733E-003  0.5056133E+03  0.7546771E-02  0.9387336E-01
        -11   -1    0    0    0    0  0.00000000000E+00  0.00000000000E+00  0.50000000000E+03  0.50000000000E+03  0.00000000000E+00 0.  1.
         11   -1    0    0    0    0 -0.00000000000E+00 -0.00000000000E+00 -0.50000000000E+03  0.50000000000E+03  0.00000000000E+00 0.  1.
        -11    1    1    2    0    0  0.71609506073E+01 -0.29740242081E+01  0.46918041984E+03  0.46924448893E+03  0.00000000000E+00 0.  1.
         11    1    1    2    0    0 -0.36628315394E+01 -0.85761263113E+01 -0.49429870890E+03  0.49438667043E+03  0.00000000000E+00 0.  1.
        -15    1    1    2    0    0  0.36129786933E+01  0.10538006926E+02  0.12146832168E+01  0.11346205944E+02  0.17770000000E+01 0. -1.
         15    1    1    2    0    0 -0.71110977613E+01  0.10121435936E+01  0.23903605843E+02  0.25022634700E+02  0.17770000000E+01 0. -1.
</event>
<event>
 6    1  0.3365733E-003  0.5541224E+03  0.7546771E-02  0.9286238E-01
        -11   -1    0    0    0    0  0.00000000000E+00  0.00000000000E+00  0.50000000000E+03  0.50000000000E+03  0.00000000000E+00 0.  1.
         11   -1    0    0    0    0 -0.00000000000E+00 -0.00000000000E+00 -0.50000000000E+03  0.50000000000E+03  0.00000000000E+00 0.  1.
        -11    1    1    2    0    0  0.99264340693E+01 -0.21337599984E+02  0.44525612307E+03  0.44587760922E+03  0.00000000000E+00 0.  1.
         11    1    1    2    0    0 -0.40038760331E+02  0.96150362556E+00 -0.24427089188E+03  0.24753241291E+03  0.00000000000E+00 0.  1.
        -15    1    1    2    0    0  0.41597865940E+02 -0.11844200326E+02 -0.24613802407E+03  0.24991549002E+03  0.17770000000E+01 0.  1.
         15    1    1    2    0    0 -0.11485539678E+02  0.32220296685E+02  0.45152792876E+02  0.56674487855E+02  0.17770000000E+01 0. -1.
</event>
<event>
 6    1  0.3365733E-003  0.5046824E+03  0.7546771E-02  0.9389393E-01
        -11   -1    0    0    0    0  0.00000000000E+00  0.00000000000E+00  0.50000000000E+03  0.50000000000E+03  0.00000000000E+00 0. -1.
         11   -1    0    0    0    0 -0.00000000000E+00 -0.00000000000E+00 -0.50000000000E+03  0.50000000000E+03  0.00000000000E+00 0.  1.
        -11    1    1    2    0    0  0.17864836376E+02 -0.10213836555E+02  0.49488995182E+03  0.49531761451E+03  0.00000000000E+00 0. -1.
         11    1    1    2    0    0 -0.68260186682E+01  0.45317690713E+01 -0.42818153254E+03  0.42825991673E+03  0.00000000000E+00 0.  1.
        -15    1    1    2    0    0 -0.16900140159E+01  0.12270976534E+01 -0.65820566936E+02  0.65877664476E+02  0.17770000000E+01 0. -1.
         15    1    1    2    0    0 -0.93488036916E+01  0.44549698307E+01 -0.88785233755E+00  0.10544804286E+02  0.17770000000E+01 0.  1.
</event>
<event>
 6    1  0.3365733E-003  0.5018255E+03  0.7546771E-02  0.9395734E-01
        -11   -1    0    0    0    0  0.00000000000E+00  0.00000000000E+00  0.50000000000E+03  0.50000000000E+03  0.00000000000E+00 0. -1.
         11   -1    0    0    0    0 -0.00000000000E+00 -0.00000000000E+00 -0.50000000000E+03  0.50000000000E+03  0.00000000000E+00 0. -1.
        -11    1    1    2    0    0  0.10710001468E+00  0.29749357854E+02  0.49728545644E+03  0.49817452861E+03  0.00000000000E+00 0. -1.
         11    1    1    2    0    0 -0.51588667999E+01  0.11296331704E+01 -0.27446643079E+03  0.27451723372E+03  0.00000000000E+00 0. -1.
        -15    1    1    2    0    0 -0.20269925802E+01 -0.31101465284E+02 -0.11259536347E+03  0.11684298629E+03  0.17770000000E+01 0. -1.
         15    1    1    2    0    0  0.70787593655E+01  0.22247426015E+00 -0.11022366219E+03  0.11046525138E+03  0.17770000000E+01 0.  1.
</event>
<event>
 6    1  0.3365733E-003  0.5148137E+03  0.7546771E-02  0.9367260E-01
        -11   -1    0    0    0    0  0.00000000000E+00  0.00000000000E+00  0.50000000000E+03  0.50000000000E+03  0.00000000000E+00 0.  1.
         11   -1    0    0    0    0 -0.00000000000E+00 -0.00000000000E+00 -0.50000000000E+03  0.50000000000E+03  0.00000000000E+00 0.  1.
        -11    1    1    2    0    0  0.17222777856E+02 -0.12198757920E+02  0.45293658247E+03  0.45342803345E+03  0.00000000000E+00 0.  1.
         11    1    1    2    0    0  0.72596623261E+01  0.64346468019E+01 -0.48508932892E+03  0.48518631927E+03  0.00000000000E+00 0.  1.
        -15    1    1    2    0    0 -0.10739717867E+01  0.84811430610E+01  0.36349378358E+02  0.37383395232E+02  0.17770000000E+01 0.  1.
         15    1    1    2    0    0 -0.23408468395E+02 -0.27170319429E+01 -0.41966319138E+01  0.24002252053E+02  0.17770000000E+01 0. -1.
</event>
<event>
 6    1  0.3365733E-003  0.5599314E+03  0.7546771E-02  0.9274870E-01
        -11   -1    0    0    0    0  0.00000000000E+00  0.00000000000E+00  0.50000000000E+03  0.50000000000E+03  0.00000000000E+00 0.  1.
         11   -1    0    0    0    0 -0.00000000000E+00 -0.00000000000E+00 -0.50000000000E+03  0.50000000000E+03  0.00000000000E+00 0.  1.
        -11    1    1    2    0    0 -0.12227210592E+02  0.78137424106E+01  0.43982926393E+03  0.44006856359E+03  0.00000000000E+00 0.  1.
         11    1    1    2    0    0  0.37552159509E+02  0.11369214521E+02 -0.15179316438E+03  0.15678197752E+03  0.00000000000E+00 0.  1.
        -15    1    1    2    0    0 -0.44874598432E+01 -0.11158908906E+02  0.56546912057E+02  0.57839169565E+02  0.17770000000E+01 0. -1.
         15    1    1    2    0    0 -0.20837489074E+02 -0.80240480255E+01 -0.34458301161E+03  0.34531028933E+03  0.17770000000E+01 0.  1.
</event>
<event>
 6    1  0.3365733E-003  0.4530051E+03  0.7546771E-02  0.9511576E-01
        -11   -1    0    0    0    0  0.00000000000E+00  0.00000000000E+00  0.50000000000E+03  0.50000000000E+03  0.00000000000E+00 0.  1.
         11   -1    0    0    0    0 -0.00000000000E+00 -0.00000000000E+00 -0.50000000000E+03  0.50000000000E+03  0.00000000000E+00 0. -1.
        -11    1    1    2    0    0  0.10001701925E+02 -0.12502748917E+02  0.45343987478E+03  0.45372246232E+03  0.00000000000E+00 0.  1.
         11    1    1    2    0    0 -0.18034200683E+02 -0.64193633640E+01 -0.45211688016E+03  0.45252194858E+03  0.00000000000E+00 0. -1.
        -15    1    1    2    0    0  0.14244182615E+02  0.61071017476E+00 -0.44312816256E+02  0.46583828942E+02  0.17770000000E+01 0.  1.
         15    1    1    2    0    0 -0.62116838562E+01  0.18311402106E+02  0.42989821638E+02  0.47171760163E+02  0.17770000000E+01 0. -1.
</event>
<event>
 6    1  0.3365733E-003  0.5004715E+03  0.7546771E-02  0.9398755E-01
        -11   -1    0    0    0    0  0.00000000000E+00  0.00000000000E+00  0.50000000000E+03  0.50000000000E+03  0.00000000000E+00 0.  1.
         11   -1    0    0    0    0 -0.00000000000E+00 -0.00000000000E+00 -0.50000000000E+03  0.50000000000E+03  0.00000000000E+00 0. -1.
        -11    1    1    2    0    0  0.74108474090E+01 -0.40397963911E+01  0.39885610925E+03  0.39894540541E+03  0.00000000000E+00 0.  1.
         11    1    1    2    0    0 -0.30694659394E+01 -0.61935339909E+01 -0.49948070182E+03  0.49952853069E+03  0.00000000000E+00 0. -1.
        -15    1    1    2    0    0 -0.43503235970E+01  0.52425754199E+01  0.76674356444E+02  0.76996912779E+02  0.17770000000E+01 0. -1.
         15    1    1    2    0    0  0.89421274331E-02  0.49907549621E+01  0.23950236125E+02  0.24529151116E+02  0.17770000000E+01 0.  1.
</event>
<event>
 6    1  0.3365733E-003  0.5105970E+03  0.7546771E-02  0.9376405E-01
        -11   -1    0    0    0    0  0.00000000000E+00  0.00000000000E+00  0.50000000000E+03  0.50000000000E+03  0.00000000000E+00 0.  1.
         11   -1    0    0    0    0 -0.00000000000E+00 -0.00000000000E+00 -0.50000000000E+03  0.50000000000E+03  0.00000000000E+00 0.  1.
        -11    1    1    2    0    0  0.87344726874E+01 -0.74300639172E+00  0.45274045682E+03  0.45282531324E+03  0.00000000000E+00 0.  1.
         11    1    1    2    0    0  0.13760533155E+02  0.22037205647E+01 -0.48920454670E+03  0.48940300077E+03  0.00000000000E+00 0.  1.
        -15    1    1    2    0    0 -0.15275176977E+02  0.10375188234E+02 -0.18061421305E+00  0.18551709168E+02  0.17770000000E+01 0. -1.
         15    1    1    2    0    0 -0.72198288659E+01 -0.11835902407E+02  0.36644704094E+02  0.39219976820E+02  0.17770000000E+01 0.  1.
</event>
<event>
 6    1  0.3365733E-003  0.5170370E+03  0.7546771E-02  0.9362475E-01
        -11   -1    0    0    0    0  0.00000000000E+00  0.00000000000E+00  0.50000000000E+03  0.50000000000E+03  0.00000000000E+00 0. -1.
         11   -1    0    0    0    0 -0.00000000000E+00 -0.00000000000E+00 -0.50000000000E+03  0.50000000000E+03  0.00000000000E+00 0. -1.
        -11    1    1    2    0    0 -0.28625314707E+01 -0.45463028859E+01  0.35185787541E+03  0.35189888810E+03  0.00000000000E+00 0. -1.
         11    1    1    2    0    0  0.31486737529E+01 -0.20806267552E+02 -0.48250430778E+03  0.48296296126E+03  0.00000000000E+00 0. -1.
        -15    1    1    2    0    0 -0.89133908770E+01  0.15265013872E+02 -0.12272839953E+02  0.21592811650E+02  0.17770000000E+01 0.  1.
         15    1    1    2    0    0  0.86272485948E+01  0.10087556565E+02  0.14291927233E+03  0.14354533900E+03  0.17770000000E+01 0. -1.
</event>
<event>
 6    1  0.3365733E-003  0.5013611E+03  0.7546771E-02  0.9396769E-01
        -11   -1    0    0    0    0  0.00000000000E+00  0.00000000000E+00  0.50000000000E+03  0.50000000000E+03  0.00000000000E+00 0. -1.
         11   -1    0    0    0    0 -0.00000000000E+00 -0.00000000000E+00 -0.50000000000E+03  0.50000000000E+03  0.00000000000E+00 0.  1.
        -11    1    1    2    0    0  0.68047229081E+01  0.89073045119E+01  0.49851285221E+03  0.49863885544E+03  0.00000000000E+00 0. -1.
         11    1    1    2    0    0  0.49999400426E+01 -0.74517528201E+01 -0.46080931903E+03  0.46089668747E+03  0.00000000000E+00 0.  1.
        -15    1    1    2    0    0 -0.84236354148E+01 -0.45818720450E+01 -0.24685399787E+02  0.26542002122E+02  0.17770000000E+01 0. -1.
         15    1    1    2    0    0 -0.33810275359E+01  0.31263203533E+01 -0.13018133401E+02  0.13922454970E+02  0.17770000000E+01 0.  1.
</event>
<event>
 6    1  0.3365733E-003  0.5012020E+03  0.7546771E-02  0.9397124E-01
        -11   -1    0    0    0    0  0.00000000000E+00  0.00000000000E+00  0.50000000000E+03  0.50000000000E+03  0.00000000000E+00 0.  1.
         11   -1    0    0    0    0 -0.00000000000E+00 -0.00000000000E+00 -0.50000000000E+03  0.50000000000E+03  0.00000000000E+00 0.  1.
        -11    1    1    2    0    0 -0.10461203186E+01  0.76730815212E+01  0.49873792032E+03  0.49879803900E+03  0.00000000000E+00 0.  1.
         11    1    1    2    0    0 -0.36594074170E+01 -0.45139480249E+01 -0.41423359604E+03  0.41427435242E+03  0.00000000000E+00 0.  1.
        -15    1    1    2    0    0 -0.17714818383E+01  0.26213001510E+01 -0.24091619800E+01  0.43555886894E+01  0.17770000000E+01 0.  1.
         15    1    1    2    0    0  0.64770095739E+01 -0.57804336474E+01 -0.82095162300E+02  0.82572019887E+02  0.17770000000E+01 0. -1.
</event>
<event>
 6    1  0.3365733E-003  0.5052590E+03  0.7546771E-02  0.9388119E-01
        -11   -1    0    0    0    0  0.00000000000E+00  0.00000000000E+00  0.50000000000E+03  0.50000000000E+03  0.00000000000E+00 0.  1.
         11   -1    0    0    0    0 -0.00000000000E+00 -0.00000000000E+00 -0.50000000000E+03  0.50000000000E+03  0.00000000000E+00 0. -1.
        -11    1    1    2    0    0  0.96293350663E+01  0.30232945932E+01  0.49463806697E+03  0.49474102488E+03  0.00000000000E+00 0.  1.
         11    1    1    2    0    0  0.17604903037E+01 -0.77717776126E+01 -0.47621211337E+03  0.47627878052E+03  0.00000000000E+00 0. -1.
        -15    1    1    2    0    0 -0.90982900971E+01  0.25199432400E+01  0.58141826387E+00  0.96241764750E+01  0.17770000000E+01 0.  1.
         15    1    1    2    0    0 -0.22915352728E+01  0.22285397794E+01 -0.19007371867E+02  0.19356018127E+02  0.17770000000E+01 0. -1.
</event>
<event>
 6    1  0.3365733E-003  0.5013140E+03  0.7546771E-02  0.9396874E-01
        -11   -1    0    0    0    0  0.00000000000E+00  0.00000000000E+00  0.50000000000E+03  0.50000000000E+03  0.00000000000E+00 0. -1.
         11   -1    0    0    0    0 -0.00000000000E+00 -0.00000000000E+00 -0.50000000000E+03  0.50000000000E+03  0.00000000000E+00 0.  1.
        -11    1    1    2    0    0 -0.12197963293E+02 -0.76907915485E+01  0.49847751160E+03  0.49868604167E+03  0.00000000000E+00 0. -1.
         11    1    1    2    0    0  0.60848556693E+01 -0.44491442965E+01 -0.30314263015E+03  0.30323633451E+03  0.00000000000E+00 0.  1.
        -15    1    1    2    0    0 -0.49309250442E+01  0.33630128499E+01 -0.15806594510E+03  0.15818857294E+03  0.17770000000E+01 0. -1.
         15    1    1    2    0    0  0.11044032668E+02  0.87769229951E+01 -0.37268936345E+02  0.39889050880E+02  0.17770000000E+01 0.  1.
</event>
<event>
 6    1  0.3365733E-003  0.5013843E+03  0.7546771E-02  0.9396717E-01
        -11   -1    0    0    0    0  0.00000000000E+00  0.00000000000E+00  0.50000000000E+03  0.50000000000E+03  0.00000000000E+00 0. -1.
         11   -1    0    0    0    0 -0.00000000000E+00 -0.00000000000E+00 -0.50000000000E+03  0.50000000000E+03  0.00000000000E+00 0. -1.
        -11    1    1    2    0    0  0.11701918960E+02 -0.23396827403E+01  0.49847282519E+03  0.49861565005E+03  0.00000000000E+00 0. -1.
         11    1    1    2    0    0 -0.15412979116E+00  0.11054497544E+01 -0.42807143198E+02  0.42821691745E+02  0.00000000000E+00 0. -1.
        -15    1    1    2    0    0 -0.96796017007E+01 -0.62598320202E+01 -0.44559457480E+03  0.44574719630E+03  0.17770000000E+01 0. -1.
         15    1    1    2    0    0 -0.18681874678E+01  0.74940650060E+01 -0.10071107193E+02  0.12815461904E+02  0.17770000000E+01 0.  1.
</event>
<event>
 6    1  0.4842360E-003  0.5139904E+03  0.7546771E-02  0.9369038E-01
        -11   -1    0    0    0    0  0.00000000000E+00  0.00000000000E+00  0.50000000000E+03  0.50000000000E+03  0.00000000000E+00 0. -1.
         11   -1    0    0    0    0 -0.00000000000E+00 -0.00000000000E+00 -0.50000000000E+03  0.50000000000E+03  0.00000000000E+00 0.  1.
        -11    1    1    2    0    0 -0.76704641453E+01 -0.54185195218E+01  0.48591888822E+03  0.48600963190E+03  0.00000000000E+00 0. -1.
         11    1    1    2    0    0 -0.35890058865E+02 -0.11331958655E+02 -0.36433195359E+03  0.36627077691E+03  0.00000000000E+00 0.  1.
        -15    1    1    2    0    0 -0.10214590610E+01  0.29398081905E+00  0.87428277463E+01  0.89846852664E+01  0.17770000000E+01 0.  1.
         15    1    1    2    0    0  0.44581982072E+02  0.16456497358E+02 -0.13032976237E+03  0.13873490592E+03  0.17770000000E+01 0. -1.
</event>
<event>
 6    1  0.3365733E-003  0.5040608E+03  0.7546771E-02  0.9390769E-01
        -11   -1    0    0    0    0  0.00000000000E+00  0.00000000000E+00  0.50000000000E+03  0.50000000000E+03  0.00000000000E+00 0. -1.
         11   -1    0    0    0    0 -0.00000000000E+00 -0.00000000000E+00 -0.50000000000E+03  0.50000000000E+03  0.00000000000E+00 0.  1.
        -11    1    1    2    0    0 -0.86640238486E+01  0.95033807689E+01  0.42838449421E+03  0.42857747775E+03  0.00000000000E+00 0. -1.
         11    1    1    2    0    0  0.11955705755E+02 -0.84565846637E+01 -0.49572291044E+03  0.49593916628E+03  0.00000000000E+00 0.  1.
        -15    1    1    2    0    0 -0.45101074474E+01  0.81877599625E+01  0.23423795030E+01  0.97992322723E+01  0.17770000000E+01 0. -1.
         15    1    1    2    0    0  0.12184255415E+01 -0.92345560677E+01  0.64996036720E+02  0.65684123689E+02  0.17770000000E+01 0.  1.
</event>
<event>
 6    1  0.3365733E-003  0.5049471E+03  0.7546771E-02  0.9388808E-01
        -11   -1    0    0    0    0  0.00000000000E+00  0.00000000000E+00  0.50000000000E+03  0.50000000000E+03  0.00000000000E+00 0. -1.
         11   -1    0    0    0    0 -0.00000000000E+00 -0.00000000000E+00 -0.50000000000E+03  0.50000000000E+03  0.00000000000E+00 0.  1.
        -11    1    1    2    0    0 -0.82713013185E+01  0.17819365424E+00  0.49498374750E+03  0.49505288250E+03  0.00000000000E+00 0. -1.
         11    1    1    2    0    0  0.58482960709E+01  0.33554745596E+01 -0.47904373629E+03  0.47909118449E+03  0.00000000000E+00 0.  1.
        -15    1    1    2    0    0  0.51070865228E+01 -0.44941805308E+00  0.31351962381E+01  0.62666971994E+01  0.17770000000E+01 0. -1.
         15    1    1    2    0    0 -0.26840812752E+01 -0.30842501608E+01 -0.19075207455E+02  0.19589235815E+02  0.17770000000E+01 0.  1.
</event>
<event>
 6    1  0.3365733E-003  0.5351041E+03  0.7546771E-02  0.9324516E-01
        -11   -1    0    0    0    0  0.00000000000E+00  0.00000000000E+00  0.50000000000E+03  0.50000000000E+03  0.00000000000E+00 0.  1.
         11   -1    0    0    0    0 -0.00000000000E+00 -0.00000000000E+00 -0.50000000000E+03  0.50000000000E+03  0.00000000000E+00 0. -1.
        -11    1    1    2    0    0 -0.67660492767E+01 -0.18186794052E+02  0.46449079375E+03  0.46489594145E+03  0.00000000000E+00 0.  1.
         11    1    1    2    0    0  0.37545504930E+02  0.11881853828E+02 -0.33293569250E+03  0.33525664606E+03  0.00000000000E+00 0. -1.
        -15    1    1    2    0    0  0.30441057536E+01  0.46575028091E+02  0.10918333327E+02  0.47967359247E+02  0.17770000000E+01 0. -1.
         15    1    1    2    0    0 -0.33823561407E+02 -0.40270087867E+02 -0.14247343458E+03  0.15188005324E+03  0.17770000000E+01 0.  1.
</event>
<event>
 6    1  0.3365733E-003  0.5050356E+03  0.7546771E-02  0.9388612E-01
        -11   -1    0    0    0    0  0.00000000000E+00  0.00000000000E+00  0.50000000000E+03  0.50000000000E+03  0.00000000000E+00 0.  1.
         11   -1    0    0    0    0 -0.00000000000E+00 -0.00000000000E+00 -0.50000000000E+03  0.50000000000E+03  0.00000000000E+00 0. -1.
        -11    1    1    2    0    0  0.62273563770E+00  0.83124948679E+01  0.49489423354E+03  0.49496443081E+03  0.00000000000E+00 0.  1.
         11    1    1    2    0    0 -0.52892599303E+01  0.48381004207E+01 -0.39557152761E+03  0.39563647070E+03  0.00000000000E+00 0. -1.
        -15    1    1    2    0    0  0.82857454673E+00 -0.28667951504E+02 -0.51906517489E+02  0.59329438444E+02  0.17770000000E+01 0. -1.
         15    1    1    2    0    0  0.38379497459E+01  0.15517356216E+02 -0.47416188441E+02  0.50069660050E+02  0.17770000000E+01 0.  1.
</event>
<event>
 6    1  0.3365733E-003  0.5034446E+03  0.7546771E-02  0.9392135E-01
        -11   -1    0    0    0    0  0.00000000000E+00  0.00000000000E+00  0.50000000000E+03  0.50000000000E+03  0.00000000000E+00 0. -1.
         11   -1    0    0    0    0 -0.00000000000E+00 -0.00000000000E+00 -0.50000000000E+03  0.50000000000E+03  0.00000000000E+00 0. -1.
        -11    1    1    2    0    0  0.55995511692E+01 -0.39521964503E+01  0.44739966362E+03  0.44745215816E+03  0.00000000000E+00 0. -1.
         11    1    1    2    0    0 -0.41194951519E+00  0.21922368811E+02 -0.49607107094E+03  0.49655540212E+03  0.00000000000E+00 0. -1.
        -15    1    1    2    0    0 -0.61668695132E+01 -0.14447194701E+02  0.49395026384E+02  0.51863070433E+02  0.17770000000E+01 0. -1.
         15    1    1    2    0    0  0.97926785923E+00 -0.35229776599E+01 -0.72361906990E+00  0.41293692848E+01  0.17770000000E+01 0.  1.
</event>
<event>
 6    1  0.3365733E-003  0.5074784E+03  0.7546771E-02  0.9383230E-01
        -11   -1    0    0    0    0  0.00000000000E+00  0.00000000000E+00  0.50000000000E+03  0.50000000000E+03  0.00000000000E+00 0.  1.
         11   -1    0    0    0    0 -0.00000000000E+00 -0.00000000000E+00 -0.50000000000E+03  0.50000000000E+03  0.00000000000E+00 0. -1.
        -11    1    1    2    0    0 -0.30095337058E+01  0.81124729688E+01  0.49244558103E+03  0.49252159322E+03  0.00000000000E+00 0.  1.
         11    1    1    2    0    0 -0.25410772178E+01  0.20548055072E+02 -0.29112055348E+03  0.29185588276E+03  0.00000000000E+00 0. -1.
        -15    1    1    2    0    0 -0.19654105212E+01 -0.37500007428E+00  0.58236225038E+01  0.64090382773E+01  0.17770000000E+01 0.  1.
         15    1    1    2    0    0  0.75160214447E+01 -0.28285527967E+02 -0.20714865005E+03  0.20921348575E+03  0.17770000000E+01 0. -1.
</event>
<event>
 6    1  0.3365733E-003  0.5014830E+03  0.7546771E-02  0.9396497E-01
        -11   -1    0    0    0    0  0.00000000000E+00  0.00000000000E+00  0.50000000000E+03  0.50000000000E+03  0.00000000000E+00 0. -1.
         11   -1    0    0    0    0 -0.00000000000E+00 -0.00000000000E+00 -0.50000000000E+03  0.50000000000E+03  0.00000000000E+00 0. -1.
        -11    1    1    2    0    0  0.27687595748E+01 -0.14983366377E+01  0.22625196756E+03  0.22627386917E+03  0.00000000000E+00 0. -1.
         11    1    1    2    0    0  0.25508179654E+02 -0.22587990188E+02 -0.49735129765E+03  0.49851699851E+03  0.00000000000E+00 0. -1.
        -15    1    1    2    0    0 -0.72300780006E+01  0.17283233155E+02  0.19596299750E+03  0.19686451761E+03  0.17770000000E+01 0. -1.
         15    1    1    2    0    0 -0.21046861228E+02  0.68030936706E+01  0.75136332585E+02  0.78344614712E+02  0.17770000000E+01 0.  1.
</event>
<event>
 6    1  0.3365733E-003  0.5086947E+03  0.7546771E-02  0.9380562E-01
        -11   -1    0    0    0    0  0.00000000000E+00  0.00000000000E+00  0.50000000000E+03  0.50000000000E+03  0.00000000000E+00 0.  1.
         11   -1    0    0    0    0 -0.00000000000E+00 -0.00000000000E+00 -0.50000000000E+03  0.50000000000E+03  0.00000000000E+00 0.  1.
        -11    1    1    2    0    0  0.29368837702E+02  0.56437288930E+01  0.49039428832E+03  0.49130534123E+03  0.00000000000E+00 0.  1.
         11    1    1    2    0    0  0.29837401100E+01  0.63190317156E+01 -0.10058919122E+03  0.10083163322E+03  0.00000000000E+00 0.  1.
        -15    1    1    2    0    0 -0.18281174217E+02 -0.45925643497E+02 -0.35066437165E+03  0.35413560303E+03  0.17770000000E+01 0.  1.
         15    1    1    2    0    0 -0.14071403594E+02  0.33962882889E+02 -0.39140725445E+02  0.53727422519E+02  0.17770000000E+01 0. -1.
</event>
<event>
 6    1  0.3365733E-003  0.5049238E+03  0.7546771E-02  0.9388859E-01
        -11   -1    0    0    0    0  0.00000000000E+00  0.00000000000E+00  0.50000000000E+03  0.50000000000E+03  0.00000000000E+00 0.  1.
         11   -1    0    0    0    0 -0.00000000000E+00 -0.00000000000E+00 -0.50000000000E+03  0.50000000000E+03  0.00000000000E+00 0. -1.
        -11    1    1    2    0    0 -0.11765847756E+02 -0.90088595062E+01  0.49485440298E+03  0.49507623137E+03  0.00000000000E+00 0.  1.
         11    1    1    2    0    0  0.11170015540E+02 -0.16688083453E+02 -0.42999246722E+03  0.43046112861E+03  0.00000000000E+00 0. -1.
        -15    1    1    2    0    0  0.99225162715E+00  0.68978676339E+01 -0.30362353687E+00  0.71982676693E+01  0.17770000000E+01 0. -1.
         15    1    1    2    0    0 -0.39641941098E+00  0.18799075326E+02 -0.64558312221E+02  0.67264372347E+02  0.17770000000E+01 0.  1.
</event>
<event>
 6    1  0.3365733E-003  0.5008500E+03  0.7546771E-02  0.9397910E-01
        -11   -1    0    0    0    0  0.00000000000E+00  0.00000000000E+00  0.50000000000E+03  0.50000000000E+03  0.00000000000E+00 0.  1.
         11   -1    0    0    0    0 -0.00000000000E+00 -0.00000000000E+00 -0.50000000000E+03  0.50000000000E+03  0.00000000000E+00 0.  1.
        -11    1    1    2    0    0 -0.68312648965E+01 -0.13652002836E+02  0.49891651801E+03  0.49915001282E+03  0.00000000000E+00 0.  1.
         11    1    1    2    0    0  0.10552196611E+01 -0.86168680208E+00 -0.78132702725E+02  0.78144579004E+02  0.00000000000E+00 0.  1.
        -15    1    1    2    0    0 -0.24684926933E+01  0.67151900168E+00 -0.22131580653E+01  0.38210197027E+01  0.17770000000E+01 0. -1.
         15    1    1    2    0    0  0.82445379286E+01  0.13842170636E+02 -0.41857065722E+03  0.41888438847E+03  0.17770000000E+01 0.  1.
</event>
<event>
 6    1  0.3365733E-003  0.5002529E+03  0.7546771E-02  0.9399244E-01
        -11   -1    0    0    0    0  0.00000000000E+00  0.00000000000E+00  0.50000000000E+03  0.50000000000E+03  0.00000000000E+00 0. -1.
         11   -1    0    0    0    0 -0.00000000000E+00 -0.00000000000E+00 -0.50000000000E+03  0.50000000000E+03  0.00000000000E+00 0.  1.
        -11    1    1    2    0    0 -0.61684032009E+01 -0.36751400549E+01  0.49969551463E+03  0.49974709924E+03  0.00000000000E+00 0. -1.
         11    1    1    2    0    0 -0.27229662613E+00 -0.26375379976E+01 -0.18435904604E+03  0.18437811315E+03  0.00000000000E+00 0.  1.
        -15    1    1    2    0    0 -0.19060943741E+01  0.81620028248E+01 -0.21088108967E+03  0.21105507148E+03  0.17770000000E+01 0.  1.
         15    1    1    2    0    0  0.83467942012E+01 -0.18493247722E+01 -0.10445537892E+03  0.10481971613E+03  0.17770000000E+01 0. -1.
</event>
<event>
 6    1  0.3365733E-003  0.5009359E+03  0.7546771E-02  0.9397718E-01
        -11   -1    0    0    0    0  0.00000000000E+00  0.00000000000E+00  0.50000000000E+03  0.50000000000E+03  0.00000000000E+00 0. -1.
         11   -1    0    0    0    0 -0.00000000000E+00 -0.00000000000E+00 -0.50000000000E+03  0.50000000000E+03  0.00000000000E+00 0.  1.
        -11    1    1    2    0    0  0.89172556645E+01 -0.33723595180E+02  0.49784350641E+03  0.49906407925E+03  0.00000000000E+00 0. -1.
         11    1    1    2    0    0 -0.28349136126E+01 -0.27353925290E+00 -0.17911821639E+03  0.17914085799E+03  0.00000000000E+00 0.  1.
        -15    1    1    2    0    0 -0.15100134735E+02  0.31178374339E+02 -0.25507480375E+03  0.25742264534E+03  0.17770000000E+01 0.  1.
         15    1    1    2    0    0  0.90177926833E+01  0.28187600940E+01 -0.63650486273E+02  0.64372417425E+02  0.17770000000E+01 0. -1.
</event>
<event>
 6    1  0.3365733E-003  0.5070570E+03  0.7546771E-02  0.9384156E-01
        -11   -1    0    0    0    0  0.00000000000E+00  0.00000000000E+00  0.50000000000E+03  0.50000000000E+03  0.00000000000E+00 0. -1.
         11   -1    0    0    0    0 -0.00000000000E+00 -0.00000000000E+00 -0.50000000000E+03  0.50000000000E+03  0.00000000000E+00 0.  1.
        -11    1    1    2    0    0  0.66272566430E+01 -0.69267360548E+01  0.49284978893E+03  0.49294301360E+03  0.00000000000E+00 0. -1.
         11    1    1    2    0    0 -0.12520829416E+02 -0.92090328707E+01 -0.44893325973E+03  0.44920223636E+03  0.00000000000E+00 0.  1.
        -15    1    1    2    0    0 -0.85668207023E+01 -0.59545292502E+01 -0.17584067809E+02  0.20523255230E+02  0.17770000000E+01 0.  1.
         15    1    1    2    0    0  0.14460393475E+02  0.22090298176E+02 -0.26332461394E+02  0.37331494813E+02  0.17770000000E+01 0. -1.
</event>
<event>
 6    1  0.3365733E-003  0.5025943E+03  0.7546771E-02  0.9394023E-01
        -11   -1    0    0    0    0  0.00000000000E+00  0.00000000000E+00  0.50000000000E+03  0.50000000000E+03  0.00000000000E+00 0.  1.
         11   -1    0    0    0    0 -0.00000000000E+00 -0.00000000000E+00 -0.50000000000E+03  0.50000000000E+03  0.00000000000E+00 0. -1.
        -11    1    1    2    0    0  0.56967137051E+01  0.40274045913E+01  0.49735680155E+03  0.49740573035E+03  0.00000000000E+00 0.  1.
         11    1    1    2    0    0 -0.57502827636E+01 -0.77218830025E-01 -0.40494577878E+03  0.40498661147E+03  0.00000000000E+00 0. -1.
        -15    1    1    2    0    0  0.10212253911E+02 -0.31164542683E+01 -0.82740061465E+02  0.83445059275E+02  0.17770000000E+01 0. -1.
         15    1    1    2    0    0 -0.10158684853E+02 -0.83373149295E+00 -0.96709613060E+01  0.14162598904E+02  0.17770000000E+01 0.  1.
</event>
<event>
 6    1  0.3365733E-003  0.5002220E+03  0.7546771E-02  0.9399313E-01
        -11   -1    0    0    0    0  0.00000000000E+00  0.00000000000E+00  0.50000000000E+03  0.50000000000E+03  0.00000000000E+00 0. -1.
         11   -1    0    0    0    0 -0.00000000000E+00 -0.00000000000E+00 -0.50000000000E+03  0.50000000000E+03  0.00000000000E+00 0.  1.
        -11    1    1    2    0    0 -0.92123774012E+00  0.14770356676E+00  0.23052852041E+02  0.23071724741E+02  0.00000000000E+00 0. -1.
         11    1    1    2    0    0 -0.10799157554E+02  0.45140545203E+01 -0.49964090543E+03  0.49977798358E+03  0.00000000000E+00 0.  1.
        -15    1    1    2    0    0  0.10066387061E+02  0.53789552223E+01  0.17218127618E+03  0.17256829055E+03  0.17770000000E+01 0.  1.
         15    1    1    2    0    0  0.16540082327E+01 -0.10040713309E+02  0.30440677721E+03  0.30458200112E+03  0.17770000000E+01 0. -1.
</event>
<event>
 6    1  0.3365733E-003  0.5130962E+03  0.7546771E-02  0.9370973E-01
        -11   -1    0    0    0    0  0.00000000000E+00  0.00000000000E+00  0.50000000000E+03  0.50000000000E+03  0.00000000000E+00 0.  1.
         11   -1    0    0    0    0 -0.00000000000E+00 -0.00000000000E+00 -0.50000000000E+03  0.50000000000E+03  0.00000000000E+00 0.  1.
        -11    1    1    2    0    0 -0.30582346441E+01  0.20132601474E+02  0.39138016808E+03  0.39190956917E+03  0.00000000000E+00 0.  1.
         11    1    1    2    0    0 -0.19432344917E+02 -0.10034855268E+02 -0.48641232713E+03  0.48690375470E+03  0.00000000000E+00 0.  1.
        -15    1    1    2    0    0  0.36300077115E+02 -0.23799783448E+02  0.91563033334E+02  0.10134629788E+03  0.17770000000E+01 0.  1.
         15    1    1    2    0    0 -0.13809497553E+02  0.13702037243E+02  0.34691257232E+01  0.19840378261E+02  0.17770000000E+01 0. -1.
</event>
<event>
 6    1  0.3365733E-003  0.5012294E+03  0.7546771E-02  0.9397063E-01
        -11   -1    0    0    0    0  0.00000000000E+00  0.00000000000E+00  0.50000000000E+03  0.50000000000E+03  0.00000000000E+00 0.  1.
         11   -1    0    0    0    0 -0.00000000000E+00 -0.00000000000E+00 -0.50000000000E+03  0.50000000000E+03  0.00000000000E+00 0. -1.
        -11    1    1    2    0    0  0.51567243859E+01  0.15342751537E+02  0.25818529003E+03  0.25869216420E+03  0.00000000000E+00 0.  1.
         11    1    1    2    0    0 -0.10715525562E+02  0.26333022090E+01 -0.49864855662E+03  0.49877062843E+03  0.00000000000E+00 0. -1.
        -15    1    1    2    0    0 -0.43639426701E+01 -0.11112673032E+02  0.19772387354E+03  0.19809195692E+03  0.17770000000E+01 0.  1.
         15    1    1    2    0    0  0.99227438458E+01 -0.68633807145E+01  0.42739393045E+02  0.44445250445E+02  0.17770000000E+01 0. -1.
</event>
<event>
 6    1  0.3365733E-003  0.5009024E+03  0.7546771E-02  0.9397793E-01
        -11   -1    0    0    0    0  0.00000000000E+00  0.00000000000E+00  0.50000000000E+03  0.50000000000E+03  0.00000000000E+00 0. -1.
         11   -1    0    0    0    0 -0.00000000000E+00 -0.00000000000E+00 -0.50000000000E+03  0.50000000000E+03  0.00000000000E+00 0. -1.
        -11    1    1    2    0    0  0.58839003765E+01  0.34120268903E+00  0.24876579081E+03  0.24883559910E+03  0.00000000000E+00 0. -1.
         11    1    1    2    0    0  0.96677757603E+01 -0.19682584096E+01 -0.49900004020E+03  0.49909756566E+03  0.00000000000E+00 0. -1.
        -15    1    1    2    0    0 -0.70351726210E+01  0.27376449109E+01  0.17199926392E+02  0.18867526344E+02  0.17770000000E+01 0.  1.
         15    1    1    2    0    0 -0.85165035158E+01 -0.11105891903E+01  0.23303432300E+03  0.23319930889E+03  0.17770000000E+01 0. -1.
</event>
<event>
 6    1  0.3365733E-003  0.5028813E+03  0.7546771E-02  0.9393385E-01
        -11   -1    0    0    0    0  0.00000000000E+00  0.00000000000E+00  0.50000000000E+03  0.50000000000E+03  0.00000000000E+00 0.  1.
         11   -1    0    0    0    0 -0.00000000000E+00 -0.00000000000E+00 -0.50000000000E+03  0.50000000000E+03  0.00000000000E+00 0. -1.
        -11    1    1    2    0    0  0.87791845739E+01 -0.19274931457E+01  0.49703740119E+03  0.49711866541E+03  0.00000000000E+00 0.  1.
         11    1    1    2    0    0  0.77803259896E+01  0.45557593451E+01 -0.36964160145E+03  0.36975154082E+03  0.00000000000E+00 0. -1.
        -15    1    1    2    0    0 -0.10961675195E+02  0.32947845216E+01 -0.12328980335E+03  0.12383273907E+03  0.17770000000E+01 0. -1.
         15    1    1    2    0    0 -0.55978353682E+01 -0.59230507210E+01 -0.41059963963E+01  0.92970546981E+01  0.17770000000E+01 0.  1.
</event>
<event>
 6    1  0.3365733E-003  0.5005150E+03  0.7546771E-02  0.9398658E-01
        -11   -1    0    0    0    0  0.00000000000E+00  0.00000000000E+00  0.50000000000E+03  0.50000000000E+03  0.00000000000E+00 0.  1.
         11   -1    0    0    0    0 -0.00000000000E+00 -0.00000000000E+00 -0.50000000000E+03  0.50000000000E+03  0.00000000000E+00 0. -1.
        -11    1    1    2    0    0  0.93929952625E+01 -0.22321437901E+01  0.49939172098E+03  0.49948503662E+03  0.00000000000E+00 0.  1.
         11    1    1    2    0    0 -0.83464884744E+01  0.34864314794E+01 -0.23213921622E+03  0.23231537784E+03  0.00000000000E+00 0. -1.
        -15    1    1    2    0    0  0.57455793442E+01  0.47017860789E+01 -0.21545579622E+03  0.21559099315E+03  0.17770000000E+01 0. -1.
         15    1    1    2    0    0 -0.67920861323E+01 -0.59560737682E+01 -0.51796708539E+02  0.52608592390E+02  0.17770000000E+01 0.  1.
</event>
<event>
 6    1  0.3365733E-003  0.5012969E+03  0.7546771E-02  0.9396913E-01
        -11   -1    0    0    0    0  0.00000000000E+00  0.00000000000E+00  0.50000000000E+03  0.50000000000E+03  0.00000000000E+00 0.  1.
         11   -1    0    0    0    0 -0.00000000000E+00 -0.00000000000E+00 -0.50000000000E+03  0.50000000000E+03  0.00000000000E+00 0.  1.
        -11    1    1    2    0    0 -0.39698488440E+01  0.58554504006E+01  0.42962529503E+03  0.42968353486E+03  0.00000000000E+00 0.  1.
         11    1    1    2    0    0  0.58243839903E+01  0.78127355255E+01 -0.49860790074E+03  0.49870311907E+03  0.00000000000E+00 0.  1.
        -15    1    1    2    0    0 -0.69695360890E+01 -0.11104105599E+02  0.46357543139E+02  0.48208454957E+02  0.17770000000E+01 0. -1.
         15    1    1    2    0    0  0.51150009426E+01 -0.25640803273E+01  0.22625062577E+02  0.23404891116E+02  0.17770000000E+01 0.  1.
</event>
