<event>
 6    1  0.1226227E-002  0.1825842E+03  0.7546771E-02  0.1068388E+00
        -11   -1    0    0    0    0  0.00000000000E+00  0.00000000000E+00  0.18250000000E+03  0.18250000000E+03  0.00000000000E+00 0. -1.
         11   -1    0    0    0    0 -0.00000000000E+00 -0.00000000000E+00 -0.18250000000E+03  0.18250000000E+03  0.00000000000E+00 0.  1.
        -11    1    1    2    0    0 -0.34126062729E+00  0.28366889279E+01  0.18239340293E+03  0.18241577973E+03  0.00000000000E+00 0. -1.
         11    1    1    2    0    0  0.15447863426E+01 -0.20970062697E+01 -0.95288016350E+02  0.95323605995E+02  0.00000000000E+00 0.  1.
        -15    1    1    2    0    0  0.22425034692E+00  0.75514979998E+00 -0.18660020735E+02  0.18760987241E+02  0.17770000000E+01 0. -1.
         15    1    1    2    0    0 -0.14277760622E+01 -0.14948324582E+01 -0.68445365846E+02  0.68499627031E+02  0.17770000000E+01 0. -1.
</event>
<event>
 6    1  0.1226227E-002  0.1841833E+03  0.7546771E-02  0.1067123E+00
        -11   -1    0    0    0    0  0.00000000000E+00  0.00000000000E+00  0.18250000000E+03  0.18250000000E+03  0.00000000000E+00 0. -1.
         11   -1    0    0    0    0 -0.00000000000E+00 -0.00000000000E+00 -0.18250000000E+03  0.18250000000E+03  0.00000000000E+00 0. -1.
        -11    1    1    2    0    0 -0.39778530056E+01  0.15995796381E+01  0.14566764115E+03  0.14573072307E+03  0.00000000000E+00 0. -1.
         11    1    1    2    0    0 -0.22041204080E+01  0.16804976339E+01 -0.18079545116E+03  0.18081669552E+03  0.00000000000E+00 0. -1.
        -15    1    1    2    0    0 -0.15654958233E+01 -0.16215733826E+01  0.26308462662E+02  0.26464565254E+02  0.17770000000E+01 0. -1.
         15    1    1    2    0    0  0.77474692369E+01 -0.16585038893E+01  0.88193473449E+01  0.11988016154E+02  0.17770000000E+01 0.  1.
</event>
<event>
 6    1  0.1226227E-002  0.1826696E+03  0.7546771E-02  0.1068320E+00
        -11   -1    0    0    0    0  0.00000000000E+00  0.00000000000E+00  0.18250000000E+03  0.18250000000E+03  0.00000000000E+00 0. -1.
         11   -1    0    0    0    0 -0.00000000000E+00 -0.00000000000E+00 -0.18250000000E+03  0.18250000000E+03  0.00000000000E+00 0.  1.
        -11    1    1    2    0    0 -0.52648765307E+01  0.53908194034E+00  0.18225359158E+03  0.18233041758E+03  0.00000000000E+00 0. -1.
         11    1    1    2    0    0 -0.12168151573E+01 -0.27898884923E+00 -0.53021943498E+02  0.53036637961E+02  0.00000000000E+00 0.  1.
        -15    1    1    2    0    0  0.59046623571E+01 -0.19054431032E+01 -0.58031223906E+02  0.58389009479E+02  0.17770000000E+01 0.  1.
         15    1    1    2    0    0  0.57702933083E+00  0.16453500121E+01 -0.71200424172E+02  0.71243934975E+02  0.17770000000E+01 0.  1.
</event>
<event>
 6    1  0.1226227E-002  0.1830158E+03  0.7546771E-02  0.1068045E+00
        -11   -1    0    0    0    0  0.00000000000E+00  0.00000000000E+00  0.18250000000E+03  0.18250000000E+03  0.00000000000E+00 0. -1.
         11   -1    0    0    0    0 -0.00000000000E+00 -0.00000000000E+00 -0.18250000000E+03  0.18250000000E+03  0.00000000000E+00 0.  1.
        -11    1    1    2    0    0 -0.97620042913E+00  0.44700449883E+01  0.18192668901E+03  0.18198421482E+03  0.00000000000E+00 0. -1.
         11    1    1    2    0    0 -0.28819068380E+00 -0.93127611472E+00 -0.44238002197E+02  0.44248741987E+02  0.00000000000E+00 0.  1.
        -15    1    1    2    0    0  0.44833790154E+01  0.36236111360E+00 -0.12357405431E+03  0.12366865658E+03  0.17770000000E+01 0.  1.
         15    1    1    2    0    0 -0.32189879024E+01 -0.39011299872E+01 -0.14114632510E+02  0.15098386608E+02  0.17770000000E+01 0. -1.
</event>
<event>
 6    1  0.1226227E-002  0.1956886E+03  0.7546771E-02  0.1058416E+00
        -11   -1    0    0    0    0  0.00000000000E+00  0.00000000000E+00  0.18250000000E+03  0.18250000000E+03  0.00000000000E+00 0. -1.
         11   -1    0    0    0    0 -0.00000000000E+00 -0.00000000000E+00 -0.18250000000E+03  0.18250000000E+03  0.00000000000E+00 0. -1.
        -11    1    1    2    0    0 -0.47347862078E+01  0.13408785773E+01  0.13815843369E+03  0.13824604499E+03  0.00000000000E+00 0. -1.
         11    1    1    2    0    0 -0.25400506997E+01 -0.18517823618E+00 -0.16929221022E+03  0.16931136581E+03  0.00000000000E+00 0. -1.
        -15    1    1    2    0    0  0.70574399857E+01 -0.18378167037E+01  0.43898137625E+02  0.44535258452E+02  0.17770000000E+01 0. -1.
         15    1    1    2    0    0  0.21739692177E+00  0.68211636251E+00 -0.12764361091E+02  0.12907330755E+02  0.17770000000E+01 0.  1.
</event>
<event>
 6    1  0.1226227E-002  0.1841738E+03  0.7546771E-02  0.1067130E+00
        -11   -1    0    0    0    0  0.00000000000E+00  0.00000000000E+00  0.18250000000E+03  0.18250000000E+03  0.00000000000E+00 0.  1.
         11   -1    0    0    0    0 -0.00000000000E+00 -0.00000000000E+00 -0.18250000000E+03  0.18250000000E+03  0.00000000000E+00 0. -1.
        -11    1    1    2    0    0  0.48221959057E+01 -0.13720883838E+01  0.17137400167E+03  0.17144732324E+03  0.00000000000E+00 0.  1.
         11    1    1    2    0    0 -0.24603552953E+01  0.11652709291E+01 -0.18080572706E+03  0.18082622084E+03  0.00000000000E+00 0. -1.
        -15    1    1    2    0    0 -0.47691833120E+01 -0.15147414452E+00  0.77569852801E+01  0.92788255461E+01  0.17770000000E+01 0.  1.
         15    1    1    2    0    0  0.24073427017E+01  0.35829159921E+00  0.16747401124E+01  0.34476303742E+01  0.17770000000E+01 0. -1.
</event>
<event>
 6    1  0.1226227E-002  0.1835043E+03  0.7546771E-02  0.1067658E+00
        -11   -1    0    0    0    0  0.00000000000E+00  0.00000000000E+00  0.18250000000E+03  0.18250000000E+03  0.00000000000E+00 0. -1.
         11   -1    0    0    0    0 -0.00000000000E+00 -0.00000000000E+00 -0.18250000000E+03  0.18250000000E+03  0.00000000000E+00 0.  1.
        -11    1    1    2    0    0  0.69814295943E+01 -0.38562602204E+01  0.18132034979E+03  0.18149567584E+03  0.00000000000E+00 0. -1.
         11    1    1    2    0    0 -0.23362623136E+01  0.25159857480E+01 -0.10069598850E+03  0.10075450564E+03  0.00000000000E+00 0.  1.
        -15    1    1    2    0    0 -0.19101921729E+01  0.48294069379E+01 -0.66559329526E+01  0.86273505770E+01  0.17770000000E+01 0. -1.
         15    1    1    2    0    0 -0.27349751077E+01 -0.34891324655E+01 -0.73968428334E+02  0.74122467939E+02  0.17770000000E+01 0.  1.
</event>
<event>
 6    1  0.1423302E-002  0.1172754E+03  0.7546771E-02  0.1136900E+00
        -11   -1    0    0    0    0  0.00000000000E+00  0.00000000000E+00  0.18250000000E+03  0.18250000000E+03  0.00000000000E+00 0. -1.
         11   -1    0    0    0    0 -0.00000000000E+00 -0.00000000000E+00 -0.18250000000E+03  0.18250000000E+03  0.00000000000E+00 0.  1.
        -11    1    1    2    0    0  0.20642204615E+01 -0.14505519235E+01  0.71292830223E+02  0.71337456838E+02  0.00000000000E+00 0. -1.
         11    1    1    2    0    0  0.17758260630E+02  0.33935945508E+02 -0.14148267755E+03  0.14657541494E+03  0.00000000000E+00 0.  1.
        -15    1    1    2    0    0  0.93966868077E+01  0.14260306456E+00  0.95828633595E+02  0.96304739262E+02  0.17770000000E+01 0. -1.
         15    1    1    2    0    0 -0.29219167899E+02 -0.32627996649E+02 -0.25638786263E+02  0.50782388956E+02  0.17770000000E+01 0.  1.
</event>
<event>
 6    1  0.1226227E-002  0.1852594E+03  0.7546771E-02  0.1066279E+00
        -11   -1    0    0    0    0  0.00000000000E+00  0.00000000000E+00  0.18250000000E+03  0.18250000000E+03  0.00000000000E+00 0.  1.
         11   -1    0    0    0    0 -0.00000000000E+00 -0.00000000000E+00 -0.18250000000E+03  0.18250000000E+03  0.00000000000E+00 0. -1.
        -11    1    1    2    0    0 -0.13762460773E+01  0.22048066458E+01  0.17279612309E+03  0.17281566879E+03  0.00000000000E+00 0.  1.
         11    1    1    2    0    0 -0.62462657366E+01 -0.19330652014E+01 -0.17962163389E+03  0.17974060181E+03  0.00000000000E+00 0. -1.
        -15    1    1    2    0    0  0.56925266058E+01 -0.19672157543E+01  0.68862402203E+01  0.93194865928E+01  0.17770000000E+01 0. -1.
         15    1    1    2    0    0  0.19299852082E+01  0.16954743099E+01 -0.60729413783E-01  0.31242428044E+01  0.17770000000E+01 0.  1.
</event>
<event>
 6    1  0.1226227E-002  0.1829058E+03  0.7546771E-02  0.1068132E+00
        -11   -1    0    0    0    0  0.00000000000E+00  0.00000000000E+00  0.18250000000E+03  0.18250000000E+03  0.00000000000E+00 0.  1.
         11   -1    0    0    0    0 -0.00000000000E+00 -0.00000000000E+00 -0.18250000000E+03  0.18250000000E+03  0.00000000000E+00 0. -1.
        -11    1    1    2    0    0  0.15987943406E+01  0.40637771655E+00  0.11083038680E+03  0.11084266293E+03  0.00000000000E+00 0.  1.
         11    1    1    2    0    0  0.25340337452E+01 -0.25931375746E+01 -0.18205805497E+03  0.18209415441E+03  0.00000000000E+00 0. -1.
        -15    1    1    2    0    0 -0.20327380712E+01  0.56527796971E+01  0.33881203588E+02  0.34455473121E+02  0.17770000000E+01 0. -1.
         15    1    1    2    0    0 -0.21000900146E+01 -0.34660198391E+01  0.37346464579E+02  0.37607709544E+02  0.17770000000E+01 0. -1.
</event>
<event>
 6    1  0.1226227E-002  0.1908682E+03  0.7546771E-02  0.1061982E+00
        -11   -1    0    0    0    0  0.00000000000E+00  0.00000000000E+00  0.18250000000E+03  0.18250000000E+03  0.00000000000E+00 0. -1.
         11   -1    0    0    0    0 -0.00000000000E+00 -0.00000000000E+00 -0.18250000000E+03  0.18250000000E+03  0.00000000000E+00 0.  1.
        -11    1    1    2    0    0 -0.71435532608E+01  0.52186384523E+01  0.16059557302E+03  0.16083905811E+03  0.00000000000E+00 0. -1.
         11    1    1    2    0    0  0.98031975114E+00  0.52301961664E+01 -0.17405046324E+03  0.17413178841E+03  0.00000000000E+00 0.  1.
        -15    1    1    2    0    0  0.12248719927E+01 -0.10493018601E+01 -0.67342558739E+01  0.71490752526E+01  0.17770000000E+01 0. -1.
         15    1    1    2    0    0  0.49383615169E+01 -0.93995327586E+01  0.20189146098E+02  0.22880078228E+02  0.17770000000E+01 0.  1.
</event>
<event>
 6    1  0.1226227E-002  0.1825890E+03  0.7546771E-02  0.1068384E+00
        -11   -1    0    0    0    0  0.00000000000E+00  0.00000000000E+00  0.18250000000E+03  0.18250000000E+03  0.00000000000E+00 0. -1.
         11   -1    0    0    0    0 -0.00000000000E+00 -0.00000000000E+00 -0.18250000000E+03  0.18250000000E+03  0.00000000000E+00 0. -1.
        -11    1    1    2    0    0 -0.24357641976E+01  0.93926422635E-01  0.64664923429E+02  0.64710849874E+02  0.00000000000E+00 0. -1.
         11    1    1    2    0    0  0.12281161818E+01 -0.48501071082E+01 -0.18234237585E+03  0.18241100251E+03  0.00000000000E+00 0. -1.
        -15    1    1    2    0    0  0.18477979879E+01  0.11607394431E+01  0.47769788220E+02  0.47852607756E+02  0.17770000000E+01 0.  1.
         15    1    1    2    0    0 -0.64014997204E+00  0.35954412425E+01  0.69907664198E+02  0.70025539857E+02  0.17770000000E+01 0. -1.
</event>
<event>
 6    1  0.1226227E-002  0.1833836E+03  0.7546771E-02  0.1067754E+00
        -11   -1    0    0    0    0  0.00000000000E+00  0.00000000000E+00  0.18250000000E+03  0.18250000000E+03  0.00000000000E+00 0. -1.
         11   -1    0    0    0    0 -0.00000000000E+00 -0.00000000000E+00 -0.18250000000E+03  0.18250000000E+03  0.00000000000E+00 0.  1.
        -11    1    1    2    0    0 -0.71461782292E+00  0.29744465027E+01  0.15589279073E+03  0.15592280209E+03  0.00000000000E+00 0. -1.
         11    1    1    2    0    0  0.62744756297E+00  0.42374022342E+01 -0.18156585878E+03  0.18161638236E+03  0.00000000000E+00 0.  1.
        -15    1    1    2    0    0  0.39414810472E+00 -0.56469308156E+01  0.10163227263E+02  0.11768266557E+02  0.17770000000E+01 0. -1.
         15    1    1    2    0    0 -0.30697784476E+00 -0.15649179212E+01  0.15509840786E+02  0.15692548987E+02  0.17770000000E+01 0.  1.
</event>
<event>
 6    1  0.1226227E-002  0.1827397E+03  0.7546771E-02  0.1068264E+00
        -11   -1    0    0    0    0  0.00000000000E+00  0.00000000000E+00  0.18250000000E+03  0.18250000000E+03  0.00000000000E+00 0.  1.
         11   -1    0    0    0    0 -0.00000000000E+00 -0.00000000000E+00 -0.18250000000E+03  0.18250000000E+03  0.00000000000E+00 0.  1.
        -11    1    1    2    0    0  0.26504915292E+01  0.42678391907E+00  0.18224049924E+03  0.18226027217E+03  0.00000000000E+00 0.  1.
         11    1    1    2    0    0 -0.10702397978E+01  0.41268328329E+01 -0.13682772609E+03  0.13689412986E+03  0.00000000000E+00 0.  1.
        -15    1    1    2    0    0 -0.11727047487E+01 -0.27131397605E+01 -0.19401808783E+02  0.19705945216E+02  0.17770000000E+01 0.  1.
         15    1    1    2    0    0 -0.40754698265E+00 -0.18404769914E+01 -0.26010964362E+02  0.26139652754E+02  0.17770000000E+01 0. -1.
</event>
<event>
 6    1  0.1226227E-002  0.1852226E+03  0.7546771E-02  0.1066308E+00
        -11   -1    0    0    0    0  0.00000000000E+00  0.00000000000E+00  0.18250000000E+03  0.18250000000E+03  0.00000000000E+00 0.  1.
         11   -1    0    0    0    0 -0.00000000000E+00 -0.00000000000E+00 -0.18250000000E+03  0.18250000000E+03  0.00000000000E+00 0. -1.
        -11    1    1    2    0    0 -0.22218004735E+01  0.12575893513E+01  0.14890895386E+03  0.14893083787E+03  0.00000000000E+00 0.  1.
         11    1    1    2    0    0  0.34364778632E+01  0.51547210802E+00 -0.17974382361E+03  0.17977741020E+03  0.00000000000E+00 0. -1.
        -15    1    1    2    0    0 -0.20660889748E+00 -0.15187768191E+01 -0.21857809022E+01  0.32069826029E+01  0.17770000000E+01 0.  1.
         15    1    1    2    0    0 -0.10080684922E+01 -0.25428464017E+00  0.33020650655E+02  0.33084769327E+02  0.17770000000E+01 0. -1.
</event>
<event>
 6    1  0.1226227E-002  0.1831781E+03  0.7546771E-02  0.1067916E+00
        -11   -1    0    0    0    0  0.00000000000E+00  0.00000000000E+00  0.18250000000E+03  0.18250000000E+03  0.00000000000E+00 0. -1.
         11   -1    0    0    0    0 -0.00000000000E+00 -0.00000000000E+00 -0.18250000000E+03  0.18250000000E+03  0.00000000000E+00 0. -1.
        -11    1    1    2    0    0 -0.38258754952E+01  0.11831507551E+01  0.18177781065E+03  0.18182191731E+03  0.00000000000E+00 0. -1.
         11    1    1    2    0    0 -0.29287047558E+00  0.23236345638E+01 -0.10996493621E+03  0.10998987338E+03  0.00000000000E+00 0. -1.
        -15    1    1    2    0    0 -0.44058403251E+01 -0.10206759886E+01 -0.19432882905E+02  0.20031172593E+02  0.17770000000E+01 0.  1.
         15    1    1    2    0    0  0.85245862959E+01 -0.24861093303E+01 -0.52379991531E+02  0.53157036720E+02  0.17770000000E+01 0. -1.
</event>
<event>
 6    1  0.1552991E-002  0.1826386E+03  0.7546771E-02  0.1068345E+00
        -11   -1    0    0    0    0  0.00000000000E+00  0.00000000000E+00  0.18250000000E+03  0.18250000000E+03  0.00000000000E+00 0. -1.
         11   -1    0    0    0    0 -0.00000000000E+00 -0.00000000000E+00 -0.18250000000E+03  0.18250000000E+03  0.00000000000E+00 0. -1.
        -11    1    1    2    0    0 -0.27450854967E+01  0.12135122078E+01  0.18233668472E+03  0.18236138490E+03  0.00000000000E+00 0. -1.
         11    1    1    2    0    0 -0.82704022835E+00 -0.45300907163E+00 -0.54822150199E+02  0.54830259576E+02  0.00000000000E+00 0. -1.
        -15    1    1    2    0    0  0.24592732561E+01  0.79183410767E+00 -0.18591809344E+02  0.18854392854E+02  0.17770000000E+01 0.  1.
         15    1    1    2    0    0  0.11128524690E+01 -0.15523372438E+01 -0.10892272518E+03  0.10895396267E+03  0.17770000000E+01 0. -1.
</event>
<event>
 6    1  0.1226227E-002  0.1849855E+03  0.7546771E-02  0.1066493E+00
        -11   -1    0    0    0    0  0.00000000000E+00  0.00000000000E+00  0.18250000000E+03  0.18250000000E+03  0.00000000000E+00 0. -1.
         11   -1    0    0    0    0 -0.00000000000E+00 -0.00000000000E+00 -0.18250000000E+03  0.18250000000E+03  0.00000000000E+00 0.  1.
        -11    1    1    2    0    0 -0.80360640136E+01 -0.42229215448E+01  0.11316574903E+03  0.11352928320E+03  0.00000000000E+00 0. -1.
         11    1    1    2    0    0  0.23458676545E+01  0.21701752330E+01 -0.17998615812E+03  0.18001452683E+03  0.00000000000E+00 0.  1.
        -15    1    1    2    0    0  0.45306241234E+01 -0.11725965368E+00  0.68019074382E+02  0.68193053265E+02  0.17770000000E+01 0. -1.
         15    1    1    2    0    0  0.11595722357E+01  0.21700059654E+01 -0.11986652950E+01  0.32631367040E+01  0.17770000000E+01 0.  1.
</event>
<event>
 6    1  0.1226227E-002  0.1837576E+03  0.7546771E-02  0.1067458E+00
        -11   -1    0    0    0    0  0.00000000000E+00  0.00000000000E+00  0.18250000000E+03  0.18250000000E+03  0.00000000000E+00 0.  1.
         11   -1    0    0    0    0 -0.00000000000E+00 -0.00000000000E+00 -0.18250000000E+03  0.18250000000E+03  0.00000000000E+00 0.  1.
        -11    1    1    2    0    0 -0.35865981072E+00  0.26873263205E+01  0.18122216623E+03  0.18124244506E+03  0.00000000000E+00 0.  1.
         11    1    1    2    0    0  0.54399038738E+01 -0.43190712741E+00 -0.14599980376E+03  0.14610175151E+03  0.00000000000E+00 0.  1.
        -15    1    1    2    0    0 -0.62947115742E+01  0.24737788440E+01 -0.27302050002E+02  0.28183375222E+02  0.17770000000E+01 0. -1.
         15    1    1    2    0    0  0.12134675111E+01 -0.47291980371E+01 -0.79203124669E+01  0.94724282023E+01  0.17770000000E+01 0. -1.
</event>
<event>
 6    1  0.1226227E-002  0.1040603E+03  0.7546771E-02  0.1156972E+00
        -11   -1    0    0    0    0  0.00000000000E+00  0.00000000000E+00  0.18250000000E+03  0.18250000000E+03  0.00000000000E+00 0.  1.
         11   -1    0    0    0    0 -0.00000000000E+00 -0.00000000000E+00 -0.18250000000E+03  0.18250000000E+03  0.00000000000E+00 0. -1.
        -11    1    1    2    0    0  0.16438926593E+01  0.41328575457E+00  0.96175252953E+02  0.96190189046E+02  0.00000000000E+00 0.  1.
         11    1    1    2    0    0  0.20472287908E+01  0.32602286363E+01 -0.69859890750E+02  0.69965881486E+02  0.00000000000E+00 0. -1.
        -15    1    1    2    0    0 -0.27294213994E+01 -0.11728891174E+01  0.86206587295E+02  0.86276061756E+02  0.17770000000E+01 0.  1.
         15    1    1    2    0    0 -0.96170005066E+00 -0.25006252734E+01 -0.11252194950E+03  0.11256786771E+03  0.17770000000E+01 0. -1.
</event>
<event>
 6    1  0.1226227E-002  0.1835644E+03  0.7546771E-02  0.1067611E+00
        -11   -1    0    0    0    0  0.00000000000E+00  0.00000000000E+00  0.18250000000E+03  0.18250000000E+03  0.00000000000E+00 0.  1.
         11   -1    0    0    0    0 -0.00000000000E+00 -0.00000000000E+00 -0.18250000000E+03  0.18250000000E+03  0.00000000000E+00 0. -1.
        -11    1    1    2    0    0 -0.45203219527E+01  0.49593714759E+01  0.10281058718E+03  0.10302934296E+03  0.00000000000E+00 0.  1.
         11    1    1    2    0    0 -0.67697120459E+00  0.32793093666E+01 -0.18140470428E+03  0.18143560537E+03  0.00000000000E+00 0. -1.
        -15    1    1    2    0    0 -0.16119320605E+01 -0.33554774862E+01  0.59079592900E+02  0.59223420877E+02  0.17770000000E+01 0.  1.
         15    1    1    2    0    0  0.68092252178E+01 -0.48832033564E+01  0.19514524204E+02  0.21311630791E+02  0.17770000000E+01 0. -1.
</event>
<event>
 6    1  0.1226227E-002  0.1856463E+03  0.7546771E-02  0.1065978E+00
        -11   -1    0    0    0    0  0.00000000000E+00  0.00000000000E+00  0.18250000000E+03  0.18250000000E+03  0.00000000000E+00 0. -1.
         11   -1    0    0    0    0 -0.00000000000E+00 -0.00000000000E+00 -0.18250000000E+03  0.18250000000E+03  0.00000000000E+00 0. -1.
        -11    1    1    2    0    0 -0.26098649315E+02 -0.28791664429E+01  0.17742130959E+03  0.17935370136E+03  0.00000000000E+00 0. -1.
         11    1    1    2    0    0 -0.38614931220E+01  0.30393187375E+01 -0.92074119271E+02  0.92205162692E+02  0.00000000000E+00 0. -1.
        -15    1    1    2    0    0  0.53610412111E+00 -0.56774103060E+01 -0.29015844293E+02  0.29624269517E+02  0.17770000000E+01 0. -1.
         15    1    1    2    0    0  0.29424038316E+02  0.55172580114E+01 -0.56331346025E+02  0.63816866429E+02  0.17770000000E+01 0.  1.
</event>
<event>
 6    1  0.1226227E-002  0.1699553E+03  0.7546771E-02  0.1078903E+00
        -11   -1    0    0    0    0  0.00000000000E+00  0.00000000000E+00  0.18250000000E+03  0.18250000000E+03  0.00000000000E+00 0. -1.
         11   -1    0    0    0    0 -0.00000000000E+00 -0.00000000000E+00 -0.18250000000E+03  0.18250000000E+03  0.00000000000E+00 0. -1.
        -11    1    1    2    0    0 -0.56386640075E+01  0.23701407167E+01  0.17050121915E+03  0.17061089599E+03  0.00000000000E+00 0. -1.
         11    1    1    2    0    0 -0.19525271058E+01  0.37962909862E+01 -0.16938847454E+03  0.16944226006E+03  0.00000000000E+00 0. -1.
        -15    1    1    2    0    0  0.35150745124E+01 -0.12172619501E+01  0.10657077253E+02  0.11426657432E+02  0.17770000000E+01 0. -1.
         15    1    1    2    0    0  0.40761166009E+01 -0.49491697528E+01 -0.11769821862E+02  0.13520186517E+02  0.17770000000E+01 0.  1.
</event>
<event>
 6    1  0.1226227E-002  0.1847002E+03  0.7546771E-02  0.1066717E+00
        -11   -1    0    0    0    0  0.00000000000E+00  0.00000000000E+00  0.18250000000E+03  0.18250000000E+03  0.00000000000E+00 0. -1.
         11   -1    0    0    0    0 -0.00000000000E+00 -0.00000000000E+00 -0.18250000000E+03  0.18250000000E+03  0.00000000000E+00 0.  1.
        -11    1    1    2    0    0 -0.16654206276E+01 -0.22333817077E+01  0.18027831839E+03  0.18029984387E+03  0.00000000000E+00 0. -1.
         11    1    1    2    0    0  0.43107839243E+01  0.28270327593E+01 -0.17595494904E+03  0.17603044925E+03  0.00000000000E+00 0.  1.
        -15    1    1    2    0    0 -0.93741618997E+00 -0.14419104534E+01 -0.53297898411E+01  0.58755632597E+01  0.17770000000E+01 0.  1.
         15    1    1    2    0    0 -0.17079471067E+01  0.84825940182E+00  0.10064204901E+01  0.27941436139E+01  0.17770000000E+01 0. -1.
</event>
<event>
 6    1  0.1226227E-002  0.1849186E+03  0.7546771E-02  0.1066546E+00
        -11   -1    0    0    0    0  0.00000000000E+00  0.00000000000E+00  0.18250000000E+03  0.18250000000E+03  0.00000000000E+00 0.  1.
         11   -1    0    0    0    0 -0.00000000000E+00 -0.00000000000E+00 -0.18250000000E+03  0.18250000000E+03  0.00000000000E+00 0.  1.
        -11    1    1    2    0    0  0.43733970949E+00  0.53669117551E+01  0.16846086807E+03  0.16854690469E+03  0.00000000000E+00 0.  1.
         11    1    1    2    0    0 -0.99115587475E+01 -0.12417116165E+01 -0.17980415657E+03  0.18008141371E+03  0.00000000000E+00 0.  1.
        -15    1    1    2    0    0  0.85510325201E+01 -0.35736443724E+01  0.10533711010E+02  0.14142414500E+02  0.17770000000E+01 0. -1.
         15    1    1    2    0    0  0.92318651789E+00 -0.55155576621E+00  0.80957748444E+00  0.22292671023E+01  0.17770000000E+01 0.  1.
</event>
<event>
 6    1  0.1226227E-002  0.1700543E+03  0.7546771E-02  0.1078817E+00
        -11   -1    0    0    0    0  0.00000000000E+00  0.00000000000E+00  0.18250000000E+03  0.18250000000E+03  0.00000000000E+00 0. -1.
         11   -1    0    0    0    0 -0.00000000000E+00 -0.00000000000E+00 -0.18250000000E+03  0.18250000000E+03  0.00000000000E+00 0. -1.
        -11    1    1    2    0    0 -0.13862806327E+02  0.10202705568E+02  0.16495849219E+03  0.16585408269E+03  0.00000000000E+00 0. -1.
         11    1    1    2    0    0  0.26230384835E+01 -0.58274495665E+00 -0.17469473280E+03  0.17471539597E+03  0.00000000000E+00 0. -1.
        -15    1    1    2    0    0  0.12138085805E+02 -0.60423702197E+01 -0.20795055697E+00  0.13676415368E+02  0.17770000000E+01 0.  1.
         15    1    1    2    0    0 -0.89831796214E+00 -0.35775903919E+01  0.99441911704E+01  0.10754105970E+02  0.17770000000E+01 0. -1.
</event>
<event>
 6    1  0.1226227E-002  0.1857612E+03  0.7546771E-02  0.1065888E+00
        -11   -1    0    0    0    0  0.00000000000E+00  0.00000000000E+00  0.18250000000E+03  0.18250000000E+03  0.00000000000E+00 0.  1.
         11   -1    0    0    0    0 -0.00000000000E+00 -0.00000000000E+00 -0.18250000000E+03  0.18250000000E+03  0.00000000000E+00 0. -1.
        -11    1    1    2    0    0 -0.29120127863E+00 -0.35814475171E+01  0.17920277947E+03  0.17923880086E+03  0.00000000000E+00 0.  1.
         11    1    1    2    0    0 -0.29991506986E+00 -0.31398919868E+01 -0.15828970675E+03  0.15832112978E+03  0.00000000000E+00 0. -1.
        -15    1    1    2    0    0 -0.32794433329E+01  0.86858856347E+01 -0.46896088798E+01  0.10552228119E+02  0.17770000000E+01 0.  1.
         15    1    1    2    0    0  0.38705596814E+01 -0.19645461308E+01 -0.16223463842E+02  0.16887841241E+02  0.17770000000E+01 0. -1.
</event>
<event>
 6    1  0.1226227E-002  0.1866714E+03  0.7546771E-02  0.1065182E+00
        -11   -1    0    0    0    0  0.00000000000E+00  0.00000000000E+00  0.18250000000E+03  0.18250000000E+03  0.00000000000E+00 0. -1.
         11   -1    0    0    0    0 -0.00000000000E+00 -0.00000000000E+00 -0.18250000000E+03  0.18250000000E+03  0.00000000000E+00 0. -1.
        -11    1    1    2    0    0  0.15232159773E+01  0.79001525481E+00  0.12295339625E+03  0.12296536895E+03  0.00000000000E+00 0. -1.
         11    1    1    2    0    0  0.82636813491E+01  0.26917857173E+01 -0.17811665248E+03  0.17832856202E+03  0.00000000000E+00 0. -1.
        -15    1    1    2    0    0 -0.43736849017E+01 -0.35092841115E+00  0.56804244960E+02  0.57001160031E+02  0.17770000000E+01 0. -1.
         15    1    1    2    0    0 -0.54132124247E+01 -0.31308725610E+01 -0.16409887297E+01  0.67049090045E+01  0.17770000000E+01 0.  1.
</event>
<event>
 6    1  0.1226227E-002  0.1836637E+03  0.7546771E-02  0.1067532E+00
        -11   -1    0    0    0    0  0.00000000000E+00  0.00000000000E+00  0.18250000000E+03  0.18250000000E+03  0.00000000000E+00 0. -1.
         11   -1    0    0    0    0 -0.00000000000E+00 -0.00000000000E+00 -0.18250000000E+03  0.18250000000E+03  0.00000000000E+00 0.  1.
        -11    1    1    2    0    0 -0.22034914633E+01 -0.16713778493E+01  0.18131519681E+03  0.18133628836E+03  0.00000000000E+00 0. -1.
         11    1    1    2    0    0  0.33508040643E+01  0.65369658983E+01 -0.10039417857E+03  0.10066255959E+03  0.00000000000E+00 0.  1.
        -15    1    1    2    0    0 -0.28820217893E+01 -0.72444984300E+01 -0.78221648380E+02  0.78629338109E+02  0.17770000000E+01 0.  1.
         15    1    1    2    0    0  0.17347091883E+01  0.23789103810E+01 -0.26993698613E+01  0.43718139504E+01  0.17770000000E+01 0.  1.
</event>
<event>
 6    1  0.1226227E-002  0.1827101E+03  0.7546771E-02  0.1068288E+00
        -11   -1    0    0    0    0  0.00000000000E+00  0.00000000000E+00  0.18250000000E+03  0.18250000000E+03  0.00000000000E+00 0.  1.
         11   -1    0    0    0    0 -0.00000000000E+00 -0.00000000000E+00 -0.18250000000E+03  0.18250000000E+03  0.00000000000E+00 0.  1.
        -11    1    1    2    0    0  0.17258708542E+01 -0.20470147384E+01  0.18227027916E+03  0.18228994368E+03  0.00000000000E+00 0.  1.
         11    1    1    2    0    0 -0.22890037126E+01 -0.12101366288E+01 -0.14411367884E+03  0.14413693627E+03  0.00000000000E+00 0.  1.
        -15    1    1    2    0    0  0.93815318412E+00  0.18705598357E+01 -0.29232909261E+02  0.29361536717E+02  0.17770000000E+01 0.  1.
         15    1    1    2    0    0 -0.37502032567E+00  0.13865915315E+01 -0.89236910609E+01  0.92115833313E+01  0.17770000000E+01 0. -1.
</event>
<event>
 6    1  0.1226227E-002  0.1830893E+03  0.7546771E-02  0.1067987E+00
        -11   -1    0    0    0    0  0.00000000000E+00  0.00000000000E+00  0.18250000000E+03  0.18250000000E+03  0.00000000000E+00 0.  1.
         11   -1    0    0    0    0 -0.00000000000E+00 -0.00000000000E+00 -0.18250000000E+03  0.18250000000E+03  0.00000000000E+00 0. -1.
        -11    1    1    2    0    0  0.31932773986E+01 -0.91948737141E+00  0.14704181198E+03  0.14707935595E+03  0.00000000000E+00 0.  1.
         11    1    1    2    0    0  0.22140764126E+01  0.34670084107E+01 -0.18186419771E+03  0.18191071626E+03  0.00000000000E+00 0. -1.
        -15    1    1    2    0    0 -0.49271057325E+00 -0.18030691903E+01  0.21893881090E+02  0.22045262085E+02  0.17770000000E+01 0. -1.
         15    1    1    2    0    0 -0.49146432379E+01 -0.74445184901E+00  0.12928504647E+02  0.13964665700E+02  0.17770000000E+01 0.  1.
</event>
<event>
 6    1  0.1226227E-002  0.2016063E+03  0.7546771E-02  0.1054188E+00
        -11   -1    0    0    0    0  0.00000000000E+00  0.00000000000E+00  0.18250000000E+03  0.18250000000E+03  0.00000000000E+00 0. -1.
         11   -1    0    0    0    0 -0.00000000000E+00 -0.00000000000E+00 -0.18250000000E+03  0.18250000000E+03  0.00000000000E+00 0.  1.
        -11    1    1    2    0    0 -0.12251133634E+02 -0.93819987068E+01  0.14402895779E+03  0.14485321141E+03  0.00000000000E+00 0. -1.
         11    1    1    2    0    0  0.23462656047E+01 -0.56437230327E+00 -0.16337587869E+03  0.16339370005E+03  0.00000000000E+00 0.  1.
        -15    1    1    2    0    0  0.14600689448E+02  0.12970570963E+02  0.34955290375E+02  0.40080492732E+02  0.17770000000E+01 0.  1.
         15    1    1    2    0    0 -0.46958214193E+01 -0.30241999525E+01 -0.15608369477E+02  0.16672595806E+02  0.17770000000E+01 0. -1.
</event>
<event>
 6    1  0.1226227E-002  0.1674387E+03  0.7546771E-02  0.1081119E+00
        -11   -1    0    0    0    0  0.00000000000E+00  0.00000000000E+00  0.18250000000E+03  0.18250000000E+03  0.00000000000E+00 0. -1.
         11   -1    0    0    0    0 -0.00000000000E+00 -0.00000000000E+00 -0.18250000000E+03  0.18250000000E+03  0.00000000000E+00 0. -1.
        -11    1    1    2    0    0  0.19739794406E+01 -0.25993095724E+01  0.17138596402E+03  0.17141704019E+03  0.00000000000E+00 0. -1.
         11    1    1    2    0    0 -0.56364586210E+01 -0.10535724733E+02 -0.16339686660E+03  0.16383316873E+03  0.00000000000E+00 0. -1.
        -15    1    1    2    0    0 -0.19453571944E+01 -0.30496740107E+01  0.62283170902E+01  0.74185301079E+01  0.17770000000E+01 0. -1.
         15    1    1    2    0    0  0.56078363748E+01  0.16184708316E+02 -0.14217414507E+02  0.22331260966E+02  0.17770000000E+01 0.  1.
</event>
<event>
 6    1  0.1226227E-002  0.1836534E+03  0.7546771E-02  0.1067540E+00
        -11   -1    0    0    0    0  0.00000000000E+00  0.00000000000E+00  0.18250000000E+03  0.18250000000E+03  0.00000000000E+00 0. -1.
         11   -1    0    0    0    0 -0.00000000000E+00 -0.00000000000E+00 -0.18250000000E+03  0.18250000000E+03  0.00000000000E+00 0. -1.
        -11    1    1    2    0    0  0.21303905569E+01  0.10373633498E+01  0.12653017156E+03  0.12655235676E+03  0.00000000000E+00 0. -1.
         11    1    1    2    0    0  0.18504595552E+01  0.20096752193E+01 -0.18132604943E+03  0.18134662720E+03  0.00000000000E+00 0. -1.
        -15    1    1    2    0    0 -0.72231408752E+01 -0.17191074797E+01  0.12670506552E+02  0.14792855029E+02  0.17770000000E+01 0.  1.
         15    1    1    2    0    0  0.32422907631E+01 -0.13279310895E+01  0.42125371315E+02  0.42308161007E+02  0.17770000000E+01 0. -1.
</event>
<event>
 6    1  0.1226227E-002  0.1835973E+03  0.7546771E-02  0.1067585E+00
        -11   -1    0    0    0    0  0.00000000000E+00  0.00000000000E+00  0.18250000000E+03  0.18250000000E+03  0.00000000000E+00 0.  1.
         11   -1    0    0    0    0 -0.00000000000E+00 -0.00000000000E+00 -0.18250000000E+03  0.18250000000E+03  0.00000000000E+00 0. -1.
        -11    1    1    2    0    0  0.18945968562E+01 -0.44219645218E+01  0.18133888585E+03  0.18140268683E+03  0.00000000000E+00 0.  1.
         11    1    1    2    0    0 -0.32929830990E+00  0.10660848858E+01 -0.72987533661E+02  0.72996061841E+02  0.00000000000E+00 0. -1.
        -15    1    1    2    0    0 -0.84535337970E+01  0.60945211346E+01 -0.28685961673E+02  0.30572005947E+02  0.17770000000E+01 0.  1.
         15    1    1    2    0    0  0.68882352507E+01 -0.27386414986E+01 -0.79665390514E+02  0.80029245385E+02  0.17770000000E+01 0. -1.
</event>
<event>
 6    1  0.1226227E-002  0.1840124E+03  0.7546771E-02  0.1067257E+00
        -11   -1    0    0    0    0  0.00000000000E+00  0.00000000000E+00  0.18250000000E+03  0.18250000000E+03  0.00000000000E+00 0. -1.
         11   -1    0    0    0    0 -0.00000000000E+00 -0.00000000000E+00 -0.18250000000E+03  0.18250000000E+03  0.00000000000E+00 0.  1.
        -11    1    1    2    0    0  0.16182271331E+01 -0.15709768533E+01  0.12071420811E+03  0.12073527515E+03  0.00000000000E+00 0. -1.
         11    1    1    2    0    0 -0.42523063825E+01 -0.52563398540E+01 -0.18086128738E+03  0.18098761419E+03  0.00000000000E+00 0.  1.
        -15    1    1    2    0    0 -0.34272141885E+01  0.10524240442E+02  0.25338638630E+02  0.27707576051E+02  0.17770000000E+01 0.  1.
         15    1    1    2    0    0  0.60612934378E+01 -0.36969237343E+01  0.34808440639E+02  0.35569534604E+02  0.17770000000E+01 0. -1.
</event>
<event>
 6    1  0.1226227E-002  0.1837465E+03  0.7546771E-02  0.1067467E+00
        -11   -1    0    0    0    0  0.00000000000E+00  0.00000000000E+00  0.18250000000E+03  0.18250000000E+03  0.00000000000E+00 0.  1.
         11   -1    0    0    0    0 -0.00000000000E+00 -0.00000000000E+00 -0.18250000000E+03  0.18250000000E+03  0.00000000000E+00 0.  1.
        -11    1    1    2    0    0  0.32871475815E+01 -0.16651041189E+00  0.18122360603E+03  0.18125349223E+03  0.00000000000E+00 0.  1.
         11    1    1    2    0    0  0.16307088905E+01  0.19951751542E+01 -0.16253318552E+03  0.16255361064E+03  0.00000000000E+00 0.  1.
        -15    1    1    2    0    0 -0.73727424711E+00 -0.14795067889E+01 -0.15357187858E+02  0.15547779956E+02  0.17770000000E+01 0. -1.
         15    1    1    2    0    0 -0.41805822249E+01 -0.34915795343E+00 -0.33332326472E+01  0.56451171729E+01  0.17770000000E+01 0.  1.
</event>
<event>
 6    1  0.1226227E-002  0.1872765E+03  0.7546771E-02  0.1064715E+00
        -11   -1    0    0    0    0  0.00000000000E+00  0.00000000000E+00  0.18250000000E+03  0.18250000000E+03  0.00000000000E+00 0. -1.
         11   -1    0    0    0    0 -0.00000000000E+00 -0.00000000000E+00 -0.18250000000E+03  0.18250000000E+03  0.00000000000E+00 0.  1.
        -11    1    1    2    0    0  0.14138896511E+01  0.74027347730E+00  0.11804444298E+03  0.11805523118E+03  0.00000000000E+00 0. -1.
         11    1    1    2    0    0  0.13268923927E+01  0.24676294578E+01 -0.17770144946E+03  0.17772353524E+03  0.00000000000E+00 0.  1.
        -15    1    1    2    0    0 -0.10673416863E+01  0.34166387169E+01  0.61733144394E+02  0.61862359187E+02  0.17770000000E+01 0.  1.
         15    1    1    2    0    0 -0.16734403575E+01 -0.66245416520E+01 -0.20761379215E+01  0.73588743975E+01  0.17770000000E+01 0. -1.
</event>
<event>
 6    1  0.1226227E-002  0.1829380E+03  0.7546771E-02  0.1068107E+00
        -11   -1    0    0    0    0  0.00000000000E+00  0.00000000000E+00  0.18250000000E+03  0.18250000000E+03  0.00000000000E+00 0.  1.
         11   -1    0    0    0    0 -0.00000000000E+00 -0.00000000000E+00 -0.18250000000E+03  0.18250000000E+03  0.00000000000E+00 0. -1.
        -11    1    1    2    0    0  0.96516509864E+00 -0.18499742326E+01  0.14790607119E+02  0.14937068229E+02  0.00000000000E+00 0.  1.
         11    1    1    2    0    0  0.37458712886E+01 -0.42940474379E+01 -0.18197282416E+03  0.18206202000E+03  0.00000000000E+00 0. -1.
        -15    1    1    2    0    0 -0.30748115384E+01  0.62855905350E+01  0.16306909455E+03  0.16322882846E+03  0.17770000000E+01 0.  1.
         15    1    1    2    0    0 -0.16362248488E+01 -0.14156886448E+00  0.41131224900E+01  0.47720833100E+01  0.17770000000E+01 0. -1.
</event>
<event>
 6    1  0.1226227E-002  0.1835908E+03  0.7546771E-02  0.1067590E+00
        -11   -1    0    0    0    0  0.00000000000E+00  0.00000000000E+00  0.18250000000E+03  0.18250000000E+03  0.00000000000E+00 0.  1.
         11   -1    0    0    0    0 -0.00000000000E+00 -0.00000000000E+00 -0.18250000000E+03  0.18250000000E+03  0.00000000000E+00 0.  1.
        -11    1    1    2    0    0 -0.67038330843E+01 -0.46999338074E+01  0.18122435862E+03  0.18140920295E+03  0.00000000000E+00 0.  1.
         11    1    1    2    0    0  0.21784049085E+01 -0.14204595364E+01 -0.13039289246E+03  0.13041882363E+03  0.00000000000E+00 0.  1.
        -15    1    1    2    0    0  0.52438953483E+01  0.14917092900E+00 -0.71588736451E+01  0.90514027232E+01  0.17770000000E+01 0. -1.
         15    1    1    2    0    0 -0.71846717244E+00  0.59712224148E+01 -0.43672592524E+02  0.44120570701E+02  0.17770000000E+01 0.  1.
</event>
<event>
 6    1  0.1226227E-002  0.1954620E+03  0.7546771E-02  0.1058581E+00
        -11   -1    0    0    0    0  0.00000000000E+00  0.00000000000E+00  0.18250000000E+03  0.18250000000E+03  0.00000000000E+00 0. -1.
         11   -1    0    0    0    0 -0.00000000000E+00 -0.00000000000E+00 -0.18250000000E+03  0.18250000000E+03  0.00000000000E+00 0.  1.
        -11    1    1    2    0    0 -0.12780262782E+01  0.73097456820E+01  0.14758278115E+03  0.14776922219E+03  0.00000000000E+00 0. -1.
         11    1    1    2    0    0  0.10516579821E+02 -0.12079684309E+02 -0.16877981345E+03  0.16953802716E+03  0.00000000000E+00 0.  1.
        -15    1    1    2    0    0  0.98527381093E+01 -0.62386014919E+01  0.22647860582E+02  0.25535855474E+02  0.17770000000E+01 0.  1.
         15    1    1    2    0    0 -0.19091291652E+02  0.11008540119E+02 -0.14508282858E+01  0.22156895185E+02  0.17770000000E+01 0. -1.
</event>
<event>
 6    1  0.1226227E-002  0.1841663E+03  0.7546771E-02  0.1067136E+00
        -11   -1    0    0    0    0  0.00000000000E+00  0.00000000000E+00  0.18250000000E+03  0.18250000000E+03  0.00000000000E+00 0. -1.
         11   -1    0    0    0    0 -0.00000000000E+00 -0.00000000000E+00 -0.18250000000E+03  0.18250000000E+03  0.00000000000E+00 0.  1.
        -11    1    1    2    0    0 -0.24543728012E+01  0.10788192546E+01  0.18081379063E+03  0.18083366578E+03  0.00000000000E+00 0. -1.
         11    1    1    2    0    0  0.25048874960E+01  0.15872404367E+01 -0.15833498680E+03  0.15836275395E+03  0.00000000000E+00 0.  1.
        -15    1    1    2    0    0  0.16277207753E+01 -0.10245619565E+01  0.47535024261E+00  0.26613697561E+01  0.17770000000E+01 0. -1.
         15    1    1    2    0    0 -0.16782354701E+01 -0.16414977347E+01 -0.22954154078E+02  0.23142210515E+02  0.17770000000E+01 0.  1.
</event>
<event>
 6    1  0.1226227E-002  0.1831477E+03  0.7546771E-02  0.1067940E+00
        -11   -1    0    0    0    0  0.00000000000E+00  0.00000000000E+00  0.18250000000E+03  0.18250000000E+03  0.00000000000E+00 0. -1.
         11   -1    0    0    0    0 -0.00000000000E+00 -0.00000000000E+00 -0.18250000000E+03  0.18250000000E+03  0.00000000000E+00 0.  1.
        -11    1    1    2    0    0  0.14212129832E+01 -0.39593795174E+01  0.18180368569E+03  0.18185234853E+03  0.00000000000E+00 0. -1.
         11    1    1    2    0    0  0.19842786626E+01  0.24531827353E+01 -0.16070700493E+03  0.16073797592E+03  0.00000000000E+00 0.  1.
        -15    1    1    2    0    0 -0.30900687529E+01  0.17449678469E+00 -0.19023539344E+02  0.19355406279E+02  0.17770000000E+01 0. -1.
         15    1    1    2    0    0 -0.31542289291E+00  0.13316999975E+01 -0.20731414176E+01  0.30542692779E+01  0.17770000000E+01 0.  1.
</event>
<event>
 6    1  0.1226227E-002  0.1825849E+03  0.7546771E-02  0.1068387E+00
        -11   -1    0    0    0    0  0.00000000000E+00  0.00000000000E+00  0.18250000000E+03  0.18250000000E+03  0.00000000000E+00 0. -1.
         11   -1    0    0    0    0 -0.00000000000E+00 -0.00000000000E+00 -0.18250000000E+03  0.18250000000E+03  0.00000000000E+00 0.  1.
        -11    1    1    2    0    0  0.27899220333E+01 -0.11000490466E+00  0.18239368308E+03  0.18241505254E+03  0.00000000000E+00 0. -1.
         11    1    1    2    0    0 -0.85990178496E+00  0.46820833074E+00 -0.60162202313E+02  0.60170168998E+02  0.00000000000E+00 0.  1.
        -15    1    1    2    0    0 -0.48365904806E+00  0.10432727178E+01 -0.14888534272E+02  0.15038235462E+02  0.17770000000E+01 0. -1.
         15    1    1    2    0    0 -0.14463612002E+01 -0.14014761439E+01 -0.10734294649E+03  0.10737654300E+03  0.17770000000E+01 0.  1.
</event>
<event>
 6    1  0.1226227E-002  0.1846587E+03  0.7546771E-02  0.1066749E+00
        -11   -1    0    0    0    0  0.00000000000E+00  0.00000000000E+00  0.18250000000E+03  0.18250000000E+03  0.00000000000E+00 0. -1.
         11   -1    0    0    0    0 -0.00000000000E+00 -0.00000000000E+00 -0.18250000000E+03  0.18250000000E+03  0.00000000000E+00 0. -1.
        -11    1    1    2    0    0  0.47219463469E+01 -0.37854510064E+01  0.18023970871E+03  0.18034128483E+03  0.00000000000E+00 0. -1.
         11    1    1    2    0    0 -0.49683336835E+01 -0.10665084288E+01 -0.15871757484E+03  0.15879889906E+03  0.00000000000E+00 0. -1.
        -15    1    1    2    0    0  0.43713149534E+01 -0.22742984797E+00 -0.18872440984E+01  0.50871935333E+01  0.17770000000E+01 0. -1.
         15    1    1    2    0    0 -0.41249276168E+01  0.50793892832E+01 -0.19634889773E+02  0.20772622577E+02  0.17770000000E+01 0.  1.
</event>
<event>
 6    1  0.1226227E-002  0.1855097E+03  0.7546771E-02  0.1066084E+00
        -11   -1    0    0    0    0  0.00000000000E+00  0.00000000000E+00  0.18250000000E+03  0.18250000000E+03  0.00000000000E+00 0.  1.
         11   -1    0    0    0    0 -0.00000000000E+00 -0.00000000000E+00 -0.18250000000E+03  0.18250000000E+03  0.00000000000E+00 0. -1.
        -11    1    1    2    0    0 -0.47694630737E+01  0.11508601740E+02  0.11997744386E+03  0.12062248019E+03  0.00000000000E+00 0.  1.
         11    1    1    2    0    0  0.30383024808E+01 -0.27557081759E+01 -0.17944339791E+03  0.17949027345E+03  0.00000000000E+00 0. -1.
        -15    1    1    2    0    0  0.55827000824E+01 -0.30065493750E+01  0.18635249826E+01  0.68437076000E+01  0.17770000000E+01 0. -1.
         15    1    1    2    0    0 -0.38515394895E+01 -0.57463441894E+01  0.57602429074E+02  0.58043538763E+02  0.17770000000E+01 0.  1.
</event>
<event>
 6    1  0.1226227E-002  0.1843644E+03  0.7546771E-02  0.1066980E+00
        -11   -1    0    0    0    0  0.00000000000E+00  0.00000000000E+00  0.18250000000E+03  0.18250000000E+03  0.00000000000E+00 0.  1.
         11   -1    0    0    0    0 -0.00000000000E+00 -0.00000000000E+00 -0.18250000000E+03  0.18250000000E+03  0.00000000000E+00 0. -1.
        -11    1    1    2    0    0 -0.23291305701E+01  0.39389109543E+01  0.18057766024E+03  0.18063563117E+03  0.00000000000E+00 0.  1.
         11    1    1    2    0    0 -0.25201838163E+01  0.19950170193E+01 -0.17111645123E+03  0.17114663684E+03  0.00000000000E+00 0. -1.
        -15    1    1    2    0    0  0.14269415915E+01 -0.36236254727E+01 -0.66727278109E+01  0.79277896863E+01  0.17770000000E+01 0.  1.
         15    1    1    2    0    0  0.34223727948E+01 -0.23103025009E+01 -0.27884812000E+01  0.52899423055E+01  0.17770000000E+01 0. -1.
</event>
<event>
 6    1  0.1226227E-002  0.1884488E+03  0.7546771E-02  0.1063816E+00
        -11   -1    0    0    0    0  0.00000000000E+00  0.00000000000E+00  0.18250000000E+03  0.18250000000E+03  0.00000000000E+00 0.  1.
         11   -1    0    0    0    0 -0.00000000000E+00 -0.00000000000E+00 -0.18250000000E+03  0.18250000000E+03  0.00000000000E+00 0.  1.
        -11    1    1    2    0    0  0.12255027557E+01 -0.32034268548E+01  0.17106797057E+03  0.17110235052E+03  0.00000000000E+00 0.  1.
         11    1    1    2    0    0 -0.18713378520E+01  0.16693481553E+01 -0.17653337569E+03  0.17655118623E+03  0.00000000000E+00 0.  1.
        -15    1    1    2    0    0 -0.73330511979E+00 -0.40967529712E+01 -0.40435982783E+01  0.60687344102E+01  0.17770000000E+01 0.  1.
         15    1    1    2    0    0  0.13791402161E+01  0.56308316706E+01  0.95090033999E+01  0.11277728836E+02  0.17770000000E+01 0. -1.
</event>
<event>
 6    1  0.1226227E-002  0.1838018E+03  0.7546771E-02  0.1067423E+00
        -11   -1    0    0    0    0  0.00000000000E+00  0.00000000000E+00  0.18250000000E+03  0.18250000000E+03  0.00000000000E+00 0.  1.
         11   -1    0    0    0    0 -0.00000000000E+00 -0.00000000000E+00 -0.18250000000E+03  0.18250000000E+03  0.00000000000E+00 0.  1.
        -11    1    1    2    0    0  0.32772471931E+01  0.25289816929E+00  0.18116836820E+03  0.18119818416E+03  0.00000000000E+00 0.  1.
         11    1    1    2    0    0 -0.39797102590E+01  0.27852528910E+01 -0.16868862949E+03  0.16875855370E+03  0.00000000000E+00 0.  1.
        -15    1    1    2    0    0  0.49522168365E+00 -0.47709782623E+01 -0.49730656460E+01  0.71341845375E+01  0.17770000000E+01 0. -1.
         15    1    1    2    0    0  0.20724138229E+00  0.17328272020E+01 -0.75066730575E+01  0.79090776007E+01  0.17770000000E+01 0.  1.
</event>
<event>
 6    1  0.1226227E-002  0.1740523E+03  0.7546771E-02  0.1075385E+00
        -11   -1    0    0    0    0  0.00000000000E+00  0.00000000000E+00  0.18250000000E+03  0.18250000000E+03  0.00000000000E+00 0. -1.
         11   -1    0    0    0    0 -0.00000000000E+00 -0.00000000000E+00 -0.18250000000E+03  0.18250000000E+03  0.00000000000E+00 0. -1.
        -11    1    1    2    0    0 -0.48561063391E+00 -0.24122214907E+01  0.17480883459E+03  0.17482615159E+03  0.00000000000E+00 0. -1.
         11    1    1    2    0    0 -0.34096702335E+01  0.10920897595E+01 -0.17326916596E+03  0.17330615218E+03  0.00000000000E+00 0. -1.
        -15    1    1    2    0    0  0.63944554058E+01 -0.83568620031E+00 -0.73594582721E+01  0.99451891093E+01  0.17770000000E+01 0. -1.
         15    1    1    2    0    0 -0.24991745384E+01  0.21558179315E+01  0.58197896422E+01  0.69225071185E+01  0.17770000000E+01 0. -1.
</event>
<event>
 6    1  0.1226227E-002  0.1715799E+03  0.7546771E-02  0.1077495E+00
        -11   -1    0    0    0    0  0.00000000000E+00  0.00000000000E+00  0.18250000000E+03  0.18250000000E+03  0.00000000000E+00 0.  1.
         11   -1    0    0    0    0 -0.00000000000E+00 -0.00000000000E+00 -0.18250000000E+03  0.18250000000E+03  0.00000000000E+00 0. -1.
        -11    1    1    2    0    0 -0.12009517782E+02  0.34750146063E+01  0.17556993849E+03  0.17601450948E+03  0.00000000000E+00 0.  1.
         11    1    1    2    0    0 -0.30009848109E+01  0.29393123304E+01 -0.16757375197E+03  0.16762639355E+03  0.00000000000E+00 0. -1.
        -15    1    1    2    0    0  0.12098045967E+01 -0.28971618140E+01 -0.58133647111E+01  0.68417915784E+01  0.17770000000E+01 0.  1.
         15    1    1    2    0    0  0.13800697996E+02 -0.35171651226E+01 -0.21828218136E+01  0.14517305389E+02  0.17770000000E+01 0. -1.
</event>
<event>
 6    1  0.1226227E-002  0.1827669E+03  0.7546771E-02  0.1068243E+00
        -11   -1    0    0    0    0  0.00000000000E+00  0.00000000000E+00  0.18250000000E+03  0.18250000000E+03  0.00000000000E+00 0.  1.
         11   -1    0    0    0    0 -0.00000000000E+00 -0.00000000000E+00 -0.18250000000E+03  0.18250000000E+03  0.00000000000E+00 0. -1.
        -11    1    1    2    0    0  0.24239967414E+01  0.47497760838E+00  0.18221638053E+03  0.18223312184E+03  0.00000000000E+00 0.  1.
         11    1    1    2    0    0 -0.59201467304E+00 -0.32630866084E+00 -0.12278486244E+02  0.12297080269E+02  0.00000000000E+00 0. -1.
        -15    1    1    2    0    0 -0.41922955757E+01 -0.11388532817E+01 -0.21818802414E+02  0.22317934420E+02  0.17770000000E+01 0. -1.
         15    1    1    2    0    0  0.23603135074E+01  0.99018433414E+00 -0.14811909187E+03  0.14815186347E+03  0.17770000000E+01 0. -1.
</event>
<event>
 6    1  0.1226227E-002  0.1764070E+03  0.7546771E-02  0.1073411E+00
        -11   -1    0    0    0    0  0.00000000000E+00  0.00000000000E+00  0.18250000000E+03  0.18250000000E+03  0.00000000000E+00 0. -1.
         11   -1    0    0    0    0 -0.00000000000E+00 -0.00000000000E+00 -0.18250000000E+03  0.18250000000E+03  0.00000000000E+00 0.  1.
        -11    1    1    2    0    0  0.35507106533E+01 -0.52574829373E+01  0.18125236141E+03  0.18136335680E+03  0.00000000000E+00 0. -1.
         11    1    1    2    0    0 -0.28661551241E+00  0.93023340111E+00 -0.14043638749E+02  0.14077331848E+02  0.00000000000E+00 0.  1.
        -15    1    1    2    0    0  0.43112620022E+01 -0.61211970349E+01 -0.12824045022E+03  0.12847111284E+03  0.17770000000E+01 0.  1.
         15    1    1    2    0    0 -0.75753571431E+01  0.10448446571E+02 -0.38968272438E+02  0.41088198517E+02  0.17770000000E+01 0. -1.
</event>
<event>
 6    1  0.1226227E-002  0.1754750E+03  0.7546771E-02  0.1074188E+00
        -11   -1    0    0    0    0  0.00000000000E+00  0.00000000000E+00  0.18250000000E+03  0.18250000000E+03  0.00000000000E+00 0.  1.
         11   -1    0    0    0    0 -0.00000000000E+00 -0.00000000000E+00 -0.18250000000E+03  0.18250000000E+03  0.00000000000E+00 0.  1.
        -11    1    1    2    0    0 -0.61552309018E+01  0.75562822271E+01  0.17577770749E+03  0.17604768308E+03  0.00000000000E+00 0.  1.
         11    1    1    2    0    0  0.22204448133E+01 -0.26351481384E+01 -0.17492596085E+03  0.17495989872E+03  0.00000000000E+00 0.  1.
        -15    1    1    2    0    0  0.48557276300E+01 -0.84397239361E+01 -0.25779308664E+00  0.99010715182E+01  0.17770000000E+01 0. -1.
         15    1    1    2    0    0 -0.92094154154E+00  0.35185898474E+01 -0.59395355471E+00  0.40913466808E+01  0.17770000000E+01 0. -1.
</event>
<event>
 6    1  0.1226227E-002  0.1839672E+03  0.7546771E-02  0.1067293E+00
        -11   -1    0    0    0    0  0.00000000000E+00  0.00000000000E+00  0.18250000000E+03  0.18250000000E+03  0.00000000000E+00 0. -1.
         11   -1    0    0    0    0 -0.00000000000E+00 -0.00000000000E+00 -0.18250000000E+03  0.18250000000E+03  0.00000000000E+00 0. -1.
        -11    1    1    2    0    0 -0.20049145379E+01 -0.19199477864E+01  0.17083633051E+03  0.17085888243E+03  0.00000000000E+00 0. -1.
         11    1    1    2    0    0  0.48928415825E+01 -0.17758586816E+01 -0.18095793383E+03  0.18103277987E+03  0.00000000000E+00 0. -1.
        -15    1    1    2    0    0 -0.83846696901E+00  0.12570863804E+01  0.89922358786E+01  0.92898508127E+01  0.17770000000E+01 0. -1.
         15    1    1    2    0    0 -0.20494600756E+01  0.24387200876E+01  0.11293674381E+01  0.38184868832E+01  0.17770000000E+01 0.  1.
</event>
<event>
 6    1  0.1226227E-002  0.1889492E+03  0.7546771E-02  0.1063434E+00
        -11   -1    0    0    0    0  0.00000000000E+00  0.00000000000E+00  0.18250000000E+03  0.18250000000E+03  0.00000000000E+00 0. -1.
         11   -1    0    0    0    0 -0.00000000000E+00 -0.00000000000E+00 -0.18250000000E+03  0.18250000000E+03  0.00000000000E+00 0. -1.
        -11    1    1    2    0    0  0.45188878639E+01 -0.17210625349E+01  0.13232179167E+03  0.13241011651E+03  0.00000000000E+00 0. -1.
         11    1    1    2    0    0  0.80062405388E+01  0.52284369961E+00 -0.17586789516E+03  0.17605081596E+03  0.00000000000E+00 0. -1.
        -15    1    1    2    0    0 -0.10728047796E+02 -0.15945341765E+01  0.48829194763E+02  0.50050789594E+02  0.17770000000E+01 0. -1.
         15    1    1    2    0    0 -0.17970806072E+01  0.27927530117E+01 -0.52830912796E+01  0.64882779350E+01  0.17770000000E+01 0.  1.
</event>
<event>
 6    1  0.1226227E-002  0.1842725E+03  0.7546771E-02  0.1067053E+00
        -11   -1    0    0    0    0  0.00000000000E+00  0.00000000000E+00  0.18250000000E+03  0.18250000000E+03  0.00000000000E+00 0. -1.
         11   -1    0    0    0    0 -0.00000000000E+00 -0.00000000000E+00 -0.18250000000E+03  0.18250000000E+03  0.00000000000E+00 0. -1.
        -11    1    1    2    0    0  0.35518479783E+01  0.21949174027E+01  0.17092967522E+03  0.17098066311E+03  0.00000000000E+00 0. -1.
         11    1    1    2    0    0 -0.79588671908E+00 -0.24523856309E+01 -0.18070907473E+03  0.18072746698E+03  0.00000000000E+00 0. -1.
        -15    1    1    2    0    0 -0.55907679416E-01  0.27320710552E+01  0.68905331944E+00  0.33316454488E+01  0.17770000000E+01 0. -1.
         15    1    1    2    0    0 -0.27000535798E+01 -0.24746028271E+01  0.90903461868E+01  0.99602244594E+01  0.17770000000E+01 0.  1.
</event>
<event>
 6    1  0.1834046E-002  0.1837755E+03  0.7546771E-02  0.1067444E+00
        -11   -1    0    0    0    0  0.00000000000E+00  0.00000000000E+00  0.18250000000E+03  0.18250000000E+03  0.00000000000E+00 0. -1.
         11   -1    0    0    0    0 -0.00000000000E+00 -0.00000000000E+00 -0.18250000000E+03  0.18250000000E+03  0.00000000000E+00 0.  1.
        -11    1    1    2    0    0 -0.13625871371E+00  0.15471655130E+01  0.82276217988E+02  0.82290876371E+02  0.00000000000E+00 0. -1.
         11    1    1    2    0    0  0.33241552304E+01 -0.13127014877E+02 -0.18071790549E+03  0.18122452895E+03  0.00000000000E+00 0.  1.
        -15    1    1    2    0    0 -0.50243027810E+01  0.13002402003E+02  0.31654289124E+02  0.34633189648E+02  0.17770000000E+01 0. -1.
         15    1    1    2    0    0  0.18364062644E+01 -0.14225526392E+01  0.66787398377E+02  0.66851405034E+02  0.17770000000E+01 0. -1.
</event>
<event>
 6    1  0.1226227E-002  0.1848561E+03  0.7546771E-02  0.1066595E+00
        -11   -1    0    0    0    0  0.00000000000E+00  0.00000000000E+00  0.18250000000E+03  0.18250000000E+03  0.00000000000E+00 0.  1.
         11   -1    0    0    0    0 -0.00000000000E+00 -0.00000000000E+00 -0.18250000000E+03  0.18250000000E+03  0.00000000000E+00 0.  1.
        -11    1    1    2    0    0  0.10353056617E+01  0.27566300507E+01  0.17646341737E+03  0.17648798411E+03  0.00000000000E+00 0.  1.
         11    1    1    2    0    0 -0.27241415422E+01  0.15657898322E+01 -0.18011653983E+03  0.18014394401E+03  0.00000000000E+00 0.  1.
        -15    1    1    2    0    0  0.52601590824E+00 -0.49458130510E+01  0.29287441996E+01  0.60392906088E+01  0.17770000000E+01 0. -1.
         15    1    1    2    0    0  0.11628199722E+01  0.62339316800E+00  0.72437826252E+00  0.23287812686E+01  0.17770000000E+01 0.  1.
</event>
<event>
 6    1  0.1226227E-002  0.1789725E+03  0.7546771E-02  0.1071298E+00
        -11   -1    0    0    0    0  0.00000000000E+00  0.00000000000E+00  0.18250000000E+03  0.18250000000E+03  0.00000000000E+00 0. -1.
         11   -1    0    0    0    0 -0.00000000000E+00 -0.00000000000E+00 -0.18250000000E+03  0.18250000000E+03  0.00000000000E+00 0.  1.
        -11    1    1    2    0    0  0.33917260613E+01  0.14356689779E+01  0.17922425137E+03  0.17926209089E+03  0.00000000000E+00 0. -1.
         11    1    1    2    0    0  0.15289181489E+01 -0.39463418402E+01 -0.17867590110E+03  0.17872601612E+03  0.00000000000E+00 0.  1.
        -15    1    1    2    0    0 -0.14002449532E+01  0.18458691432E+01  0.26165986626E+00  0.29315718836E+01  0.17770000000E+01 0. -1.
         15    1    1    2    0    0 -0.35203992570E+01  0.66480371914E+00 -0.81001013717E+00  0.40803211069E+01  0.17770000000E+01 0.  1.
</event>
<event>
 6    1  0.1226227E-002  0.1830730E+03  0.7546771E-02  0.1068000E+00
        -11   -1    0    0    0    0  0.00000000000E+00  0.00000000000E+00  0.18250000000E+03  0.18250000000E+03  0.00000000000E+00 0. -1.
         11   -1    0    0    0    0 -0.00000000000E+00 -0.00000000000E+00 -0.18250000000E+03  0.18250000000E+03  0.00000000000E+00 0. -1.
        -11    1    1    2    0    0 -0.13248341651E+01 -0.31021762840E+01  0.18189574891E+03  0.18192702426E+03  0.00000000000E+00 0. -1.
         11    1    1    2    0    0  0.94117126154E-01  0.32871589706E+01 -0.13962223420E+03  0.13966095572E+03  0.00000000000E+00 0. -1.
        -15    1    1    2    0    0  0.83388950488E+00 -0.45502085300E+01 -0.25864479951E+02  0.26334935381E+02  0.17770000000E+01 0. -1.
         15    1    1    2    0    0  0.39682753403E+00  0.43652258434E+01 -0.16409034766E+02  0.17077084637E+02  0.17770000000E+01 0.  1.
</event>
<event>
 6    1  0.1226227E-002  0.1828668E+03  0.7546771E-02  0.1068163E+00
        -11   -1    0    0    0    0  0.00000000000E+00  0.00000000000E+00  0.18250000000E+03  0.18250000000E+03  0.00000000000E+00 0.  1.
         11   -1    0    0    0    0 -0.00000000000E+00 -0.00000000000E+00 -0.18250000000E+03  0.18250000000E+03  0.00000000000E+00 0.  1.
        -11    1    1    2    0    0  0.19044203604E+01 -0.16771603016E+01  0.18211548829E+03  0.18213316765E+03  0.00000000000E+00 0.  1.
         11    1    1    2    0    0 -0.21520858643E+00 -0.11619631118E+01 -0.60419787320E+02  0.60431342636E+02  0.00000000000E+00 0.  1.
        -15    1    1    2    0    0  0.32971867650E+01  0.58359480392E+01 -0.79762471359E+02  0.80063345523E+02  0.17770000000E+01 0. -1.
         15    1    1    2    0    0 -0.49863985390E+01 -0.29968246258E+01 -0.41933229613E+02  0.42372144187E+02  0.17770000000E+01 0.  1.
</event>
<event>
 6    1  0.1226227E-002  0.1865517E+03  0.7546771E-02  0.1065275E+00
        -11   -1    0    0    0    0  0.00000000000E+00  0.00000000000E+00  0.18250000000E+03  0.18250000000E+03  0.00000000000E+00 0.  1.
         11   -1    0    0    0    0 -0.00000000000E+00 -0.00000000000E+00 -0.18250000000E+03  0.18250000000E+03  0.00000000000E+00 0. -1.
        -11    1    1    2    0    0  0.41841334310E+00  0.25530317850E+01  0.13883874834E+03  0.13886284990E+03  0.00000000000E+00 0.  1.
         11    1    1    2    0    0  0.21969021806E+01 -0.21981387172E+01 -0.17842123492E+03  0.17844829858E+03  0.00000000000E+00 0. -1.
        -15    1    1    2    0    0  0.73067362348E+01 -0.10633596657E+01  0.36267601497E+02  0.37054227499E+02  0.17770000000E+01 0.  1.
         15    1    1    2    0    0 -0.99220517585E+01  0.70846659791E+00  0.33148850834E+01  0.10634624024E+02  0.17770000000E+01 0. -1.
</event>
<event>
 6    1  0.1226227E-002  0.1830005E+03  0.7546771E-02  0.1068057E+00
        -11   -1    0    0    0    0  0.00000000000E+00  0.00000000000E+00  0.18250000000E+03  0.18250000000E+03  0.00000000000E+00 0.  1.
         11   -1    0    0    0    0 -0.00000000000E+00 -0.00000000000E+00 -0.18250000000E+03  0.18250000000E+03  0.00000000000E+00 0.  1.
        -11    1    1    2    0    0  0.44221136691E+01 -0.21084620943E+01  0.18193354409E+03  0.18199949222E+03  0.00000000000E+00 0.  1.
         11    1    1    2    0    0 -0.12213662775E+01  0.22464150521E+01 -0.13096492486E+03  0.13098988380E+03  0.00000000000E+00 0.  1.
        -15    1    1    2    0    0 -0.38188660943E+01  0.20179895867E-01 -0.49333358797E+02  0.49512848481E+02  0.17770000000E+01 0.  1.
         15    1    1    2    0    0  0.61811870279E+00 -0.15813285371E+00 -0.16352604392E+01  0.24977754972E+01  0.17770000000E+01 0.  1.
</event>
<event>
 6    1  0.1226227E-002  0.1844033E+03  0.7546771E-02  0.1066950E+00
        -11   -1    0    0    0    0  0.00000000000E+00  0.00000000000E+00  0.18250000000E+03  0.18250000000E+03  0.00000000000E+00 0. -1.
         11   -1    0    0    0    0 -0.00000000000E+00 -0.00000000000E+00 -0.18250000000E+03  0.18250000000E+03  0.00000000000E+00 0.  1.
        -11    1    1    2    0    0 -0.14892333425E+01 -0.13478607410E+02  0.18008688815E+03  0.18059672743E+03  0.00000000000E+00 0. -1.
         11    1    1    2    0    0 -0.12838493852E+01  0.16699277003E+01 -0.11133634240E+03  0.11135626640E+03  0.00000000000E+00 0.  1.
        -15    1    1    2    0    0  0.16190028751E+01  0.11991300855E+02 -0.15452734176E+02  0.19706780281E+02  0.17770000000E+01 0. -1.
         15    1    1    2    0    0  0.11540798526E+01 -0.18262114578E+00 -0.53297811577E+02  0.53340225896E+02  0.17770000000E+01 0.  1.
</event>
<event>
 6    1  0.1226227E-002  0.1827204E+03  0.7546771E-02  0.1068280E+00
        -11   -1    0    0    0    0  0.00000000000E+00  0.00000000000E+00  0.18250000000E+03  0.18250000000E+03  0.00000000000E+00 0.  1.
         11   -1    0    0    0    0 -0.00000000000E+00 -0.00000000000E+00 -0.18250000000E+03  0.18250000000E+03  0.00000000000E+00 0.  1.
        -11    1    1    2    0    0 -0.25790562428E+01  0.11988074240E+01  0.12273449686E+03  0.12276744434E+03  0.00000000000E+00 0.  1.
         11    1    1    2    0    0 -0.30702117856E-01  0.29184509453E+01 -0.18225625069E+03  0.18227961821E+03  0.00000000000E+00 0.  1.
        -15    1    1    2    0    0  0.10953798656E+01  0.35677903490E+00  0.19290686175E+02  0.19406582657E+02  0.17770000000E+01 0.  1.
         15    1    1    2    0    0  0.15143784950E+01 -0.44740374042E+01  0.40231067659E+02  0.40546354792E+02  0.17770000000E+01 0. -1.
</event>
<event>
 6    1  0.1226227E-002  0.1832915E+03  0.7546771E-02  0.1067826E+00
        -11   -1    0    0    0    0  0.00000000000E+00  0.00000000000E+00  0.18250000000E+03  0.18250000000E+03  0.00000000000E+00 0. -1.
         11   -1    0    0    0    0 -0.00000000000E+00 -0.00000000000E+00 -0.18250000000E+03  0.18250000000E+03  0.00000000000E+00 0. -1.
        -11    1    1    2    0    0 -0.30707760622E+01 -0.21711786779E+01  0.15484201163E+03  0.15488767623E+03  0.00000000000E+00 0. -1.
         11    1    1    2    0    0  0.54472363630E+00 -0.33767065271E+01 -0.18167626272E+03  0.18170845690E+03  0.00000000000E+00 0. -1.
        -15    1    1    2    0    0  0.33055629796E+01  0.30284349773E+01  0.83040508504E+01  0.96027680670E+01  0.17770000000E+01 0.  1.
         15    1    1    2    0    0 -0.77951055370E+00  0.25194502278E+01  0.18530200241E+02  0.18801098801E+02  0.17770000000E+01 0. -1.
</event>
<event>
 6    1  0.1226227E-002  0.1852324E+03  0.7546771E-02  0.1066300E+00
        -11   -1    0    0    0    0  0.00000000000E+00  0.00000000000E+00  0.18250000000E+03  0.18250000000E+03  0.00000000000E+00 0. -1.
         11   -1    0    0    0    0 -0.00000000000E+00 -0.00000000000E+00 -0.18250000000E+03  0.18250000000E+03  0.00000000000E+00 0.  1.
        -11    1    1    2    0    0  0.47946840373E+01  0.18256969337E+01  0.16680956942E+03  0.16688844962E+03  0.00000000000E+00 0. -1.
         11    1    1    2    0    0 -0.40064942023E+01  0.26400138906E+01 -0.17970359673E+03  0.17976763988E+03  0.00000000000E+00 0.  1.
        -15    1    1    2    0    0  0.44704350332E+01 -0.42059077072E+01  0.31440742510E+01  0.71216136460E+01  0.17770000000E+01 0. -1.
         15    1    1    2    0    0 -0.52586248682E+01 -0.25980311707E+00  0.97499530575E+01  0.11222296859E+02  0.17770000000E+01 0. -1.
</event>
<event>
 6    1  0.1226227E-002  0.1564710E+03  0.7546771E-02  0.1091297E+00
        -11   -1    0    0    0    0  0.00000000000E+00  0.00000000000E+00  0.18250000000E+03  0.18250000000E+03  0.00000000000E+00 0.  1.
         11   -1    0    0    0    0 -0.00000000000E+00 -0.00000000000E+00 -0.18250000000E+03  0.18250000000E+03  0.00000000000E+00 0. -1.
        -11    1    1    2    0    0 -0.51584747319E+01 -0.28532801790E+01  0.15927323706E+03  0.15938229234E+03  0.00000000000E+00 0.  1.
         11    1    1    2    0    0 -0.21279308070E+01 -0.15513167592E+02 -0.25433012911E+02  0.29866780944E+02  0.00000000000E+00 0. -1.
        -15    1    1    2    0    0 -0.26894119865E+01  0.17792531806E+02 -0.15300229408E+03  0.15406708554E+03  0.17770000000E+01 0. -1.
         15    1    1    2    0    0  0.99758175254E+01  0.57391596500E+00  0.19162069934E+02  0.21683841172E+02  0.17770000000E+01 0.  1.
</event>
<event>
 6    1  0.1226227E-002  0.1836706E+03  0.7546771E-02  0.1067527E+00
        -11   -1    0    0    0    0  0.00000000000E+00  0.00000000000E+00  0.18250000000E+03  0.18250000000E+03  0.00000000000E+00 0.  1.
         11   -1    0    0    0    0 -0.00000000000E+00 -0.00000000000E+00 -0.18250000000E+03  0.18250000000E+03  0.00000000000E+00 0. -1.
        -11    1    1    2    0    0 -0.23430285916E+00 -0.63041390367E+01  0.18121961386E+03  0.18132938404E+03  0.00000000000E+00 0.  1.
         11    1    1    2    0    0  0.19629710975E+01 -0.14198268618E+01 -0.16094900774E+03  0.16096723970E+03  0.00000000000E+00 0. -1.
        -15    1    1    2    0    0  0.57151701288E+00  0.20523764280E+01 -0.21963087246E+01  0.35384151413E+01  0.17770000000E+01 0.  1.
         15    1    1    2    0    0 -0.23001852513E+01  0.56715894704E+01 -0.18074297402E+02  0.19164961124E+02  0.17770000000E+01 0. -1.
</event>
<event>
 6    1  0.1226227E-002  0.1876385E+03  0.7546771E-02  0.1064437E+00
        -11   -1    0    0    0    0  0.00000000000E+00  0.00000000000E+00  0.18250000000E+03  0.18250000000E+03  0.00000000000E+00 0.  1.
         11   -1    0    0    0    0 -0.00000000000E+00 -0.00000000000E+00 -0.18250000000E+03  0.18250000000E+03  0.00000000000E+00 0.  1.
        -11    1    1    2    0    0  0.71117038313E+01  0.91143469740E+01  0.13632314526E+03  0.13681245406E+03  0.00000000000E+00 0.  1.
         11    1    1    2    0    0 -0.87857774472E+01  0.47715799191E+01 -0.17707944663E+03  0.17736146222E+03  0.00000000000E+00 0.  1.
        -15    1    1    2    0    0 -0.10384626744E+02 -0.12863413733E+02  0.15353238523E+02  0.22631560875E+02  0.17770000000E+01 0. -1.
         15    1    1    2    0    0  0.12058700360E+02 -0.10225131603E+01  0.25403062852E+02  0.28194522851E+02  0.17770000000E+01 0.  1.
</event>
<event>
 6    1  0.1226227E-002  0.1830352E+03  0.7546771E-02  0.1068030E+00
        -11   -1    0    0    0    0  0.00000000000E+00  0.00000000000E+00  0.18250000000E+03  0.18250000000E+03  0.00000000000E+00 0. -1.
         11   -1    0    0    0    0 -0.00000000000E+00 -0.00000000000E+00 -0.18250000000E+03  0.18250000000E+03  0.00000000000E+00 0. -1.
        -11    1    1    2    0    0  0.21032761879E+01  0.29317296452E+01  0.18192902424E+03  0.18196480063E+03  0.00000000000E+00 0. -1.
         11    1    1    2    0    0 -0.25278018570E+01  0.39021339010E+01 -0.14472427384E+03  0.14479893601E+03  0.00000000000E+00 0. -1.
        -15    1    1    2    0    0  0.16715239338E+01 -0.58623310278E+01 -0.24410515991E+02  0.25222845543E+02  0.17770000000E+01 0.  1.
         15    1    1    2    0    0 -0.12469982646E+01 -0.97153251830E+00 -0.12794234410E+02  0.13013417816E+02  0.17770000000E+01 0. -1.
</event>
<event>
 6    1  0.1838488E-002  0.1063112E+03  0.7546771E-02  0.1153326E+00
        -11   -1    0    0    0    0  0.00000000000E+00  0.00000000000E+00  0.18250000000E+03  0.18250000000E+03  0.00000000000E+00 0.  1.
         11   -1    0    0    0    0 -0.00000000000E+00 -0.00000000000E+00 -0.18250000000E+03  0.18250000000E+03  0.00000000000E+00 0. -1.
        -11    1    1    2    0    0 -0.28393813579E+01  0.29832902869E+01  0.90311370678E+02  0.90405230940E+02  0.00000000000E+00 0.  1.
         11    1    1    2    0    0  0.25042359113E+00  0.30818265469E+01 -0.12256667859E+03  0.12260567307E+03  0.00000000000E+00 0. -1.
        -15    1    1    2    0    0  0.14107426677E+01 -0.90857754126E+01  0.91826742562E+02  0.92303032931E+02  0.17770000000E+01 0.  1.
         15    1    1    2    0    0  0.11782150990E+01  0.30206585788E+01 -0.59571434647E+02  0.59686063064E+02  0.17770000000E+01 0. -1.
</event>
<event>
 6    1  0.1226227E-002  0.1904853E+03  0.7546771E-02  0.1062270E+00
        -11   -1    0    0    0    0  0.00000000000E+00  0.00000000000E+00  0.18250000000E+03  0.18250000000E+03  0.00000000000E+00 0.  1.
         11   -1    0    0    0    0 -0.00000000000E+00 -0.00000000000E+00 -0.18250000000E+03  0.18250000000E+03  0.00000000000E+00 0. -1.
        -11    1    1    2    0    0 -0.64759484512E+01  0.22157059970E+01  0.17438043356E+03  0.17451470675E+03  0.00000000000E+00 0.  1.
         11    1    1    2    0    0 -0.11864910803E+02  0.89985631137E+00 -0.13998512400E+03  0.14048993128E+03  0.00000000000E+00 0. -1.
        -15    1    1    2    0    0  0.71606801366E+01 -0.11800854739E+01 -0.37387841528E+02  0.38127108006E+02  0.17770000000E+01 0. -1.
         15    1    1    2    0    0  0.11180179117E+02 -0.19354768345E+01  0.29925319681E+01  0.11868253968E+02  0.17770000000E+01 0.  1.
</event>
<event>
 6    1  0.1226227E-002  0.1850934E+03  0.7546771E-02  0.1066409E+00
        -11   -1    0    0    0    0  0.00000000000E+00  0.00000000000E+00  0.18250000000E+03  0.18250000000E+03  0.00000000000E+00 0. -1.
         11   -1    0    0    0    0 -0.00000000000E+00 -0.00000000000E+00 -0.18250000000E+03  0.18250000000E+03  0.00000000000E+00 0. -1.
        -11    1    1    2    0    0  0.25171802256E+01 -0.76729906388E+01  0.15271448081E+03  0.15292783798E+03  0.00000000000E+00 0. -1.
         11    1    1    2    0    0  0.10303185098E-01 -0.26656218137E+01 -0.17988685793E+03  0.17990660717E+03  0.00000000000E+00 0. -1.
        -15    1    1    2    0    0  0.19395654969E+01 -0.19403577504E+01  0.99594825265E+01  0.10482171708E+02  0.17770000000E+01 0. -1.
         15    1    1    2    0    0 -0.44670489075E+01  0.12278970203E+02  0.17212894595E+02  0.21683383143E+02  0.17770000000E+01 0.  1.
</event>
<event>
 6    1  0.1226227E-002  0.2165687E+03  0.7546771E-02  0.1044167E+00
        -11   -1    0    0    0    0  0.00000000000E+00  0.00000000000E+00  0.18250000000E+03  0.18250000000E+03  0.00000000000E+00 0.  1.
         11   -1    0    0    0    0 -0.00000000000E+00 -0.00000000000E+00 -0.18250000000E+03  0.18250000000E+03  0.00000000000E+00 0.  1.
        -11    1    1    2    0    0  0.10980836516E+02  0.70560638570E+00  0.14802289936E+03  0.14843131539E+03  0.00000000000E+00 0.  1.
         11    1    1    2    0    0  0.51745789843E+01  0.10724838513E+01 -0.12678305931E+03  0.12689314645E+03  0.00000000000E+00 0.  1.
        -15    1    1    2    0    0  0.82847589571E+01  0.54922951978E+01 -0.50109383179E+02  0.51116636716E+02  0.17770000000E+01 0.  1.
         15    1    1    2    0    0 -0.24440174458E+02 -0.72703854348E+01  0.28869543121E+02  0.38558901448E+02  0.17770000000E+01 0. -1.
</event>
<event>
 6    1  0.1226227E-002  0.1875414E+03  0.7546771E-02  0.1064511E+00
        -11   -1    0    0    0    0  0.00000000000E+00  0.00000000000E+00  0.18250000000E+03  0.18250000000E+03  0.00000000000E+00 0. -1.
         11   -1    0    0    0    0 -0.00000000000E+00 -0.00000000000E+00 -0.18250000000E+03  0.18250000000E+03  0.00000000000E+00 0. -1.
        -11    1    1    2    0    0  0.59670313120E+01 -0.12849538831E+02  0.17689213964E+03  0.17745857313E+03  0.00000000000E+00 0. -1.
         11    1    1    2    0    0  0.18469671642E+00 -0.32069008981E+01 -0.15172190435E+03  0.15175590462E+03  0.00000000000E+00 0. -1.
        -15    1    1    2    0    0 -0.56300471696E+00  0.18227376685E+02 -0.14289351003E+02  0.23235694873E+02  0.17770000000E+01 0. -1.
         15    1    1    2    0    0 -0.55887233115E+01 -0.21709369556E+01 -0.10880884286E+02  0.12549827383E+02  0.17770000000E+01 0.  1.
</event>
<event>
 6    1  0.1226227E-002  0.1912237E+03  0.7546771E-02  0.1061715E+00
        -11   -1    0    0    0    0  0.00000000000E+00  0.00000000000E+00  0.18250000000E+03  0.18250000000E+03  0.00000000000E+00 0.  1.
         11   -1    0    0    0    0 -0.00000000000E+00 -0.00000000000E+00 -0.18250000000E+03  0.18250000000E+03  0.00000000000E+00 0.  1.
        -11    1    1    2    0    0 -0.13826663901E+02 -0.57641816674E+01  0.17312947610E+03  0.17377634454E+03  0.00000000000E+00 0.  1.
         11    1    1    2    0    0 -0.34092740762E+01  0.28710785349E+01 -0.14728049176E+03  0.14734791989E+03  0.00000000000E+00 0.  1.
        -15    1    1    2    0    0  0.68953136080E+01  0.33280280203E+01  0.62885548356E+01  0.10066020623E+02  0.17770000000E+01 0.  1.
         15    1    1    2    0    0  0.10340624369E+02 -0.43492488783E+00 -0.32137539173E+02  0.33809714951E+02  0.17770000000E+01 0. -1.
</event>
<event>
 6    1  0.1226227E-002  0.1865933E+03  0.7546771E-02  0.1065242E+00
        -11   -1    0    0    0    0  0.00000000000E+00  0.00000000000E+00  0.18250000000E+03  0.18250000000E+03  0.00000000000E+00 0.  1.
         11   -1    0    0    0    0 -0.00000000000E+00 -0.00000000000E+00 -0.18250000000E+03  0.18250000000E+03  0.00000000000E+00 0.  1.
        -11    1    1    2    0    0 -0.21553403848E+01 -0.79588467095E+00  0.11979111012E+03  0.11981314197E+03  0.00000000000E+00 0.  1.
         11    1    1    2    0    0 -0.25835278908E+01  0.72422376418E+01 -0.17824092513E+03  0.17840670395E+03  0.00000000000E+00 0.  1.
        -15    1    1    2    0    0  0.65166858252E+01  0.17852043200E+00  0.59263877248E+02  0.59647832644E+02  0.17770000000E+01 0.  1.
         15    1    1    2    0    0 -0.17778175496E+01 -0.66248734028E+01 -0.81406223752E+00  0.71323214432E+01  0.17770000000E+01 0.  1.
</event>
<event>
 6    1  0.1226227E-002  0.1825614E+03  0.7546771E-02  0.1068406E+00
        -11   -1    0    0    0    0  0.00000000000E+00  0.00000000000E+00  0.18250000000E+03  0.18250000000E+03  0.00000000000E+00 0. -1.
         11   -1    0    0    0    0 -0.00000000000E+00 -0.00000000000E+00 -0.18250000000E+03  0.18250000000E+03  0.00000000000E+00 0.  1.
        -11    1    1    2    0    0  0.50369809639E+00  0.24883172228E+00  0.22792097634E+02  0.22799020671E+02  0.00000000000E+00 0. -1.
         11    1    1    2    0    0 -0.42109554494E+01 -0.23788276611E+01 -0.18237448911E+03  0.18243860678E+03  0.00000000000E+00 0.  1.
        -15    1    1    2    0    0  0.33073251828E+01  0.16097786682E+01  0.50961415441E+02  0.51124880245E+02  0.17770000000E+01 0. -1.
         15    1    1    2    0    0  0.39993217023E+00  0.52021727063E+00  0.10862097603E+03  0.10863749231E+03  0.17770000000E+01 0. -1.
</event>
<event>
 6    1  0.1226227E-002  0.1871116E+03  0.7546771E-02  0.1064842E+00
        -11   -1    0    0    0    0  0.00000000000E+00  0.00000000000E+00  0.18250000000E+03  0.18250000000E+03  0.00000000000E+00 0. -1.
         11   -1    0    0    0    0 -0.00000000000E+00 -0.00000000000E+00 -0.18250000000E+03  0.18250000000E+03  0.00000000000E+00 0. -1.
        -11    1    1    2    0    0 -0.14028343474E+01  0.19008942997E+01  0.15915962453E+03  0.15917715736E+03  0.00000000000E+00 0. -1.
         11    1    1    2    0    0 -0.31994361529E+01 -0.74140553028E+00 -0.17785809084E+03  0.17788841039E+03  0.00000000000E+00 0. -1.
        -15    1    1    2    0    0  0.55941022313E+01 -0.21329047759E+01 -0.24187124990E+01  0.66971009929E+01  0.17770000000E+01 0. -1.
         15    1    1    2    0    0 -0.99183173100E+00  0.97341600647E+00  0.21117178809E+02  0.21237331253E+02  0.17770000000E+01 0.  1.
</event>
<event>
 6    1  0.1226227E-002  0.1830110E+03  0.7546771E-02  0.1068049E+00
        -11   -1    0    0    0    0  0.00000000000E+00  0.00000000000E+00  0.18250000000E+03  0.18250000000E+03  0.00000000000E+00 0. -1.
         11   -1    0    0    0    0 -0.00000000000E+00 -0.00000000000E+00 -0.18250000000E+03  0.18250000000E+03  0.00000000000E+00 0.  1.
        -11    1    1    2    0    0  0.24579774774E+01  0.70039618488E+00  0.18197101632E+03  0.18198896392E+03  0.00000000000E+00 0. -1.
         11    1    1    2    0    0 -0.69720556916E+00  0.38010688469E+01 -0.15588753497E+03  0.15593542823E+03  0.00000000000E+00 0.  1.
        -15    1    1    2    0    0  0.12329398975E+01 -0.12883069062E+01 -0.96347887997E+01  0.99582508348E+01  0.17770000000E+01 0.  1.
         15    1    1    2    0    0 -0.29937118058E+01 -0.32131581256E+01 -0.16448692550E+02  0.17117357013E+02  0.17770000000E+01 0. -1.
</event>
<event>
 6    1  0.1226227E-002  0.1832508E+03  0.7546771E-02  0.1067859E+00
        -11   -1    0    0    0    0  0.00000000000E+00  0.00000000000E+00  0.18250000000E+03  0.18250000000E+03  0.00000000000E+00 0. -1.
         11   -1    0    0    0    0 -0.00000000000E+00 -0.00000000000E+00 -0.18250000000E+03  0.18250000000E+03  0.00000000000E+00 0. -1.
        -11    1    1    2    0    0  0.29894847606E+01 -0.59205495426E+01  0.11578281785E+03  0.11597262968E+03  0.00000000000E+00 0. -1.
         11    1    1    2    0    0 -0.41919128186E+01  0.27817635050E+00 -0.18170067265E+03  0.18174923372E+03  0.00000000000E+00 0. -1.
        -15    1    1    2    0    0  0.59456147786E+01  0.51014945342E+01  0.47237537410E+02  0.47915741162E+02  0.17770000000E+01 0.  1.
         15    1    1    2    0    0 -0.47431867206E+01  0.54087865785E+00  0.18680317394E+02  0.19362395434E+02  0.17770000000E+01 0. -1.
</event>
<event>
 6    1  0.1226227E-002  0.1844581E+03  0.7546771E-02  0.1066907E+00
        -11   -1    0    0    0    0  0.00000000000E+00  0.00000000000E+00  0.18250000000E+03  0.18250000000E+03  0.00000000000E+00 0.  1.
         11   -1    0    0    0    0 -0.00000000000E+00 -0.00000000000E+00 -0.18250000000E+03  0.18250000000E+03  0.00000000000E+00 0.  1.
        -11    1    1    2    0    0  0.38516903531E+01  0.33938776166E+01  0.18046893795E+03  0.18054193831E+03  0.00000000000E+00 0.  1.
         11    1    1    2    0    0 -0.10070341378E+01  0.18618153904E+01 -0.14542473252E+03  0.14544013649E+03  0.00000000000E+00 0.  1.
        -15    1    1    2    0    0 -0.34178597006E+01 -0.52311946391E+01 -0.34258487781E+01  0.73444762329E+01  0.17770000000E+01 0.  1.
         15    1    1    2    0    0  0.57320348536E+00 -0.24498367953E-01 -0.31618356657E+02  0.31673448961E+02  0.17770000000E+01 0. -1.
</event>
<event>
 6    1  0.1226227E-002  0.1918114E+03  0.7546771E-02  0.1061275E+00
        -11   -1    0    0    0    0  0.00000000000E+00  0.00000000000E+00  0.18250000000E+03  0.18250000000E+03  0.00000000000E+00 0. -1.
         11   -1    0    0    0    0 -0.00000000000E+00 -0.00000000000E+00 -0.18250000000E+03  0.18250000000E+03  0.00000000000E+00 0.  1.
        -11    1    1    2    0    0  0.52890702241E+01 -0.37788082538E+01  0.17306659000E+03  0.17318862038E+03  0.00000000000E+00 0. -1.
         11    1    1    2    0    0 -0.28085848611E+01  0.26105788375E+01 -0.16512158139E+03  0.16516609794E+03  0.00000000000E+00 0.  1.
        -15    1    1    2    0    0 -0.51383260283E+01  0.52319632849E+01  0.73295324208E+01  0.10519296968E+02  0.17770000000E+01 0. -1.
         15    1    1    2    0    0  0.26578406654E+01 -0.40637338687E+01 -0.15274541035E+02  0.16125984707E+02  0.17770000000E+01 0. -1.
</event>
<event>
 6    1  0.1226227E-002  0.1690852E+03  0.7546771E-02  0.1079664E+00
        -11   -1    0    0    0    0  0.00000000000E+00  0.00000000000E+00  0.18250000000E+03  0.18250000000E+03  0.00000000000E+00 0.  1.
         11   -1    0    0    0    0 -0.00000000000E+00 -0.00000000000E+00 -0.18250000000E+03  0.18250000000E+03  0.00000000000E+00 0.  1.
        -11    1    1    2    0    0  0.16366852502E+01  0.32583066858E+01  0.17122013728E+03  0.17125895805E+03  0.00000000000E+00 0.  1.
         11    1    1    2    0    0  0.16144295303E+02 -0.30254109996E+00 -0.16664202233E+03  0.16742249971E+03  0.00000000000E+00 0.  1.
        -15    1    1    2    0    0 -0.19463420476E+02 -0.24213910761E+00  0.10882624627E+01  0.19576143955E+02  0.17770000000E+01 0. -1.
         15    1    1    2    0    0  0.16824399227E+01 -0.27136264782E+01 -0.56663774100E+01  0.67423982906E+01  0.17770000000E+01 0.  1.
</event>
<event>
 6    1  0.1226227E-002  0.1832407E+03  0.7546771E-02  0.1067867E+00
        -11   -1    0    0    0    0  0.00000000000E+00  0.00000000000E+00  0.18250000000E+03  0.18250000000E+03  0.00000000000E+00 0.  1.
         11   -1    0    0    0    0 -0.00000000000E+00 -0.00000000000E+00 -0.18250000000E+03  0.18250000000E+03  0.00000000000E+00 0.  1.
        -11    1    1    2    0    0  0.55785741187E+01  0.33626190434E+01  0.31107091824E+02  0.31781737803E+02  0.00000000000E+00 0.  1.
         11    1    1    2    0    0 -0.18723555995E+01 -0.36069496139E+01 -0.18171382758E+03  0.18175926644E+03  0.00000000000E+00 0.  1.
        -15    1    1    2    0    0  0.17627901182E+01 -0.62360855482E+01  0.45195666312E+02  0.45692473936E+02  0.17770000000E+01 0.  1.
         15    1    1    2    0    0 -0.54690086373E+01  0.64804161186E+01  0.10541106944E+03  0.10576652183E+03  0.17770000000E+01 0.  1.
</event>
<event>
 6    1  0.1226227E-002  0.1828890E+03  0.7546771E-02  0.1068146E+00
        -11   -1    0    0    0    0  0.00000000000E+00  0.00000000000E+00  0.18250000000E+03  0.18250000000E+03  0.00000000000E+00 0.  1.
         11   -1    0    0    0    0 -0.00000000000E+00 -0.00000000000E+00 -0.18250000000E+03  0.18250000000E+03  0.00000000000E+00 0. -1.
        -11    1    1    2    0    0 -0.67032109495E+01 -0.75127795423E+01  0.18183240571E+03  0.18211095151E+03  0.00000000000E+00 0.  1.
         11    1    1    2    0    0  0.24271881452E+01 -0.76456476509E+00 -0.68701465139E+02  0.68748578995E+02  0.00000000000E+00 0. -1.
        -15    1    1    2    0    0  0.40214437151E+01  0.63958877272E+01 -0.30611806360E+02  0.31580370596E+02  0.17770000000E+01 0.  1.
         15    1    1    2    0    0  0.25457908916E+00  0.18814565803E+01 -0.82519134213E+02  0.82560098896E+02  0.17770000000E+01 0. -1.
</event>
<event>
 6    1  0.1226227E-002  0.1851778E+03  0.7546771E-02  0.1066343E+00
        -11   -1    0    0    0    0  0.00000000000E+00  0.00000000000E+00  0.18250000000E+03  0.18250000000E+03  0.00000000000E+00 0. -1.
         11   -1    0    0    0    0 -0.00000000000E+00 -0.00000000000E+00 -0.18250000000E+03  0.18250000000E+03  0.00000000000E+00 0. -1.
        -11    1    1    2    0    0 -0.24191094516E+01 -0.29640076899E+01  0.17978150282E+03  0.17982220716E+03  0.00000000000E+00 0. -1.
         11    1    1    2    0    0 -0.39494368486E+01 -0.11946833197E+01 -0.16294907747E+03  0.16300131033E+03  0.00000000000E+00 0. -1.
        -15    1    1    2    0    0  0.41603186848E+01 -0.38276184192E+01 -0.77262996734E+01  0.97371633429E+01  0.17770000000E+01 0. -1.
         15    1    1    2    0    0  0.22082276154E+01  0.79863094288E+01 -0.91061256786E+01  0.12439319168E+02  0.17770000000E+01 0.  1.
</event>
<event>
 6    1  0.1226227E-002  0.1865209E+03  0.7546771E-02  0.1065298E+00
        -11   -1    0    0    0    0  0.00000000000E+00  0.00000000000E+00  0.18250000000E+03  0.18250000000E+03  0.00000000000E+00 0. -1.
         11   -1    0    0    0    0 -0.00000000000E+00 -0.00000000000E+00 -0.18250000000E+03  0.18250000000E+03  0.00000000000E+00 0. -1.
        -11    1    1    2    0    0 -0.64921084836E+01 -0.10714846684E+02  0.17803881103E+03  0.17847905660E+03  0.00000000000E+00 0. -1.
         11    1    1    2    0    0  0.60437598670E+00 -0.25223998160E+01 -0.13956669002E+03  0.13959079029E+03  0.00000000000E+00 0. -1.
        -15    1    1    2    0    0  0.43317547847E+01  0.11502608295E+01 -0.33175290944E+02  0.33523795395E+02  0.17770000000E+01 0.  1.
         15    1    1    2    0    0  0.15559777122E+01  0.12086985671E+02 -0.52968300734E+01  0.13406357711E+02  0.17770000000E+01 0. -1.
</event>
<event>
 6    1  0.1226227E-002  0.1826535E+03  0.7546771E-02  0.1068333E+00
        -11   -1    0    0    0    0  0.00000000000E+00  0.00000000000E+00  0.18250000000E+03  0.18250000000E+03  0.00000000000E+00 0. -1.
         11   -1    0    0    0    0 -0.00000000000E+00 -0.00000000000E+00 -0.18250000000E+03  0.18250000000E+03  0.00000000000E+00 0. -1.
        -11    1    1    2    0    0  0.41161496914E+01 -0.39817944827E+01  0.18225656368E+03  0.18234651732E+03  0.00000000000E+00 0. -1.
         11    1    1    2    0    0 -0.60122192577E+00  0.10675464719E+01 -0.80222131983E+02  0.80231487479E+02  0.00000000000E+00 0. -1.
        -15    1    1    2    0    0  0.14383418808E+01  0.48825336296E-01 -0.48382253675E+02  0.48436261323E+02  0.17770000000E+01 0. -1.
         15    1    1    2    0    0 -0.49532696464E+01  0.28654226745E+01 -0.53652178019E+02  0.53985733879E+02  0.17770000000E+01 0. -1.
</event>
<event>
 6    1  0.1226227E-002  0.1831939E+03  0.7546771E-02  0.1067904E+00
        -11   -1    0    0    0    0  0.00000000000E+00  0.00000000000E+00  0.18250000000E+03  0.18250000000E+03  0.00000000000E+00 0.  1.
         11   -1    0    0    0    0 -0.00000000000E+00 -0.00000000000E+00 -0.18250000000E+03  0.18250000000E+03  0.00000000000E+00 0. -1.
        -11    1    1    2    0    0 -0.12608962450E+01 -0.25276689275E+01  0.18178417487E+03  0.18180611982E+03  0.00000000000E+00 0.  1.
         11    1    1    2    0    0  0.45306054023E+01 -0.12199714452E-01 -0.15535400448E+03  0.15542005418E+03  0.00000000000E+00 0. -1.
        -15    1    1    2    0    0 -0.27955156895E+01  0.14723086067E+00 -0.42556519593E+01  0.53948945768E+01  0.17770000000E+01 0.  1.
         15    1    1    2    0    0 -0.47419346782E+00  0.23926377813E+01 -0.22174518430E+02  0.22378931422E+02  0.17770000000E+01 0.  1.
</event>
<event>
 6    1  0.1226227E-002  0.1835122E+03  0.7546771E-02  0.1067652E+00
        -11   -1    0    0    0    0  0.00000000000E+00  0.00000000000E+00  0.18250000000E+03  0.18250000000E+03  0.00000000000E+00 0.  1.
         11   -1    0    0    0    0 -0.00000000000E+00 -0.00000000000E+00 -0.18250000000E+03  0.18250000000E+03  0.00000000000E+00 0.  1.
        -11    1    1    2    0    0 -0.12439262064E+01  0.22237150678E+01  0.18146992906E+03  0.18148781616E+03  0.00000000000E+00 0.  1.
         11    1    1    2    0    0  0.17977750164E+01 -0.20606420984E+01 -0.17857815887E+03  0.17859909593E+03  0.00000000000E+00 0.  1.
        -15    1    1    2    0    0 -0.81777668766E+00  0.53860296833E+00 -0.16905711094E+01  0.26409489855E+01  0.17770000000E+01 0.  1.
         15    1    1    2    0    0  0.26392787765E+00 -0.70167593772E+00 -0.12011990822E+01  0.22721389221E+01  0.17770000000E+01 0. -1.
</event>
<event>
 6    1  0.1226227E-002  0.1836240E+03  0.7546771E-02  0.1067564E+00
        -11   -1    0    0    0    0  0.00000000000E+00  0.00000000000E+00  0.18250000000E+03  0.18250000000E+03  0.00000000000E+00 0.  1.
         11   -1    0    0    0    0 -0.00000000000E+00 -0.00000000000E+00 -0.18250000000E+03  0.18250000000E+03  0.00000000000E+00 0.  1.
        -11    1    1    2    0    0 -0.23259015435E+01 -0.10961551667E+01  0.18135772843E+03  0.18137595495E+03  0.00000000000E+00 0.  1.
         11    1    1    2    0    0  0.32131368670E+01 -0.35928003681E+01 -0.16427374077E+03  0.16434443820E+03  0.00000000000E+00 0.  1.
        -15    1    1    2    0    0  0.13939399226E+01  0.55216871133E-01 -0.13669090478E+01  0.26405088062E+01  0.17770000000E+01 0. -1.
         15    1    1    2    0    0 -0.22811752462E+01  0.46337386637E+01 -0.15717078613E+02  0.16639098041E+02  0.17770000000E+01 0.  1.
</event>
<event>
 6    1  0.1226227E-002  0.1830344E+03  0.7546771E-02  0.1068030E+00
        -11   -1    0    0    0    0  0.00000000000E+00  0.00000000000E+00  0.18250000000E+03  0.18250000000E+03  0.00000000000E+00 0.  1.
         11   -1    0    0    0    0 -0.00000000000E+00 -0.00000000000E+00 -0.18250000000E+03  0.18250000000E+03  0.00000000000E+00 0.  1.
        -11    1    1    2    0    0  0.46203646066E+01  0.49634854243E+01  0.18183919580E+03  0.18196559313E+03  0.00000000000E+00 0.  1.
         11    1    1    2    0    0 -0.14161190408E+01 -0.91382658784E+00 -0.12934886493E+02  0.13044223271E+02  0.00000000000E+00 0.  1.
        -15    1    1    2    0    0  0.21403043734E+01 -0.71384369774E+01 -0.30869986939E+02  0.31806477452E+02  0.17770000000E+01 0. -1.
         15    1    1    2    0    0 -0.53445499393E+01  0.30887781410E+01 -0.13803432236E+03  0.13818370614E+03  0.17770000000E+01 0.  1.
</event>
<event>
 6    1  0.1234686E-002  0.1903740E+03  0.7546771E-02  0.1062354E+00
        -11   -1    0    0    0    0  0.00000000000E+00  0.00000000000E+00  0.18250000000E+03  0.18250000000E+03  0.00000000000E+00 0. -1.
         11   -1    0    0    0    0 -0.00000000000E+00 -0.00000000000E+00 -0.18250000000E+03  0.18250000000E+03  0.00000000000E+00 0.  1.
        -11    1    1    2    0    0 -0.37409768076E+01 -0.12819524013E+01  0.17458118621E+03  0.17462596854E+03  0.00000000000E+00 0. -1.
         11    1    1    2    0    0  0.35465439281E+01  0.36239061982E+01 -0.16244347861E+03  0.16252259662E+03  0.00000000000E+00 0.  1.
        -15    1    1    2    0    0 -0.25447626296E+01 -0.50976598061E+01 -0.18918083693E+02  0.19837176512E+02  0.17770000000E+01 0.  1.
         15    1    1    2    0    0  0.27391955091E+01  0.27557060093E+01  0.67803760907E+01  0.80142583299E+01  0.17770000000E+01 0.  1.
</event>
<event>
 6    1  0.1226227E-002  0.1878882E+03  0.7546771E-02  0.1064245E+00
        -11   -1    0    0    0    0  0.00000000000E+00  0.00000000000E+00  0.18250000000E+03  0.18250000000E+03  0.00000000000E+00 0. -1.
         11   -1    0    0    0    0 -0.00000000000E+00 -0.00000000000E+00 -0.18250000000E+03  0.18250000000E+03  0.00000000000E+00 0. -1.
        -11    1    1    2    0    0  0.58153766546E+00 -0.53309455915E+01  0.12146663976E+03  0.12158495689E+03  0.00000000000E+00 0. -1.
         11    1    1    2    0    0  0.46927797309E+01  0.17253058812E+02 -0.17620693311E+03  0.17711175426E+03  0.00000000000E+00 0. -1.
        -15    1    1    2    0    0 -0.32222476538E+01 -0.18079795083E+02  0.56425978396E+02  0.59365904669E+02  0.17770000000E+01 0.  1.
         15    1    1    2    0    0 -0.20520697426E+01  0.61576818623E+01 -0.16856850455E+01  0.69373841769E+01  0.17770000000E+01 0. -1.
</event>
<event>
 6    1  0.1226227E-002  0.1895346E+03  0.7546771E-02  0.1062989E+00
        -11   -1    0    0    0    0  0.00000000000E+00  0.00000000000E+00  0.18250000000E+03  0.18250000000E+03  0.00000000000E+00 0. -1.
         11   -1    0    0    0    0 -0.00000000000E+00 -0.00000000000E+00 -0.18250000000E+03  0.18250000000E+03  0.00000000000E+00 0.  1.
        -11    1    1    2    0    0 -0.73259192730E+01 -0.16708241144E+01  0.15837303584E+03  0.15855118803E+03  0.00000000000E+00 0. -1.
         11    1    1    2    0    0  0.46197373273E+01 -0.19863719998E+01 -0.17539332373E+03  0.17546539732E+03  0.00000000000E+00 0.  1.
        -15    1    1    2    0    0 -0.97557097843E+00  0.91827834074E+01  0.21022268625E+02  0.23029736364E+02  0.17770000000E+01 0. -1.
         15    1    1    2    0    0  0.36817529241E+01 -0.55255872932E+01 -0.40019807322E+01  0.79536782880E+01  0.17770000000E+01 0.  1.
</event>
<event>
 6    1  0.1226227E-002  0.1826977E+03  0.7546771E-02  0.1068298E+00
        -11   -1    0    0    0    0  0.00000000000E+00  0.00000000000E+00  0.18250000000E+03  0.18250000000E+03  0.00000000000E+00 0.  1.
         11   -1    0    0    0    0 -0.00000000000E+00 -0.00000000000E+00 -0.18250000000E+03  0.18250000000E+03  0.00000000000E+00 0. -1.
        -11    1    1    2    0    0  0.31304593658E+01 -0.92544200118E+00  0.18227309338E+03  0.18230232250E+03  0.00000000000E+00 0.  1.
         11    1    1    2    0    0  0.10294369451E+01 -0.17838981144E+01 -0.12722154336E+03  0.12723821410E+03  0.00000000000E+00 0. -1.
        -15    1    1    2    0    0 -0.31306452126E+01  0.12509151873E+01 -0.41595056456E+02  0.41769273142E+02  0.17770000000E+01 0. -1.
         15    1    1    2    0    0 -0.10292510984E+01  0.14584249283E+01 -0.13456493564E+02  0.13690190252E+02  0.17770000000E+01 0.  1.
</event>
<event>
 6    1  0.1226227E-002  0.1884389E+03  0.7546771E-02  0.1063823E+00
        -11   -1    0    0    0    0  0.00000000000E+00  0.00000000000E+00  0.18250000000E+03  0.18250000000E+03  0.00000000000E+00 0.  1.
         11   -1    0    0    0    0 -0.00000000000E+00 -0.00000000000E+00 -0.18250000000E+03  0.18250000000E+03  0.00000000000E+00 0.  1.
        -11    1    1    2    0    0 -0.27515563343E+01 -0.45564959346E+00  0.17653902064E+03  0.17656105031E+03  0.00000000000E+00 0.  1.
         11    1    1    2    0    0 -0.10743068029E+01 -0.10959552951E+01 -0.10334662481E+03  0.10335801910E+03  0.00000000000E+00 0.  1.
        -15    1    1    2    0    0  0.20542586259E+02 -0.44880536328E+01 -0.57692927212E+02  0.61431034950E+02  0.17770000000E+01 0. -1.
         15    1    1    2    0    0 -0.16716723122E+02  0.60396585214E+01 -0.15499468618E+02  0.23649895633E+02  0.17770000000E+01 0.  1.
</event>
<event>
 6    1  0.1226227E-002  0.1842324E+03  0.7546771E-02  0.1067084E+00
        -11   -1    0    0    0    0  0.00000000000E+00  0.00000000000E+00  0.18250000000E+03  0.18250000000E+03  0.00000000000E+00 0. -1.
         11   -1    0    0    0    0 -0.00000000000E+00 -0.00000000000E+00 -0.18250000000E+03  0.18250000000E+03  0.00000000000E+00 0. -1.
        -11    1    1    2    0    0 -0.10393416159E+01 -0.24369609530E+01  0.18074815726E+03  0.18076757277E+03  0.00000000000E+00 0. -1.
         11    1    1    2    0    0 -0.24266154296E+01  0.31525768869E+01 -0.15465803367E+03  0.15470919360E+03  0.00000000000E+00 0. -1.
        -15    1    1    2    0    0  0.11378560966E+01 -0.82482753405E+00  0.85325922813E+00  0.24209166173E+01  0.17770000000E+01 0.  1.
         15    1    1    2    0    0  0.23281009489E+01  0.10921160011E+00 -0.26943382816E+02  0.27102317019E+02  0.17770000000E+01 0. -1.
</event>
<event>
 6    1  0.1226227E-002  0.1825819E+03  0.7546771E-02  0.1068390E+00
        -11   -1    0    0    0    0  0.00000000000E+00  0.00000000000E+00  0.18250000000E+03  0.18250000000E+03  0.00000000000E+00 0.  1.
         11   -1    0    0    0    0 -0.00000000000E+00 -0.00000000000E+00 -0.18250000000E+03  0.18250000000E+03  0.00000000000E+00 0. -1.
        -11    1    1    2    0    0 -0.42169496940E+01 -0.20105947132E+01  0.18235823821E+03  0.18241806982E+03  0.00000000000E+00 0.  1.
         11    1    1    2    0    0  0.45616872395E+00  0.16246264966E+01 -0.42275829593E+02  0.42309493839E+02  0.00000000000E+00 0. -1.
        -15    1    1    2    0    0  0.27902275212E+01  0.14018835658E+01 -0.39125417819E+02  0.39290033032E+02  0.17770000000E+01 0.  1.
         15    1    1    2    0    0  0.97055344888E+00 -0.10159153492E+01 -0.10095699080E+03  0.10098240331E+03  0.17770000000E+01 0. -1.
</event>
<event>
 6    1  0.1226227E-002  0.1831023E+03  0.7546771E-02  0.1067976E+00
        -11   -1    0    0    0    0  0.00000000000E+00  0.00000000000E+00  0.18250000000E+03  0.18250000000E+03  0.00000000000E+00 0. -1.
         11   -1    0    0    0    0 -0.00000000000E+00 -0.00000000000E+00 -0.18250000000E+03  0.18250000000E+03  0.00000000000E+00 0. -1.
        -11    1    1    2    0    0  0.35316620090E+01  0.61352277442E+00  0.13498066914E+03  0.13502825662E+03  0.00000000000E+00 0. -1.
         11    1    1    2    0    0  0.27275936999E+01  0.33390368561E+01 -0.18184659075E+03  0.18189769515E+03  0.00000000000E+00 0. -1.
        -15    1    1    2    0    0 -0.64858223637E+01 -0.10165440971E+01  0.23785607289E+02  0.24738878243E+02  0.17770000000E+01 0. -1.
         15    1    1    2    0    0  0.22656665481E+00 -0.29360155334E+01  0.23080314326E+02  0.23335169981E+02  0.17770000000E+01 0.  1.
</event>
<event>
 6    1  0.1226227E-002  0.1899681E+03  0.7546771E-02  0.1062661E+00
        -11   -1    0    0    0    0  0.00000000000E+00  0.00000000000E+00  0.18250000000E+03  0.18250000000E+03  0.00000000000E+00 0. -1.
         11   -1    0    0    0    0 -0.00000000000E+00 -0.00000000000E+00 -0.18250000000E+03  0.18250000000E+03  0.00000000000E+00 0. -1.
        -11    1    1    2    0    0  0.11611265423E+00 -0.27658866843E+01  0.17501000927E+03  0.17503190268E+03  0.00000000000E+00 0. -1.
         11    1    1    2    0    0  0.29388020933E+00 -0.28262513797E+01 -0.90284122811E+02  0.90328826486E+02  0.00000000000E+00 0. -1.
        -15    1    1    2    0    0 -0.21700271274E+02  0.17532752506E+02 -0.45955671217E+02  0.53790153652E+02  0.17770000000E+01 0.  1.
         15    1    1    2    0    0  0.21290278411E+02 -0.11940614442E+02 -0.38770215238E+02  0.45849117185E+02  0.17770000000E+01 0. -1.
</event>
<event>
 6    1  0.1226227E-002  0.1846389E+03  0.7546771E-02  0.1066765E+00
        -11   -1    0    0    0    0  0.00000000000E+00  0.00000000000E+00  0.18250000000E+03  0.18250000000E+03  0.00000000000E+00 0.  1.
         11   -1    0    0    0    0 -0.00000000000E+00 -0.00000000000E+00 -0.18250000000E+03  0.18250000000E+03  0.00000000000E+00 0. -1.
        -11    1    1    2    0    0 -0.13673374637E+00  0.33595184104E+01  0.17484968741E+03  0.17488201236E+03  0.00000000000E+00 0.  1.
         11    1    1    2    0    0  0.27818800238E+01  0.84368689076E+00 -0.18033762589E+03  0.18036105449E+03  0.00000000000E+00 0. -1.
        -15    1    1    2    0    0 -0.26163649828E+01  0.17477194957E+00  0.32164390857E+01  0.45143239083E+01  0.17770000000E+01 0. -1.
         15    1    1    2    0    0 -0.28781294576E-01 -0.43779772508E+01  0.22714993913E+01  0.52426092412E+01  0.17770000000E+01 0.  1.
</event>
<event>
 6    1  0.1226227E-002  0.1828939E+03  0.7546771E-02  0.1068142E+00
        -11   -1    0    0    0    0  0.00000000000E+00  0.00000000000E+00  0.18250000000E+03  0.18250000000E+03  0.00000000000E+00 0.  1.
         11   -1    0    0    0    0 -0.00000000000E+00 -0.00000000000E+00 -0.18250000000E+03  0.18250000000E+03  0.00000000000E+00 0. -1.
        -11    1    1    2    0    0  0.17184846768E+01  0.44935529612E+01  0.14305378267E+03  0.14313465669E+03  0.00000000000E+00 0.  1.
         11    1    1    2    0    0  0.25740898176E+01 -0.33159920994E+01 -0.18205773116E+03  0.18210612075E+03  0.00000000000E+00 0. -1.
        -15    1    1    2    0    0 -0.28599973708E+01  0.19049227960E+01  0.20526591001E+02  0.20887962633E+02  0.17770000000E+01 0.  1.
         15    1    1    2    0    0 -0.14325771236E+01 -0.30824836578E+01  0.18477357483E+02  0.18871259928E+02  0.17770000000E+01 0. -1.
</event>
<event>
 6    1  0.1226227E-002  0.1996146E+03  0.7546771E-02  0.1055593E+00
        -11   -1    0    0    0    0  0.00000000000E+00  0.00000000000E+00  0.18250000000E+03  0.18250000000E+03  0.00000000000E+00 0.  1.
         11   -1    0    0    0    0 -0.00000000000E+00 -0.00000000000E+00 -0.18250000000E+03  0.18250000000E+03  0.00000000000E+00 0.  1.
        -11    1    1    2    0    0 -0.31612376099E+01  0.10571471799E+02  0.14216342486E+03  0.14259098431E+03  0.00000000000E+00 0.  1.
         11    1    1    2    0    0  0.97084679788E-01  0.14416895448E+02 -0.16475576192E+03  0.16538536025E+03  0.00000000000E+00 0.  1.
        -15    1    1    2    0    0  0.13321083915E+02 -0.27461442905E+02 -0.15539906870E+01  0.30612983180E+02  0.17770000000E+01 0.  1.
         15    1    1    2    0    0 -0.10256930985E+02  0.24730756577E+01  0.24146327747E+02  0.26410672258E+02  0.17770000000E+01 0. -1.
</event>
<event>
 6    1  0.1226227E-002  0.1849153E+03  0.7546771E-02  0.1066548E+00
        -11   -1    0    0    0    0  0.00000000000E+00  0.00000000000E+00  0.18250000000E+03  0.18250000000E+03  0.00000000000E+00 0.  1.
         11   -1    0    0    0    0 -0.00000000000E+00 -0.00000000000E+00 -0.18250000000E+03  0.18250000000E+03  0.00000000000E+00 0. -1.
        -11    1    1    2    0    0 -0.64650365747E-02  0.38933304006E+01  0.18004256827E+03  0.18008465913E+03  0.00000000000E+00 0.  1.
         11    1    1    2    0    0  0.16564604635E+01 -0.22777509801E+01 -0.17631701613E+03  0.17633950830E+03  0.00000000000E+00 0. -1.
        -15    1    1    2    0    0  0.10719101070E+01 -0.32293754094E+01 -0.81629064413E+00  0.39245275165E+01  0.17770000000E+01 0. -1.
         15    1    1    2    0    0 -0.27219055339E+01  0.16137959889E+01 -0.29092614980E+01  0.46513050526E+01  0.17770000000E+01 0. -1.
</event>
<event>
 6    1  0.1226227E-002  0.1623978E+03  0.7546771E-02  0.1085687E+00
        -11   -1    0    0    0    0  0.00000000000E+00  0.00000000000E+00  0.18250000000E+03  0.18250000000E+03  0.00000000000E+00 0. -1.
         11   -1    0    0    0    0 -0.00000000000E+00 -0.00000000000E+00 -0.18250000000E+03  0.18250000000E+03  0.00000000000E+00 0.  1.
        -11    1    1    2    0    0  0.10834172033E+02  0.15127537771E+02  0.15705762160E+03  0.15815599320E+03  0.00000000000E+00 0. -1.
         11    1    1    2    0    0  0.11039605923E+01 -0.22283297664E+01 -0.16725618661E+03  0.16727467274E+03  0.00000000000E+00 0.  1.
        -15    1    1    2    0    0  0.41357267489E+01  0.24086573458E+01  0.15802880423E+02  0.16607065503E+02  0.17770000000E+01 0.  1.
         15    1    1    2    0    0 -0.16073859374E+02 -0.15307865350E+02 -0.56043154134E+01  0.22962268551E+02  0.17770000000E+01 0. -1.
</event>
<event>
 6    1  0.1226227E-002  0.1827162E+03  0.7546771E-02  0.1068283E+00
        -11   -1    0    0    0    0  0.00000000000E+00  0.00000000000E+00  0.18250000000E+03  0.18250000000E+03  0.00000000000E+00 0. -1.
         11   -1    0    0    0    0 -0.00000000000E+00 -0.00000000000E+00 -0.18250000000E+03  0.18250000000E+03  0.00000000000E+00 0.  1.
        -11    1    1    2    0    0  0.31905978842E+01 -0.93525734570E+00  0.99933730503E+02  0.99989024965E+02  0.00000000000E+00 0. -1.
         11    1    1    2    0    0  0.25290961263E+00  0.32283148253E+01 -0.18225501917E+03  0.18228378423E+03  0.00000000000E+00 0.  1.
        -15    1    1    2    0    0  0.14454817402E+01 -0.13101889063E+01  0.18583826437E+02  0.18770251636E+02  0.17770000000E+01 0. -1.
         15    1    1    2    0    0 -0.48889892370E+01 -0.98286857331E+00  0.63737462235E+02  0.63956939167E+02  0.17770000000E+01 0.  1.
</event>
<event>
 6    1  0.1226227E-002  0.1949656E+03  0.7546771E-02  0.1058944E+00
        -11   -1    0    0    0    0  0.00000000000E+00  0.00000000000E+00  0.18250000000E+03  0.18250000000E+03  0.00000000000E+00 0.  1.
         11   -1    0    0    0    0 -0.00000000000E+00 -0.00000000000E+00 -0.18250000000E+03  0.18250000000E+03  0.00000000000E+00 0. -1.
        -11    1    1    2    0    0 -0.24076961593E+02 -0.44533420564E+01  0.10173729769E+03  0.10464229583E+03  0.00000000000E+00 0.  1.
         11    1    1    2    0    0 -0.42474631305E+01 -0.72100621704E+01 -0.16982835065E+03  0.17003439247E+03  0.00000000000E+00 0. -1.
        -15    1    1    2    0    0 -0.12046482293E+02  0.42792148275E+01  0.28358791899E+01  0.13214740063E+02  0.17770000000E+01 0.  1.
         15    1    1    2    0    0  0.40370907016E+02  0.73841893993E+01  0.65255173773E+02  0.77108571634E+02  0.17770000000E+01 0. -1.
</event>
<event>
 6    1  0.1226227E-002  0.1827467E+03  0.7546771E-02  0.1068259E+00
        -11   -1    0    0    0    0  0.00000000000E+00  0.00000000000E+00  0.18250000000E+03  0.18250000000E+03  0.00000000000E+00 0. -1.
         11   -1    0    0    0    0 -0.00000000000E+00 -0.00000000000E+00 -0.18250000000E+03  0.18250000000E+03  0.00000000000E+00 0.  1.
        -11    1    1    2    0    0 -0.42967727502E+00  0.64345386272E+00  0.53241985053E+02  0.53247606780E+02  0.00000000000E+00 0. -1.
         11    1    1    2    0    0  0.27377609034E+01  0.15056762935E+01 -0.18222652551E+03  0.18225330997E+03  0.00000000000E+00 0.  1.
        -15    1    1    2    0    0  0.78889084981E+00 -0.37422896859E+01  0.11162691064E+03  0.11170654407E+03  0.17770000000E+01 0.  1.
         15    1    1    2    0    0 -0.30969744781E+01  0.15931595297E+01  0.17357629825E+02  0.17792539176E+02  0.17770000000E+01 0. -1.
</event>
<event>
 6    1  0.1226227E-002  0.1841532E+03  0.7546771E-02  0.1067146E+00
        -11   -1    0    0    0    0  0.00000000000E+00  0.00000000000E+00  0.18250000000E+03  0.18250000000E+03  0.00000000000E+00 0.  1.
         11   -1    0    0    0    0 -0.00000000000E+00 -0.00000000000E+00 -0.18250000000E+03  0.18250000000E+03  0.00000000000E+00 0.  1.
        -11    1    1    2    0    0 -0.60351823156E+01  0.33177428324E+00  0.15968777412E+03  0.15980212359E+03  0.00000000000E+00 0.  1.
         11    1    1    2    0    0  0.28387877112E+01 -0.53485116741E+00 -0.18082372893E+03  0.18084680181E+03  0.00000000000E+00 0.  1.
        -15    1    1    2    0    0  0.60499205629E+01 -0.21082201549E-01  0.19707539243E+02  0.20691708854E+02  0.17770000000E+01 0.  1.
         15    1    1    2    0    0 -0.28535259586E+01  0.22415908572E+00  0.14284155641E+01  0.36593657532E+01  0.17770000000E+01 0.  1.
</event>
<event>
 6    1  0.1226227E-002  0.1825997E+03  0.7546771E-02  0.1068376E+00
        -11   -1    0    0    0    0  0.00000000000E+00  0.00000000000E+00  0.18250000000E+03  0.18250000000E+03  0.00000000000E+00 0. -1.
         11   -1    0    0    0    0 -0.00000000000E+00 -0.00000000000E+00 -0.18250000000E+03  0.18250000000E+03  0.00000000000E+00 0. -1.
        -11    1    1    2    0    0  0.24839718803E+01  0.26180548385E+01  0.18236462930E+03  0.18240033538E+03  0.00000000000E+00 0. -1.
         11    1    1    2    0    0  0.70093851434E+00  0.35119576504E+00 -0.27489060324E+01  0.28585201838E+01  0.00000000000E+00 0. -1.
        -15    1    1    2    0    0 -0.32007824555E+01 -0.17600588359E+01 -0.14616476454E+03  0.14622119866E+03  0.17770000000E+01 0. -1.
         15    1    1    2    0    0  0.15872060846E-01 -0.12091917677E+01 -0.33450958722E+02  0.33519945779E+02  0.17770000000E+01 0.  1.
</event>
<event>
 6    1  0.1226227E-002  0.1829203E+03  0.7546771E-02  0.1068121E+00
        -11   -1    0    0    0    0  0.00000000000E+00  0.00000000000E+00  0.18250000000E+03  0.18250000000E+03  0.00000000000E+00 0.  1.
         11   -1    0    0    0    0 -0.00000000000E+00 -0.00000000000E+00 -0.18250000000E+03  0.18250000000E+03  0.00000000000E+00 0. -1.
        -11    1    1    2    0    0  0.87566402734E+00 -0.24820856726E+01  0.18206063367E+03  0.18207965804E+03  0.00000000000E+00 0.  1.
         11    1    1    2    0    0 -0.54065939762E+00 -0.28828436097E+01 -0.39557695653E+02  0.39666287767E+02  0.00000000000E+00 0. -1.
        -15    1    1    2    0    0  0.94077530431E+00  0.54872157486E+01 -0.13899713719E+03  0.13911993556E+03  0.17770000000E+01 0. -1.
         15    1    1    2    0    0 -0.12757799340E+01 -0.12228646631E+00 -0.35058008307E+01  0.41341186346E+01  0.17770000000E+01 0.  1.
</event>
<event>
 6    1  0.1226227E-002  0.1829135E+03  0.7546771E-02  0.1068126E+00
        -11   -1    0    0    0    0  0.00000000000E+00  0.00000000000E+00  0.18250000000E+03  0.18250000000E+03  0.00000000000E+00 0.  1.
         11   -1    0    0    0    0 -0.00000000000E+00 -0.00000000000E+00 -0.18250000000E+03  0.18250000000E+03  0.00000000000E+00 0. -1.
        -11    1    1    2    0    0  0.96801077934E+00  0.34944099657E-01  0.71270756313E+02  0.71277338414E+02  0.00000000000E+00 0.  1.
         11    1    1    2    0    0  0.90031309297E+01 -0.21543429420E+01 -0.18185100094E+03  0.18208647424E+03  0.00000000000E+00 0. -1.
        -15    1    1    2    0    0 -0.10609258767E+01 -0.36003555200E+01  0.20346210190E+02  0.20765695791E+02  0.17770000000E+01 0. -1.
         15    1    1    2    0    0 -0.89102158323E+01  0.57197543623E+01  0.90234034434E+02  0.90870491554E+02  0.17770000000E+01 0.  1.
</event>
<event>
 6    1  0.1226227E-002  0.1847549E+03  0.7546771E-02  0.1066674E+00
        -11   -1    0    0    0    0  0.00000000000E+00  0.00000000000E+00  0.18250000000E+03  0.18250000000E+03  0.00000000000E+00 0. -1.
         11   -1    0    0    0    0 -0.00000000000E+00 -0.00000000000E+00 -0.18250000000E+03  0.18250000000E+03  0.00000000000E+00 0. -1.
        -11    1    1    2    0    0 -0.28890641553E+01  0.93568604083E+01  0.17997889561E+03  0.18024511198E+03  0.00000000000E+00 0. -1.
         11    1    1    2    0    0 -0.24511803543E+01  0.63970122435E+01 -0.10413154010E+03  0.10435663704E+03  0.00000000000E+00 0. -1.
        -15    1    1    2    0    0 -0.75509814161E+01 -0.64175289862E+01 -0.21506459633E+02  0.23746316210E+02  0.17770000000E+01 0.  1.
         15    1    1    2    0    0  0.12891225926E+02 -0.93363436655E+01 -0.54340895875E+02  0.56651934763E+02  0.17770000000E+01 0. -1.
</event>
<event>
 6    1  0.1226227E-002  0.1828144E+03  0.7546771E-02  0.1068205E+00
        -11   -1    0    0    0    0  0.00000000000E+00  0.00000000000E+00  0.18250000000E+03  0.18250000000E+03  0.00000000000E+00 0.  1.
         11   -1    0    0    0    0 -0.00000000000E+00 -0.00000000000E+00 -0.18250000000E+03  0.18250000000E+03  0.00000000000E+00 0.  1.
        -11    1    1    2    0    0 -0.18935000783E+01 -0.13369039723E+01  0.14950254957E+03  0.14952051693E+03  0.00000000000E+00 0.  1.
         11    1    1    2    0    0 -0.30092985317E+01  0.21713059042E+01 -0.18214784128E+03  0.18218563755E+03  0.00000000000E+00 0.  1.
        -15    1    1    2    0    0  0.26796156554E+01  0.71318654845E+00  0.15719182215E+02  0.16060491699E+02  0.17770000000E+01 0.  1.
         15    1    1    2    0    0  0.22231829547E+01 -0.15475884804E+01  0.16926109490E+02  0.17233353824E+02  0.17770000000E+01 0. -1.
</event>
<event>
 6    1  0.1613844E-002  0.1832974E+03  0.7546771E-02  0.1067822E+00
        -11   -1    0    0    0    0  0.00000000000E+00  0.00000000000E+00  0.18250000000E+03  0.18250000000E+03  0.00000000000E+00 0. -1.
         11   -1    0    0    0    0 -0.00000000000E+00 -0.00000000000E+00 -0.18250000000E+03  0.18250000000E+03  0.00000000000E+00 0. -1.
        -11    1    1    2    0    0  0.22071941256E+01  0.39341748649E+01  0.18164657458E+03  0.18170257976E+03  0.00000000000E+00 0. -1.
         11    1    1    2    0    0  0.24980397696E+00 -0.48261315676E+01 -0.13889809950E+03  0.13898214271E+03  0.00000000000E+00 0. -1.
        -15    1    1    2    0    0 -0.83392385144E+00  0.34228690350E+01 -0.38972652600E+02  0.39171888404E+02  0.17770000000E+01 0. -1.
         15    1    1    2    0    0 -0.16230742511E+01 -0.25309123323E+01 -0.37758224745E+01  0.51433891179E+01  0.17770000000E+01 0.  1.
</event>
<event>
 6    1  0.1226227E-002  0.1839493E+03  0.7546771E-02  0.1067307E+00
        -11   -1    0    0    0    0  0.00000000000E+00  0.00000000000E+00  0.18250000000E+03  0.18250000000E+03  0.00000000000E+00 0.  1.
         11   -1    0    0    0    0 -0.00000000000E+00 -0.00000000000E+00 -0.18250000000E+03  0.18250000000E+03  0.00000000000E+00 0.  1.
        -11    1    1    2    0    0  0.37582493307E+01  0.29082481860E+01  0.16740826621E+03  0.16747569955E+03  0.00000000000E+00 0.  1.
         11    1    1    2    0    0  0.92927955858E+00 -0.39680281036E+01 -0.18100485314E+03  0.18105072678E+03  0.00000000000E+00 0.  1.
        -15    1    1    2    0    0 -0.36124656853E+01 -0.22143798899E+00  0.17795613620E+01  0.44072112216E+01  0.17770000000E+01 0.  1.
         15    1    1    2    0    0 -0.10750632040E+01  0.12812179066E+01  0.11817025570E+02  0.12066362440E+02  0.17770000000E+01 0. -1.
</event>
<event>
 6    1  0.1226227E-002  0.1868242E+03  0.7546771E-02  0.1065064E+00
        -11   -1    0    0    0    0  0.00000000000E+00  0.00000000000E+00  0.18250000000E+03  0.18250000000E+03  0.00000000000E+00 0.  1.
         11   -1    0    0    0    0 -0.00000000000E+00 -0.00000000000E+00 -0.18250000000E+03  0.18250000000E+03  0.00000000000E+00 0. -1.
        -11    1    1    2    0    0 -0.14383330320E+01 -0.25241957362E+01  0.13039149228E+03  0.13042385375E+03  0.00000000000E+00 0.  1.
         11    1    1    2    0    0 -0.32134847037E+01 -0.14357728631E+01 -0.17814103489E+03  0.17817580149E+03  0.00000000000E+00 0. -1.
        -15    1    1    2    0    0  0.38522203068E+00  0.55173465110E+01  0.50478442046E+02  0.50811616279E+02  0.17770000000E+01 0.  1.
         15    1    1    2    0    0  0.42665957050E+01 -0.15573779117E+01 -0.27288994420E+01  0.55887284810E+01  0.17770000000E+01 0. -1.
</event>
<event>
 6    1  0.1226227E-002  0.1829089E+03  0.7546771E-02  0.1068130E+00
        -11   -1    0    0    0    0  0.00000000000E+00  0.00000000000E+00  0.18250000000E+03  0.18250000000E+03  0.00000000000E+00 0. -1.
         11   -1    0    0    0    0 -0.00000000000E+00 -0.00000000000E+00 -0.18250000000E+03  0.18250000000E+03  0.00000000000E+00 0.  1.
        -11    1    1    2    0    0  0.32042681570E+01 -0.12293026432E+01  0.12808869173E+03  0.12813466146E+03  0.00000000000E+00 0. -1.
         11    1    1    2    0    0 -0.16685705890E+01  0.24981642617E+01 -0.18206633929E+03  0.18209112240E+03  0.00000000000E+00 0.  1.
        -15    1    1    2    0    0  0.23650742933E+01 -0.86714757167E+00  0.76620102878E+01  0.82589134864E+01  0.17770000000E+01 0.  1.
         15    1    1    2    0    0 -0.39007718613E+01 -0.40171404681E+00  0.46315637278E+02  0.46515302652E+02  0.17770000000E+01 0. -1.
</event>
<event>
 6    1  0.1226227E-002  0.1739825E+03  0.7546771E-02  0.1075444E+00
        -11   -1    0    0    0    0  0.00000000000E+00  0.00000000000E+00  0.18250000000E+03  0.18250000000E+03  0.00000000000E+00 0.  1.
         11   -1    0    0    0    0 -0.00000000000E+00 -0.00000000000E+00 -0.18250000000E+03  0.18250000000E+03  0.00000000000E+00 0. -1.
        -11    1    1    2    0    0  0.41997792020E+00  0.34837913263E+01  0.17299513977E+03  0.17303072435E+03  0.00000000000E+00 0.  1.
         11    1    1    2    0    0  0.75486047726E+01  0.10228724282E+01 -0.17489413942E+03  0.17505995460E+03  0.00000000000E+00 0. -1.
        -15    1    1    2    0    0 -0.59803763003E+01 -0.55751012134E+01 -0.47819290808E+01  0.96369719812E+01  0.17770000000E+01 0.  1.
         15    1    1    2    0    0 -0.19882063925E+01  0.10684374588E+01  0.66809287282E+01  0.72723490657E+01  0.17770000000E+01 0. -1.
</event>
<event>
 6    1  0.1226227E-002  0.1864217E+03  0.7546771E-02  0.1065375E+00
        -11   -1    0    0    0    0  0.00000000000E+00  0.00000000000E+00  0.18250000000E+03  0.18250000000E+03  0.00000000000E+00 0.  1.
         11   -1    0    0    0    0 -0.00000000000E+00 -0.00000000000E+00 -0.18250000000E+03  0.18250000000E+03  0.00000000000E+00 0.  1.
        -11    1    1    2    0    0 -0.63029749312E-01 -0.62288103073E+01  0.16480832913E+03  0.16492600584E+03  0.00000000000E+00 0.  1.
         11    1    1    2    0    0  0.95776814300E+01  0.34706504798E+01 -0.17828753009E+03  0.17857833234E+03  0.00000000000E+00 0.  1.
        -15    1    1    2    0    0 -0.87144286373E+00  0.71215478486E+00 -0.24143637582E+01  0.32021021937E+01  0.17770000000E+01 0. -1.
         15    1    1    2    0    0 -0.86432088170E+01  0.20460050427E+01  0.15893564717E+02  0.18293559624E+02  0.17770000000E+01 0.  1.
</event>
<event>
 6    1  0.1226227E-002  0.1845400E+03  0.7546771E-02  0.1066842E+00
        -11   -1    0    0    0    0  0.00000000000E+00  0.00000000000E+00  0.18250000000E+03  0.18250000000E+03  0.00000000000E+00 0.  1.
         11   -1    0    0    0    0 -0.00000000000E+00 -0.00000000000E+00 -0.18250000000E+03  0.18250000000E+03  0.00000000000E+00 0. -1.
        -11    1    1    2    0    0 -0.22421310845E+01  0.14338477097E+01  0.25337493479E+02  0.25476884559E+02  0.00000000000E+00 0.  1.
         11    1    1    2    0    0 -0.27177703993E+01 -0.30151055470E+01 -0.18041434855E+03  0.18046000748E+03  0.00000000000E+00 0. -1.
        -15    1    1    2    0    0 -0.54863227269E+01  0.30974439808E+01  0.41361882021E+01  0.77433634889E+01  0.17770000000E+01 0. -1.
         15    1    1    2    0    0  0.10446224211E+02 -0.15161861435E+01  0.15094066687E+03  0.15131974447E+03  0.17770000000E+01 0.  1.
</event>
<event>
 6    1  0.1226227E-002  0.1886233E+03  0.7546771E-02  0.1063683E+00
        -11   -1    0    0    0    0  0.00000000000E+00  0.00000000000E+00  0.18250000000E+03  0.18250000000E+03  0.00000000000E+00 0.  1.
         11   -1    0    0    0    0 -0.00000000000E+00 -0.00000000000E+00 -0.18250000000E+03  0.18250000000E+03  0.00000000000E+00 0.  1.
        -11    1    1    2    0    0 -0.11751515438E+01  0.52080315367E+01  0.17629591263E+03  0.17637673709E+03  0.00000000000E+00 0.  1.
         11    1    1    2    0    0  0.41629124269E+01 -0.14722719997E+01 -0.17212780865E+03  0.17218443581E+03  0.00000000000E+00 0.  1.
        -15    1    1    2    0    0 -0.21449077724E+01 -0.62762308386E+01  0.37996427493E+01  0.78477204916E+01  0.17770000000E+01 0. -1.
         15    1    1    2    0    0 -0.84285311074E+00  0.25404713017E+01 -0.79677467336E+01  0.85911066116E+01  0.17770000000E+01 0.  1.
</event>
<event>
 6    1  0.1226227E-002  0.1845660E+03  0.7546771E-02  0.1066822E+00
        -11   -1    0    0    0    0  0.00000000000E+00  0.00000000000E+00  0.18250000000E+03  0.18250000000E+03  0.00000000000E+00 0. -1.
         11   -1    0    0    0    0 -0.00000000000E+00 -0.00000000000E+00 -0.18250000000E+03  0.18250000000E+03  0.00000000000E+00 0. -1.
        -11    1    1    2    0    0 -0.17133169205E+01 -0.20610919382E+01  0.18041413137E+03  0.18043403879E+03  0.00000000000E+00 0. -1.
         11    1    1    2    0    0 -0.10398882166E+01  0.39179212659E+01 -0.13631731632E+03  0.13637757221E+03  0.00000000000E+00 0. -1.
        -15    1    1    2    0    0  0.75929858415E+01  0.21545833629E+01 -0.39195247607E+02  0.40021504562E+02  0.17770000000E+01 0. -1.
         15    1    1    2    0    0 -0.48397807043E+01 -0.40114126907E+01 -0.49015674460E+01  0.81668844408E+01  0.17770000000E+01 0.  1.
</event>
<event>
 6    1  0.1226227E-002  0.1778898E+03  0.7546771E-02  0.1072185E+00
        -11   -1    0    0    0    0  0.00000000000E+00  0.00000000000E+00  0.18250000000E+03  0.18250000000E+03  0.00000000000E+00 0. -1.
         11   -1    0    0    0    0 -0.00000000000E+00 -0.00000000000E+00 -0.18250000000E+03  0.18250000000E+03  0.00000000000E+00 0. -1.
        -11    1    1    2    0    0 -0.90025994253E+00 -0.40382787317E+01  0.17809977597E+03  0.17814782728E+03  0.00000000000E+00 0. -1.
         11    1    1    2    0    0 -0.34783091985E+00  0.36338075208E+01 -0.17759697006E+03  0.17763448235E+03  0.00000000000E+00 0. -1.
        -15    1    1    2    0    0  0.41284490068E-01 -0.32636290940E+01 -0.25426032709E+01  0.45028368464E+01  0.17770000000E+01 0. -1.
         15    1    1    2    0    0  0.12068063723E+01  0.36681003050E+01  0.20397973629E+01  0.47148535236E+01  0.17770000000E+01 0. -1.
</event>
<event>
 6    1  0.1226227E-002  0.1859985E+03  0.7546771E-02  0.1065704E+00
        -11   -1    0    0    0    0  0.00000000000E+00  0.00000000000E+00  0.18250000000E+03  0.18250000000E+03  0.00000000000E+00 0.  1.
         11   -1    0    0    0    0 -0.00000000000E+00 -0.00000000000E+00 -0.18250000000E+03  0.18250000000E+03  0.00000000000E+00 0.  1.
        -11    1    1    2    0    0  0.39289464063E+01  0.58139960683E+01  0.15719125738E+03  0.15734780127E+03  0.00000000000E+00 0.  1.
         11    1    1    2    0    0  0.19122795365E+01  0.60178656806E+01 -0.17889006041E+03  0.17900146713E+03  0.00000000000E+00 0.  1.
        -15    1    1    2    0    0 -0.66952645880E+01 -0.13793602961E+02  0.15589394719E+02  0.21938026513E+02  0.17770000000E+01 0.  1.
         15    1    1    2    0    0  0.85403864526E+00  0.19617412126E+01  0.61094083148E+01  0.67127050844E+01  0.17770000000E+01 0.  1.
</event>
<event>
 6    1  0.1226227E-002  0.1733066E+03  0.7546771E-02  0.1076018E+00
        -11   -1    0    0    0    0  0.00000000000E+00  0.00000000000E+00  0.18250000000E+03  0.18250000000E+03  0.00000000000E+00 0.  1.
         11   -1    0    0    0    0 -0.00000000000E+00 -0.00000000000E+00 -0.18250000000E+03  0.18250000000E+03  0.00000000000E+00 0.  1.
        -11    1    1    2    0    0 -0.34247074051E+00 -0.31900338805E+01  0.17555040724E+03  0.17557972288E+03  0.00000000000E+00 0.  1.
         11    1    1    2    0    0  0.53041195577E+00 -0.95038698476E+01 -0.17103069375E+03  0.17129536796E+03  0.00000000000E+00 0.  1.
        -15    1    1    2    0    0  0.30017573442E+01  0.73830379666E+01  0.25537305705E+01  0.85556452472E+01  0.17770000000E+01 0. -1.
         15    1    1    2    0    0 -0.31896985595E+01  0.53108657615E+01 -0.70734440620E+01  0.95692639182E+01  0.17770000000E+01 0.  1.
</event>
<event>
 6    1  0.1226227E-002  0.1826849E+03  0.7546771E-02  0.1068308E+00
        -11   -1    0    0    0    0  0.00000000000E+00  0.00000000000E+00  0.18250000000E+03  0.18250000000E+03  0.00000000000E+00 0. -1.
         11   -1    0    0    0    0 -0.00000000000E+00 -0.00000000000E+00 -0.18250000000E+03  0.18250000000E+03  0.00000000000E+00 0. -1.
        -11    1    1    2    0    0 -0.19114373446E+01 -0.14421614082E+01  0.65724067670E+02  0.65767670579E+02  0.00000000000E+00 0. -1.
         11    1    1    2    0    0 -0.51837432322E+01  0.20116676834E+01 -0.18223030448E+03  0.18231511696E+03  0.00000000000E+00 0. -1.
        -15    1    1    2    0    0  0.61470950904E+01 -0.14047668086E+01  0.10512901639E+03  0.10533293865E+03  0.17770000000E+01 0. -1.
         15    1    1    2    0    0  0.94808548631E+00  0.83526053343E+00  0.11377220419E+02  0.11584273811E+02  0.17770000000E+01 0. -1.
</event>
<event>
 6    1  0.1226227E-002  0.1856218E+03  0.7546771E-02  0.1065997E+00
        -11   -1    0    0    0    0  0.00000000000E+00  0.00000000000E+00  0.18250000000E+03  0.18250000000E+03  0.00000000000E+00 0. -1.
         11   -1    0    0    0    0 -0.00000000000E+00 -0.00000000000E+00 -0.18250000000E+03  0.18250000000E+03  0.00000000000E+00 0.  1.
        -11    1    1    2    0    0  0.79690665252E+01  0.72417027185E+01  0.17905475471E+03  0.17937824134E+03  0.00000000000E+00 0. -1.
         11    1    1    2    0    0  0.14853223340E+01  0.31341319604E+00 -0.85577158816E+02  0.85590621690E+02  0.00000000000E+00 0.  1.
        -15    1    1    2    0    0  0.85293602695E+00  0.65705705035E+01 -0.71782911460E+02  0.72109943859E+02  0.17770000000E+01 0.  1.
         15    1    1    2    0    0 -0.10307324886E+02 -0.14125686418E+02 -0.21694684437E+02  0.27921193114E+02  0.17770000000E+01 0. -1.
</event>
<event>
 6    1  0.1226227E-002  0.1889733E+03  0.7546771E-02  0.1063416E+00
        -11   -1    0    0    0    0  0.00000000000E+00  0.00000000000E+00  0.18250000000E+03  0.18250000000E+03  0.00000000000E+00 0.  1.
         11   -1    0    0    0    0 -0.00000000000E+00 -0.00000000000E+00 -0.18250000000E+03  0.18250000000E+03  0.00000000000E+00 0. -1.
        -11    1    1    2    0    0  0.45760972562E+01  0.34026072407E+00  0.17596683599E+03  0.17602665654E+03  0.00000000000E+00 0.  1.
         11    1    1    2    0    0  0.86077418792E+00  0.10694134972E+01 -0.96649299352E+02  0.96659048427E+02  0.00000000000E+00 0. -1.
        -15    1    1    2    0    0 -0.85330364554E+00 -0.13960460676E+02 -0.77430500516E+02  0.78703638598E+02  0.17770000000E+01 0. -1.
         15    1    1    2    0    0 -0.45835677986E+01  0.12550786455E+02 -0.18870361188E+01  0.13610656440E+02  0.17770000000E+01 0.  1.
</event>
<event>
 6    1  0.1226227E-002  0.1844888E+03  0.7546771E-02  0.1066883E+00
        -11   -1    0    0    0    0  0.00000000000E+00  0.00000000000E+00  0.18250000000E+03  0.18250000000E+03  0.00000000000E+00 0.  1.
         11   -1    0    0    0    0 -0.00000000000E+00 -0.00000000000E+00 -0.18250000000E+03  0.18250000000E+03  0.00000000000E+00 0.  1.
        -11    1    1    2    0    0 -0.23267229410E+01  0.88360809015E+00  0.18049403774E+03  0.18051119650E+03  0.00000000000E+00 0.  1.
         11    1    1    2    0    0  0.34831531078E+01 -0.89397164075E+01 -0.12910257565E+03  0.12945858768E+03  0.00000000000E+00 0.  1.
        -15    1    1    2    0    0 -0.64136604843E+01  0.84341392367E+01 -0.16442350373E+02  0.19641241311E+02  0.17770000000E+01 0.  1.
         15    1    1    2    0    0  0.52572303175E+01 -0.37803091944E+00 -0.34949111714E+02  0.35388974506E+02  0.17770000000E+01 0. -1.
</event>
<event>
 6    1  0.1226227E-002  0.1917346E+03  0.7546771E-02  0.1061333E+00
        -11   -1    0    0    0    0  0.00000000000E+00  0.00000000000E+00  0.18250000000E+03  0.18250000000E+03  0.00000000000E+00 0.  1.
         11   -1    0    0    0    0 -0.00000000000E+00 -0.00000000000E+00 -0.18250000000E+03  0.18250000000E+03  0.00000000000E+00 0. -1.
        -11    1    1    2    0    0 -0.77148689398E+00  0.13864558973E+01  0.11591164351E+03  0.11592250236E+03  0.00000000000E+00 0.  1.
         11    1    1    2    0    0  0.46577529790E+01  0.95020166729E+01 -0.17294190863E+03  0.17326536511E+03  0.00000000000E+00 0. -1.
        -15    1    1    2    0    0  0.13671231037E+02 -0.23616488028E+02  0.38554207701E+02  0.47267596991E+02  0.17770000000E+01 0.  1.
         15    1    1    2    0    0 -0.17557497123E+02  0.12728015458E+02  0.18476057424E+02  0.28544535548E+02  0.17770000000E+01 0. -1.
</event>
<event>
 6    1  0.1226227E-002  0.1879723E+03  0.7546771E-02  0.1064180E+00
        -11   -1    0    0    0    0  0.00000000000E+00  0.00000000000E+00  0.18250000000E+03  0.18250000000E+03  0.00000000000E+00 0. -1.
         11   -1    0    0    0    0 -0.00000000000E+00 -0.00000000000E+00 -0.18250000000E+03  0.18250000000E+03  0.00000000000E+00 0.  1.
        -11    1    1    2    0    0 -0.98938744175E+00  0.50982334624E+01  0.15991901670E+03  0.16000332114E+03  0.00000000000E+00 0. -1.
         11    1    1    2    0    0  0.20462981559E+01 -0.56771925665E+01 -0.17692482023E+03  0.17702770931E+03  0.00000000000E+00 0.  1.
        -15    1    1    2    0    0 -0.29891210476E+01 -0.92644372920E+00 -0.47748311839E+01  0.59791207092E+01  0.17770000000E+01 0. -1.
         15    1    1    2    0    0  0.19322103334E+01  0.15054028334E+01  0.21780634713E+02  0.21989848839E+02  0.17770000000E+01 0.  1.
</event>
<event>
 6    1  0.1226227E-002  0.1990392E+03  0.7546771E-02  0.1056002E+00
        -11   -1    0    0    0    0  0.00000000000E+00  0.00000000000E+00  0.18250000000E+03  0.18250000000E+03  0.00000000000E+00 0.  1.
         11   -1    0    0    0    0 -0.00000000000E+00 -0.00000000000E+00 -0.18250000000E+03  0.18250000000E+03  0.00000000000E+00 0.  1.
        -11    1    1    2    0    0 -0.89491619802E+01 -0.15418968583E+02  0.14853642427E+03  0.14960247801E+03  0.00000000000E+00 0.  1.
         11    1    1    2    0    0  0.17831670682E+01 -0.25255726642E+01 -0.16593199414E+03  0.16596079321E+03  0.00000000000E+00 0.  1.
        -15    1    1    2    0    0 -0.10486837972E+02  0.24384395239E+02  0.14629818346E+02  0.30360530556E+02  0.17770000000E+01 0. -1.
         15    1    1    2    0    0  0.17652832883E+02 -0.64398539917E+01  0.27657515339E+01  0.19076198227E+02  0.17770000000E+01 0.  1.
</event>
<event>
 6    1  0.1226227E-002  0.1826281E+03  0.7546771E-02  0.1068353E+00
        -11   -1    0    0    0    0  0.00000000000E+00  0.00000000000E+00  0.18250000000E+03  0.18250000000E+03  0.00000000000E+00 0.  1.
         11   -1    0    0    0    0 -0.00000000000E+00 -0.00000000000E+00 -0.18250000000E+03  0.18250000000E+03  0.00000000000E+00 0. -1.
        -11    1    1    2    0    0 -0.46910262493E+00  0.46328295105E+00  0.20167125371E+02  0.20177899646E+02  0.00000000000E+00 0.  1.
         11    1    1    2    0    0  0.17843857577E+01  0.18355862217E+01 -0.18235388633E+03  0.18237185438E+03  0.00000000000E+00 0. -1.
        -15    1    1    2    0    0  0.16168029149E+01 -0.57320721581E+00  0.13165440079E+03  0.13167756679E+03  0.17770000000E+01 0.  1.
         15    1    1    2    0    0 -0.29320860477E+01 -0.17256619569E+01  0.30532360169E+02  0.30772679186E+02  0.17770000000E+01 0.  1.
</event>
<event>
 6    1  0.1226227E-002  0.1830634E+03  0.7546771E-02  0.1068007E+00
        -11   -1    0    0    0    0  0.00000000000E+00  0.00000000000E+00  0.18250000000E+03  0.18250000000E+03  0.00000000000E+00 0. -1.
         11   -1    0    0    0    0 -0.00000000000E+00 -0.00000000000E+00 -0.18250000000E+03  0.18250000000E+03  0.00000000000E+00 0.  1.
        -11    1    1    2    0    0 -0.98145079010E+01 -0.61625248584E+01  0.18156714279E+03  0.18193660604E+03  0.00000000000E+00 0. -1.
         11    1    1    2    0    0 -0.81633322171E+00  0.63350707817E+00 -0.72562940098E+02  0.72570297001E+02  0.00000000000E+00 0.  1.
        -15    1    1    2    0    0 -0.34697659281E+00 -0.38423792648E+00 -0.55328918879E+02  0.55359868361E+02  0.17770000000E+01 0.  1.
         15    1    1    2    0    0  0.10977817716E+02  0.59132557067E+01 -0.53675283808E+02  0.55133228598E+02  0.17770000000E+01 0.  1.
</event>
<event>
 6    1  0.1226227E-002  0.1833030E+03  0.7546771E-02  0.1067817E+00
        -11   -1    0    0    0    0  0.00000000000E+00  0.00000000000E+00  0.18250000000E+03  0.18250000000E+03  0.00000000000E+00 0.  1.
         11   -1    0    0    0    0 -0.00000000000E+00 -0.00000000000E+00 -0.18250000000E+03  0.18250000000E+03  0.00000000000E+00 0.  1.
        -11    1    1    2    0    0 -0.29509750093E+00 -0.38432048492E+01  0.14452184556E+03  0.14457323802E+03  0.00000000000E+00 0.  1.
         11    1    1    2    0    0  0.52611584489E+01  0.16616567341E+01 -0.18161324971E+03  0.18169703729E+03  0.00000000000E+00 0.  1.
        -15    1    1    2    0    0 -0.55399990251E+01 -0.23052921333E+01  0.22211770994E+02  0.23076534850E+02  0.17770000000E+01 0.  1.
         15    1    1    2    0    0  0.57393807711E+00  0.44868402484E+01  0.14879633154E+02  0.15653189839E+02  0.17770000000E+01 0.  1.
</event>
<event>
 6    1  0.1226227E-002  0.1833482E+03  0.7546771E-02  0.1067782E+00
        -11   -1    0    0    0    0  0.00000000000E+00  0.00000000000E+00  0.18250000000E+03  0.18250000000E+03  0.00000000000E+00 0. -1.
         11   -1    0    0    0    0 -0.00000000000E+00 -0.00000000000E+00 -0.18250000000E+03  0.18250000000E+03  0.00000000000E+00 0. -1.
        -11    1    1    2    0    0 -0.78816189647E+00  0.19284908499E+01  0.13263685381E+03  0.13265321431E+03  0.00000000000E+00 0. -1.
         11    1    1    2    0    0  0.38534200679E+01 -0.67183971740E+01 -0.18148658460E+03  0.18165177152E+03  0.00000000000E+00 0. -1.
        -15    1    1    2    0    0 -0.66997888949E+00 -0.38979001091E+01  0.14086260210E+02  0.14738485427E+02  0.17770000000E+01 0. -1.
         15    1    1    2    0    0 -0.23952792820E+01  0.86878064332E+01  0.34763470579E+02  0.35956528742E+02  0.17770000000E+01 0.  1.
</event>
<event>
 6    1  0.1226227E-002  0.1897514E+03  0.7546771E-02  0.1062825E+00
        -11   -1    0    0    0    0  0.00000000000E+00  0.00000000000E+00  0.18250000000E+03  0.18250000000E+03  0.00000000000E+00 0. -1.
         11   -1    0    0    0    0 -0.00000000000E+00 -0.00000000000E+00 -0.18250000000E+03  0.18250000000E+03  0.00000000000E+00 0. -1.
        -11    1    1    2    0    0  0.10561459617E+02 -0.13184354702E+02  0.17443248296E+03  0.17524857418E+03  0.00000000000E+00 0. -1.
         11    1    1    2    0    0  0.22127363123E+01  0.33075771765E+00 -0.11398095582E+03  0.11400291178E+03  0.00000000000E+00 0. -1.
        -15    1    1    2    0    0 -0.71895660064E+01  0.43980306210E+01 -0.64217761918E+02  0.64792832995E+02  0.17770000000E+01 0. -1.
         15    1    1    2    0    0 -0.55846299229E+01  0.84555663638E+01  0.37662347777E+01  0.10955681052E+02  0.17770000000E+01 0.  1.
</event>
<event>
 6    1  0.1226227E-002  0.1830254E+03  0.7546771E-02  0.1068037E+00
        -11   -1    0    0    0    0  0.00000000000E+00  0.00000000000E+00  0.18250000000E+03  0.18250000000E+03  0.00000000000E+00 0.  1.
         11   -1    0    0    0    0 -0.00000000000E+00 -0.00000000000E+00 -0.18250000000E+03  0.18250000000E+03  0.00000000000E+00 0.  1.
        -11    1    1    2    0    0  0.93630660930E+00 -0.17158995907E+01  0.14141349255E+03  0.14142700186E+03  0.00000000000E+00 0.  1.
         11    1    1    2    0    0  0.19507471600E+01  0.29214011696E+01 -0.18194068452E+03  0.18197459350E+03  0.00000000000E+00 0.  1.
        -15    1    1    2    0    0 -0.25508813407E+01 -0.44513635469E+01  0.19331909266E+02  0.20079892378E+02  0.17770000000E+01 0. -1.
         15    1    1    2    0    0 -0.33617242852E+00  0.32458619680E+01  0.21195282702E+02  0.21518512254E+02  0.17770000000E+01 0. -1.
</event>
<event>
 6    1  0.1226227E-002  0.1835855E+03  0.7546771E-02  0.1067594E+00
        -11   -1    0    0    0    0  0.00000000000E+00  0.00000000000E+00  0.18250000000E+03  0.18250000000E+03  0.00000000000E+00 0. -1.
         11   -1    0    0    0    0 -0.00000000000E+00 -0.00000000000E+00 -0.18250000000E+03  0.18250000000E+03  0.00000000000E+00 0. -1.
        -11    1    1    2    0    0 -0.24576695444E+01  0.14713402894E+01  0.18139187319E+03  0.18141448851E+03  0.00000000000E+00 0. -1.
         11    1    1    2    0    0  0.26799275183E+01  0.79693515370E+00 -0.11628899087E+03  0.11632259675E+03  0.00000000000E+00 0. -1.
        -15    1    1    2    0    0 -0.61070022199E+01 -0.16615608654E+01 -0.55209648675E+02  0.55599633960E+02  0.17770000000E+01 0. -1.
         15    1    1    2    0    0  0.58847442460E+01 -0.60671457767E+00 -0.98932336484E+01  0.11663280775E+02  0.17770000000E+01 0. -1.
</event>
<event>
 6    1  0.1226227E-002  0.1865812E+03  0.7546771E-02  0.1065252E+00
        -11   -1    0    0    0    0  0.00000000000E+00  0.00000000000E+00  0.18250000000E+03  0.18250000000E+03  0.00000000000E+00 0. -1.
         11   -1    0    0    0    0 -0.00000000000E+00 -0.00000000000E+00 -0.18250000000E+03  0.18250000000E+03  0.00000000000E+00 0.  1.
        -11    1    1    2    0    0 -0.38439332966E+01  0.58984175586E+01  0.17827980315E+03  0.17841876405E+03  0.00000000000E+00 0. -1.
         11    1    1    2    0    0  0.31466292504E+01 -0.11082556019E+01 -0.16296688528E+03  0.16300102823E+03  0.00000000000E+00 0.  1.
        -15    1    1    2    0    0  0.61131525690E+01 -0.25009903614E+01  0.25473926669E+00  0.68445750937E+01  0.17770000000E+01 0. -1.
         15    1    1    2    0    0 -0.54158485228E+01 -0.22891715952E+01 -0.15567657137E+02  0.16735632631E+02  0.17770000000E+01 0. -1.
</event>
<event>
 6    1  0.1226227E-002  0.1839449E+03  0.7546771E-02  0.1067310E+00
        -11   -1    0    0    0    0  0.00000000000E+00  0.00000000000E+00  0.18250000000E+03  0.18250000000E+03  0.00000000000E+00 0. -1.
         11   -1    0    0    0    0 -0.00000000000E+00 -0.00000000000E+00 -0.18250000000E+03  0.18250000000E+03  0.00000000000E+00 0. -1.
        -11    1    1    2    0    0  0.82879799274E+01 -0.56315158305E+00  0.18086446726E+03  0.18105513876E+03  0.00000000000E+00 0. -1.
         11    1    1    2    0    0  0.16589634525E+01 -0.78671964507E+01 -0.11987658341E+03  0.12014591208E+03  0.00000000000E+00 0. -1.
        -15    1    1    2    0    0 -0.48254220880E+01  0.10807275172E+02 -0.48848779817E+02  0.50293567318E+02  0.17770000000E+01 0. -1.
         15    1    1    2    0    0 -0.51215212919E+01 -0.23769271385E+01 -0.12139104042E+02  0.13505381850E+02  0.17770000000E+01 0.  1.
</event>
<event>
 6    1  0.1226227E-002  0.1650193E+03  0.7546771E-02  0.1083289E+00
        -11   -1    0    0    0    0  0.00000000000E+00  0.00000000000E+00  0.18250000000E+03  0.18250000000E+03  0.00000000000E+00 0. -1.
         11   -1    0    0    0    0 -0.00000000000E+00 -0.00000000000E+00 -0.18250000000E+03  0.18250000000E+03  0.00000000000E+00 0. -1.
        -11    1    1    2    0    0  0.65637225926E+01  0.80895902129E+01  0.16480740875E+03  0.16513632521E+03  0.00000000000E+00 0. -1.
         11    1    1    2    0    0 -0.31416407179E+01  0.22669393073E+01 -0.16503705100E+03  0.16508251610E+03  0.00000000000E+00 0. -1.
        -15    1    1    2    0    0 -0.27259401381E+01 -0.18350273810E+02 -0.10402309712E+02  0.21343127111E+02  0.17770000000E+01 0.  1.
         15    1    1    2    0    0 -0.69614173662E+00  0.79937442900E+01  0.10631951960E+02  0.13438031573E+02  0.17770000000E+01 0. -1.
</event>
<event>
 6    1  0.1226227E-002  0.1848650E+03  0.7546771E-02  0.1066588E+00
        -11   -1    0    0    0    0  0.00000000000E+00  0.00000000000E+00  0.18250000000E+03  0.18250000000E+03  0.00000000000E+00 0. -1.
         11   -1    0    0    0    0 -0.00000000000E+00 -0.00000000000E+00 -0.18250000000E+03  0.18250000000E+03  0.00000000000E+00 0. -1.
        -11    1    1    2    0    0 -0.20861878544E+01  0.30933070825E+01  0.12795014181E+03  0.12800452928E+03  0.00000000000E+00 0. -1.
         11    1    1    2    0    0  0.32730386757E+01 -0.13389519328E+01 -0.18010025575E+03  0.18013497077E+03  0.00000000000E+00 0. -1.
        -15    1    1    2    0    0 -0.25979139781E+01  0.32595228698E+00 -0.12275700074E+01  0.33941212491E+01  0.17770000000E+01 0. -1.
         15    1    1    2    0    0  0.14110631567E+01 -0.20803074367E+01  0.53377683948E+02  0.53466378696E+02  0.17770000000E+01 0. -1.
</event>
<event>
 6    1  0.1226227E-002  0.1828819E+03  0.7546771E-02  0.1068151E+00
        -11   -1    0    0    0    0  0.00000000000E+00  0.00000000000E+00  0.18250000000E+03  0.18250000000E+03  0.00000000000E+00 0.  1.
         11   -1    0    0    0    0 -0.00000000000E+00 -0.00000000000E+00 -0.18250000000E+03  0.18250000000E+03  0.00000000000E+00 0.  1.
        -11    1    1    2    0    0  0.27858935308E+01 -0.19840997605E+01  0.18208598613E+03  0.18211810509E+03  0.00000000000E+00 0.  1.
         11    1    1    2    0    0 -0.11754040164E+01  0.21800115434E+01 -0.12285504877E+03  0.12288001071E+03  0.00000000000E+00 0.  1.
        -15    1    1    2    0    0  0.94538020558E+00  0.21797122146E+01 -0.48294343281E+02  0.48385392538E+02  0.17770000000E+01 0. -1.
         15    1    1    2    0    0 -0.25558697199E+01 -0.23756239975E+01 -0.10936594082E+02  0.11616491661E+02  0.17770000000E+01 0.  1.
</event>
<event>
 6    1  0.1226227E-002  0.1828357E+03  0.7546771E-02  0.1068188E+00
        -11   -1    0    0    0    0  0.00000000000E+00  0.00000000000E+00  0.18250000000E+03  0.18250000000E+03  0.00000000000E+00 0.  1.
         11   -1    0    0    0    0 -0.00000000000E+00 -0.00000000000E+00 -0.18250000000E+03  0.18250000000E+03  0.00000000000E+00 0.  1.
        -11    1    1    2    0    0 -0.50584136870E+00 -0.45585736119E+01  0.18210659104E+03  0.18216434055E+03  0.00000000000E+00 0.  1.
         11    1    1    2    0    0  0.67577813671E+00 -0.21057978759E+01 -0.72127937517E+02  0.72161835005E+02  0.00000000000E+00 0.  1.
        -15    1    1    2    0    0 -0.36799470553E+01  0.61481707307E+01 -0.90167978087E+02  0.90469685613E+02  0.17770000000E+01 0.  1.
         15    1    1    2    0    0  0.35100102873E+01  0.51620075710E+00 -0.19810675438E+02  0.20204138827E+02  0.17770000000E+01 0. -1.
</event>
<event>
 6    1  0.1226227E-002  0.1845234E+03  0.7546771E-02  0.1066856E+00
        -11   -1    0    0    0    0  0.00000000000E+00  0.00000000000E+00  0.18250000000E+03  0.18250000000E+03  0.00000000000E+00 0. -1.
         11   -1    0    0    0    0 -0.00000000000E+00 -0.00000000000E+00 -0.18250000000E+03  0.18250000000E+03  0.00000000000E+00 0.  1.
        -11    1    1    2    0    0 -0.25248226738E+01 -0.23205444085E+01  0.18044404314E+03  0.18047662553E+03  0.00000000000E+00 0. -1.
         11    1    1    2    0    0  0.13030831879E+01 -0.40910803431E+01 -0.14766692318E+03  0.14772933075E+03  0.00000000000E+00 0.  1.
        -15    1    1    2    0    0  0.41927902836E+01  0.10428603754E+02 -0.23436987370E+02  0.26053509794E+02  0.17770000000E+01 0. -1.
         15    1    1    2    0    0 -0.29710507977E+01 -0.40169790028E+01 -0.93401325953E+01  0.10740533928E+02  0.17770000000E+01 0.  1.
</event>
<event>
 6    1  0.1226227E-002  0.1831724E+03  0.7546771E-02  0.1067921E+00
        -11   -1    0    0    0    0  0.00000000000E+00  0.00000000000E+00  0.18250000000E+03  0.18250000000E+03  0.00000000000E+00 0.  1.
         11   -1    0    0    0    0 -0.00000000000E+00 -0.00000000000E+00 -0.18250000000E+03  0.18250000000E+03  0.00000000000E+00 0.  1.
        -11    1    1    2    0    0  0.29698023683E+01 -0.47309041303E+00  0.18180276642E+03  0.18182763656E+03  0.00000000000E+00 0.  1.
         11    1    1    2    0    0  0.71746806503E+00 -0.19704345425E+01 -0.29977897399E+02  0.30051151478E+02  0.00000000000E+00 0.  1.
        -15    1    1    2    0    0 -0.43934354596E+01  0.24391606841E+01 -0.10426236585E+02  0.11709650648E+02  0.17770000000E+01 0.  1.
         15    1    1    2    0    0  0.70616502622E+00  0.43642713706E-02 -0.14139863244E+03  0.14141156131E+03  0.17770000000E+01 0.  1.
</event>
<event>
 6    1  0.1226227E-002  0.1829987E+03  0.7546771E-02  0.1068059E+00
        -11   -1    0    0    0    0  0.00000000000E+00  0.00000000000E+00  0.18250000000E+03  0.18250000000E+03  0.00000000000E+00 0.  1.
         11   -1    0    0    0    0 -0.00000000000E+00 -0.00000000000E+00 -0.18250000000E+03  0.18250000000E+03  0.00000000000E+00 0. -1.
        -11    1    1    2    0    0  0.28796623994E+01  0.38735305233E+01  0.18193732052E+03  0.18200133322E+03  0.00000000000E+00 0.  1.
         11    1    1    2    0    0 -0.10083324135E+01  0.19956004916E+01 -0.97100864798E+02  0.97126603463E+02  0.00000000000E+00 0. -1.
        -15    1    1    2    0    0  0.31415873487E+01 -0.60335868122E+01 -0.63244987234E+02  0.63634580852E+02  0.17770000000E+01 0. -1.
         15    1    1    2    0    0 -0.50129173346E+01  0.16445579733E+00 -0.21591468490E+02  0.22237482467E+02  0.17770000000E+01 0.  1.
</event>
<event>
 6    1  0.1226227E-002  0.8601412E+02  0.7546771E-02  0.1190489E+00
        -11   -1    0    0    0    0  0.00000000000E+00  0.00000000000E+00  0.18250000000E+03  0.18250000000E+03  0.00000000000E+00 0. -1.
         11   -1    0    0    0    0 -0.00000000000E+00 -0.00000000000E+00 -0.18250000000E+03  0.18250000000E+03  0.00000000000E+00 0. -1.
        -11    1    1    2    0    0  0.11678743179E+02 -0.56103564908E+01  0.11406086378E+03  0.11479438048E+03  0.00000000000E+00 0. -1.
         11    1    1    2    0    0 -0.60800351146E+01  0.68581626935E+01 -0.10576218257E+03  0.10615856293E+03  0.00000000000E+00 0. -1.
        -15    1    1    2    0    0  0.41125791593E+01 -0.54630164097E+02  0.42761256293E+02  0.69520147478E+02  0.17770000000E+01 0. -1.
         15    1    1    2    0    0 -0.97112872239E+01  0.53382357895E+02 -0.51059937508E+02  0.74526909108E+02  0.17770000000E+01 0.  1.
</event>
<event>
 6    1  0.1226227E-002  0.1854570E+03  0.7546771E-02  0.1066125E+00
        -11   -1    0    0    0    0  0.00000000000E+00  0.00000000000E+00  0.18250000000E+03  0.18250000000E+03  0.00000000000E+00 0.  1.
         11   -1    0    0    0    0 -0.00000000000E+00 -0.00000000000E+00 -0.18250000000E+03  0.18250000000E+03  0.00000000000E+00 0.  1.
        -11    1    1    2    0    0  0.47974712157E+00 -0.29183948150E+01  0.17951865339E+03  0.17954301462E+03  0.00000000000E+00 0.  1.
         11    1    1    2    0    0  0.64882710666E+01 -0.20843383383E+01 -0.17262743111E+03  0.17276189424E+03  0.00000000000E+00 0.  1.
        -15    1    1    2    0    0 -0.65546499388E+01  0.23014342559E+01 -0.34579380379E+01  0.79608479403E+01  0.17770000000E+01 0.  1.
         15    1    1    2    0    0 -0.41336824940E+00  0.27012988973E+01 -0.34332842380E+01  0.47342432026E+01  0.17770000000E+01 0. -1.
</event>
<event>
 6    1  0.1226227E-002  0.1830389E+03  0.7546771E-02  0.1068027E+00
        -11   -1    0    0    0    0  0.00000000000E+00  0.00000000000E+00  0.18250000000E+03  0.18250000000E+03  0.00000000000E+00 0.  1.
         11   -1    0    0    0    0 -0.00000000000E+00 -0.00000000000E+00 -0.18250000000E+03  0.18250000000E+03  0.00000000000E+00 0.  1.
        -11    1    1    2    0    0  0.31372737540E+00  0.16808413558E+01  0.97821340862E+02  0.97836283559E+02  0.00000000000E+00 0.  1.
         11    1    1    2    0    0  0.25179070965E+01  0.29324671255E+01 -0.18192007913E+03  0.18196113434E+03  0.00000000000E+00 0.  1.
        -15    1    1    2    0    0 -0.55032716592E+01 -0.30194049901E+01  0.20722545390E+02  0.21725202459E+02  0.17770000000E+01 0. -1.
         15    1    1    2    0    0  0.26716371872E+01 -0.15939034912E+01  0.63376192878E+02  0.63477379642E+02  0.17770000000E+01 0.  1.
</event>
<event>
 6    1  0.1226227E-002  0.1837374E+03  0.7546771E-02  0.1067474E+00
        -11   -1    0    0    0    0  0.00000000000E+00  0.00000000000E+00  0.18250000000E+03  0.18250000000E+03  0.00000000000E+00 0. -1.
         11   -1    0    0    0    0 -0.00000000000E+00 -0.00000000000E+00 -0.18250000000E+03  0.18250000000E+03  0.00000000000E+00 0. -1.
        -11    1    1    2    0    0 -0.18400600827E+01  0.15703566050E+01  0.16975411828E+03  0.16977135364E+03  0.00000000000E+00 0. -1.
         11    1    1    2    0    0 -0.59442365629E+00  0.37305917521E+01 -0.18122323292E+03  0.18126260178E+03  0.00000000000E+00 0. -1.
        -15    1    1    2    0    0 -0.82796943944E+00 -0.99802606849E+00  0.41667025941E+01  0.47117649489E+01  0.17770000000E+01 0.  1.
         15    1    1    2    0    0  0.32624531784E+01 -0.43029222886E+01  0.73024120400E+01  0.92542796351E+01  0.17770000000E+01 0. -1.
</event>
<event>
 6    1  0.1226227E-002  0.1826240E+03  0.7546771E-02  0.1068356E+00
        -11   -1    0    0    0    0  0.00000000000E+00  0.00000000000E+00  0.18250000000E+03  0.18250000000E+03  0.00000000000E+00 0.  1.
         11   -1    0    0    0    0 -0.00000000000E+00 -0.00000000000E+00 -0.18250000000E+03  0.18250000000E+03  0.00000000000E+00 0.  1.
        -11    1    1    2    0    0 -0.59949501340E-01  0.89285729591E+00  0.50753267927E+02  0.50761156344E+02  0.00000000000E+00 0.  1.
         11    1    1    2    0    0  0.31579781902E+01 -0.60395527574E+00 -0.18234768789E+03  0.18237603150E+03  0.00000000000E+00 0.  1.
        -15    1    1    2    0    0 -0.26045277342E+01  0.14661106845E+01  0.25291293097E+02  0.25529204468E+02  0.17770000000E+01 0. -1.
         15    1    1    2    0    0 -0.49350095464E+00 -0.17550127047E+01  0.10630312687E+03  0.10633360768E+03  0.17770000000E+01 0.  1.
</event>
<event>
 6    1  0.1226227E-002  0.1836100E+03  0.7546771E-02  0.1067575E+00
        -11   -1    0    0    0    0  0.00000000000E+00  0.00000000000E+00  0.18250000000E+03  0.18250000000E+03  0.00000000000E+00 0. -1.
         11   -1    0    0    0    0 -0.00000000000E+00 -0.00000000000E+00 -0.18250000000E+03  0.18250000000E+03  0.00000000000E+00 0. -1.
        -11    1    1    2    0    0  0.19711629085E+01  0.31175006021E+01  0.18135247950E+03  0.18138998350E+03  0.00000000000E+00 0. -1.
         11    1    1    2    0    0  0.27131172758E+01  0.62808806023E+00 -0.16889562266E+03  0.16891858055E+03  0.00000000000E+00 0. -1.
        -15    1    1    2    0    0 -0.27039178155E+01 -0.26705790802E+01 -0.10237108644E+02  0.11063421106E+02  0.17770000000E+01 0.  1.
         15    1    1    2    0    0 -0.19803623688E+01 -0.10750095821E+01 -0.22197481887E+01  0.36280148476E+01  0.17770000000E+01 0. -1.
</event>
<event>
 6    1  0.1226227E-002  0.1832077E+03  0.7546771E-02  0.1067893E+00
        -11   -1    0    0    0    0  0.00000000000E+00  0.00000000000E+00  0.18250000000E+03  0.18250000000E+03  0.00000000000E+00 0. -1.
         11   -1    0    0    0    0 -0.00000000000E+00 -0.00000000000E+00 -0.18250000000E+03  0.18250000000E+03  0.00000000000E+00 0. -1.
        -11    1    1    2    0    0 -0.30601003514E+01 -0.27451048570E+01  0.10220658478E+03  0.10228922615E+03  0.00000000000E+00 0. -1.
         11    1    1    2    0    0 -0.61624699344E+01 -0.65348683723E+01 -0.18157027554E+03  0.18179231419E+03  0.00000000000E+00 0. -1.
        -15    1    1    2    0    0  0.10377399032E+02  0.83469025653E+01  0.69478755624E+02  0.70765926866E+02  0.17770000000E+01 0.  1.
         15    1    1    2    0    0 -0.11548287466E+01  0.93307066411E+00  0.98849351376E+01  0.10152532786E+02  0.17770000000E+01 0. -1.
</event>
<event>
 6    1  0.1226227E-002  0.1882357E+03  0.7546771E-02  0.1063979E+00
        -11   -1    0    0    0    0  0.00000000000E+00  0.00000000000E+00  0.18250000000E+03  0.18250000000E+03  0.00000000000E+00 0. -1.
         11   -1    0    0    0    0 -0.00000000000E+00 -0.00000000000E+00 -0.18250000000E+03  0.18250000000E+03  0.00000000000E+00 0. -1.
        -11    1    1    2    0    0 -0.28641130863E+01 -0.24029593419E+01  0.17672473877E+03  0.17676427991E+03  0.00000000000E+00 0. -1.
         11    1    1    2    0    0  0.35922890805E+00  0.91426834682E+01 -0.16509759731E+03  0.16535094297E+03  0.00000000000E+00 0. -1.
        -15    1    1    2    0    0 -0.30635853608E+01  0.10265857797E+01 -0.12588273435E+02  0.13117232585E+02  0.17770000000E+01 0. -1.
         15    1    1    2    0    0  0.55684695391E+01 -0.77663099061E+01  0.96113197079E+00  0.97675445344E+01  0.17770000000E+01 0.  1.
</event>
<event>
 6    1  0.1226227E-002  0.1844899E+03  0.7546771E-02  0.1066882E+00
        -11   -1    0    0    0    0  0.00000000000E+00  0.00000000000E+00  0.18250000000E+03  0.18250000000E+03  0.00000000000E+00 0. -1.
         11   -1    0    0    0    0 -0.00000000000E+00 -0.00000000000E+00 -0.18250000000E+03  0.18250000000E+03  0.00000000000E+00 0.  1.
        -11    1    1    2    0    0 -0.22305127852E+01  0.11366113159E+00  0.11792084301E+03  0.11794199134E+03  0.00000000000E+00 0. -1.
         11    1    1    2    0    0  0.69069060585E+01  0.92256873870E+01 -0.18014187517E+03  0.18051014888E+03  0.00000000000E+00 0.  1.
        -15    1    1    2    0    0  0.11276573807E+01 -0.26313258397E+01  0.54642577518E+02  0.54746365118E+02  0.17770000000E+01 0.  1.
         15    1    1    2    0    0 -0.58040506540E+01 -0.67080226789E+01  0.75784546498E+01  0.11801494657E+02  0.17770000000E+01 0. -1.
</event>
<event>
 6    1  0.1226227E-002  0.1837670E+03  0.7546771E-02  0.1067451E+00
        -11   -1    0    0    0    0  0.00000000000E+00  0.00000000000E+00  0.18250000000E+03  0.18250000000E+03  0.00000000000E+00 0. -1.
         11   -1    0    0    0    0 -0.00000000000E+00 -0.00000000000E+00 -0.18250000000E+03  0.18250000000E+03  0.00000000000E+00 0.  1.
        -11    1    1    2    0    0  0.17149375358E+00 -0.14611968715E+01  0.67089636059E+02  0.67105765572E+02  0.00000000000E+00 0. -1.
         11    1    1    2    0    0 -0.24991185512E+01  0.10636102977E+01 -0.18121259722E+03  0.18123295023E+03  0.00000000000E+00 0.  1.
        -15    1    1    2    0    0 -0.28653781733E+01  0.40512278396E+01  0.10629880412E+03  0.10642939597E+03  0.17770000000E+01 0. -1.
         15    1    1    2    0    0  0.51930029710E+01 -0.36536412658E+01  0.78241570346E+01  0.10231888225E+02  0.17770000000E+01 0.  1.
</event>
<event>
 6    1  0.1226227E-002  0.1913937E+03  0.7546771E-02  0.1061588E+00
        -11   -1    0    0    0    0  0.00000000000E+00  0.00000000000E+00  0.18250000000E+03  0.18250000000E+03  0.00000000000E+00 0. -1.
         11   -1    0    0    0    0 -0.00000000000E+00 -0.00000000000E+00 -0.18250000000E+03  0.18250000000E+03  0.00000000000E+00 0. -1.
        -11    1    1    2    0    0 -0.61705139179E+00  0.30243349134E+01  0.11625083647E+03  0.11629180682E+03  0.00000000000E+00 0. -1.
         11    1    1    2    0    0  0.97227686206E+01 -0.16847272348E+01 -0.17332564664E+03  0.17360630841E+03  0.00000000000E+00 0. -1.
        -15    1    1    2    0    0 -0.17331841843E+01  0.34070201021E+00  0.64385978613E+02  0.64434710958E+02  0.17770000000E+01 0. -1.
         15    1    1    2    0    0 -0.73725330445E+01 -0.16803096888E+01 -0.73111684429E+01  0.10667173812E+02  0.17770000000E+01 0.  1.
</event>
<event>
 6    1  0.1226227E-002  0.1842638E+03  0.7546771E-02  0.1067059E+00
        -11   -1    0    0    0    0  0.00000000000E+00  0.00000000000E+00  0.18250000000E+03  0.18250000000E+03  0.00000000000E+00 0.  1.
         11   -1    0    0    0    0 -0.00000000000E+00 -0.00000000000E+00 -0.18250000000E+03  0.18250000000E+03  0.00000000000E+00 0.  1.
        -11    1    1    2    0    0 -0.65141730611E+00  0.23876494563E+01  0.80934738709E+02  0.80972570320E+02  0.00000000000E+00 0.  1.
         11    1    1    2    0    0 -0.92181858959E+01  0.66540384226E+00 -0.18049972111E+03  0.18073618075E+03  0.00000000000E+00 0.  1.
        -15    1    1    2    0    0  0.10727562299E+02 -0.25249745110E+00  0.14344115136E+02  0.18001547597E+02  0.17770000000E+01 0.  1.
         15    1    1    2    0    0 -0.85795909707E+00 -0.28005558474E+01  0.85220867263E+02  0.85289701330E+02  0.17770000000E+01 0.  1.
</event>
<event>
 6    1  0.1226227E-002  0.1836980E+03  0.7546771E-02  0.1067505E+00
        -11   -1    0    0    0    0  0.00000000000E+00  0.00000000000E+00  0.18250000000E+03  0.18250000000E+03  0.00000000000E+00 0. -1.
         11   -1    0    0    0    0 -0.00000000000E+00 -0.00000000000E+00 -0.18250000000E+03  0.18250000000E+03  0.00000000000E+00 0.  1.
        -11    1    1    2    0    0  0.40045472513E+01  0.66722732938E+00  0.18125654601E+03  0.18130200513E+03  0.00000000000E+00 0. -1.
         11    1    1    2    0    0  0.23846488311E+01 -0.15893524655E+01 -0.15738339745E+03  0.15740948632E+03  0.00000000000E+00 0.  1.
        -15    1    1    2    0    0 -0.36280708372E+01  0.44830510585E+01 -0.15205481237E+02  0.16359249171E+02  0.17770000000E+01 0. -1.
         15    1    1    2    0    0 -0.27611252453E+01 -0.35609259223E+01 -0.86676673248E+01  0.99292593832E+01  0.17770000000E+01 0.  1.
</event>
<event>
 6    1  0.1226227E-002  0.1884686E+03  0.7546771E-02  0.1063801E+00
        -11   -1    0    0    0    0  0.00000000000E+00  0.00000000000E+00  0.18250000000E+03  0.18250000000E+03  0.00000000000E+00 0.  1.
         11   -1    0    0    0    0 -0.00000000000E+00 -0.00000000000E+00 -0.18250000000E+03  0.18250000000E+03  0.00000000000E+00 0. -1.
        -11    1    1    2    0    0 -0.42066276032E+00 -0.69529311008E+01  0.15838239958E+03  0.15853549983E+03  0.00000000000E+00 0.  1.
         11    1    1    2    0    0 -0.48148461472E+01  0.75669637098E+00 -0.17646408705E+03  0.17653138347E+03  0.00000000000E+00 0. -1.
        -15    1    1    2    0    0 -0.18745565222E+01  0.53273175551E+01  0.21133338682E+02  0.21946981736E+02  0.17770000000E+01 0. -1.
         15    1    1    2    0    0  0.71100654297E+01  0.86891717472E+00 -0.30516512154E+01  0.79861349608E+01  0.17770000000E+01 0.  1.
</event>
<event>
 6    1  0.1226227E-002  0.1936099E+03  0.7546771E-02  0.1059940E+00
        -11   -1    0    0    0    0  0.00000000000E+00  0.00000000000E+00  0.18250000000E+03  0.18250000000E+03  0.00000000000E+00 0. -1.
         11   -1    0    0    0    0 -0.00000000000E+00 -0.00000000000E+00 -0.18250000000E+03  0.18250000000E+03  0.00000000000E+00 0.  1.
        -11    1    1    2    0    0 -0.58566427201E+01 -0.24542840884E+01  0.17127243277E+03  0.17139011057E+03  0.00000000000E+00 0. -1.
         11    1    1    2    0    0 -0.94010316207E+01  0.17571752213E+01 -0.12242684408E+03  0.12279983392E+03  0.00000000000E+00 0.  1.
        -15    1    1    2    0    0  0.68863320465E+01  0.71304663772E+01  0.80643450924E+01  0.12901802610E+02  0.17770000000E+01 0. -1.
         15    1    1    2    0    0  0.83713422942E+01 -0.64333575101E+01 -0.56909933786E+02  0.57908252894E+02  0.17770000000E+01 0.  1.
</event>
<event>
 6    1  0.1226227E-002  0.1842900E+03  0.7546771E-02  0.1067039E+00
        -11   -1    0    0    0    0  0.00000000000E+00  0.00000000000E+00  0.18250000000E+03  0.18250000000E+03  0.00000000000E+00 0.  1.
         11   -1    0    0    0    0 -0.00000000000E+00 -0.00000000000E+00 -0.18250000000E+03  0.18250000000E+03  0.00000000000E+00 0. -1.
        -11    1    1    2    0    0  0.99388258089E+00  0.51400753756E+01  0.15893782864E+03  0.15902402822E+03  0.00000000000E+00 0.  1.
         11    1    1    2    0    0 -0.23322842913E+01 -0.50956743288E+01 -0.18062307128E+03  0.18070998679E+03  0.00000000000E+00 0. -1.
        -15    1    1    2    0    0  0.27401096092E+01  0.11943033729E+01  0.22336012378E+02  0.22605082153E+02  0.17770000000E+01 0.  1.
         15    1    1    2    0    0 -0.14017078987E+01 -0.12387044197E+01 -0.65076973358E+00  0.26609028391E+01  0.17770000000E+01 0. -1.
</event>
<event>
 6    1  0.1226227E-002  0.1905482E+03  0.7546771E-02  0.1062223E+00
        -11   -1    0    0    0    0  0.00000000000E+00  0.00000000000E+00  0.18250000000E+03  0.18250000000E+03  0.00000000000E+00 0.  1.
         11   -1    0    0    0    0 -0.00000000000E+00 -0.00000000000E+00 -0.18250000000E+03  0.18250000000E+03  0.00000000000E+00 0. -1.
        -11    1    1    2    0    0 -0.85564433059E+01 -0.14883180345E+01  0.15946225290E+03  0.15969858457E+03  0.00000000000E+00 0.  1.
         11    1    1    2    0    0  0.39753983837E+01  0.14708148591E+01 -0.17440028637E+03  0.17445178983E+03  0.00000000000E+00 0. -1.
        -15    1    1    2    0    0  0.15213145853E+02 -0.33864728143E+01  0.88129173106E+01  0.17992588624E+02  0.17770000000E+01 0.  1.
         15    1    1    2    0    0 -0.10632100931E+02  0.34039759896E+01  0.61251161612E+01  0.12857036973E+02  0.17770000000E+01 0. -1.
</event>
<event>
 6    1  0.1226227E-002  0.1834092E+03  0.7546771E-02  0.1067733E+00
        -11   -1    0    0    0    0  0.00000000000E+00  0.00000000000E+00  0.18250000000E+03  0.18250000000E+03  0.00000000000E+00 0. -1.
         11   -1    0    0    0    0 -0.00000000000E+00 -0.00000000000E+00 -0.18250000000E+03  0.18250000000E+03  0.00000000000E+00 0.  1.
        -11    1    1    2    0    0 -0.46589846976E+01  0.27235204745E+01  0.12960056863E+03  0.12971287944E+03  0.00000000000E+00 0. -1.
         11    1    1    2    0    0  0.10550037530E+01 -0.32634255196E+01 -0.18155840000E+03  0.18159079158E+03  0.00000000000E+00 0.  1.
        -15    1    1    2    0    0  0.50281416805E+01 -0.93525793024E+00  0.50137428400E+02  0.50428923959E+02  0.17770000000E+01 0. -1.
         15    1    1    2    0    0 -0.14241607359E+01  0.14751629754E+01  0.18204029667E+01  0.32674050203E+01  0.17770000000E+01 0.  1.
</event>
<event>
 6    1  0.1226227E-002  0.1877920E+03  0.7546771E-02  0.1064319E+00
        -11   -1    0    0    0    0  0.00000000000E+00  0.00000000000E+00  0.18250000000E+03  0.18250000000E+03  0.00000000000E+00 0. -1.
         11   -1    0    0    0    0 -0.00000000000E+00 -0.00000000000E+00 -0.18250000000E+03  0.18250000000E+03  0.00000000000E+00 0.  1.
        -11    1    1    2    0    0  0.56974444785E+00  0.48783511861E+01  0.16436291928E+03  0.16443628600E+03  0.00000000000E+00 0. -1.
         11    1    1    2    0    0 -0.25001171115E+01 -0.90838169654E+00 -0.17718806279E+03  0.17720802842E+03  0.00000000000E+00 0.  1.
        -15    1    1    2    0    0 -0.73952758928E+01  0.20792948618E+01  0.30750327146E+01  0.84632811514E+01  0.17770000000E+01 0.  1.
         15    1    1    2    0    0  0.93256485564E+01 -0.60492643513E+01  0.97501107883E+01  0.14892404426E+02  0.17770000000E+01 0.  1.
</event>
<event>
 6    1  0.1226227E-002  0.1846107E+03  0.7546771E-02  0.1066787E+00
        -11   -1    0    0    0    0  0.00000000000E+00  0.00000000000E+00  0.18250000000E+03  0.18250000000E+03  0.00000000000E+00 0.  1.
         11   -1    0    0    0    0 -0.00000000000E+00 -0.00000000000E+00 -0.18250000000E+03  0.18250000000E+03  0.00000000000E+00 0.  1.
        -11    1    1    2    0    0 -0.29541390375E+01 -0.60034034355E+00  0.16855715400E+03  0.16858410812E+03  0.00000000000E+00 0.  1.
         11    1    1    2    0    0  0.12591193105E+01 -0.24430971015E+01 -0.18036840276E+03  0.18038934231E+03  0.00000000000E+00 0.  1.
        -15    1    1    2    0    0 -0.38151539741E+01  0.39499338537E+00  0.64051296688E+01  0.76742970163E+01  0.17770000000E+01 0.  1.
         15    1    1    2    0    0  0.55101737011E+01  0.26484440597E+01  0.54061190833E+01  0.83522525523E+01  0.17770000000E+01 0. -1.
</event>
<event>
 6    1  0.1226227E-002  0.1883740E+03  0.7546771E-02  0.1063873E+00
        -11   -1    0    0    0    0  0.00000000000E+00  0.00000000000E+00  0.18250000000E+03  0.18250000000E+03  0.00000000000E+00 0. -1.
         11   -1    0    0    0    0 -0.00000000000E+00 -0.00000000000E+00 -0.18250000000E+03  0.18250000000E+03  0.00000000000E+00 0. -1.
        -11    1    1    2    0    0 -0.12278025387E+01 -0.61961235206E+01  0.62168275208E+02  0.62488350019E+02  0.00000000000E+00 0. -1.
         11    1    1    2    0    0 -0.13613439376E+01  0.34213689411E+01 -0.17658764612E+03  0.17662603372E+03  0.00000000000E+00 0. -1.
        -15    1    1    2    0    0  0.10162926366E+02  0.58230682581E+01  0.70845698443E+00  0.11868143770E+02  0.17770000000E+01 0.  1.
         15    1    1    2    0    0 -0.75737798894E+01 -0.30483136786E+01  0.11371091393E+03  0.11401747249E+03  0.17770000000E+01 0. -1.
</event>
<event>
 6    1  0.1226227E-002  0.1828056E+03  0.7546771E-02  0.1068212E+00
        -11   -1    0    0    0    0  0.00000000000E+00  0.00000000000E+00  0.18250000000E+03  0.18250000000E+03  0.00000000000E+00 0. -1.
         11   -1    0    0    0    0 -0.00000000000E+00 -0.00000000000E+00 -0.18250000000E+03  0.18250000000E+03  0.00000000000E+00 0.  1.
        -11    1    1    2    0    0 -0.33410884234E+01 -0.27163395910E+00  0.11966568505E+03  0.11971262604E+03  0.00000000000E+00 0. -1.
         11    1    1    2    0    0 -0.11305289890E+01 -0.43699009512E+01 -0.18213848303E+03  0.18219440478E+03  0.00000000000E+00 0.  1.
        -15    1    1    2    0    0  0.90021298549E-01  0.16378478770E+01  0.87215335350E+01  0.90506091344E+01  0.17770000000E+01 0.  1.
         15    1    1    2    0    0  0.43815961139E+01  0.30036870333E+01  0.53751264451E+02  0.54042360046E+02  0.17770000000E+01 0. -1.
</event>
<event>
 6    1  0.1226227E-002  0.1831683E+03  0.7546771E-02  0.1067924E+00
        -11   -1    0    0    0    0  0.00000000000E+00  0.00000000000E+00  0.18250000000E+03  0.18250000000E+03  0.00000000000E+00 0.  1.
         11   -1    0    0    0    0 -0.00000000000E+00 -0.00000000000E+00 -0.18250000000E+03  0.18250000000E+03  0.00000000000E+00 0.  1.
        -11    1    1    2    0    0  0.21678142819E+01 -0.18564585916E+01  0.18180929275E+03  0.18183169358E+03  0.00000000000E+00 0.  1.
         11    1    1    2    0    0  0.21080332768E+01 -0.20419683087E+01 -0.14378467524E+03  0.14381462468E+03  0.00000000000E+00 0.  1.
        -15    1    1    2    0    0 -0.59818486591E+01  0.34012033477E+01 -0.21631590238E+02  0.22769148487E+02  0.17770000000E+01 0. -1.
         15    1    1    2    0    0  0.17060011003E+01  0.49722355254E+00 -0.16393027276E+02  0.16584533255E+02  0.17770000000E+01 0.  1.
</event>
<event>
 6    1  0.1226227E-002  0.1845756E+03  0.7546771E-02  0.1066815E+00
        -11   -1    0    0    0    0  0.00000000000E+00  0.00000000000E+00  0.18250000000E+03  0.18250000000E+03  0.00000000000E+00 0. -1.
         11   -1    0    0    0    0 -0.00000000000E+00 -0.00000000000E+00 -0.18250000000E+03  0.18250000000E+03  0.00000000000E+00 0. -1.
        -11    1    1    2    0    0 -0.20203125524E+01 -0.22055115652E+01  0.17539936215E+03  0.17542486194E+03  0.00000000000E+00 0. -1.
         11    1    1    2    0    0 -0.23601519863E+01  0.18206167309E+01 -0.18039978956E+03  0.18042441364E+03  0.00000000000E+00 0. -1.
        -15    1    1    2    0    0 -0.96772306207E-01 -0.15233656842E+01  0.78282183202E+00  0.24699285228E+01  0.17770000000E+01 0.  1.
         15    1    1    2    0    0  0.44772368449E+01  0.19082605184E+01  0.42176055793E+01  0.66807958953E+01  0.17770000000E+01 0. -1.
</event>
<event>
 6    1  0.1226227E-002  0.1847955E+03  0.7546771E-02  0.1066642E+00
        -11   -1    0    0    0    0  0.00000000000E+00  0.00000000000E+00  0.18250000000E+03  0.18250000000E+03  0.00000000000E+00 0.  1.
         11   -1    0    0    0    0 -0.00000000000E+00 -0.00000000000E+00 -0.18250000000E+03  0.18250000000E+03  0.00000000000E+00 0. -1.
        -11    1    1    2    0    0  0.12858993748E+01  0.26429689819E+01  0.18018057266E+03  0.18020454374E+03  0.00000000000E+00 0.  1.
         11    1    1    2    0    0  0.38045247620E+00  0.24361396430E+01 -0.17250718570E+03  0.17252480586E+03  0.00000000000E+00 0. -1.
        -15    1    1    2    0    0 -0.27712026393E+01 -0.12979606153E+01 -0.86965633585E-01  0.35397115487E+01  0.17770000000E+01 0. -1.
         15    1    1    2    0    0  0.11048507883E+01 -0.37811480097E+01 -0.75864213285E+01  0.87309388447E+01  0.17770000000E+01 0.  1.
</event>
<event>
 6    1  0.1764573E-002  0.1954634E+03  0.7546771E-02  0.1058580E+00
        -11   -1    0    0    0    0  0.00000000000E+00  0.00000000000E+00  0.18250000000E+03  0.18250000000E+03  0.00000000000E+00 0. -1.
         11   -1    0    0    0    0 -0.00000000000E+00 -0.00000000000E+00 -0.18250000000E+03  0.18250000000E+03  0.00000000000E+00 0. -1.
        -11    1    1    2    0    0  0.97006202476E+01  0.33190441087E+01  0.10573518403E+03  0.10623110293E+03  0.00000000000E+00 0. -1.
         11    1    1    2    0    0 -0.84040781027E+00 -0.52078370939E+01 -0.16945455501E+03  0.16953664520E+03  0.00000000000E+00 0. -1.
        -15    1    1    2    0    0  0.11071461824E+01  0.23774380789E+01 -0.12217665191E+02  0.12621689911E+02  0.17770000000E+01 0.  1.
         15    1    1    2    0    0 -0.99673586198E+01 -0.48864509366E+00  0.75937036170E+02  0.76610561955E+02  0.17770000000E+01 0. -1.
</event>
<event>
 6    1  0.1226227E-002  0.1711445E+03  0.7546771E-02  0.1077871E+00
        -11   -1    0    0    0    0  0.00000000000E+00  0.00000000000E+00  0.18250000000E+03  0.18250000000E+03  0.00000000000E+00 0.  1.
         11   -1    0    0    0    0 -0.00000000000E+00 -0.00000000000E+00 -0.18250000000E+03  0.18250000000E+03  0.00000000000E+00 0.  1.
        -11    1    1    2    0    0 -0.50286220368E+00  0.27445881242E+01  0.16929037740E+03  0.16931337075E+03  0.00000000000E+00 0.  1.
         11    1    1    2    0    0 -0.18168027082E+01  0.35540186188E+01 -0.17301570338E+03  0.17306173880E+03  0.00000000000E+00 0.  1.
        -15    1    1    2    0    0 -0.24920526697E+01 -0.13273850538E+02  0.29001843059E+01  0.13927463252E+02  0.17770000000E+01 0. -1.
         15    1    1    2    0    0  0.48117175816E+01  0.69752437951E+01  0.82514166947E+00  0.86974271978E+01  0.17770000000E+01 0.  1.
</event>
<event>
 6    1  0.1226227E-002  0.1864395E+03  0.7546771E-02  0.1065361E+00
        -11   -1    0    0    0    0  0.00000000000E+00  0.00000000000E+00  0.18250000000E+03  0.18250000000E+03  0.00000000000E+00 0. -1.
         11   -1    0    0    0    0 -0.00000000000E+00 -0.00000000000E+00 -0.18250000000E+03  0.18250000000E+03  0.00000000000E+00 0.  1.
        -11    1    1    2    0    0 -0.83018546909E+01  0.35030467312E+01  0.17403867009E+03  0.17427177286E+03  0.00000000000E+00 0. -1.
         11    1    1    2    0    0  0.19490734430E+01 -0.24914390048E+01 -0.17853244179E+03  0.17856046294E+03  0.00000000000E+00 0.  1.
        -15    1    1    2    0    0  0.94388224746E+00  0.78969761691E+00  0.56819557819E+01  0.60792175920E+01  0.17770000000E+01 0.  1.
         15    1    1    2    0    0  0.54088990004E+01 -0.18013053433E+01 -0.11881840863E+01  0.60885466048E+01  0.17770000000E+01 0. -1.
</event>
<event>
 6    1  0.1226227E-002  0.1835177E+03  0.7546771E-02  0.1067648E+00
        -11   -1    0    0    0    0  0.00000000000E+00  0.00000000000E+00  0.18250000000E+03  0.18250000000E+03  0.00000000000E+00 0. -1.
         11   -1    0    0    0    0 -0.00000000000E+00 -0.00000000000E+00 -0.18250000000E+03  0.18250000000E+03  0.00000000000E+00 0.  1.
        -11    1    1    2    0    0 -0.19779118477E+01  0.16201893664E+01  0.18146428597E+03  0.18148229730E+03  0.00000000000E+00 0. -1.
         11    1    1    2    0    0  0.26492874274E+01 -0.99920273902E+00 -0.17270918968E+03  0.17273239804E+03  0.00000000000E+00 0.  1.
        -15    1    1    2    0    0 -0.34550803642E-01 -0.14230554267E+01 -0.56993515694E+00  0.23470908778E+01  0.17770000000E+01 0. -1.
         15    1    1    2    0    0 -0.63682477607E+00  0.80206879933E+00 -0.81851611332E+01  0.84382137879E+01  0.17770000000E+01 0.  1.
</event>
<event>
 6    1  0.1226227E-002  0.1910127E+03  0.7546771E-02  0.1061874E+00
        -11   -1    0    0    0    0  0.00000000000E+00  0.00000000000E+00  0.18250000000E+03  0.18250000000E+03  0.00000000000E+00 0.  1.
         11   -1    0    0    0    0 -0.00000000000E+00 -0.00000000000E+00 -0.18250000000E+03  0.18250000000E+03  0.00000000000E+00 0.  1.
        -11    1    1    2    0    0  0.19833253938E+00 -0.29927878940E+01  0.17396144182E+03  0.17398729654E+03  0.00000000000E+00 0.  1.
         11    1    1    2    0    0 -0.52809730088E+01 -0.54199562375E+01 -0.15430455350E+03  0.15448999913E+03  0.00000000000E+00 0.  1.
        -15    1    1    2    0    0 -0.40252290942E+01  0.12670236155E+01  0.64494445953E+01  0.79095437726E+01  0.17770000000E+01 0. -1.
         15    1    1    2    0    0  0.91078695636E+01  0.71457205161E+01 -0.26106332920E+02  0.28613160560E+02  0.17770000000E+01 0.  1.
</event>
<event>
 6    1  0.1226227E-002  0.1829570E+03  0.7546771E-02  0.1068092E+00
        -11   -1    0    0    0    0  0.00000000000E+00  0.00000000000E+00  0.18250000000E+03  0.18250000000E+03  0.00000000000E+00 0. -1.
         11   -1    0    0    0    0 -0.00000000000E+00 -0.00000000000E+00 -0.18250000000E+03  0.18250000000E+03  0.00000000000E+00 0. -1.
        -11    1    1    2    0    0  0.15141525443E+01  0.97174362220E+00  0.12446925956E+03  0.12448226187E+03  0.00000000000E+00 0. -1.
         11    1    1    2    0    0  0.85034429815E+00  0.65593982685E+01 -0.18192278198E+03  0.18204298227E+03  0.00000000000E+00 0. -1.
        -15    1    1    2    0    0 -0.40290058798E+00 -0.60769466985E+01  0.22103183133E+02  0.22995652712E+02  0.17770000000E+01 0. -1.
         15    1    1    2    0    0 -0.19615962545E+01 -0.14541951922E+01  0.35350339284E+02  0.35479103145E+02  0.17770000000E+01 0. -1.
</event>
<event>
 6    1  0.1226227E-002  0.1598933E+03  0.7546771E-02  0.1088025E+00
        -11   -1    0    0    0    0  0.00000000000E+00  0.00000000000E+00  0.18250000000E+03  0.18250000000E+03  0.00000000000E+00 0. -1.
         11   -1    0    0    0    0 -0.00000000000E+00 -0.00000000000E+00 -0.18250000000E+03  0.18250000000E+03  0.00000000000E+00 0. -1.
        -11    1    1    2    0    0  0.17290306354E+02  0.16332644804E+02  0.16312193379E+03  0.16484682364E+03  0.00000000000E+00 0. -1.
         11    1    1    2    0    0  0.44683053566E+01  0.11999848635E+02 -0.15647459247E+03  0.15699764396E+03  0.00000000000E+00 0. -1.
        -15    1    1    2    0    0 -0.24213282740E+02 -0.29658476911E+02 -0.33330875860E+01  0.38473049211E+02  0.17770000000E+01 0.  1.
         15    1    1    2    0    0  0.24546710297E+01  0.13259834725E+01 -0.33142537309E+01  0.46824831901E+01  0.17770000000E+01 0. -1.
</event>
<event>
 6    1  0.1226227E-002  0.1696770E+03  0.7546771E-02  0.1079146E+00
        -11   -1    0    0    0    0  0.00000000000E+00  0.00000000000E+00  0.18250000000E+03  0.18250000000E+03  0.00000000000E+00 0.  1.
         11   -1    0    0    0    0 -0.00000000000E+00 -0.00000000000E+00 -0.18250000000E+03  0.18250000000E+03  0.00000000000E+00 0. -1.
        -11    1    1    2    0    0 -0.26283453138E+01  0.35480975796E+01  0.17270212117E+03  0.17275855942E+03  0.00000000000E+00 0.  1.
         11    1    1    2    0    0  0.52190833201E+01  0.81574262706E+01 -0.16658113788E+03  0.16686239220E+03  0.00000000000E+00 0. -1.
        -15    1    1    2    0    0  0.14653187701E+01 -0.99440472391E+01 -0.13298014669E+02  0.16763834816E+02  0.17770000000E+01 0.  1.
         15    1    1    2    0    0 -0.40560567763E+01 -0.17614766111E+01  0.71770313733E+01  0.86152135642E+01  0.17770000000E+01 0. -1.
</event>
<event>
 6    1  0.1226227E-002  0.1920480E+03  0.7546771E-02  0.1061099E+00
        -11   -1    0    0    0    0  0.00000000000E+00  0.00000000000E+00  0.18250000000E+03  0.18250000000E+03  0.00000000000E+00 0.  1.
         11   -1    0    0    0    0 -0.00000000000E+00 -0.00000000000E+00 -0.18250000000E+03  0.18250000000E+03  0.00000000000E+00 0. -1.
        -11    1    1    2    0    0  0.29119450827E+01 -0.99312522298E+00  0.16299507952E+03  0.16302411376E+03  0.00000000000E+00 0.  1.
         11    1    1    2    0    0 -0.36313019475E+01 -0.20203286189E+01 -0.17290211052E+03  0.17295203931E+03  0.00000000000E+00 0. -1.
        -15    1    1    2    0    0  0.46972816972E+01  0.15951748563E+01 -0.85298222293E+01  0.10026197406E+02  0.17770000000E+01 0. -1.
         15    1    1    2    0    0 -0.39779248324E+01  0.14182789856E+01  0.18436853227E+02  0.18997649517E+02  0.17770000000E+01 0. -1.
</event>
<event>
 6    1  0.1226227E-002  0.1828320E+03  0.7546771E-02  0.1068191E+00
        -11   -1    0    0    0    0  0.00000000000E+00  0.00000000000E+00  0.18250000000E+03  0.18250000000E+03  0.00000000000E+00 0.  1.
         11   -1    0    0    0    0 -0.00000000000E+00 -0.00000000000E+00 -0.18250000000E+03  0.18250000000E+03  0.00000000000E+00 0.  1.
        -11    1    1    2    0    0 -0.13443600645E+01  0.21952651424E+01  0.18214984691E+03  0.18216803567E+03  0.00000000000E+00 0.  1.
         11    1    1    2    0    0  0.97685354019E+00  0.25188456159E+01 -0.14144445604E+03  0.14147025472E+03  0.00000000000E+00 0.  1.
        -15    1    1    2    0    0  0.74996075785E+00 -0.12136118875E+01 -0.57596336948E+01  0.61940620154E+01  0.17770000000E+01 0.  1.
         15    1    1    2    0    0 -0.38245423355E+00 -0.35004988707E+01 -0.34945757169E+02  0.35167647585E+02  0.17770000000E+01 0. -1.
</event>
<event>
 6    1  0.1226227E-002  0.1829402E+03  0.7546771E-02  0.1068105E+00
        -11   -1    0    0    0    0  0.00000000000E+00  0.00000000000E+00  0.18250000000E+03  0.18250000000E+03  0.00000000000E+00 0.  1.
         11   -1    0    0    0    0 -0.00000000000E+00 -0.00000000000E+00 -0.18250000000E+03  0.18250000000E+03  0.00000000000E+00 0. -1.
        -11    1    1    2    0    0 -0.15647731738E+01  0.45660546697E+01  0.12721806657E+03  0.12730959836E+03  0.00000000000E+00 0.  1.
         11    1    1    2    0    0  0.21440993789E+01 -0.19303133094E+01 -0.18203691410E+03  0.18205977415E+03  0.00000000000E+00 0. -1.
        -15    1    1    2    0    0  0.11361157760E+01 -0.51019694641E+01  0.41348081491E+02  0.41715014365E+02  0.17770000000E+01 0. -1.
         15    1    1    2    0    0 -0.17154419811E+01  0.24662281038E+01  0.13470766029E+02  0.13915613126E+02  0.17770000000E+01 0. -1.
</event>
<event>
 6    1  0.1226227E-002  0.1828346E+03  0.7546771E-02  0.1068189E+00
        -11   -1    0    0    0    0  0.00000000000E+00  0.00000000000E+00  0.18250000000E+03  0.18250000000E+03  0.00000000000E+00 0.  1.
         11   -1    0    0    0    0 -0.00000000000E+00 -0.00000000000E+00 -0.18250000000E+03  0.18250000000E+03  0.00000000000E+00 0. -1.
        -11    1    1    2    0    0 -0.48162131936E+01  0.46091326966E+01  0.18204336196E+03  0.18216537994E+03  0.00000000000E+00 0.  1.
         11    1    1    2    0    0 -0.11297395658E+01  0.16088096998E+01 -0.92525607581E+02  0.92546489065E+02  0.00000000000E+00 0. -1.
        -15    1    1    2    0    0  0.15863376742E+01  0.12967395059E+01 -0.14847620992E+02  0.15093295819E+02  0.17770000000E+01 0.  1.
         15    1    1    2    0    0  0.43596150852E+01 -0.75146819023E+01 -0.74670133390E+02  0.75194835177E+02  0.17770000000E+01 0.  1.
</event>
<event>
 6    1  0.1226227E-002  0.1836786E+03  0.7546771E-02  0.1067520E+00
        -11   -1    0    0    0    0  0.00000000000E+00  0.00000000000E+00  0.18250000000E+03  0.18250000000E+03  0.00000000000E+00 0.  1.
         11   -1    0    0    0    0 -0.00000000000E+00 -0.00000000000E+00 -0.18250000000E+03  0.18250000000E+03  0.00000000000E+00 0.  1.
        -11    1    1    2    0    0 -0.18332285391E+00 -0.45545285815E+01  0.18126407189E+03  0.18132137517E+03  0.00000000000E+00 0.  1.
         11    1    1    2    0    0  0.13206882682E+01  0.47399609911E+01 -0.13411786430E+03  0.13420809578E+03  0.00000000000E+00 0.  1.
        -15    1    1    2    0    0  0.19748659694E+01  0.39329860988E+01 -0.40901142750E+02  0.41175595715E+02  0.17770000000E+01 0. -1.
         15    1    1    2    0    0 -0.31122313837E+01 -0.41184185085E+01 -0.62450648317E+01  0.82949333300E+01  0.17770000000E+01 0.  1.
</event>
<event>
 6    1  0.1226227E-002  0.1836469E+03  0.7546771E-02  0.1067546E+00
        -11   -1    0    0    0    0  0.00000000000E+00  0.00000000000E+00  0.18250000000E+03  0.18250000000E+03  0.00000000000E+00 0.  1.
         11   -1    0    0    0    0 -0.00000000000E+00 -0.00000000000E+00 -0.18250000000E+03  0.18250000000E+03  0.00000000000E+00 0.  1.
        -11    1    1    2    0    0 -0.19037899182E+01  0.12041799311E+01  0.10593976052E+03  0.10596370759E+03  0.00000000000E+00 0.  1.
         11    1    1    2    0    0  0.15926005347E+01  0.30841527623E+01 -0.18131989765E+03  0.18135311869E+03  0.00000000000E+00 0.  1.
        -15    1    1    2    0    0 -0.18424742474E+01 -0.62736043478E+01  0.73428200987E+02  0.73740160375E+02  0.17770000000E+01 0.  1.
         15    1    1    2    0    0  0.21536636309E+01  0.19852716544E+01  0.19519361397E+01  0.39430133490E+01  0.17770000000E+01 0. -1.
</event>
<event>
 6    1  0.1226227E-002  0.1842190E+03  0.7546771E-02  0.1067095E+00
        -11   -1    0    0    0    0  0.00000000000E+00  0.00000000000E+00  0.18250000000E+03  0.18250000000E+03  0.00000000000E+00 0. -1.
         11   -1    0    0    0    0 -0.00000000000E+00 -0.00000000000E+00 -0.18250000000E+03  0.18250000000E+03  0.00000000000E+00 0. -1.
        -11    1    1    2    0    0  0.53696550996E+01  0.40810735623E+01  0.16346662510E+03  0.16360570246E+03  0.00000000000E+00 0. -1.
         11    1    1    2    0    0  0.22833435613E+01 -0.55296922749E+01 -0.18068200700E+03  0.18078102446E+03  0.00000000000E+00 0. -1.
        -15    1    1    2    0    0 -0.49304259958E+01  0.59117032866E+00  0.31317852162E+01  0.61338723901E+01  0.17770000000E+01 0. -1.
         15    1    1    2    0    0 -0.27225726651E+01  0.85744838388E+00  0.14083596681E+02  0.14479400682E+02  0.17770000000E+01 0.  1.
</event>
<event>
 6    1  0.1226227E-002  0.1498209E+03  0.7546771E-02  0.1097925E+00
        -11   -1    0    0    0    0  0.00000000000E+00  0.00000000000E+00  0.18250000000E+03  0.18250000000E+03  0.00000000000E+00 0. -1.
         11   -1    0    0    0    0 -0.00000000000E+00 -0.00000000000E+00 -0.18250000000E+03  0.18250000000E+03  0.00000000000E+00 0. -1.
        -11    1    1    2    0    0  0.25415706419E+02 -0.47783717213E+01  0.14102548630E+03  0.14337705101E+03  0.00000000000E+00 0. -1.
         11    1    1    2    0    0 -0.28657327085E+01 -0.24935634824E+00 -0.15758367468E+03  0.15760992712E+03  0.00000000000E+00 0. -1.
        -15    1    1    2    0    0 -0.73767852799E+00 -0.24021308388E+02  0.13229888499E+02  0.27491000437E+02  0.17770000000E+01 0.  1.
         15    1    1    2    0    0 -0.21812295183E+02  0.29049036458E+02  0.33282998774E+01  0.36522021430E+02  0.17770000000E+01 0. -1.
</event>
<event>
 6    1  0.1226227E-002  0.1840659E+03  0.7546771E-02  0.1067215E+00
        -11   -1    0    0    0    0  0.00000000000E+00  0.00000000000E+00  0.18250000000E+03  0.18250000000E+03  0.00000000000E+00 0.  1.
         11   -1    0    0    0    0 -0.00000000000E+00 -0.00000000000E+00 -0.18250000000E+03  0.18250000000E+03  0.00000000000E+00 0.  1.
        -11    1    1    2    0    0 -0.11840684305E+02 -0.28032717560E+00  0.18054598188E+03  0.18093405418E+03  0.00000000000E+00 0.  1.
         11    1    1    2    0    0 -0.36403091655E+01  0.41601586765E+00 -0.11369128904E+03  0.11375031483E+03  0.00000000000E+00 0.  1.
        -15    1    1    2    0    0 -0.37051632108E-01  0.46737130860E+01 -0.10344523570E+02  0.11489641584E+02  0.17770000000E+01 0.  1.
         15    1    1    2    0    0  0.15518045102E+02 -0.48094017781E+01 -0.56510169273E+02  0.58825989406E+02  0.17770000000E+01 0. -1.
</event>
<event>
 6    1  0.1226227E-002  0.1874515E+03  0.7546771E-02  0.1064580E+00
        -11   -1    0    0    0    0  0.00000000000E+00  0.00000000000E+00  0.18250000000E+03  0.18250000000E+03  0.00000000000E+00 0. -1.
         11   -1    0    0    0    0 -0.00000000000E+00 -0.00000000000E+00 -0.18250000000E+03  0.18250000000E+03  0.00000000000E+00 0.  1.
        -11    1    1    2    0    0  0.26197062276E+01 -0.12211107524E+01  0.17752495403E+03  0.17754848148E+03  0.00000000000E+00 0. -1.
         11    1    1    2    0    0 -0.11961746463E+02 -0.18798187962E+01 -0.14025828231E+03  0.14077998030E+03  0.00000000000E+00 0.  1.
        -15    1    1    2    0    0 -0.30729113577E+01 -0.23899566670E+01  0.22610969064E+01  0.48399344317E+01  0.17770000000E+01 0.  1.
         15    1    1    2    0    0  0.12414951593E+02  0.54908862157E+01 -0.39527768628E+02  0.41831603796E+02  0.17770000000E+01 0. -1.
</event>
<event>
 6    1  0.1226227E-002  0.1803196E+03  0.7546771E-02  0.1070204E+00
        -11   -1    0    0    0    0  0.00000000000E+00  0.00000000000E+00  0.18250000000E+03  0.18250000000E+03  0.00000000000E+00 0.  1.
         11   -1    0    0    0    0 -0.00000000000E+00 -0.00000000000E+00 -0.18250000000E+03  0.18250000000E+03  0.00000000000E+00 0. -1.
        -11    1    1    2    0    0 -0.26067141089E+01 -0.40043560612E+01  0.17487808456E+03  0.17494334593E+03  0.00000000000E+00 0.  1.
         11    1    1    2    0    0  0.20561954277E+01 -0.39685611192E+01 -0.17053870640E+02  0.17629858786E+02  0.00000000000E+00 0. -1.
        -15    1    1    2    0    0  0.27172157788E+02  0.20246370631E+02 -0.48262519258E+02  0.58997204821E+02  0.17770000000E+01 0.  1.
         15    1    1    2    0    0 -0.26621639107E+02 -0.12273453451E+02 -0.10956169466E+03  0.11342959047E+03  0.17770000000E+01 0. -1.
</event>
<event>
 6    1  0.1226227E-002  0.1841715E+03  0.7546771E-02  0.1067132E+00
        -11   -1    0    0    0    0  0.00000000000E+00  0.00000000000E+00  0.18250000000E+03  0.18250000000E+03  0.00000000000E+00 0. -1.
         11   -1    0    0    0    0 -0.00000000000E+00 -0.00000000000E+00 -0.18250000000E+03  0.18250000000E+03  0.00000000000E+00 0.  1.
        -11    1    1    2    0    0  0.31242944220E-02 -0.40333472785E+01  0.18078353438E+03  0.18082852154E+03  0.00000000000E+00 0. -1.
         11    1    1    2    0    0  0.25311163858E+01  0.19921305153E+01 -0.16724825309E+03  0.16727926738E+03  0.00000000000E+00 0.  1.
        -15    1    1    2    0    0 -0.56399426149E+01  0.88346596132E+00 -0.10399142047E+02  0.11995388661E+02  0.17770000000E+01 0.  1.
         15    1    1    2    0    0  0.31057019348E+01  0.11577508019E+01 -0.31361392449E+01  0.48968224176E+01  0.17770000000E+01 0. -1.
</event>
<event>
 6    1  0.1226227E-002  0.1843599E+03  0.7546771E-02  0.1066984E+00
        -11   -1    0    0    0    0  0.00000000000E+00  0.00000000000E+00  0.18250000000E+03  0.18250000000E+03  0.00000000000E+00 0.  1.
         11   -1    0    0    0    0 -0.00000000000E+00 -0.00000000000E+00 -0.18250000000E+03  0.18250000000E+03  0.00000000000E+00 0.  1.
        -11    1    1    2    0    0 -0.10004172534E+02  0.68506269162E+00  0.18036160663E+03  0.18064014483E+03  0.00000000000E+00 0.  1.
         11    1    1    2    0    0 -0.35431018336E+01 -0.63661264905E+01 -0.11530696157E+03  0.11553690547E+03  0.00000000000E+00 0.  1.
        -15    1    1    2    0    0  0.12198189613E+02  0.55347331293E+01 -0.22757742193E+02  0.26466991884E+02  0.17770000000E+01 0.  1.
         15    1    1    2    0    0  0.13490847549E+01  0.14633066962E+00 -0.42296902860E+02  0.42355957820E+02  0.17770000000E+01 0. -1.
</event>
<event>
 6    1  0.1226227E-002  0.1885107E+03  0.7546771E-02  0.1063768E+00
        -11   -1    0    0    0    0  0.00000000000E+00  0.00000000000E+00  0.18250000000E+03  0.18250000000E+03  0.00000000000E+00 0. -1.
         11   -1    0    0    0    0 -0.00000000000E+00 -0.00000000000E+00 -0.18250000000E+03  0.18250000000E+03  0.00000000000E+00 0. -1.
        -11    1    1    2    0    0  0.39429813728E+01  0.16009001178E+01  0.12752858952E+03  0.12759957339E+03  0.00000000000E+00 0. -1.
         11    1    1    2    0    0 -0.89357294636E+01 -0.14131573449E+02 -0.17569554779E+03  0.17648930319E+03  0.00000000000E+00 0. -1.
        -15    1    1    2    0    0  0.65131970113E+01  0.16978671046E+02  0.72032315236E+01  0.19640297329E+02  0.17770000000E+01 0.  1.
         15    1    1    2    0    0 -0.15204489204E+01 -0.44479977147E+01  0.40963726743E+02  0.41270826091E+02  0.17770000000E+01 0. -1.
</event>
<event>
 6    1  0.1226227E-002  0.1833069E+03  0.7546771E-02  0.1067814E+00
        -11   -1    0    0    0    0  0.00000000000E+00  0.00000000000E+00  0.18250000000E+03  0.18250000000E+03  0.00000000000E+00 0. -1.
         11   -1    0    0    0    0 -0.00000000000E+00 -0.00000000000E+00 -0.18250000000E+03  0.18250000000E+03  0.00000000000E+00 0. -1.
        -11    1    1    2    0    0 -0.17263909399E+01  0.25984611800E+01  0.15612699041E+03  0.15615815560E+03  0.00000000000E+00 0. -1.
         11    1    1    2    0    0  0.30229758295E+01 -0.14225965521E+01 -0.18166237459E+03  0.18169309427E+03  0.00000000000E+00 0. -1.
        -15    1    1    2    0    0  0.17541930894E+00  0.22990647401E+01  0.20035987422E+02  0.20246357489E+02  0.17770000000E+01 0. -1.
         15    1    1    2    0    0 -0.14720041986E+01 -0.34749293680E+01  0.54993967549E+01  0.69023926388E+01  0.17770000000E+01 0.  1.
</event>
<event>
 6    1  0.1226227E-002  0.1776572E+03  0.7546771E-02  0.1072376E+00
        -11   -1    0    0    0    0  0.00000000000E+00  0.00000000000E+00  0.18250000000E+03  0.18250000000E+03  0.00000000000E+00 0. -1.
         11   -1    0    0    0    0 -0.00000000000E+00 -0.00000000000E+00 -0.18250000000E+03  0.18250000000E+03  0.00000000000E+00 0. -1.
        -11    1    1    2    0    0  0.20110165166E+01  0.15594572257E+01  0.17964265046E+03  0.17966067449E+03  0.00000000000E+00 0. -1.
         11    1    1    2    0    0 -0.97104299118E+00  0.55148043829E+01 -0.17565875638E+03  0.17574798629E+03  0.00000000000E+00 0. -1.
        -15    1    1    2    0    0 -0.11416344626E+01 -0.40862368933E+01 -0.40263609053E+01  0.61130984234E+01  0.17770000000E+01 0.  1.
         15    1    1    2    0    0  0.10166093721E+00 -0.29880247153E+01  0.42466822703E-01  0.34782408020E+01  0.17770000000E+01 0. -1.
</event>
<event>
 6    1  0.1226227E-002  0.1831075E+03  0.7546771E-02  0.1067972E+00
        -11   -1    0    0    0    0  0.00000000000E+00  0.00000000000E+00  0.18250000000E+03  0.18250000000E+03  0.00000000000E+00 0.  1.
         11   -1    0    0    0    0 -0.00000000000E+00 -0.00000000000E+00 -0.18250000000E+03  0.18250000000E+03  0.00000000000E+00 0.  1.
        -11    1    1    2    0    0  0.20615777591E+01  0.11776933699E+01  0.12025852620E+03  0.12028196119E+03  0.00000000000E+00 0.  1.
         11    1    1    2    0    0 -0.47234416199E+00  0.25640178694E+01 -0.18187377686E+03  0.18189246275E+03  0.00000000000E+00 0.  1.
        -15    1    1    2    0    0 -0.12170754448E+00  0.18338293192E+01  0.31821756628E+01  0.40818762411E+01  0.17770000000E+01 0. -1.
         15    1    1    2    0    0 -0.14675260527E+01 -0.55755405585E+01  0.58433075000E+02  0.58743699817E+02  0.17770000000E+01 0. -1.
</event>
<event>
 6    1  0.1226227E-002  0.1835438E+03  0.7546771E-02  0.1067627E+00
        -11   -1    0    0    0    0  0.00000000000E+00  0.00000000000E+00  0.18250000000E+03  0.18250000000E+03  0.00000000000E+00 0.  1.
         11   -1    0    0    0    0 -0.00000000000E+00 -0.00000000000E+00 -0.18250000000E+03  0.18250000000E+03  0.00000000000E+00 0.  1.
        -11    1    1    2    0    0 -0.54063024079E+01 -0.45978820301E+01  0.18131731887E+03  0.18145616206E+03  0.00000000000E+00 0.  1.
         11    1    1    2    0    0  0.15152978469E+01  0.10042085982E+01 -0.12565337614E+03  0.12566652497E+03  0.00000000000E+00 0.  1.
        -15    1    1    2    0    0  0.34575790722E+01  0.28806427540E+01 -0.55704003896E+02  0.55913743702E+02  0.17770000000E+01 0. -1.
         15    1    1    2    0    0  0.43342548883E+00  0.71303067800E+00  0.40061162047E-01  0.19635692753E+01  0.17770000000E+01 0.  1.
</event>
<event>
 6    1  0.1226227E-002  0.1926181E+03  0.7546771E-02  0.1060674E+00
        -11   -1    0    0    0    0  0.00000000000E+00  0.00000000000E+00  0.18250000000E+03  0.18250000000E+03  0.00000000000E+00 0.  1.
         11   -1    0    0    0    0 -0.00000000000E+00 -0.00000000000E+00 -0.18250000000E+03  0.18250000000E+03  0.00000000000E+00 0.  1.
        -11    1    1    2    0    0 -0.25855403841E+01 -0.11289016870E+01  0.17235881020E+03  0.17238189839E+03  0.00000000000E+00 0.  1.
         11    1    1    2    0    0  0.15966355176E+01 -0.16847909749E+01 -0.15987509453E+03  0.15989194356E+03  0.00000000000E+00 0.  1.
        -15    1    1    2    0    0  0.11043675599E+02 -0.43104883402E+00 -0.17596250709E+02  0.20855079522E+02  0.17770000000E+01 0.  1.
         15    1    1    2    0    0 -0.10054770733E+02  0.32447414959E+01  0.51125350384E+01  0.11871078526E+02  0.17770000000E+01 0. -1.
</event>
<event>
 6    1  0.1226227E-002  0.1851009E+03  0.7546771E-02  0.1066403E+00
        -11   -1    0    0    0    0  0.00000000000E+00  0.00000000000E+00  0.18250000000E+03  0.18250000000E+03  0.00000000000E+00 0.  1.
         11   -1    0    0    0    0 -0.00000000000E+00 -0.00000000000E+00 -0.18250000000E+03  0.18250000000E+03  0.00000000000E+00 0.  1.
        -11    1    1    2    0    0  0.59143308689E+01 -0.82775878101E+01  0.12520958867E+03  0.12562220689E+03  0.00000000000E+00 0.  1.
         11    1    1    2    0    0  0.14994230353E+01 -0.36027865364E+01 -0.17985681838E+03  0.17989914802E+03  0.00000000000E+00 0.  1.
        -15    1    1    2    0    0 -0.80093916472E+01  0.58394558431E+01  0.51384054578E+02  0.52361516336E+02  0.17770000000E+01 0.  1.
         15    1    1    2    0    0  0.59563774296E+00  0.60409185033E+01  0.32631751317E+01  0.71171287486E+01  0.17770000000E+01 0.  1.
</event>
<event>
 6    1  0.1226227E-002  0.1829122E+03  0.7546771E-02  0.1068127E+00
        -11   -1    0    0    0    0  0.00000000000E+00  0.00000000000E+00  0.18250000000E+03  0.18250000000E+03  0.00000000000E+00 0. -1.
         11   -1    0    0    0    0 -0.00000000000E+00 -0.00000000000E+00 -0.18250000000E+03  0.18250000000E+03  0.00000000000E+00 0.  1.
        -11    1    1    2    0    0  0.99359106662E-01  0.71406411609E+00  0.48899451673E+02  0.48904765961E+02  0.00000000000E+00 0. -1.
         11    1    1    2    0    0  0.52067997191E+01 -0.18338221789E+01 -0.18200409283E+03  0.18208779056E+03  0.00000000000E+00 0.  1.
        -15    1    1    2    0    0  0.34659853360E+01  0.37186093907E+01  0.71415641282E+02  0.71618382130E+02  0.17770000000E+01 0.  1.
         15    1    1    2    0    0 -0.87721441618E+01 -0.25988513279E+01  0.61688999870E+02  0.62389061344E+02  0.17770000000E+01 0. -1.
</event>
<event>
 6    1  0.1226227E-002  0.1672804E+03  0.7546771E-02  0.1081259E+00
        -11   -1    0    0    0    0  0.00000000000E+00  0.00000000000E+00  0.18250000000E+03  0.18250000000E+03  0.00000000000E+00 0.  1.
         11   -1    0    0    0    0 -0.00000000000E+00 -0.00000000000E+00 -0.18250000000E+03  0.18250000000E+03  0.00000000000E+00 0. -1.
        -11    1    1    2    0    0 -0.54177815889E+01  0.68464202407E+01  0.16817900165E+03  0.16840547029E+03  0.00000000000E+00 0.  1.
         11    1    1    2    0    0  0.45016242286E+01  0.86818164777E+01 -0.16623495713E+03  0.16652236946E+03  0.00000000000E+00 0. -1.
        -15    1    1    2    0    0  0.92824086116E+01 -0.12432396190E+02  0.71803276752E+01  0.17188438532E+02  0.17770000000E+01 0. -1.
         15    1    1    2    0    0 -0.83662512513E+01 -0.30958405288E+01 -0.91243721931E+01  0.12883721725E+02  0.17770000000E+01 0.  1.
</event>
<event>
 6    1  0.1226227E-002  0.1843275E+03  0.7546771E-02  0.1067009E+00
        -11   -1    0    0    0    0  0.00000000000E+00  0.00000000000E+00  0.18250000000E+03  0.18250000000E+03  0.00000000000E+00 0. -1.
         11   -1    0    0    0    0 -0.00000000000E+00 -0.00000000000E+00 -0.18250000000E+03  0.18250000000E+03  0.00000000000E+00 0. -1.
        -11    1    1    2    0    0  0.97093269193E+00 -0.40799113648E+01  0.16941401310E+03  0.16946591463E+03  0.00000000000E+00 0. -1.
         11    1    1    2    0    0  0.11772658163E+01 -0.24313046383E+01 -0.18065225532E+03  0.18067245100E+03  0.00000000000E+00 0. -1.
        -15    1    1    2    0    0 -0.12583184393E+01  0.55719368952E+01  0.11159786250E+02  0.12662085303E+02  0.17770000000E+01 0. -1.
         15    1    1    2    0    0 -0.88988006894E+00  0.93927910790E+00  0.78455976617E-01  0.21995490719E+01  0.17770000000E+01 0.  1.
</event>
<event>
 6    1  0.1226227E-002  0.1863411E+03  0.7546771E-02  0.1065438E+00
        -11   -1    0    0    0    0  0.00000000000E+00  0.00000000000E+00  0.18250000000E+03  0.18250000000E+03  0.00000000000E+00 0.  1.
         11   -1    0    0    0    0 -0.00000000000E+00 -0.00000000000E+00 -0.18250000000E+03  0.18250000000E+03  0.00000000000E+00 0.  1.
        -11    1    1    2    0    0  0.11167236903E+01  0.43741569485E+01  0.17860184819E+03  0.17865889425E+03  0.00000000000E+00 0.  1.
         11    1    1    2    0    0 -0.54782036096E+01 -0.13888276076E+01 -0.15679644833E+03  0.15689826566E+03  0.00000000000E+00 0.  1.
        -15    1    1    2    0    0  0.72503003763E+01  0.40067036577E+01 -0.19618655659E+02  0.21369836420E+02  0.17770000000E+01 0. -1.
         15    1    1    2    0    0 -0.28888204570E+01 -0.69920329987E+01 -0.21867441968E+01  0.80730036709E+01  0.17770000000E+01 0. -1.
</event>
<event>
 6    1  0.1226227E-002  0.1830692E+03  0.7546771E-02  0.1068003E+00
        -11   -1    0    0    0    0  0.00000000000E+00  0.00000000000E+00  0.18250000000E+03  0.18250000000E+03  0.00000000000E+00 0.  1.
         11   -1    0    0    0    0 -0.00000000000E+00 -0.00000000000E+00 -0.18250000000E+03  0.18250000000E+03  0.00000000000E+00 0. -1.
        -11    1    1    2    0    0  0.41435448862E+01 -0.23106927287E+01  0.18186893687E+03  0.18193080680E+03  0.00000000000E+00 0.  1.
         11    1    1    2    0    0 -0.38248500197E+01  0.27160813792E+00 -0.14483570692E+03  0.14488645640E+03  0.00000000000E+00 0. -1.
        -15    1    1    2    0    0 -0.32613862530E+01 -0.13433762699E+01 -0.23179702802E+02  0.23513775773E+02  0.17770000000E+01 0.  1.
         15    1    1    2    0    0  0.29426913865E+01  0.33824608607E+01 -0.13853527151E+02  0.14668961027E+02  0.17770000000E+01 0. -1.
</event>
<event>
 6    1  0.1226227E-002  0.1934480E+03  0.7546771E-02  0.1060059E+00
        -11   -1    0    0    0    0  0.00000000000E+00  0.00000000000E+00  0.18250000000E+03  0.18250000000E+03  0.00000000000E+00 0.  1.
         11   -1    0    0    0    0 -0.00000000000E+00 -0.00000000000E+00 -0.18250000000E+03  0.18250000000E+03  0.00000000000E+00 0. -1.
        -11    1    1    2    0    0  0.44673348280E+01 -0.38992463253E+01  0.17144951264E+03  0.17155202298E+03  0.00000000000E+00 0.  1.
         11    1    1    2    0    0 -0.93545217828E+00  0.42825478780E+01 -0.16852382416E+03  0.16858082511E+03  0.00000000000E+00 0. -1.
        -15    1    1    2    0    0  0.73779570482E+01 -0.19621815903E+01  0.65559328968E+01  0.10218727511E+02  0.17770000000E+01 0. -1.
         15    1    1    2    0    0 -0.10909839698E+02  0.15788800376E+01 -0.94816213816E+01  0.14648424401E+02  0.17770000000E+01 0.  1.
</event>
<event>
 6    1  0.1226227E-002  0.1899516E+03  0.7546771E-02  0.1062673E+00
        -11   -1    0    0    0    0  0.00000000000E+00  0.00000000000E+00  0.18250000000E+03  0.18250000000E+03  0.00000000000E+00 0. -1.
         11   -1    0    0    0    0 -0.00000000000E+00 -0.00000000000E+00 -0.18250000000E+03  0.18250000000E+03  0.00000000000E+00 0. -1.
        -11    1    1    2    0    0  0.87249633507E+01  0.19293707004E+02  0.12945701950E+03  0.13117733041E+03  0.00000000000E+00 0. -1.
         11    1    1    2    0    0 -0.61697456186E+00  0.58074052180E+01 -0.17495092469E+03  0.17504837235E+03  0.00000000000E+00 0. -1.
        -15    1    1    2    0    0 -0.54300901697E+01 -0.21485755412E+02  0.12656640533E+02  0.25582647311E+02  0.17770000000E+01 0. -1.
         15    1    1    2    0    0 -0.26778986191E+01 -0.36153568099E+01  0.32837264658E+02  0.33191649931E+02  0.17770000000E+01 0.  1.
</event>
<event>
 6    1  0.1226227E-002  0.1843205E+03  0.7546771E-02  0.1067015E+00
        -11   -1    0    0    0    0  0.00000000000E+00  0.00000000000E+00  0.18250000000E+03  0.18250000000E+03  0.00000000000E+00 0.  1.
         11   -1    0    0    0    0 -0.00000000000E+00 -0.00000000000E+00 -0.18250000000E+03  0.18250000000E+03  0.00000000000E+00 0.  1.
        -11    1    1    2    0    0 -0.12171193231E+01 -0.22043849037E+01  0.17250966814E+03  0.17252804495E+03  0.00000000000E+00 0.  1.
         11    1    1    2    0    0  0.39044381165E+01 -0.11400504176E+01 -0.18063370183E+03  0.18067949134E+03  0.00000000000E+00 0.  1.
        -15    1    1    2    0    0 -0.38231760986E+01  0.82234032019E+00  0.71888187723E+01  0.83743515227E+01  0.17770000000E+01 0.  1.
         15    1    1    2    0    0  0.11358573053E+01  0.25220950011E+01  0.93521492488E+00  0.34181121936E+01  0.17770000000E+01 0. -1.
</event>
<event>
 6    1  0.1226227E-002  0.1857177E+03  0.7546771E-02  0.1065922E+00
        -11   -1    0    0    0    0  0.00000000000E+00  0.00000000000E+00  0.18250000000E+03  0.18250000000E+03  0.00000000000E+00 0.  1.
         11   -1    0    0    0    0 -0.00000000000E+00 -0.00000000000E+00 -0.18250000000E+03  0.18250000000E+03  0.00000000000E+00 0. -1.
        -11    1    1    2    0    0  0.18664680402E+01 -0.22258769674E+01  0.17925873915E+03  0.17928227406E+03  0.00000000000E+00 0.  1.
         11    1    1    2    0    0  0.17935908244E+01  0.19864226868E+01 -0.17176996865E+03  0.17179081749E+03  0.00000000000E+00 0. -1.
        -15    1    1    2    0    0  0.67962704535E+00  0.30624458118E+01 -0.76435514088E+01  0.84511581698E+01  0.17770000000E+01 0.  1.
         15    1    1    2    0    0 -0.43396859099E+01 -0.28229915312E+01  0.15478091140E+00  0.54757502784E+01  0.17770000000E+01 0. -1.
</event>
<event>
 6    1  0.1226227E-002  0.1656267E+03  0.7546771E-02  0.1082740E+00
        -11   -1    0    0    0    0  0.00000000000E+00  0.00000000000E+00  0.18250000000E+03  0.18250000000E+03  0.00000000000E+00 0.  1.
         11   -1    0    0    0    0 -0.00000000000E+00 -0.00000000000E+00 -0.18250000000E+03  0.18250000000E+03  0.00000000000E+00 0. -1.
        -11    1    1    2    0    0  0.22012405074E+02  0.33678981875E+01  0.16768644852E+03  0.16915860526E+03  0.00000000000E+00 0.  1.
         11    1    1    2    0    0  0.23017604607E+01 -0.11724272409E+01 -0.16300576735E+03  0.16302623371E+03  0.00000000000E+00 0. -1.
        -15    1    1    2    0    0 -0.35744211685E+01 -0.57496507677E+00 -0.10410593883E+02  0.11164464409E+02  0.17770000000E+01 0.  1.
         15    1    1    2    0    0 -0.20739744366E+02 -0.16205058698E+01  0.57299127193E+01  0.21650696627E+02  0.17770000000E+01 0. -1.
</event>
<event>
 6    1  0.1226227E-002  0.1858057E+03  0.7546771E-02  0.1065853E+00
        -11   -1    0    0    0    0  0.00000000000E+00  0.00000000000E+00  0.18250000000E+03  0.18250000000E+03  0.00000000000E+00 0.  1.
         11   -1    0    0    0    0 -0.00000000000E+00 -0.00000000000E+00 -0.18250000000E+03  0.18250000000E+03  0.00000000000E+00 0. -1.
        -11    1    1    2    0    0  0.10951192967E+01 -0.13115997759E+01  0.84264579811E+02  0.84281901919E+02  0.00000000000E+00 0.  1.
         11    1    1    2    0    0 -0.93635722513E+01  0.19537370073E+02 -0.17787974111E+03  0.17919427338E+03  0.00000000000E+00 0. -1.
        -15    1    1    2    0    0  0.76923289970E+01 -0.18674664374E+02  0.96194295483E+02  0.98307757718E+02  0.17770000000E+01 0. -1.
         15    1    1    2    0    0  0.57612395759E+00  0.44889407674E+00 -0.25791341867E+01  0.32160669862E+01  0.17770000000E+01 0.  1.
</event>
<event>
 6    1  0.1226227E-002  0.1842456E+03  0.7546771E-02  0.1067074E+00
        -11   -1    0    0    0    0  0.00000000000E+00  0.00000000000E+00  0.18250000000E+03  0.18250000000E+03  0.00000000000E+00 0.  1.
         11   -1    0    0    0    0 -0.00000000000E+00 -0.00000000000E+00 -0.18250000000E+03  0.18250000000E+03  0.00000000000E+00 0.  1.
        -11    1    1    2    0    0 -0.92389740142E+00 -0.54600335831E+01  0.11404173328E+03  0.11417610294E+03  0.00000000000E+00 0.  1.
         11    1    1    2    0    0  0.28798346043E+01  0.17819919535E+00 -0.18073133187E+03  0.18075436239E+03  0.00000000000E+00 0.  1.
        -15    1    1    2    0    0 -0.24684698797E+01 -0.10599739857E+01  0.61717471334E+02  0.61801463455E+02  0.17770000000E+01 0.  1.
         15    1    1    2    0    0  0.51253267681E+00  0.63418083735E+01  0.49721272599E+01  0.82680712188E+01  0.17770000000E+01 0. -1.
</event>
<event>
 6    1  0.1226227E-002  0.1830066E+03  0.7546771E-02  0.1068052E+00
        -11   -1    0    0    0    0  0.00000000000E+00  0.00000000000E+00  0.18250000000E+03  0.18250000000E+03  0.00000000000E+00 0. -1.
         11   -1    0    0    0    0 -0.00000000000E+00 -0.00000000000E+00 -0.18250000000E+03  0.18250000000E+03  0.00000000000E+00 0. -1.
        -11    1    1    2    0    0  0.26531388453E+01  0.60951069556E+01  0.18187195147E+03  0.18199339605E+03  0.00000000000E+00 0. -1.
         11    1    1    2    0    0 -0.16289254721E+01  0.63996673101E+00 -0.12007000816E+03  0.12008276236E+03  0.00000000000E+00 0. -1.
        -15    1    1    2    0    0 -0.22498591409E+01  0.10944244111E+01 -0.27635975958E+02  0.27805836205E+02  0.17770000000E+01 0.  1.
         15    1    1    2    0    0  0.12256457677E+01 -0.78294980977E+01 -0.34165967352E+02  0.35118005383E+02  0.17770000000E+01 0. -1.
</event>
<event>
 6    1  0.1226227E-002  0.1832220E+03  0.7546771E-02  0.1067882E+00
        -11   -1    0    0    0    0  0.00000000000E+00  0.00000000000E+00  0.18250000000E+03  0.18250000000E+03  0.00000000000E+00 0.  1.
         11   -1    0    0    0    0 -0.00000000000E+00 -0.00000000000E+00 -0.18250000000E+03  0.18250000000E+03  0.00000000000E+00 0. -1.
        -11    1    1    2    0    0 -0.36902364577E+01 -0.67001074464E+01  0.68956346730E+02  0.69379298348E+02  0.00000000000E+00 0.  1.
         11    1    1    2    0    0  0.21745539302E+01 -0.19670447561E+01 -0.18175432934E+03  0.18177798047E+03  0.00000000000E+00 0. -1.
        -15    1    1    2    0    0  0.56883040865E+00  0.25132760788E+01  0.53395912363E+01  0.61894335971E+01  0.17770000000E+01 0. -1.
         15    1    1    2    0    0  0.94685211889E+00  0.61538761237E+01  0.10745839138E+03  0.10765328758E+03  0.17770000000E+01 0.  1.
</event>
<event>
 6    1  0.1226227E-002  0.1859894E+03  0.7546771E-02  0.1065711E+00
        -11   -1    0    0    0    0  0.00000000000E+00  0.00000000000E+00  0.18250000000E+03  0.18250000000E+03  0.00000000000E+00 0. -1.
         11   -1    0    0    0    0 -0.00000000000E+00 -0.00000000000E+00 -0.18250000000E+03  0.18250000000E+03  0.00000000000E+00 0. -1.
        -11    1    1    2    0    0  0.32924962626E+01  0.21616643890E+01  0.17896725822E+03  0.17901059421E+03  0.00000000000E+00 0. -1.
         11    1    1    2    0    0 -0.50895737330E+01 -0.75591967687E+01 -0.14558039785E+03  0.14586534015E+03  0.00000000000E+00 0. -1.
        -15    1    1    2    0    0  0.17627186169E+01  0.11635064734E+02 -0.31011855124E+02  0.33217085897E+02  0.17770000000E+01 0.  1.
         15    1    1    2    0    0  0.34358853540E-01 -0.62375323540E+01 -0.23750052386E+01  0.69069797511E+01  0.17770000000E+01 0. -1.
</event>
<event>
 6    1  0.1226227E-002  0.1885400E+03  0.7546771E-02  0.1063746E+00
        -11   -1    0    0    0    0  0.00000000000E+00  0.00000000000E+00  0.18250000000E+03  0.18250000000E+03  0.00000000000E+00 0. -1.
         11   -1    0    0    0    0 -0.00000000000E+00 -0.00000000000E+00 -0.18250000000E+03  0.18250000000E+03  0.00000000000E+00 0. -1.
        -11    1    1    2    0    0  0.33680821732E+01 -0.22917712824E+01  0.13382956578E+03  0.13389155638E+03  0.00000000000E+00 0. -1.
         11    1    1    2    0    0 -0.99442223531E+00 -0.25445708630E+01 -0.17643883908E+03  0.17645998882E+03  0.00000000000E+00 0. -1.
        -15    1    1    2    0    0 -0.23447754344E+01 -0.27322397445E+00  0.47357995847E+02  0.47450080324E+02  0.17770000000E+01 0.  1.
         15    1    1    2    0    0 -0.28884503456E-01  0.51095661199E+01 -0.47487225484E+01  0.71983744755E+01  0.17770000000E+01 0. -1.
</event>
<event>
 6    1  0.1226227E-002  0.1842508E+03  0.7546771E-02  0.1067070E+00
        -11   -1    0    0    0    0  0.00000000000E+00  0.00000000000E+00  0.18250000000E+03  0.18250000000E+03  0.00000000000E+00 0.  1.
         11   -1    0    0    0    0 -0.00000000000E+00 -0.00000000000E+00 -0.18250000000E+03  0.18250000000E+03  0.00000000000E+00 0. -1.
        -11    1    1    2    0    0  0.30632888449E+01 -0.10000617509E+02  0.18044634872E+03  0.18074922090E+03  0.00000000000E+00 0.  1.
         11    1    1    2    0    0  0.22248528963E+01  0.65459920973E+01 -0.13908000614E+03  0.13925174358E+03  0.00000000000E+00 0. -1.
        -15    1    1    2    0    0  0.28978756393E+01 -0.34393604789E+01 -0.24299190543E+02  0.24775699259E+02  0.17770000000E+01 0. -1.
         15    1    1    2    0    0 -0.81860173805E+01  0.68939858906E+01 -0.17067152033E+02  0.20223336261E+02  0.17770000000E+01 0.  1.
</event>
<event>
 6    1  0.1226227E-002  0.2100223E+03  0.7546771E-02  0.1048440E+00
        -11   -1    0    0    0    0  0.00000000000E+00  0.00000000000E+00  0.18250000000E+03  0.18250000000E+03  0.00000000000E+00 0.  1.
         11   -1    0    0    0    0 -0.00000000000E+00 -0.00000000000E+00 -0.18250000000E+03  0.18250000000E+03  0.00000000000E+00 0. -1.
        -11    1    1    2    0    0 -0.65179731398E+01  0.26823103025E+01  0.15481730972E+03  0.15497766984E+03  0.00000000000E+00 0.  1.
         11    1    1    2    0    0 -0.58139101766E+01 -0.53685460965E+01 -0.11960042170E+03  0.11986193603E+03  0.00000000000E+00 0. -1.
        -15    1    1    2    0    0 -0.24797857813E+02 -0.44568979400E+01  0.13362788057E+02  0.28574805774E+02  0.17770000000E+01 0.  1.
         15    1    1    2    0    0  0.37129741129E+02  0.71431337341E+01 -0.48579676076E+02  0.61585588351E+02  0.17770000000E+01 0. -1.
</event>
<event>
 6    1  0.1226227E-002  0.1879177E+03  0.7546771E-02  0.1064222E+00
        -11   -1    0    0    0    0  0.00000000000E+00  0.00000000000E+00  0.18250000000E+03  0.18250000000E+03  0.00000000000E+00 0. -1.
         11   -1    0    0    0    0 -0.00000000000E+00 -0.00000000000E+00 -0.18250000000E+03  0.18250000000E+03  0.00000000000E+00 0.  1.
        -11    1    1    2    0    0 -0.42457829163E+01  0.84542499574E+01  0.17682940743E+03  0.17708229823E+03  0.00000000000E+00 0. -1.
         11    1    1    2    0    0  0.63577293549E+00  0.39275926767E+01 -0.16858735473E+03  0.16863429772E+03  0.00000000000E+00 0.  1.
        -15    1    1    2    0    0  0.44936567328E+01 -0.80427266453E+00 -0.52112912417E+01  0.71522787108E+01  0.17770000000E+01 0.  1.
         15    1    1    2    0    0 -0.88364675197E+00 -0.11577569970E+02 -0.30307614546E+01  0.12131125338E+02  0.17770000000E+01 0. -1.
</event>
<event>
 6    1  0.1226227E-002  0.1857081E+03  0.7546771E-02  0.1065929E+00
        -11   -1    0    0    0    0  0.00000000000E+00  0.00000000000E+00  0.18250000000E+03  0.18250000000E+03  0.00000000000E+00 0. -1.
         11   -1    0    0    0    0 -0.00000000000E+00 -0.00000000000E+00 -0.18250000000E+03  0.18250000000E+03  0.00000000000E+00 0. -1.
        -11    1    1    2    0    0 -0.21212477826E+01  0.45784935720E+01  0.17922087989E+03  0.17929190190E+03  0.00000000000E+00 0. -1.
         11    1    1    2    0    0 -0.23742174447E+00  0.59064946784E+01 -0.16604682644E+03  0.16615201359E+03  0.00000000000E+00 0. -1.
        -15    1    1    2    0    0  0.20204808966E+01  0.53047099200E-01 -0.13627394616E+00  0.26947090078E+01  0.17770000000E+01 0. -1.
         15    1    1    2    0    0  0.33818863045E+00 -0.10538035350E+02 -0.13037779509E+02  0.16861375511E+02  0.17770000000E+01 0.  1.
</event>
<event>
 6    1  0.1226227E-002  0.1834259E+03  0.7546771E-02  0.1067720E+00
        -11   -1    0    0    0    0  0.00000000000E+00  0.00000000000E+00  0.18250000000E+03  0.18250000000E+03  0.00000000000E+00 0. -1.
         11   -1    0    0    0    0 -0.00000000000E+00 -0.00000000000E+00 -0.18250000000E+03  0.18250000000E+03  0.00000000000E+00 0.  1.
        -11    1    1    2    0    0  0.17683348030E+01 -0.34984770557E+01  0.18153183011E+03  0.18157414930E+03  0.00000000000E+00 0. -1.
         11    1    1    2    0    0  0.38760198575E+01  0.21686136061E+01 -0.15666884599E+03  0.15673178912E+03  0.00000000000E+00 0.  1.
        -15    1    1    2    0    0  0.11484422587E+01  0.99662914359E+00 -0.97461639860E+01  0.10022855417E+02  0.17770000000E+01 0.  1.
         15    1    1    2    0    0 -0.67927969191E+01  0.33323430600E+00 -0.15116820133E+02  0.16671206166E+02  0.17770000000E+01 0. -1.
</event>
<event>
 6    1  0.1226227E-002  0.1802585E+03  0.7546771E-02  0.1070253E+00
        -11   -1    0    0    0    0  0.00000000000E+00  0.00000000000E+00  0.18250000000E+03  0.18250000000E+03  0.00000000000E+00 0.  1.
         11   -1    0    0    0    0 -0.00000000000E+00 -0.00000000000E+00 -0.18250000000E+03  0.18250000000E+03  0.00000000000E+00 0. -1.
        -11    1    1    2    0    0  0.18254784166E+01 -0.53457288624E+01  0.18213088410E+03  0.18221846265E+03  0.00000000000E+00 0.  1.
         11    1    1    2    0    0  0.79181006790E+00  0.12493957572E+01 -0.45631608140E+01  0.47969145871E+01  0.00000000000E+00 0. -1.
        -15    1    1    2    0    0 -0.16572378366E+01 -0.34679722141E+01 -0.51346210486E+02  0.51520523375E+02  0.17770000000E+01 0.  1.
         15    1    1    2    0    0 -0.96005064791E+00  0.75643053192E+01 -0.12622151280E+03  0.12646409939E+03  0.17770000000E+01 0. -1.
</event>
<event>
 6    1  0.1226227E-002  0.1844958E+03  0.7546771E-02  0.1066877E+00
        -11   -1    0    0    0    0  0.00000000000E+00  0.00000000000E+00  0.18250000000E+03  0.18250000000E+03  0.00000000000E+00 0.  1.
         11   -1    0    0    0    0 -0.00000000000E+00 -0.00000000000E+00 -0.18250000000E+03  0.18250000000E+03  0.00000000000E+00 0.  1.
        -11    1    1    2    0    0  0.30857165549E+01 -0.15171375538E+01  0.18047147025E+03  0.18050422413E+03  0.00000000000E+00 0.  1.
         11    1    1    2    0    0 -0.12067989853E+01 -0.26610842251E+01 -0.17281697548E+03  0.17284167537E+03  0.00000000000E+00 0.  1.
        -15    1    1    2    0    0 -0.35030832926E+01  0.41768434607E+01 -0.31384462551E+01  0.65364506994E+01  0.17770000000E+01 0.  1.
         15    1    1    2    0    0  0.16241657229E+01  0.13783182428E-02 -0.45160485236E+01  0.51176497988E+01  0.17770000000E+01 0.  1.
</event>
<event>
 6    1  0.1226227E-002  0.1830355E+03  0.7546771E-02  0.1068029E+00
        -11   -1    0    0    0    0  0.00000000000E+00  0.00000000000E+00  0.18250000000E+03  0.18250000000E+03  0.00000000000E+00 0. -1.
         11   -1    0    0    0    0 -0.00000000000E+00 -0.00000000000E+00 -0.18250000000E+03  0.18250000000E+03  0.00000000000E+00 0.  1.
        -11    1    1    2    0    0 -0.16965518590E+01 -0.17767464669E+01  0.18194792310E+03  0.18196450708E+03  0.00000000000E+00 0. -1.
         11    1    1    2    0    0 -0.25843542451E+01  0.16717108963E+01 -0.15107979802E+03  0.15111114742E+03  0.00000000000E+00 0.  1.
        -15    1    1    2    0    0 -0.88397358720E+00  0.95777867240E+00 -0.14028114270E+02  0.14200157332E+02  0.17770000000E+01 0.  1.
         15    1    1    2    0    0  0.51648796913E+01 -0.85274310180E+00 -0.16840010808E+02  0.17724188163E+02  0.17770000000E+01 0. -1.
</event>
<event>
 6    1  0.1226227E-002  0.1849678E+03  0.7546771E-02  0.1066507E+00
        -11   -1    0    0    0    0  0.00000000000E+00  0.00000000000E+00  0.18250000000E+03  0.18250000000E+03  0.00000000000E+00 0.  1.
         11   -1    0    0    0    0 -0.00000000000E+00 -0.00000000000E+00 -0.18250000000E+03  0.18250000000E+03  0.00000000000E+00 0. -1.
        -11    1    1    2    0    0  0.48733320039E+01 -0.17510668798E+01  0.17995768983E+03  0.18003217970E+03  0.00000000000E+00 0.  1.
         11    1    1    2    0    0  0.25952640130E+01 -0.87111320146E-01 -0.15048277263E+03  0.15050517547E+03  0.00000000000E+00 0. -1.
        -15    1    1    2    0    0  0.30887204688E+01 -0.42120924602E+01 -0.10267475014E+02  0.11655929358E+02  0.17770000000E+01 0. -1.
         15    1    1    2    0    0 -0.10557316486E+02  0.60502706601E+01 -0.19207442184E+02  0.22806715474E+02  0.17770000000E+01 0. -1.
</event>
<event>
 6    1  0.1226227E-002  0.1896647E+03  0.7546771E-02  0.1062891E+00
        -11   -1    0    0    0    0  0.00000000000E+00  0.00000000000E+00  0.18250000000E+03  0.18250000000E+03  0.00000000000E+00 0.  1.
         11   -1    0    0    0    0 -0.00000000000E+00 -0.00000000000E+00 -0.18250000000E+03  0.18250000000E+03  0.00000000000E+00 0. -1.
        -11    1    1    2    0    0  0.46267453262E+00  0.40676636635E+01  0.73707131646E+02  0.73820736998E+02  0.00000000000E+00 0.  1.
         11    1    1    2    0    0  0.21572225604E+01 -0.30977846266E+01 -0.17529468120E+03  0.17533532199E+03  0.00000000000E+00 0. -1.
        -15    1    1    2    0    0  0.47122318875E+01  0.63572525718E+01 -0.44738199014E+01  0.92624285765E+01  0.17770000000E+01 0. -1.
         15    1    1    2    0    0 -0.73321289805E+01 -0.73271316087E+01  0.10606136946E+03  0.10658151244E+03  0.17770000000E+01 0.  1.
</event>
<event>
 6    1  0.1226227E-002  0.1827387E+03  0.7546771E-02  0.1068265E+00
        -11   -1    0    0    0    0  0.00000000000E+00  0.00000000000E+00  0.18250000000E+03  0.18250000000E+03  0.00000000000E+00 0. -1.
         11   -1    0    0    0    0 -0.00000000000E+00 -0.00000000000E+00 -0.18250000000E+03  0.18250000000E+03  0.00000000000E+00 0. -1.
        -11    1    1    2    0    0  0.60176079014E+00 -0.51331934284E+01  0.18218802810E+03  0.18226132166E+03  0.00000000000E+00 0. -1.
         11    1    1    2    0    0 -0.86071259310E+00  0.16479290732E+01 -0.12688230045E+03  0.12689592060E+03  0.00000000000E+00 0. -1.
        -15    1    1    2    0    0 -0.20757309542E+01  0.31103318673E+01 -0.20644055610E+02  0.21055108272E+02  0.17770000000E+01 0. -1.
         15    1    1    2    0    0  0.23346827571E+01  0.37493248794E+00 -0.34661672037E+02  0.34787649466E+02  0.17770000000E+01 0.  1.
</event>
<event>
 6    1  0.1226227E-002  0.1576339E+03  0.7546771E-02  0.1090175E+00
        -11   -1    0    0    0    0  0.00000000000E+00  0.00000000000E+00  0.18250000000E+03  0.18250000000E+03  0.00000000000E+00 0.  1.
         11   -1    0    0    0    0 -0.00000000000E+00 -0.00000000000E+00 -0.18250000000E+03  0.18250000000E+03  0.00000000000E+00 0.  1.
        -11    1    1    2    0    0 -0.12456754513E+01  0.68884431201E+01  0.15703049087E+03  0.15718644159E+03  0.00000000000E+00 0.  1.
         11    1    1    2    0    0  0.97160408950E+00  0.18236304277E+02 -0.15803086291E+03  0.15908255856E+03  0.00000000000E+00 0.  1.
        -15    1    1    2    0    0 -0.17078630160E+02 -0.10627837798E+01  0.67136476340E+01  0.18467265934E+02  0.17770000000E+01 0. -1.
         15    1    1    2    0    0  0.17352701522E+02 -0.24061963617E+02 -0.57132756010E+01  0.30263733912E+02  0.17770000000E+01 0.  1.
</event>
<event>
 6    1  0.1226227E-002  0.1891434E+03  0.7546771E-02  0.1063286E+00
        -11   -1    0    0    0    0  0.00000000000E+00  0.00000000000E+00  0.18250000000E+03  0.18250000000E+03  0.00000000000E+00 0. -1.
         11   -1    0    0    0    0 -0.00000000000E+00 -0.00000000000E+00 -0.18250000000E+03  0.18250000000E+03  0.00000000000E+00 0. -1.
        -11    1    1    2    0    0 -0.16879741286E+01 -0.50082968048E+01  0.17577717262E+03  0.17585660837E+03  0.00000000000E+00 0. -1.
         11    1    1    2    0    0 -0.70831132965E+01 -0.26629544138E+01 -0.14047365386E+03  0.14067732315E+03  0.00000000000E+00 0. -1.
        -15    1    1    2    0    0  0.76105529851E+01 -0.10885133402E+02 -0.87582495292E+01  0.16008476184E+02  0.17770000000E+01 0.  1.
         15    1    1    2    0    0  0.11605344401E+01  0.18556384621E+02 -0.26545269227E+02  0.32457592297E+02  0.17770000000E+01 0. -1.
</event>
<event>
 6    1  0.1226227E-002  0.1848891E+03  0.7546771E-02  0.1066569E+00
        -11   -1    0    0    0    0  0.00000000000E+00  0.00000000000E+00  0.18250000000E+03  0.18250000000E+03  0.00000000000E+00 0.  1.
         11   -1    0    0    0    0 -0.00000000000E+00 -0.00000000000E+00 -0.18250000000E+03  0.18250000000E+03  0.00000000000E+00 0.  1.
        -11    1    1    2    0    0 -0.25955294546E+01  0.29476297512E+01  0.18006810277E+03  0.18011092951E+03  0.00000000000E+00 0.  1.
         11    1    1    2    0    0  0.17060083164E+01 -0.40204443704E+01 -0.17706501665E+03  0.17711887126E+03  0.00000000000E+00 0.  1.
        -15    1    1    2    0    0  0.14982288798E+01  0.17127402104E+01  0.11965662010E+01  0.31253269393E+01  0.17770000000E+01 0.  1.
         15    1    1    2    0    0 -0.60870774155E+00 -0.63992559123E+00 -0.41996523270E+01  0.46448722851E+01  0.17770000000E+01 0. -1.
</event>
<event>
 6    1  0.4103395E-002  0.1923413E+03  0.7546771E-02  0.1060880E+00
        -11   -1    0    0    0    0  0.00000000000E+00  0.00000000000E+00  0.18250000000E+03  0.18250000000E+03  0.00000000000E+00 0.  1.
         11   -1    0    0    0    0 -0.00000000000E+00 -0.00000000000E+00 -0.18250000000E+03  0.18250000000E+03  0.00000000000E+00 0.  1.
        -11    1    1    2    0    0 -0.16903921744E+00 -0.98990439792E+00  0.43428670528E+02  0.43440279796E+02  0.00000000000E+00 0.  1.
         11    1    1    2    0    0  0.13684402100E+02  0.50085391577E+01 -0.17204269676E+03  0.17265873228E+03  0.00000000000E+00 0.  1.
        -15    1    1    2    0    0 -0.14887459277E+02 -0.50150493807E+01 -0.39649540974E+01  0.16299256241E+02  0.17770000000E+01 0.  1.
         15    1    1    2    0    0  0.13720963941E+01  0.99641462098E+00  0.13257898033E+03  0.13260173168E+03  0.17770000000E+01 0.  1.
</event>
<event>
 6    1  0.1226227E-002  0.1868816E+03  0.7546771E-02  0.1065020E+00
        -11   -1    0    0    0    0  0.00000000000E+00  0.00000000000E+00  0.18250000000E+03  0.18250000000E+03  0.00000000000E+00 0. -1.
         11   -1    0    0    0    0 -0.00000000000E+00 -0.00000000000E+00 -0.18250000000E+03  0.18250000000E+03  0.00000000000E+00 0. -1.
        -11    1    1    2    0    0  0.11102913936E+01  0.22863395603E+01  0.17810026280E+03  0.17811839800E+03  0.00000000000E+00 0. -1.
         11    1    1    2    0    0 -0.50464182379E+00 -0.24458669209E+01 -0.17348744131E+03  0.17350541554E+03  0.00000000000E+00 0. -1.
        -15    1    1    2    0    0 -0.36486092475E+00 -0.43660924152E+01  0.20260967898E+01  0.51438005088E+01  0.17770000000E+01 0. -1.
         15    1    1    2    0    0 -0.24078864505E+00  0.45256197758E+01 -0.66389182796E+01  0.82323859512E+01  0.17770000000E+01 0.  1.
</event>
<event>
 6    1  0.1226227E-002  0.1859341E+03  0.7546771E-02  0.1065754E+00
        -11   -1    0    0    0    0  0.00000000000E+00  0.00000000000E+00  0.18250000000E+03  0.18250000000E+03  0.00000000000E+00 0. -1.
         11   -1    0    0    0    0 -0.00000000000E+00 -0.00000000000E+00 -0.18250000000E+03  0.18250000000E+03  0.00000000000E+00 0.  1.
        -11    1    1    2    0    0 -0.16904387288E+01  0.30668408923E+01  0.16329695198E+03  0.16333449612E+03  0.00000000000E+00 0. -1.
         11    1    1    2    0    0  0.25153439576E+01  0.82517949971E+00 -0.17904630308E+03  0.17906587203E+03  0.00000000000E+00 0.  1.
        -15    1    1    2    0    0  0.36391275777E+01 -0.42811975753E+00  0.16157127069E+02  0.16662443404E+02  0.17770000000E+01 0.  1.
         15    1    1    2    0    0 -0.44640328065E+01 -0.34639006345E+01 -0.40777596193E+00  0.59371884540E+01  0.17770000000E+01 0.  1.
</event>
<event>
 6    1  0.1226227E-002  0.1829005E+03  0.7546771E-02  0.1068136E+00
        -11   -1    0    0    0    0  0.00000000000E+00  0.00000000000E+00  0.18250000000E+03  0.18250000000E+03  0.00000000000E+00 0.  1.
         11   -1    0    0    0    0 -0.00000000000E+00 -0.00000000000E+00 -0.18250000000E+03  0.18250000000E+03  0.00000000000E+00 0.  1.
        -11    1    1    2    0    0  0.78432426368E+01 -0.32464087031E+01  0.18190157868E+03  0.18209953309E+03  0.00000000000E+00 0.  1.
         11    1    1    2    0    0 -0.16060157952E-01  0.16079439267E+01 -0.52923929572E+02  0.52948352788E+02  0.00000000000E+00 0.  1.
        -15    1    1    2    0    0 -0.49773860114E+01  0.14596328169E+01 -0.15796476605E+02  0.16720983870E+02  0.17770000000E+01 0. -1.
         15    1    1    2    0    0 -0.28497964674E+01  0.17883195952E+00 -0.11318117250E+03  0.11323113025E+03  0.17770000000E+01 0.  1.
</event>
<event>
 6    1  0.1226227E-002  0.1879955E+03  0.7546771E-02  0.1064163E+00
        -11   -1    0    0    0    0  0.00000000000E+00  0.00000000000E+00  0.18250000000E+03  0.18250000000E+03  0.00000000000E+00 0.  1.
         11   -1    0    0    0    0 -0.00000000000E+00 -0.00000000000E+00 -0.18250000000E+03  0.18250000000E+03  0.00000000000E+00 0. -1.
        -11    1    1    2    0    0 -0.22475714010E+01 -0.12147697395E+01  0.17698605915E+03  0.17700449818E+03  0.00000000000E+00 0.  1.
         11    1    1    2    0    0  0.21702600709E+01 -0.32328934419E+01 -0.16498967160E+03  0.16503561241E+03  0.00000000000E+00 0. -1.
        -15    1    1    2    0    0 -0.30826872485E+01  0.55815276537E+00 -0.15938790791E+02  0.16340663269E+02  0.17770000000E+01 0. -1.
         15    1    1    2    0    0  0.31599985785E+01  0.38895104160E+01  0.39424032415E+01  0.66192261339E+01  0.17770000000E+01 0.  1.
</event>
<event>
 6    1  0.1226227E-002  0.1742597E+03  0.7546771E-02  0.1075210E+00
        -11   -1    0    0    0    0  0.00000000000E+00  0.00000000000E+00  0.18250000000E+03  0.18250000000E+03  0.00000000000E+00 0.  1.
         11   -1    0    0    0    0 -0.00000000000E+00 -0.00000000000E+00 -0.18250000000E+03  0.18250000000E+03  0.00000000000E+00 0.  1.
        -11    1    1    2    0    0  0.38974504661E+01 -0.17428749477E+01  0.17336894285E+03  0.17342150408E+03  0.00000000000E+00 0.  1.
         11    1    1    2    0    0  0.61958444535E+01 -0.54272796684E+01 -0.17512856885E+03  0.17532215912E+03  0.00000000000E+00 0.  1.
        -15    1    1    2    0    0  0.16331977564E+01  0.10372534128E+01 -0.60663012312E+00  0.26961006399E+01  0.17770000000E+01 0.  1.
         15    1    1    2    0    0 -0.11726492676E+02  0.61329012033E+01  0.23662561251E+01  0.13560236159E+02  0.17770000000E+01 0.  1.
</event>
<event>
 6    1  0.1226227E-002  0.1826909E+03  0.7546771E-02  0.1068303E+00
        -11   -1    0    0    0    0  0.00000000000E+00  0.00000000000E+00  0.18250000000E+03  0.18250000000E+03  0.00000000000E+00 0. -1.
         11   -1    0    0    0    0 -0.00000000000E+00 -0.00000000000E+00 -0.18250000000E+03  0.18250000000E+03  0.00000000000E+00 0.  1.
        -11    1    1    2    0    0 -0.57060360008E+00  0.22979180340E+01  0.53631710978E+02  0.53683949540E+02  0.00000000000E+00 0. -1.
         11    1    1    2    0    0  0.45618369393E+01 -0.52232948365E+01 -0.18217711183E+03  0.18230905968E+03  0.00000000000E+00 0.  1.
        -15    1    1    2    0    0 -0.48410341524E+01 -0.20403891049E+01  0.62050372083E+02  0.62297714276E+02  0.17770000000E+01 0. -1.
         15    1    1    2    0    0  0.84980081316E+00  0.49657659073E+01  0.66495028768E+02  0.66709276508E+02  0.17770000000E+01 0.  1.
</event>
<event>
 6    1  0.1226227E-002  0.1854609E+03  0.7546771E-02  0.1066122E+00
        -11   -1    0    0    0    0  0.00000000000E+00  0.00000000000E+00  0.18250000000E+03  0.18250000000E+03  0.00000000000E+00 0. -1.
         11   -1    0    0    0    0 -0.00000000000E+00 -0.00000000000E+00 -0.18250000000E+03  0.18250000000E+03  0.00000000000E+00 0.  1.
        -11    1    1    2    0    0  0.39487993695E+01 -0.22075925000E+01  0.16652737810E+03  0.16658881757E+03  0.00000000000E+00 0. -1.
         11    1    1    2    0    0  0.19521335041E+01  0.23760458454E+01 -0.17951273764E+03  0.17953907484E+03  0.00000000000E+00 0.  1.
        -15    1    1    2    0    0 -0.92596436515E+00  0.92533406522E+00 -0.19793489775E+01  0.29646592574E+01  0.17770000000E+01 0.  1.
         15    1    1    2    0    0 -0.49749685084E+01 -0.10937874107E+01  0.14964708518E+02  0.15907448337E+02  0.17770000000E+01 0. -1.
</event>
<event>
 6    1  0.1226227E-002  0.1776759E+03  0.7546771E-02  0.1072361E+00
        -11   -1    0    0    0    0  0.00000000000E+00  0.00000000000E+00  0.18250000000E+03  0.18250000000E+03  0.00000000000E+00 0. -1.
         11   -1    0    0    0    0 -0.00000000000E+00 -0.00000000000E+00 -0.18250000000E+03  0.18250000000E+03  0.00000000000E+00 0.  1.
        -11    1    1    2    0    0 -0.15789198361E+01  0.32256100048E+01  0.17961137207E+03  0.17964727252E+03  0.00000000000E+00 0. -1.
         11    1    1    2    0    0 -0.11764923618E+01  0.40334557195E+01 -0.17575996475E+03  0.17581017635E+03  0.00000000000E+00 0.  1.
        -15    1    1    2    0    0  0.30031069304E+00 -0.27902823970E+01 -0.16846672407E+01  0.37244724565E+01  0.17770000000E+01 0.  1.
         15    1    1    2    0    0  0.24551015048E+01 -0.44687833273E+01 -0.21667400813E+01  0.58180786696E+01  0.17770000000E+01 0. -1.
</event>
<event>
 6    1  0.1226227E-002  0.1832765E+03  0.7546771E-02  0.1067838E+00
        -11   -1    0    0    0    0  0.00000000000E+00  0.00000000000E+00  0.18250000000E+03  0.18250000000E+03  0.00000000000E+00 0. -1.
         11   -1    0    0    0    0 -0.00000000000E+00 -0.00000000000E+00 -0.18250000000E+03  0.18250000000E+03  0.00000000000E+00 0.  1.
        -11    1    1    2    0    0  0.56507401058E+01  0.91747180980E+00  0.18163332019E+03  0.18172351422E+03  0.00000000000E+00 0. -1.
         11    1    1    2    0    0 -0.31081429343E+00  0.70500071768E+00 -0.49552270253E+02  0.49558259844E+02  0.00000000000E+00 0.  1.
        -15    1    1    2    0    0 -0.48154338040E+01  0.31504629566E+01 -0.11097621174E+02  0.12626509585E+02  0.17770000000E+01 0. -1.
         15    1    1    2    0    0 -0.52449200839E+00 -0.47729354840E+01 -0.12098342876E+03  0.12109171635E+03  0.17770000000E+01 0.  1.
</event>
<event>
 6    1  0.1226227E-002  0.1875089E+03  0.7546771E-02  0.1064536E+00
        -11   -1    0    0    0    0  0.00000000000E+00  0.00000000000E+00  0.18250000000E+03  0.18250000000E+03  0.00000000000E+00 0. -1.
         11   -1    0    0    0    0 -0.00000000000E+00 -0.00000000000E+00 -0.18250000000E+03  0.18250000000E+03  0.00000000000E+00 0.  1.
        -11    1    1    2    0    0 -0.11784408005E+01 -0.31099669537E+01  0.17745994687E+03  0.17749110784E+03  0.00000000000E+00 0. -1.
         11    1    1    2    0    0 -0.30174914315E+01  0.11896490334E+01 -0.17208147784E+03  0.17211204355E+03  0.00000000000E+00 0.  1.
        -15    1    1    2    0    0  0.30725580193E+01  0.42737255988E+00 -0.97148476337E+01  0.10351775386E+02  0.17770000000E+01 0.  1.
         15    1    1    2    0    0  0.11233742126E+01  0.14929453603E+01  0.43363786017E+01  0.50450732252E+01  0.17770000000E+01 0. -1.
</event>
<event>
 6    1  0.1226227E-002  0.1753413E+03  0.7546771E-02  0.1074300E+00
        -11   -1    0    0    0    0  0.00000000000E+00  0.00000000000E+00  0.18250000000E+03  0.18250000000E+03  0.00000000000E+00 0. -1.
         11   -1    0    0    0    0 -0.00000000000E+00 -0.00000000000E+00 -0.18250000000E+03  0.18250000000E+03  0.00000000000E+00 0.  1.
        -11    1    1    2    0    0 -0.26877879917E+01 -0.53590642824E+01  0.17316773918E+03  0.17327149121E+03  0.00000000000E+00 0. -1.
         11    1    1    2    0    0  0.73413616922E+00 -0.45729586089E+01 -0.17752375481E+03  0.17758416154E+03  0.00000000000E+00 0.  1.
        -15    1    1    2    0    0  0.14681387822E+01  0.23966356516E+01  0.53750046475E+01  0.63204191230E+01  0.17770000000E+01 0. -1.
         15    1    1    2    0    0  0.48551304024E+00  0.75353872397E+01 -0.10189890128E+01  0.78239281293E+01  0.17770000000E+01 0.  1.
</event>
<event>
 6    1  0.1226227E-002  0.1830600E+03  0.7546771E-02  0.1068010E+00
        -11   -1    0    0    0    0  0.00000000000E+00  0.00000000000E+00  0.18250000000E+03  0.18250000000E+03  0.00000000000E+00 0. -1.
         11   -1    0    0    0    0 -0.00000000000E+00 -0.00000000000E+00 -0.18250000000E+03  0.18250000000E+03  0.00000000000E+00 0. -1.
        -11    1    1    2    0    0  0.96377266638E+00  0.36110853961E+01  0.85146686369E+02  0.85228674723E+02  0.00000000000E+00 0. -1.
         11    1    1    2    0    0 -0.10055295247E+01 -0.32404165828E+01 -0.18190840280E+03  0.18194004067E+03  0.00000000000E+00 0. -1.
        -15    1    1    2    0    0  0.42242101049E+01  0.44368733951E+01  0.26417039546E+02  0.27176230494E+02  0.17770000000E+01 0.  1.
         15    1    1    2    0    0 -0.41824532466E+01 -0.48075422085E+01  0.70344676884E+02  0.70655054116E+02  0.17770000000E+01 0. -1.
</event>
<event>
 6    1  0.1226227E-002  0.1737641E+03  0.7546771E-02  0.1075629E+00
        -11   -1    0    0    0    0  0.00000000000E+00  0.00000000000E+00  0.18250000000E+03  0.18250000000E+03  0.00000000000E+00 0. -1.
         11   -1    0    0    0    0 -0.00000000000E+00 -0.00000000000E+00 -0.18250000000E+03  0.18250000000E+03  0.00000000000E+00 0.  1.
        -11    1    1    2    0    0  0.24556143642E+01  0.63577401760E+01  0.17095694165E+03  0.17109274327E+03  0.00000000000E+00 0. -1.
         11    1    1    2    0    0  0.18141435516E+01  0.17021032977E+01 -0.17658305942E+03  0.17660058082E+03  0.00000000000E+00 0.  1.
        -15    1    1    2    0    0  0.16032449948E+01  0.28505801372E+01  0.40535284355E+00  0.37440942242E+01  0.17770000000E+01 0.  1.
         15    1    1    2    0    0 -0.58730029106E+01 -0.10910423611E+02  0.52207649267E+01  0.13562581686E+02  0.17770000000E+01 0.  1.
</event>
<event>
 6    1  0.1226227E-002  0.1830253E+03  0.7546771E-02  0.1068037E+00
        -11   -1    0    0    0    0  0.00000000000E+00  0.00000000000E+00  0.18250000000E+03  0.18250000000E+03  0.00000000000E+00 0. -1.
         11   -1    0    0    0    0 -0.00000000000E+00 -0.00000000000E+00 -0.18250000000E+03  0.18250000000E+03  0.00000000000E+00 0. -1.
        -11    1    1    2    0    0 -0.84395951932E+01 -0.57532374217E+01  0.18168782507E+03  0.18197470232E+03  0.00000000000E+00 0. -1.
         11    1    1    2    0    0  0.13976588282E+01  0.25790034194E+00 -0.84869125088E+02  0.84881024711E+02  0.00000000000E+00 0. -1.
        -15    1    1    2    0    0  0.49171041642E+01  0.58398722775E+01 -0.23505992297E+02  0.24778446772E+02  0.17770000000E+01 0.  1.
         15    1    1    2    0    0  0.21248322008E+01 -0.34453519776E+00 -0.73312707682E+02  0.73365826194E+02  0.17770000000E+01 0. -1.
</event>
<event>
 6    1  0.1226227E-002  0.2067382E+03  0.7546771E-02  0.1050647E+00
        -11   -1    0    0    0    0  0.00000000000E+00  0.00000000000E+00  0.18250000000E+03  0.18250000000E+03  0.00000000000E+00 0. -1.
         11   -1    0    0    0    0 -0.00000000000E+00 -0.00000000000E+00 -0.18250000000E+03  0.18250000000E+03  0.00000000000E+00 0.  1.
        -11    1    1    2    0    0  0.15844834597E+01 -0.56943128408E+01  0.15815138825E+03  0.15826180016E+03  0.00000000000E+00 0. -1.
         11    1    1    2    0    0  0.28847748141E+01 -0.20795646996E+01 -0.14463881025E+03  0.14468252121E+03  0.00000000000E+00 0.  1.
        -15    1    1    2    0    0 -0.71288930654E-01  0.11331810245E+02  0.22661348652E+02  0.25399005044E+02  0.17770000000E+01 0. -1.
         15    1    1    2    0    0 -0.43979693431E+01 -0.35579327043E+01 -0.36173926652E+02  0.36656673579E+02  0.17770000000E+01 0.  1.
</event>
<event>
 6    1  0.1226227E-002  0.1839829E+03  0.7546771E-02  0.1067280E+00
        -11   -1    0    0    0    0  0.00000000000E+00  0.00000000000E+00  0.18250000000E+03  0.18250000000E+03  0.00000000000E+00 0.  1.
         11   -1    0    0    0    0 -0.00000000000E+00 -0.00000000000E+00 -0.18250000000E+03  0.18250000000E+03  0.00000000000E+00 0. -1.
        -11    1    1    2    0    0  0.83718017281E+01  0.15987244112E+00  0.18082329023E+03  0.18101705697E+03  0.00000000000E+00 0.  1.
         11    1    1    2    0    0 -0.58656845706E+01  0.14725922280E+01 -0.11667520977E+03  0.11683184222E+03  0.00000000000E+00 0. -1.
        -15    1    1    2    0    0  0.36242816892E+01  0.41641745878E+00 -0.57723715076E+02  0.57866171745E+02  0.17770000000E+01 0. -1.
         15    1    1    2    0    0 -0.61303988467E+01 -0.20488821280E+01 -0.64243653905E+01  0.92849290608E+01  0.17770000000E+01 0.  1.
</event>
<event>
 6    1  0.1226227E-002  0.1843859E+03  0.7546771E-02  0.1066963E+00
        -11   -1    0    0    0    0  0.00000000000E+00  0.00000000000E+00  0.18250000000E+03  0.18250000000E+03  0.00000000000E+00 0.  1.
         11   -1    0    0    0    0 -0.00000000000E+00 -0.00000000000E+00 -0.18250000000E+03  0.18250000000E+03  0.00000000000E+00 0. -1.
        -11    1    1    2    0    0 -0.60254891226E+00  0.50149496209E+01  0.17424029235E+03  0.17431348847E+03  0.00000000000E+00 0.  1.
         11    1    1    2    0    0  0.25625011880E+01  0.10063157741E+01 -0.18059312512E+03  0.18061410777E+03  0.00000000000E+00 0. -1.
        -15    1    1    2    0    0  0.39654750678E+00 -0.14444348797E+01  0.24170577457E+01  0.33531387077E+01  0.17770000000E+01 0.  1.
         15    1    1    2    0    0 -0.23564997826E+01 -0.45768305154E+01  0.39357750278E+01  0.67192650536E+01  0.17770000000E+01 0. -1.
</event>
<event>
 6    1  0.1226227E-002  0.1578009E+03  0.7546771E-02  0.1090014E+00
        -11   -1    0    0    0    0  0.00000000000E+00  0.00000000000E+00  0.18250000000E+03  0.18250000000E+03  0.00000000000E+00 0. -1.
         11   -1    0    0    0    0 -0.00000000000E+00 -0.00000000000E+00 -0.18250000000E+03  0.18250000000E+03  0.00000000000E+00 0.  1.
        -11    1    1    2    0    0 -0.39394517109E+01  0.30937143607E+01  0.15693725776E+03  0.15701717493E+03  0.00000000000E+00 0. -1.
         11    1    1    2    0    0 -0.10799917320E+02  0.98842148017E+01 -0.15852438275E+03  0.15919898192E+03  0.00000000000E+00 0.  1.
        -15    1    1    2    0    0  0.29315190244E+02 -0.13410409522E+02  0.71633471519E+01  0.33070995358E+02  0.17770000000E+01 0. -1.
         15    1    1    2    0    0 -0.14575821213E+02  0.43248035920E+00 -0.55762221617E+01  0.15712847797E+02  0.17770000000E+01 0.  1.
</event>
<event>
 6    1  0.1226227E-002  0.1844169E+03  0.7546771E-02  0.1066939E+00
        -11   -1    0    0    0    0  0.00000000000E+00  0.00000000000E+00  0.18250000000E+03  0.18250000000E+03  0.00000000000E+00 0. -1.
         11   -1    0    0    0    0 -0.00000000000E+00 -0.00000000000E+00 -0.18250000000E+03  0.18250000000E+03  0.00000000000E+00 0.  1.
        -11    1    1    2    0    0 -0.22077674479E+01 -0.12039390849E+00  0.15873325036E+03  0.15874864882E+03  0.00000000000E+00 0. -1.
         11    1    1    2    0    0  0.66418649963E+00 -0.32333767085E+01 -0.18055295681E+03  0.18058312790E+03  0.00000000000E+00 0.  1.
        -15    1    1    2    0    0  0.17245012213E+01  0.49720655572E+01  0.23191247815E+01  0.60192532029E+01  0.17770000000E+01 0.  1.
         15    1    1    2    0    0 -0.18092027306E+00 -0.16182949402E+01  0.19500581670E+02  0.19648970078E+02  0.17770000000E+01 0.  1.
</event>
<event>
 6    1  0.1226227E-002  0.1825603E+03  0.7546771E-02  0.1068407E+00
        -11   -1    0    0    0    0  0.00000000000E+00  0.00000000000E+00  0.18250000000E+03  0.18250000000E+03  0.00000000000E+00 0.  1.
         11   -1    0    0    0    0 -0.00000000000E+00 -0.00000000000E+00 -0.18250000000E+03  0.18250000000E+03  0.00000000000E+00 0.  1.
        -11    1    1    2    0    0  0.86551507495E+00 -0.23791565137E+01  0.18242216385E+03  0.18243973078E+03  0.00000000000E+00 0.  1.
         11    1    1    2    0    0 -0.11244242103E+01 -0.25914388845E+00 -0.41450794571E+02  0.41466852496E+02  0.00000000000E+00 0.  1.
        -15    1    1    2    0    0 -0.14923582624E+01  0.57348704955E+00 -0.41012979158E+02  0.41082577925E+02  0.17770000000E+01 0. -1.
         15    1    1    2    0    0  0.17512673977E+01  0.20648133526E+01 -0.99958390125E+02  0.10001083880E+03  0.17770000000E+01 0.  1.
</event>
<event>
 6    1  0.1226227E-002  0.1841853E+03  0.7546771E-02  0.1067121E+00
        -11   -1    0    0    0    0  0.00000000000E+00  0.00000000000E+00  0.18250000000E+03  0.18250000000E+03  0.00000000000E+00 0. -1.
         11   -1    0    0    0    0 -0.00000000000E+00 -0.00000000000E+00 -0.18250000000E+03  0.18250000000E+03  0.00000000000E+00 0. -1.
        -11    1    1    2    0    0  0.35649686255E+01  0.37018397453E+01  0.15642518273E+03  0.15650958568E+03  0.00000000000E+00 0. -1.
         11    1    1    2    0    0  0.15111106321E+01  0.31447721343E+01 -0.18078098690E+03  0.18081465170E+03  0.00000000000E+00 0. -1.
        -15    1    1    2    0    0 -0.14273237736E+01 -0.45507832142E+01  0.21743072607E+02  0.22330826595E+02  0.17770000000E+01 0.  1.
         15    1    1    2    0    0 -0.36487554840E+01 -0.22958286653E+01  0.26127315633E+01  0.53449360206E+01  0.17770000000E+01 0. -1.
</event>
<event>
 6    1  0.1226227E-002  0.1836445E+03  0.7546771E-02  0.1067547E+00
        -11   -1    0    0    0    0  0.00000000000E+00  0.00000000000E+00  0.18250000000E+03  0.18250000000E+03  0.00000000000E+00 0.  1.
         11   -1    0    0    0    0 -0.00000000000E+00 -0.00000000000E+00 -0.18250000000E+03  0.18250000000E+03  0.00000000000E+00 0.  1.
        -11    1    1    2    0    0  0.26120833857E+01  0.15247148410E+00  0.18133665079E+03  0.18135552693E+03  0.00000000000E+00 0.  1.
         11    1    1    2    0    0  0.54979273155E+01 -0.16378921304E+01 -0.12511107956E+03  0.12524253321E+03  0.00000000000E+00 0.  1.
        -15    1    1    2    0    0 -0.98572396668E+01  0.51275755521E+01 -0.43546006862E+02  0.44976323188E+02  0.17770000000E+01 0. -1.
         15    1    1    2    0    0  0.17472289655E+01 -0.36421549059E+01 -0.12679564371E+02  0.13425616673E+02  0.17770000000E+01 0. -1.
</event>
<event>
 6    1  0.1226227E-002  0.1849328E+03  0.7546771E-02  0.1066535E+00
        -11   -1    0    0    0    0  0.00000000000E+00  0.00000000000E+00  0.18250000000E+03  0.18250000000E+03  0.00000000000E+00 0. -1.
         11   -1    0    0    0    0 -0.00000000000E+00 -0.00000000000E+00 -0.18250000000E+03  0.18250000000E+03  0.00000000000E+00 0.  1.
        -11    1    1    2    0    0 -0.34365527466E+01 -0.91774103493E+00  0.16192877542E+03  0.16196783771E+03  0.00000000000E+00 0. -1.
         11    1    1    2    0    0  0.32184271797E+01 -0.74980114166E+01 -0.17988222471E+03  0.18006719083E+03  0.00000000000E+00 0.  1.
        -15    1    1    2    0    0 -0.41602789354E+01  0.74688931059E+00  0.29092363503E+01  0.54302071419E+01  0.17770000000E+01 0.  1.
         15    1    1    2    0    0  0.43784045022E+01  0.76688631409E+01  0.15044212937E+02  0.17534764320E+02  0.17770000000E+01 0. -1.
</event>
<event>
 6    1  0.1226227E-002  0.1881580E+03  0.7546771E-02  0.1064038E+00
        -11   -1    0    0    0    0  0.00000000000E+00  0.00000000000E+00  0.18250000000E+03  0.18250000000E+03  0.00000000000E+00 0. -1.
         11   -1    0    0    0    0 -0.00000000000E+00 -0.00000000000E+00 -0.18250000000E+03  0.18250000000E+03  0.00000000000E+00 0.  1.
        -11    1    1    2    0    0  0.81113345822E+00 -0.77600024608E+01  0.17666979757E+03  0.17684199996E+03  0.00000000000E+00 0. -1.
         11    1    1    2    0    0 -0.35439090052E+01  0.19033017133E+01 -0.16486867256E+03  0.16491774023E+03  0.00000000000E+00 0.  1.
        -15    1    1    2    0    0  0.52757612146E+00  0.18531406501E+01  0.50501939463E+01  0.56898729975E+01  0.17770000000E+01 0. -1.
         15    1    1    2    0    0  0.22051994255E+01  0.40035600974E+01 -0.16851318954E+02  0.17550386818E+02  0.17770000000E+01 0.  1.
</event>
<event>
 6    1  0.1226227E-002  0.1830478E+03  0.7546771E-02  0.1068020E+00
        -11   -1    0    0    0    0  0.00000000000E+00  0.00000000000E+00  0.18250000000E+03  0.18250000000E+03  0.00000000000E+00 0. -1.
         11   -1    0    0    0    0 -0.00000000000E+00 -0.00000000000E+00 -0.18250000000E+03  0.18250000000E+03  0.00000000000E+00 0. -1.
        -11    1    1    2    0    0 -0.32694780208E+01  0.15149588525E+01  0.18191655491E+03  0.18195223971E+03  0.00000000000E+00 0. -1.
         11    1    1    2    0    0 -0.62443171125E+00 -0.73574579428E+01 -0.11874986119E+03  0.11897920673E+03  0.00000000000E+00 0. -1.
        -15    1    1    2    0    0  0.28823795926E+01 -0.10267734950E+01 -0.21945130996E+02  0.22228559992E+02  0.17770000000E+01 0. -1.
         15    1    1    2    0    0  0.10115301394E+01  0.68692725853E+01 -0.41221562723E+02  0.41839993564E+02  0.17770000000E+01 0.  1.
</event>
<event>
 6    1  0.1226227E-002  0.1929624E+03  0.7546771E-02  0.1060419E+00
        -11   -1    0    0    0    0  0.00000000000E+00  0.00000000000E+00  0.18250000000E+03  0.18250000000E+03  0.00000000000E+00 0. -1.
         11   -1    0    0    0    0 -0.00000000000E+00 -0.00000000000E+00 -0.18250000000E+03  0.18250000000E+03  0.00000000000E+00 0.  1.
        -11    1    1    2    0    0  0.48959075186E+01  0.85709932446E+00  0.17196575787E+03  0.17203757267E+03  0.00000000000E+00 0. -1.
         11    1    1    2    0    0  0.42755611456E+01 -0.71532212246E+00 -0.11838567626E+03  0.11846501784E+03  0.00000000000E+00 0.  1.
        -15    1    1    2    0    0 -0.31123481391E+01  0.10944673323E+00 -0.63028556780E+02  0.63130463235E+02  0.17770000000E+01 0.  1.
         15    1    1    2    0    0 -0.60591205252E+01 -0.25122393524E+00  0.94484751710E+01  0.11366946250E+02  0.17770000000E+01 0.  1.
</event>
<event>
 6    1  0.1226227E-002  0.1841630E+03  0.7546771E-02  0.1067139E+00
        -11   -1    0    0    0    0  0.00000000000E+00  0.00000000000E+00  0.18250000000E+03  0.18250000000E+03  0.00000000000E+00 0.  1.
         11   -1    0    0    0    0 -0.00000000000E+00 -0.00000000000E+00 -0.18250000000E+03  0.18250000000E+03  0.00000000000E+00 0. -1.
        -11    1    1    2    0    0  0.82568010193E+00  0.29267536140E+01  0.16985059298E+03  0.16987781365E+03  0.00000000000E+00 0.  1.
         11    1    1    2    0    0  0.14783224803E+01 -0.27772405612E+01 -0.18080963654E+03  0.18083700719E+03  0.00000000000E+00 0. -1.
        -15    1    1    2    0    0 -0.35004404857E+01 -0.12582780081E+01  0.11128068679E+02  0.11867096893E+02  0.17770000000E+01 0.  1.
         15    1    1    2    0    0  0.11964379034E+01  0.11087649553E+01 -0.16902512112E+00  0.24180822720E+01  0.17770000000E+01 0. -1.
</event>
<event>
 6    1  0.1226227E-002  0.1843793E+03  0.7546771E-02  0.1066969E+00
        -11   -1    0    0    0    0  0.00000000000E+00  0.00000000000E+00  0.18250000000E+03  0.18250000000E+03  0.00000000000E+00 0.  1.
         11   -1    0    0    0    0 -0.00000000000E+00 -0.00000000000E+00 -0.18250000000E+03  0.18250000000E+03  0.00000000000E+00 0. -1.
        -11    1    1    2    0    0  0.13763001246E+01 -0.57394942149E+01  0.18052428448E+03  0.18062074433E+03  0.00000000000E+00 0.  1.
         11    1    1    2    0    0  0.51559290934E+01  0.42570052597E+00 -0.16266755679E+03  0.16274980448E+03  0.00000000000E+00 0. -1.
        -15    1    1    2    0    0 -0.68454920594E+01  0.63794867637E+01 -0.16727303490E+02  0.19248870719E+02  0.17770000000E+01 0. -1.
         15    1    1    2    0    0  0.31326284139E+00 -0.10656930747E+01 -0.11294241970E+01  0.23805804658E+01  0.17770000000E+01 0. -1.
</event>
<event>
 6    1  0.1226227E-002  0.1857525E+03  0.7546771E-02  0.1065895E+00
        -11   -1    0    0    0    0  0.00000000000E+00  0.00000000000E+00  0.18250000000E+03  0.18250000000E+03  0.00000000000E+00 0. -1.
         11   -1    0    0    0    0 -0.00000000000E+00 -0.00000000000E+00 -0.18250000000E+03  0.18250000000E+03  0.00000000000E+00 0.  1.
        -11    1    1    2    0    0  0.47846533738E+01 -0.21720525070E+01  0.17917049278E+03  0.17924752775E+03  0.00000000000E+00 0. -1.
         11    1    1    2    0    0  0.87981650016E+00  0.23010791037E+01 -0.15641809907E+03  0.15643749793E+03  0.00000000000E+00 0.  1.
        -15    1    1    2    0    0 -0.90859503764E+01 -0.42121502052E+01 -0.63808482354E+01  0.12007066952E+02  0.17770000000E+01 0. -1.
         15    1    1    2    0    0  0.34214805024E+01  0.40831236085E+01 -0.16371545472E+02  0.17307907366E+02  0.17770000000E+01 0.  1.
</event>
<event>
 6    1  0.1226227E-002  0.1896181E+03  0.7546771E-02  0.1062926E+00
        -11   -1    0    0    0    0  0.00000000000E+00  0.00000000000E+00  0.18250000000E+03  0.18250000000E+03  0.00000000000E+00 0. -1.
         11   -1    0    0    0    0 -0.00000000000E+00 -0.00000000000E+00 -0.18250000000E+03  0.18250000000E+03  0.00000000000E+00 0. -1.
        -11    1    1    2    0    0  0.22080406453E+01 -0.46444735293E+01  0.17530647533E+03  0.17538188866E+03  0.00000000000E+00 0. -1.
         11    1    1    2    0    0  0.11268104486E+02  0.67603049489E+01 -0.13335828857E+03  0.13400412319E+03  0.00000000000E+00 0. -1.
        -15    1    1    2    0    0 -0.19740364924E+02 -0.25036648464E+01 -0.87997886583E+01  0.21829895886E+02  0.17770000000E+01 0. -1.
         15    1    1    2    0    0  0.62642197923E+01  0.38783342683E+00 -0.33148398102E+02  0.33784092264E+02  0.17770000000E+01 0.  1.
</event>
<event>
 6    1  0.1226227E-002  0.1854939E+03  0.7546771E-02  0.1066096E+00
        -11   -1    0    0    0    0  0.00000000000E+00  0.00000000000E+00  0.18250000000E+03  0.18250000000E+03  0.00000000000E+00 0.  1.
         11   -1    0    0    0    0 -0.00000000000E+00 -0.00000000000E+00 -0.18250000000E+03  0.18250000000E+03  0.00000000000E+00 0. -1.
        -11    1    1    2    0    0 -0.30215013628E+01  0.77739434786E+00  0.16918542264E+03  0.16921418690E+03  0.00000000000E+00 0.  1.
         11    1    1    2    0    0 -0.53437804741E+01 -0.46385076328E+01 -0.17936653950E+03  0.17950606462E+03  0.00000000000E+00 0. -1.
        -15    1    1    2    0    0  0.81524920605E+01  0.14496417972E+01  0.10224507378E+02  0.13276402685E+02  0.17770000000E+01 0. -1.
         15    1    1    2    0    0  0.21278977637E+00  0.24114714877E+01 -0.43390518467E-01  0.30033457946E+01  0.17770000000E+01 0.  1.
</event>
<event>
 6    1  0.1226227E-002  0.1848690E+03  0.7546771E-02  0.1066585E+00
        -11   -1    0    0    0    0  0.00000000000E+00  0.00000000000E+00  0.18250000000E+03  0.18250000000E+03  0.00000000000E+00 0.  1.
         11   -1    0    0    0    0 -0.00000000000E+00 -0.00000000000E+00 -0.18250000000E+03  0.18250000000E+03  0.00000000000E+00 0. -1.
        -11    1    1    2    0    0  0.43186243930E+01  0.77348886227E+01  0.12838525182E+03  0.12869052764E+03  0.00000000000E+00 0.  1.
         11    1    1    2    0    0  0.79516134260E+01 -0.42438775267E-01 -0.17995537380E+03  0.18013097046E+03  0.00000000000E+00 0. -1.
        -15    1    1    2    0    0  0.67577027936E+00  0.34422576531E+01  0.40176378987E+01  0.56218276838E+01  0.17770000000E+01 0.  1.
         15    1    1    2    0    0 -0.12946008098E+02 -0.11134707500E+02  0.47552484085E+02  0.50556674223E+02  0.17770000000E+01 0. -1.
</event>
<event>
 6    1  0.1226227E-002  0.1828146E+03  0.7546771E-02  0.1068205E+00
        -11   -1    0    0    0    0  0.00000000000E+00  0.00000000000E+00  0.18250000000E+03  0.18250000000E+03  0.00000000000E+00 0. -1.
         11   -1    0    0    0    0 -0.00000000000E+00 -0.00000000000E+00 -0.18250000000E+03  0.18250000000E+03  0.00000000000E+00 0. -1.
        -11    1    1    2    0    0  0.52199736531E+01 -0.18052350660E+00  0.18211049731E+03  0.18218538345E+03  0.00000000000E+00 0. -1.
         11    1    1    2    0    0  0.14520946057E+01 -0.33055389225E+00 -0.10814893111E+03  0.10815918428E+03  0.00000000000E+00 0. -1.
        -15    1    1    2    0    0 -0.52735397385E+00 -0.50330103951E+00 -0.42021441737E+02  0.42065314795E+02  0.17770000000E+01 0.  1.
         15    1    1    2    0    0 -0.61447142849E+01  0.10143784384E+01 -0.31940124462E+02  0.32590117473E+02  0.17770000000E+01 0.  1.
</event>
<event>
 6    1  0.1226227E-002  0.1828154E+03  0.7546771E-02  0.1068204E+00
        -11   -1    0    0    0    0  0.00000000000E+00  0.00000000000E+00  0.18250000000E+03  0.18250000000E+03  0.00000000000E+00 0. -1.
         11   -1    0    0    0    0 -0.00000000000E+00 -0.00000000000E+00 -0.18250000000E+03  0.18250000000E+03  0.00000000000E+00 0.  1.
        -11    1    1    2    0    0 -0.26374849359E+01 -0.12627388282E+01  0.18216114627E+03  0.18218461528E+03  0.00000000000E+00 0. -1.
         11    1    1    2    0    0 -0.33487773931E+01 -0.15647926863E+01 -0.12499716031E+03  0.12505180115E+03  0.00000000000E+00 0.  1.
        -15    1    1    2    0    0  0.76015409965E+00 -0.26620466102E+00 -0.11750885509E+02  0.11911747917E+02  0.17770000000E+01 0.  1.
         15    1    1    2    0    0  0.52261082294E+01  0.30937361755E+01 -0.45413100451E+02  0.45851835649E+02  0.17770000000E+01 0.  1.
</event>
<event>
 6    1  0.1226227E-002  0.1836287E+03  0.7546771E-02  0.1067560E+00
        -11   -1    0    0    0    0  0.00000000000E+00  0.00000000000E+00  0.18250000000E+03  0.18250000000E+03  0.00000000000E+00 0. -1.
         11   -1    0    0    0    0 -0.00000000000E+00 -0.00000000000E+00 -0.18250000000E+03  0.18250000000E+03  0.00000000000E+00 0.  1.
        -11    1    1    2    0    0  0.13812064958E+01 -0.24110775132E+01  0.18135006187E+03  0.18137134825E+03  0.00000000000E+00 0. -1.
         11    1    1    2    0    0  0.29748199028E+01 -0.52093352440E+00 -0.16663980706E+03  0.16666717200E+03  0.00000000000E+00 0.  1.
        -15    1    1    2    0    0  0.21517898637E+00 -0.10885440472E+01 -0.39607148617E+01  0.44806496576E+01  0.17770000000E+01 0. -1.
         15    1    1    2    0    0 -0.45712053850E+01  0.40205550848E+01 -0.10749539948E+02  0.12480830099E+02  0.17770000000E+01 0.  1.
</event>
<event>
 6    1  0.1226227E-002  0.1868797E+03  0.7546771E-02  0.1065021E+00
        -11   -1    0    0    0    0  0.00000000000E+00  0.00000000000E+00  0.18250000000E+03  0.18250000000E+03  0.00000000000E+00 0. -1.
         11   -1    0    0    0    0 -0.00000000000E+00 -0.00000000000E+00 -0.18250000000E+03  0.18250000000E+03  0.00000000000E+00 0. -1.
        -11    1    1    2    0    0  0.33622613770E+01  0.48135470516E+01  0.12783219427E+03  0.12796696812E+03  0.00000000000E+00 0. -1.
         11    1    1    2    0    0  0.56206635341E+01 -0.47078546684E+01 -0.17796930674E+03  0.17812026807E+03  0.00000000000E+00 0. -1.
        -15    1    1    2    0    0 -0.10806233550E+02  0.23633650603E+01  0.53113794527E+02  0.54282530118E+02  0.17770000000E+01 0. -1.
         15    1    1    2    0    0  0.18233086387E+01 -0.24690574435E+01 -0.29766820531E+01  0.46302336978E+01  0.17770000000E+01 0. -1.
</event>
<event>
 6    1  0.1226227E-002  0.1411991E+03  0.7546771E-02  0.1107105E+00
        -11   -1    0    0    0    0  0.00000000000E+00  0.00000000000E+00  0.18250000000E+03  0.18250000000E+03  0.00000000000E+00 0.  1.
         11   -1    0    0    0    0 -0.00000000000E+00 -0.00000000000E+00 -0.18250000000E+03  0.18250000000E+03  0.00000000000E+00 0. -1.
        -11    1    1    2    0    0  0.19142350045E+02 -0.29022087701E+02  0.12082130244E+03  0.12572389694E+03  0.00000000000E+00 0.  1.
         11    1    1    2    0    0  0.19128289080E+02 -0.10072006578E+00 -0.16265794208E+03  0.16377883780E+03  0.00000000000E+00 0. -1.
        -15    1    1    2    0    0 -0.12664880911E+02 -0.96634047795E+01  0.14075660209E+02  0.21332194911E+02  0.17770000000E+01 0. -1.
         15    1    1    2    0    0 -0.25605758214E+02  0.38786212546E+02  0.27760979438E+02  0.54165070348E+02  0.17770000000E+01 0.  1.
</event>
<event>
 6    1  0.1226227E-002  0.1865485E+03  0.7546771E-02  0.1065277E+00
        -11   -1    0    0    0    0  0.00000000000E+00  0.00000000000E+00  0.18250000000E+03  0.18250000000E+03  0.00000000000E+00 0.  1.
         11   -1    0    0    0    0 -0.00000000000E+00 -0.00000000000E+00 -0.18250000000E+03  0.18250000000E+03  0.00000000000E+00 0. -1.
        -11    1    1    2    0    0 -0.27276892321E+01 -0.46418919826E+01  0.17837021334E+03  0.17845145126E+03  0.00000000000E+00 0.  1.
         11    1    1    2    0    0  0.50600351097E+01  0.92978020538E+00 -0.17504749206E+03  0.17512307935E+03  0.00000000000E+00 0. -1.
        -15    1    1    2    0    0 -0.52517237881E+01  0.21582161739E+01 -0.45343983360E+01  0.74804409675E+01  0.17770000000E+01 0. -1.
         15    1    1    2    0    0  0.29193779105E+01  0.15538956033E+01  0.12116770491E+01  0.39450284158E+01  0.17770000000E+01 0. -1.
</event>
<event>
 6    1  0.1226227E-002  0.1876229E+03  0.7546771E-02  0.1064449E+00
        -11   -1    0    0    0    0  0.00000000000E+00  0.00000000000E+00  0.18250000000E+03  0.18250000000E+03  0.00000000000E+00 0. -1.
         11   -1    0    0    0    0 -0.00000000000E+00 -0.00000000000E+00 -0.18250000000E+03  0.18250000000E+03  0.00000000000E+00 0. -1.
        -11    1    1    2    0    0  0.46268743245E+01 -0.48317940348E+01  0.90605240523E+02  0.90851878406E+02  0.00000000000E+00 0. -1.
         11    1    1    2    0    0 -0.58723320470E+01  0.17769138818E+01 -0.17727092207E+03  0.17737706029E+03  0.00000000000E+00 0. -1.
        -15    1    1    2    0    0  0.48442485959E+01 -0.16028663848E+02  0.15172607759E+02  0.22666066364E+02  0.17770000000E+01 0.  1.
         15    1    1    2    0    0 -0.35987908735E+01  0.19083544001E+02  0.71493073784E+02  0.74104994942E+02  0.17770000000E+01 0. -1.
</event>
<event>
 6    1  0.1226227E-002  0.1891094E+03  0.7546771E-02  0.1063312E+00
        -11   -1    0    0    0    0  0.00000000000E+00  0.00000000000E+00  0.18250000000E+03  0.18250000000E+03  0.00000000000E+00 0. -1.
         11   -1    0    0    0    0 -0.00000000000E+00 -0.00000000000E+00 -0.18250000000E+03  0.18250000000E+03  0.00000000000E+00 0. -1.
        -11    1    1    2    0    0  0.66412860081E+01  0.54070920359E+01  0.17568201227E+03  0.17589062726E+03  0.00000000000E+00 0. -1.
         11    1    1    2    0    0 -0.16689994712E+02  0.63740611230E+01 -0.14092349174E+03  0.14205145231E+03  0.00000000000E+00 0. -1.
        -15    1    1    2    0    0  0.18379998143E+02 -0.90419517707E+01 -0.31332574502E+02  0.37476248178E+02  0.17770000000E+01 0. -1.
         15    1    1    2    0    0 -0.83312894386E+01 -0.27392013882E+01 -0.34259460228E+01  0.95816722500E+01  0.17770000000E+01 0.  1.
</event>
<event>
 6    1  0.1226227E-002  0.1918137E+03  0.7546771E-02  0.1061274E+00
        -11   -1    0    0    0    0  0.00000000000E+00  0.00000000000E+00  0.18250000000E+03  0.18250000000E+03  0.00000000000E+00 0.  1.
         11   -1    0    0    0    0 -0.00000000000E+00 -0.00000000000E+00 -0.18250000000E+03  0.18250000000E+03  0.00000000000E+00 0.  1.
        -11    1    1    2    0    0  0.37305719447E+01 -0.17149506597E+01  0.12379836932E+03  0.12386643802E+03  0.00000000000E+00 0.  1.
         11    1    1    2    0    0 -0.26825316401E+01  0.19814775542E+00 -0.17316544125E+03  0.17318633110E+03  0.00000000000E+00 0.  1.
        -15    1    1    2    0    0  0.37786369603E+01  0.15008184948E+01 -0.86398968834E+01  0.97126773131E+01  0.17770000000E+01 0. -1.
         15    1    1    2    0    0 -0.48266772649E+01  0.15984409480E-01  0.58006968811E+02  0.58234553562E+02  0.17770000000E+01 0. -1.
</event>
<event>
 6    1  0.1226227E-002  0.1873616E+03  0.7546771E-02  0.1064650E+00
        -11   -1    0    0    0    0  0.00000000000E+00  0.00000000000E+00  0.18250000000E+03  0.18250000000E+03  0.00000000000E+00 0. -1.
         11   -1    0    0    0    0 -0.00000000000E+00 -0.00000000000E+00 -0.18250000000E+03  0.18250000000E+03  0.00000000000E+00 0. -1.
        -11    1    1    2    0    0 -0.31089977014E+01  0.37624350626E+00  0.17761080594E+03  0.17763841312E+03  0.00000000000E+00 0. -1.
         11    1    1    2    0    0  0.34523279620E+01 -0.22312846147E+01 -0.14541845817E+03  0.14547654511E+03  0.00000000000E+00 0. -1.
        -15    1    1    2    0    0  0.42857971276E+01  0.23679348538E+01  0.32198177571E+01  0.61237347982E+01  0.17770000000E+01 0.  1.
         15    1    1    2    0    0 -0.46291273882E+01 -0.51289374537E+00 -0.35412165531E+02  0.35761306981E+02  0.17770000000E+01 0. -1.
</event>
<event>
 6    1  0.1226227E-002  0.1681366E+03  0.7546771E-02  0.1080500E+00
        -11   -1    0    0    0    0  0.00000000000E+00  0.00000000000E+00  0.18250000000E+03  0.18250000000E+03  0.00000000000E+00 0. -1.
         11   -1    0    0    0    0 -0.00000000000E+00 -0.00000000000E+00 -0.18250000000E+03  0.18250000000E+03  0.00000000000E+00 0. -1.
        -11    1    1    2    0    0  0.18136863700E+01 -0.35308662088E+01  0.17069584457E+03  0.17074199198E+03  0.00000000000E+00 0. -1.
         11    1    1    2    0    0 -0.31741947051E+01 -0.11641394017E+02 -0.16547709929E+03  0.16591644872E+03  0.00000000000E+00 0. -1.
        -15    1    1    2    0    0 -0.21493626219E+01  0.36724199495E+01 -0.13078394727E+02  0.13867536393E+02  0.17770000000E+01 0. -1.
         15    1    1    2    0    0  0.35098709570E+01  0.11499840276E+02  0.78596494498E+01  0.14474022902E+02  0.17770000000E+01 0.  1.
</event>
<event>
 6    1  0.1226227E-002  0.1887540E+03  0.7546771E-02  0.1063583E+00
        -11   -1    0    0    0    0  0.00000000000E+00  0.00000000000E+00  0.18250000000E+03  0.18250000000E+03  0.00000000000E+00 0. -1.
         11   -1    0    0    0    0 -0.00000000000E+00 -0.00000000000E+00 -0.18250000000E+03  0.18250000000E+03  0.00000000000E+00 0. -1.
        -11    1    1    2    0    0 -0.26589331026E+01 -0.32458446977E+01  0.11512080064E+03  0.11519724030E+03  0.00000000000E+00 0. -1.
         11    1    1    2    0    0  0.30752612187E+01  0.11247807695E+01 -0.17621556312E+03  0.17624598449E+03  0.00000000000E+00 0. -1.
        -15    1    1    2    0    0  0.10075230755E+02 -0.49158566227E+01  0.59647254513E+02  0.60717613763E+02  0.17770000000E+01 0. -1.
         15    1    1    2    0    0 -0.10491558871E+02  0.70369205509E+01  0.14475079628E+01  0.12839161448E+02  0.17770000000E+01 0.  1.
</event>
<event>
 6    1  0.1226227E-002  0.1833657E+03  0.7546771E-02  0.1067768E+00
        -11   -1    0    0    0    0  0.00000000000E+00  0.00000000000E+00  0.18250000000E+03  0.18250000000E+03  0.00000000000E+00 0.  1.
         11   -1    0    0    0    0 -0.00000000000E+00 -0.00000000000E+00 -0.18250000000E+03  0.18250000000E+03  0.00000000000E+00 0.  1.
        -11    1    1    2    0    0 -0.10137502300E+02 -0.69497869170E+01  0.18121792939E+03  0.18163426556E+03  0.00000000000E+00 0.  1.
         11    1    1    2    0    0  0.20770232385E+01 -0.10805388211E+01 -0.10710238931E+03  0.10712797667E+03  0.00000000000E+00 0.  1.
        -15    1    1    2    0    0  0.11444083670E+02  0.61266067562E+01 -0.62593690030E+02  0.63950215965E+02  0.17770000000E+01 0.  1.
         15    1    1    2    0    0 -0.33836046088E+01  0.19037189818E+01 -0.11521850050E+02  0.12287541809E+02  0.17770000000E+01 0. -1.
</event>
<event>
 6    1  0.1226227E-002  0.1831861E+03  0.7546771E-02  0.1067910E+00
        -11   -1    0    0    0    0  0.00000000000E+00  0.00000000000E+00  0.18250000000E+03  0.18250000000E+03  0.00000000000E+00 0.  1.
         11   -1    0    0    0    0 -0.00000000000E+00 -0.00000000000E+00 -0.18250000000E+03  0.18250000000E+03  0.00000000000E+00 0.  1.
        -11    1    1    2    0    0  0.47778623273E+01 -0.24064944948E+01  0.99180346525E+02  0.99324520240E+02  0.00000000000E+00 0.  1.
         11    1    1    2    0    0  0.27003992680E+01  0.49676242285E+01 -0.18172592832E+03  0.18181386765E+03  0.00000000000E+00 0.  1.
        -15    1    1    2    0    0  0.32426038022E+01 -0.80092414301E+00  0.20051296004E+02  0.20405101307E+02  0.17770000000E+01 0.  1.
         15    1    1    2    0    0 -0.10720865398E+02 -0.17602055906E+01  0.62494285787E+02  0.63456510806E+02  0.17770000000E+01 0. -1.
</event>
<event>
 6    1  0.1226227E-002  0.1827385E+03  0.7546771E-02  0.1068265E+00
        -11   -1    0    0    0    0  0.00000000000E+00  0.00000000000E+00  0.18250000000E+03  0.18250000000E+03  0.00000000000E+00 0. -1.
         11   -1    0    0    0    0 -0.00000000000E+00 -0.00000000000E+00 -0.18250000000E+03  0.18250000000E+03  0.00000000000E+00 0. -1.
        -11    1    1    2    0    0 -0.78125661376E-01  0.27141478058E+01  0.18224124316E+03  0.18226146991E+03  0.00000000000E+00 0. -1.
         11    1    1    2    0    0  0.72271504889E+00  0.30786877944E+00 -0.22531721568E+02  0.22545411441E+02  0.00000000000E+00 0. -1.
        -15    1    1    2    0    0 -0.19501740268E+01 -0.54443648673E+01 -0.14487391344E+03  0.14500018211E+03  0.17770000000E+01 0. -1.
         15    1    1    2    0    0  0.13055846393E+01  0.24223482821E+01 -0.14835608154E+02  0.15192936541E+02  0.17770000000E+01 0. -1.
</event>
<event>
 6    1  0.1226227E-002  0.1830197E+03  0.7546771E-02  0.1068042E+00
        -11   -1    0    0    0    0  0.00000000000E+00  0.00000000000E+00  0.18250000000E+03  0.18250000000E+03  0.00000000000E+00 0.  1.
         11   -1    0    0    0    0 -0.00000000000E+00 -0.00000000000E+00 -0.18250000000E+03  0.18250000000E+03  0.00000000000E+00 0.  1.
        -11    1    1    2    0    0  0.25423212750E+01 -0.43018921462E+01  0.18191172518E+03  0.18198034353E+03  0.00000000000E+00 0.  1.
         11    1    1    2    0    0  0.15444752768E+01  0.19843536257E+01 -0.96682484066E+02  0.96715178686E+02  0.00000000000E+00 0.  1.
        -15    1    1    2    0    0 -0.30736732955E+01  0.30814709625E+01 -0.83171122262E+02  0.83303878890E+02  0.17770000000E+01 0.  1.
         15    1    1    2    0    0 -0.10131232563E+01 -0.76393244205E+00 -0.20581188529E+01  0.30005988937E+01  0.17770000000E+01 0. -1.
</event>
<event>
 6    1  0.1226227E-002  0.1826554E+03  0.7546771E-02  0.1068331E+00
        -11   -1    0    0    0    0  0.00000000000E+00  0.00000000000E+00  0.18250000000E+03  0.18250000000E+03  0.00000000000E+00 0. -1.
         11   -1    0    0    0    0 -0.00000000000E+00 -0.00000000000E+00 -0.18250000000E+03  0.18250000000E+03  0.00000000000E+00 0.  1.
        -11    1    1    2    0    0  0.51836136552E+01  0.20419837507E+01  0.18225951595E+03  0.18234464813E+03  0.00000000000E+00 0. -1.
         11    1    1    2    0    0  0.18274938610E+00 -0.10519830383E+01 -0.74005927830E+02  0.74013629958E+02  0.00000000000E+00 0.  1.
        -15    1    1    2    0    0 -0.17672509122E+01 -0.31016166289E+01 -0.71202547021E+02  0.71314119449E+02  0.17770000000E+01 0.  1.
         15    1    1    2    0    0 -0.35991121291E+01  0.21116159165E+01 -0.37051041100E+02  0.37327602461E+02  0.17770000000E+01 0. -1.
</event>
<event>
 6    1  0.1226227E-002  0.1856334E+03  0.7546771E-02  0.1065988E+00
        -11   -1    0    0    0    0  0.00000000000E+00  0.00000000000E+00  0.18250000000E+03  0.18250000000E+03  0.00000000000E+00 0. -1.
         11   -1    0    0    0    0 -0.00000000000E+00 -0.00000000000E+00 -0.18250000000E+03  0.18250000000E+03  0.00000000000E+00 0. -1.
        -11    1    1    2    0    0  0.48674161121E+01  0.20708230014E-01  0.15047644559E+03  0.15055514885E+03  0.00000000000E+00 0. -1.
         11    1    1    2    0    0 -0.94465819585E+01  0.11163386234E+01 -0.17911414970E+03  0.17936655972E+03  0.00000000000E+00 0. -1.
        -15    1    1    2    0    0 -0.12923394208E+01 -0.13653397962E+01  0.28820930155E+02  0.28936793844E+02  0.17770000000E+01 0. -1.
         15    1    1    2    0    0  0.58715052672E+01  0.22829294279E+00 -0.18322604106E+00  0.61414975822E+01  0.17770000000E+01 0. -1.
</event>
<event>
 6    1  0.1226227E-002  0.1836774E+03  0.7546771E-02  0.1067521E+00
        -11   -1    0    0    0    0  0.00000000000E+00  0.00000000000E+00  0.18250000000E+03  0.18250000000E+03  0.00000000000E+00 0. -1.
         11   -1    0    0    0    0 -0.00000000000E+00 -0.00000000000E+00 -0.18250000000E+03  0.18250000000E+03  0.00000000000E+00 0. -1.
        -11    1    1    2    0    0 -0.28805765510E+01  0.37937142050E+00  0.18129932073E+03  0.18132260020E+03  0.00000000000E+00 0. -1.
         11    1    1    2    0    0 -0.48297432275E+01 -0.35305078219E+01 -0.15585909241E+03  0.15597386830E+03  0.00000000000E+00 0. -1.
        -15    1    1    2    0    0  0.48271608366E+01  0.27170908571E+01 -0.22362134967E+02  0.23106424946E+02  0.17770000000E+01 0.  1.
         15    1    1    2    0    0  0.28831589418E+01  0.43404554431E+00 -0.30780933526E+01  0.45971065580E+01  0.17770000000E+01 0. -1.
</event>
<event>
 6    1  0.1226227E-002  0.1827746E+03  0.7546771E-02  0.1068236E+00
        -11   -1    0    0    0    0  0.00000000000E+00  0.00000000000E+00  0.18250000000E+03  0.18250000000E+03  0.00000000000E+00 0.  1.
         11   -1    0    0    0    0 -0.00000000000E+00 -0.00000000000E+00 -0.18250000000E+03  0.18250000000E+03  0.00000000000E+00 0.  1.
        -11    1    1    2    0    0  0.13038304622E+01  0.72044561962E+00  0.10013348508E+03  0.10014456476E+03  0.00000000000E+00 0.  1.
         11    1    1    2    0    0 -0.47722056425E+01  0.58959382693E+00 -0.18216194373E+03  0.18222539699E+03  0.00000000000E+00 0.  1.
        -15    1    1    2    0    0 -0.16021860540E+01  0.21325916423E+01  0.38932518441E+02  0.39064224918E+02  0.17770000000E+01 0. -1.
         15    1    1    2    0    0  0.50705612343E+01 -0.34426310888E+01  0.43095940205E+02  0.43565813331E+02  0.17770000000E+01 0.  1.
</event>
<event>
 6    1  0.1226227E-002  0.1770155E+03  0.7546771E-02  0.1072906E+00
        -11   -1    0    0    0    0  0.00000000000E+00  0.00000000000E+00  0.18250000000E+03  0.18250000000E+03  0.00000000000E+00 0. -1.
         11   -1    0    0    0    0 -0.00000000000E+00 -0.00000000000E+00 -0.18250000000E+03  0.18250000000E+03  0.00000000000E+00 0.  1.
        -11    1    1    2    0    0  0.40155586319E+01 -0.50465736421E+01  0.17518401802E+03  0.17530268904E+03  0.00000000000E+00 0. -1.
         11    1    1    2    0    0 -0.52212422369E+01 -0.35732794975E+01 -0.17874120629E+03  0.17885314792E+03  0.00000000000E+00 0.  1.
        -15    1    1    2    0    0 -0.10628284109E+00  0.49963590486E+01  0.39046935002E+01  0.65862933518E+01  0.17770000000E+01 0.  1.
         15    1    1    2    0    0  0.13119664460E+01  0.36234940909E+01 -0.34750522998E+00  0.42578696865E+01  0.17770000000E+01 0. -1.
</event>
<event>
 6    1  0.1226227E-002  0.1840415E+03  0.7546771E-02  0.1067234E+00
        -11   -1    0    0    0    0  0.00000000000E+00  0.00000000000E+00  0.18250000000E+03  0.18250000000E+03  0.00000000000E+00 0.  1.
         11   -1    0    0    0    0 -0.00000000000E+00 -0.00000000000E+00 -0.18250000000E+03  0.18250000000E+03  0.00000000000E+00 0. -1.
        -11    1    1    2    0    0 -0.78815067743E-01  0.55972735130E+01  0.18087189811E+03  0.18095850134E+03  0.00000000000E+00 0.  1.
         11    1    1    2    0    0 -0.22145239745E+01  0.55281942221E+01 -0.14379131457E+03  0.14391458298E+03  0.00000000000E+00 0. -1.
        -15    1    1    2    0    0 -0.78559269401E+00 -0.99708324754E+01 -0.33281984800E+02  0.34797742705E+02  0.17770000000E+01 0.  1.
         15    1    1    2    0    0  0.30789317362E+01 -0.11546352598E+01 -0.37985987340E+01  0.53291729717E+01  0.17770000000E+01 0. -1.
</event>
<event>
 6    1  0.1226227E-002  0.1835168E+03  0.7546771E-02  0.1067648E+00
        -11   -1    0    0    0    0  0.00000000000E+00  0.00000000000E+00  0.18250000000E+03  0.18250000000E+03  0.00000000000E+00 0. -1.
         11   -1    0    0    0    0 -0.00000000000E+00 -0.00000000000E+00 -0.18250000000E+03  0.18250000000E+03  0.00000000000E+00 0.  1.
        -11    1    1    2    0    0  0.69444956475E+01 -0.19639418684E+01  0.18133961869E+03  0.18148316835E+03  0.00000000000E+00 0. -1.
         11    1    1    2    0    0 -0.21828815908E+01  0.26793859825E+01 -0.13148341484E+03  0.13152882749E+03  0.00000000000E+00 0.  1.
        -15    1    1    2    0    0  0.36040286211E+01  0.95734853376E+00 -0.60645790173E+01  0.73377371289E+01  0.17770000000E+01 0. -1.
         15    1    1    2    0    0 -0.83656426778E+01 -0.16727926478E+01 -0.43791624827E+02  0.44650267039E+02  0.17770000000E+01 0. -1.
</event>
<event>
 6    1  0.1226227E-002  0.1938006E+03  0.7546771E-02  0.1059799E+00
        -11   -1    0    0    0    0  0.00000000000E+00  0.00000000000E+00  0.18250000000E+03  0.18250000000E+03  0.00000000000E+00 0.  1.
         11   -1    0    0    0    0 -0.00000000000E+00 -0.00000000000E+00 -0.18250000000E+03  0.18250000000E+03  0.00000000000E+00 0.  1.
        -11    1    1    2    0    0 -0.12729792431E+01  0.52884969165E+01  0.17111296255E+03  0.17119940019E+03  0.00000000000E+00 0.  1.
         11    1    1    2    0    0  0.27879786259E+01  0.77589605019E+00 -0.15415164606E+03  0.15417880796E+03  0.00000000000E+00 0.  1.
        -15    1    1    2    0    0  0.79610398177E+01  0.52591474329E+01 -0.21897577898E+02  0.23952002704E+02  0.17770000000E+01 0. -1.
         15    1    1    2    0    0 -0.94760392005E+01 -0.11323540400E+02  0.49362614147E+01  0.15669789146E+02  0.17770000000E+01 0.  1.
</event>
<event>
 6    1  0.1226227E-002  0.1876753E+03  0.7546771E-02  0.1064408E+00
        -11   -1    0    0    0    0  0.00000000000E+00  0.00000000000E+00  0.18250000000E+03  0.18250000000E+03  0.00000000000E+00 0. -1.
         11   -1    0    0    0    0 -0.00000000000E+00 -0.00000000000E+00 -0.18250000000E+03  0.18250000000E+03  0.00000000000E+00 0.  1.
        -11    1    1    2    0    0  0.25483026240E+01 -0.19387025497E+01  0.17024329111E+03  0.17027339951E+03  0.00000000000E+00 0. -1.
         11    1    1    2    0    0  0.51731486956E+01 -0.28050441176E+01 -0.17722701438E+03  0.17732468628E+03  0.00000000000E+00 0.  1.
        -15    1    1    2    0    0 -0.51082066800E+01  0.62502432626E+01 -0.13387031141E+01  0.83731219599E+01  0.17770000000E+01 0. -1.
         15    1    1    2    0    0 -0.26132446396E+01 -0.15064965953E+01  0.83224263812E+01  0.90287922453E+01  0.17770000000E+01 0.  1.
</event>
<event>
 6    1  0.1226227E-002  0.1843218E+03  0.7546771E-02  0.1067014E+00
        -11   -1    0    0    0    0  0.00000000000E+00  0.00000000000E+00  0.18250000000E+03  0.18250000000E+03  0.00000000000E+00 0.  1.
         11   -1    0    0    0    0 -0.00000000000E+00 -0.00000000000E+00 -0.18250000000E+03  0.18250000000E+03  0.00000000000E+00 0.  1.
        -11    1    1    2    0    0  0.43996544333E+01 -0.18687945365E+00  0.12415006765E+03  0.12422814166E+03  0.00000000000E+00 0.  1.
         11    1    1    2    0    0 -0.43264080253E+01  0.18322347187E+01 -0.18061709126E+03  0.18067819057E+03  0.00000000000E+00 0.  1.
        -15    1    1    2    0    0  0.64109812712E+01 -0.86023794278E+01  0.28913831590E+02  0.30891244696E+02  0.17770000000E+01 0.  1.
         15    1    1    2    0    0 -0.64842276792E+01  0.69570241628E+01  0.27553192022E+02  0.29202423074E+02  0.17770000000E+01 0.  1.
</event>
<event>
 6    1  0.1226227E-002  0.1829706E+03  0.7546771E-02  0.1068081E+00
        -11   -1    0    0    0    0  0.00000000000E+00  0.00000000000E+00  0.18250000000E+03  0.18250000000E+03  0.00000000000E+00 0.  1.
         11   -1    0    0    0    0 -0.00000000000E+00 -0.00000000000E+00 -0.18250000000E+03  0.18250000000E+03  0.00000000000E+00 0. -1.
        -11    1    1    2    0    0  0.10612809447E+01 -0.43684370451E+01  0.18197386112E+03  0.18202938139E+03  0.00000000000E+00 0.  1.
         11    1    1    2    0    0  0.23082691520E+01  0.18689065809E+00 -0.15172071589E+03  0.15173838890E+03  0.00000000000E+00 0. -1.
        -15    1    1    2    0    0 -0.10269753316E+01 -0.22485945334E+00 -0.13628245637E+02  0.13783760308E+02  0.17770000000E+01 0.  1.
         15    1    1    2    0    0 -0.23425747651E+01  0.44064058404E+01 -0.16624899592E+02  0.17448469400E+02  0.17770000000E+01 0. -1.
</event>
<event>
 6    1  0.1226227E-002  0.1849323E+03  0.7546771E-02  0.1066535E+00
        -11   -1    0    0    0    0  0.00000000000E+00  0.00000000000E+00  0.18250000000E+03  0.18250000000E+03  0.00000000000E+00 0.  1.
         11   -1    0    0    0    0 -0.00000000000E+00 -0.00000000000E+00 -0.18250000000E+03  0.18250000000E+03  0.00000000000E+00 0.  1.
        -11    1    1    2    0    0 -0.18368142955E+02  0.70644124143E+01  0.17898905526E+03  0.18006769977E+03  0.00000000000E+00 0.  1.
         11    1    1    2    0    0  0.11984344253E+01  0.13902092974E+01 -0.11672281608E+03  0.11673724650E+03  0.00000000000E+00 0.  1.
        -15    1    1    2    0    0 -0.45463081128E+00 -0.82423986649E+01 -0.32287804871E+02  0.33373700684E+02  0.17770000000E+01 0.  1.
         15    1    1    2    0    0  0.17624339341E+02 -0.21222304681E+00 -0.29978434307E+02  0.34821353052E+02  0.17770000000E+01 0.  1.
</event>
<event>
 6    1  0.1226227E-002  0.1795214E+03  0.7546771E-02  0.1070851E+00
        -11   -1    0    0    0    0  0.00000000000E+00  0.00000000000E+00  0.18250000000E+03  0.18250000000E+03  0.00000000000E+00 0.  1.
         11   -1    0    0    0    0 -0.00000000000E+00 -0.00000000000E+00 -0.18250000000E+03  0.18250000000E+03  0.00000000000E+00 0.  1.
        -11    1    1    2    0    0  0.10099459706E+01 -0.25693191426E+01  0.17894830012E+03  0.17896959381E+03  0.00000000000E+00 0.  1.
         11    1    1    2    0    0  0.20404603818E+01  0.18888642642E+01 -0.18006716355E+03  0.18008863006E+03  0.00000000000E+00 0.  1.
        -15    1    1    2    0    0  0.14447088075E+00  0.11911594635E+01  0.41119702842E+00  0.21832417867E+01  0.17770000000E+01 0.  1.
         15    1    1    2    0    0 -0.31948772331E+01 -0.51070458514E+00  0.70766640189E+00  0.37585343479E+01  0.17770000000E+01 0.  1.
</event>
<event>
 6    1  0.1226227E-002  0.1827829E+03  0.7546771E-02  0.1068230E+00
        -11   -1    0    0    0    0  0.00000000000E+00  0.00000000000E+00  0.18250000000E+03  0.18250000000E+03  0.00000000000E+00 0. -1.
         11   -1    0    0    0    0 -0.00000000000E+00 -0.00000000000E+00 -0.18250000000E+03  0.18250000000E+03  0.00000000000E+00 0. -1.
        -11    1    1    2    0    0  0.18838728460E+01 -0.12546369977E+01  0.10371146863E+03  0.10373616446E+03  0.00000000000E+00 0. -1.
         11    1    1    2    0    0 -0.13769672111E+00 -0.34829189327E+01 -0.18218371221E+03  0.18221705376E+03  0.00000000000E+00 0. -1.
        -15    1    1    2    0    0 -0.34878378773E+01  0.50061944061E+01  0.67212833380E+02  0.67512589163E+02  0.17770000000E+01 0. -1.
         15    1    1    2    0    0  0.17416617524E+01 -0.26863847564E+00  0.11259410200E+02  0.11534192618E+02  0.17770000000E+01 0. -1.
</event>
<event>
 6    1  0.1226227E-002  0.1767396E+03  0.7546771E-02  0.1073135E+00
        -11   -1    0    0    0    0  0.00000000000E+00  0.00000000000E+00  0.18250000000E+03  0.18250000000E+03  0.00000000000E+00 0. -1.
         11   -1    0    0    0    0 -0.00000000000E+00 -0.00000000000E+00 -0.18250000000E+03  0.18250000000E+03  0.00000000000E+00 0. -1.
        -11    1    1    2    0    0  0.18473318846E+01 -0.81212882136E-01  0.62020249409E+01  0.64718114923E+01  0.00000000000E+00 0. -1.
         11    1    1    2    0    0  0.26944234260E+01  0.37142336447E+01 -0.17787307864E+03  0.17793225552E+03  0.00000000000E+00 0. -1.
        -15    1    1    2    0    0 -0.72125591688E+01 -0.26383359520E+01  0.17540022032E+03  0.17557726745E+03  0.17770000000E+01 0. -1.
         15    1    1    2    0    0  0.26708038582E+01 -0.99468481053E+00 -0.37291666192E+01  0.50186655392E+01  0.17770000000E+01 0.  1.
</event>
<event>
 6    1  0.1226227E-002  0.1825396E+03  0.7546771E-02  0.1068423E+00
        -11   -1    0    0    0    0  0.00000000000E+00  0.00000000000E+00  0.18250000000E+03  0.18250000000E+03  0.00000000000E+00 0. -1.
         11   -1    0    0    0    0 -0.00000000000E+00 -0.00000000000E+00 -0.18250000000E+03  0.18250000000E+03  0.00000000000E+00 0.  1.
        -11    1    1    2    0    0  0.51283199459E+00  0.84223496269E+00  0.20212969725E+02  0.20237008214E+02  0.00000000000E+00 0. -1.
         11    1    1    2    0    0 -0.63766165872E+00 -0.25510595807E+01 -0.18244146656E+03  0.18246041554E+03  0.00000000000E+00 0.  1.
        -15    1    1    2    0    0 -0.68543363394E+00  0.18703971875E+01  0.11866805391E+03  0.11869807476E+03  0.17770000000E+01 0. -1.
         15    1    1    2    0    0  0.81026329807E+00 -0.16157256946E+00  0.43560442933E+02  0.43604501486E+02  0.17770000000E+01 0.  1.
</event>
<event>
 6    1  0.1226227E-002  0.1836211E+03  0.7546771E-02  0.1067566E+00
        -11   -1    0    0    0    0  0.00000000000E+00  0.00000000000E+00  0.18250000000E+03  0.18250000000E+03  0.00000000000E+00 0. -1.
         11   -1    0    0    0    0 -0.00000000000E+00 -0.00000000000E+00 -0.18250000000E+03  0.18250000000E+03  0.00000000000E+00 0. -1.
        -11    1    1    2    0    0 -0.29304067638E+01 -0.36848612331E+00  0.16467287578E+03  0.16469935970E+03  0.00000000000E+00 0. -1.
         11    1    1    2    0    0  0.20800227356E+01  0.36931579532E+01 -0.18132938170E+03  0.18137891436E+03  0.00000000000E+00 0. -1.
        -15    1    1    2    0    0  0.33630709556E+01  0.14193325224E+00  0.10809509067E+02  0.11460087546E+02  0.17770000000E+01 0. -1.
         15    1    1    2    0    0 -0.25126869274E+01 -0.34666050821E+01  0.58469968455E+01  0.74616383926E+01  0.17770000000E+01 0. -1.
</event>
<event>
 6    1  0.1226227E-002  0.1828172E+03  0.7546771E-02  0.1068203E+00
        -11   -1    0    0    0    0  0.00000000000E+00  0.00000000000E+00  0.18250000000E+03  0.18250000000E+03  0.00000000000E+00 0.  1.
         11   -1    0    0    0    0 -0.00000000000E+00 -0.00000000000E+00 -0.18250000000E+03  0.18250000000E+03  0.00000000000E+00 0.  1.
        -11    1    1    2    0    0  0.45707533648E+01  0.85469013569E+00  0.94925461659E+02  0.95039284261E+02  0.00000000000E+00 0.  1.
         11    1    1    2    0    0  0.30546843818E+00  0.52476507863E+01 -0.18210696995E+03  0.18218281931E+03  0.00000000000E+00 0.  1.
        -15    1    1    2    0    0 -0.38305713696E+01 -0.17957943255E+01  0.25322810814E+02  0.25735202171E+02  0.17770000000E+01 0.  1.
         15    1    1    2    0    0 -0.10456504334E+01 -0.43065465964E+01  0.61858697473E+02  0.62042694255E+02  0.17770000000E+01 0. -1.
</event>
<event>
 6    1  0.1226227E-002  0.1759017E+03  0.7546771E-02  0.1073832E+00
        -11   -1    0    0    0    0  0.00000000000E+00  0.00000000000E+00  0.18250000000E+03  0.18250000000E+03  0.00000000000E+00 0. -1.
         11   -1    0    0    0    0 -0.00000000000E+00 -0.00000000000E+00 -0.18250000000E+03  0.18250000000E+03  0.00000000000E+00 0.  1.
        -11    1    1    2    0    0 -0.49122796296E+01  0.29678021380E-01  0.17548805907E+03  0.17555680063E+03  0.00000000000E+00 0. -1.
         11    1    1    2    0    0  0.62569213339E+00 -0.27758969530E+01 -0.17626139080E+03  0.17628435830E+03  0.00000000000E+00 0.  1.
        -15    1    1    2    0    0  0.45365730855E+00  0.14769029672E+01 -0.52144755591E+01  0.57214973289E+01  0.17770000000E+01 0. -1.
         15    1    1    2    0    0  0.38329301876E+01  0.12693159644E+01  0.59878072895E+01  0.74373437447E+01  0.17770000000E+01 0.  1.
</event>
<event>
 6    1  0.1226227E-002  0.1828363E+03  0.7546771E-02  0.1068187E+00
        -11   -1    0    0    0    0  0.00000000000E+00  0.00000000000E+00  0.18250000000E+03  0.18250000000E+03  0.00000000000E+00 0. -1.
         11   -1    0    0    0    0 -0.00000000000E+00 -0.00000000000E+00 -0.18250000000E+03  0.18250000000E+03  0.00000000000E+00 0.  1.
        -11    1    1    2    0    0  0.53777645367E+01  0.41794542389E+01  0.18203633370E+03  0.18216370378E+03  0.00000000000E+00 0. -1.
         11    1    1    2    0    0 -0.49277814300E+01 -0.73148684293E+00 -0.16092526760E+03  0.16100235978E+03  0.00000000000E+00 0.  1.
        -15    1    1    2    0    0 -0.10157223975E+01 -0.16458967554E+01 -0.14432578857E+02  0.14669619271E+02  0.17770000000E+01 0. -1.
         15    1    1    2    0    0  0.56573929082E+00 -0.18020706405E+01 -0.66784872483E+01  0.71643171667E+01  0.17770000000E+01 0.  1.
</event>
<event>
 6    1  0.1226227E-002  0.1826731E+03  0.7546771E-02  0.1068317E+00
        -11   -1    0    0    0    0  0.00000000000E+00  0.00000000000E+00  0.18250000000E+03  0.18250000000E+03  0.00000000000E+00 0. -1.
         11   -1    0    0    0    0 -0.00000000000E+00 -0.00000000000E+00 -0.18250000000E+03  0.18250000000E+03  0.00000000000E+00 0.  1.
        -11    1    1    2    0    0  0.12851625164E+01  0.22300139821E+01  0.18230877621E+03  0.18232694394E+03  0.00000000000E+00 0. -1.
         11    1    1    2    0    0  0.18134010345E+01  0.97300152116E+00 -0.11971083279E+03  0.11972852059E+03  0.00000000000E+00 0.  1.
        -15    1    1    2    0    0 -0.25858233833E+00 -0.18731951265E+01 -0.37425267630E+02  0.37515118432E+02  0.17770000000E+01 0.  1.
         15    1    1    2    0    0 -0.28399812126E+01 -0.13298203768E+01 -0.25172675789E+02  0.25429417038E+02  0.17770000000E+01 0.  1.
</event>
<event>
 6    1  0.1226227E-002  0.1870696E+03  0.7546771E-02  0.1064874E+00
        -11   -1    0    0    0    0  0.00000000000E+00  0.00000000000E+00  0.18250000000E+03  0.18250000000E+03  0.00000000000E+00 0.  1.
         11   -1    0    0    0    0 -0.00000000000E+00 -0.00000000000E+00 -0.18250000000E+03  0.18250000000E+03  0.00000000000E+00 0.  1.
        -11    1    1    2    0    0  0.18177844144E+01 -0.29053354068E+01  0.14982705726E+03  0.14986624837E+03  0.00000000000E+00 0.  1.
         11    1    1    2    0    0 -0.31532371436E+01 -0.25746822973E+01 -0.17788380254E+03  0.17793037711E+03  0.00000000000E+00 0.  1.
        -15    1    1    2    0    0  0.44495796124E+01  0.92505194775E+01  0.19694124375E+01  0.10602225412E+02  0.17770000000E+01 0.  1.
         15    1    1    2    0    0 -0.31141268831E+01 -0.37705017734E+01  0.26087332844E+02  0.26601149107E+02  0.17770000000E+01 0. -1.
</event>
<event>
 6    1  0.1226227E-002  0.1845306E+03  0.7546771E-02  0.1066850E+00
        -11   -1    0    0    0    0  0.00000000000E+00  0.00000000000E+00  0.18250000000E+03  0.18250000000E+03  0.00000000000E+00 0. -1.
         11   -1    0    0    0    0 -0.00000000000E+00 -0.00000000000E+00 -0.18250000000E+03  0.18250000000E+03  0.00000000000E+00 0. -1.
        -11    1    1    2    0    0 -0.50787455217E+01  0.44376804519E+01  0.18034338191E+03  0.18046944911E+03  0.00000000000E+00 0. -1.
         11    1    1    2    0    0 -0.21106113469E+01  0.51483897362E+00 -0.10124966900E+03  0.10127297375E+03  0.00000000000E+00 0. -1.
        -15    1    1    2    0    0  0.93465001885E+01  0.13476612728E+01 -0.10174879238E+02  0.13994968853E+02  0.17770000000E+01 0.  1.
         15    1    1    2    0    0 -0.21571433199E+01 -0.63001806983E+01 -0.68918833666E+02  0.69262608289E+02  0.17770000000E+01 0. -1.
</event>
<event>
 6    1  0.1226227E-002  0.1898395E+03  0.7546771E-02  0.1062758E+00
        -11   -1    0    0    0    0  0.00000000000E+00  0.00000000000E+00  0.18250000000E+03  0.18250000000E+03  0.00000000000E+00 0. -1.
         11   -1    0    0    0    0 -0.00000000000E+00 -0.00000000000E+00 -0.18250000000E+03  0.18250000000E+03  0.00000000000E+00 0. -1.
        -11    1    1    2    0    0 -0.27676409490E+01  0.18222413305E+01  0.17512918749E+03  0.17516053411E+03  0.00000000000E+00 0. -1.
         11    1    1    2    0    0 -0.67038463981E+00 -0.32129942404E+01 -0.17223346594E+03  0.17226473678E+03  0.00000000000E+00 0. -1.
        -15    1    1    2    0    0  0.37864900292E+01 -0.10494468621E+01  0.64436041350E+01  0.77534900984E+01  0.17770000000E+01 0. -1.
         15    1    1    2    0    0 -0.34846444032E+00  0.24401997719E+01 -0.93393256824E+01  0.98212390051E+01  0.17770000000E+01 0.  1.
</event>
<event>
 6    1  0.1226227E-002  0.1867443E+03  0.7546771E-02  0.1065126E+00
        -11   -1    0    0    0    0  0.00000000000E+00  0.00000000000E+00  0.18250000000E+03  0.18250000000E+03  0.00000000000E+00 0.  1.
         11   -1    0    0    0    0 -0.00000000000E+00 -0.00000000000E+00 -0.18250000000E+03  0.18250000000E+03  0.00000000000E+00 0.  1.
        -11    1    1    2    0    0  0.93964047726E+01 -0.27501246823E+01  0.17798659302E+03  0.17825566724E+03  0.00000000000E+00 0.  1.
         11    1    1    2    0    0  0.10187222976E+01  0.22057891372E+01 -0.13002392441E+03  0.13004662325E+03  0.00000000000E+00 0.  1.
        -15    1    1    2    0    0 -0.75916234930E+00 -0.20985667908E+01 -0.46308660411E+02  0.46396444564E+02  0.17770000000E+01 0. -1.
         15    1    1    2    0    0 -0.96559647209E+01  0.26429023359E+01 -0.16540081973E+01  0.10301264950E+02  0.17770000000E+01 0. -1.
</event>
<event>
 6    1  0.1226227E-002  0.1846692E+03  0.7546771E-02  0.1066741E+00
        -11   -1    0    0    0    0  0.00000000000E+00  0.00000000000E+00  0.18250000000E+03  0.18250000000E+03  0.00000000000E+00 0. -1.
         11   -1    0    0    0    0 -0.00000000000E+00 -0.00000000000E+00 -0.18250000000E+03  0.18250000000E+03  0.00000000000E+00 0. -1.
        -11    1    1    2    0    0  0.92369538237E+01 -0.13306133170E+01  0.16161024718E+03  0.16187947319E+03  0.00000000000E+00 0. -1.
         11    1    1    2    0    0 -0.41710985480E+01 -0.36299950932E+00 -0.18028213985E+03  0.18033075107E+03  0.00000000000E+00 0. -1.
        -15    1    1    2    0    0  0.27648436438E+01  0.22297127875E+01  0.10903815807E+02  0.11604607173E+02  0.17770000000E+01 0.  1.
         15    1    1    2    0    0 -0.78306989194E+01 -0.53609996121E+00  0.77680768622E+01  0.11185168567E+02  0.17770000000E+01 0. -1.
</event>
<event>
 6    1  0.1226227E-002  0.1842334E+03  0.7546771E-02  0.1067083E+00
        -11   -1    0    0    0    0  0.00000000000E+00  0.00000000000E+00  0.18250000000E+03  0.18250000000E+03  0.00000000000E+00 0. -1.
         11   -1    0    0    0    0 -0.00000000000E+00 -0.00000000000E+00 -0.18250000000E+03  0.18250000000E+03  0.00000000000E+00 0. -1.
        -11    1    1    2    0    0  0.26576209873E+01  0.34527819686E+00  0.18074674255E+03  0.18076660950E+03  0.00000000000E+00 0. -1.
         11    1    1    2    0    0  0.17962701056E+01  0.28822434939E+01 -0.16649183237E+03  0.16652646685E+03  0.00000000000E+00 0. -1.
        -15    1    1    2    0    0 -0.61324905902E+01 -0.54018013864E+00 -0.11435920269E+02  0.13108670292E+02  0.17770000000E+01 0. -1.
         15    1    1    2    0    0  0.16785994974E+01 -0.26873415521E+01 -0.28189899089E+01  0.45982533637E+01  0.17770000000E+01 0. -1.
</event>
<event>
 6    1  0.1226227E-002  0.1853900E+03  0.7546771E-02  0.1066177E+00
        -11   -1    0    0    0    0  0.00000000000E+00  0.00000000000E+00  0.18250000000E+03  0.18250000000E+03  0.00000000000E+00 0. -1.
         11   -1    0    0    0    0 -0.00000000000E+00 -0.00000000000E+00 -0.18250000000E+03  0.18250000000E+03  0.00000000000E+00 0.  1.
        -11    1    1    2    0    0  0.20825164432E+01 -0.10938674967E+02  0.15012719431E+03  0.15053958269E+03  0.00000000000E+00 0. -1.
         11    1    1    2    0    0 -0.16703525047E+01  0.27134859128E+01 -0.17958178115E+03  0.17961004762E+03  0.00000000000E+00 0.  1.
        -15    1    1    2    0    0 -0.41271527509E+01  0.91143130175E+01  0.28858579601E+02  0.30595415297E+02  0.17770000000E+01 0. -1.
         15    1    1    2    0    0  0.37149888124E+01 -0.88912396373E+00  0.59600724110E+00  0.42549543981E+01  0.17770000000E+01 0.  1.
</event>
<event>
 6    1  0.1226227E-002  0.1867902E+03  0.7546771E-02  0.1065090E+00
        -11   -1    0    0    0    0  0.00000000000E+00  0.00000000000E+00  0.18250000000E+03  0.18250000000E+03  0.00000000000E+00 0.  1.
         11   -1    0    0    0    0 -0.00000000000E+00 -0.00000000000E+00 -0.18250000000E+03  0.18250000000E+03  0.00000000000E+00 0. -1.
        -11    1    1    2    0    0 -0.23459585585E+01 -0.60358012901E+00  0.68045340122E+02  0.68088443534E+02  0.00000000000E+00 0.  1.
         11    1    1    2    0    0 -0.22454408521E+01 -0.46651288451E+01 -0.17813460494E+03  0.17820982831E+03  0.00000000000E+00 0. -1.
        -15    1    1    2    0    0  0.38337722064E+01  0.45513947455E+01 -0.20525940066E+01  0.65409383590E+01  0.17770000000E+01 0. -1.
         15    1    1    2    0    0  0.75762720417E+00  0.71731422861E+00  0.11214185882E+03  0.11216078979E+03  0.17770000000E+01 0.  1.
</event>
<event>
 6    1  0.1226227E-002  0.1826694E+03  0.7546771E-02  0.1068320E+00
        -11   -1    0    0    0    0  0.00000000000E+00  0.00000000000E+00  0.18250000000E+03  0.18250000000E+03  0.00000000000E+00 0.  1.
         11   -1    0    0    0    0 -0.00000000000E+00 -0.00000000000E+00 -0.18250000000E+03  0.18250000000E+03  0.00000000000E+00 0. -1.
        -11    1    1    2    0    0  0.24694851966E+01 -0.26107253213E+00  0.18231371469E+03  0.18233062574E+03  0.00000000000E+00 0.  1.
         11    1    1    2    0    0 -0.14920127689E+01 -0.12504375982E+01 -0.13384722663E+03  0.13386138267E+03  0.00000000000E+00 0. -1.
        -15    1    1    2    0    0  0.24420452627E+00 -0.63966804033E+00 -0.78593187236E+01  0.80867441440E+01  0.17770000000E+01 0.  1.
         15    1    1    2    0    0 -0.12216769539E+01  0.21511781706E+01 -0.40607169346E+02  0.40721247444E+02  0.17770000000E+01 0.  1.
</event>
<event>
 6    1  0.1226227E-002  0.1974119E+03  0.7546771E-02  0.1057168E+00
        -11   -1    0    0    0    0  0.00000000000E+00  0.00000000000E+00  0.18250000000E+03  0.18250000000E+03  0.00000000000E+00 0.  1.
         11   -1    0    0    0    0 -0.00000000000E+00 -0.00000000000E+00 -0.18250000000E+03  0.18250000000E+03  0.00000000000E+00 0. -1.
        -11    1    1    2    0    0  0.40176476201E+01 -0.63188024281E+01  0.16742073064E+03  0.16758809565E+03  0.00000000000E+00 0.  1.
         11    1    1    2    0    0 -0.24888908585E+01  0.58053282386E+01 -0.95999518965E+02  0.96207089422E+02  0.00000000000E+00 0. -1.
        -15    1    1    2    0    0  0.19365478420E+01  0.92499407908E+01  0.13040844164E+02  0.16202869119E+02  0.17770000000E+01 0.  1.
         15    1    1    2    0    0 -0.34653046037E+01 -0.87364666013E+01 -0.84462055841E+02  0.85001945804E+02  0.17770000000E+01 0. -1.
</event>
<event>
 6    1  0.1226227E-002  0.1849250E+03  0.7546771E-02  0.1066541E+00
        -11   -1    0    0    0    0  0.00000000000E+00  0.00000000000E+00  0.18250000000E+03  0.18250000000E+03  0.00000000000E+00 0. -1.
         11   -1    0    0    0    0 -0.00000000000E+00 -0.00000000000E+00 -0.18250000000E+03  0.18250000000E+03  0.00000000000E+00 0. -1.
        -11    1    1    2    0    0  0.43107425147E+01 -0.34751363842E+01  0.17297207121E+03  0.17306067287E+03  0.00000000000E+00 0. -1.
         11    1    1    2    0    0  0.13375560559E+01  0.61561847550E+01 -0.17996473183E+03  0.18007496319E+03  0.00000000000E+00 0. -1.
        -15    1    1    2    0    0 -0.15084015381E+01 -0.31784218132E+01  0.53915265267E+00  0.39781974568E+01  0.17770000000E+01 0. -1.
         15    1    1    2    0    0 -0.41398970325E+01  0.49737344235E+00  0.64535079635E+01  0.78861664841E+01  0.17770000000E+01 0.  1.
</event>
<event>
 6    1  0.1226227E-002  0.1827264E+03  0.7546771E-02  0.1068275E+00
        -11   -1    0    0    0    0  0.00000000000E+00  0.00000000000E+00  0.18250000000E+03  0.18250000000E+03  0.00000000000E+00 0. -1.
         11   -1    0    0    0    0 -0.00000000000E+00 -0.00000000000E+00 -0.18250000000E+03  0.18250000000E+03  0.00000000000E+00 0. -1.
        -11    1    1    2    0    0  0.29083732160E+01  0.42969225222E+01  0.18219975901E+03  0.18227362497E+03  0.00000000000E+00 0. -1.
         11    1    1    2    0    0 -0.73641709306E+00  0.67233935983E+00 -0.38945585522E+02  0.38958349323E+02  0.00000000000E+00 0. -1.
        -15    1    1    2    0    0 -0.19240163788E+01  0.29557611713E+01 -0.54354716842E+02  0.54497993863E+02  0.17770000000E+01 0.  1.
         15    1    1    2    0    0 -0.24793974418E+00 -0.79250230533E+01 -0.88899456644E+02  0.89270031843E+02  0.17770000000E+01 0. -1.
</event>
<event>
 6    1  0.1902628E-002  0.1826034E+03  0.7546771E-02  0.1068373E+00
        -11   -1    0    0    0    0  0.00000000000E+00  0.00000000000E+00  0.18250000000E+03  0.18250000000E+03  0.00000000000E+00 0.  1.
         11   -1    0    0    0    0 -0.00000000000E+00 -0.00000000000E+00 -0.18250000000E+03  0.18250000000E+03  0.00000000000E+00 0. -1.
        -11    1    1    2    0    0 -0.10760519473E+00  0.31597773992E+01  0.18236922867E+03  0.18239663193E+03  0.00000000000E+00 0.  1.
         11    1    1    2    0    0  0.89063746541E+00 -0.38122093701E+00 -0.60882718958E+02  0.60890426441E+02  0.00000000000E+00 0. -1.
        -15    1    1    2    0    0  0.89142531716E+00 -0.17877585293E+01 -0.18447398591E+02  0.18640143868E+02  0.17770000000E+01 0. -1.
         15    1    1    2    0    0 -0.16744575878E+01 -0.99079793297E+00 -0.10303911112E+03  0.10307279776E+03  0.17770000000E+01 0.  1.
</event>
<event>
 6    1  0.1226227E-002  0.1862382E+03  0.7546771E-02  0.1065518E+00
        -11   -1    0    0    0    0  0.00000000000E+00  0.00000000000E+00  0.18250000000E+03  0.18250000000E+03  0.00000000000E+00 0.  1.
         11   -1    0    0    0    0 -0.00000000000E+00 -0.00000000000E+00 -0.18250000000E+03  0.18250000000E+03  0.00000000000E+00 0.  1.
        -11    1    1    2    0    0  0.45328397416E+01  0.27968649250E+01  0.15159794073E+03  0.15169147874E+03  0.00000000000E+00 0.  1.
         11    1    1    2    0    0  0.11983318056E+01 -0.26595292337E+01 -0.17873796789E+03  0.17876176957E+03  0.00000000000E+00 0.  1.
        -15    1    1    2    0    0 -0.42172376292E+01 -0.28035454695E+01  0.29696203202E+02  0.30177262534E+02  0.17770000000E+01 0. -1.
         15    1    1    2    0    0 -0.15139339180E+01  0.26662097782E+01 -0.25561760460E+01  0.43694891541E+01  0.17770000000E+01 0. -1.
</event>
<event>
 6    1  0.1226227E-002  0.1586951E+03  0.7546771E-02  0.1089160E+00
        -11   -1    0    0    0    0  0.00000000000E+00  0.00000000000E+00  0.18250000000E+03  0.18250000000E+03  0.00000000000E+00 0.  1.
         11   -1    0    0    0    0 -0.00000000000E+00 -0.00000000000E+00 -0.18250000000E+03  0.18250000000E+03  0.00000000000E+00 0.  1.
        -11    1    1    2    0    0 -0.37614043936E+00  0.56339298573E+01  0.17407284168E+03  0.17416439607E+03  0.00000000000E+00 0.  1.
         11    1    1    2    0    0 -0.55111416372E+00  0.12649126592E+01 -0.23577889762E+02  0.23618226362E+02  0.00000000000E+00 0.  1.
        -15    1    1    2    0    0 -0.10104846387E+02 -0.18434694277E+02 -0.61414495264E+01  0.21973188318E+02  0.17770000000E+01 0. -1.
         15    1    1    2    0    0  0.11032100990E+02  0.11535851760E+02 -0.14435350239E+03  0.14524418925E+03  0.17770000000E+01 0.  1.
</event>
<event>
 6    1  0.1226227E-002  0.1837694E+03  0.7546771E-02  0.1067449E+00
        -11   -1    0    0    0    0  0.00000000000E+00  0.00000000000E+00  0.18250000000E+03  0.18250000000E+03  0.00000000000E+00 0.  1.
         11   -1    0    0    0    0 -0.00000000000E+00 -0.00000000000E+00 -0.18250000000E+03  0.18250000000E+03  0.00000000000E+00 0.  1.
        -11    1    1    2    0    0  0.36540274314E+01  0.80364959120E+01  0.12902333417E+03  0.12932500896E+03  0.00000000000E+00 0.  1.
         11    1    1    2    0    0  0.15783792050E+01 -0.40733423724E+01 -0.18117794242E+03  0.18123059957E+03  0.00000000000E+00 0.  1.
        -15    1    1    2    0    0  0.71800886679E+00  0.36189039357E+01  0.60235760553E+01  0.72837627586E+01  0.17770000000E+01 0. -1.
         15    1    1    2    0    0 -0.59504155031E+01 -0.75820574753E+01  0.46131032194E+02  0.47160628712E+02  0.17770000000E+01 0.  1.
</event>
<event>
 6    1  0.1226227E-002  0.1929860E+03  0.7546771E-02  0.1060401E+00
        -11   -1    0    0    0    0  0.00000000000E+00  0.00000000000E+00  0.18250000000E+03  0.18250000000E+03  0.00000000000E+00 0. -1.
         11   -1    0    0    0    0 -0.00000000000E+00 -0.00000000000E+00 -0.18250000000E+03  0.18250000000E+03  0.00000000000E+00 0.  1.
        -11    1    1    2    0    0  0.15594630438E+02  0.59776457034E+01  0.10375684206E+03  0.10509237375E+03  0.00000000000E+00 0. -1.
         11    1    1    2    0    0  0.43200679597E+01 -0.15272598051E+01 -0.17195292685E+03  0.17201396618E+03  0.00000000000E+00 0.  1.
        -15    1    1    2    0    0 -0.21336862285E+02  0.12074460501E+01  0.75437510939E+02  0.78426369314E+02  0.17770000000E+01 0. -1.
         15    1    1    2    0    0  0.14221638871E+01 -0.56578319484E+01 -0.72414261518E+01  0.94672907524E+01  0.17770000000E+01 0.  1.
</event>
<event>
 6    1  0.1226227E-002  0.1734988E+03  0.7546771E-02  0.1075854E+00
        -11   -1    0    0    0    0  0.00000000000E+00  0.00000000000E+00  0.18250000000E+03  0.18250000000E+03  0.00000000000E+00 0.  1.
         11   -1    0    0    0    0 -0.00000000000E+00 -0.00000000000E+00 -0.18250000000E+03  0.18250000000E+03  0.00000000000E+00 0. -1.
        -11    1    1    2    0    0  0.12923157587E+01  0.58477463475E+01  0.17563429654E+03  0.17573637170E+03  0.00000000000E+00 0.  1.
         11    1    1    2    0    0  0.80396066254E+00  0.22421345545E+01 -0.17137147074E+03  0.17138802322E+03  0.00000000000E+00 0. -1.
        -15    1    1    2    0    0  0.31247839192E+01 -0.95390881084E+01  0.83321282078E+00  0.10227924965E+02  0.17770000000E+01 0. -1.
         15    1    1    2    0    0 -0.52210603405E+01  0.14492072064E+01 -0.50960386162E+01  0.76476801178E+01  0.17770000000E+01 0.  1.
</event>
<event>
 6    1  0.1226227E-002  0.1933777E+03  0.7546771E-02  0.1060111E+00
        -11   -1    0    0    0    0  0.00000000000E+00  0.00000000000E+00  0.18250000000E+03  0.18250000000E+03  0.00000000000E+00 0. -1.
         11   -1    0    0    0    0 -0.00000000000E+00 -0.00000000000E+00 -0.18250000000E+03  0.18250000000E+03  0.00000000000E+00 0. -1.
        -11    1    1    2    0    0 -0.49866212466E+01  0.28886470792E+01  0.17152554828E+03  0.17162233067E+03  0.00000000000E+00 0. -1.
         11    1    1    2    0    0 -0.96001007856E+01 -0.29438218379E+02 -0.10361728064E+03  0.10814486342E+03  0.00000000000E+00 0. -1.
        -15    1    1    2    0    0  0.92212473609E+01  0.10626554761E+01  0.28018452068E+01  0.98574187856E+01  0.17770000000E+01 0.  1.
         15    1    1    2    0    0  0.53654746713E+01  0.25486915824E+02 -0.70710112847E+02  0.75375387126E+02  0.17770000000E+01 0. -1.
</event>
<event>
 6    1  0.1226227E-002  0.1866608E+03  0.7546771E-02  0.1065190E+00
        -11   -1    0    0    0    0  0.00000000000E+00  0.00000000000E+00  0.18250000000E+03  0.18250000000E+03  0.00000000000E+00 0.  1.
         11   -1    0    0    0    0 -0.00000000000E+00 -0.00000000000E+00 -0.18250000000E+03  0.18250000000E+03  0.00000000000E+00 0.  1.
        -11    1    1    2    0    0 -0.85065768956E+01  0.20147192284E+01  0.17812481910E+03  0.17833920523E+03  0.00000000000E+00 0.  1.
         11    1    1    2    0    0  0.10716409778E+01  0.14499166128E+01 -0.10175392605E+03  0.10176989800E+03  0.00000000000E+00 0.  1.
        -15    1    1    2    0    0  0.50025777524E+01  0.47284642470E+01 -0.75811032574E+02  0.76143644169E+02  0.17770000000E+01 0.  1.
         15    1    1    2    0    0  0.24323581654E+01 -0.81931000882E+01 -0.55986047043E+00  0.87472525999E+01  0.17770000000E+01 0. -1.
</event>
<event>
 6    1  0.1226227E-002  0.1829828E+03  0.7546771E-02  0.1068071E+00
        -11   -1    0    0    0    0  0.00000000000E+00  0.00000000000E+00  0.18250000000E+03  0.18250000000E+03  0.00000000000E+00 0. -1.
         11   -1    0    0    0    0 -0.00000000000E+00 -0.00000000000E+00 -0.18250000000E+03  0.18250000000E+03  0.00000000000E+00 0. -1.
        -11    1    1    2    0    0 -0.24916211131E+01  0.92407886300E+00  0.18199779994E+03  0.18201720051E+03  0.00000000000E+00 0. -1.
         11    1    1    2    0    0 -0.31360079431E+00  0.28189754727E+01 -0.15465599387E+03  0.15468200092E+03  0.00000000000E+00 0. -1.
        -15    1    1    2    0    0  0.28460688075E+01 -0.28212410054E+00 -0.14296763543E+02  0.14687916069E+02  0.17770000000E+01 0. -1.
         15    1    1    2    0    0 -0.40846900180E-01 -0.34609302352E+01 -0.13045042525E+02  0.13612882503E+02  0.17770000000E+01 0.  1.
</event>
<event>
 6    1  0.1226227E-002  0.1835735E+03  0.7546771E-02  0.1067604E+00
        -11   -1    0    0    0    0  0.00000000000E+00  0.00000000000E+00  0.18250000000E+03  0.18250000000E+03  0.00000000000E+00 0.  1.
         11   -1    0    0    0    0 -0.00000000000E+00 -0.00000000000E+00 -0.18250000000E+03  0.18250000000E+03  0.00000000000E+00 0.  1.
        -11    1    1    2    0    0  0.67410771193E+00 -0.31650400994E+01  0.18139768618E+03  0.18142654836E+03  0.00000000000E+00 0.  1.
         11    1    1    2    0    0 -0.22588532317E+01 -0.68364291607E+00 -0.15738438808E+03  0.15740208193E+03  0.00000000000E+00 0.  1.
        -15    1    1    2    0    0  0.21065277061E+01  0.33518576868E+01 -0.23855971171E+02  0.24247422511E+02  0.17770000000E+01 0. -1.
         15    1    1    2    0    0 -0.52178218631E+00  0.49682532858E+00 -0.15732692579E+00  0.19239471975E+01  0.17770000000E+01 0.  1.
</event>
<event>
 6    1  0.1226227E-002  0.1855056E+03  0.7546771E-02  0.1066087E+00
        -11   -1    0    0    0    0  0.00000000000E+00  0.00000000000E+00  0.18250000000E+03  0.18250000000E+03  0.00000000000E+00 0. -1.
         11   -1    0    0    0    0 -0.00000000000E+00 -0.00000000000E+00 -0.18250000000E+03  0.18250000000E+03  0.00000000000E+00 0.  1.
        -11    1    1    2    0    0  0.51432522263E+01 -0.63201701048E+01  0.17930936568E+03  0.17949441834E+03  0.00000000000E+00 0. -1.
         11    1    1    2    0    0  0.39931828685E+01 -0.59606983264E+01 -0.13421320129E+03  0.13440483189E+03  0.00000000000E+00 0.  1.
        -15    1    1    2    0    0  0.54944197885E+01  0.39087422138E+01 -0.11005660798E+02  0.13028784022E+02  0.17770000000E+01 0.  1.
         15    1    1    2    0    0 -0.14630854883E+02  0.83721262174E+01 -0.34090503594E+02  0.38071965753E+02  0.17770000000E+01 0. -1.
</event>
<event>
 6    1  0.1226227E-002  0.1828947E+03  0.7546771E-02  0.1068141E+00
        -11   -1    0    0    0    0  0.00000000000E+00  0.00000000000E+00  0.18250000000E+03  0.18250000000E+03  0.00000000000E+00 0.  1.
         11   -1    0    0    0    0 -0.00000000000E+00 -0.00000000000E+00 -0.18250000000E+03  0.18250000000E+03  0.00000000000E+00 0. -1.
        -11    1    1    2    0    0  0.86114373293E+00  0.15058819654E+00  0.53428760875E+02  0.53435912399E+02  0.00000000000E+00 0.  1.
         11    1    1    2    0    0 -0.74501788657E+01  0.68463325223E+01 -0.18182397747E+03  0.18210528882E+03  0.00000000000E+00 0. -1.
        -15    1    1    2    0    0 -0.22197092927E+01  0.22555744788E+01  0.31723237343E+02  0.31930177609E+02  0.17770000000E+01 0.  1.
         15    1    1    2    0    0  0.88087444255E+01 -0.92524951976E+01  0.96671979252E+02  0.97528621170E+02  0.17770000000E+01 0.  1.
</event>
<event>
 6    1  0.1226227E-002  0.1850458E+03  0.7546771E-02  0.1066446E+00
        -11   -1    0    0    0    0  0.00000000000E+00  0.00000000000E+00  0.18250000000E+03  0.18250000000E+03  0.00000000000E+00 0.  1.
         11   -1    0    0    0    0 -0.00000000000E+00 -0.00000000000E+00 -0.18250000000E+03  0.18250000000E+03  0.00000000000E+00 0. -1.
        -11    1    1    2    0    0 -0.54837731366E+01  0.26974778325E+01  0.17268959442E+03  0.17279769726E+03  0.00000000000E+00 0.  1.
         11    1    1    2    0    0 -0.13530502617E+01 -0.20995563013E+01 -0.17993690059E+03  0.17995423606E+03  0.00000000000E+00 0. -1.
        -15    1    1    2    0    0  0.68668355440E+01 -0.11083749945E+01  0.74995275532E+01  0.10381838375E+02  0.17770000000E+01 0.  1.
         15    1    1    2    0    0 -0.30012145692E-01  0.51045346329E+00 -0.25222138350E+00  0.18662283069E+01  0.17770000000E+01 0. -1.
</event>
<event>
 6    1  0.1226227E-002  0.1833149E+03  0.7546771E-02  0.1067808E+00
        -11   -1    0    0    0    0  0.00000000000E+00  0.00000000000E+00  0.18250000000E+03  0.18250000000E+03  0.00000000000E+00 0. -1.
         11   -1    0    0    0    0 -0.00000000000E+00 -0.00000000000E+00 -0.18250000000E+03  0.18250000000E+03  0.00000000000E+00 0. -1.
        -11    1    1    2    0    0  0.46877655231E+00  0.34422386482E+01  0.18165186173E+03  0.18168507817E+03  0.00000000000E+00 0. -1.
         11    1    1    2    0    0 -0.30983534127E+01  0.34204768246E+00 -0.16105742674E+03  0.16108758953E+03  0.00000000000E+00 0. -1.
        -15    1    1    2    0    0 -0.10146874380E+01 -0.30186955458E+01 -0.56580349624E+01  0.67315081543E+01  0.17770000000E+01 0.  1.
         15    1    1    2    0    0  0.36442642984E+01 -0.76559078490E+00 -0.14936400024E+02  0.15495824154E+02  0.17770000000E+01 0.  1.
</event>
<event>
 6    1  0.1226227E-002  0.1828203E+03  0.7546771E-02  0.1068200E+00
        -11   -1    0    0    0    0  0.00000000000E+00  0.00000000000E+00  0.18250000000E+03  0.18250000000E+03  0.00000000000E+00 0.  1.
         11   -1    0    0    0    0 -0.00000000000E+00 -0.00000000000E+00 -0.18250000000E+03  0.18250000000E+03  0.00000000000E+00 0.  1.
        -11    1    1    2    0    0 -0.23058648928E+01  0.12490611060E+01  0.18216083582E+03  0.18217971148E+03  0.00000000000E+00 0.  1.
         11    1    1    2    0    0  0.32769491064E+00 -0.33357949200E+01 -0.10408505711E+03  0.10413901299E+03  0.00000000000E+00 0.  1.
        -15    1    1    2    0    0  0.49538056101E+00 -0.79238946724E+00 -0.66501556983E+02  0.66531857731E+02  0.17770000000E+01 0.  1.
         15    1    1    2    0    0  0.14827894211E+01  0.28791232813E+01 -0.11574221729E+02  0.12149417804E+02  0.17770000000E+01 0. -1.
</event>
<event>
 6    1  0.1226227E-002  0.1845918E+03  0.7546771E-02  0.1066802E+00
        -11   -1    0    0    0    0  0.00000000000E+00  0.00000000000E+00  0.18250000000E+03  0.18250000000E+03  0.00000000000E+00 0. -1.
         11   -1    0    0    0    0 -0.00000000000E+00 -0.00000000000E+00 -0.18250000000E+03  0.18250000000E+03  0.00000000000E+00 0. -1.
        -11    1    1    2    0    0 -0.11287960879E+02  0.35162620533E+01  0.10507002017E+03  0.10573311354E+03  0.00000000000E+00 0. -1.
         11    1    1    2    0    0 -0.69230016120E+01 -0.35222683851E+01 -0.18024094010E+03  0.18040823377E+03  0.00000000000E+00 0. -1.
        -15    1    1    2    0    0  0.46254882061E+00 -0.24700362722E+01  0.24290436576E+01  0.39208433644E+01  0.17770000000E+01 0. -1.
         15    1    1    2    0    0  0.17748413670E+02  0.24760426040E+01  0.72741876264E+02  0.74937809324E+02  0.17770000000E+01 0.  1.
</event>
<event>
 6    1  0.1226227E-002  0.1827953E+03  0.7546771E-02  0.1068220E+00
        -11   -1    0    0    0    0  0.00000000000E+00  0.00000000000E+00  0.18250000000E+03  0.18250000000E+03  0.00000000000E+00 0. -1.
         11   -1    0    0    0    0 -0.00000000000E+00 -0.00000000000E+00 -0.18250000000E+03  0.18250000000E+03  0.00000000000E+00 0.  1.
        -11    1    1    2    0    0 -0.74992323912E+00  0.16314254859E+00  0.33201339418E+02  0.33210208363E+02  0.00000000000E+00 0. -1.
         11    1    1    2    0    0 -0.47738991473E+01 -0.19535755956E+01 -0.18213165740E+03  0.18220468489E+03  0.00000000000E+00 0.  1.
        -15    1    1    2    0    0  0.51310484934E-01  0.21760110070E+01  0.70740359537E+01  0.76116601568E+01  0.17770000000E+01 0.  1.
         15    1    1    2    0    0  0.54725119015E+01 -0.38557795996E+00  0.14185628203E+03  0.14197344659E+03  0.17770000000E+01 0. -1.
</event>
<event>
 6    1  0.1226227E-002  0.1937707E+03  0.7546771E-02  0.1059821E+00
        -11   -1    0    0    0    0  0.00000000000E+00  0.00000000000E+00  0.18250000000E+03  0.18250000000E+03  0.00000000000E+00 0.  1.
         11   -1    0    0    0    0 -0.00000000000E+00 -0.00000000000E+00 -0.18250000000E+03  0.18250000000E+03  0.00000000000E+00 0. -1.
        -11    1    1    2    0    0  0.14236792087E+01  0.78665058574E+01  0.17104254636E+03  0.17122926573E+03  0.00000000000E+00 0.  1.
         11    1    1    2    0    0 -0.96098616026E+01 -0.25943252342E+01 -0.15911181060E+03  0.15942285983E+03  0.00000000000E+00 0. -1.
        -15    1    1    2    0    0  0.43706173139E+01 -0.10004736204E+02  0.78592084617E+01  0.13569153579E+02  0.17770000000E+01 0.  1.
         15    1    1    2    0    0  0.38155650800E+01  0.47325555809E+01 -0.19789944225E+02  0.20778720862E+02  0.17770000000E+01 0. -1.
</event>
<event>
 6    1  0.1226227E-002  0.1720378E+03  0.7546771E-02  0.1077102E+00
        -11   -1    0    0    0    0  0.00000000000E+00  0.00000000000E+00  0.18250000000E+03  0.18250000000E+03  0.00000000000E+00 0. -1.
         11   -1    0    0    0    0 -0.00000000000E+00 -0.00000000000E+00 -0.18250000000E+03  0.18250000000E+03  0.00000000000E+00 0. -1.
        -11    1    1    2    0    0 -0.36211402407E+01  0.41114648691E+01  0.16891365978E+03  0.16900248891E+03  0.00000000000E+00 0. -1.
         11    1    1    2    0    0 -0.93177808951E+01  0.50542680045E-01 -0.17515018091E+03  0.17539786050E+03  0.00000000000E+00 0. -1.
        -15    1    1    2    0    0  0.12226066632E+01 -0.29767845992E+01  0.77662833158E+01  0.85923744765E+01  0.17770000000E+01 0. -1.
         15    1    1    2    0    0  0.11716314473E+02 -0.11852229500E+01 -0.15297621813E+01  0.12007276110E+02  0.17770000000E+01 0.  1.
</event>
<event>
 6    1  0.1226227E-002  0.1849830E+03  0.7546771E-02  0.1066495E+00
        -11   -1    0    0    0    0  0.00000000000E+00  0.00000000000E+00  0.18250000000E+03  0.18250000000E+03  0.00000000000E+00 0.  1.
         11   -1    0    0    0    0 -0.00000000000E+00 -0.00000000000E+00 -0.18250000000E+03  0.18250000000E+03  0.00000000000E+00 0. -1.
        -11    1    1    2    0    0  0.96622892536E+01 -0.20379954465E+01  0.17974593767E+03  0.18001698634E+03  0.00000000000E+00 0.  1.
         11    1    1    2    0    0 -0.24949581673E+01 -0.16821536130E+01 -0.14776494980E+03  0.14779558466E+03  0.00000000000E+00 0. -1.
        -15    1    1    2    0    0 -0.85463444877E+01 -0.58739964820E+00 -0.56565464654E+01  0.10418219107E+02  0.17770000000E+01 0. -1.
         15    1    1    2    0    0  0.13790134014E+01  0.43075487077E+01 -0.26324441410E+02  0.26769209895E+02  0.17770000000E+01 0.  1.
</event>
<event>
 6    1  0.1226227E-002  0.1980444E+03  0.7546771E-02  0.1056713E+00
        -11   -1    0    0    0    0  0.00000000000E+00  0.00000000000E+00  0.18250000000E+03  0.18250000000E+03  0.00000000000E+00 0. -1.
         11   -1    0    0    0    0 -0.00000000000E+00 -0.00000000000E+00 -0.18250000000E+03  0.18250000000E+03  0.00000000000E+00 0. -1.
        -11    1    1    2    0    0 -0.22658438416E+01  0.96503659884E+00  0.15817422553E+03  0.15819339735E+03  0.00000000000E+00 0. -1.
         11    1    1    2    0    0  0.12793254321E+01 -0.19198251607E+01 -0.16693962387E+03  0.16695556421E+03  0.00000000000E+00 0. -1.
        -15    1    1    2    0    0 -0.22124074002E+01  0.19393209888E+01 -0.15202104898E+02  0.15585808761E+02  0.17770000000E+01 0. -1.
         15    1    1    2    0    0  0.31989258097E+01 -0.98453242691E+00  0.23967503247E+02  0.24265229678E+02  0.17770000000E+01 0.  1.
</event>
<event>
 6    1  0.1226227E-002  0.1827125E+03  0.7546771E-02  0.1068286E+00
        -11   -1    0    0    0    0  0.00000000000E+00  0.00000000000E+00  0.18250000000E+03  0.18250000000E+03  0.00000000000E+00 0.  1.
         11   -1    0    0    0    0 -0.00000000000E+00 -0.00000000000E+00 -0.18250000000E+03  0.18250000000E+03  0.00000000000E+00 0. -1.
        -11    1    1    2    0    0 -0.14376228460E+00  0.13666015215E+01  0.65023502805E+02  0.65038021067E+02  0.00000000000E+00 0.  1.
         11    1    1    2    0    0  0.22012872047E+01 -0.30726420385E+01 -0.18224829569E+03  0.18228748744E+03  0.00000000000E+00 0. -1.
        -15    1    1    2    0    0  0.13635071552E+01  0.47692048561E+01  0.53016698923E+02  0.53277880592E+02  0.17770000000E+01 0.  1.
         15    1    1    2    0    0 -0.34210320753E+01 -0.30631643391E+01  0.64208093964E+02  0.64396610902E+02  0.17770000000E+01 0. -1.
</event>
<event>
 6    1  0.1226227E-002  0.1846353E+03  0.7546771E-02  0.1066768E+00
        -11   -1    0    0    0    0  0.00000000000E+00  0.00000000000E+00  0.18250000000E+03  0.18250000000E+03  0.00000000000E+00 0.  1.
         11   -1    0    0    0    0 -0.00000000000E+00 -0.00000000000E+00 -0.18250000000E+03  0.18250000000E+03  0.00000000000E+00 0. -1.
        -11    1    1    2    0    0 -0.49493424595E+01 -0.55578457198E+00  0.15093120678E+03  0.15101335725E+03  0.00000000000E+00 0.  1.
         11    1    1    2    0    0 -0.46776422110E+01  0.78089644332E+00 -0.18030232023E+03  0.18036467730E+03  0.00000000000E+00 0. -1.
        -15    1    1    2    0    0  0.76705095078E+01  0.79415245643E+00  0.29731256548E+02  0.30766422268E+02  0.17770000000E+01 0.  1.
         15    1    1    2    0    0  0.19564751627E+01 -0.10192643278E+01 -0.36014309410E+00  0.28555431848E+01  0.17770000000E+01 0. -1.
</event>
<event>
 6    1  0.1226227E-002  0.1830894E+03  0.7546771E-02  0.1067987E+00
        -11   -1    0    0    0    0  0.00000000000E+00  0.00000000000E+00  0.18250000000E+03  0.18250000000E+03  0.00000000000E+00 0.  1.
         11   -1    0    0    0    0 -0.00000000000E+00 -0.00000000000E+00 -0.18250000000E+03  0.18250000000E+03  0.00000000000E+00 0.  1.
        -11    1    1    2    0    0  0.14965573439E+01  0.83515562411E+01  0.18171260707E+03  0.18191058173E+03  0.00000000000E+00 0.  1.
         11    1    1    2    0    0  0.28761267496E+01  0.46387721812E+00 -0.86622603651E+02  0.86671579831E+02  0.00000000000E+00 0.  1.
        -15    1    1    2    0    0  0.13148935222E+01 -0.71066468717E+01 -0.75607715739E+02  0.75973138562E+02  0.17770000000E+01 0.  1.
         15    1    1    2    0    0 -0.56875776156E+01 -0.17087865876E+01 -0.19482287683E+02  0.20444699878E+02  0.17770000000E+01 0. -1.
</event>
<event>
 6    1  0.1226227E-002  0.1873238E+03  0.7546771E-02  0.1064679E+00
        -11   -1    0    0    0    0  0.00000000000E+00  0.00000000000E+00  0.18250000000E+03  0.18250000000E+03  0.00000000000E+00 0. -1.
         11   -1    0    0    0    0 -0.00000000000E+00 -0.00000000000E+00 -0.18250000000E+03  0.18250000000E+03  0.00000000000E+00 0.  1.
        -11    1    1    2    0    0 -0.18627419743E+02  0.64617260124E+01  0.14996210590E+03  0.15125266237E+03  0.00000000000E+00 0. -1.
         11    1    1    2    0    0  0.62487357652E+01 -0.58396164222E+01 -0.17747024390E+03  0.17767620913E+03  0.00000000000E+00 0.  1.
        -15    1    1    2    0    0 -0.12626770781E+01  0.67161251367E+01  0.12896852645E+02  0.14703306683E+02  0.17770000000E+01 0.  1.
         15    1    1    2    0    0  0.13641361056E+02 -0.73382347269E+01  0.14611285361E+02  0.21367821818E+02  0.17770000000E+01 0. -1.
</event>
<event>
 6    1  0.1226227E-002  0.1870945E+03  0.7546771E-02  0.1064855E+00
        -11   -1    0    0    0    0  0.00000000000E+00  0.00000000000E+00  0.18250000000E+03  0.18250000000E+03  0.00000000000E+00 0. -1.
         11   -1    0    0    0    0 -0.00000000000E+00 -0.00000000000E+00 -0.18250000000E+03  0.18250000000E+03  0.00000000000E+00 0. -1.
        -11    1    1    2    0    0  0.22704461978E+01 -0.34891479976E+01  0.16801395280E+03  0.16806551524E+03  0.00000000000E+00 0. -1.
         11    1    1    2    0    0  0.11514880206E+01 -0.21640035493E+01 -0.17788863539E+03  0.17790552390E+03  0.00000000000E+00 0. -1.
        -15    1    1    2    0    0  0.49520164364E+01 -0.79225721805E+00  0.48275703594E+01  0.71842398944E+01  0.17770000000E+01 0. -1.
         15    1    1    2    0    0 -0.83739506548E+01  0.64454087649E+01  0.50471122284E+01  0.11844720958E+02  0.17770000000E+01 0.  1.
</event>
<event>
 6    1  0.1226227E-002  0.1833291E+03  0.7546771E-02  0.1067797E+00
        -11   -1    0    0    0    0  0.00000000000E+00  0.00000000000E+00  0.18250000000E+03  0.18250000000E+03  0.00000000000E+00 0. -1.
         11   -1    0    0    0    0 -0.00000000000E+00 -0.00000000000E+00 -0.18250000000E+03  0.18250000000E+03  0.00000000000E+00 0.  1.
        -11    1    1    2    0    0 -0.11836065499E+01 -0.18230934812E+01  0.11900832729E+03  0.11902817549E+03  0.00000000000E+00 0. -1.
         11    1    1    2    0    0 -0.29056502641E+01  0.10368030338E+01 -0.18164467483E+03  0.18167087180E+03  0.00000000000E+00 0.  1.
        -15    1    1    2    0    0 -0.28024415546E+01 -0.11685530450E+01  0.45587740305E+02  0.45723287174E+02  0.17770000000E+01 0. -1.
         15    1    1    2    0    0  0.68916983686E+01  0.19548434924E+01  0.17048607234E+02  0.18577665545E+02  0.17770000000E+01 0.  1.
</event>
<event>
 6    1  0.1226227E-002  0.1833987E+03  0.7546771E-02  0.1067742E+00
        -11   -1    0    0    0    0  0.00000000000E+00  0.00000000000E+00  0.18250000000E+03  0.18250000000E+03  0.00000000000E+00 0.  1.
         11   -1    0    0    0    0 -0.00000000000E+00 -0.00000000000E+00 -0.18250000000E+03  0.18250000000E+03  0.00000000000E+00 0. -1.
        -11    1    1    2    0    0  0.41269207055E+01  0.19253336259E+01  0.82981673672E+02  0.83106537345E+02  0.00000000000E+00 0.  1.
         11    1    1    2    0    0  0.31790962313E+01  0.52041498451E+00 -0.18157277075E+03  0.18160134515E+03  0.00000000000E+00 0. -1.
        -15    1    1    2    0    0  0.65836725468E+00  0.29442122621E+01  0.69754481086E+02  0.69842302323E+02  0.17770000000E+01 0. -1.
         15    1    1    2    0    0 -0.79643841914E+01 -0.53899608725E+01  0.28836615988E+02  0.30449815179E+02  0.17770000000E+01 0.  1.
</event>
<event>
 6    1  0.1226227E-002  0.1829621E+03  0.7546771E-02  0.1068088E+00
        -11   -1    0    0    0    0  0.00000000000E+00  0.00000000000E+00  0.18250000000E+03  0.18250000000E+03  0.00000000000E+00 0.  1.
         11   -1    0    0    0    0 -0.00000000000E+00 -0.00000000000E+00 -0.18250000000E+03  0.18250000000E+03  0.00000000000E+00 0.  1.
        -11    1    1    2    0    0  0.32055871114E+01  0.30717668289E+01  0.44072435495E+02  0.44295497634E+02  0.00000000000E+00 0.  1.
         11    1    1    2    0    0 -0.23009954281E+00  0.30933826849E+01 -0.18201146350E+03  0.18203789388E+03  0.00000000000E+00 0.  1.
        -15    1    1    2    0    0  0.53694820296E+00  0.17798789087E+01  0.75410886521E+01  0.79675610673E+01  0.17770000000E+01 0.  1.
         15    1    1    2    0    0 -0.35124357715E+01 -0.79450284225E+01  0.13039793935E+03  0.13069904742E+03  0.17770000000E+01 0.  1.
</event>
<event>
 6    1  0.1226227E-002  0.1825748E+03  0.7546771E-02  0.1068395E+00
        -11   -1    0    0    0    0  0.00000000000E+00  0.00000000000E+00  0.18250000000E+03  0.18250000000E+03  0.00000000000E+00 0. -1.
         11   -1    0    0    0    0 -0.00000000000E+00 -0.00000000000E+00 -0.18250000000E+03  0.18250000000E+03  0.00000000000E+00 0.  1.
        -11    1    1    2    0    0  0.68382552191E-01 -0.52501508299E+00  0.27977468637E+02  0.27982477881E+02  0.00000000000E+00 0. -1.
         11    1    1    2    0    0  0.15500476900E+01  0.21443841693E+01 -0.18240598725E+03  0.18242517704E+03  0.00000000000E+00 0.  1.
        -15    1    1    2    0    0 -0.23710443592E+01 -0.24075471659E+01  0.50953306629E+02  0.51096138016E+02  0.17770000000E+01 0. -1.
         15    1    1    2    0    0  0.75261411707E+00  0.78817807963E+00  0.10347521199E+03  0.10349620707E+03  0.17770000000E+01 0. -1.
</event>
<event>
 6    1  0.1226227E-002  0.1825638E+03  0.7546771E-02  0.1068404E+00
        -11   -1    0    0    0    0  0.00000000000E+00  0.00000000000E+00  0.18250000000E+03  0.18250000000E+03  0.00000000000E+00 0. -1.
         11   -1    0    0    0    0 -0.00000000000E+00 -0.00000000000E+00 -0.18250000000E+03  0.18250000000E+03  0.00000000000E+00 0.  1.
        -11    1    1    2    0    0  0.21010139471E+01 -0.24348727679E+01  0.18240785202E+03  0.18243620075E+03  0.00000000000E+00 0. -1.
         11    1    1    2    0    0 -0.11301813817E+01 -0.74163032648E+00 -0.25795571436E+02  0.25830966517E+02  0.00000000000E+00 0.  1.
        -15    1    1    2    0    0 -0.13879576277E+00 -0.51751898171E+00 -0.35686187789E+02  0.35734420634E+02  0.17770000000E+01 0. -1.
         15    1    1    2    0    0 -0.83203680269E+00  0.36940220761E+01 -0.12092609279E+03  0.12099841210E+03  0.17770000000E+01 0.  1.
</event>
<event>
 6    1  0.1226227E-002  0.1831045E+03  0.7546771E-02  0.1067975E+00
        -11   -1    0    0    0    0  0.00000000000E+00  0.00000000000E+00  0.18250000000E+03  0.18250000000E+03  0.00000000000E+00 0. -1.
         11   -1    0    0    0    0 -0.00000000000E+00 -0.00000000000E+00 -0.18250000000E+03  0.18250000000E+03  0.00000000000E+00 0. -1.
        -11    1    1    2    0    0 -0.88762423465E+00  0.37000588119E+01  0.18185567238E+03  0.18189547518E+03  0.00000000000E+00 0. -1.
         11    1    1    2    0    0 -0.45641108172E+01 -0.19321042523E+01 -0.14593527540E+03  0.14601941220E+03  0.00000000000E+00 0. -1.
        -15    1    1    2    0    0 -0.77746033282E+00 -0.73375724539E+00 -0.40887212805E+01  0.45845626808E+01  0.17770000000E+01 0.  1.
         15    1    1    2    0    0  0.62291953846E+01 -0.10341973142E+01 -0.31831675703E+02  0.32500549939E+02  0.17770000000E+01 0. -1.
</event>
<event>
 6    1  0.1226227E-002  0.1537800E+03  0.7546771E-02  0.1093934E+00
        -11   -1    0    0    0    0  0.00000000000E+00  0.00000000000E+00  0.18250000000E+03  0.18250000000E+03  0.00000000000E+00 0.  1.
         11   -1    0    0    0    0 -0.00000000000E+00 -0.00000000000E+00 -0.18250000000E+03  0.18250000000E+03  0.00000000000E+00 0. -1.
        -11    1    1    2    0    0  0.55019105622E+02  0.99131405954E+01  0.16408635984E+03  0.17334850973E+03  0.00000000000E+00 0.  1.
         11    1    1    2    0    0 -0.49800773645E+00 -0.14327323859E+00 -0.21900429296E+02  0.21906559344E+02  0.00000000000E+00 0. -1.
        -15    1    1    2    0    0 -0.28003997163E+02 -0.14477985324E+02 -0.75968801535E+01  0.32476241057E+02  0.17770000000E+01 0.  1.
         15    1    1    2    0    0 -0.26517100723E+02  0.47081179670E+01 -0.13458905039E+03  0.13726868987E+03  0.17770000000E+01 0. -1.
</event>
<event>
 6    1  0.1226227E-002  0.1694891E+03  0.7546771E-02  0.1079311E+00
        -11   -1    0    0    0    0  0.00000000000E+00  0.00000000000E+00  0.18250000000E+03  0.18250000000E+03  0.00000000000E+00 0. -1.
         11   -1    0    0    0    0 -0.00000000000E+00 -0.00000000000E+00 -0.18250000000E+03  0.18250000000E+03  0.00000000000E+00 0.  1.
        -11    1    1    2    0    0  0.10764939327E+01  0.29383123345E+01  0.16808440371E+03  0.16811353095E+03  0.00000000000E+00 0. -1.
         11    1    1    2    0    0 -0.30354325535E+00  0.65426477136E+01 -0.17088418598E+03  0.17100965878E+03  0.00000000000E+00 0.  1.
        -15    1    1    2    0    0  0.35568844151E+01  0.18277316693E+01  0.10528586257E+02  0.11401793164E+02  0.17770000000E+01 0.  1.
         15    1    1    2    0    0 -0.43298350924E+01 -0.11308691717E+02 -0.77288039774E+01  0.14475017106E+02  0.17770000000E+01 0. -1.
</event>
<event>
 6    1  0.1226227E-002  0.1829321E+03  0.7546771E-02  0.1068111E+00
        -11   -1    0    0    0    0  0.00000000000E+00  0.00000000000E+00  0.18250000000E+03  0.18250000000E+03  0.00000000000E+00 0. -1.
         11   -1    0    0    0    0 -0.00000000000E+00 -0.00000000000E+00 -0.18250000000E+03  0.18250000000E+03  0.00000000000E+00 0. -1.
        -11    1    1    2    0    0 -0.37198146694E+01  0.31624623686E+01  0.18200243873E+03  0.18206791561E+03  0.00000000000E+00 0. -1.
         11    1    1    2    0    0  0.22443865241E+01 -0.15279867948E+01 -0.13708924578E+03  0.13711613079E+03  0.00000000000E+00 0. -1.
        -15    1    1    2    0    0  0.31156195900E+01 -0.25432832760E+01 -0.11642522193E+02  0.12445136691E+02  0.17770000000E+01 0. -1.
         15    1    1    2    0    0 -0.16401914447E+01  0.90880770224E+00 -0.33270670759E+02  0.33370816909E+02  0.17770000000E+01 0.  1.
</event>
<event>
 6    1  0.1226227E-002  0.1856342E+03  0.7546771E-02  0.1065987E+00
        -11   -1    0    0    0    0  0.00000000000E+00  0.00000000000E+00  0.18250000000E+03  0.18250000000E+03  0.00000000000E+00 0. -1.
         11   -1    0    0    0    0 -0.00000000000E+00 -0.00000000000E+00 -0.18250000000E+03  0.18250000000E+03  0.00000000000E+00 0. -1.
        -11    1    1    2    0    0 -0.28494146516E+01 -0.38831446918E+01  0.17930113750E+03  0.17936581582E+03  0.00000000000E+00 0. -1.
         11    1    1    2    0    0 -0.29325859832E+01  0.25851213900E+01 -0.15757524722E+03  0.15762373377E+03  0.00000000000E+00 0. -1.
        -15    1    1    2    0    0  0.71505044723E+01  0.75788852660E+01 -0.10170539922E+02  0.14668565963E+02  0.17770000000E+01 0. -1.
         15    1    1    2    0    0 -0.13685038376E+01 -0.62808619642E+01 -0.11555350355E+02  0.13341884447E+02  0.17770000000E+01 0.  1.
</event>
<event>
 6    1  0.1226227E-002  0.1831297E+03  0.7546771E-02  0.1067955E+00
        -11   -1    0    0    0    0  0.00000000000E+00  0.00000000000E+00  0.18250000000E+03  0.18250000000E+03  0.00000000000E+00 0. -1.
         11   -1    0    0    0    0 -0.00000000000E+00 -0.00000000000E+00 -0.18250000000E+03  0.18250000000E+03  0.00000000000E+00 0. -1.
        -11    1    1    2    0    0  0.22144445229E+01  0.34716866283E+01  0.18182369980E+03  0.18187032243E+03  0.00000000000E+00 0. -1.
         11    1    1    2    0    0 -0.75765541421E+00 -0.24900909199E+01 -0.16699067775E+03  0.16701096087E+03  0.00000000000E+00 0. -1.
        -15    1    1    2    0    0 -0.73734346456E+00  0.48540194611E+00 -0.12828265334E+02  0.12980809332E+02  0.17770000000E+01 0. -1.
         15    1    1    2    0    0 -0.71944564412E+00 -0.14669976544E+01 -0.20047567162E+01  0.31379073670E+01  0.17770000000E+01 0.  1.
</event>
<event>
 6    1  0.1226227E-002  0.1710494E+03  0.7546771E-02  0.1077953E+00
        -11   -1    0    0    0    0  0.00000000000E+00  0.00000000000E+00  0.18250000000E+03  0.18250000000E+03  0.00000000000E+00 0.  1.
         11   -1    0    0    0    0 -0.00000000000E+00 -0.00000000000E+00 -0.18250000000E+03  0.18250000000E+03  0.00000000000E+00 0.  1.
        -11    1    1    2    0    0  0.53114468941E+01 -0.48040799891E+01  0.17055452133E+03  0.17070481950E+03  0.00000000000E+00 0.  1.
         11    1    1    2    0    0  0.16467217163E+01  0.65309534946E+01 -0.17133772853E+03  0.17147006230E+03  0.00000000000E+00 0.  1.
        -15    1    1    2    0    0  0.11622201068E+01 -0.67405095444E+01 -0.73239255599E+01  0.10177565480E+02  0.17770000000E+01 0.  1.
         15    1    1    2    0    0 -0.81203887172E+01  0.50136360389E+01  0.81071327643E+01  0.12647552724E+02  0.17770000000E+01 0. -1.
</event>
<event>
 6    1  0.1226227E-002  0.1853471E+03  0.7546771E-02  0.1066211E+00
        -11   -1    0    0    0    0  0.00000000000E+00  0.00000000000E+00  0.18250000000E+03  0.18250000000E+03  0.00000000000E+00 0.  1.
         11   -1    0    0    0    0 -0.00000000000E+00 -0.00000000000E+00 -0.18250000000E+03  0.18250000000E+03  0.00000000000E+00 0.  1.
        -11    1    1    2    0    0  0.12233152709E+01  0.35206362976E+01  0.17961425107E+03  0.17965291695E+03  0.00000000000E+00 0.  1.
         11    1    1    2    0    0  0.19745381308E+01  0.17048716930E+01 -0.17582803315E+03  0.17584738448E+03  0.00000000000E+00 0.  1.
        -15    1    1    2    0    0 -0.15560727656E+01 -0.73791463688E+00  0.84213802704E+00  0.26139636416E+01  0.17770000000E+01 0.  1.
         15    1    1    2    0    0 -0.16417806361E+01 -0.44875933537E+01 -0.46283559487E+01  0.68857349320E+01  0.17770000000E+01 0. -1.
</event>
<event>
 6    1  0.1226227E-002  0.1767663E+03  0.7546771E-02  0.1073113E+00
        -11   -1    0    0    0    0  0.00000000000E+00  0.00000000000E+00  0.18250000000E+03  0.18250000000E+03  0.00000000000E+00 0. -1.
         11   -1    0    0    0    0 -0.00000000000E+00 -0.00000000000E+00 -0.18250000000E+03  0.18250000000E+03  0.00000000000E+00 0. -1.
        -11    1    1    2    0    0  0.23159018614E+01 -0.88643021669E+00  0.17686297707E+03  0.17688036018E+03  0.00000000000E+00 0. -1.
         11    1    1    2    0    0 -0.34500066890E+01 -0.19903752814E+01 -0.17662090493E+03  0.17666580936E+03  0.00000000000E+00 0. -1.
        -15    1    1    2    0    0 -0.11297965911E+01  0.32126399947E+01  0.44876394254E+01  0.59071255857E+01  0.17770000000E+01 0. -1.
         15    1    1    2    0    0  0.22639014188E+01 -0.33583449661E+00 -0.47297115652E+01  0.55467048717E+01  0.17770000000E+01 0.  1.
</event>
<event>
 6    1  0.1226227E-002  0.1837637E+03  0.7546771E-02  0.1067453E+00
        -11   -1    0    0    0    0  0.00000000000E+00  0.00000000000E+00  0.18250000000E+03  0.18250000000E+03  0.00000000000E+00 0.  1.
         11   -1    0    0    0    0 -0.00000000000E+00 -0.00000000000E+00 -0.18250000000E+03  0.18250000000E+03  0.00000000000E+00 0. -1.
        -11    1    1    2    0    0  0.15133926708E+01  0.28728351904E+01  0.18120723746E+03  0.18123632762E+03  0.00000000000E+00 0.  1.
         11    1    1    2    0    0 -0.25304181110E+01  0.16496192017E+01 -0.91469114942E+02  0.91518977527E+02  0.00000000000E+00 0. -1.
        -15    1    1    2    0    0 -0.37619955586E+01  0.51843193090E+01 -0.62943394009E+02  0.63293430589E+02  0.17770000000E+01 0.  1.
         15    1    1    2    0    0  0.47790209988E+01 -0.97067737012E+01 -0.26794728513E+02  0.28951264264E+02  0.17770000000E+01 0. -1.
</event>
<event>
 6    1  0.1226227E-002  0.1576321E+03  0.7546771E-02  0.1090176E+00
        -11   -1    0    0    0    0  0.00000000000E+00  0.00000000000E+00  0.18250000000E+03  0.18250000000E+03  0.00000000000E+00 0. -1.
         11   -1    0    0    0    0 -0.00000000000E+00 -0.00000000000E+00 -0.18250000000E+03  0.18250000000E+03  0.00000000000E+00 0.  1.
        -11    1    1    2    0    0 -0.20934882423E+01  0.48973218739E+01  0.15136675258E+03  0.15146042467E+03  0.00000000000E+00 0. -1.
         11    1    1    2    0    0 -0.20188004539E+02 -0.88611485573E+01 -0.16336149745E+03  0.16484251372E+03  0.00000000000E+00 0.  1.
        -15    1    1    2    0    0 -0.49277105159E+01 -0.36775414563E+01  0.18556370174E+02  0.19629142751E+02  0.17770000000E+01 0.  1.
         15    1    1    2    0    0  0.27209203297E+02  0.76413681397E+01 -0.65616253057E+01  0.29067918858E+02  0.17770000000E+01 0. -1.
</event>
<event>
 6    1  0.1226227E-002  0.1867546E+03  0.7546771E-02  0.1065118E+00
        -11   -1    0    0    0    0  0.00000000000E+00  0.00000000000E+00  0.18250000000E+03  0.18250000000E+03  0.00000000000E+00 0.  1.
         11   -1    0    0    0    0 -0.00000000000E+00 -0.00000000000E+00 -0.18250000000E+03  0.18250000000E+03  0.00000000000E+00 0. -1.
        -11    1    1    2    0    0  0.26039163433E+00 -0.27038605710E+01  0.16618987446E+03  0.16621207249E+03  0.00000000000E+00 0.  1.
         11    1    1    2    0    0 -0.11370111030E+00 -0.27961398175E+01 -0.17822344095E+03  0.17824541012E+03  0.00000000000E+00 0. -1.
        -15    1    1    2    0    0  0.19220045588E+01  0.10272174530E+02  0.53033390810E+01  0.11853050473E+02  0.17770000000E+01 0. -1.
         15    1    1    2    0    0 -0.20686950829E+01 -0.47721741418E+01  0.67302274049E+01  0.86894669173E+01  0.17770000000E+01 0.  1.
</event>
<event>
 6    1  0.1226227E-002  0.2088620E+03  0.7546771E-02  0.1049215E+00
        -11   -1    0    0    0    0  0.00000000000E+00  0.00000000000E+00  0.18250000000E+03  0.18250000000E+03  0.00000000000E+00 0. -1.
         11   -1    0    0    0    0 -0.00000000000E+00 -0.00000000000E+00 -0.18250000000E+03  0.18250000000E+03  0.00000000000E+00 0.  1.
        -11    1    1    2    0    0 -0.27445499663E+00 -0.12695976626E+02  0.15562073338E+03  0.15613800244E+03  0.00000000000E+00 0. -1.
         11    1    1    2    0    0  0.10943541110E+01 -0.10815343133E+00 -0.55767810618E+02  0.55778651913E+02  0.00000000000E+00 0.  1.
        -15    1    1    2    0    0 -0.94873884297E+01  0.69187526543E+01  0.25053500765E+02  0.27725715628E+02  0.17770000000E+01 0. -1.
         15    1    1    2    0    0  0.86674893153E+01  0.58853774028E+01 -0.12490642352E+03  0.12535763002E+03  0.17770000000E+01 0.  1.
</event>
<event>
 6    1  0.1226227E-002  0.1873231E+03  0.7546771E-02  0.1064679E+00
        -11   -1    0    0    0    0  0.00000000000E+00  0.00000000000E+00  0.18250000000E+03  0.18250000000E+03  0.00000000000E+00 0.  1.
         11   -1    0    0    0    0 -0.00000000000E+00 -0.00000000000E+00 -0.18250000000E+03  0.18250000000E+03  0.00000000000E+00 0.  1.
        -11    1    1    2    0    0  0.32633342989E+01 -0.48728551913E+00  0.17353839209E+03  0.17356975637E+03  0.00000000000E+00 0.  1.
         11    1    1    2    0    0  0.11472880454E+01 -0.38278452785E+01 -0.17763196201E+03  0.17767690508E+03  0.00000000000E+00 0.  1.
        -15    1    1    2    0    0 -0.95295017088E+00  0.22554329184E+01 -0.37147792583E+01  0.47908668960E+01  0.17770000000E+01 0. -1.
         15    1    1    2    0    0 -0.34576721734E+01  0.20596978791E+01  0.78083491820E+01  0.89624716547E+01  0.17770000000E+01 0.  1.
</event>
<event>
 6    1  0.1226227E-002  0.1825747E+03  0.7546771E-02  0.1068395E+00
        -11   -1    0    0    0    0  0.00000000000E+00  0.00000000000E+00  0.18250000000E+03  0.18250000000E+03  0.00000000000E+00 0. -1.
         11   -1    0    0    0    0 -0.00000000000E+00 -0.00000000000E+00 -0.18250000000E+03  0.18250000000E+03  0.00000000000E+00 0.  1.
        -11    1    1    2    0    0  0.20471208205E+00  0.93723841062E+00  0.34204048170E+02  0.34217498946E+02  0.00000000000E+00 0. -1.
         11    1    1    2    0    0 -0.24529094371E+01 -0.27463584973E+01 -0.18238811036E+03  0.18242527799E+03  0.00000000000E+00 0.  1.
        -15    1    1    2    0    0  0.66689296383E+00  0.34853445420E+01  0.64036521353E+02  0.64159380988E+02  0.17770000000E+01 0. -1.
         15    1    1    2    0    0  0.15813043913E+01 -0.16762244553E+01  0.84147540837E+02  0.84197842074E+02  0.17770000000E+01 0.  1.
</event>
<event>
 6    1  0.1226227E-002  0.1963642E+03  0.7546771E-02  0.1057925E+00
        -11   -1    0    0    0    0  0.00000000000E+00  0.00000000000E+00  0.18250000000E+03  0.18250000000E+03  0.00000000000E+00 0. -1.
         11   -1    0    0    0    0 -0.00000000000E+00 -0.00000000000E+00 -0.18250000000E+03  0.18250000000E+03  0.00000000000E+00 0.  1.
        -11    1    1    2    0    0 -0.20075269969E+01 -0.13415425239E+01  0.13651611435E+03  0.13653746511E+03  0.00000000000E+00 0. -1.
         11    1    1    2    0    0 -0.42487999382E+00 -0.27816533569E+01 -0.16861228196E+03  0.16863576058E+03  0.00000000000E+00 0.  1.
        -15    1    1    2    0    0 -0.20411284772E+02  0.10255058565E+02  0.27277708466E+02  0.35623277227E+02  0.17770000000E+01 0. -1.
         15    1    1    2    0    0  0.22843691762E+02 -0.61318626845E+01  0.48184591422E+01  0.24203497078E+02  0.17770000000E+01 0.  1.
</event>
<event>
 6    1  0.1226227E-002  0.1827835E+03  0.7546771E-02  0.1068229E+00
        -11   -1    0    0    0    0  0.00000000000E+00  0.00000000000E+00  0.18250000000E+03  0.18250000000E+03  0.00000000000E+00 0. -1.
         11   -1    0    0    0    0 -0.00000000000E+00 -0.00000000000E+00 -0.18250000000E+03  0.18250000000E+03  0.00000000000E+00 0.  1.
        -11    1    1    2    0    0 -0.15116442422E+01 -0.12529952457E+01  0.51183648241E+02  0.51221293547E+02  0.00000000000E+00 0. -1.
         11    1    1    2    0    0 -0.24635531941E+01  0.64241255599E+00 -0.18219868290E+03  0.18221646972E+03  0.00000000000E+00 0.  1.
        -15    1    1    2    0    0  0.71071715068E+01  0.24221945947E+01  0.72785588967E+02  0.73193432792E+02  0.17770000000E+01 0.  1.
         15    1    1    2    0    0 -0.31319740705E+01 -0.18116119050E+01  0.58229445688E+02  0.58368803940E+02  0.17770000000E+01 0. -1.
</event>
<event>
 6    1  0.1226227E-002  0.1851155E+03  0.7546771E-02  0.1066392E+00
        -11   -1    0    0    0    0  0.00000000000E+00  0.00000000000E+00  0.18250000000E+03  0.18250000000E+03  0.00000000000E+00 0. -1.
         11   -1    0    0    0    0 -0.00000000000E+00 -0.00000000000E+00 -0.18250000000E+03  0.18250000000E+03  0.00000000000E+00 0.  1.
        -11    1    1    2    0    0  0.30743625749E+01 -0.15339757992E+01  0.16360409141E+03  0.16364016473E+03  0.00000000000E+00 0. -1.
         11    1    1    2    0    0 -0.15209234093E+01  0.45281524213E+01 -0.17982106692E+03  0.17988450039E+03  0.00000000000E+00 0.  1.
        -15    1    1    2    0    0  0.59298869113E+00 -0.32074949045E+01 -0.11472740426E+01  0.38876247091E+01  0.17770000000E+01 0. -1.
         15    1    1    2    0    0 -0.21464278567E+01  0.21331828241E+00  0.17364249559E+02  0.17587710169E+02  0.17770000000E+01 0.  1.
</event>
<event>
 6    1  0.1226227E-002  0.1869327E+03  0.7546771E-02  0.1064980E+00
        -11   -1    0    0    0    0  0.00000000000E+00  0.00000000000E+00  0.18250000000E+03  0.18250000000E+03  0.00000000000E+00 0. -1.
         11   -1    0    0    0    0 -0.00000000000E+00 -0.00000000000E+00 -0.18250000000E+03  0.18250000000E+03  0.00000000000E+00 0.  1.
        -11    1    1    2    0    0  0.44538801740E+01  0.85733848104E+00  0.17800951171E+03  0.17806728598E+03  0.00000000000E+00 0. -1.
         11    1    1    2    0    0  0.95558658242E+00 -0.28892177672E+01 -0.16444088796E+03  0.16446904376E+03  0.00000000000E+00 0.  1.
        -15    1    1    2    0    0 -0.28858870026E+01 -0.35845822296E+01  0.22307443442E+01  0.54140117179E+01  0.17770000000E+01 0.  1.
         15    1    1    2    0    0 -0.25235797539E+01  0.56164615158E+01 -0.15799368101E+02  0.17049658534E+02  0.17770000000E+01 0.  1.
</event>
<event>
 6    1  0.1827140E-002  0.1919000E+03  0.7546771E-02  0.1061209E+00
        -11   -1    0    0    0    0  0.00000000000E+00  0.00000000000E+00  0.18250000000E+03  0.18250000000E+03  0.00000000000E+00 0.  1.
         11   -1    0    0    0    0 -0.00000000000E+00 -0.00000000000E+00 -0.18250000000E+03  0.18250000000E+03  0.00000000000E+00 0. -1.
        -11    1    1    2    0    0 -0.18995801401E-01  0.25381480060E+01  0.17308141828E+03  0.17310002863E+03  0.00000000000E+00 0.  1.
         11    1    1    2    0    0 -0.26156759230E+01 -0.29813198984E+01 -0.33573254562E+02  0.33806707186E+02  0.00000000000E+00 0. -1.
        -15    1    1    2    0    0 -0.53399945129E+00 -0.35094324103E+01 -0.14799648403E+03  0.14804971559E+03  0.17770000000E+01 0. -1.
         15    1    1    2    0    0  0.31686711757E+01  0.39526043026E+01  0.84883203096E+01  0.10043548600E+02  0.17770000000E+01 0.  1.
</event>
<event>
 6    1  0.1226227E-002  0.1904491E+03  0.7546771E-02  0.1062298E+00
        -11   -1    0    0    0    0  0.00000000000E+00  0.00000000000E+00  0.18250000000E+03  0.18250000000E+03  0.00000000000E+00 0. -1.
         11   -1    0    0    0    0 -0.00000000000E+00 -0.00000000000E+00 -0.18250000000E+03  0.18250000000E+03  0.00000000000E+00 0.  1.
        -11    1    1    2    0    0  0.68624639637E+01 -0.16660398986E+02  0.15713755120E+03  0.15816722891E+03  0.00000000000E+00 0. -1.
         11    1    1    2    0    0 -0.27889093890E+01 -0.70630132080E+00 -0.17452722378E+03  0.17455093445E+03  0.00000000000E+00 0.  1.
        -15    1    1    2    0    0 -0.60339384138E+01  0.51322008263E+01 -0.27481385866E+01  0.85707580058E+01  0.17770000000E+01 0. -1.
         15    1    1    2    0    0  0.19603838391E+01  0.12234499480E+02  0.20137811169E+02  0.23711078634E+02  0.17770000000E+01 0.  1.
</event>
<event>
 6    1  0.1226227E-002  0.1832081E+03  0.7546771E-02  0.1067893E+00
        -11   -1    0    0    0    0  0.00000000000E+00  0.00000000000E+00  0.18250000000E+03  0.18250000000E+03  0.00000000000E+00 0.  1.
         11   -1    0    0    0    0 -0.00000000000E+00 -0.00000000000E+00 -0.18250000000E+03  0.18250000000E+03  0.00000000000E+00 0. -1.
        -11    1    1    2    0    0  0.27361611389E+01 -0.83905403204E+01  0.18157756409E+03  0.18179191271E+03  0.00000000000E+00 0.  1.
         11    1    1    2    0    0  0.75808672310E+00  0.26735530362E+01 -0.12785524929E+03  0.12788544621E+03  0.00000000000E+00 0. -1.
        -15    1    1    2    0    0 -0.17554256461E+01  0.15329533268E+01 -0.24501667255E+01  0.38200145397E+01  0.17770000000E+01 0.  1.
         15    1    1    2    0    0 -0.17388222159E+01  0.41840339575E+01 -0.51272148076E+02  0.51502626537E+02  0.17770000000E+01 0.  1.
</event>
<event>
 6    1  0.1226227E-002  0.1831848E+03  0.7546771E-02  0.1067911E+00
        -11   -1    0    0    0    0  0.00000000000E+00  0.00000000000E+00  0.18250000000E+03  0.18250000000E+03  0.00000000000E+00 0.  1.
         11   -1    0    0    0    0 -0.00000000000E+00 -0.00000000000E+00 -0.18250000000E+03  0.18250000000E+03  0.00000000000E+00 0. -1.
        -11    1    1    2    0    0 -0.38007846270E+01  0.14473783652E+01  0.18176966843E+03  0.18181516226E+03  0.00000000000E+00 0.  1.
         11    1    1    2    0    0  0.44073410338E+00  0.29550019200E+01 -0.95544514245E+02  0.95591215523E+02  0.00000000000E+00 0. -1.
        -15    1    1    2    0    0  0.33273854383E+01 -0.10868006077E+01 -0.53744886766E+01  0.66554854782E+01  0.17770000000E+01 0.  1.
         15    1    1    2    0    0  0.32665085332E-01 -0.33155796775E+01 -0.80850665509E+02  0.80938136734E+02  0.17770000000E+01 0. -1.
</event>
<event>
 6    1  0.1226227E-002  0.1974644E+03  0.7546771E-02  0.1057130E+00
        -11   -1    0    0    0    0  0.00000000000E+00  0.00000000000E+00  0.18250000000E+03  0.18250000000E+03  0.00000000000E+00 0.  1.
         11   -1    0    0    0    0 -0.00000000000E+00 -0.00000000000E+00 -0.18250000000E+03  0.18250000000E+03  0.00000000000E+00 0. -1.
        -11    1    1    2    0    0  0.19981134147E+00 -0.32486866068E+01  0.16750396687E+03  0.16753558669E+03  0.00000000000E+00 0.  1.
         11    1    1    2    0    0  0.16728780026E+01 -0.99279817734E+01 -0.13823831028E+03  0.13860445077E+03  0.00000000000E+00 0. -1.
        -15    1    1    2    0    0 -0.43697137574E+01  0.28728571594E+02 -0.31452969115E+02  0.42858747290E+02  0.17770000000E+01 0. -1.
         15    1    1    2    0    0  0.24970244133E+01 -0.15551903213E+02  0.21873125256E+01  0.16001215253E+02  0.17770000000E+01 0.  1.
</event>
<event>
 6    1  0.1226227E-002  0.1847866E+03  0.7546771E-02  0.1066649E+00
        -11   -1    0    0    0    0  0.00000000000E+00  0.00000000000E+00  0.18250000000E+03  0.18250000000E+03  0.00000000000E+00 0. -1.
         11   -1    0    0    0    0 -0.00000000000E+00 -0.00000000000E+00 -0.18250000000E+03  0.18250000000E+03  0.00000000000E+00 0.  1.
        -11    1    1    2    0    0 -0.28143047167E+02  0.75282554877E+01  0.17784308067E+03  0.18021339316E+03  0.00000000000E+00 0. -1.
         11    1    1    2    0    0  0.35888881086E+01  0.34895393674E+01 -0.37470686284E+02  0.37803562444E+02  0.00000000000E+00 0.  1.
        -15    1    1    2    0    0  0.23377392096E+02 -0.15898329034E+02 -0.59116997469E+02  0.65553309955E+02  0.17770000000E+01 0. -1.
         15    1    1    2    0    0  0.11767669622E+01  0.48805341788E+01 -0.81255396913E+02  0.81429734439E+02  0.17770000000E+01 0.  1.
</event>
<event>
 6    1  0.1226227E-002  0.1872312E+03  0.7546771E-02  0.1064750E+00
        -11   -1    0    0    0    0  0.00000000000E+00  0.00000000000E+00  0.18250000000E+03  0.18250000000E+03  0.00000000000E+00 0. -1.
         11   -1    0    0    0    0 -0.00000000000E+00 -0.00000000000E+00 -0.18250000000E+03  0.18250000000E+03  0.00000000000E+00 0.  1.
        -11    1    1    2    0    0 -0.17406159903E+01  0.36596708668E+01  0.17772262205E+03  0.17776881988E+03  0.00000000000E+00 0. -1.
         11    1    1    2    0    0 -0.35323916280E+01 -0.89140382093E+01 -0.15107371683E+03  0.15137769250E+03  0.00000000000E+00 0.  1.
        -15    1    1    2    0    0  0.12958060680E+02  0.88780630846E-01 -0.21349513523E+02  0.25037545313E+02  0.17770000000E+01 0. -1.
         15    1    1    2    0    0 -0.76850530622E+01  0.51655867117E+01 -0.52993916937E+01  0.10815942306E+02  0.17770000000E+01 0.  1.
</event>
<event>
 6    1  0.1226227E-002  0.1883567E+03  0.7546771E-02  0.1063886E+00
        -11   -1    0    0    0    0  0.00000000000E+00  0.00000000000E+00  0.18250000000E+03  0.18250000000E+03  0.00000000000E+00 0.  1.
         11   -1    0    0    0    0 -0.00000000000E+00 -0.00000000000E+00 -0.18250000000E+03  0.18250000000E+03  0.00000000000E+00 0.  1.
        -11    1    1    2    0    0  0.11907709690E+02  0.26219801363E+01  0.98886986533E+02  0.99635859184E+02  0.00000000000E+00 0.  1.
         11    1    1    2    0    0  0.63428856451E+01 -0.43075257406E+01 -0.17647680012E+03  0.17664327884E+03  0.00000000000E+00 0.  1.
        -15    1    1    2    0    0  0.16303517624E+01  0.22420325953E+01  0.65068485667E+02  0.65151748349E+02  0.17770000000E+01 0.  1.
         15    1    1    2    0    0 -0.19880947098E+02 -0.55648699094E+00  0.12521327924E+02  0.23569113629E+02  0.17770000000E+01 0. -1.
</event>
<event>
 6    1  0.1364500E-002  0.1827727E+03  0.7546771E-02  0.1068238E+00
        -11   -1    0    0    0    0  0.00000000000E+00  0.00000000000E+00  0.18250000000E+03  0.18250000000E+03  0.00000000000E+00 0.  1.
         11   -1    0    0    0    0 -0.00000000000E+00 -0.00000000000E+00 -0.18250000000E+03  0.18250000000E+03  0.00000000000E+00 0.  1.
        -11    1    1    2    0    0 -0.14821203970E+01  0.25613903123E+01  0.18220330243E+03  0.18222733279E+03  0.00000000000E+00 0.  1.
         11    1    1    2    0    0  0.14900735054E+01  0.48880019364E+00 -0.11193806257E+03  0.11194904687E+03  0.00000000000E+00 0.  1.
        -15    1    1    2    0    0  0.12985497066E+01 -0.36559883365E+01 -0.17644684276E+02  0.18153376938E+02  0.17770000000E+01 0.  1.
         15    1    1    2    0    0 -0.13065028150E+01  0.60579783058E+00 -0.52620555583E+02  0.52670243396E+02  0.17770000000E+01 0. -1.
</event>
<event>
 6    1  0.1226227E-002  0.1842165E+03  0.7546771E-02  0.1067097E+00
        -11   -1    0    0    0    0  0.00000000000E+00  0.00000000000E+00  0.18250000000E+03  0.18250000000E+03  0.00000000000E+00 0. -1.
         11   -1    0    0    0    0 -0.00000000000E+00 -0.00000000000E+00 -0.18250000000E+03  0.18250000000E+03  0.00000000000E+00 0.  1.
        -11    1    1    2    0    0 -0.17796427004E+01 -0.28783615935E+01  0.18075177957E+03  0.18078345586E+03  0.00000000000E+00 0. -1.
         11    1    1    2    0    0  0.72574156934E+00  0.25202751034E+01 -0.17557655444E+03  0.17559614164E+03  0.00000000000E+00 0.  1.
        -15    1    1    2    0    0  0.12809090107E+01  0.24044701309E+01 -0.61437451113E+00  0.33101947895E+01  0.17770000000E+01 0. -1.
         15    1    1    2    0    0 -0.22700787959E+00 -0.20463836409E+01 -0.45608506196E+01  0.53102077132E+01  0.17770000000E+01 0.  1.
</event>
<event>
 6    1  0.1226227E-002  0.1760724E+03  0.7546771E-02  0.1073689E+00
        -11   -1    0    0    0    0  0.00000000000E+00  0.00000000000E+00  0.18250000000E+03  0.18250000000E+03  0.00000000000E+00 0. -1.
         11   -1    0    0    0    0 -0.00000000000E+00 -0.00000000000E+00 -0.18250000000E+03  0.18250000000E+03  0.00000000000E+00 0. -1.
        -11    1    1    2    0    0 -0.30915768648E+01 -0.41776519150E+01  0.17458912203E+03  0.17466645973E+03  0.00000000000E+00 0. -1.
         11    1    1    2    0    0 -0.85964991954E+00 -0.25660960569E+01 -0.17755690977E+03  0.17757753251E+03  0.00000000000E+00 0. -1.
        -15    1    1    2    0    0 -0.10630316304E+01  0.15990771877E+00  0.37175889804E+01  0.42583803908E+01  0.17770000000E+01 0.  1.
         15    1    1    2    0    0  0.50142584147E+01  0.65838402531E+01 -0.74980124646E+00  0.84976273652E+01  0.17770000000E+01 0. -1.
</event>
<event>
 6    1  0.1226227E-002  0.1606000E+03  0.7546771E-02  0.1087361E+00
        -11   -1    0    0    0    0  0.00000000000E+00  0.00000000000E+00  0.18250000000E+03  0.18250000000E+03  0.00000000000E+00 0. -1.
         11   -1    0    0    0    0 -0.00000000000E+00 -0.00000000000E+00 -0.18250000000E+03  0.18250000000E+03  0.00000000000E+00 0. -1.
        -11    1    1    2    0    0  0.99964549134E+00 -0.24087533957E+02  0.15649625396E+03  0.15834230668E+03  0.00000000000E+00 0. -1.
         11    1    1    2    0    0 -0.21494381975E+01  0.64381636234E+00 -0.16378118164E+03  0.16379655077E+03  0.00000000000E+00 0. -1.
        -15    1    1    2    0    0  0.60951513190E+01  0.41997803157E+01 -0.12583121819E+02  0.14706519235E+02  0.17770000000E+01 0.  1.
         15    1    1    2    0    0 -0.49453586129E+01  0.19243937279E+02  0.19868049503E+02  0.28154623312E+02  0.17770000000E+01 0. -1.
</event>
<event>
 6    1  0.1226227E-002  0.1853273E+03  0.7546771E-02  0.1066226E+00
        -11   -1    0    0    0    0  0.00000000000E+00  0.00000000000E+00  0.18250000000E+03  0.18250000000E+03  0.00000000000E+00 0. -1.
         11   -1    0    0    0    0 -0.00000000000E+00 -0.00000000000E+00 -0.18250000000E+03  0.18250000000E+03  0.00000000000E+00 0.  1.
        -11    1    1    2    0    0  0.86209598838E+01  0.91744190705E+01  0.12488425069E+03  0.12551719797E+03  0.00000000000E+00 0. -1.
         11    1    1    2    0    0  0.25038566289E+01 -0.18861791289E+01 -0.17964539326E+03  0.17967274220E+03  0.00000000000E+00 0.  1.
        -15    1    1    2    0    0 -0.85641850327E+01 -0.77530923761E+01  0.55378799379E+02  0.56598806139E+02  0.17770000000E+01 0. -1.
         15    1    1    2    0    0 -0.25606314799E+01  0.46485243448E+00 -0.61765680874E+00  0.32112536952E+01  0.17770000000E+01 0. -1.
</event>
<event>
 6    1  0.1226227E-002  0.1831538E+03  0.7546771E-02  0.1067936E+00
        -11   -1    0    0    0    0  0.00000000000E+00  0.00000000000E+00  0.18250000000E+03  0.18250000000E+03  0.00000000000E+00 0.  1.
         11   -1    0    0    0    0 -0.00000000000E+00 -0.00000000000E+00 -0.18250000000E+03  0.18250000000E+03  0.00000000000E+00 0. -1.
        -11    1    1    2    0    0  0.11834545635E+00 -0.23678235942E+01  0.13250988277E+03  0.13253108929E+03  0.00000000000E+00 0.  1.
         11    1    1    2    0    0  0.65496293291E+01 -0.30276055551E+01 -0.18170303568E+03  0.18184624609E+03  0.00000000000E+00 0. -1.
        -15    1    1    2    0    0 -0.14661708420E+01  0.11028051224E+01  0.31552014791E+01  0.40594163927E+01  0.17770000000E+01 0. -1.
         15    1    1    2    0    0 -0.52018039434E+01  0.42926240269E+01  0.46037951429E+02  0.46563248234E+02  0.17770000000E+01 0.  1.
</event>
<event>
 6    1  0.1226227E-002  0.1845209E+03  0.7546771E-02  0.1066857E+00
        -11   -1    0    0    0    0  0.00000000000E+00  0.00000000000E+00  0.18250000000E+03  0.18250000000E+03  0.00000000000E+00 0. -1.
         11   -1    0    0    0    0 -0.00000000000E+00 -0.00000000000E+00 -0.18250000000E+03  0.18250000000E+03  0.00000000000E+00 0.  1.
        -11    1    1    2    0    0  0.31439351931E+01  0.53085741143E+01  0.16680008857E+03  0.16691415409E+03  0.00000000000E+00 0. -1.
         11    1    1    2    0    0  0.43091085439E+01 -0.89213629750E+00 -0.18042543225E+03  0.18047908723E+03  0.00000000000E+00 0.  1.
        -15    1    1    2    0    0 -0.68975609702E+01 -0.50777866922E+01  0.12709982813E+02  0.15429246810E+02  0.17770000000E+01 0.  1.
         15    1    1    2    0    0 -0.55548276683E+00  0.66134887538E+00  0.91536086275E+00  0.21775118710E+01  0.17770000000E+01 0. -1.
</event>
<event>
 6    1  0.1226227E-002  0.1835994E+03  0.7546771E-02  0.1067583E+00
        -11   -1    0    0    0    0  0.00000000000E+00  0.00000000000E+00  0.18250000000E+03  0.18250000000E+03  0.00000000000E+00 0. -1.
         11   -1    0    0    0    0 -0.00000000000E+00 -0.00000000000E+00 -0.18250000000E+03  0.18250000000E+03  0.00000000000E+00 0. -1.
        -11    1    1    2    0    0 -0.17712636282E+01  0.11375507920E+01  0.14300334668E+03  0.14301883987E+03  0.00000000000E+00 0. -1.
         11    1    1    2    0    0 -0.41493184850E+00  0.32323981972E+01 -0.18137131825E+03  0.18140059440E+03  0.00000000000E+00 0. -1.
        -15    1    1    2    0    0  0.90616707968E+00 -0.32917639686E+01  0.37900160881E+02  0.38095101688E+02  0.17770000000E+01 0. -1.
         15    1    1    2    0    0  0.12800283970E+01 -0.10781850205E+01  0.46781068735E+00  0.24854640361E+01  0.17770000000E+01 0.  1.
</event>
<event>
 6    1  0.1226227E-002  0.1837298E+03  0.7546771E-02  0.1067480E+00
        -11   -1    0    0    0    0  0.00000000000E+00  0.00000000000E+00  0.18250000000E+03  0.18250000000E+03  0.00000000000E+00 0. -1.
         11   -1    0    0    0    0 -0.00000000000E+00 -0.00000000000E+00 -0.18250000000E+03  0.18250000000E+03  0.00000000000E+00 0.  1.
        -11    1    1    2    0    0  0.48808376635E+01  0.15239951778E+01  0.18119809827E+03  0.18127022909E+03  0.00000000000E+00 0. -1.
         11    1    1    2    0    0 -0.25078255704E+01  0.38039631439E+01 -0.14144714829E+03  0.14152051118E+03  0.00000000000E+00 0.  1.
        -15    1    1    2    0    0 -0.15884272484E+01 -0.85168350953E+01 -0.35341266253E+02  0.36431063813E+02  0.17770000000E+01 0. -1.
         15    1    1    2    0    0 -0.78458484471E+00  0.31888767736E+01 -0.44096837250E+01  0.57781959131E+01  0.17770000000E+01 0.  1.
</event>
<event>
 6    1  0.1226227E-002  0.1827127E+03  0.7546771E-02  0.1068286E+00
        -11   -1    0    0    0    0  0.00000000000E+00  0.00000000000E+00  0.18250000000E+03  0.18250000000E+03  0.00000000000E+00 0. -1.
         11   -1    0    0    0    0 -0.00000000000E+00 -0.00000000000E+00 -0.18250000000E+03  0.18250000000E+03  0.00000000000E+00 0.  1.
        -11    1    1    2    0    0  0.27300810526E+01  0.20069157444E+01  0.18225584601E+03  0.18228734037E+03  0.00000000000E+00 0. -1.
         11    1    1    2    0    0 -0.95864789417E+00 -0.10123191873E+01 -0.49066846474E+02  0.49086650108E+02  0.00000000000E+00 0.  1.
        -15    1    1    2    0    0  0.22908903583E+01 -0.29647336565E+00 -0.11818592495E+02  0.12172630474E+02  0.17770000000E+01 0.  1.
         15    1    1    2    0    0 -0.40623235167E+01 -0.69812319146E+00 -0.12137040704E+03  0.12145337905E+03  0.17770000000E+01 0.  1.
</event>
<event>
 6    1  0.1226227E-002  0.1902523E+03  0.7546771E-02  0.1062446E+00
        -11   -1    0    0    0    0  0.00000000000E+00  0.00000000000E+00  0.18250000000E+03  0.18250000000E+03  0.00000000000E+00 0. -1.
         11   -1    0    0    0    0 -0.00000000000E+00 -0.00000000000E+00 -0.18250000000E+03  0.18250000000E+03  0.00000000000E+00 0. -1.
        -11    1    1    2    0    0  0.29081079174E+01  0.14681744838E+01  0.13805410515E+03  0.13809253629E+03  0.00000000000E+00 0. -1.
         11    1    1    2    0    0  0.52721788559E+00 -0.42275016383E+01 -0.17469576967E+03  0.17474770863E+03  0.00000000000E+00 0. -1.
        -15    1    1    2    0    0 -0.37712222528E+01  0.48354457886E+01 -0.63942129980E+01  0.90358918828E+01  0.17770000000E+01 0. -1.
         15    1    1    2    0    0  0.33589644980E+00 -0.20761186340E+01  0.43035877517E+02  0.43123863204E+02  0.17770000000E+01 0.  1.
</event>
<event>
 6    1  0.1226227E-002  0.1699692E+03  0.7546771E-02  0.1078891E+00
        -11   -1    0    0    0    0  0.00000000000E+00  0.00000000000E+00  0.18250000000E+03  0.18250000000E+03  0.00000000000E+00 0.  1.
         11   -1    0    0    0    0 -0.00000000000E+00 -0.00000000000E+00 -0.18250000000E+03  0.18250000000E+03  0.00000000000E+00 0. -1.
        -11    1    1    2    0    0 -0.15716551581E+01 -0.99302599914E+01  0.16816152642E+03  0.16846180318E+03  0.00000000000E+00 0.  1.
         11    1    1    2    0    0 -0.10359546848E+02  0.32347172269E+01 -0.17142417258E+03  0.17176737336E+03  0.00000000000E+00 0. -1.
        -15    1    1    2    0    0  0.17580985956E+01 -0.45404758376E+01 -0.51819779987E+01  0.73292193638E+01  0.17770000000E+01 0.  1.
         15    1    1    2    0    0  0.10173103411E+02  0.11236018602E+02  0.84446241635E+01  0.17441604092E+02  0.17770000000E+01 0. -1.
</event>
<event>
 6    1  0.1226227E-002  0.1830853E+03  0.7546771E-02  0.1067990E+00
        -11   -1    0    0    0    0  0.00000000000E+00  0.00000000000E+00  0.18250000000E+03  0.18250000000E+03  0.00000000000E+00 0.  1.
         11   -1    0    0    0    0 -0.00000000000E+00 -0.00000000000E+00 -0.18250000000E+03  0.18250000000E+03  0.00000000000E+00 0.  1.
        -11    1    1    2    0    0  0.33136369047E+01 -0.31396696263E+01  0.18185740821E+03  0.18191469054E+03  0.00000000000E+00 0.  1.
         11    1    1    2    0    0 -0.17012388754E+01  0.21164600100E+01 -0.11630548965E+03  0.11633718468E+03  0.00000000000E+00 0.  1.
        -15    1    1    2    0    0 -0.46103090062E+01  0.32947857050E+01 -0.16794718098E+02  0.17813782500E+02  0.17770000000E+01 0.  1.
         15    1    1    2    0    0  0.29979109769E+01 -0.22715760887E+01 -0.48757200462E+02  0.48934342277E+02  0.17770000000E+01 0.  1.
</event>
<event>
 6    1  0.1226227E-002  0.1959112E+03  0.7546771E-02  0.1058254E+00
        -11   -1    0    0    0    0  0.00000000000E+00  0.00000000000E+00  0.18250000000E+03  0.18250000000E+03  0.00000000000E+00 0.  1.
         11   -1    0    0    0    0 -0.00000000000E+00 -0.00000000000E+00 -0.18250000000E+03  0.18250000000E+03  0.00000000000E+00 0. -1.
        -11    1    1    2    0    0 -0.40679388741E+01  0.22603269888E+01  0.13020441676E+03  0.13028755638E+03  0.00000000000E+00 0.  1.
         11    1    1    2    0    0 -0.56712432162E+01  0.55027788848E+01 -0.16890400373E+03  0.16908875199E+03  0.00000000000E+00 0. -1.
        -15    1    1    2    0    0  0.80922846879E+01 -0.90124639118E+01 -0.10633479498E+02  0.16215369020E+02  0.17770000000E+01 0. -1.
         15    1    1    2    0    0  0.16468974024E+01  0.12493580382E+01  0.49333066470E+02  0.49408322608E+02  0.17770000000E+01 0.  1.
</event>
<event>
 6    1  0.1226227E-002  0.1837722E+03  0.7546771E-02  0.1067447E+00
        -11   -1    0    0    0    0  0.00000000000E+00  0.00000000000E+00  0.18250000000E+03  0.18250000000E+03  0.00000000000E+00 0. -1.
         11   -1    0    0    0    0 -0.00000000000E+00 -0.00000000000E+00 -0.18250000000E+03  0.18250000000E+03  0.00000000000E+00 0. -1.
        -11    1    1    2    0    0  0.58886888124E+01 -0.26204726338E+01  0.16124980695E+03  0.16137857285E+03  0.00000000000E+00 0. -1.
         11    1    1    2    0    0 -0.15900166554E+00  0.25133739529E+01 -0.18121029555E+03  0.18122779462E+03  0.00000000000E+00 0. -1.
        -15    1    1    2    0    0  0.10704287102E+01 -0.15965302532E+01  0.31648335556E+01  0.41071433999E+01  0.17770000000E+01 0. -1.
         15    1    1    2    0    0 -0.68001158570E+01  0.17036289340E+01  0.16795655042E+02  0.18286489125E+02  0.17770000000E+01 0.  1.
</event>
<event>
 6    1  0.1226227E-002  0.1926010E+03  0.7546771E-02  0.1060687E+00
        -11   -1    0    0    0    0  0.00000000000E+00  0.00000000000E+00  0.18250000000E+03  0.18250000000E+03  0.00000000000E+00 0. -1.
         11   -1    0    0    0    0 -0.00000000000E+00 -0.00000000000E+00 -0.18250000000E+03  0.18250000000E+03  0.00000000000E+00 0. -1.
        -11    1    1    2    0    0  0.85299604717E+01 -0.33094490725E+01  0.15933235081E+03  0.15959483292E+03  0.00000000000E+00 0. -1.
         11    1    1    2    0    0 -0.10108676180E+01  0.29904871887E+01 -0.17237011170E+03  0.17239901472E+03  0.00000000000E+00 0. -1.
        -15    1    1    2    0    0 -0.40851590838E+01  0.61206333849E+01  0.21059033232E+02  0.22378366505E+02  0.17770000000E+01 0.  1.
         15    1    1    2    0    0 -0.34339337699E+01 -0.58016715011E+01 -0.80212723390E+01  0.10627785860E+02  0.17770000000E+01 0. -1.
</event>
<event>
 6    1  0.1226227E-002  0.1841194E+03  0.7546771E-02  0.1067173E+00
        -11   -1    0    0    0    0  0.00000000000E+00  0.00000000000E+00  0.18250000000E+03  0.18250000000E+03  0.00000000000E+00 0.  1.
         11   -1    0    0    0    0 -0.00000000000E+00 -0.00000000000E+00 -0.18250000000E+03  0.18250000000E+03  0.00000000000E+00 0. -1.
        -11    1    1    2    0    0  0.16812613444E+01 -0.42836035781E+01  0.16431009496E+03  0.16437452116E+03  0.00000000000E+00 0.  1.
         11    1    1    2    0    0 -0.22270807449E+00 -0.34908661619E+01 -0.18084681133E+03  0.18088063720E+03  0.00000000000E+00 0. -1.
        -15    1    1    2    0    0 -0.20812052089E+01  0.72204258444E+01  0.85508716392E+01  0.11521332357E+02  0.17770000000E+01 0.  1.
         15    1    1    2    0    0  0.62265193903E+00  0.55404389564E+00  0.79858447265E+01  0.82235092917E+01  0.17770000000E+01 0.  1.
</event>
<event>
 6    1  0.1226227E-002  0.1873833E+03  0.7546771E-02  0.1064633E+00
        -11   -1    0    0    0    0  0.00000000000E+00  0.00000000000E+00  0.18250000000E+03  0.18250000000E+03  0.00000000000E+00 0. -1.
         11   -1    0    0    0    0 -0.00000000000E+00 -0.00000000000E+00 -0.18250000000E+03  0.18250000000E+03  0.00000000000E+00 0. -1.
        -11    1    1    2    0    0  0.61352515607E-01 -0.35595238131E+01  0.17758099526E+03  0.17761667672E+03  0.00000000000E+00 0. -1.
         11    1    1    2    0    0  0.57928214884E+00 -0.20166740703E+01 -0.14453507883E+03  0.14455030804E+03  0.00000000000E+00 0. -1.
        -15    1    1    2    0    0 -0.55997992015E+01  0.98040324565E+01 -0.26995977214E+01  0.11744035097E+02  0.17770000000E+01 0. -1.
         15    1    1    2    0    0  0.49591645370E+01 -0.42278345730E+01 -0.30346318706E+02  0.31088980140E+02  0.17770000000E+01 0.  1.
</event>
<event>
 6    1  0.1226227E-002  0.1786713E+03  0.7546771E-02  0.1071544E+00
        -11   -1    0    0    0    0  0.00000000000E+00  0.00000000000E+00  0.18250000000E+03  0.18250000000E+03  0.00000000000E+00 0.  1.
         11   -1    0    0    0    0 -0.00000000000E+00 -0.00000000000E+00 -0.18250000000E+03  0.18250000000E+03  0.00000000000E+00 0.  1.
        -11    1    1    2    0    0 -0.25677151584E+01  0.79737707136E+00  0.17912189561E+03  0.17914207339E+03  0.00000000000E+00 0.  1.
         11    1    1    2    0    0 -0.28490555161E+01 -0.11923238746E+01 -0.17821619962E+03  0.17824295936E+03  0.00000000000E+00 0.  1.
        -15    1    1    2    0    0  0.42274360568E+01  0.17098140538E+01  0.13889484852E+00  0.48960903272E+01  0.17770000000E+01 0.  1.
         15    1    1    2    0    0  0.11893346177E+01 -0.13148672506E+01 -0.10445908327E+01  0.27188769239E+01  0.17770000000E+01 0. -1.
</event>
<event>
 6    1  0.1226227E-002  0.2143830E+03  0.7546771E-02  0.1045575E+00
        -11   -1    0    0    0    0  0.00000000000E+00  0.00000000000E+00  0.18250000000E+03  0.18250000000E+03  0.00000000000E+00 0.  1.
         11   -1    0    0    0    0 -0.00000000000E+00 -0.00000000000E+00 -0.18250000000E+03  0.18250000000E+03  0.00000000000E+00 0. -1.
        -11    1    1    2    0    0  0.20890917667E+01 -0.46214890517E+00  0.15060181334E+03  0.15061701121E+03  0.00000000000E+00 0.  1.
         11    1    1    2    0    0  0.46374604452E+01 -0.10998163176E+02 -0.12901514902E+03  0.12956610016E+03  0.00000000000E+00 0. -1.
        -15    1    1    2    0    0 -0.10151877588E+02 -0.23177234704E+01  0.29725735537E+02  0.31546941894E+02  0.17770000000E+01 0.  1.
         15    1    1    2    0    0  0.34253253756E+01  0.13778035552E+02 -0.51312399853E+02  0.53269946737E+02  0.17770000000E+01 0. -1.
</event>
<event>
 6    1  0.1226227E-002  0.1851434E+03  0.7546771E-02  0.1066370E+00
        -11   -1    0    0    0    0  0.00000000000E+00  0.00000000000E+00  0.18250000000E+03  0.18250000000E+03  0.00000000000E+00 0. -1.
         11   -1    0    0    0    0 -0.00000000000E+00 -0.00000000000E+00 -0.18250000000E+03  0.18250000000E+03  0.00000000000E+00 0. -1.
        -11    1    1    2    0    0  0.61839169744E+01 -0.29876483152E+00  0.12988402160E+03  0.13003149294E+03  0.00000000000E+00 0. -1.
         11    1    1    2    0    0  0.17422682700E+01 -0.18992152559E+01 -0.17983809706E+03  0.17985656416E+03  0.00000000000E+00 0. -1.
        -15    1    1    2    0    0 -0.72765902124E+01 -0.15812454554E+01  0.50292702659E+02  0.50872023471E+02  0.17770000000E+01 0.  1.
         15    1    1    2    0    0 -0.64959503198E+00  0.37792255428E+01 -0.33862720196E+00  0.42399194321E+01  0.17770000000E+01 0. -1.
</event>
<event>
 6    1  0.1226227E-002  0.1891082E+03  0.7546771E-02  0.1063313E+00
        -11   -1    0    0    0    0  0.00000000000E+00  0.00000000000E+00  0.18250000000E+03  0.18250000000E+03  0.00000000000E+00 0. -1.
         11   -1    0    0    0    0 -0.00000000000E+00 -0.00000000000E+00 -0.18250000000E+03  0.18250000000E+03  0.00000000000E+00 0. -1.
        -11    1    1    2    0    0 -0.62085158980E+01 -0.16542347394E+01  0.17577437828E+03  0.17589176849E+03  0.00000000000E+00 0. -1.
         11    1    1    2    0    0 -0.20203361955E+01  0.45845107804E+00 -0.13333792146E+03  0.13335401469E+03  0.00000000000E+00 0. -1.
        -15    1    1    2    0    0  0.21545163491E+01 -0.29377374984E+01 -0.46833914766E+02  0.47008994284E+02  0.17770000000E+01 0. -1.
         15    1    1    2    0    0  0.60743357445E+01  0.41335211598E+01  0.43974579419E+01  0.87452225396E+01  0.17770000000E+01 0.  1.
</event>
<event>
 6    1  0.1226227E-002  0.1761345E+03  0.7546771E-02  0.1073638E+00
        -11   -1    0    0    0    0  0.00000000000E+00  0.00000000000E+00  0.18250000000E+03  0.18250000000E+03  0.00000000000E+00 0. -1.
         11   -1    0    0    0    0 -0.00000000000E+00 -0.00000000000E+00 -0.18250000000E+03  0.18250000000E+03  0.00000000000E+00 0. -1.
        -11    1    1    2    0    0 -0.60152212735E+01  0.88200179507E+01  0.17767262536E+03  0.17799308247E+03  0.00000000000E+00 0. -1.
         11    1    1    2    0    0  0.10850730790E+00 -0.26695090541E+01 -0.17437414530E+03  0.17439461174E+03  0.00000000000E+00 0. -1.
        -15    1    1    2    0    0 -0.92414895182E+00  0.82311167801E+00 -0.11813786635E+01  0.24667688717E+01  0.17770000000E+01 0. -1.
         15    1    1    2    0    0  0.68308629174E+01 -0.69736205747E+01 -0.21171013952E+01  0.10145536922E+02  0.17770000000E+01 0.  1.
</event>
<event>
 6    1  0.1226227E-002  0.1859941E+03  0.7546771E-02  0.1065707E+00
        -11   -1    0    0    0    0  0.00000000000E+00  0.00000000000E+00  0.18250000000E+03  0.18250000000E+03  0.00000000000E+00 0. -1.
         11   -1    0    0    0    0 -0.00000000000E+00 -0.00000000000E+00 -0.18250000000E+03  0.18250000000E+03  0.00000000000E+00 0.  1.
        -11    1    1    2    0    0  0.71640105350E+01  0.54980666246E+01  0.17877800714E+03  0.17900594298E+03  0.00000000000E+00 0. -1.
         11    1    1    2    0    0 -0.29342792639E+01 -0.47576750194E+01 -0.13424376419E+03  0.13436008964E+03  0.00000000000E+00 0.  1.
        -15    1    1    2    0    0  0.34321616278E+01 -0.43193134026E+01 -0.42317963514E+02  0.42713042114E+02  0.17770000000E+01 0. -1.
         15    1    1    2    0    0 -0.76618928990E+01  0.35789217974E+01 -0.22162794415E+01  0.89209252653E+01  0.17770000000E+01 0.  1.
</event>
<event>
 6    1  0.1226227E-002  0.1843178E+03  0.7546771E-02  0.1067017E+00
        -11   -1    0    0    0    0  0.00000000000E+00  0.00000000000E+00  0.18250000000E+03  0.18250000000E+03  0.00000000000E+00 0.  1.
         11   -1    0    0    0    0 -0.00000000000E+00 -0.00000000000E+00 -0.18250000000E+03  0.18250000000E+03  0.00000000000E+00 0. -1.
        -11    1    1    2    0    0  0.30919001373E+01 -0.23301349760E+01  0.15810172447E+03  0.15814912158E+03  0.00000000000E+00 0.  1.
         11    1    1    2    0    0 -0.42066861619E+01 -0.71666152477E-01 -0.18063325599E+03  0.18068224737E+03  0.00000000000E+00 0. -1.
        -15    1    1    2    0    0 -0.35520145451E+01 -0.18531989207E+01  0.17095962999E+02  0.17648819604E+02  0.17770000000E+01 0. -1.
         15    1    1    2    0    0  0.46668005697E+01  0.42550000491E+01  0.54355685247E+01  0.85198114511E+01  0.17770000000E+01 0. -1.
</event>
<event>
 6    1  0.1226227E-002  0.1833388E+03  0.7546771E-02  0.1067789E+00
        -11   -1    0    0    0    0  0.00000000000E+00  0.00000000000E+00  0.18250000000E+03  0.18250000000E+03  0.00000000000E+00 0. -1.
         11   -1    0    0    0    0 -0.00000000000E+00 -0.00000000000E+00 -0.18250000000E+03  0.18250000000E+03  0.00000000000E+00 0.  1.
        -11    1    1    2    0    0  0.33803856472E+01 -0.41912733683E+00  0.16293305696E+03  0.16296865872E+03  0.00000000000E+00 0. -1.
         11    1    1    2    0    0  0.73462514793E+00 -0.28988478434E+01 -0.18163662991E+03  0.18166124606E+03  0.00000000000E+00 0.  1.
        -15    1    1    2    0    0 -0.20764342370E+01  0.81240566783E+00  0.26292949719E+01  0.38784665989E+01  0.17770000000E+01 0. -1.
         15    1    1    2    0    0 -0.20385765581E+01  0.25055695124E+01  0.16074277980E+02  0.16491628620E+02  0.17770000000E+01 0. -1.
</event>
<event>
 6    1  0.1226227E-002  0.1837320E+03  0.7546771E-02  0.1067478E+00
        -11   -1    0    0    0    0  0.00000000000E+00  0.00000000000E+00  0.18250000000E+03  0.18250000000E+03  0.00000000000E+00 0. -1.
         11   -1    0    0    0    0 -0.00000000000E+00 -0.00000000000E+00 -0.18250000000E+03  0.18250000000E+03  0.00000000000E+00 0. -1.
        -11    1    1    2    0    0  0.73087474423E+00 -0.88809649985E+01  0.15087594359E+03  0.15113886354E+03  0.00000000000E+00 0. -1.
         11    1    1    2    0    0  0.61719686294E+01  0.81398018174E+01 -0.18097993368E+03  0.18126799488E+03  0.00000000000E+00 0. -1.
        -15    1    1    2    0    0 -0.10078700069E+01  0.81117109268E+00  0.23351758108E+02  0.23454981054E+02  0.17770000000E+01 0. -1.
         15    1    1    2    0    0 -0.58949733668E+01 -0.70007911567E-01  0.67522319828E+01  0.91381605289E+01  0.17770000000E+01 0.  1.
</event>
<event>
 6    1  0.1226227E-002  0.1891031E+03  0.7546771E-02  0.1063317E+00
        -11   -1    0    0    0    0  0.00000000000E+00  0.00000000000E+00  0.18250000000E+03  0.18250000000E+03  0.00000000000E+00 0.  1.
         11   -1    0    0    0    0 -0.00000000000E+00 -0.00000000000E+00 -0.18250000000E+03  0.18250000000E+03  0.00000000000E+00 0. -1.
        -11    1    1    2    0    0  0.40389499951E+00 -0.23625232102E+01  0.17588056020E+03  0.17589689055E+03  0.00000000000E+00 0.  1.
         11    1    1    2    0    0  0.57639399288E+01  0.24842421549E+01 -0.16452380296E+03  0.16464348212E+03  0.00000000000E+00 0. -1.
        -15    1    1    2    0    0 -0.13353840509E+02 -0.26151004638E+01 -0.85015446909E+01  0.16143041780E+02  0.17770000000E+01 0. -1.
         15    1    1    2    0    0  0.71860055807E+01  0.24933815192E+01 -0.28552125451E+01  0.83165855544E+01  0.17770000000E+01 0.  1.
</event>
<event>
 6    1  0.1226227E-002  0.1826352E+03  0.7546771E-02  0.1068347E+00
        -11   -1    0    0    0    0  0.00000000000E+00  0.00000000000E+00  0.18250000000E+03  0.18250000000E+03  0.00000000000E+00 0. -1.
         11   -1    0    0    0    0 -0.00000000000E+00 -0.00000000000E+00 -0.18250000000E+03  0.18250000000E+03  0.00000000000E+00 0. -1.
        -11    1    1    2    0    0 -0.13099646703E+01  0.85393304462E+00  0.96571463076E+02  0.96584122348E+02  0.00000000000E+00 0. -1.
         11    1    1    2    0    0 -0.36420177405E+01 -0.13573171379E+01 -0.18232337289E+03  0.18236479623E+03  0.00000000000E+00 0. -1.
        -15    1    1    2    0    0  0.43288911151E+01  0.15658196894E+01  0.64924601918E+02  0.65111848022E+02  0.17770000000E+01 0. -1.
         15    1    1    2    0    0  0.62309129572E+00 -0.10624355961E+01  0.20827307894E+02  0.20939233398E+02  0.17770000000E+01 0. -1.
</event>
<event>
 6    1  0.1226227E-002  0.1828967E+03  0.7546771E-02  0.1068139E+00
        -11   -1    0    0    0    0  0.00000000000E+00  0.00000000000E+00  0.18250000000E+03  0.18250000000E+03  0.00000000000E+00 0.  1.
         11   -1    0    0    0    0 -0.00000000000E+00 -0.00000000000E+00 -0.18250000000E+03  0.18250000000E+03  0.00000000000E+00 0. -1.
        -11    1    1    2    0    0  0.19497105677E+01  0.54214546748E+00  0.11559911317E+03  0.11561682516E+03  0.00000000000E+00 0.  1.
         11    1    1    2    0    0 -0.43000161913E+01 -0.15556139241E+01 -0.18204585897E+03  0.18210328070E+03  0.00000000000E+00 0. -1.
        -15    1    1    2    0    0 -0.21522529722E+00  0.19226281976E+01  0.60023756977E+02  0.60081211304E+02  0.17770000000E+01 0.  1.
         15    1    1    2    0    0  0.25655309208E+01 -0.90915974102E+00  0.64229888175E+01  0.71986828441E+01  0.17770000000E+01 0. -1.
</event>
<event>
 6    1  0.1226227E-002  0.1836273E+03  0.7546771E-02  0.1067561E+00
        -11   -1    0    0    0    0  0.00000000000E+00  0.00000000000E+00  0.18250000000E+03  0.18250000000E+03  0.00000000000E+00 0.  1.
         11   -1    0    0    0    0 -0.00000000000E+00 -0.00000000000E+00 -0.18250000000E+03  0.18250000000E+03  0.00000000000E+00 0.  1.
        -11    1    1    2    0    0  0.19568983121E+01  0.30092568011E+01  0.11084540805E+03  0.11090351466E+03  0.00000000000E+00 0.  1.
         11    1    1    2    0    0  0.13645397560E+01 -0.34581549790E+01 -0.18133455300E+03  0.18137265758E+03  0.00000000000E+00 0.  1.
        -15    1    1    2    0    0 -0.47674162451E+01 -0.19726093056E+01  0.58544746021E+01  0.80032522760E+01  0.17770000000E+01 0. -1.
         15    1    1    2    0    0  0.14459781771E+01  0.24215074835E+01  0.64634670346E+02  0.64720575485E+02  0.17770000000E+01 0.  1.
</event>
<event>
 6    1  0.1226227E-002  0.1884070E+03  0.7546771E-02  0.1063848E+00
        -11   -1    0    0    0    0  0.00000000000E+00  0.00000000000E+00  0.18250000000E+03  0.18250000000E+03  0.00000000000E+00 0.  1.
         11   -1    0    0    0    0 -0.00000000000E+00 -0.00000000000E+00 -0.18250000000E+03  0.18250000000E+03  0.00000000000E+00 0.  1.
        -11    1    1    2    0    0  0.33972053077E+01 -0.22581158851E+01  0.17654584240E+03  0.17659296294E+03  0.00000000000E+00 0.  1.
         11    1    1    2    0    0  0.29728695553E+01 -0.66493435329E+00 -0.15539455198E+03  0.15542440888E+03  0.00000000000E+00 0.  1.
        -15    1    1    2    0    0 -0.13422748955E+02  0.26433754484E+01 -0.21666822508E+02  0.25685921238E+02  0.17770000000E+01 0. -1.
         15    1    1    2    0    0  0.70526740916E+01  0.27967478997E+00  0.51553208006E+00  0.72967069392E+01  0.17770000000E+01 0.  1.
</event>
<event>
 6    1  0.1226227E-002  0.1852842E+03  0.7546771E-02  0.1066260E+00
        -11   -1    0    0    0    0  0.00000000000E+00  0.00000000000E+00  0.18250000000E+03  0.18250000000E+03  0.00000000000E+00 0.  1.
         11   -1    0    0    0    0 -0.00000000000E+00 -0.00000000000E+00 -0.18250000000E+03  0.18250000000E+03  0.00000000000E+00 0. -1.
        -11    1    1    2    0    0 -0.30302097230E+01 -0.18460813971E+01  0.16350029560E+03  0.16353879310E+03  0.00000000000E+00 0.  1.
         11    1    1    2    0    0  0.67189704170E+01  0.18218078543E+00 -0.17959006905E+03  0.17971580524E+03  0.00000000000E+00 0. -1.
        -15    1    1    2    0    0  0.51927873867E+00  0.41024371577E+01  0.15942125703E+02  0.16565287259E+02  0.17770000000E+01 0. -1.
         15    1    1    2    0    0 -0.42080394327E+01 -0.24385365460E+01  0.14764774645E+00  0.51801144013E+01  0.17770000000E+01 0.  1.
</event>
<event>
 6    1  0.2638102E-002  0.1838972E+03  0.7546771E-02  0.1067348E+00
        -11   -1    0    0    0    0  0.00000000000E+00  0.00000000000E+00  0.18250000000E+03  0.18250000000E+03  0.00000000000E+00 0.  1.
         11   -1    0    0    0    0 -0.00000000000E+00 -0.00000000000E+00 -0.18250000000E+03  0.18250000000E+03  0.00000000000E+00 0.  1.
        -11    1    1    2    0    0 -0.50097484868E+00 -0.27338883520E+01  0.18108149175E+03  0.18110282100E+03  0.00000000000E+00 0.  1.
         11    1    1    2    0    0 -0.27629927560E+01  0.79263982540E+00 -0.71509437976E+02  0.71567186102E+02  0.00000000000E+00 0.  1.
        -15    1    1    2    0    0  0.27358903836E+01  0.51717379533E+00 -0.10991736333E+03  0.10996698166E+03  0.17770000000E+01 0.  1.
         15    1    1    2    0    0  0.52807722113E+00  0.14240747312E+01  0.34530956315E+00  0.23630112327E+01  0.17770000000E+01 0.  1.
</event>
<event>
 6    1  0.1226227E-002  0.1835078E+03  0.7546771E-02  0.1067655E+00
        -11   -1    0    0    0    0  0.00000000000E+00  0.00000000000E+00  0.18250000000E+03  0.18250000000E+03  0.00000000000E+00 0.  1.
         11   -1    0    0    0    0 -0.00000000000E+00 -0.00000000000E+00 -0.18250000000E+03  0.18250000000E+03  0.00000000000E+00 0.  1.
        -11    1    1    2    0    0 -0.40517603998E+01  0.17263541623E+01  0.18143877582E+03  0.18149222141E+03  0.00000000000E+00 0.  1.
         11    1    1    2    0    0 -0.60385194618E+01 -0.16310951618E+01 -0.11181794177E+03  0.11199275106E+03  0.00000000000E+00 0.  1.
        -15    1    1    2    0    0 -0.11227445315E+01  0.10304038326E+01 -0.24743276602E+01  0.34062169208E+01  0.17770000000E+01 0. -1.
         15    1    1    2    0    0  0.11213024393E+02 -0.11256628331E+01 -0.67146506393E+02  0.68108810610E+02  0.17770000000E+01 0. -1.
</event>
<event>
 6    1  0.1226227E-002  0.1857945E+03  0.7546771E-02  0.1065862E+00
        -11   -1    0    0    0    0  0.00000000000E+00  0.00000000000E+00  0.18250000000E+03  0.18250000000E+03  0.00000000000E+00 0. -1.
         11   -1    0    0    0    0 -0.00000000000E+00 -0.00000000000E+00 -0.18250000000E+03  0.18250000000E+03  0.00000000000E+00 0. -1.
        -11    1    1    2    0    0 -0.86083304827E+00  0.32702566978E+01  0.15199451240E+03  0.15203212625E+03  0.00000000000E+00 0. -1.
         11    1    1    2    0    0 -0.55666683814E+00 -0.35843067439E+01 -0.17916879281E+03  0.17920550619E+03  0.00000000000E+00 0. -1.
        -15    1    1    2    0    0  0.52055917996E+01 -0.32622302846E+01  0.27514156698E+02  0.28247599548E+02  0.17770000000E+01 0. -1.
         15    1    1    2    0    0 -0.37880919132E+01  0.35762803307E+01 -0.33987628087E+00  0.55147680126E+01  0.17770000000E+01 0.  1.
</event>
<event>
 6    1  0.1226227E-002  0.1839525E+03  0.7546771E-02  0.1067304E+00
        -11   -1    0    0    0    0  0.00000000000E+00  0.00000000000E+00  0.18250000000E+03  0.18250000000E+03  0.00000000000E+00 0. -1.
         11   -1    0    0    0    0 -0.00000000000E+00 -0.00000000000E+00 -0.18250000000E+03  0.18250000000E+03  0.00000000000E+00 0.  1.
        -11    1    1    2    0    0 -0.22325014796E+01  0.64056864813E+00  0.10897204834E+03  0.10899679679E+03  0.00000000000E+00 0. -1.
         11    1    1    2    0    0  0.14717790387E+01  0.38096867163E+01 -0.18100142516E+03  0.18104749586E+03  0.00000000000E+00 0.  1.
        -15    1    1    2    0    0 -0.18235723438E+00 -0.73163820431E+01  0.70867104782E+02  0.71266169882E+02  0.17770000000E+01 0.  1.
         15    1    1    2    0    0  0.94307967524E+00  0.28661266787E+01  0.11622720391E+01  0.36895374649E+01  0.17770000000E+01 0. -1.
</event>
<event>
 6    1  0.1238457E-002  0.1833420E+03  0.7546771E-02  0.1067787E+00
        -11   -1    0    0    0    0  0.00000000000E+00  0.00000000000E+00  0.18250000000E+03  0.18250000000E+03  0.00000000000E+00 0. -1.
         11   -1    0    0    0    0 -0.00000000000E+00 -0.00000000000E+00 -0.18250000000E+03  0.18250000000E+03  0.00000000000E+00 0.  1.
        -11    1    1    2    0    0  0.77124627670E+00  0.11145678484E+01  0.85708260525E+02  0.85718976922E+02  0.00000000000E+00 0. -1.
         11    1    1    2    0    0 -0.46431279605E+01 -0.44732316570E+01 -0.18154359487E+03  0.18165804490E+03  0.00000000000E+00 0.  1.
        -15    1    1    2    0    0  0.91527283926E+00 -0.12240019832E+01  0.87346606492E+02  0.87378048158E+02  0.17770000000E+01 0. -1.
         15    1    1    2    0    0  0.29566088445E+01  0.45826657918E+01  0.84887278509E+01  0.10244930021E+02  0.17770000000E+01 0.  1.
</event>
<event>
 6    1  0.1226227E-002  0.1847858E+03  0.7546771E-02  0.1066650E+00
        -11   -1    0    0    0    0  0.00000000000E+00  0.00000000000E+00  0.18250000000E+03  0.18250000000E+03  0.00000000000E+00 0.  1.
         11   -1    0    0    0    0 -0.00000000000E+00 -0.00000000000E+00 -0.18250000000E+03  0.18250000000E+03  0.00000000000E+00 0.  1.
        -11    1    1    2    0    0  0.25384715119E+01  0.49508841280E+00  0.18019566685E+03  0.18021422614E+03  0.00000000000E+00 0.  1.
         11    1    1    2    0    0 -0.28924894781E+01 -0.42125061805E+01 -0.12030083718E+03  0.12040931496E+03  0.00000000000E+00 0.  1.
        -15    1    1    2    0    0  0.25162528803E+01  0.97754690250E+01 -0.55377441214E+02  0.56317937175E+02  0.17770000000E+01 0.  1.
         15    1    1    2    0    0 -0.21622349141E+01 -0.60580512573E+01 -0.45173884573E+01  0.80585217214E+01  0.17770000000E+01 0. -1.
</event>
<event>
 6    1  0.1226227E-002  0.1826371E+03  0.7546771E-02  0.1068346E+00
        -11   -1    0    0    0    0  0.00000000000E+00  0.00000000000E+00  0.18250000000E+03  0.18250000000E+03  0.00000000000E+00 0. -1.
         11   -1    0    0    0    0 -0.00000000000E+00 -0.00000000000E+00 -0.18250000000E+03  0.18250000000E+03  0.00000000000E+00 0.  1.
        -11    1    1    2    0    0 -0.20624161008E+01  0.21411560751E+01  0.18233862073E+03  0.18236285454E+03  0.00000000000E+00 0. -1.
         11    1    1    2    0    0 -0.53356915829E+00  0.16227729385E+01 -0.42621429507E+02  0.42655648410E+02  0.00000000000E+00 0.  1.
        -15    1    1    2    0    0 -0.16399514874E+01 -0.10073598059E+01 -0.73985383275E+02  0.74031742395E+02  0.17770000000E+01 0.  1.
         15    1    1    2    0    0  0.42359367465E+01 -0.27565692077E+01 -0.65731807944E+02  0.65949754651E+02  0.17770000000E+01 0.  1.
</event>
<event>
 6    1  0.1226227E-002  0.1842806E+03  0.7546771E-02  0.1067046E+00
        -11   -1    0    0    0    0  0.00000000000E+00  0.00000000000E+00  0.18250000000E+03  0.18250000000E+03  0.00000000000E+00 0.  1.
         11   -1    0    0    0    0 -0.00000000000E+00 -0.00000000000E+00 -0.18250000000E+03  0.18250000000E+03  0.00000000000E+00 0. -1.
        -11    1    1    2    0    0 -0.23349250998E+01 -0.40106274264E+01  0.18065975519E+03  0.18071935190E+03  0.00000000000E+00 0.  1.
         11    1    1    2    0    0  0.50136851208E+01  0.75604284601E+01 -0.17494130674E+03  0.17517636233E+03  0.00000000000E+00 0. -1.
        -15    1    1    2    0    0 -0.71088925943E+00 -0.18716905354E+00 -0.40960532379E+01  0.45250167868E+01  0.17770000000E+01 0. -1.
         15    1    1    2    0    0 -0.19678707615E+01 -0.33626319802E+01 -0.16223952085E+01  0.45792689789E+01  0.17770000000E+01 0.  1.
</event>
<event>
 6    1  0.1226227E-002  0.1828145E+03  0.7546771E-02  0.1068205E+00
        -11   -1    0    0    0    0  0.00000000000E+00  0.00000000000E+00  0.18250000000E+03  0.18250000000E+03  0.00000000000E+00 0. -1.
         11   -1    0    0    0    0 -0.00000000000E+00 -0.00000000000E+00 -0.18250000000E+03  0.18250000000E+03  0.00000000000E+00 0. -1.
        -11    1    1    2    0    0  0.28051954397E+01 -0.24160828129E+01  0.18214791746E+03  0.18218553843E+03  0.00000000000E+00 0. -1.
         11    1    1    2    0    0 -0.25932941875E+01 -0.28407040031E+00 -0.14642809107E+03  0.14645132886E+03  0.00000000000E+00 0. -1.
        -15    1    1    2    0    0 -0.11664834825E+01 -0.49276670398E-01 -0.25519071293E+02  0.25607495789E+02  0.17770000000E+01 0. -1.
         15    1    1    2    0    0  0.95458223029E+00  0.27494298836E+01 -0.10200755096E+02  0.10755636915E+02  0.17770000000E+01 0.  1.
</event>
<event>
 6    1  0.1226227E-002  0.2012979E+03  0.7546771E-02  0.1054404E+00
        -11   -1    0    0    0    0  0.00000000000E+00  0.00000000000E+00  0.18250000000E+03  0.18250000000E+03  0.00000000000E+00 0.  1.
         11   -1    0    0    0    0 -0.00000000000E+00 -0.00000000000E+00 -0.18250000000E+03  0.18250000000E+03  0.00000000000E+00 0.  1.
        -11    1    1    2    0    0 -0.84075404197E+01 -0.47605420815E+01  0.16341672289E+03  0.16370209167E+03  0.00000000000E+00 0.  1.
         11    1    1    2    0    0  0.31282979913E+01  0.22761476037E+01 -0.13598455687E+03  0.13603957808E+03  0.00000000000E+00 0.  1.
        -15    1    1    2    0    0  0.85797031267E+00  0.62617058393E+01  0.18135228785E+02  0.19287024788E+02  0.17770000000E+01 0.  1.
         15    1    1    2    0    0  0.44212721158E+01 -0.37773113615E+01 -0.45567394803E+02  0.45971305467E+02  0.17770000000E+01 0. -1.
</event>
<event>
 6    1  0.1226227E-002  0.1837710E+03  0.7546771E-02  0.1067448E+00
        -11   -1    0    0    0    0  0.00000000000E+00  0.00000000000E+00  0.18250000000E+03  0.18250000000E+03  0.00000000000E+00 0.  1.
         11   -1    0    0    0    0 -0.00000000000E+00 -0.00000000000E+00 -0.18250000000E+03  0.18250000000E+03  0.00000000000E+00 0. -1.
        -11    1    1    2    0    0  0.50030214951E-01 -0.46069024534E+01  0.18117044048E+03  0.18122901135E+03  0.00000000000E+00 0.  1.
         11    1    1    2    0    0 -0.22776144848E+01  0.30790567722E+01 -0.14931501477E+03  0.14936412473E+03  0.00000000000E+00 0. -1.
        -15    1    1    2    0    0  0.30754714671E+01 -0.37969003816E+00 -0.31430349158E+02  0.31632693000E+02  0.17770000000E+01 0.  1.
         15    1    1    2    0    0 -0.84788719730E+00  0.19075357194E+01 -0.42507654845E+00  0.27741709198E+01  0.17770000000E+01 0. -1.
</event>
<event>
 6    1  0.1226227E-002  0.1838209E+03  0.7546771E-02  0.1067408E+00
        -11   -1    0    0    0    0  0.00000000000E+00  0.00000000000E+00  0.18250000000E+03  0.18250000000E+03  0.00000000000E+00 0. -1.
         11   -1    0    0    0    0 -0.00000000000E+00 -0.00000000000E+00 -0.18250000000E+03  0.18250000000E+03  0.00000000000E+00 0.  1.
        -11    1    1    2    0    0  0.35558763302E+01  0.47037600949E+01  0.15514311162E+03  0.15525512777E+03  0.00000000000E+00 0. -1.
         11    1    1    2    0    0 -0.23716065110E+01 -0.27340025501E+01 -0.18114292238E+03  0.18117907610E+03  0.00000000000E+00 0.  1.
        -15    1    1    2    0    0  0.29806646486E+01  0.39606142453E+00  0.21425317723E+02  0.21708136606E+02  0.17770000000E+01 0.  1.
         15    1    1    2    0    0 -0.41649344678E+01 -0.23658189694E+01  0.45744930411E+01  0.68576595206E+01  0.17770000000E+01 0. -1.
</event>
<event>
 6    1  0.1226227E-002  0.1851532E+03  0.7546771E-02  0.1066362E+00
        -11   -1    0    0    0    0  0.00000000000E+00  0.00000000000E+00  0.18250000000E+03  0.18250000000E+03  0.00000000000E+00 0.  1.
         11   -1    0    0    0    0 -0.00000000000E+00 -0.00000000000E+00 -0.18250000000E+03  0.18250000000E+03  0.00000000000E+00 0. -1.
        -11    1    1    2    0    0  0.22503134393E+01  0.49486676689E+00  0.16309442723E+03  0.16311070167E+03  0.00000000000E+00 0.  1.
         11    1    1    2    0    0  0.37145510766E+01  0.86087951947E+00 -0.17980635293E+03  0.17984677800E+03  0.00000000000E+00 0. -1.
        -15    1    1    2    0    0  0.18335050200E+01 -0.97947299660E+00  0.12877430004E+02  0.13164613193E+02  0.17770000000E+01 0.  1.
         15    1    1    2    0    0 -0.77983695359E+01 -0.37627328977E+00  0.38344956904E+01  0.88779071411E+01  0.17770000000E+01 0. -1.
</event>
<event>
 6    1  0.1226227E-002  0.1828578E+03  0.7546771E-02  0.1068170E+00
        -11   -1    0    0    0    0  0.00000000000E+00  0.00000000000E+00  0.18250000000E+03  0.18250000000E+03  0.00000000000E+00 0.  1.
         11   -1    0    0    0    0 -0.00000000000E+00 -0.00000000000E+00 -0.18250000000E+03  0.18250000000E+03  0.00000000000E+00 0.  1.
        -11    1    1    2    0    0  0.22028700606E+01 -0.86874558535E+00  0.16560874266E+03  0.16562567132E+03  0.00000000000E+00 0.  1.
         11    1    1    2    0    0 -0.88915974663E+00  0.30787862353E+01 -0.18211403005E+03  0.18214222320E+03  0.00000000000E+00 0.  1.
        -15    1    1    2    0    0 -0.79000124415E+00  0.80265204863E-01  0.53001386495E+01  0.56462149421E+01  0.17770000000E+01 0.  1.
         15    1    1    2    0    0 -0.52370906983E+00 -0.22903058548E+01  0.11205148745E+02  0.11585890536E+02  0.17770000000E+01 0. -1.
</event>
<event>
 6    1  0.2702650E-002  0.1932604E+03  0.7546771E-02  0.1060198E+00
        -11   -1    0    0    0    0  0.00000000000E+00  0.00000000000E+00  0.18250000000E+03  0.18250000000E+03  0.00000000000E+00 0. -1.
         11   -1    0    0    0    0 -0.00000000000E+00 -0.00000000000E+00 -0.18250000000E+03  0.18250000000E+03  0.00000000000E+00 0. -1.
        -11    1    1    2    0    0  0.54891474910E+00 -0.71639573468E+01  0.17158925579E+03  0.17173961772E+03  0.00000000000E+00 0. -1.
         11    1    1    2    0    0 -0.19436390084E+02 -0.11442940907E+02 -0.14055122380E+03  0.14234943157E+03  0.00000000000E+00 0. -1.
        -15    1    1    2    0    0  0.16773650259E+02  0.15433714002E+02 -0.37072197105E+02  0.43555256836E+02  0.17770000000E+01 0. -1.
         15    1    1    2    0    0  0.21138250759E+01  0.31731842524E+01  0.60341651140E+01  0.73556938744E+01  0.17770000000E+01 0.  1.
</event>
<event>
 6    1  0.1226227E-002  0.1825471E+03  0.7546771E-02  0.1068417E+00
        -11   -1    0    0    0    0  0.00000000000E+00  0.00000000000E+00  0.18250000000E+03  0.18250000000E+03  0.00000000000E+00 0. -1.
         11   -1    0    0    0    0 -0.00000000000E+00 -0.00000000000E+00 -0.18250000000E+03  0.18250000000E+03  0.00000000000E+00 0. -1.
        -11    1    1    2    0    0 -0.25914127735E+01  0.21569897401E+01  0.18242178973E+03  0.18245294570E+03  0.00000000000E+00 0. -1.
         11    1    1    2    0    0  0.64367714404E+00 -0.22748668379E+00 -0.31423334287E+02  0.31430749406E+02  0.00000000000E+00 0. -1.
        -15    1    1    2    0    0 -0.65565814012E-01 -0.11136912759E+01 -0.11085860323E+03  0.11087845709E+03  0.17770000000E+01 0. -1.
         15    1    1    2    0    0  0.20133014434E+01 -0.81581178041E+00 -0.40139852209E+02  0.40237847804E+02  0.17770000000E+01 0. -1.
</event>
<event>
 6    1  0.1226227E-002  0.1690433E+03  0.7546771E-02  0.1079701E+00
        -11   -1    0    0    0    0  0.00000000000E+00  0.00000000000E+00  0.18250000000E+03  0.18250000000E+03  0.00000000000E+00 0. -1.
         11   -1    0    0    0    0 -0.00000000000E+00 -0.00000000000E+00 -0.18250000000E+03  0.18250000000E+03  0.00000000000E+00 0.  1.
        -11    1    1    2    0    0  0.12152592904E+02  0.24604914157E+00  0.17223069946E+03  0.17265908574E+03  0.00000000000E+00 0. -1.
         11    1    1    2    0    0  0.14334634780E+00 -0.28505199578E+01 -0.16569944239E+03  0.16572402126E+03  0.00000000000E+00 0.  1.
        -15    1    1    2    0    0  0.23578685551E+01 -0.39659166677E+00 -0.10602664782E+02  0.11013221988E+02  0.17770000000E+01 0.  1.
         15    1    1    2    0    0 -0.14653807807E+02  0.30010624830E+01  0.40714077199E+01  0.15603671014E+02  0.17770000000E+01 0. -1.
</event>
<event>
 6    1  0.1226227E-002  0.1879127E+03  0.7546771E-02  0.1064226E+00
        -11   -1    0    0    0    0  0.00000000000E+00  0.00000000000E+00  0.18250000000E+03  0.18250000000E+03  0.00000000000E+00 0. -1.
         11   -1    0    0    0    0 -0.00000000000E+00 -0.00000000000E+00 -0.18250000000E+03  0.18250000000E+03  0.00000000000E+00 0.  1.
        -11    1    1    2    0    0 -0.14947403316E+01  0.39171246039E+01  0.17703768957E+03  0.17708732772E+03  0.00000000000E+00 0. -1.
         11    1    1    2    0    0 -0.54377517675E+01  0.64853411811E+01 -0.16001980668E+03  0.16024346266E+03  0.00000000000E+00 0.  1.
        -15    1    1    2    0    0  0.85430924924E+01 -0.11950624340E+02 -0.54735332546E+01  0.15777171696E+02  0.17770000000E+01 0. -1.
         15    1    1    2    0    0 -0.16106003932E+01  0.15481585549E+01 -0.11544349631E+02  0.11892037922E+02  0.17770000000E+01 0.  1.
</event>
<event>
 6    1  0.1226227E-002  0.1923326E+03  0.7546771E-02  0.1060887E+00
        -11   -1    0    0    0    0  0.00000000000E+00  0.00000000000E+00  0.18250000000E+03  0.18250000000E+03  0.00000000000E+00 0.  1.
         11   -1    0    0    0    0 -0.00000000000E+00 -0.00000000000E+00 -0.18250000000E+03  0.18250000000E+03  0.00000000000E+00 0.  1.
        -11    1    1    2    0    0  0.98088700052E+00 -0.75653607744E+01  0.17249883610E+03  0.17266744128E+03  0.00000000000E+00 0.  1.
         11    1    1    2    0    0  0.91247851295E+00 -0.55529443081E+01 -0.15114350696E+03  0.15124823141E+03  0.00000000000E+00 0.  1.
        -15    1    1    2    0    0 -0.11173976613E+02  0.18502928042E+02 -0.64382751578E+01  0.22623554440E+02  0.17770000000E+01 0. -1.
         15    1    1    2    0    0  0.92806110992E+01 -0.53846229596E+01 -0.14917053973E+02  0.18460772872E+02  0.17770000000E+01 0.  1.
</event>
<event>
 6    1  0.2600612E-002  0.1952384E+03  0.7546771E-02  0.1058744E+00
        -11   -1    0    0    0    0  0.00000000000E+00  0.00000000000E+00  0.18250000000E+03  0.18250000000E+03  0.00000000000E+00 0.  1.
         11   -1    0    0    0    0 -0.00000000000E+00 -0.00000000000E+00 -0.18250000000E+03  0.18250000000E+03  0.00000000000E+00 0. -1.
        -11    1    1    2    0    0  0.19344888422E+01 -0.32868407942E+01  0.16971873100E+03  0.16976157758E+03  0.00000000000E+00 0.  1.
         11    1    1    2    0    0 -0.18261471175E+01  0.27001824372E+01 -0.15594151004E+03  0.15597557614E+03  0.00000000000E+00 0. -1.
        -15    1    1    2    0    0 -0.90427695626E+00  0.28496963795E+01  0.12419127499E+02  0.12896935415E+02  0.17770000000E+01 0. -1.
         15    1    1    2    0    0  0.79593523152E+00 -0.22630380225E+01 -0.26196348461E+02  0.26365910863E+02  0.17770000000E+01 0. -1.
</event>
<event>
 6    1  0.1226227E-002  0.1837020E+03  0.7546771E-02  0.1067502E+00
        -11   -1    0    0    0    0  0.00000000000E+00  0.00000000000E+00  0.18250000000E+03  0.18250000000E+03  0.00000000000E+00 0.  1.
         11   -1    0    0    0    0 -0.00000000000E+00 -0.00000000000E+00 -0.18250000000E+03  0.18250000000E+03  0.00000000000E+00 0.  1.
        -11    1    1    2    0    0  0.80031178493E+01 -0.25778764794E+01  0.63923098373E+02  0.64473698886E+02  0.00000000000E+00 0.  1.
         11    1    1    2    0    0 -0.30605111764E+01 -0.41149448606E+00 -0.18127167990E+03  0.18129798120E+03  0.00000000000E+00 0.  1.
        -15    1    1    2    0    0  0.52904953303E+01 -0.70277489176E+00  0.11444864858E+02  0.12752485797E+02  0.17770000000E+01 0. -1.
         15    1    1    2    0    0 -0.10233102003E+02  0.36921458572E+01  0.10590371666E+03  0.10647583411E+03  0.17770000000E+01 0.  1.
</event>
<event>
 6    1  0.1226227E-002  0.1839514E+03  0.7546771E-02  0.1067305E+00
        -11   -1    0    0    0    0  0.00000000000E+00  0.00000000000E+00  0.18250000000E+03  0.18250000000E+03  0.00000000000E+00 0. -1.
         11   -1    0    0    0    0 -0.00000000000E+00 -0.00000000000E+00 -0.18250000000E+03  0.18250000000E+03  0.00000000000E+00 0. -1.
        -11    1    1    2    0    0 -0.12760711979E+02 -0.59953444429E+01  0.18049878591E+03  0.18104858917E+03  0.00000000000E+00 0. -1.
         11    1    1    2    0    0 -0.12390427606E+01  0.33797299003E+01 -0.10618034918E+03  0.10624134954E+03  0.00000000000E+00 0. -1.
        -15    1    1    2    0    0  0.10956761505E+02 -0.15046565795E+01 -0.18485344352E+02  0.21614354002E+02  0.17770000000E+01 0. -1.
         15    1    1    2    0    0  0.30429932342E+01  0.41202711221E+01 -0.55833092382E+02  0.56095707286E+02  0.17770000000E+01 0.  1.
</event>
<event>
 6    1  0.1226227E-002  0.1762350E+03  0.7546771E-02  0.1073554E+00
        -11   -1    0    0    0    0  0.00000000000E+00  0.00000000000E+00  0.18250000000E+03  0.18250000000E+03  0.00000000000E+00 0. -1.
         11   -1    0    0    0    0 -0.00000000000E+00 -0.00000000000E+00 -0.18250000000E+03  0.18250000000E+03  0.00000000000E+00 0.  1.
        -11    1    1    2    0    0  0.10736545931E+00  0.35945496336E+01  0.17766104659E+03  0.17769743889E+03  0.00000000000E+00 0. -1.
         11    1    1    2    0    0  0.57573878580E+01 -0.73813211819E+00 -0.17474853954E+03  0.17484491535E+03  0.00000000000E+00 0.  1.
        -15    1    1    2    0    0  0.20834949740E+01 -0.14732603222E+01  0.10676876512E+01  0.32877246241E+01  0.17770000000E+01 0. -1.
         15    1    1    2    0    0 -0.79482482913E+01 -0.13831571932E+01 -0.39801946991E+01  0.91699211318E+01  0.17770000000E+01 0. -1.
</event>
<event>
 6    1  0.1226227E-002  0.1825970E+03  0.7546771E-02  0.1068378E+00
        -11   -1    0    0    0    0  0.00000000000E+00  0.00000000000E+00  0.18250000000E+03  0.18250000000E+03  0.00000000000E+00 0.  1.
         11   -1    0    0    0    0 -0.00000000000E+00 -0.00000000000E+00 -0.18250000000E+03  0.18250000000E+03  0.00000000000E+00 0. -1.
        -11    1    1    2    0    0  0.23441944501E+01  0.36440013360E+01  0.18235152435E+03  0.18240299457E+03  0.00000000000E+00 0.  1.
         11    1    1    2    0    0 -0.94079850851E+00 -0.26697304298E+01 -0.13378642565E+03  0.13381636765E+03  0.00000000000E+00 0. -1.
        -15    1    1    2    0    0 -0.12111213937E+01 -0.15269661548E+01 -0.24027846558E+02  0.24172165395E+02  0.17770000000E+01 0.  1.
         15    1    1    2    0    0 -0.19227454784E+00  0.55269524860E+00 -0.24537252143E+02  0.24608472388E+02  0.17770000000E+01 0. -1.
</event>
<event>
 6    1  0.1226227E-002  0.1840397E+03  0.7546771E-02  0.1067236E+00
        -11   -1    0    0    0    0  0.00000000000E+00  0.00000000000E+00  0.18250000000E+03  0.18250000000E+03  0.00000000000E+00 0. -1.
         11   -1    0    0    0    0 -0.00000000000E+00 -0.00000000000E+00 -0.18250000000E+03  0.18250000000E+03  0.00000000000E+00 0.  1.
        -11    1    1    2    0    0 -0.13319671306E+01  0.18786493021E+01  0.16885249111E+03  0.16886819479E+03  0.00000000000E+00 0. -1.
         11    1    1    2    0    0 -0.21261027875E+01  0.12260000656E+01 -0.18094360650E+03  0.18096025012E+03  0.00000000000E+00 0.  1.
        -15    1    1    2    0    0  0.28355287015E+01 -0.12721234188E+00  0.10977456193E+02  0.11476875858E+02  0.17770000000E+01 0.  1.
         15    1    1    2    0    0  0.62254121653E+00 -0.29774370258E+01  0.11136592021E+01  0.36946792320E+01  0.17770000000E+01 0. -1.
</event>
<event>
 6    1  0.1226227E-002  0.1834810E+03  0.7546771E-02  0.1067677E+00
        -11   -1    0    0    0    0  0.00000000000E+00  0.00000000000E+00  0.18250000000E+03  0.18250000000E+03  0.00000000000E+00 0.  1.
         11   -1    0    0    0    0 -0.00000000000E+00 -0.00000000000E+00 -0.18250000000E+03  0.18250000000E+03  0.00000000000E+00 0.  1.
        -11    1    1    2    0    0 -0.99857663482E+01 -0.50790939111E+00  0.18124339718E+03  0.18151898668E+03  0.00000000000E+00 0.  1.
         11    1    1    2    0    0  0.21396883974E+01  0.28740141559E+01 -0.13397935121E+03  0.13402725385E+03  0.00000000000E+00 0.  1.
        -15    1    1    2    0    0  0.92245922979E+00 -0.49047736336E+01 -0.31700223802E+02  0.32139845263E+02  0.17770000000E+01 0.  1.
         15    1    1    2    0    0  0.69236187210E+01  0.25386688688E+01 -0.15563822169E+02  0.17313914212E+02  0.17770000000E+01 0. -1.
</event>
<event>
 6    1  0.1226227E-002  0.1866646E+03  0.7546771E-02  0.1065187E+00
        -11   -1    0    0    0    0  0.00000000000E+00  0.00000000000E+00  0.18250000000E+03  0.18250000000E+03  0.00000000000E+00 0.  1.
         11   -1    0    0    0    0 -0.00000000000E+00 -0.00000000000E+00 -0.18250000000E+03  0.18250000000E+03  0.00000000000E+00 0.  1.
        -11    1    1    2    0    0  0.27640917341E+01  0.17553680404E+00  0.12991973240E+03  0.12994925119E+03  0.00000000000E+00 0.  1.
         11    1    1    2    0    0  0.34360798543E+01  0.20088878376E+02 -0.17716699006E+03  0.17833539202E+03  0.00000000000E+00 0.  1.
        -15    1    1    2    0    0  0.10278719119E+01 -0.78025327660E+01  0.86442631307E+00  0.81142467353E+01  0.17770000000E+01 0.  1.
         15    1    1    2    0    0 -0.72280435003E+01 -0.12461882414E+02  0.46382831346E+02  0.48601110057E+02  0.17770000000E+01 0. -1.
</event>
<event>
 6    1  0.1226227E-002  0.1828403E+03  0.7546771E-02  0.1068184E+00
        -11   -1    0    0    0    0  0.00000000000E+00  0.00000000000E+00  0.18250000000E+03  0.18250000000E+03  0.00000000000E+00 0. -1.
         11   -1    0    0    0    0 -0.00000000000E+00 -0.00000000000E+00 -0.18250000000E+03  0.18250000000E+03  0.00000000000E+00 0. -1.
        -11    1    1    2    0    0 -0.55176335339E+01  0.30802835033E+00  0.18207583226E+03  0.18215967680E+03  0.00000000000E+00 0. -1.
         11    1    1    2    0    0  0.26865040206E+00  0.58784602763E+00 -0.23305290959E+02  0.23314251493E+02  0.00000000000E+00 0. -1.
        -15    1    1    2    0    0  0.39298739925E+01  0.53432435481E+01 -0.11984965133E+03  0.12004620283E+03  0.17770000000E+01 0. -1.
         15    1    1    2    0    0  0.13191091393E+01 -0.62391179260E+01 -0.38920889964E+02  0.39479868870E+02  0.17770000000E+01 0.  1.
</event>
<event>
 6    1  0.1226227E-002  0.1776802E+03  0.7546771E-02  0.1072357E+00
        -11   -1    0    0    0    0  0.00000000000E+00  0.00000000000E+00  0.18250000000E+03  0.18250000000E+03  0.00000000000E+00 0. -1.
         11   -1    0    0    0    0 -0.00000000000E+00 -0.00000000000E+00 -0.18250000000E+03  0.18250000000E+03  0.00000000000E+00 0. -1.
        -11    1    1    2    0    0 -0.35964820081E+01  0.79805605349E+00  0.17880550140E+03  0.17884344804E+03  0.00000000000E+00 0. -1.
         11    1    1    2    0    0 -0.13197437690E+01  0.28247061276E+01 -0.17654907193E+03  0.17657659949E+03  0.00000000000E+00 0. -1.
        -15    1    1    2    0    0  0.54241557768E+01 -0.31144236248E+01 -0.34106787278E+01  0.73424491003E+01  0.17770000000E+01 0.  1.
         15    1    1    2    0    0 -0.50792999973E+00 -0.50833855637E+00  0.11542492530E+01  0.22375033655E+01  0.17770000000E+01 0. -1.
</event>
<event>
 6    1  0.1226227E-002  0.1893062E+03  0.7546771E-02  0.1063163E+00
        -11   -1    0    0    0    0  0.00000000000E+00  0.00000000000E+00  0.18250000000E+03  0.18250000000E+03  0.00000000000E+00 0.  1.
         11   -1    0    0    0    0 -0.00000000000E+00 -0.00000000000E+00 -0.18250000000E+03  0.18250000000E+03  0.00000000000E+00 0. -1.
        -11    1    1    2    0    0  0.28888195789E+00  0.35786316710E+01  0.11881492467E+03  0.11886915657E+03  0.00000000000E+00 0.  1.
         11    1    1    2    0    0  0.37490954401E+01  0.26995598074E+02 -0.17356697759E+03  0.17569380678E+03  0.00000000000E+00 0. -1.
        -15    1    1    2    0    0 -0.34499158749E+01  0.60308873240E+01  0.54720913970E+01  0.90208112006E+01  0.17770000000E+01 0. -1.
         15    1    1    2    0    0 -0.58806152317E+00 -0.36605117069E+02  0.49279961520E+02  0.61416225449E+02  0.17770000000E+01 0.  1.
</event>
<event>
 6    1  0.1226227E-002  0.1919623E+03  0.7546771E-02  0.1061163E+00
        -11   -1    0    0    0    0  0.00000000000E+00  0.00000000000E+00  0.18250000000E+03  0.18250000000E+03  0.00000000000E+00 0.  1.
         11   -1    0    0    0    0 -0.00000000000E+00 -0.00000000000E+00 -0.18250000000E+03  0.18250000000E+03  0.00000000000E+00 0. -1.
        -11    1    1    2    0    0 -0.33071738735E+01 -0.98675481387E+01  0.16466665368E+03  0.16499519005E+03  0.00000000000E+00 0.  1.
         11    1    1    2    0    0  0.25436960475E+01 -0.10018025881E+01 -0.17301607337E+03  0.17303767116E+03  0.00000000000E+00 0. -1.
        -15    1    1    2    0    0  0.57839671490E+00  0.83949814141E+01  0.16311601744E+02  0.18440074191E+02  0.17770000000E+01 0. -1.
         15    1    1    2    0    0  0.18508111107E+00  0.24743693126E+01 -0.79621820558E+01  0.85270645948E+01  0.17770000000E+01 0.  1.
</event>
<event>
 6    1  0.1226227E-002  0.1826561E+03  0.7546771E-02  0.1068331E+00
        -11   -1    0    0    0    0  0.00000000000E+00  0.00000000000E+00  0.18250000000E+03  0.18250000000E+03  0.00000000000E+00 0.  1.
         11   -1    0    0    0    0 -0.00000000000E+00 -0.00000000000E+00 -0.18250000000E+03  0.18250000000E+03  0.00000000000E+00 0. -1.
        -11    1    1    2    0    0  0.28687058596E+01 -0.24491574263E+01  0.18230490445E+03  0.18234392239E+03  0.00000000000E+00 0.  1.
         11    1    1    2    0    0 -0.16326923583E+01 -0.15420292243E+01 -0.90249383856E+02  0.90277321764E+02  0.00000000000E+00 0. -1.
        -15    1    1    2    0    0 -0.93230466962E+00  0.28897613172E+01 -0.21062577405E+02  0.21354386163E+02  0.17770000000E+01 0.  1.
         15    1    1    2    0    0 -0.30370883172E+00  0.11014253334E+01 -0.70992943191E+02  0.71024369683E+02  0.17770000000E+01 0. -1.
</event>
<event>
 6    1  0.1226227E-002  0.1825792E+03  0.7546771E-02  0.1068392E+00
        -11   -1    0    0    0    0  0.00000000000E+00  0.00000000000E+00  0.18250000000E+03  0.18250000000E+03  0.00000000000E+00 0. -1.
         11   -1    0    0    0    0 -0.00000000000E+00 -0.00000000000E+00 -0.18250000000E+03  0.18250000000E+03  0.00000000000E+00 0. -1.
        -11    1    1    2    0    0 -0.30896700524E+00 -0.65495133307E+00  0.51625810254E+02  0.51630889071E+02  0.00000000000E+00 0. -1.
         11    1    1    2    0    0 -0.27489130656E+01  0.10882139531E+01 -0.18239685926E+03  0.18242081845E+03  0.00000000000E+00 0. -1.
        -15    1    1    2    0    0 -0.44915563399E+00 -0.14962051719E+01  0.70561901495E+02  0.70601558356E+02  0.17770000000E+01 0. -1.
         15    1    1    2    0    0  0.35070357048E+01  0.10629425519E+01  0.60209147515E+02  0.60346734127E+02  0.17770000000E+01 0. -1.
</event>
<event>
 6    1  0.1226227E-002  0.1847722E+03  0.7546771E-02  0.1066660E+00
        -11   -1    0    0    0    0  0.00000000000E+00  0.00000000000E+00  0.18250000000E+03  0.18250000000E+03  0.00000000000E+00 0. -1.
         11   -1    0    0    0    0 -0.00000000000E+00 -0.00000000000E+00 -0.18250000000E+03  0.18250000000E+03  0.00000000000E+00 0.  1.
        -11    1    1    2    0    0 -0.72186877894E+01  0.69197989107E+01  0.14383829672E+03  0.14418546623E+03  0.00000000000E+00 0. -1.
         11    1    1    2    0    0  0.20454267693E+01 -0.16892379716E+01 -0.18020831115E+03  0.18022783554E+03  0.00000000000E+00 0.  1.
        -15    1    1    2    0    0  0.51133667252E+01 -0.70788574690E+01  0.36905967711E+02  0.37966629084E+02  0.17770000000E+01 0.  1.
         15    1    1    2    0    0  0.59894294944E-01  0.18482965298E+01 -0.53595327894E+00  0.26200691415E+01  0.17770000000E+01 0. -1.
</event>
<event>
 6    1  0.1226227E-002  0.1934966E+03  0.7546771E-02  0.1060024E+00
        -11   -1    0    0    0    0  0.00000000000E+00  0.00000000000E+00  0.18250000000E+03  0.18250000000E+03  0.00000000000E+00 0.  1.
         11   -1    0    0    0    0 -0.00000000000E+00 -0.00000000000E+00 -0.18250000000E+03  0.18250000000E+03  0.00000000000E+00 0.  1.
        -11    1    1    2    0    0  0.22639603845E+01  0.14663866440E+01  0.67859951653E+02  0.67913539480E+02  0.00000000000E+00 0.  1.
         11    1    1    2    0    0 -0.47849723359E+01 -0.93414761256E+00 -0.17143412712E+03  0.17150343592E+03  0.00000000000E+00 0.  1.
        -15    1    1    2    0    0 -0.33745131876E+01  0.24275717008E+01  0.11346885374E+03  0.11355887875E+03  0.17770000000E+01 0.  1.
         15    1    1    2    0    0  0.58955251391E+01 -0.29598107322E+01 -0.98946782771E+01  0.12024145851E+02  0.17770000000E+01 0. -1.
</event>
<event>
 6    1  0.1226227E-002  0.1828092E+03  0.7546771E-02  0.1068209E+00
        -11   -1    0    0    0    0  0.00000000000E+00  0.00000000000E+00  0.18250000000E+03  0.18250000000E+03  0.00000000000E+00 0.  1.
         11   -1    0    0    0    0 -0.00000000000E+00 -0.00000000000E+00 -0.18250000000E+03  0.18250000000E+03  0.00000000000E+00 0. -1.
        -11    1    1    2    0    0  0.30535453740E+01 -0.12079423775E+01  0.18216119437E+03  0.18219079010E+03  0.00000000000E+00 0.  1.
         11    1    1    2    0    0  0.44940627367E+00 -0.18164973663E+01 -0.12791519780E+03  0.12792888437E+03  0.00000000000E+00 0. -1.
        -15    1    1    2    0    0 -0.38463017394E+01 -0.18792148496E+00 -0.20541687467E+02  0.20974937534E+02  0.17770000000E+01 0.  1.
         15    1    1    2    0    0  0.34335009175E+00  0.32123612287E+01 -0.33704309102E+02  0.33905387994E+02  0.17770000000E+01 0.  1.
</event>
<event>
 6    1  0.1226227E-002  0.1856532E+03  0.7546771E-02  0.1065972E+00
        -11   -1    0    0    0    0  0.00000000000E+00  0.00000000000E+00  0.18250000000E+03  0.18250000000E+03  0.00000000000E+00 0. -1.
         11   -1    0    0    0    0 -0.00000000000E+00 -0.00000000000E+00 -0.18250000000E+03  0.18250000000E+03  0.00000000000E+00 0. -1.
        -11    1    1    2    0    0 -0.13243417918E+02  0.20680496914E+01  0.15039555625E+03  0.15099168284E+03  0.00000000000E+00 0. -1.
         11    1    1    2    0    0  0.41389578959E+01  0.37680133447E+01 -0.17925943992E+03  0.17934680287E+03  0.00000000000E+00 0. -1.
        -15    1    1    2    0    0  0.24682746897E+01 -0.57246055150E+01  0.17837458578E+01  0.67233151444E+01  0.17770000000E+01 0. -1.
         15    1    1    2    0    0  0.66361853323E+01 -0.11145752115E+00  0.27080137813E+02  0.27938199146E+02  0.17770000000E+01 0.  1.
</event>
<event>
 6    1  0.1226227E-002  0.1825624E+03  0.7546771E-02  0.1068405E+00
        -11   -1    0    0    0    0  0.00000000000E+00  0.00000000000E+00  0.18250000000E+03  0.18250000000E+03  0.00000000000E+00 0. -1.
         11   -1    0    0    0    0 -0.00000000000E+00 -0.00000000000E+00 -0.18250000000E+03  0.18250000000E+03  0.00000000000E+00 0.  1.
        -11    1    1    2    0    0  0.92096846285E+00 -0.76964112187E+00  0.70219853612E+02  0.70230110150E+02  0.00000000000E+00 0. -1.
         11    1    1    2    0    0 -0.20629938478E+00 -0.27234411655E+01 -0.18241711082E+03  0.18243755648E+03  0.00000000000E+00 0.  1.
        -15    1    1    2    0    0 -0.26768382176E+00  0.31734753041E+01  0.74704547989E+02  0.74793514554E+02  0.17770000000E+01 0. -1.
         15    1    1    2    0    0 -0.44698525631E+00  0.31960698318E+00  0.37492709224E+02  0.37538818820E+02  0.17770000000E+01 0. -1.
</event>
<event>
 6    1  0.1226227E-002  0.1876809E+03  0.7546771E-02  0.1064404E+00
        -11   -1    0    0    0    0  0.00000000000E+00  0.00000000000E+00  0.18250000000E+03  0.18250000000E+03  0.00000000000E+00 0. -1.
         11   -1    0    0    0    0 -0.00000000000E+00 -0.00000000000E+00 -0.18250000000E+03  0.18250000000E+03  0.00000000000E+00 0. -1.
        -11    1    1    2    0    0 -0.83416141110E+01 -0.12923082826E+02  0.17665075912E+03  0.17731914531E+03  0.00000000000E+00 0. -1.
         11    1    1    2    0    0 -0.83302150715E+00 -0.32452813781E+01 -0.15291741689E+03  0.15295411784E+03  0.00000000000E+00 0. -1.
        -15    1    1    2    0    0  0.89073468388E+01  0.13905480860E+02 -0.74750551185E+01  0.18213659810E+02  0.17770000000E+01 0. -1.
         15    1    1    2    0    0  0.26728877940E+00  0.22628833447E+01 -0.16258287117E+02  0.16513077039E+02  0.17770000000E+01 0.  1.
</event>
<event>
 6    1  0.1226227E-002  0.1841132E+03  0.7546771E-02  0.1067178E+00
        -11   -1    0    0    0    0  0.00000000000E+00  0.00000000000E+00  0.18250000000E+03  0.18250000000E+03  0.00000000000E+00 0.  1.
         11   -1    0    0    0    0 -0.00000000000E+00 -0.00000000000E+00 -0.18250000000E+03  0.18250000000E+03  0.00000000000E+00 0.  1.
        -11    1    1    2    0    0  0.21382089236E+01  0.33924253994E+01  0.18084237353E+03  0.18088682803E+03  0.00000000000E+00 0.  1.
         11    1    1    2    0    0  0.35756106313E+01  0.75548845643E+01 -0.83421083330E+02  0.83838764400E+02  0.00000000000E+00 0.  1.
        -15    1    1    2    0    0 -0.44076420715E+01 -0.58645972067E+01 -0.92942502988E+01  0.11973371565E+02  0.17770000000E+01 0.  1.
         15    1    1    2    0    0 -0.13061774833E+01 -0.50827127570E+01 -0.88127039906E+02  0.88301036009E+02  0.17770000000E+01 0.  1.
</event>
<event>
 6    1  0.1226227E-002  0.1848418E+03  0.7546771E-02  0.1066606E+00
        -11   -1    0    0    0    0  0.00000000000E+00  0.00000000000E+00  0.18250000000E+03  0.18250000000E+03  0.00000000000E+00 0. -1.
         11   -1    0    0    0    0 -0.00000000000E+00 -0.00000000000E+00 -0.18250000000E+03  0.18250000000E+03  0.00000000000E+00 0. -1.
        -11    1    1    2    0    0 -0.10323163082E+02 -0.11701998131E+02  0.17948112927E+03  0.18015820886E+03  0.00000000000E+00 0. -1.
         11    1    1    2    0    0 -0.10085257388E+01  0.10983379239E+01 -0.73612209816E+02  0.73627310859E+02  0.00000000000E+00 0. -1.
        -15    1    1    2    0    0  0.90684928234E+01  0.11663350642E+02 -0.18275535656E+02  0.23567440311E+02  0.17770000000E+01 0. -1.
         15    1    1    2    0    0  0.22631959972E+01 -0.10596904352E+01 -0.87593383801E+02  0.87647039965E+02  0.17770000000E+01 0. -1.
</event>
<event>
 6    1  0.1226227E-002  0.1827515E+03  0.7546771E-02  0.1068255E+00
        -11   -1    0    0    0    0  0.00000000000E+00  0.00000000000E+00  0.18250000000E+03  0.18250000000E+03  0.00000000000E+00 0. -1.
         11   -1    0    0    0    0 -0.00000000000E+00 -0.00000000000E+00 -0.18250000000E+03  0.18250000000E+03  0.00000000000E+00 0. -1.
        -11    1    1    2    0    0 -0.67275691223E+01 -0.30730782743E+00  0.18212407516E+03  0.18224854836E+03  0.00000000000E+00 0. -1.
         11    1    1    2    0    0 -0.89757154328E+00 -0.19103274794E+00 -0.53988650906E+02  0.53996449465E+02  0.00000000000E+00 0. -1.
        -15    1    1    2    0    0  0.66523781546E+00 -0.35312909492E+01 -0.28629678603E+02  0.28908974092E+02  0.17770000000E+01 0.  1.
         15    1    1    2    0    0  0.69599028501E+01  0.40296315246E+01 -0.99505745653E+02  0.99846028088E+02  0.17770000000E+01 0. -1.
</event>
<event>
 6    1  0.1226227E-002  0.1714728E+03  0.7546771E-02  0.1077588E+00
        -11   -1    0    0    0    0  0.00000000000E+00  0.00000000000E+00  0.18250000000E+03  0.18250000000E+03  0.00000000000E+00 0. -1.
         11   -1    0    0    0    0 -0.00000000000E+00 -0.00000000000E+00 -0.18250000000E+03  0.18250000000E+03  0.00000000000E+00 0. -1.
        -11    1    1    2    0    0 -0.10186860569E+02 -0.76961675096E+01  0.17375164138E+03  0.17422007923E+03  0.00000000000E+00 0. -1.
         11    1    1    2    0    0 -0.16316138551E+01  0.36405515678E+01 -0.16893979433E+03  0.16898689265E+03  0.00000000000E+00 0. -1.
        -15    1    1    2    0    0  0.54099289722E+01  0.65586628398E+01  0.47346099413E+01  0.98923025645E+01  0.17770000000E+01 0.  1.
         15    1    1    2    0    0  0.64085454517E+01 -0.25030468980E+01 -0.95464569943E+01  0.11900725555E+02  0.17770000000E+01 0. -1.
</event>
<event>
 6    1  0.1226227E-002  0.1785590E+03  0.7546771E-02  0.1071636E+00
        -11   -1    0    0    0    0  0.00000000000E+00  0.00000000000E+00  0.18250000000E+03  0.18250000000E+03  0.00000000000E+00 0. -1.
         11   -1    0    0    0    0 -0.00000000000E+00 -0.00000000000E+00 -0.18250000000E+03  0.18250000000E+03  0.00000000000E+00 0.  1.
        -11    1    1    2    0    0  0.11886992391E+00  0.10358191605E+01  0.83126309046E+01  0.83777612730E+01  0.00000000000E+00 0. -1.
         11    1    1    2    0    0  0.12138625508E+02 -0.29154268506E+01 -0.18172775384E+03  0.18215603876E+03  0.00000000000E+00 0.  1.
        -15    1    1    2    0    0 -0.32742655027E+01 -0.47119066946E+01  0.10089145972E+03  0.10107011058E+03  0.17770000000E+01 0. -1.
         15    1    1    2    0    0 -0.89832299297E+01  0.65915143847E+01  0.72523663216E+02  0.73396089385E+02  0.17770000000E+01 0.  1.
</event>
<event>
 6    1  0.1226227E-002  0.1826188E+03  0.7546771E-02  0.1068360E+00
        -11   -1    0    0    0    0  0.00000000000E+00  0.00000000000E+00  0.18250000000E+03  0.18250000000E+03  0.00000000000E+00 0. -1.
         11   -1    0    0    0    0 -0.00000000000E+00 -0.00000000000E+00 -0.18250000000E+03  0.18250000000E+03  0.00000000000E+00 0. -1.
        -11    1    1    2    0    0 -0.32498731908E+00  0.26191718753E+01  0.83152903059E+02  0.83194777271E+02  0.00000000000E+00 0. -1.
         11    1    1    2    0    0 -0.37986134999E+01 -0.13090789573E+01 -0.18233693942E+03  0.18238120141E+03  0.00000000000E+00 0. -1.
        -15    1    1    2    0    0  0.19854711583E+01 -0.19252137710E+01  0.75156310826E+02  0.75228168460E+02  0.17770000000E+01 0. -1.
         15    1    1    2    0    0  0.21381296607E+01  0.61512085295E+00  0.24027725533E+02  0.24195852856E+02  0.17770000000E+01 0.  1.
</event>
<event>
 6    1  0.1226227E-002  0.1859095E+03  0.7546771E-02  0.1065773E+00
        -11   -1    0    0    0    0  0.00000000000E+00  0.00000000000E+00  0.18250000000E+03  0.18250000000E+03  0.00000000000E+00 0.  1.
         11   -1    0    0    0    0 -0.00000000000E+00 -0.00000000000E+00 -0.18250000000E+03  0.18250000000E+03  0.00000000000E+00 0. -1.
        -11    1    1    2    0    0 -0.40311362557E+01  0.77348932360E+01  0.17887797681E+03  0.17909050567E+03  0.00000000000E+00 0.  1.
         11    1    1    2    0    0 -0.35625099237E+01 -0.27431564533E+01 -0.15239470469E+03  0.15246101929E+03  0.00000000000E+00 0. -1.
        -15    1    1    2    0    0  0.31106086224E+00 -0.89159249068E+01 -0.50474121258E+01  0.10403104055E+02  0.17770000000E+01 0. -1.
         15    1    1    2    0    0  0.72825853171E+01  0.39241881241E+01 -0.21435859994E+02  0.23045370989E+02  0.17770000000E+01 0.  1.
</event>
<event>
 6    1  0.2160396E-002  0.1931088E+03  0.7546771E-02  0.1060310E+00
        -11   -1    0    0    0    0  0.00000000000E+00  0.00000000000E+00  0.18250000000E+03  0.18250000000E+03  0.00000000000E+00 0. -1.
         11   -1    0    0    0    0 -0.00000000000E+00 -0.00000000000E+00 -0.18250000000E+03  0.18250000000E+03  0.00000000000E+00 0. -1.
        -11    1    1    2    0    0  0.26661865067E+01  0.11560260839E+01  0.17186665397E+03  0.17189122052E+03  0.00000000000E+00 0. -1.
         11    1    1    2    0    0 -0.38983093794E+01  0.17348003014E+00 -0.14751490511E+03  0.14756650752E+03  0.00000000000E+00 0. -1.
        -15    1    1    2    0    0 -0.19363418332E+01 -0.52901022878E+00  0.10324595935E+02  0.10666971535E+02  0.17770000000E+01 0.  1.
         15    1    1    2    0    0  0.31684647059E+01 -0.80049588522E+00 -0.34676344791E+02  0.34875300419E+02  0.17770000000E+01 0.  1.
</event>
<event>
 6    1  0.1226227E-002  0.2120126E+03  0.7546771E-02  0.1047123E+00
        -11   -1    0    0    0    0  0.00000000000E+00  0.00000000000E+00  0.18250000000E+03  0.18250000000E+03  0.00000000000E+00 0.  1.
         11   -1    0    0    0    0 -0.00000000000E+00 -0.00000000000E+00 -0.18250000000E+03  0.18250000000E+03  0.00000000000E+00 0.  1.
        -11    1    1    2    0    0 -0.10950037076E+02  0.30972758273E+01  0.10408051359E+03  0.10470076284E+03  0.00000000000E+00 0.  1.
         11    1    1    2    0    0 -0.27903274613E+01  0.51248948582E+01 -0.15287604339E+03  0.15298736914E+03  0.00000000000E+00 0.  1.
        -15    1    1    2    0    0 -0.37010488950E+02 -0.20824051114E+02  0.28585494879E+02  0.51222120647E+02  0.17770000000E+01 0.  1.
         15    1    1    2    0    0  0.50750853487E+02  0.12601880428E+02  0.20210034915E+02  0.56089747372E+02  0.17770000000E+01 0. -1.
</event>
<event>
 6    1  0.1226227E-002  0.1903601E+03  0.7546771E-02  0.1062365E+00
        -11   -1    0    0    0    0  0.00000000000E+00  0.00000000000E+00  0.18250000000E+03  0.18250000000E+03  0.00000000000E+00 0.  1.
         11   -1    0    0    0    0 -0.00000000000E+00 -0.00000000000E+00 -0.18250000000E+03  0.18250000000E+03  0.00000000000E+00 0. -1.
        -11    1    1    2    0    0 -0.24748940461E+01 -0.29912811964E-01  0.17462233400E+03  0.17463987381E+03  0.00000000000E+00 0.  1.
         11    1    1    2    0    0  0.33642940240E+01 -0.40706506026E+01 -0.11341410635E+03  0.11353699040E+03  0.00000000000E+00 0. -1.
        -15    1    1    2    0    0 -0.24412904330E+01  0.90813090220E+01 -0.67662527436E+02  0.68335974571E+02  0.17770000000E+01 0.  1.
         15    1    1    2    0    0  0.15518904551E+01 -0.49807456074E+01  0.64542997861E+01  0.84871612168E+01  0.17770000000E+01 0. -1.
</event>
<event>
 6    1  0.1226227E-002  0.1359856E+03  0.7546771E-02  0.1113013E+00
        -11   -1    0    0    0    0  0.00000000000E+00  0.00000000000E+00  0.18250000000E+03  0.18250000000E+03  0.00000000000E+00 0. -1.
         11   -1    0    0    0    0 -0.00000000000E+00 -0.00000000000E+00 -0.18250000000E+03  0.18250000000E+03  0.00000000000E+00 0. -1.
        -11    1    1    2    0    0 -0.63040579876E+00  0.56782802738E+00  0.26770946998E+02  0.26784388052E+02  0.00000000000E+00 0. -1.
         11    1    1    2    0    0 -0.88369303789E+01  0.43175848493E+01 -0.11929085734E+03  0.11969562031E+03  0.00000000000E+00 0. -1.
        -15    1    1    2    0    0  0.13557165834E+02  0.21358430804E+01 -0.62126946576E+02  0.63649617367E+02  0.17770000000E+01 0. -1.
         15    1    1    2    0    0 -0.40898296564E+01 -0.70212559572E+01  0.15464685692E+03  0.15487037427E+03  0.17770000000E+01 0. -1.
</event>
<event>
 6    1  0.1226227E-002  0.1856399E+03  0.7546771E-02  0.1065983E+00
        -11   -1    0    0    0    0  0.00000000000E+00  0.00000000000E+00  0.18250000000E+03  0.18250000000E+03  0.00000000000E+00 0.  1.
         11   -1    0    0    0    0 -0.00000000000E+00 -0.00000000000E+00 -0.18250000000E+03  0.18250000000E+03  0.00000000000E+00 0.  1.
        -11    1    1    2    0    0 -0.27252107506E+00  0.66626903532E+01  0.17923609397E+03  0.17936009336E+03  0.00000000000E+00 0.  1.
         11    1    1    2    0    0 -0.41203588254E+01  0.23464032875E+01 -0.11289929103E+03  0.11299881805E+03  0.00000000000E+00 0.  1.
        -15    1    1    2    0    0 -0.52153315024E+01 -0.29587278112E+01 -0.10390278035E+01  0.63396420023E+01  0.17770000000E+01 0.  1.
         15    1    1    2    0    0  0.96082114028E+01 -0.60503658296E+01 -0.65297775135E+02  0.66301446588E+02  0.17770000000E+01 0. -1.
</event>
<event>
 6    1  0.1226227E-002  0.1966545E+03  0.7546771E-02  0.1057715E+00
        -11   -1    0    0    0    0  0.00000000000E+00  0.00000000000E+00  0.18250000000E+03  0.18250000000E+03  0.00000000000E+00 0. -1.
         11   -1    0    0    0    0 -0.00000000000E+00 -0.00000000000E+00 -0.18250000000E+03  0.18250000000E+03  0.00000000000E+00 0.  1.
        -11    1    1    2    0    0  0.35530029373E+01 -0.33023681572E+01  0.16827558484E+03  0.16834548380E+03  0.00000000000E+00 0. -1.
         11    1    1    2    0    0  0.50242384045E+01 -0.14372400282E+01 -0.16022124014E+03  0.16030643912E+03  0.00000000000E+00 0.  1.
        -15    1    1    2    0    0  0.14660470649E+01  0.83971694792E+00  0.12679615772E+02  0.12914519104E+02  0.17770000000E+01 0. -1.
         15    1    1    2    0    0 -0.10043288407E+02  0.38998912375E+01 -0.20733960470E+02  0.23433557977E+02  0.17770000000E+01 0.  1.
</event>
<event>
 6    1  0.1226227E-002  0.1833634E+03  0.7546771E-02  0.1067770E+00
        -11   -1    0    0    0    0  0.00000000000E+00  0.00000000000E+00  0.18250000000E+03  0.18250000000E+03  0.00000000000E+00 0.  1.
         11   -1    0    0    0    0 -0.00000000000E+00 -0.00000000000E+00 -0.18250000000E+03  0.18250000000E+03  0.00000000000E+00 0.  1.
        -11    1    1    2    0    0 -0.27929268976E+01 -0.31182702155E+01  0.15064906390E+03  0.15070721450E+03  0.00000000000E+00 0.  1.
         11    1    1    2    0    0 -0.20309743726E+01 -0.18524186306E+01 -0.18161577380E+03  0.18163657562E+03  0.00000000000E+00 0.  1.
        -15    1    1    2    0    0  0.27045093184E+01  0.10434864753E+00  0.41607251737E+01  0.52720605331E+01  0.17770000000E+01 0.  1.
         15    1    1    2    0    0  0.21193919518E+01  0.48663401985E+01  0.26805984727E+02  0.27384149346E+02  0.17770000000E+01 0. -1.
</event>
<event>
 6    1  0.1226227E-002  0.1929347E+03  0.7546771E-02  0.1060439E+00
        -11   -1    0    0    0    0  0.00000000000E+00  0.00000000000E+00  0.18250000000E+03  0.18250000000E+03  0.00000000000E+00 0.  1.
         11   -1    0    0    0    0 -0.00000000000E+00 -0.00000000000E+00 -0.18250000000E+03  0.18250000000E+03  0.00000000000E+00 0. -1.
        -11    1    1    2    0    0  0.13483037991E+01 -0.15691945567E+01  0.33586591104E+02  0.33650251064E+02  0.00000000000E+00 0.  1.
         11    1    1    2    0    0  0.43872693769E+01 -0.36376222203E+00 -0.17200895189E+03  0.17206527827E+03  0.00000000000E+00 0. -1.
        -15    1    1    2    0    0  0.63971865109E+01  0.47421329419E+00  0.14509548500E+03  0.14524808559E+03  0.17770000000E+01 0.  1.
         15    1    1    2    0    0 -0.12132759687E+02  0.14587434846E+01 -0.66731242103E+01  0.14036385072E+02  0.17770000000E+01 0. -1.
</event>
<event>
 6    1  0.1226227E-002  0.1832394E+03  0.7546771E-02  0.1067868E+00
        -11   -1    0    0    0    0  0.00000000000E+00  0.00000000000E+00  0.18250000000E+03  0.18250000000E+03  0.00000000000E+00 0.  1.
         11   -1    0    0    0    0 -0.00000000000E+00 -0.00000000000E+00 -0.18250000000E+03  0.18250000000E+03  0.00000000000E+00 0.  1.
        -11    1    1    2    0    0  0.23872966107E+01  0.44395505404E+01  0.18169074010E+03  0.18176064984E+03  0.00000000000E+00 0.  1.
         11    1    1    2    0    0 -0.13768929949E+01 -0.10907388805E+01 -0.21143644229E+02  0.21216485027E+02  0.00000000000E+00 0.  1.
        -15    1    1    2    0    0  0.56883164052E+01 -0.52310030015E+01 -0.14058204979E+03  0.14080550695E+03  0.17770000000E+01 0.  1.
         15    1    1    2    0    0 -0.66987200210E+01  0.18821913417E+01 -0.19965046077E+02  0.21217358177E+02  0.17770000000E+01 0. -1.
</event>
<event>
 6    1  0.1226227E-002  0.1893950E+03  0.7546771E-02  0.1063095E+00
        -11   -1    0    0    0    0  0.00000000000E+00  0.00000000000E+00  0.18250000000E+03  0.18250000000E+03  0.00000000000E+00 0. -1.
         11   -1    0    0    0    0 -0.00000000000E+00 -0.00000000000E+00 -0.18250000000E+03  0.18250000000E+03  0.00000000000E+00 0. -1.
        -11    1    1    2    0    0  0.19663613538E+01  0.16322389205E+01  0.15917954349E+03  0.15920005605E+03  0.00000000000E+00 0. -1.
         11    1    1    2    0    0  0.88734919309E+01  0.78424571927E+00 -0.17537893340E+03  0.17560502322E+03  0.00000000000E+00 0. -1.
        -15    1    1    2    0    0 -0.53985172154E+01  0.12047729628E+01  0.21067299799E+02  0.21853702566E+02  0.17770000000E+01 0. -1.
         15    1    1    2    0    0 -0.54413360693E+01 -0.36212576026E+01 -0.48679098852E+01  0.83412181660E+01  0.17770000000E+01 0.  1.
</event>
<event>
 6    1  0.1226227E-002  0.1836143E+03  0.7546771E-02  0.1067571E+00
        -11   -1    0    0    0    0  0.00000000000E+00  0.00000000000E+00  0.18250000000E+03  0.18250000000E+03  0.00000000000E+00 0.  1.
         11   -1    0    0    0    0 -0.00000000000E+00 -0.00000000000E+00 -0.18250000000E+03  0.18250000000E+03  0.00000000000E+00 0. -1.
        -11    1    1    2    0    0  0.11765819733E+01 -0.51439838714E+01  0.76636221151E+02  0.76817675749E+02  0.00000000000E+00 0.  1.
         11    1    1    2    0    0 -0.17133949645E+01 -0.30869298347E+01 -0.18135131235E+03  0.18138567570E+03  0.00000000000E+00 0. -1.
        -15    1    1    2    0    0  0.77057093273E+01  0.10025027649E+01  0.21280100318E+02  0.22724070203E+02  0.17770000000E+01 0. -1.
         15    1    1    2    0    0 -0.71688963361E+01  0.72284109413E+01  0.83434990876E+02  0.84072578353E+02  0.17770000000E+01 0.  1.
</event>
<event>
 6    1  0.1226227E-002  0.1849159E+03  0.7546771E-02  0.1066548E+00
        -11   -1    0    0    0    0  0.00000000000E+00  0.00000000000E+00  0.18250000000E+03  0.18250000000E+03  0.00000000000E+00 0. -1.
         11   -1    0    0    0    0 -0.00000000000E+00 -0.00000000000E+00 -0.18250000000E+03  0.18250000000E+03  0.00000000000E+00 0. -1.
        -11    1    1    2    0    0  0.19837985464E+01 -0.25728154133E+01  0.18005483489E+03  0.18008414257E+03  0.00000000000E+00 0. -1.
         11    1    1    2    0    0 -0.63876232641E+00  0.24362758300E+01 -0.15880638944E+03  0.15882636049E+03  0.00000000000E+00 0. -1.
        -15    1    1    2    0    0  0.71901911747E+00 -0.11172332702E+01 -0.22665026523E+02  0.22773369425E+02  0.17770000000E+01 0. -1.
         15    1    1    2    0    0 -0.20640553374E+01  0.12537728535E+01  0.14165810727E+01  0.33161275216E+01  0.17770000000E+01 0. -1.
</event>
<event>
 6    1  0.1226227E-002  0.1856479E+03  0.7546771E-02  0.1065976E+00
        -11   -1    0    0    0    0  0.00000000000E+00  0.00000000000E+00  0.18250000000E+03  0.18250000000E+03  0.00000000000E+00 0.  1.
         11   -1    0    0    0    0 -0.00000000000E+00 -0.00000000000E+00 -0.18250000000E+03  0.18250000000E+03  0.00000000000E+00 0. -1.
        -11    1    1    2    0    0  0.20197130287E+01 -0.50329337481E+01  0.16860649279E+03  0.16869368415E+03  0.00000000000E+00 0.  1.
         11    1    1    2    0    0 -0.14825491140E+01 -0.26106774173E+01 -0.17932698284E+03  0.17935211280E+03  0.00000000000E+00 0. -1.
        -15    1    1    2    0    0 -0.11003187665E+01  0.19308522017E+01 -0.15869617780E+01  0.32580773928E+01  0.17770000000E+01 0.  1.
         15    1    1    2    0    0  0.56315485185E+00  0.57127589638E+01  0.12307451835E+02  0.13696125658E+02  0.17770000000E+01 0. -1.
</event>
<event>
 6    1  0.1226227E-002  0.1851022E+03  0.7546771E-02  0.1066402E+00
        -11   -1    0    0    0    0  0.00000000000E+00  0.00000000000E+00  0.18250000000E+03  0.18250000000E+03  0.00000000000E+00 0. -1.
         11   -1    0    0    0    0 -0.00000000000E+00 -0.00000000000E+00 -0.18250000000E+03  0.18250000000E+03  0.00000000000E+00 0. -1.
        -11    1    1    2    0    0 -0.22995569536E+01 -0.60446285920E+01  0.17978155914E+03  0.17989784464E+03  0.00000000000E+00 0. -1.
         11    1    1    2    0    0 -0.70679241730E+01 -0.23392297216E+01 -0.15862072948E+03  0.15879535059E+03  0.00000000000E+00 0. -1.
        -15    1    1    2    0    0  0.38336481968E+01 -0.76623625793E+00 -0.33081624846E+01  0.54208527488E+01  0.17770000000E+01 0.  1.
         15    1    1    2    0    0  0.55338329298E+01  0.91500945715E+01 -0.17852667183E+02  0.20885952028E+02  0.17770000000E+01 0. -1.
</event>
<event>
 6    1  0.1226227E-002  0.1686764E+03  0.7546771E-02  0.1080024E+00
        -11   -1    0    0    0    0  0.00000000000E+00  0.00000000000E+00  0.18250000000E+03  0.18250000000E+03  0.00000000000E+00 0.  1.
         11   -1    0    0    0    0 -0.00000000000E+00 -0.00000000000E+00 -0.18250000000E+03  0.18250000000E+03  0.00000000000E+00 0.  1.
        -11    1    1    2    0    0 -0.11174616801E+02 -0.94280098078E+01  0.16610549711E+03  0.16674770044E+03  0.00000000000E+00 0.  1.
         11    1    1    2    0    0 -0.73725404124E+01 -0.34957458697E+01 -0.17120588723E+03  0.17140020541E+03  0.00000000000E+00 0.  1.
        -15    1    1    2    0    0  0.61716134381E+00  0.20406476994E+01  0.50957223723E+01  0.58025207154E+01  0.17770000000E+01 0. -1.
         15    1    1    2    0    0  0.17929995869E+02  0.10883107978E+02  0.46677500167E-02  0.21049573438E+02  0.17770000000E+01 0.  1.
</event>
<event>
 6    1  0.1226227E-002  0.1856689E+03  0.7546771E-02  0.1065960E+00
        -11   -1    0    0    0    0  0.00000000000E+00  0.00000000000E+00  0.18250000000E+03  0.18250000000E+03  0.00000000000E+00 0.  1.
         11   -1    0    0    0    0 -0.00000000000E+00 -0.00000000000E+00 -0.18250000000E+03  0.18250000000E+03  0.00000000000E+00 0.  1.
        -11    1    1    2    0    0  0.25063307661E+01  0.30942376024E+01  0.17928687998E+03  0.17933109416E+03  0.00000000000E+00 0.  1.
         11    1    1    2    0    0 -0.18238260499E+01 -0.29996717460E+01 -0.16739972928E+03  0.16743653644E+03  0.00000000000E+00 0.  1.
        -15    1    1    2    0    0 -0.86512260032E+00 -0.16874584036E+01  0.25246419083E+01  0.36231890294E+01  0.17770000000E+01 0.  1.
         15    1    1    2    0    0  0.18261788411E+00  0.15928925472E+01 -0.14411792605E+02  0.14609180369E+02  0.17770000000E+01 0.  1.
</event>
<event>
 6    1  0.1226227E-002  0.1837464E+03  0.7546771E-02  0.1067467E+00
        -11   -1    0    0    0    0  0.00000000000E+00  0.00000000000E+00  0.18250000000E+03  0.18250000000E+03  0.00000000000E+00 0.  1.
         11   -1    0    0    0    0 -0.00000000000E+00 -0.00000000000E+00 -0.18250000000E+03  0.18250000000E+03  0.00000000000E+00 0.  1.
        -11    1    1    2    0    0  0.21117008409E+01 -0.24186874174E+01  0.15204282930E+03  0.15207672824E+03  0.00000000000E+00 0.  1.
         11    1    1    2    0    0 -0.23449672015E+01 -0.10023506080E+01 -0.18123564089E+03  0.18125358233E+03  0.00000000000E+00 0.  1.
        -15    1    1    2    0    0 -0.35470662646E+01  0.10022732178E+00  0.30973247484E+01  0.50341706565E+01  0.17770000000E+01 0. -1.
         15    1    1    2    0    0  0.37803326252E+01  0.33208107036E+01  0.26095486834E+02  0.26635518778E+02  0.17770000000E+01 0.  1.
</event>
<event>
 6    1  0.1226227E-002  0.1952581E+03  0.7546771E-02  0.1058730E+00
        -11   -1    0    0    0    0  0.00000000000E+00  0.00000000000E+00  0.18250000000E+03  0.18250000000E+03  0.00000000000E+00 0. -1.
         11   -1    0    0    0    0 -0.00000000000E+00 -0.00000000000E+00 -0.18250000000E+03  0.18250000000E+03  0.00000000000E+00 0.  1.
        -11    1    1    2    0    0  0.51991329595E+01  0.87878185107E+01  0.16943453398E+03  0.16974191599E+03  0.00000000000E+00 0. -1.
         11    1    1    2    0    0 -0.10832517670E+02  0.19261404438E+01 -0.14486554598E+03  0.14528275833E+03  0.00000000000E+00 0.  1.
        -15    1    1    2    0    0 -0.13995913892E+02 -0.40275097166E+01  0.34499905567E+01  0.15072047109E+02  0.17770000000E+01 0. -1.
         15    1    1    2    0    0  0.19629298603E+02 -0.66864492379E+01 -0.28018978560E+02  0.34903278580E+02  0.17770000000E+01 0.  1.
</event>
<event>
 6    1  0.1226227E-002  0.1832678E+03  0.7546771E-02  0.1067845E+00
        -11   -1    0    0    0    0  0.00000000000E+00  0.00000000000E+00  0.18250000000E+03  0.18250000000E+03  0.00000000000E+00 0.  1.
         11   -1    0    0    0    0 -0.00000000000E+00 -0.00000000000E+00 -0.18250000000E+03  0.18250000000E+03  0.00000000000E+00 0.  1.
        -11    1    1    2    0    0 -0.55506357945E+01 -0.28988623942E+01  0.13871649077E+03  0.13885776094E+03  0.00000000000E+00 0.  1.
         11    1    1    2    0    0 -0.25957444145E+01 -0.61431520787E+00 -0.18171260934E+03  0.18173218665E+03  0.00000000000E+00 0.  1.
        -15    1    1    2    0    0  0.67930367890E+01  0.47975860454E+01  0.31408254233E+02  0.32539181669E+02  0.17770000000E+01 0. -1.
         15    1    1    2    0    0  0.13533434200E+01 -0.12844084434E+01  0.11587864332E+02  0.11870870745E+02  0.17770000000E+01 0.  1.
</event>
<event>
 6    1  0.1226227E-002  0.1724226E+03  0.7546771E-02  0.1076772E+00
        -11   -1    0    0    0    0  0.00000000000E+00  0.00000000000E+00  0.18250000000E+03  0.18250000000E+03  0.00000000000E+00 0. -1.
         11   -1    0    0    0    0 -0.00000000000E+00 -0.00000000000E+00 -0.18250000000E+03  0.18250000000E+03  0.00000000000E+00 0. -1.
        -11    1    1    2    0    0 -0.12649488170E+02 -0.25544943934E+01  0.17645610338E+03  0.17692736196E+03  0.00000000000E+00 0. -1.
         11    1    1    2    0    0 -0.17176142911E+01 -0.46971475117E+01 -0.16831477862E+03  0.16838906762E+03  0.00000000000E+00 0. -1.
        -15    1    1    2    0    0  0.47955905743E+00  0.78697144002E+00 -0.26343068654E+01  0.33085650361E+01  0.17770000000E+01 0.  1.
         15    1    1    2    0    0  0.13887543404E+02  0.64646704650E+01 -0.55070178920E+01  0.16375005376E+02  0.17770000000E+01 0. -1.
</event>
<event>
 6    1  0.1226227E-002  0.1854399E+03  0.7546771E-02  0.1066138E+00
        -11   -1    0    0    0    0  0.00000000000E+00  0.00000000000E+00  0.18250000000E+03  0.18250000000E+03  0.00000000000E+00 0.  1.
         11   -1    0    0    0    0 -0.00000000000E+00 -0.00000000000E+00 -0.18250000000E+03  0.18250000000E+03  0.00000000000E+00 0.  1.
        -11    1    1    2    0    0  0.37994628195E+01 -0.11208158450E+01  0.11683135491E+03  0.11689849288E+03  0.00000000000E+00 0.  1.
         11    1    1    2    0    0  0.44310126158E+01 -0.29294304790E+01 -0.17948155451E+03  0.17956013991E+03  0.00000000000E+00 0.  1.
        -15    1    1    2    0    0 -0.52812296138E+01  0.16375867256E+00 -0.10121578325E+00  0.55754978945E+01  0.17770000000E+01 0. -1.
         15    1    1    2    0    0 -0.29492458214E+01  0.38864876514E+01  0.62751415381E+02  0.62965869314E+02  0.17770000000E+01 0.  1.
</event>
<event>
 6    1  0.1226227E-002  0.1835681E+03  0.7546771E-02  0.1067608E+00
        -11   -1    0    0    0    0  0.00000000000E+00  0.00000000000E+00  0.18250000000E+03  0.18250000000E+03  0.00000000000E+00 0.  1.
         11   -1    0    0    0    0 -0.00000000000E+00 -0.00000000000E+00 -0.18250000000E+03  0.18250000000E+03  0.00000000000E+00 0. -1.
        -11    1    1    2    0    0 -0.31749662372E+01 -0.31136996826E+01  0.11371435035E+03  0.11380126981E+03  0.00000000000E+00 0.  1.
         11    1    1    2    0    0  0.12665822849E+02 -0.37959835312E+01 -0.18094941909E+03  0.18143187380E+03  0.00000000000E+00 0. -1.
        -15    1    1    2    0    0  0.21149635552E+01 -0.64043369000E+00  0.34189392521E+01  0.44418578051E+01  0.17770000000E+01 0.  1.
         15    1    1    2    0    0 -0.11605820167E+02  0.75501169037E+01  0.63816129496E+02  0.65324998583E+02  0.17770000000E+01 0.  1.
</event>
<event>
 6    1  0.1226227E-002  0.1757116E+03  0.7546771E-02  0.1073991E+00
        -11   -1    0    0    0    0  0.00000000000E+00  0.00000000000E+00  0.18250000000E+03  0.18250000000E+03  0.00000000000E+00 0. -1.
         11   -1    0    0    0    0 -0.00000000000E+00 -0.00000000000E+00 -0.18250000000E+03  0.18250000000E+03  0.00000000000E+00 0. -1.
        -11    1    1    2    0    0  0.72781442354E+00 -0.25854721960E+01  0.17452319188E+03  0.17454385949E+03  0.00000000000E+00 0. -1.
         11    1    1    2    0    0 -0.26313907672E+01 -0.19310589842E+01 -0.17689128796E+03  0.17692139769E+03  0.00000000000E+00 0. -1.
        -15    1    1    2    0    0  0.73648349034E+00  0.52884945281E+00 -0.47224732079E+01  0.51265555566E+01  0.17770000000E+01 0.  1.
         15    1    1    2    0    0  0.11670928533E+01  0.39876817274E+01  0.70905692808E+01  0.84081872608E+01  0.17770000000E+01 0. -1.
</event>
<event>
 6    1  0.1226227E-002  0.1872786E+03  0.7546771E-02  0.1064713E+00
        -11   -1    0    0    0    0  0.00000000000E+00  0.00000000000E+00  0.18250000000E+03  0.18250000000E+03  0.00000000000E+00 0. -1.
         11   -1    0    0    0    0 -0.00000000000E+00 -0.00000000000E+00 -0.18250000000E+03  0.18250000000E+03  0.00000000000E+00 0.  1.
        -11    1    1    2    0    0  0.12730339023E+01 -0.66839527427E+01  0.16149350224E+03  0.16163677522E+03  0.00000000000E+00 0. -1.
         11    1    1    2    0    0  0.15174221159E+02  0.99127074655E+01 -0.17679474616E+03  0.17772141409E+03  0.00000000000E+00 0.  1.
        -15    1    1    2    0    0 -0.99058909435E+01 -0.45765214533E+01  0.28757132092E+01  0.11423601860E+02  0.17770000000E+01 0. -1.
         15    1    1    2    0    0 -0.65413641178E+01  0.13477667304E+01  0.12425530715E+02  0.14218208826E+02  0.17770000000E+01 0.  1.
</event>
<event>
 6    1  0.1226227E-002  0.1839113E+03  0.7546771E-02  0.1067337E+00
        -11   -1    0    0    0    0  0.00000000000E+00  0.00000000000E+00  0.18250000000E+03  0.18250000000E+03  0.00000000000E+00 0.  1.
         11   -1    0    0    0    0 -0.00000000000E+00 -0.00000000000E+00 -0.18250000000E+03  0.18250000000E+03  0.00000000000E+00 0. -1.
        -11    1    1    2    0    0 -0.13663807430E+01 -0.24386106828E+01  0.18106714201E+03  0.18108871785E+03  0.00000000000E+00 0.  1.
         11    1    1    2    0    0  0.26842915194E+01 -0.34407347107E+01 -0.17298665429E+03  0.17304169046E+03  0.00000000000E+00 0. -1.
        -15    1    1    2    0    0  0.27192249565E+00  0.17938597468E+01 -0.27998221248E+01  0.37800274557E+01  0.17770000000E+01 0. -1.
         15    1    1    2    0    0 -0.15898332720E+01  0.40854856467E+01 -0.52806655948E+01  0.70895642269E+01  0.17770000000E+01 0.  1.
</event>
<event>
 6    1  0.1226227E-002  0.1860837E+03  0.7546771E-02  0.1065637E+00
        -11   -1    0    0    0    0  0.00000000000E+00  0.00000000000E+00  0.18250000000E+03  0.18250000000E+03  0.00000000000E+00 0.  1.
         11   -1    0    0    0    0 -0.00000000000E+00 -0.00000000000E+00 -0.18250000000E+03  0.18250000000E+03  0.00000000000E+00 0. -1.
        -11    1    1    2    0    0  0.10715755301E+02  0.39467919937E+01  0.17855151796E+03  0.17891631883E+03  0.00000000000E+00 0.  1.
         11    1    1    2    0    0 -0.64400479377E+01  0.63289620913E+01 -0.12271739147E+03  0.12304912900E+03  0.00000000000E+00 0. -1.
        -15    1    1    2    0    0 -0.62043010775E+01 -0.43521387699E+01 -0.10335638900E+01  0.78524166374E+01  0.17770000000E+01 0. -1.
         15    1    1    2    0    0  0.19285937143E+01 -0.59236153152E+01 -0.54800562600E+02  0.55182135537E+02  0.17770000000E+01 0.  1.
</event>
<event>
 6    1  0.1226227E-002  0.1828946E+03  0.7546771E-02  0.1068141E+00
        -11   -1    0    0    0    0  0.00000000000E+00  0.00000000000E+00  0.18250000000E+03  0.18250000000E+03  0.00000000000E+00 0. -1.
         11   -1    0    0    0    0 -0.00000000000E+00 -0.00000000000E+00 -0.18250000000E+03  0.18250000000E+03  0.00000000000E+00 0. -1.
        -11    1    1    2    0    0  0.75386723381E+00 -0.29953075890E+01  0.18207918320E+03  0.18210537921E+03  0.00000000000E+00 0. -1.
         11    1    1    2    0    0  0.95093878032E+00  0.26169991020E+01 -0.12399409054E+03  0.12402535006E+03  0.00000000000E+00 0. -1.
        -15    1    1    2    0    0  0.30066600073E+01  0.60747872152E+00 -0.37856226724E+02  0.38021844584E+02  0.17770000000E+01 0. -1.
         15    1    1    2    0    0 -0.47114660215E+01 -0.22917023452E+00 -0.20228865928E+02  0.20847426144E+02  0.17770000000E+01 0.  1.
</event>
<event>
 6    1  0.1226227E-002  0.1842882E+03  0.7546771E-02  0.1067040E+00
        -11   -1    0    0    0    0  0.00000000000E+00  0.00000000000E+00  0.18250000000E+03  0.18250000000E+03  0.00000000000E+00 0.  1.
         11   -1    0    0    0    0 -0.00000000000E+00 -0.00000000000E+00 -0.18250000000E+03  0.18250000000E+03  0.00000000000E+00 0.  1.
        -11    1    1    2    0    0  0.42948696225E+01  0.18942357413E+01  0.36385651746E+02  0.36687186961E+02  0.00000000000E+00 0.  1.
         11    1    1    2    0    0  0.23856521564E+01  0.26372024136E+01 -0.18067678830E+03  0.18071178158E+03  0.00000000000E+00 0.  1.
        -15    1    1    2    0    0 -0.56327218649E+01 -0.46703612955E+01  0.14516226435E+03  0.14535742344E+03  0.17770000000E+01 0.  1.
         15    1    1    2    0    0 -0.10477999140E+01  0.13892314066E+00 -0.87112779600E+00  0.22436080174E+01  0.17770000000E+01 0. -1.
</event>
<event>
 6    1  0.1226227E-002  0.1827515E+03  0.7546771E-02  0.1068255E+00
        -11   -1    0    0    0    0  0.00000000000E+00  0.00000000000E+00  0.18250000000E+03  0.18250000000E+03  0.00000000000E+00 0.  1.
         11   -1    0    0    0    0 -0.00000000000E+00 -0.00000000000E+00 -0.18250000000E+03  0.18250000000E+03  0.00000000000E+00 0. -1.
        -11    1    1    2    0    0  0.88477145021E+00  0.29679406399E+01  0.10535913087E+03  0.10540463913E+03  0.00000000000E+00 0.  1.
         11    1    1    2    0    0  0.34678620279E+01  0.20115586439E+01 -0.18220438582E+03  0.18224848600E+03  0.00000000000E+00 0. -1.
        -15    1    1    2    0    0 -0.47687989970E+01 -0.46471527692E+01  0.63610571971E+02  0.63982810725E+02  0.17770000000E+01 0. -1.
         15    1    1    2    0    0  0.41616551886E+00 -0.33234651455E+00  0.13234682980E+02  0.13364064147E+02  0.17770000000E+01 0.  1.
</event>
<event>
 6    1  0.1226227E-002  0.1446363E+03  0.7546771E-02  0.1103361E+00
        -11   -1    0    0    0    0  0.00000000000E+00  0.00000000000E+00  0.18250000000E+03  0.18250000000E+03  0.00000000000E+00 0. -1.
         11   -1    0    0    0    0 -0.00000000000E+00 -0.00000000000E+00 -0.18250000000E+03  0.18250000000E+03  0.00000000000E+00 0. -1.
        -11    1    1    2    0    0 -0.12388518386E+02 -0.27765848041E+02  0.14573749368E+03  0.14887523222E+03  0.00000000000E+00 0. -1.
         11    1    1    2    0    0  0.20283903998E+02  0.89295433122E+01 -0.13943564175E+03  0.14118594723E+03  0.00000000000E+00 0. -1.
        -15    1    1    2    0    0  0.17656502390E+02  0.12330081766E+02  0.25607844031E+02  0.33506751528E+02  0.17770000000E+01 0. -1.
         15    1    1    2    0    0 -0.25551888001E+02  0.65062229630E+01 -0.31909695967E+02  0.41432069021E+02  0.17770000000E+01 0.  1.
</event>
<event>
 6    1  0.1226227E-002  0.1685067E+03  0.7546771E-02  0.1080173E+00
        -11   -1    0    0    0    0  0.00000000000E+00  0.00000000000E+00  0.18250000000E+03  0.18250000000E+03  0.00000000000E+00 0.  1.
         11   -1    0    0    0    0 -0.00000000000E+00 -0.00000000000E+00 -0.18250000000E+03  0.18250000000E+03  0.00000000000E+00 0.  1.
        -11    1    1    2    0    0  0.48506650059E+00  0.30990137527E+01  0.16734193600E+03  0.16737133184E+03  0.00000000000E+00 0.  1.
         11    1    1    2    0    0  0.29469005638E+01 -0.10832384562E+01 -0.16964430021E+03  0.16967335154E+03  0.00000000000E+00 0.  1.
        -15    1    1    2    0    0 -0.52154999463E+01 -0.14274310486E+02  0.47496339948E+00  0.15308190578E+02  0.17770000000E+01 0.  1.
         15    1    1    2    0    0  0.17835328818E+01  0.12258535189E+02  0.18274008072E+01  0.12647126047E+02  0.17770000000E+01 0. -1.
</event>
<event>
 6    1  0.1226227E-002  0.1885010E+03  0.7546771E-02  0.1063776E+00
        -11   -1    0    0    0    0  0.00000000000E+00  0.00000000000E+00  0.18250000000E+03  0.18250000000E+03  0.00000000000E+00 0.  1.
         11   -1    0    0    0    0 -0.00000000000E+00 -0.00000000000E+00 -0.18250000000E+03  0.18250000000E+03  0.00000000000E+00 0.  1.
        -11    1    1    2    0    0  0.45866473416E+00  0.50153411885E+01  0.12897588840E+03  0.12907417948E+03  0.00000000000E+00 0.  1.
         11    1    1    2    0    0  0.12568154179E+01  0.35248305345E+01 -0.17645933545E+03  0.17649901156E+03  0.00000000000E+00 0.  1.
        -15    1    1    2    0    0 -0.11646667920E+02  0.13400845178E+01  0.43009258223E+02  0.44613840028E+02  0.17770000000E+01 0.  1.
         15    1    1    2    0    0  0.99311877675E+01 -0.98802562408E+01  0.44741888251E+01  0.14812968929E+02  0.17770000000E+01 0. -1.
</event>
<event>
 6    1  0.1226227E-002  0.1827437E+03  0.7546771E-02  0.1068261E+00
        -11   -1    0    0    0    0  0.00000000000E+00  0.00000000000E+00  0.18250000000E+03  0.18250000000E+03  0.00000000000E+00 0.  1.
         11   -1    0    0    0    0 -0.00000000000E+00 -0.00000000000E+00 -0.18250000000E+03  0.18250000000E+03  0.00000000000E+00 0.  1.
        -11    1    1    2    0    0  0.22288122767E+01  0.27077445263E+01  0.18222254527E+03  0.18225629067E+03  0.00000000000E+00 0.  1.
         11    1    1    2    0    0 -0.23874458422E+01  0.10655175277E+01 -0.10405832682E+03  0.10409116488E+03  0.00000000000E+00 0.  1.
        -15    1    1    2    0    0  0.14301997586E+01 -0.30536424351E+00 -0.69636296678E+01  0.73340702083E+01  0.17770000000E+01 0. -1.
         15    1    1    2    0    0 -0.12715661932E+01 -0.34678978105E+01 -0.71200588785E+02  0.71318474242E+02  0.17770000000E+01 0.  1.
</event>
<event>
 6    1  0.1226227E-002  0.1828200E+03  0.7546771E-02  0.1068200E+00
        -11   -1    0    0    0    0  0.00000000000E+00  0.00000000000E+00  0.18250000000E+03  0.18250000000E+03  0.00000000000E+00 0.  1.
         11   -1    0    0    0    0 -0.00000000000E+00 -0.00000000000E+00 -0.18250000000E+03  0.18250000000E+03  0.00000000000E+00 0. -1.
        -11    1    1    2    0    0  0.28181765813E+00 -0.35628307642E+01  0.18214491103E+03  0.18217997090E+03  0.00000000000E+00 0.  1.
         11    1    1    2    0    0  0.14852768752E-01  0.10086753590E+01 -0.65387735571E+02  0.65395516740E+02  0.00000000000E+00 0. -1.
        -15    1    1    2    0    0  0.58432274106E+00  0.51028835882E+00 -0.11084657031E+03  0.11086352739E+03  0.17770000000E+01 0. -1.
         15    1    1    2    0    0 -0.88099316794E+00  0.20438670464E+01 -0.59106051519E+01  0.65609849662E+01  0.17770000000E+01 0.  1.
</event>
<event>
 6    1  0.1226227E-002  0.1854199E+03  0.7546771E-02  0.1066154E+00
        -11   -1    0    0    0    0  0.00000000000E+00  0.00000000000E+00  0.18250000000E+03  0.18250000000E+03  0.00000000000E+00 0. -1.
         11   -1    0    0    0    0 -0.00000000000E+00 -0.00000000000E+00 -0.18250000000E+03  0.18250000000E+03  0.00000000000E+00 0.  1.
        -11    1    1    2    0    0 -0.44356301671E+01 -0.18955880986E+01  0.17951527714E+03  0.17958007349E+03  0.00000000000E+00 0. -1.
         11    1    1    2    0    0 -0.40429675747E+01 -0.21187580873E+01 -0.15763094820E+03  0.15769702139E+03  0.00000000000E+00 0.  1.
        -15    1    1    2    0    0  0.21582424112E+00 -0.10640645457E+01 -0.16216944226E+02  0.16350101605E+02  0.17770000000E+01 0.  1.
         15    1    1    2    0    0  0.82627735006E+01  0.50784107317E+01 -0.56673847045E+01  0.11372803519E+02  0.17770000000E+01 0. -1.
</event>
<event>
 6    1  0.1226227E-002  0.1831224E+03  0.7546771E-02  0.1067960E+00
        -11   -1    0    0    0    0  0.00000000000E+00  0.00000000000E+00  0.18250000000E+03  0.18250000000E+03  0.00000000000E+00 0. -1.
         11   -1    0    0    0    0 -0.00000000000E+00 -0.00000000000E+00 -0.18250000000E+03  0.18250000000E+03  0.00000000000E+00 0.  1.
        -11    1    1    2    0    0  0.11365927601E+01  0.29159036310E+01  0.73235615389E+02  0.73302453564E+02  0.00000000000E+00 0. -1.
         11    1    1    2    0    0  0.37563960384E+01 -0.41851319416E+00 -0.18183832123E+03  0.18187759822E+03  0.00000000000E+00 0.  1.
        -15    1    1    2    0    0 -0.33793830688E+01 -0.30345253372E+01  0.94141636738E+01  0.10602489360E+02  0.17770000000E+01 0. -1.
         15    1    1    2    0    0 -0.15136057297E+01  0.53713490036E+00  0.99188542169E+02  0.99217458861E+02  0.17770000000E+01 0.  1.
</event>
<event>
 6    1  0.1226227E-002  0.2019670E+03  0.7546771E-02  0.1053935E+00
        -11   -1    0    0    0    0  0.00000000000E+00  0.00000000000E+00  0.18250000000E+03  0.18250000000E+03  0.00000000000E+00 0. -1.
         11   -1    0    0    0    0 -0.00000000000E+00 -0.00000000000E+00 -0.18250000000E+03  0.18250000000E+03  0.00000000000E+00 0. -1.
        -11    1    1    2    0    0  0.15281887920E+01 -0.62149308126E+01  0.13782288480E+03  0.13797140392E+03  0.00000000000E+00 0. -1.
         11    1    1    2    0    0  0.12185579355E+02 -0.28916893362E+01 -0.16255127534E+03  0.16303302526E+03  0.00000000000E+00 0. -1.
        -15    1    1    2    0    0  0.41221356239E+01 -0.20194019158E+02  0.20946293010E+02  0.29439689735E+02  0.17770000000E+01 0. -1.
         15    1    1    2    0    0 -0.17835903771E+02  0.29300639307E+02  0.37820975307E+01  0.34555881089E+02  0.17770000000E+01 0.  1.
</event>
<event>
 6    1  0.1226227E-002  0.1825396E+03  0.7546771E-02  0.1068423E+00
        -11   -1    0    0    0    0  0.00000000000E+00  0.00000000000E+00  0.18250000000E+03  0.18250000000E+03  0.00000000000E+00 0.  1.
         11   -1    0    0    0    0 -0.00000000000E+00 -0.00000000000E+00 -0.18250000000E+03  0.18250000000E+03  0.00000000000E+00 0.  1.
        -11    1    1    2    0    0  0.65777672159E+00  0.91539473484E+00  0.35222808992E+02  0.35240841236E+02  0.00000000000E+00 0.  1.
         11    1    1    2    0    0 -0.22064914975E+01  0.18593819878E+01 -0.18243760646E+03  0.18246042353E+03  0.00000000000E+00 0.  1.
        -15    1    1    2    0    0  0.98455892762E+00 -0.22573806290E+01  0.90602457063E+02  0.90653340140E+02  0.17770000000E+01 0.  1.
         15    1    1    2    0    0  0.56415584832E+00 -0.51739609369E+00  0.56612340400E+02  0.56645395092E+02  0.17770000000E+01 0.  1.
</event>
<event>
 6    1  0.1226227E-002  0.1867985E+03  0.7546771E-02  0.1065084E+00
        -11   -1    0    0    0    0  0.00000000000E+00  0.00000000000E+00  0.18250000000E+03  0.18250000000E+03  0.00000000000E+00 0.  1.
         11   -1    0    0    0    0 -0.00000000000E+00 -0.00000000000E+00 -0.18250000000E+03  0.18250000000E+03  0.00000000000E+00 0. -1.
        -11    1    1    2    0    0  0.23128708999E+01  0.20063562286E+01  0.17817516267E+03  0.17820146865E+03  0.00000000000E+00 0.  1.
         11    1    1    2    0    0 -0.25503548696E+01 -0.50677744448E+01 -0.16824249940E+03  0.16833812774E+03  0.00000000000E+00 0. -1.
        -15    1    1    2    0    0  0.26624377195E+01  0.85891412676E+00  0.33215529298E+01  0.46922010776E+01  0.17770000000E+01 0. -1.
         15    1    1    2    0    0 -0.24249537498E+01  0.22025040895E+01 -0.13254216201E+02  0.13768202536E+02  0.17770000000E+01 0.  1.
</event>
<event>
 6    1  0.1226227E-002  0.1839238E+03  0.7546771E-02  0.1067327E+00
        -11   -1    0    0    0    0  0.00000000000E+00  0.00000000000E+00  0.18250000000E+03  0.18250000000E+03  0.00000000000E+00 0. -1.
         11   -1    0    0    0    0 -0.00000000000E+00 -0.00000000000E+00 -0.18250000000E+03  0.18250000000E+03  0.00000000000E+00 0. -1.
        -11    1    1    2    0    0  0.34510043154E+00 -0.30931124542E+01  0.16896365567E+03  0.16899231751E+03  0.00000000000E+00 0. -1.
         11    1    1    2    0    0  0.18012284444E+01 -0.17049076775E+01 -0.18105924851E+03  0.18107623424E+03  0.00000000000E+00 0. -1.
        -15    1    1    2    0    0 -0.87461826862E+00  0.93209433562E-01  0.24835400648E+00  0.19982627022E+01  0.17770000000E+01 0.  1.
         15    1    1    2    0    0 -0.12717106073E+01  0.47048106981E+01  0.11847238834E+02  0.12933185553E+02  0.17770000000E+01 0. -1.
</event>
<event>
 6    1  0.1226227E-002  0.1859976E+03  0.7546771E-02  0.1065704E+00
        -11   -1    0    0    0    0  0.00000000000E+00  0.00000000000E+00  0.18250000000E+03  0.18250000000E+03  0.00000000000E+00 0.  1.
         11   -1    0    0    0    0 -0.00000000000E+00 -0.00000000000E+00 -0.18250000000E+03  0.18250000000E+03  0.00000000000E+00 0.  1.
        -11    1    1    2    0    0 -0.69140552857E+01  0.48571829325E+00  0.13631944438E+03  0.13649553472E+03  0.00000000000E+00 0.  1.
         11    1    1    2    0    0 -0.22395528399E+01 -0.29052974091E+01 -0.17896481085E+03  0.17900240187E+03  0.00000000000E+00 0.  1.
        -15    1    1    2    0    0 -0.47674944933E+01 -0.39746445773E+01  0.33182402534E+01  0.72591494432E+01  0.17770000000E+01 0. -1.
         15    1    1    2    0    0  0.13921102619E+02  0.63942236931E+01  0.39327126225E+02  0.42242913972E+02  0.17770000000E+01 0.  1.
</event>
<event>
 6    1  0.1226227E-002  0.1828921E+03  0.7546771E-02  0.1068143E+00
        -11   -1    0    0    0    0  0.00000000000E+00  0.00000000000E+00  0.18250000000E+03  0.18250000000E+03  0.00000000000E+00 0.  1.
         11   -1    0    0    0    0 -0.00000000000E+00 -0.00000000000E+00 -0.18250000000E+03  0.18250000000E+03  0.00000000000E+00 0. -1.
        -11    1    1    2    0    0  0.20975154166E+01 -0.31610192332E+01  0.10665575041E+03  0.10672319668E+03  0.00000000000E+00 0.  1.
         11    1    1    2    0    0  0.30516176200E+01  0.23502687094E+01 -0.18206716639E+03  0.18210790541E+03  0.00000000000E+00 0. -1.
        -15    1    1    2    0    0 -0.23018983940E+00  0.30395721000E+01  0.50226058507E+02  0.50349842781E+02  0.17770000000E+01 0.  1.
         15    1    1    2    0    0 -0.49189431972E+01 -0.22288215762E+01  0.25185357478E+02  0.25819055136E+02  0.17770000000E+01 0. -1.
</event>
<event>
 6    1  0.1226227E-002  0.1856205E+03  0.7546771E-02  0.1065998E+00
        -11   -1    0    0    0    0  0.00000000000E+00  0.00000000000E+00  0.18250000000E+03  0.18250000000E+03  0.00000000000E+00 0.  1.
         11   -1    0    0    0    0 -0.00000000000E+00 -0.00000000000E+00 -0.18250000000E+03  0.18250000000E+03  0.00000000000E+00 0.  1.
        -11    1    1    2    0    0  0.12034405875E+00 -0.76971857601E+01  0.17921424091E+03  0.17937950077E+03  0.00000000000E+00 0.  1.
         11    1    1    2    0    0 -0.44212912729E+01  0.87641127399E+00 -0.17237200422E+03  0.17243092458E+03  0.00000000000E+00 0.  1.
        -15    1    1    2    0    0  0.42960839710E+01  0.74993929996E+01 -0.70251291032E+01  0.11278625837E+02  0.17770000000E+01 0. -1.
         15    1    1    2    0    0  0.48632432042E-02 -0.67861851351E+00  0.18289241011E+00  0.19109488145E+01  0.17770000000E+01 0. -1.
</event>
<event>
 6    1  0.1226227E-002  0.1888640E+03  0.7546771E-02  0.1063499E+00
        -11   -1    0    0    0    0  0.00000000000E+00  0.00000000000E+00  0.18250000000E+03  0.18250000000E+03  0.00000000000E+00 0. -1.
         11   -1    0    0    0    0 -0.00000000000E+00 -0.00000000000E+00 -0.18250000000E+03  0.18250000000E+03  0.00000000000E+00 0.  1.
        -11    1    1    2    0    0 -0.60772668857E+01  0.20952557160E+01  0.16351740748E+03  0.16364371609E+03  0.00000000000E+00 0. -1.
         11    1    1    2    0    0 -0.32131226559E+01  0.12724704966E+01 -0.17610205374E+03  0.17613596075E+03  0.00000000000E+00 0.  1.
        -15    1    1    2    0    0  0.70103329820E+01 -0.56064169006E+01 -0.26711215385E+01  0.95325389197E+01  0.17770000000E+01 0.  1.
         15    1    1    2    0    0  0.22800565596E+01  0.22386906881E+01  0.15255767803E+02  0.15687784234E+02  0.17770000000E+01 0. -1.
</event>
<event>
 6    1  0.1226227E-002  0.1830403E+03  0.7546771E-02  0.1068026E+00
        -11   -1    0    0    0    0  0.00000000000E+00  0.00000000000E+00  0.18250000000E+03  0.18250000000E+03  0.00000000000E+00 0.  1.
         11   -1    0    0    0    0 -0.00000000000E+00 -0.00000000000E+00 -0.18250000000E+03  0.18250000000E+03  0.00000000000E+00 0. -1.
        -11    1    1    2    0    0  0.17192697274E+01  0.33209022219E+01  0.14039706538E+03  0.14044685915E+03  0.00000000000E+00 0.  1.
         11    1    1    2    0    0  0.59427694528E-02 -0.26536624989E+01 -0.18194035177E+03  0.18195970312E+03  0.00000000000E+00 0. -1.
        -15    1    1    2    0    0  0.60515431758E+00 -0.32008348909E+01  0.33058565274E+02  0.33266169342E+02  0.17770000000E+01 0.  1.
         15    1    1    2    0    0 -0.23303668144E+01  0.25335951679E+01  0.84847211172E+01  0.93272683783E+01  0.17770000000E+01 0.  1.
</event>
<event>
 6    1  0.1226227E-002  0.1858760E+03  0.7546771E-02  0.1065799E+00
        -11   -1    0    0    0    0  0.00000000000E+00  0.00000000000E+00  0.18250000000E+03  0.18250000000E+03  0.00000000000E+00 0. -1.
         11   -1    0    0    0    0 -0.00000000000E+00 -0.00000000000E+00 -0.18250000000E+03  0.18250000000E+03  0.00000000000E+00 0. -1.
        -11    1    1    2    0    0  0.13737575952E+01  0.20447103889E+01  0.17910703025E+03  0.17912396918E+03  0.00000000000E+00 0. -1.
         11    1    1    2    0    0  0.13887943840E+00 -0.68880895459E+00 -0.19496616564E+02  0.19509274787E+02  0.00000000000E+00 0. -1.
        -15    1    1    2    0    0  0.42205441984E+01 -0.11968200082E+00 -0.16014935861E+03  0.16021486232E+03  0.17770000000E+01 0. -1.
         15    1    1    2    0    0 -0.57331812321E+01 -0.12362194334E+01  0.53894492071E+00  0.61518937048E+01  0.17770000000E+01 0.  1.
</event>
<event>
 6    1  0.1226227E-002  0.1848571E+03  0.7546771E-02  0.1066594E+00
        -11   -1    0    0    0    0  0.00000000000E+00  0.00000000000E+00  0.18250000000E+03  0.18250000000E+03  0.00000000000E+00 0. -1.
         11   -1    0    0    0    0 -0.00000000000E+00 -0.00000000000E+00 -0.18250000000E+03  0.18250000000E+03  0.00000000000E+00 0.  1.
        -11    1    1    2    0    0 -0.36726337464E+01 -0.26834972351E+01  0.18008541728E+03  0.18014285140E+03  0.00000000000E+00 0. -1.
         11    1    1    2    0    0  0.13598042708E+01  0.20555853978E+01 -0.17638714136E+03  0.17640435974E+03  0.00000000000E+00 0.  1.
        -15    1    1    2    0    0  0.43477980450E+01  0.95936090762E+00 -0.17410519179E+01  0.51002658726E+01  0.17770000000E+01 0. -1.
         15    1    1    2    0    0 -0.20349685694E+01 -0.33144907035E+00 -0.19572240041E+01  0.33525229853E+01  0.17770000000E+01 0.  1.
</event>
<event>
 6    1  0.1226227E-002  0.1851282E+03  0.7546771E-02  0.1066382E+00
        -11   -1    0    0    0    0  0.00000000000E+00  0.00000000000E+00  0.18250000000E+03  0.18250000000E+03  0.00000000000E+00 0. -1.
         11   -1    0    0    0    0 -0.00000000000E+00 -0.00000000000E+00 -0.18250000000E+03  0.18250000000E+03  0.00000000000E+00 0.  1.
        -11    1    1    2    0    0 -0.37516273729E+01  0.11232259161E+01  0.15658071741E+03  0.15662968240E+03  0.00000000000E+00 0. -1.
         11    1    1    2    0    0  0.47288030473E+01 -0.26585519334E+01 -0.17978997003E+03  0.17987179545E+03  0.00000000000E+00 0.  1.
        -15    1    1    2    0    0 -0.29164884728E+01 -0.49467655539E+01  0.19846376884E+02  0.20736749959E+02  0.17770000000E+01 0.  1.
         15    1    1    2    0    0  0.19393127985E+01  0.64820915712E+01  0.33628757351E+01  0.77617721867E+01  0.17770000000E+01 0. -1.
</event>
<event>
 6    1  0.1226227E-002  0.1853202E+03  0.7546771E-02  0.1066232E+00
        -11   -1    0    0    0    0  0.00000000000E+00  0.00000000000E+00  0.18250000000E+03  0.18250000000E+03  0.00000000000E+00 0.  1.
         11   -1    0    0    0    0 -0.00000000000E+00 -0.00000000000E+00 -0.18250000000E+03  0.18250000000E+03  0.00000000000E+00 0.  1.
        -11    1    1    2    0    0 -0.17467470381E+01  0.28519505613E+01  0.17964865419E+03  0.17967978100E+03  0.00000000000E+00 0.  1.
         11    1    1    2    0    0 -0.92478659243E+00 -0.23796946178E+01 -0.17415581095E+03  0.17417452358E+03  0.00000000000E+00 0.  1.
        -15    1    1    2    0    0  0.13731774698E+01 -0.60497908598E+00 -0.76894170111E+01  0.80334599662E+01  0.17770000000E+01 0. -1.
         15    1    1    2    0    0  0.12983561608E+01  0.13272314246E+00  0.21965737745E+01  0.31122354505E+01  0.17770000000E+01 0.  1.
</event>
<event>
 6    1  0.1226227E-002  0.1829509E+03  0.7546771E-02  0.1068096E+00
        -11   -1    0    0    0    0  0.00000000000E+00  0.00000000000E+00  0.18250000000E+03  0.18250000000E+03  0.00000000000E+00 0. -1.
         11   -1    0    0    0    0 -0.00000000000E+00 -0.00000000000E+00 -0.18250000000E+03  0.18250000000E+03  0.00000000000E+00 0. -1.
        -11    1    1    2    0    0 -0.81744170795E+00 -0.37947278135E+01  0.18200770131E+03  0.18204909092E+03  0.00000000000E+00 0. -1.
         11    1    1    2    0    0 -0.15557619569E+01  0.17556571876E+01 -0.14205585357E+03  0.14207522043E+03  0.00000000000E+00 0. -1.
        -15    1    1    2    0    0  0.27158224352E+01  0.40080975701E+01 -0.16905133391E+02  0.17674326058E+02  0.17770000000E+01 0.  1.
         15    1    1    2    0    0 -0.34261877030E+00 -0.19690269442E+01 -0.23046714349E+02  0.23201362589E+02  0.17770000000E+01 0. -1.
</event>
<event>
 6    1  0.1226227E-002  0.1587431E+03  0.7546771E-02  0.1089114E+00
        -11   -1    0    0    0    0  0.00000000000E+00  0.00000000000E+00  0.18250000000E+03  0.18250000000E+03  0.00000000000E+00 0. -1.
         11   -1    0    0    0    0 -0.00000000000E+00 -0.00000000000E+00 -0.18250000000E+03  0.18250000000E+03  0.00000000000E+00 0.  1.
        -11    1    1    2    0    0  0.23201716138E+01 -0.21228836595E+02  0.16288766314E+03  0.16428157992E+03  0.00000000000E+00 0. -1.
         11    1    1    2    0    0 -0.35635290245E+01 -0.16540967192E+00 -0.15400961769E+03  0.15405092807E+03  0.00000000000E+00 0.  1.
        -15    1    1    2    0    0 -0.79895748735E+01  0.18394218503E+02 -0.22276589446E+02  0.30026400839E+02  0.17770000000E+01 0. -1.
         15    1    1    2    0    0  0.92329322842E+01  0.30000277638E+01  0.13398543995E+02  0.16641091170E+02  0.17770000000E+01 0.  1.
</event>
<event>
 6    1  0.1226227E-002  0.1869037E+03  0.7546771E-02  0.1065003E+00
        -11   -1    0    0    0    0  0.00000000000E+00  0.00000000000E+00  0.18250000000E+03  0.18250000000E+03  0.00000000000E+00 0.  1.
         11   -1    0    0    0    0 -0.00000000000E+00 -0.00000000000E+00 -0.18250000000E+03  0.18250000000E+03  0.00000000000E+00 0. -1.
        -11    1    1    2    0    0 -0.47826388016E+01  0.66763621955E+01  0.17099315471E+03  0.17119026376E+03  0.00000000000E+00 0.  1.
         11    1    1    2    0    0  0.46030424580E-01 -0.35151659985E+01 -0.17806159576E+03  0.17809629529E+03  0.00000000000E+00 0. -1.
        -15    1    1    2    0    0  0.38857168801E+01  0.76845028094E+00 -0.26226118073E+01  0.50719949919E+01  0.17770000000E+01 0.  1.
         15    1    1    2    0    0  0.85089149695E+00 -0.39296464780E+01  0.96910528543E+01  0.10641445964E+02  0.17770000000E+01 0.  1.
</event>
<event>
 6    1  0.1226227E-002  0.1884975E+03  0.7546771E-02  0.1063779E+00
        -11   -1    0    0    0    0  0.00000000000E+00  0.00000000000E+00  0.18250000000E+03  0.18250000000E+03  0.00000000000E+00 0.  1.
         11   -1    0    0    0    0 -0.00000000000E+00 -0.00000000000E+00 -0.18250000000E+03  0.18250000000E+03  0.00000000000E+00 0. -1.
        -11    1    1    2    0    0 -0.78167705944E+01  0.40550916865E+01  0.69376951099E+02  0.69933590033E+02  0.00000000000E+00 0.  1.
         11    1    1    2    0    0 -0.61701729308E+01 -0.89146216783E+01 -0.17616922455E+03  0.17650251327E+03  0.00000000000E+00 0. -1.
        -15    1    1    2    0    0  0.10012385326E+02  0.13966358216E+02  0.76246186007E+01  0.18883843876E+02  0.17770000000E+01 0.  1.
         15    1    1    2    0    0  0.39745581991E+01 -0.91068282244E+01  0.99167654847E+02  0.99680052820E+02  0.17770000000E+01 0.  1.
</event>
<event>
 6    1  0.1226227E-002  0.1845135E+03  0.7546771E-02  0.1066863E+00
        -11   -1    0    0    0    0  0.00000000000E+00  0.00000000000E+00  0.18250000000E+03  0.18250000000E+03  0.00000000000E+00 0. -1.
         11   -1    0    0    0    0 -0.00000000000E+00 -0.00000000000E+00 -0.18250000000E+03  0.18250000000E+03  0.00000000000E+00 0.  1.
        -11    1    1    2    0    0  0.12812607217E+01  0.75485962428E+01  0.11029617102E+03  0.11056160399E+03  0.00000000000E+00 0. -1.
         11    1    1    2    0    0  0.83390444340E+01 -0.26942467346E+01 -0.18027364708E+03  0.18048652708E+03  0.00000000000E+00 0.  1.
        -15    1    1    2    0    0 -0.26970147812E+00  0.49782099285E+01  0.46321046807E+02  0.46622445445E+02  0.17770000000E+01 0. -1.
         15    1    1    2    0    0 -0.93506036775E+01 -0.98325594368E+01  0.23656429245E+02  0.27329423482E+02  0.17770000000E+01 0.  1.
</event>
<event>
 6    1  0.1226227E-002  0.1626659E+03  0.7546771E-02  0.1085440E+00
        -11   -1    0    0    0    0  0.00000000000E+00  0.00000000000E+00  0.18250000000E+03  0.18250000000E+03  0.00000000000E+00 0. -1.
         11   -1    0    0    0    0 -0.00000000000E+00 -0.00000000000E+00 -0.18250000000E+03  0.18250000000E+03  0.00000000000E+00 0.  1.
        -11    1    1    2    0    0  0.56277350559E+01 -0.15242511600E+01  0.15922493341E+03  0.15933164834E+03  0.00000000000E+00 0. -1.
         11    1    1    2    0    0  0.54352191997E+01 -0.12905118337E+02 -0.16598843836E+03  0.16657804584E+03  0.00000000000E+00 0.  1.
        -15    1    1    2    0    0 -0.75527717356E+01 -0.17269907426E-01  0.18503012491E+02  0.20063994104E+02  0.17770000000E+01 0. -1.
         15    1    1    2    0    0 -0.35101825200E+01  0.14446639405E+02 -0.11739507538E+02  0.19026311719E+02  0.17770000000E+01 0. -1.
</event>
<event>
 6    1  0.1226227E-002  0.1864407E+03  0.7546771E-02  0.1065361E+00
        -11   -1    0    0    0    0  0.00000000000E+00  0.00000000000E+00  0.18250000000E+03  0.18250000000E+03  0.00000000000E+00 0.  1.
         11   -1    0    0    0    0 -0.00000000000E+00 -0.00000000000E+00 -0.18250000000E+03  0.18250000000E+03  0.00000000000E+00 0. -1.
        -11    1    1    2    0    0 -0.23796474894E+01  0.11706134339E+01  0.16934452497E+03  0.16936528923E+03  0.00000000000E+00 0.  1.
         11    1    1    2    0    0 -0.38107333378E+01 -0.46922876299E+01 -0.17845694698E+03  0.17855929317E+03  0.00000000000E+00 0. -1.
        -15    1    1    2    0    0  0.67044724616E+01  0.73900735542E+01  0.67842479163E+01  0.12196183293E+02  0.17770000000E+01 0.  1.
         15    1    1    2    0    0 -0.51409163440E+00 -0.38683993582E+01  0.23281740992E+01  0.48792343087E+01  0.17770000000E+01 0. -1.
</event>
<event>
 6    1  0.1226227E-002  0.1841680E+03  0.7546771E-02  0.1067135E+00
        -11   -1    0    0    0    0  0.00000000000E+00  0.00000000000E+00  0.18250000000E+03  0.18250000000E+03  0.00000000000E+00 0. -1.
         11   -1    0    0    0    0 -0.00000000000E+00 -0.00000000000E+00 -0.18250000000E+03  0.18250000000E+03  0.00000000000E+00 0.  1.
        -11    1    1    2    0    0 -0.97396772211E+00 -0.27966893790E+01  0.17524946630E+03  0.17527448623E+03  0.00000000000E+00 0. -1.
         11    1    1    2    0    0  0.38865214671E+01 -0.39410439289E-01 -0.18079021868E+03  0.18083199322E+03  0.00000000000E+00 0.  1.
        -15    1    1    2    0    0  0.79522458742E+00  0.17974684890E+01  0.27383473012E+01  0.38104527363E+01  0.17770000000E+01 0. -1.
         15    1    1    2    0    0 -0.37077783324E+01  0.10386313293E+01  0.28024050701E+01  0.50830678116E+01  0.17770000000E+01 0. -1.
</event>
<event>
 6    1  0.1226227E-002  0.1827425E+03  0.7546771E-02  0.1068262E+00
        -11   -1    0    0    0    0  0.00000000000E+00  0.00000000000E+00  0.18250000000E+03  0.18250000000E+03  0.00000000000E+00 0. -1.
         11   -1    0    0    0    0 -0.00000000000E+00 -0.00000000000E+00 -0.18250000000E+03  0.18250000000E+03  0.00000000000E+00 0.  1.
        -11    1    1    2    0    0  0.45758493248E+01 -0.43921696781E+01  0.18214706255E+03  0.18225746061E+03  0.00000000000E+00 0. -1.
         11    1    1    2    0    0 -0.87817347869E+00  0.51263430604E+00 -0.32189109468E+02  0.32205166526E+02  0.00000000000E+00 0.  1.
        -15    1    1    2    0    0  0.24887959587E+01  0.51923493599E+01 -0.49611593757E+02  0.49976219958E+02  0.17770000000E+01 0. -1.
         15    1    1    2    0    0 -0.61864718049E+01 -0.13128139879E+01 -0.10034635933E+03  0.10056115290E+03  0.17770000000E+01 0.  1.
</event>
<event>
 6    1  0.1226227E-002  0.1878350E+03  0.7546771E-02  0.1064286E+00
        -11   -1    0    0    0    0  0.00000000000E+00  0.00000000000E+00  0.18250000000E+03  0.18250000000E+03  0.00000000000E+00 0.  1.
         11   -1    0    0    0    0 -0.00000000000E+00 -0.00000000000E+00 -0.18250000000E+03  0.18250000000E+03  0.00000000000E+00 0. -1.
        -11    1    1    2    0    0  0.40871013960E+01 -0.54062301287E+01  0.17703528986E+03  0.17716496713E+03  0.00000000000E+00 0.  1.
         11    1    1    2    0    0 -0.22978727480E+01  0.21401796605E+00 -0.16416634256E+03  0.16418256318E+03  0.00000000000E+00 0. -1.
        -15    1    1    2    0    0  0.37769287175E+01  0.15800958718E+01 -0.15625736094E+02  0.16250638479E+02  0.17770000000E+01 0. -1.
         15    1    1    2    0    0 -0.55661573655E+01  0.36121162909E+01  0.27567887884E+01  0.74018312153E+01  0.17770000000E+01 0.  1.
</event>
<event>
 6    1  0.1226227E-002  0.1869646E+03  0.7546771E-02  0.1064956E+00
        -11   -1    0    0    0    0  0.00000000000E+00  0.00000000000E+00  0.18250000000E+03  0.18250000000E+03  0.00000000000E+00 0. -1.
         11   -1    0    0    0    0 -0.00000000000E+00 -0.00000000000E+00 -0.18250000000E+03  0.18250000000E+03  0.00000000000E+00 0. -1.
        -11    1    1    2    0    0 -0.21445166026E+01 -0.14334909945E+01  0.17801675779E+03  0.17803544564E+03  0.00000000000E+00 0. -1.
         11    1    1    2    0    0 -0.15716828881E+01  0.26723199705E+00 -0.84754930328E+02  0.84769922820E+02  0.00000000000E+00 0. -1.
        -15    1    1    2    0    0  0.14075979633E+02 -0.10297314857E+02 -0.17201693282E+02  0.24560616374E+02  0.17770000000E+01 0.  1.
         15    1    1    2    0    0 -0.10359780143E+02  0.11463573854E+02 -0.76060134183E+02  0.77634015168E+02  0.17770000000E+01 0. -1.
</event>
<event>
 6    1  0.1226227E-002  0.1969146E+03  0.7546771E-02  0.1057527E+00
        -11   -1    0    0    0    0  0.00000000000E+00  0.00000000000E+00  0.18250000000E+03  0.18250000000E+03  0.00000000000E+00 0. -1.
         11   -1    0    0    0    0 -0.00000000000E+00 -0.00000000000E+00 -0.18250000000E+03  0.18250000000E+03  0.00000000000E+00 0. -1.
        -11    1    1    2    0    0  0.51447646673E+01 -0.40481647823E+01  0.12429312118E+03  0.12446540168E+03  0.00000000000E+00 0. -1.
         11    1    1    2    0    0 -0.22015798261E+01 -0.12847790028E+01 -0.16806604045E+03  0.16808536986E+03  0.00000000000E+00 0. -1.
        -15    1    1    2    0    0  0.16741222898E+02 -0.19012280834E+02  0.26267574630E+02  0.36535990100E+02  0.17770000000E+01 0.  1.
         15    1    1    2    0    0 -0.19684407739E+02  0.24345224619E+02  0.17505344636E+02  0.35913238362E+02  0.17770000000E+01 0. -1.
</event>
<event>
 6    1  0.1226227E-002  0.1837828E+03  0.7546771E-02  0.1067438E+00
        -11   -1    0    0    0    0  0.00000000000E+00  0.00000000000E+00  0.18250000000E+03  0.18250000000E+03  0.00000000000E+00 0. -1.
         11   -1    0    0    0    0 -0.00000000000E+00 -0.00000000000E+00 -0.18250000000E+03  0.18250000000E+03  0.00000000000E+00 0. -1.
        -11    1    1    2    0    0 -0.48644489320E+01  0.22914955166E+01  0.18113744777E+03  0.18121724200E+03  0.00000000000E+00 0. -1.
         11    1    1    2    0    0  0.76144069457E+01  0.10032866870E+02 -0.70786661659E+02  0.71898463680E+02  0.00000000000E+00 0. -1.
        -15    1    1    2    0    0 -0.25796300706E+01 -0.14906776676E+02 -0.95291052787E+02  0.96500823584E+02  0.17770000000E+01 0. -1.
         15    1    1    2    0    0 -0.17032794315E+00  0.25824142894E+01 -0.15059733321E+02  0.15383470735E+02  0.17770000000E+01 0.  1.
</event>
<event>
 6    1  0.1226227E-002  0.1677476E+03  0.7546771E-02  0.1080844E+00
        -11   -1    0    0    0    0  0.00000000000E+00  0.00000000000E+00  0.18250000000E+03  0.18250000000E+03  0.00000000000E+00 0. -1.
         11   -1    0    0    0    0 -0.00000000000E+00 -0.00000000000E+00 -0.18250000000E+03  0.18250000000E+03  0.00000000000E+00 0. -1.
        -11    1    1    2    0    0  0.27726076683E+01 -0.28286581552E+00  0.17097192711E+03  0.17099464093E+03  0.00000000000E+00 0. -1.
         11    1    1    2    0    0 -0.10980989793E+02 -0.63289387003E+01 -0.16424528291E+03  0.16473357448E+03  0.00000000000E+00 0. -1.
        -15    1    1    2    0    0 -0.72343125073E+01  0.89390225443E+01  0.11462814571E+01  0.11692437371E+02  0.17770000000E+01 0.  1.
         15    1    1    2    0    0  0.15442694632E+02 -0.23272180285E+01 -0.78729256593E+01  0.17579347220E+02  0.17770000000E+01 0. -1.
</event>
<event>
 6    1  0.1226227E-002  0.1866346E+03  0.7546771E-02  0.1065211E+00
        -11   -1    0    0    0    0  0.00000000000E+00  0.00000000000E+00  0.18250000000E+03  0.18250000000E+03  0.00000000000E+00 0. -1.
         11   -1    0    0    0    0 -0.00000000000E+00 -0.00000000000E+00 -0.18250000000E+03  0.18250000000E+03  0.00000000000E+00 0. -1.
        -11    1    1    2    0    0  0.58430391323E+01 -0.18703787399E+01  0.17155818808E+03  0.17166785174E+03  0.00000000000E+00 0. -1.
         11    1    1    2    0    0 -0.35254108482E+01  0.95888764917E+00 -0.17832801919E+03  0.17836544064E+03  0.00000000000E+00 0. -1.
        -15    1    1    2    0    0 -0.32354017671E+01 -0.56239696789E+00  0.10125167175E+02  0.10791703029E+02  0.17770000000E+01 0. -1.
         15    1    1    2    0    0  0.91777348303E+00  0.14738880586E+01 -0.33553360696E+01  0.41750045886E+01  0.17770000000E+01 0. -1.
</event>
<event>
 6    1  0.1226227E-002  0.1838993E+03  0.7546771E-02  0.1067346E+00
        -11   -1    0    0    0    0  0.00000000000E+00  0.00000000000E+00  0.18250000000E+03  0.18250000000E+03  0.00000000000E+00 0. -1.
         11   -1    0    0    0    0 -0.00000000000E+00 -0.00000000000E+00 -0.18250000000E+03  0.18250000000E+03  0.00000000000E+00 0. -1.
        -11    1    1    2    0    0 -0.24749794005E+01  0.20777702300E+00  0.16297011928E+03  0.16298904403E+03  0.00000000000E+00 0. -1.
         11    1    1    2    0    0  0.25908900489E+01 -0.11494580684E+01 -0.18107856147E+03  0.18110074375E+03  0.00000000000E+00 0. -1.
        -15    1    1    2    0    0  0.46317019618E+01  0.12325592825E+01  0.11427836333E+02  0.12518987087E+02  0.17770000000E+01 0. -1.
         15    1    1    2    0    0 -0.47476126102E+01 -0.29087823715E+00  0.66806058513E+01  0.83912251302E+01  0.17770000000E+01 0.  1.
</event>
<event>
 6    1  0.1226227E-002  0.1832750E+03  0.7546771E-02  0.1067840E+00
        -11   -1    0    0    0    0  0.00000000000E+00  0.00000000000E+00  0.18250000000E+03  0.18250000000E+03  0.00000000000E+00 0.  1.
         11   -1    0    0    0    0 -0.00000000000E+00 -0.00000000000E+00 -0.18250000000E+03  0.18250000000E+03  0.00000000000E+00 0.  1.
        -11    1    1    2    0    0  0.29997525625E+01 -0.13900987129E+01  0.18169496470E+03  0.18172504255E+03  0.00000000000E+00 0.  1.
         11    1    1    2    0    0 -0.30075693378E+01 -0.36551007785E+01 -0.12004130322E+03  0.12013458999E+03  0.00000000000E+00 0.  1.
        -15    1    1    2    0    0  0.25234966238E+01 -0.50038978755E+00 -0.47814548871E+02  0.47916669729E+02  0.17770000000E+01 0.  1.
         15    1    1    2    0    0 -0.25156798484E+01  0.55455892790E+01 -0.13839112616E+02  0.15223697729E+02  0.17770000000E+01 0.  1.
</event>
<event>
 6    1  0.1226227E-002  0.1891084E+03  0.7546771E-02  0.1063313E+00
        -11   -1    0    0    0    0  0.00000000000E+00  0.00000000000E+00  0.18250000000E+03  0.18250000000E+03  0.00000000000E+00 0. -1.
         11   -1    0    0    0    0 -0.00000000000E+00 -0.00000000000E+00 -0.18250000000E+03  0.18250000000E+03  0.00000000000E+00 0.  1.
        -11    1    1    2    0    0  0.24634148563E+01  0.17353667746E+00  0.16480457453E+03  0.16482307579E+03  0.00000000000E+00 0. -1.
         11    1    1    2    0    0  0.20297490189E+01  0.10038869668E+02 -0.17559311146E+03  0.17589155630E+03  0.00000000000E+00 0.  1.
        -15    1    1    2    0    0  0.90857258263E+00 -0.62510261380E+01 -0.41870378288E+01  0.77839480147E+01  0.17770000000E+01 0. -1.
         15    1    1    2    0    0 -0.54017364578E+01 -0.39613802071E+01  0.14975574766E+02  0.16501419893E+02  0.17770000000E+01 0.  1.
</event>
<event>
 6    1  0.1226227E-002  0.1844129E+03  0.7546771E-02  0.1066942E+00
        -11   -1    0    0    0    0  0.00000000000E+00  0.00000000000E+00  0.18250000000E+03  0.18250000000E+03  0.00000000000E+00 0. -1.
         11   -1    0    0    0    0 -0.00000000000E+00 -0.00000000000E+00 -0.18250000000E+03  0.18250000000E+03  0.00000000000E+00 0. -1.
        -11    1    1    2    0    0 -0.28687615827E+01 -0.48945825921E+01  0.18049793600E+03  0.18058707493E+03  0.00000000000E+00 0. -1.
         11    1    1    2    0    0 -0.17050513075E+01 -0.12550511698E+01 -0.13889070187E+03  0.13890683720E+03  0.00000000000E+00 0. -1.
        -15    1    1    2    0    0 -0.35106316363E+00 -0.96772270429E+00 -0.33348405286E+02  0.33411578782E+02  0.17770000000E+01 0. -1.
         15    1    1    2    0    0  0.49248760539E+01  0.71173564662E+01 -0.82588288447E+01  0.12094509089E+02  0.17770000000E+01 0.  1.
</event>
<event>
 6    1  0.1258150E-002  0.1918893E+03  0.7546771E-02  0.1061217E+00
        -11   -1    0    0    0    0  0.00000000000E+00  0.00000000000E+00  0.18250000000E+03  0.18250000000E+03  0.00000000000E+00 0. -1.
         11   -1    0    0    0    0 -0.00000000000E+00 -0.00000000000E+00 -0.18250000000E+03  0.18250000000E+03  0.00000000000E+00 0.  1.
        -11    1    1    2    0    0  0.13609939818E+01  0.20717186673E+01  0.17309294571E+03  0.17311069342E+03  0.00000000000E+00 0. -1.
         11    1    1    2    0    0 -0.94035450912E+00  0.32776609539E+01 -0.14131340558E+03  0.14135453981E+03  0.00000000000E+00 0.  1.
        -15    1    1    2    0    0  0.33209984643E+00 -0.47599307465E+01 -0.40888844421E+02  0.41204642433E+02  0.17770000000E+01 0. -1.
         15    1    1    2    0    0 -0.75273931915E+00 -0.58944887461E+00  0.91093042905E+01  0.93301243354E+01  0.17770000000E+01 0. -1.
</event>
<event>
 6    1  0.1226227E-002  0.1830512E+03  0.7546771E-02  0.1068017E+00
        -11   -1    0    0    0    0  0.00000000000E+00  0.00000000000E+00  0.18250000000E+03  0.18250000000E+03  0.00000000000E+00 0.  1.
         11   -1    0    0    0    0 -0.00000000000E+00 -0.00000000000E+00 -0.18250000000E+03  0.18250000000E+03  0.00000000000E+00 0. -1.
        -11    1    1    2    0    0  0.33529342348E+00  0.15900733947E+01  0.86871696771E+02  0.86886894609E+02  0.00000000000E+00 0.  1.
         11    1    1    2    0    0  0.97430799440E+00  0.50815141480E+01 -0.18187526172E+03  0.18194884415E+03  0.00000000000E+00 0. -1.
        -15    1    1    2    0    0 -0.77478143062E-01 -0.35684280466E+01  0.68226980407E+01  0.79023173273E+01  0.17770000000E+01 0. -1.
         15    1    1    2    0    0 -0.12321232748E+01 -0.31031594961E+01  0.88180866905E+02  0.88261943916E+02  0.17770000000E+01 0.  1.
</event>
<event>
 6    1  0.1226227E-002  0.1825806E+03  0.7546771E-02  0.1068391E+00
        -11   -1    0    0    0    0  0.00000000000E+00  0.00000000000E+00  0.18250000000E+03  0.18250000000E+03  0.00000000000E+00 0.  1.
         11   -1    0    0    0    0 -0.00000000000E+00 -0.00000000000E+00 -0.18250000000E+03  0.18250000000E+03  0.00000000000E+00 0.  1.
        -11    1    1    2    0    0  0.42241668730E+01 -0.73463193623E+00  0.18236896103E+03  0.18241935538E+03  0.00000000000E+00 0.  1.
         11    1    1    2    0    0 -0.19312525464E+01 -0.20039334506E-01 -0.45867359295E+02  0.45908003514E+02  0.00000000000E+00 0.  1.
        -15    1    1    2    0    0  0.15327343385E+01 -0.43551163789E+00 -0.57557504107E+02  0.57606969656E+02  0.17770000000E+01 0.  1.
         15    1    1    2    0    0 -0.38256486651E+01  0.11901829086E+01 -0.78944097627E+02  0.79065671452E+02  0.17770000000E+01 0.  1.
</event>
<event>
 6    1  0.1226227E-002  0.1844625E+03  0.7546771E-02  0.1066903E+00
        -11   -1    0    0    0    0  0.00000000000E+00  0.00000000000E+00  0.18250000000E+03  0.18250000000E+03  0.00000000000E+00 0. -1.
         11   -1    0    0    0    0 -0.00000000000E+00 -0.00000000000E+00 -0.18250000000E+03  0.18250000000E+03  0.00000000000E+00 0.  1.
        -11    1    1    2    0    0  0.54730303993E+00  0.24968013233E+01  0.17386633054E+03  0.17388511854E+03  0.00000000000E+00 0. -1.
         11    1    1    2    0    0  0.39990605341E+01 -0.30438048872E+01 -0.18046753524E+03  0.18053749890E+03  0.00000000000E+00 0.  1.
        -15    1    1    2    0    0 -0.33000562796E+01 -0.22084771012E+01  0.19905222362E+01  0.47841039211E+01  0.17770000000E+01 0. -1.
         15    1    1    2    0    0 -0.12463072945E+01  0.27554806651E+01  0.46106824655E+01  0.57932786370E+01  0.17770000000E+01 0.  1.
</event>
<event>
 6    1  0.1226227E-002  0.1827928E+03  0.7546771E-02  0.1068222E+00
        -11   -1    0    0    0    0  0.00000000000E+00  0.00000000000E+00  0.18250000000E+03  0.18250000000E+03  0.00000000000E+00 0. -1.
         11   -1    0    0    0    0 -0.00000000000E+00 -0.00000000000E+00 -0.18250000000E+03  0.18250000000E+03  0.00000000000E+00 0.  1.
        -11    1    1    2    0    0 -0.13385055962E+00 -0.27044101002E+01  0.18218708425E+03  0.18220720462E+03  0.00000000000E+00 0. -1.
         11    1    1    2    0    0  0.18217907379E+01  0.14699538143E+01 -0.15591865216E+03  0.15593622343E+03  0.00000000000E+00 0.  1.
        -15    1    1    2    0    0 -0.10077442233E+01  0.16651819916E+01 -0.68360136667E+01  0.73264719570E+01  0.17770000000E+01 0.  1.
         15    1    1    2    0    0 -0.68019595497E+00 -0.43072570576E+00 -0.19432418421E+02  0.19530099997E+02  0.17770000000E+01 0. -1.
</event>
<event>
 6    1  0.1226227E-002  0.1875630E+03  0.7546771E-02  0.1064495E+00
        -11   -1    0    0    0    0  0.00000000000E+00  0.00000000000E+00  0.18250000000E+03  0.18250000000E+03  0.00000000000E+00 0.  1.
         11   -1    0    0    0    0 -0.00000000000E+00 -0.00000000000E+00 -0.18250000000E+03  0.18250000000E+03  0.00000000000E+00 0. -1.
        -11    1    1    2    0    0 -0.79457211801E+01  0.75620829143E+01  0.17057986393E+03  0.17093217825E+03  0.00000000000E+00 0.  1.
         11    1    1    2    0    0  0.23641926341E+01 -0.34452343332E+01 -0.17738780389E+03  0.17743700859E+03  0.00000000000E+00 0. -1.
        -15    1    1    2    0    0  0.90914991540E+01 -0.54106482675E+01  0.63443483336E+01  0.12463504977E+02  0.17770000000E+01 0.  1.
         15    1    1    2    0    0 -0.35099706081E+01  0.12937996863E+01  0.46359162928E+00  0.41673081835E+01  0.17770000000E+01 0. -1.
</event>
<event>
 6    1  0.1226227E-002  0.1690315E+03  0.7546771E-02  0.1079712E+00
        -11   -1    0    0    0    0  0.00000000000E+00  0.00000000000E+00  0.18250000000E+03  0.18250000000E+03  0.00000000000E+00 0.  1.
         11   -1    0    0    0    0 -0.00000000000E+00 -0.00000000000E+00 -0.18250000000E+03  0.18250000000E+03  0.00000000000E+00 0.  1.
        -11    1    1    2    0    0 -0.52888341329E+01  0.94135894991E-01  0.17415837391E+03  0.17423868638E+03  0.00000000000E+00 0.  1.
         11    1    1    2    0    0 -0.60337249661E+01  0.12724058520E+02 -0.33619687668E+02  0.36449840892E+02  0.00000000000E+00 0.  1.
        -15    1    1    2    0    0 -0.32684304903E+01 -0.35932759053E+02 -0.86039143271E+02  0.93315259817E+02  0.17770000000E+01 0. -1.
         15    1    1    2    0    0  0.14590989589E+02  0.23114564638E+02 -0.54499542975E+02  0.60996212908E+02  0.17770000000E+01 0.  1.
</event>
<event>
 6    1  0.1226227E-002  0.1870764E+03  0.7546771E-02  0.1064869E+00
        -11   -1    0    0    0    0  0.00000000000E+00  0.00000000000E+00  0.18250000000E+03  0.18250000000E+03  0.00000000000E+00 0. -1.
         11   -1    0    0    0    0 -0.00000000000E+00 -0.00000000000E+00 -0.18250000000E+03  0.18250000000E+03  0.00000000000E+00 0.  1.
        -11    1    1    2    0    0 -0.15969161366E+01  0.61582643854E+01  0.48365646359E+02  0.48782272488E+02  0.00000000000E+00 0. -1.
         11    1    1    2    0    0 -0.47373859065E+01  0.29550410217E+00 -0.17786023646E+03  0.17792356185E+03  0.00000000000E+00 0.  1.
        -15    1    1    2    0    0 -0.17287452224E+02 -0.12098410627E+02  0.84716095031E+02  0.87322402798E+02  0.17770000000E+01 0. -1.
         15    1    1    2    0    0  0.23621754267E+02  0.56446421390E+01  0.44778495071E+02  0.50971762863E+02  0.17770000000E+01 0.  1.
</event>
<event>
 6    1  0.1226227E-002  0.2217207E+03  0.7546771E-02  0.1040919E+00
        -11   -1    0    0    0    0  0.00000000000E+00  0.00000000000E+00  0.18250000000E+03  0.18250000000E+03  0.00000000000E+00 0. -1.
         11   -1    0    0    0    0 -0.00000000000E+00 -0.00000000000E+00 -0.18250000000E+03  0.18250000000E+03  0.00000000000E+00 0. -1.
        -11    1    1    2    0    0  0.47100613744E+01 -0.10302638095E+01  0.12279962359E+03  0.12289423776E+03  0.00000000000E+00 0. -1.
         11    1    1    2    0    0 -0.16595792390E+01 -0.23404243450E+01 -0.14325056011E+03  0.14327928936E+03  0.00000000000E+00 0. -1.
        -15    1    1    2    0    0  0.18405442415E+02 -0.16744364192E+02 -0.30845462774E+02  0.39670320712E+02  0.17770000000E+01 0.  1.
         15    1    1    2    0    0 -0.21455924550E+02  0.20115052347E+02  0.51296399290E+02  0.59156152160E+02  0.17770000000E+01 0. -1.
</event>
<event>
 6    1  0.1226227E-002  0.1843797E+03  0.7546771E-02  0.1066968E+00
        -11   -1    0    0    0    0  0.00000000000E+00  0.00000000000E+00  0.18250000000E+03  0.18250000000E+03  0.00000000000E+00 0.  1.
         11   -1    0    0    0    0 -0.00000000000E+00 -0.00000000000E+00 -0.18250000000E+03  0.18250000000E+03  0.00000000000E+00 0. -1.
        -11    1    1    2    0    0 -0.38126204553E+01  0.90808717996E+00  0.18057774403E+03  0.18062027111E+03  0.00000000000E+00 0.  1.
         11    1    1    2    0    0  0.38188012867E+01  0.11319484152E+02 -0.14402159197E+03  0.14451620296E+03  0.00000000000E+00 0. -1.
        -15    1    1    2    0    0  0.30333001252E+01 -0.66809219102E+01 -0.28422433031E+02  0.29407959052E+02  0.17770000000E+01 0. -1.
         15    1    1    2    0    0 -0.30394809566E+01 -0.55466494222E+01 -0.81337190322E+01  0.10455566871E+02  0.17770000000E+01 0. -1.
</event>
<event>
 6    1  0.1226227E-002  0.1854997E+03  0.7546771E-02  0.1066092E+00
        -11   -1    0    0    0    0  0.00000000000E+00  0.00000000000E+00  0.18250000000E+03  0.18250000000E+03  0.00000000000E+00 0.  1.
         11   -1    0    0    0    0 -0.00000000000E+00 -0.00000000000E+00 -0.18250000000E+03  0.18250000000E+03  0.00000000000E+00 0.  1.
        -11    1    1    2    0    0 -0.30184951558E+01 -0.17815222397E+01  0.17946606889E+03  0.17950029253E+03  0.00000000000E+00 0.  1.
         11    1    1    2    0    0 -0.21700165047E+01 -0.58398750106E+01 -0.17032909612E+03  0.17044299369E+03  0.00000000000E+00 0.  1.
        -15    1    1    2    0    0  0.29605966774E+00  0.40714029066E+01 -0.66927588173E+00  0.45021808228E+01  0.17770000000E+01 0. -1.
         15    1    1    2    0    0  0.48924519928E+01  0.35499943437E+01 -0.84676968927E+01  0.10554532960E+02  0.17770000000E+01 0.  1.
</event>
<event>
 6    1  0.1226227E-002  0.1878556E+03  0.7546771E-02  0.1064270E+00
        -11   -1    0    0    0    0  0.00000000000E+00  0.00000000000E+00  0.18250000000E+03  0.18250000000E+03  0.00000000000E+00 0.  1.
         11   -1    0    0    0    0 -0.00000000000E+00 -0.00000000000E+00 -0.18250000000E+03  0.18250000000E+03  0.00000000000E+00 0. -1.
        -11    1    1    2    0    0 -0.17500018452E+01 -0.30587433602E+01  0.16642187457E+03  0.16645918044E+03  0.00000000000E+00 0.  1.
         11    1    1    2    0    0 -0.26933909035E+01  0.17653058439E+01 -0.17711511636E+03  0.17714439055E+03  0.00000000000E+00 0. -1.
        -15    1    1    2    0    0  0.32696442703E+01  0.58280384183E+01  0.13846362531E+02  0.15476953505E+02  0.17770000000E+01 0.  1.
         15    1    1    2    0    0  0.11737484785E+01 -0.45346009020E+01 -0.31531207449E+01  0.59194755057E+01  0.17770000000E+01 0.  1.
</event>
<event>
 6    1  0.1226227E-002  0.1831059E+03  0.7546771E-02  0.1067974E+00
        -11   -1    0    0    0    0  0.00000000000E+00  0.00000000000E+00  0.18250000000E+03  0.18250000000E+03  0.00000000000E+00 0. -1.
         11   -1    0    0    0    0 -0.00000000000E+00 -0.00000000000E+00 -0.18250000000E+03  0.18250000000E+03  0.00000000000E+00 0.  1.
        -11    1    1    2    0    0 -0.37084226554E+01  0.19399449839E+01  0.18184591999E+03  0.18189407467E+03  0.00000000000E+00 0. -1.
         11    1    1    2    0    0  0.76707472651E+00  0.14967822715E+01 -0.10109999622E+03  0.10111398517E+03  0.00000000000E+00 0.  1.
        -15    1    1    2    0    0  0.33324336747E+00  0.23915734804E+01 -0.42036491951E+01  0.51632422382E+01  0.17770000000E+01 0.  1.
         15    1    1    2    0    0  0.26081045614E+01 -0.58283007358E+01 -0.76542274566E+02  0.76828697917E+02  0.17770000000E+01 0.  1.
</event>
<event>
 6    1  0.1226227E-002  0.1750336E+03  0.7546771E-02  0.1074558E+00
        -11   -1    0    0    0    0  0.00000000000E+00  0.00000000000E+00  0.18250000000E+03  0.18250000000E+03  0.00000000000E+00 0.  1.
         11   -1    0    0    0    0 -0.00000000000E+00 -0.00000000000E+00 -0.18250000000E+03  0.18250000000E+03  0.00000000000E+00 0.  1.
        -11    1    1    2    0    0 -0.11049990730E+01  0.34498933776E+01  0.17386484943E+03  0.17390258381E+03  0.00000000000E+00 0.  1.
         11    1    1    2    0    0 -0.74033062304E+01  0.38044878276E+01 -0.17615397185E+03  0.17635051707E+03  0.00000000000E+00 0.  1.
        -15    1    1    2    0    0  0.45925620822E+00  0.15115354716E+01  0.12045787894E+01  0.26654070621E+01  0.17770000000E+01 0. -1.
         15    1    1    2    0    0  0.80490490952E+01 -0.87659166768E+01  0.10845436338E+01  0.12081492061E+02  0.17770000000E+01 0.  1.
</event>
<event>
 6    1  0.1226227E-002  0.1826743E+03  0.7546771E-02  0.1068316E+00
        -11   -1    0    0    0    0  0.00000000000E+00  0.00000000000E+00  0.18250000000E+03  0.18250000000E+03  0.00000000000E+00 0. -1.
         11   -1    0    0    0    0 -0.00000000000E+00 -0.00000000000E+00 -0.18250000000E+03  0.18250000000E+03  0.00000000000E+00 0. -1.
        -11    1    1    2    0    0  0.55945744358E+01  0.37994953152E+00  0.18223948099E+03  0.18232573065E+03  0.00000000000E+00 0. -1.
         11    1    1    2    0    0 -0.13191306427E+01  0.11046396530E+01 -0.10466517015E+03  0.10467931112E+03  0.00000000000E+00 0. -1.
        -15    1    1    2    0    0 -0.62041544510E+00 -0.23039996013E+01 -0.15537314979E+02  0.15819583283E+02  0.17770000000E+01 0. -1.
         15    1    1    2    0    0 -0.36550283480E+01  0.81941041671E+00 -0.62036995860E+02  0.62175374948E+02  0.17770000000E+01 0.  1.
</event>
<event>
 6    1  0.1226227E-002  0.1827512E+03  0.7546771E-02  0.1068255E+00
        -11   -1    0    0    0    0  0.00000000000E+00  0.00000000000E+00  0.18250000000E+03  0.18250000000E+03  0.00000000000E+00 0.  1.
         11   -1    0    0    0    0 -0.00000000000E+00 -0.00000000000E+00 -0.18250000000E+03  0.18250000000E+03  0.00000000000E+00 0.  1.
        -11    1    1    2    0    0  0.21289628853E+01  0.15467339624E+01  0.18222980503E+03  0.18224880441E+03  0.00000000000E+00 0.  1.
         11    1    1    2    0    0 -0.20055032581E+01  0.16134906810E+01 -0.14392061353E+03  0.14394362923E+03  0.00000000000E+00 0.  1.
        -15    1    1    2    0    0  0.12651764371E+01 -0.31115505673E+01 -0.19793157648E+02  0.20154633140E+02  0.17770000000E+01 0. -1.
         15    1    1    2    0    0 -0.13886360643E+01 -0.48674076148E-01 -0.18516033847E+02  0.18652933220E+02  0.17770000000E+01 0.  1.
</event>
<event>
 6    1  0.1226227E-002  0.1865213E+03  0.7546771E-02  0.1065298E+00
        -11   -1    0    0    0    0  0.00000000000E+00  0.00000000000E+00  0.18250000000E+03  0.18250000000E+03  0.00000000000E+00 0.  1.
         11   -1    0    0    0    0 -0.00000000000E+00 -0.00000000000E+00 -0.18250000000E+03  0.18250000000E+03  0.00000000000E+00 0. -1.
        -11    1    1    2    0    0 -0.17283718326E+01 -0.46534751588E+01  0.16168212387E+03  0.16175831131E+03  0.00000000000E+00 0.  1.
         11    1    1    2    0    0 -0.34864555607E+01  0.72639520415E-01 -0.17844467405E+03  0.17847874480E+03  0.00000000000E+00 0. -1.
        -15    1    1    2    0    0 -0.25327103096E+00  0.22784522520E+01 -0.29279190132E+01  0.41213989891E+01  0.17770000000E+01 0. -1.
         15    1    1    2    0    0  0.54680984243E+01  0.23023833864E+01  0.19690469195E+02  0.20641544897E+02  0.17770000000E+01 0.  1.
</event>
<event>
 6    1  0.1226227E-002  0.1846182E+03  0.7546771E-02  0.1066781E+00
        -11   -1    0    0    0    0  0.00000000000E+00  0.00000000000E+00  0.18250000000E+03  0.18250000000E+03  0.00000000000E+00 0.  1.
         11   -1    0    0    0    0 -0.00000000000E+00 -0.00000000000E+00 -0.18250000000E+03  0.18250000000E+03  0.00000000000E+00 0. -1.
        -11    1    1    2    0    0  0.25108371998E+01  0.60593809107E+00  0.17305458199E+03  0.17307385652E+03  0.00000000000E+00 0.  1.
         11    1    1    2    0    0 -0.45574641976E+01  0.52684845086E+01 -0.18024724754E+03  0.18038181077E+03  0.00000000000E+00 0. -1.
        -15    1    1    2    0    0  0.46850654882E+00 -0.15049305922E+01 -0.45786299256E+00  0.24190250089E+01  0.17770000000E+01 0. -1.
         15    1    1    2    0    0  0.15781204490E+01 -0.43694920075E+01  0.76505285499E+01  0.91253077015E+01  0.17770000000E+01 0.  1.
</event>
<event>
 6    1  0.1226227E-002  0.1859715E+03  0.7546771E-02  0.1065725E+00
        -11   -1    0    0    0    0  0.00000000000E+00  0.00000000000E+00  0.18250000000E+03  0.18250000000E+03  0.00000000000E+00 0.  1.
         11   -1    0    0    0    0 -0.00000000000E+00 -0.00000000000E+00 -0.18250000000E+03  0.18250000000E+03  0.00000000000E+00 0. -1.
        -11    1    1    2    0    0 -0.73158062118E+01 -0.22978524860E+01  0.17594798582E+03  0.17611500464E+03  0.00000000000E+00 0.  1.
         11    1    1    2    0    0  0.59231700611E+01 -0.12917253465E+01 -0.17892582473E+03  0.17902849844E+03  0.00000000000E+00 0. -1.
        -15    1    1    2    0    0 -0.17915965908E+01  0.15108699011E+01  0.45133331756E+01  0.53870633518E+01  0.17770000000E+01 0.  1.
         15    1    1    2    0    0  0.31842327415E+01  0.20787079314E+01 -0.15354942645E+01  0.44694335718E+01  0.17770000000E+01 0. -1.
</event>
<event>
 6    1  0.1226227E-002  0.2150625E+03  0.7546771E-02  0.1045136E+00
        -11   -1    0    0    0    0  0.00000000000E+00  0.00000000000E+00  0.18250000000E+03  0.18250000000E+03  0.00000000000E+00 0.  1.
         11   -1    0    0    0    0 -0.00000000000E+00 -0.00000000000E+00 -0.18250000000E+03  0.18250000000E+03  0.00000000000E+00 0.  1.
        -11    1    1    2    0    0 -0.25280577800E+01  0.53256839870E+00  0.12952803857E+03  0.12955380149E+03  0.00000000000E+00 0.  1.
         11    1    1    2    0    0 -0.93190525166E+01  0.50183467596E+00 -0.14964679939E+03  0.14993752414E+03  0.00000000000E+00 0.  1.
        -15    1    1    2    0    0  0.12217961710E+02 -0.48298751645E+00  0.52062508231E+02  0.53508638159E+02  0.17770000000E+01 0.  1.
         15    1    1    2    0    0 -0.37085141333E+00 -0.55141555821E+00 -0.31943747407E+02  0.32000036208E+02  0.17770000000E+01 0. -1.
</event>
<event>
 6    1  0.1226227E-002  0.1841392E+03  0.7546771E-02  0.1067157E+00
        -11   -1    0    0    0    0  0.00000000000E+00  0.00000000000E+00  0.18250000000E+03  0.18250000000E+03  0.00000000000E+00 0.  1.
         11   -1    0    0    0    0 -0.00000000000E+00 -0.00000000000E+00 -0.18250000000E+03  0.18250000000E+03  0.00000000000E+00 0.  1.
        -11    1    1    2    0    0 -0.72404561087E+01 -0.23033549033E+01  0.18070116516E+03  0.18086083252E+03  0.00000000000E+00 0.  1.
         11    1    1    2    0    0 -0.92288593666E+00  0.28888781638E+01 -0.14570262864E+03  0.14573418724E+03  0.00000000000E+00 0.  1.
        -15    1    1    2    0    0 -0.13303237840E+00 -0.24662138348E+01 -0.83741789846E+00  0.31557734439E+01  0.17770000000E+01 0. -1.
         15    1    1    2    0    0  0.82963744238E+01  0.18806905743E+01 -0.34161118621E+02  0.35249206800E+02  0.17770000000E+01 0.  1.
</event>
<event>
 6    1  0.1226227E-002  0.1838500E+03  0.7546771E-02  0.1067385E+00
        -11   -1    0    0    0    0  0.00000000000E+00  0.00000000000E+00  0.18250000000E+03  0.18250000000E+03  0.00000000000E+00 0.  1.
         11   -1    0    0    0    0 -0.00000000000E+00 -0.00000000000E+00 -0.18250000000E+03  0.18250000000E+03  0.00000000000E+00 0. -1.
        -11    1    1    2    0    0 -0.21363510611E+01 -0.26693218015E+01  0.16914278074E+03  0.16917733167E+03  0.00000000000E+00 0.  1.
         11    1    1    2    0    0 -0.27665226885E+01  0.42392321113E+00 -0.18112837307E+03  0.18114999556E+03  0.00000000000E+00 0. -1.
        -15    1    1    2    0    0  0.54501934352E+01  0.27447734405E+00  0.85405461397E+01  0.10289732925E+02  0.17770000000E+01 0. -1.
         15    1    1    2    0    0 -0.54731968555E+00  0.19709212463E+01  0.34450461952E+01  0.43829398449E+01  0.17770000000E+01 0.  1.
</event>
<event>
 6    1  0.1226227E-002  0.1830269E+03  0.7546771E-02  0.1068036E+00
        -11   -1    0    0    0    0  0.00000000000E+00  0.00000000000E+00  0.18250000000E+03  0.18250000000E+03  0.00000000000E+00 0. -1.
         11   -1    0    0    0    0 -0.00000000000E+00 -0.00000000000E+00 -0.18250000000E+03  0.18250000000E+03  0.00000000000E+00 0. -1.
        -11    1    1    2    0    0  0.20720755007E+01  0.46711812892E+01  0.18190130692E+03  0.18197307188E+03  0.00000000000E+00 0. -1.
         11    1    1    2    0    0 -0.23465880128E+01  0.88608375795E+00 -0.15370638051E+03  0.15372684551E+03  0.00000000000E+00 0. -1.
        -15    1    1    2    0    0  0.84357431497E+00 -0.45303182701E+01 -0.12166324455E+02  0.13130597130E+02  0.17770000000E+01 0. -1.
         15    1    1    2    0    0 -0.56906180287E+00 -0.10269467770E+01 -0.16028601957E+02  0.16169485481E+02  0.17770000000E+01 0.  1.
</event>
<event>
 6    1  0.1226227E-002  0.1869936E+03  0.7546771E-02  0.1064933E+00
        -11   -1    0    0    0    0  0.00000000000E+00  0.00000000000E+00  0.18250000000E+03  0.18250000000E+03  0.00000000000E+00 0.  1.
         11   -1    0    0    0    0 -0.00000000000E+00 -0.00000000000E+00 -0.18250000000E+03  0.18250000000E+03  0.00000000000E+00 0.  1.
        -11    1    1    2    0    0 -0.54102149711E+01  0.89695347976E+00  0.12651195675E+03  0.12663076306E+03  0.00000000000E+00 0.  1.
         11    1    1    2    0    0  0.81506495229E+00  0.41048891950E+01 -0.17795716635E+03  0.17800636927E+03  0.00000000000E+00 0.  1.
        -15    1    1    2    0    0 -0.38318385761E+01 -0.45621959717E+01 -0.17613985150E+01  0.64619557942E+01  0.17770000000E+01 0.  1.
         15    1    1    2    0    0  0.84269885948E+01 -0.43964670311E+00  0.53206608110E+02  0.53900911880E+02  0.17770000000E+01 0. -1.
</event>
<event>
 6    1  0.1226227E-002  0.1858888E+03  0.7546771E-02  0.1065789E+00
        -11   -1    0    0    0    0  0.00000000000E+00  0.00000000000E+00  0.18250000000E+03  0.18250000000E+03  0.00000000000E+00 0.  1.
         11   -1    0    0    0    0 -0.00000000000E+00 -0.00000000000E+00 -0.18250000000E+03  0.18250000000E+03  0.00000000000E+00 0. -1.
        -11    1    1    2    0    0  0.19823584694E+01 -0.19338852630E+01  0.17572095763E+03  0.17574277968E+03  0.00000000000E+00 0.  1.
         11    1    1    2    0    0 -0.19272320029E+01 -0.17340253640E+01 -0.17909239719E+03  0.17911116045E+03  0.00000000000E+00 0. -1.
        -15    1    1    2    0    0  0.55434443544E+00  0.50592333059E+01  0.49553178306E+01  0.73222976721E+01  0.17770000000E+01 0. -1.
         15    1    1    2    0    0 -0.60947090192E+00 -0.13913226788E+01 -0.15838782752E+01  0.28237622010E+01  0.17770000000E+01 0.  1.
</event>
<event>
 6    1  0.1226227E-002  0.1837555E+03  0.7546771E-02  0.1067460E+00
        -11   -1    0    0    0    0  0.00000000000E+00  0.00000000000E+00  0.18250000000E+03  0.18250000000E+03  0.00000000000E+00 0.  1.
         11   -1    0    0    0    0 -0.00000000000E+00 -0.00000000000E+00 -0.18250000000E+03  0.18250000000E+03  0.00000000000E+00 0.  1.
        -11    1    1    2    0    0  0.44724836706E+01  0.32690393754E+01  0.18115976681E+03  0.18124445051E+03  0.00000000000E+00 0.  1.
         11    1    1    2    0    0 -0.42038445083E+01  0.77731271266E-01 -0.14715665701E+03  0.14721671119E+03  0.00000000000E+00 0.  1.
        -15    1    1    2    0    0  0.43993953758E+00 -0.22448687551E+01 -0.34199917254E+02  0.34322369553E+02  0.17770000000E+01 0. -1.
         15    1    1    2    0    0 -0.70857869988E+00 -0.11019018915E+01  0.19680745336E+00  0.22164687514E+01  0.17770000000E+01 0.  1.
</event>
<event>
 6    1  0.1226227E-002  0.1846614E+03  0.7546771E-02  0.1066747E+00
        -11   -1    0    0    0    0  0.00000000000E+00  0.00000000000E+00  0.18250000000E+03  0.18250000000E+03  0.00000000000E+00 0. -1.
         11   -1    0    0    0    0 -0.00000000000E+00 -0.00000000000E+00 -0.18250000000E+03  0.18250000000E+03  0.00000000000E+00 0. -1.
        -11    1    1    2    0    0 -0.46870230449E+01 -0.42442246133E+00  0.16918351808E+03  0.16924896192E+03  0.00000000000E+00 0. -1.
         11    1    1    2    0    0  0.26875182698E+01  0.22716502964E+01 -0.18030426405E+03  0.18033860037E+03  0.00000000000E+00 0. -1.
        -15    1    1    2    0    0 -0.31211768332E+01 -0.19757229290E+01  0.14921024420E+01  0.43622614105E+01  0.17770000000E+01 0.  1.
         15    1    1    2    0    0  0.51206816084E+01  0.12849509389E+00  0.96286435230E+01  0.11050176298E+02  0.17770000000E+01 0.  1.
</event>
<event>
 6    1  0.1226227E-002  0.1731432E+03  0.7546771E-02  0.1076157E+00
        -11   -1    0    0    0    0  0.00000000000E+00  0.00000000000E+00  0.18250000000E+03  0.18250000000E+03  0.00000000000E+00 0. -1.
         11   -1    0    0    0    0 -0.00000000000E+00 -0.00000000000E+00 -0.18250000000E+03  0.18250000000E+03  0.00000000000E+00 0.  1.
        -11    1    1    2    0    0  0.15485675016E+01  0.27168510247E+01  0.17519405545E+03  0.17522196325E+03  0.00000000000E+00 0. -1.
         11    1    1    2    0    0  0.62293452313E+01 -0.11991614587E+01 -0.17106220660E+03  0.17117979220E+03  0.00000000000E+00 0.  1.
        -15    1    1    2    0    0 -0.84336389049E+01 -0.56291597696E+01  0.24766651654E+01  0.10587979233E+02  0.17770000000E+01 0.  1.
         15    1    1    2    0    0  0.65572617199E+00  0.41114702036E+01 -0.66085140146E+01  0.80102653220E+01  0.17770000000E+01 0. -1.
</event>
<event>
 6    1  0.1226227E-002  0.1829343E+03  0.7546771E-02  0.1068110E+00
        -11   -1    0    0    0    0  0.00000000000E+00  0.00000000000E+00  0.18250000000E+03  0.18250000000E+03  0.00000000000E+00 0.  1.
         11   -1    0    0    0    0 -0.00000000000E+00 -0.00000000000E+00 -0.18250000000E+03  0.18250000000E+03  0.00000000000E+00 0. -1.
        -11    1    1    2    0    0  0.16162832782E+01  0.27991003114E+01  0.18203703611E+03  0.18206572948E+03  0.00000000000E+00 0.  1.
         11    1    1    2    0    0  0.18032818657E+01  0.39125825061E+01 -0.12445407129E+03  0.12452861514E+03  0.00000000000E+00 0. -1.
        -15    1    1    2    0    0 -0.33264342516E+01 -0.59449354029E+01 -0.52427758926E+02  0.52898346446E+02  0.17770000000E+01 0. -1.
         15    1    1    2    0    0 -0.93130892292E-01 -0.76674741457E+00 -0.51552058947E+01  0.55073089415E+01  0.17770000000E+01 0.  1.
</event>
<event>
 6    1  0.1226227E-002  0.1862202E+03  0.7546771E-02  0.1065531E+00
        -11   -1    0    0    0    0  0.00000000000E+00  0.00000000000E+00  0.18250000000E+03  0.18250000000E+03  0.00000000000E+00 0. -1.
         11   -1    0    0    0    0 -0.00000000000E+00 -0.00000000000E+00 -0.18250000000E+03  0.18250000000E+03  0.00000000000E+00 0.  1.
        -11    1    1    2    0    0  0.75493508459E+01 -0.29469606289E+01  0.17859600576E+03  0.17877978227E+03  0.00000000000E+00 0. -1.
         11    1    1    2    0    0  0.22003235898E+01  0.20444788924E+01 -0.15059482260E+03  0.15062477190E+03  0.00000000000E+00 0.  1.
        -15    1    1    2    0    0 -0.34537388393E+01  0.72318543999E+01 -0.25972801364E+01  0.86099723077E+01  0.17770000000E+01 0. -1.
         15    1    1    2    0    0 -0.62959355964E+01 -0.63293726634E+01 -0.25403903022E+02  0.26985473520E+02  0.17770000000E+01 0.  1.
</event>
<event>
 6    1  0.1226227E-002  0.1829218E+03  0.7546771E-02  0.1068120E+00
        -11   -1    0    0    0    0  0.00000000000E+00  0.00000000000E+00  0.18250000000E+03  0.18250000000E+03  0.00000000000E+00 0. -1.
         11   -1    0    0    0    0 -0.00000000000E+00 -0.00000000000E+00 -0.18250000000E+03  0.18250000000E+03  0.00000000000E+00 0.  1.
        -11    1    1    2    0    0 -0.25094353212E+01  0.12318758298E+01  0.14882187183E+03  0.14884812501E+03  0.00000000000E+00 0. -1.
         11    1    1    2    0    0 -0.18658134233E+01  0.24548459588E+01 -0.18205207651E+03  0.18207818675E+03  0.00000000000E+00 0.  1.
        -15    1    1    2    0    0  0.19145748169E+00 -0.19646199359E+01  0.10645329996E+02  0.10971652892E+02  0.17770000000E+01 0. -1.
         15    1    1    2    0    0  0.41837912628E+01 -0.17221018528E+01  0.22584874676E+02  0.23102035349E+02  0.17770000000E+01 0.  1.
</event>
<event>
 6    1  0.1226227E-002  0.1841215E+03  0.7546771E-02  0.1067171E+00
        -11   -1    0    0    0    0  0.00000000000E+00  0.00000000000E+00  0.18250000000E+03  0.18250000000E+03  0.00000000000E+00 0. -1.
         11   -1    0    0    0    0 -0.00000000000E+00 -0.00000000000E+00 -0.18250000000E+03  0.18250000000E+03  0.00000000000E+00 0.  1.
        -11    1    1    2    0    0  0.99441971302E+00 -0.14418623788E+01  0.98268238240E+02  0.98283846509E+02  0.00000000000E+00 0. -1.
         11    1    1    2    0    0  0.63542867791E+01 -0.68514926822E+01 -0.18063700638E+03  0.18087854485E+03  0.00000000000E+00 0.  1.
        -15    1    1    2    0    0 -0.26585128344E+01  0.18742027398E+01  0.74229626832E+02  0.74322106771E+02  0.17770000000E+01 0. -1.
         15    1    1    2    0    0 -0.46901936577E+01  0.64191523213E+01  0.81391413097E+01  0.11515501871E+02  0.17770000000E+01 0.  1.
</event>
<event>
 6    1  0.1226227E-002  0.1830511E+03  0.7546771E-02  0.1068017E+00
        -11   -1    0    0    0    0  0.00000000000E+00  0.00000000000E+00  0.18250000000E+03  0.18250000000E+03  0.00000000000E+00 0. -1.
         11   -1    0    0    0    0 -0.00000000000E+00 -0.00000000000E+00 -0.18250000000E+03  0.18250000000E+03  0.00000000000E+00 0. -1.
        -11    1    1    2    0    0 -0.36956132510E+01  0.28115080763E+01  0.18188968412E+03  0.18194894703E+03  0.00000000000E+00 0. -1.
         11    1    1    2    0    0  0.44095179070E+01  0.11855705758E+01 -0.14573340731E+03  0.14580492252E+03  0.00000000000E+00 0. -1.
        -15    1    1    2    0    0  0.17884250012E+01 -0.44498153269E+01 -0.28982339909E+02  0.29430138906E+02  0.17770000000E+01 0.  1.
         15    1    1    2    0    0 -0.25023296572E+01  0.45273667478E+00 -0.71739368991E+01  0.78159915457E+01  0.17770000000E+01 0. -1.
</event>
<event>
 6    1  0.1226227E-002  0.1859161E+03  0.7546771E-02  0.1065768E+00
        -11   -1    0    0    0    0  0.00000000000E+00  0.00000000000E+00  0.18250000000E+03  0.18250000000E+03  0.00000000000E+00 0.  1.
         11   -1    0    0    0    0 -0.00000000000E+00 -0.00000000000E+00 -0.18250000000E+03  0.18250000000E+03  0.00000000000E+00 0. -1.
        -11    1    1    2    0    0 -0.12362559929E+01 -0.13722880866E+01  0.70654342977E+02  0.70678481060E+02  0.00000000000E+00 0.  1.
         11    1    1    2    0    0 -0.32273071149E+02 -0.78535889550E+01 -0.17597677650E+03  0.17908393520E+03  0.00000000000E+00 0. -1.
        -15    1    1    2    0    0  0.27803069271E+02  0.29780797842E+01  0.37213143981E+02  0.46581707075E+02  0.17770000000E+01 0.  1.
         15    1    1    2    0    0  0.57062578709E+01  0.62477972573E+01  0.68109289541E+02  0.68655876663E+02  0.17770000000E+01 0. -1.
</event>
<event>
 6    1  0.1226227E-002  0.1830826E+03  0.7546771E-02  0.1067992E+00
        -11   -1    0    0    0    0  0.00000000000E+00  0.00000000000E+00  0.18250000000E+03  0.18250000000E+03  0.00000000000E+00 0. -1.
         11   -1    0    0    0    0 -0.00000000000E+00 -0.00000000000E+00 -0.18250000000E+03  0.18250000000E+03  0.00000000000E+00 0.  1.
        -11    1    1    2    0    0 -0.24855549308E+01 -0.10757198858E+01  0.18189728159E+03  0.18191744339E+03  0.00000000000E+00 0. -1.
         11    1    1    2    0    0  0.21013520686E+01  0.12426826255E+01 -0.55792269642E+02  0.55845655985E+02  0.00000000000E+00 0.  1.
        -15    1    1    2    0    0  0.84501150042E+01 -0.36736321844E+00 -0.68209640185E+02  0.68755015399E+02  0.17770000000E+01 0.  1.
         15    1    1    2    0    0 -0.80659121420E+01  0.20040047878E+00 -0.57895371767E+02  0.58481885231E+02  0.17770000000E+01 0. -1.
</event>
<event>
 6    1  0.1226227E-002  0.1832667E+03  0.7546771E-02  0.1067846E+00
        -11   -1    0    0    0    0  0.00000000000E+00  0.00000000000E+00  0.18250000000E+03  0.18250000000E+03  0.00000000000E+00 0.  1.
         11   -1    0    0    0    0 -0.00000000000E+00 -0.00000000000E+00 -0.18250000000E+03  0.18250000000E+03  0.00000000000E+00 0. -1.
        -11    1    1    2    0    0  0.17599282045E+01 -0.28448437375E+01  0.18170247033E+03  0.18173326115E+03  0.00000000000E+00 0.  1.
         11    1    1    2    0    0 -0.44841537334E+00  0.31600268548E+01 -0.13589981520E+03  0.13593728928E+03  0.00000000000E+00 0. -1.
        -15    1    1    2    0    0  0.13025508749E+01 -0.24469211193E+01 -0.41293415516E+02  0.41424484978E+02  0.17770000000E+01 0.  1.
         15    1    1    2    0    0 -0.26140637060E+01  0.21317380020E+01 -0.45092396146E+01  0.59049645952E+01  0.17770000000E+01 0. -1.
</event>
<event>
 6    1  0.1226227E-002  0.1833570E+03  0.7546771E-02  0.1067775E+00
        -11   -1    0    0    0    0  0.00000000000E+00  0.00000000000E+00  0.18250000000E+03  0.18250000000E+03  0.00000000000E+00 0.  1.
         11   -1    0    0    0    0 -0.00000000000E+00 -0.00000000000E+00 -0.18250000000E+03  0.18250000000E+03  0.00000000000E+00 0.  1.
        -11    1    1    2    0    0 -0.20984762836E+01 -0.19932066381E+01  0.15522311995E+03  0.15525009965E+03  0.00000000000E+00 0.  1.
         11    1    1    2    0    0  0.46339645901E+00 -0.28249592103E+01 -0.18162046481E+03  0.18164302455E+03  0.00000000000E+00 0.  1.
        -15    1    1    2    0    0  0.14888434039E+01  0.21913567777E+01  0.26468971266E+01  0.41451770297E+01  0.17770000000E+01 0.  1.
         15    1    1    2    0    0  0.14623642072E+00  0.26268090707E+01  0.23750447740E+02  0.23961698767E+02  0.17770000000E+01 0. -1.
</event>
<event>
 6    1  0.1226227E-002  0.1833857E+03  0.7546771E-02  0.1067752E+00
        -11   -1    0    0    0    0  0.00000000000E+00  0.00000000000E+00  0.18250000000E+03  0.18250000000E+03  0.00000000000E+00 0. -1.
         11   -1    0    0    0    0 -0.00000000000E+00 -0.00000000000E+00 -0.18250000000E+03  0.18250000000E+03  0.00000000000E+00 0.  1.
        -11    1    1    2    0    0 -0.36173906319E+01 -0.14252017155E+01  0.18157266842E+03  0.18161429082E+03  0.00000000000E+00 0. -1.
         11    1    1    2    0    0 -0.26112790974E+01 -0.14571030022E+01 -0.15957097406E+03  0.15959899026E+03  0.00000000000E+00 0.  1.
        -15    1    1    2    0    0  0.23574585385E+01  0.32825886353E+01 -0.78952560754E+01  0.90457612396E+01  0.17770000000E+01 0.  1.
         15    1    1    2    0    0  0.38712111908E+01 -0.40028391759E+00 -0.14106438281E+02  0.14740957678E+02  0.17770000000E+01 0. -1.
</event>
<event>
 6    1  0.1226227E-002  0.1832780E+03  0.7546771E-02  0.1067837E+00
        -11   -1    0    0    0    0  0.00000000000E+00  0.00000000000E+00  0.18250000000E+03  0.18250000000E+03  0.00000000000E+00 0.  1.
         11   -1    0    0    0    0 -0.00000000000E+00 -0.00000000000E+00 -0.18250000000E+03  0.18250000000E+03  0.00000000000E+00 0.  1.
        -11    1    1    2    0    0  0.24133017240E+01 -0.54829809723E+00  0.14496330322E+03  0.14498442653E+03  0.00000000000E+00 0.  1.
         11    1    1    2    0    0  0.40874590191E+01  0.15756992337E+01 -0.18166916169E+03  0.18172197022E+03  0.00000000000E+00 0.  1.
        -15    1    1    2    0    0 -0.60871591935E+01  0.10170617487E+01  0.13762996871E+02  0.15187683613E+02  0.17770000000E+01 0.  1.
         15    1    1    2    0    0 -0.41360154959E+00 -0.20444628852E+01  0.22942861603E+02  0.23105919637E+02  0.17770000000E+01 0.  1.
</event>
<event>
 6    1  0.1226227E-002  0.1168512E+03  0.7546771E-02  0.1137498E+00
        -11   -1    0    0    0    0  0.00000000000E+00  0.00000000000E+00  0.18250000000E+03  0.18250000000E+03  0.00000000000E+00 0.  1.
         11   -1    0    0    0    0 -0.00000000000E+00 -0.00000000000E+00 -0.18250000000E+03  0.18250000000E+03  0.00000000000E+00 0.  1.
        -11    1    1    2    0    0  0.10335999630E+02 -0.28306126229E+02  0.50851469647E+02  0.59109573130E+02  0.00000000000E+00 0.  1.
         11    1    1    2    0    0  0.10319156862E+02  0.21114688161E+02 -0.14892710332E+03  0.15077001412E+03  0.00000000000E+00 0.  1.
        -15    1    1    2    0    0  0.28862466601E+02 -0.25775786915E+02  0.86099911291E+02  0.94412846704E+02  0.17770000000E+01 0.  1.
         15    1    1    2    0    0 -0.49517623093E+02  0.32967224982E+02  0.11975722381E+02  0.60707566047E+02  0.17770000000E+01 0. -1.
</event>
<event>
 6    1  0.1226227E-002  0.1694744E+03  0.7546771E-02  0.1079323E+00
        -11   -1    0    0    0    0  0.00000000000E+00  0.00000000000E+00  0.18250000000E+03  0.18250000000E+03  0.00000000000E+00 0. -1.
         11   -1    0    0    0    0 -0.00000000000E+00 -0.00000000000E+00 -0.18250000000E+03  0.18250000000E+03  0.00000000000E+00 0. -1.
        -11    1    1    2    0    0 -0.18991302712E+01  0.27446308982E+01  0.17112957712E+03  0.17116212157E+03  0.00000000000E+00 0. -1.
         11    1    1    2    0    0  0.88290139985E+01  0.97909517143E+01 -0.16758991086E+03  0.16810768110E+03  0.00000000000E+00 0. -1.
        -15    1    1    2    0    0 -0.13120480475E+02 -0.12976589083E+02 -0.48051508612E+01  0.19151659874E+02  0.17770000000E+01 0.  1.
         15    1    1    2    0    0  0.61905967475E+01  0.44100647067E+00  0.12654845943E+01  0.65785374557E+01  0.17770000000E+01 0. -1.
</event>
<event>
 6    1  0.1226227E-002  0.1828368E+03  0.7546771E-02  0.1068187E+00
        -11   -1    0    0    0    0  0.00000000000E+00  0.00000000000E+00  0.18250000000E+03  0.18250000000E+03  0.00000000000E+00 0. -1.
         11   -1    0    0    0    0 -0.00000000000E+00 -0.00000000000E+00 -0.18250000000E+03  0.18250000000E+03  0.00000000000E+00 0.  1.
        -11    1    1    2    0    0  0.22714684983E+01  0.22016798977E+01  0.13287448755E+02  0.13658816125E+02  0.00000000000E+00 0. -1.
         11    1    1    2    0    0 -0.20059297685E+01  0.11410353735E+02 -0.18179438820E+03  0.18216316726E+03  0.00000000000E+00 0.  1.
        -15    1    1    2    0    0 -0.42288189581E+00 -0.12459020703E+02  0.15432572083E+03  0.15483859941E+03  0.17770000000E+01 0. -1.
         15    1    1    2    0    0  0.15734316601E+00 -0.11530129297E+01  0.14181218607E+02  0.14339417209E+02  0.17770000000E+01 0.  1.
</event>
<event>
 6    1  0.1226227E-002  0.1949093E+03  0.7546771E-02  0.1058985E+00
        -11   -1    0    0    0    0  0.00000000000E+00  0.00000000000E+00  0.18250000000E+03  0.18250000000E+03  0.00000000000E+00 0. -1.
         11   -1    0    0    0    0 -0.00000000000E+00 -0.00000000000E+00 -0.18250000000E+03  0.18250000000E+03  0.00000000000E+00 0.  1.
        -11    1    1    2    0    0  0.20006657247E+01  0.25966477386E+00  0.14515001597E+03  0.14516403558E+03  0.00000000000E+00 0. -1.
         11    1    1    2    0    0 -0.46172743399E+01  0.23039331855E+01 -0.17001238577E+03  0.17009067772E+03  0.00000000000E+00 0.  1.
        -15    1    1    2    0    0 -0.43031092508E+01 -0.73614986885E+01  0.35218828511E+02  0.36279912112E+02  0.17770000000E+01 0. -1.
         15    1    1    2    0    0  0.69197178660E+01  0.47979007291E+01 -0.10356458715E+02  0.13465374590E+02  0.17770000000E+01 0.  1.
</event>
<event>
 6    1  0.1226227E-002  0.1831269E+03  0.7546771E-02  0.1067957E+00
        -11   -1    0    0    0    0  0.00000000000E+00  0.00000000000E+00  0.18250000000E+03  0.18250000000E+03  0.00000000000E+00 0.  1.
         11   -1    0    0    0    0 -0.00000000000E+00 -0.00000000000E+00 -0.18250000000E+03  0.18250000000E+03  0.00000000000E+00 0.  1.
        -11    1    1    2    0    0 -0.22976076442E+01 -0.64890589377E-01  0.16721320840E+03  0.16722900548E+03  0.00000000000E+00 0.  1.
         11    1    1    2    0    0  0.22916249063E+01 -0.16175149697E+01 -0.18185146556E+03  0.18187309704E+03  0.00000000000E+00 0.  1.
        -15    1    1    2    0    0 -0.88385696529E+00  0.23402472305E+01  0.12628425518E+02  0.12995877050E+02  0.17770000000E+01 0.  1.
         15    1    1    2    0    0  0.88983970311E+00 -0.65784167140E+00  0.20098316420E+01  0.29020204326E+01  0.17770000000E+01 0.  1.
</event>
<event>
 6    1  0.1226227E-002  0.1825816E+03  0.7546771E-02  0.1068390E+00
        -11   -1    0    0    0    0  0.00000000000E+00  0.00000000000E+00  0.18250000000E+03  0.18250000000E+03  0.00000000000E+00 0.  1.
         11   -1    0    0    0    0 -0.00000000000E+00 -0.00000000000E+00 -0.18250000000E+03  0.18250000000E+03  0.00000000000E+00 0. -1.
        -11    1    1    2    0    0  0.14645191051E+01  0.20275989394E+01  0.18240120345E+03  0.18241835158E+03  0.00000000000E+00 0.  1.
         11    1    1    2    0    0  0.28880823852E+00 -0.52894266631E+00 -0.38858648992E+02  0.38863321937E+02  0.00000000000E+00 0. -1.
        -15    1    1    2    0    0  0.20801282678E+00  0.19539443338E+01 -0.42830686344E+02  0.42912545829E+02  0.17770000000E+01 0. -1.
         15    1    1    2    0    0 -0.19613401704E+01 -0.34526006069E+01 -0.10071186811E+03  0.10080578066E+03  0.17770000000E+01 0. -1.
</event>
<event>
 6    1  0.1226227E-002  0.1841062E+03  0.7546771E-02  0.1067183E+00
        -11   -1    0    0    0    0  0.00000000000E+00  0.00000000000E+00  0.18250000000E+03  0.18250000000E+03  0.00000000000E+00 0.  1.
         11   -1    0    0    0    0 -0.00000000000E+00 -0.00000000000E+00 -0.18250000000E+03  0.18250000000E+03  0.00000000000E+00 0. -1.
        -11    1    1    2    0    0 -0.44597472037E+01 -0.35114253365E+01  0.18080472109E+03  0.18089379929E+03  0.00000000000E+00 0.  1.
         11    1    1    2    0    0 -0.15050085339E+01  0.28118008139E+01 -0.17467219184E+03  0.17470130474E+03  0.00000000000E+00 0. -1.
        -15    1    1    2    0    0  0.31515082361E+01 -0.36009960217E+00 -0.30033137586E+01  0.47158560642E+01  0.17770000000E+01 0.  1.
         15    1    1    2    0    0  0.28132475016E+01  0.10597241248E+01 -0.31292154890E+01  0.46890399126E+01  0.17770000000E+01 0. -1.
</event>
<event>
 6    1  0.1226227E-002  0.1850371E+03  0.7546771E-02  0.1066453E+00
        -11   -1    0    0    0    0  0.00000000000E+00  0.00000000000E+00  0.18250000000E+03  0.18250000000E+03  0.00000000000E+00 0.  1.
         11   -1    0    0    0    0 -0.00000000000E+00 -0.00000000000E+00 -0.18250000000E+03  0.18250000000E+03  0.00000000000E+00 0. -1.
        -11    1    1    2    0    0 -0.16003989350E+01 -0.35066875231E+01  0.17004903666E+03  0.17009271884E+03  0.00000000000E+00 0.  1.
         11    1    1    2    0    0  0.11925937621E+01 -0.22815941799E+01 -0.17994453215E+03  0.17996294786E+03  0.00000000000E+00 0. -1.
        -15    1    1    2    0    0 -0.18388517994E+01 -0.50843060963E-01 -0.57196631269E+00  0.26208463175E+01  0.17770000000E+01 0. -1.
         15    1    1    2    0    0  0.22466569723E+01  0.58391247640E+01  0.10467461809E+02  0.12323486978E+02  0.17770000000E+01 0.  1.
</event>
<event>
 6    1  0.1226227E-002  0.1843442E+03  0.7546771E-02  0.1066996E+00
        -11   -1    0    0    0    0  0.00000000000E+00  0.00000000000E+00  0.18250000000E+03  0.18250000000E+03  0.00000000000E+00 0.  1.
         11   -1    0    0    0    0 -0.00000000000E+00 -0.00000000000E+00 -0.18250000000E+03  0.18250000000E+03  0.00000000000E+00 0. -1.
        -11    1    1    2    0    0  0.71433751834E+01  0.14378384239E+02  0.17994095895E+03  0.18065578997E+03  0.00000000000E+00 0.  1.
         11    1    1    2    0    0  0.17744625701E+01  0.42538307443E+01 -0.38804837954E+02  0.39077605378E+02  0.00000000000E+00 0. -1.
        -15    1    1    2    0    0  0.64925781280E+01 -0.16490049432E+02 -0.91550848584E+02  0.93267308884E+02  0.17770000000E+01 0. -1.
         15    1    1    2    0    0 -0.15410415882E+02 -0.21421655511E+01 -0.49585272413E+02  0.51999295766E+02  0.17770000000E+01 0.  1.
</event>
<event>
 6    1  0.1226227E-002  0.1830247E+03  0.7546771E-02  0.1068038E+00
        -11   -1    0    0    0    0  0.00000000000E+00  0.00000000000E+00  0.18250000000E+03  0.18250000000E+03  0.00000000000E+00 0. -1.
         11   -1    0    0    0    0 -0.00000000000E+00 -0.00000000000E+00 -0.18250000000E+03  0.18250000000E+03  0.00000000000E+00 0. -1.
        -11    1    1    2    0    0 -0.19649204039E+02 -0.35575882772E+01  0.18087638297E+03  0.18197531033E+03  0.00000000000E+00 0. -1.
         11    1    1    2    0    0  0.40330297594E+00  0.46480453894E+00 -0.27428473636E+02  0.27435376115E+02  0.00000000000E+00 0. -1.
        -15    1    1    2    0    0 -0.14047983761E+01  0.20045199117E+01 -0.49337645463E+02  0.49430279662E+02  0.17770000000E+01 0. -1.
         15    1    1    2    0    0  0.20650699439E+02  0.10882638266E+01 -0.10411026387E+03  0.10615903389E+03  0.17770000000E+01 0.  1.
</event>
<event>
 6    1  0.1226227E-002  0.1735365E+03  0.7546771E-02  0.1075822E+00
        -11   -1    0    0    0    0  0.00000000000E+00  0.00000000000E+00  0.18250000000E+03  0.18250000000E+03  0.00000000000E+00 0. -1.
         11   -1    0    0    0    0 -0.00000000000E+00 -0.00000000000E+00 -0.18250000000E+03  0.18250000000E+03  0.00000000000E+00 0. -1.
        -11    1    1    2    0    0 -0.75967671407E+01  0.37114950084E+01  0.17113426143E+03  0.17134299373E+03  0.00000000000E+00 0. -1.
         11    1    1    2    0    0 -0.45494600435E+01 -0.14380746570E+01 -0.17591818401E+03  0.17598287732E+03  0.00000000000E+00 0. -1.
        -15    1    1    2    0    0  0.83339350215E+01 -0.30837294239E+01  0.81798507710E+01  0.12207847793E+02  0.17770000000E+01 0. -1.
         15    1    1    2    0    0  0.38122921627E+01  0.81030907257E+00 -0.33959281955E+01  0.54662811523E+01  0.17770000000E+01 0. -1.
</event>
<event>
 6    1  0.1226227E-002  0.1834093E+03  0.7546771E-02  0.1067733E+00
        -11   -1    0    0    0    0  0.00000000000E+00  0.00000000000E+00  0.18250000000E+03  0.18250000000E+03  0.00000000000E+00 0.  1.
         11   -1    0    0    0    0 -0.00000000000E+00 -0.00000000000E+00 -0.18250000000E+03  0.18250000000E+03  0.00000000000E+00 0. -1.
        -11    1    1    2    0    0 -0.11836248390E+01 -0.25111869304E+01  0.18156952031E+03  0.18159074242E+03  0.00000000000E+00 0.  1.
         11    1    1    2    0    0  0.26983863223E+01 -0.94832785547E+00 -0.16381965394E+03  0.16384462039E+03  0.00000000000E+00 0. -1.
        -15    1    1    2    0    0 -0.21728020789E+01 -0.11951946706E+01 -0.49640777054E+01  0.58266075584E+01  0.17770000000E+01 0.  1.
         15    1    1    2    0    0  0.65804059552E+00  0.46547094564E+01 -0.12785788664E+02  0.13738029637E+02  0.17770000000E+01 0.  1.
</event>
<event>
 6    1  0.1226227E-002  0.1853993E+03  0.7546771E-02  0.1066170E+00
        -11   -1    0    0    0    0  0.00000000000E+00  0.00000000000E+00  0.18250000000E+03  0.18250000000E+03  0.00000000000E+00 0.  1.
         11   -1    0    0    0    0 -0.00000000000E+00 -0.00000000000E+00 -0.18250000000E+03  0.18250000000E+03  0.00000000000E+00 0.  1.
        -11    1    1    2    0    0  0.44380059919E-02 -0.25802523031E+01  0.17958220567E+03  0.17960074141E+03  0.00000000000E+00 0.  1.
         11    1    1    2    0    0  0.26887080531E+01 -0.58866589615E+01 -0.17269880139E+03  0.17282001593E+03  0.00000000000E+00 0.  1.
        -15    1    1    2    0    0  0.78053669831E+00  0.26224458948E+01 -0.34835650001E+01  0.47727784485E+01  0.17770000000E+01 0. -1.
         15    1    1    2    0    0 -0.34736827574E+01  0.58444653699E+01 -0.33998392798E+01  0.78064642116E+01  0.17770000000E+01 0.  1.
</event>
<event>
 6    1  0.1226227E-002  0.1887651E+03  0.7546771E-02  0.1063574E+00
        -11   -1    0    0    0    0  0.00000000000E+00  0.00000000000E+00  0.18250000000E+03  0.18250000000E+03  0.00000000000E+00 0. -1.
         11   -1    0    0    0    0 -0.00000000000E+00 -0.00000000000E+00 -0.18250000000E+03  0.18250000000E+03  0.00000000000E+00 0.  1.
        -11    1    1    2    0    0 -0.51204947807E+01 -0.48203220820E+01  0.13574278528E+03  0.13592482748E+03  0.00000000000E+00 0. -1.
         11    1    1    2    0    0  0.14108903121E+01 -0.34732083200E+01 -0.17619504384E+03  0.17623492066E+03  0.00000000000E+00 0.  1.
        -15    1    1    2    0    0  0.25653012349E+01 -0.53291546636E+00 -0.53124680772E+01  0.61842392735E+01  0.17770000000E+01 0.  1.
         15    1    1    2    0    0  0.11443032337E+01  0.88264458684E+01  0.45764726640E+02  0.46656012581E+02  0.17770000000E+01 0. -1.
</event>
<event>
 6    1  0.1226227E-002  0.1856987E+03  0.7546771E-02  0.1065937E+00
        -11   -1    0    0    0    0  0.00000000000E+00  0.00000000000E+00  0.18250000000E+03  0.18250000000E+03  0.00000000000E+00 0.  1.
         11   -1    0    0    0    0 -0.00000000000E+00 -0.00000000000E+00 -0.18250000000E+03  0.18250000000E+03  0.00000000000E+00 0.  1.
        -11    1    1    2    0    0  0.71257740528E+01  0.50024049820E+01  0.17908982973E+03  0.17930133247E+03  0.00000000000E+00 0.  1.
         11    1    1    2    0    0  0.32994228193E+01  0.28830055322E+01 -0.16209736095E+03  0.16215656736E+03  0.00000000000E+00 0.  1.
        -15    1    1    2    0    0 -0.90972015930E+01 -0.61241817218E+01 -0.69420775361E+01  0.13100185041E+02  0.17770000000E+01 0. -1.
         15    1    1    2    0    0 -0.13279952792E+01 -0.17612287924E+01 -0.10050391246E+02  0.10441915127E+02  0.17770000000E+01 0.  1.
</event>
<event>
 6    1  0.1226227E-002  0.1890153E+03  0.7546771E-02  0.1063384E+00
        -11   -1    0    0    0    0  0.00000000000E+00  0.00000000000E+00  0.18250000000E+03  0.18250000000E+03  0.00000000000E+00 0. -1.
         11   -1    0    0    0    0 -0.00000000000E+00 -0.00000000000E+00 -0.18250000000E+03  0.18250000000E+03  0.00000000000E+00 0.  1.
        -11    1    1    2    0    0  0.31230646865E+01 -0.48343422999E+01  0.17589057973E+03  0.17598471649E+03  0.00000000000E+00 0. -1.
         11    1    1    2    0    0  0.10600087597E+02  0.41091460582E+01 -0.16075376111E+03  0.16115526255E+03  0.00000000000E+00 0.  1.
        -15    1    1    2    0    0 -0.84969788227E+01  0.17319116990E+01 -0.19058807920E+02  0.21014139421E+02  0.17770000000E+01 0. -1.
         15    1    1    2    0    0 -0.52261734607E+01 -0.10067154572E+01  0.39219892950E+01  0.68458815417E+01  0.17770000000E+01 0.  1.
</event>
<event>
 6    1  0.1226227E-002  0.1838517E+03  0.7546771E-02  0.1067384E+00
        -11   -1    0    0    0    0  0.00000000000E+00  0.00000000000E+00  0.18250000000E+03  0.18250000000E+03  0.00000000000E+00 0.  1.
         11   -1    0    0    0    0 -0.00000000000E+00 -0.00000000000E+00 -0.18250000000E+03  0.18250000000E+03  0.00000000000E+00 0.  1.
        -11    1    1    2    0    0 -0.28273158081E+01 -0.18384879889E+01  0.16159561234E+03  0.16163080053E+03  0.00000000000E+00 0.  1.
         11    1    1    2    0    0  0.22012183680E+01 -0.45023622664E+01 -0.18107891931E+03  0.18114825875E+03  0.00000000000E+00 0.  1.
        -15    1    1    2    0    0  0.33857817592E+01  0.48906003539E+01  0.16232036046E+02  0.17378671213E+02  0.17770000000E+01 0.  1.
         15    1    1    2    0    0 -0.27596843190E+01  0.14502499013E+01  0.32512709265E+01  0.48422695045E+01  0.17770000000E+01 0. -1.
</event>
<event>
 6    1  0.1226227E-002  0.1843351E+03  0.7546771E-02  0.1067003E+00
        -11   -1    0    0    0    0  0.00000000000E+00  0.00000000000E+00  0.18250000000E+03  0.18250000000E+03  0.00000000000E+00 0.  1.
         11   -1    0    0    0    0 -0.00000000000E+00 -0.00000000000E+00 -0.18250000000E+03  0.18250000000E+03  0.00000000000E+00 0.  1.
        -11    1    1    2    0    0 -0.11666912111E+02 -0.36435299000E+01  0.18025096741E+03  0.18066489255E+03  0.00000000000E+00 0.  1.
         11    1    1    2    0    0 -0.28399915193E+00  0.71456068028E+01 -0.10999818554E+03  0.11023040040E+03  0.00000000000E+00 0.  1.
        -15    1    1    2    0    0  0.32779610386E+01  0.73901537652E+01 -0.15389887226E+02  0.17474717711E+02  0.17770000000E+01 0. -1.
         15    1    1    2    0    0  0.86729502239E+01 -0.10892230668E+02 -0.54862894644E+02  0.56629989337E+02  0.17770000000E+01 0.  1.
</event>
<event>
 6    1  0.1226227E-002  0.1906463E+03  0.7546771E-02  0.1062149E+00
        -11   -1    0    0    0    0  0.00000000000E+00  0.00000000000E+00  0.18250000000E+03  0.18250000000E+03  0.00000000000E+00 0.  1.
         11   -1    0    0    0    0 -0.00000000000E+00 -0.00000000000E+00 -0.18250000000E+03  0.18250000000E+03  0.00000000000E+00 0. -1.
        -11    1    1    2    0    0  0.55650007623E-01 -0.20169478210E+01  0.12735692738E+03  0.12737290971E+03  0.00000000000E+00 0.  1.
         11    1    1    2    0    0 -0.51527195848E+01  0.73102708142E+01 -0.17412417627E+03  0.17435371903E+03  0.00000000000E+00 0. -1.
        -15    1    1    2    0    0 -0.10620801481E+01  0.38014949353E+01  0.51136468976E+02  0.51319348849E+02  0.17770000000E+01 0. -1.
         15    1    1    2    0    0  0.61591497252E+01 -0.90948179286E+01 -0.43692200897E+01  0.11954022406E+02  0.17770000000E+01 0. -1.
</event>
<event>
 6    1  0.1226227E-002  0.1826466E+03  0.7546771E-02  0.1068338E+00
        -11   -1    0    0    0    0  0.00000000000E+00  0.00000000000E+00  0.18250000000E+03  0.18250000000E+03  0.00000000000E+00 0. -1.
         11   -1    0    0    0    0 -0.00000000000E+00 -0.00000000000E+00 -0.18250000000E+03  0.18250000000E+03  0.00000000000E+00 0. -1.
        -11    1    1    2    0    0  0.11778769566E+01 -0.20139874208E+01  0.77640659894E+02  0.77675707968E+02  0.00000000000E+00 0. -1.
         11    1    1    2    0    0  0.32252069413E+01  0.13994553287E+00 -0.18232483089E+03  0.18235340826E+03  0.00000000000E+00 0. -1.
        -15    1    1    2    0    0 -0.49718323438E+01  0.27811856283E+00  0.68867485433E+02  0.69070143663E+02  0.17770000000E+01 0. -1.
         15    1    1    2    0    0  0.56874844594E+00  0.15959233251E+01  0.35816685568E+02  0.35900740106E+02  0.17770000000E+01 0. -1.
</event>
<event>
 6    1  0.1226227E-002  0.1827249E+03  0.7546771E-02  0.1068276E+00
        -11   -1    0    0    0    0  0.00000000000E+00  0.00000000000E+00  0.18250000000E+03  0.18250000000E+03  0.00000000000E+00 0. -1.
         11   -1    0    0    0    0 -0.00000000000E+00 -0.00000000000E+00 -0.18250000000E+03  0.18250000000E+03  0.00000000000E+00 0. -1.
        -11    1    1    2    0    0  0.12481215816E+01  0.85960221296E+01  0.18206797765E+03  0.18227506107E+03  0.00000000000E+00 0. -1.
         11    1    1    2    0    0 -0.26469065001E+01 -0.11171180265E+01 -0.65483256937E+02  0.65546250890E+02  0.00000000000E+00 0. -1.
        -15    1    1    2    0    0  0.23088344051E+01 -0.62091622844E+01 -0.41991483309E+02  0.42547935462E+02  0.17770000000E+01 0. -1.
         15    1    1    2    0    0 -0.91004948655E+00 -0.12697418187E+01 -0.74593237404E+02  0.74630752574E+02  0.17770000000E+01 0.  1.
</event>
<event>
 6    1  0.1226227E-002  0.1886964E+03  0.7546771E-02  0.1063627E+00
        -11   -1    0    0    0    0  0.00000000000E+00  0.00000000000E+00  0.18250000000E+03  0.18250000000E+03  0.00000000000E+00 0.  1.
         11   -1    0    0    0    0 -0.00000000000E+00 -0.00000000000E+00 -0.18250000000E+03  0.18250000000E+03  0.00000000000E+00 0.  1.
        -11    1    1    2    0    0  0.23568829603E+01  0.12605593403E+01  0.17628331734E+03  0.17630357875E+03  0.00000000000E+00 0.  1.
         11    1    1    2    0    0 -0.34232807374E+01 -0.54067305821E+01 -0.15713308029E+03  0.15726333492E+03  0.00000000000E+00 0.  1.
        -15    1    1    2    0    0  0.57851373730E+01 -0.76685720134E+00 -0.22730577931E+02  0.23534926948E+02  0.17770000000E+01 0.  1.
         15    1    1    2    0    0 -0.47187395960E+01  0.49130284431E+01  0.35803408815E+01  0.78981593859E+01  0.17770000000E+01 0. -1.
</event>
<event>
 6    1  0.1226227E-002  0.1834637E+03  0.7546771E-02  0.1067690E+00
        -11   -1    0    0    0    0  0.00000000000E+00  0.00000000000E+00  0.18250000000E+03  0.18250000000E+03  0.00000000000E+00 0.  1.
         11   -1    0    0    0    0 -0.00000000000E+00 -0.00000000000E+00 -0.18250000000E+03  0.18250000000E+03  0.00000000000E+00 0.  1.
        -11    1    1    2    0    0 -0.19959342163E+00 -0.69506949666E+01  0.14145013869E+03  0.14162095089E+03  0.00000000000E+00 0.  1.
         11    1    1    2    0    0 -0.46938481397E+01  0.24206252722E+01 -0.18145947964E+03  0.18153631700E+03  0.00000000000E+00 0.  1.
        -15    1    1    2    0    0 -0.88175191681E+00  0.32825378166E+01  0.28741581573E+02  0.28996358069E+02  0.17770000000E+01 0.  1.
         15    1    1    2    0    0  0.57751934782E+01  0.12475318777E+01  0.11267759381E+02  0.12846374040E+02  0.17770000000E+01 0. -1.
</event>
<event>
 6    1  0.1226227E-002  0.1828654E+03  0.7546771E-02  0.1068164E+00
        -11   -1    0    0    0    0  0.00000000000E+00  0.00000000000E+00  0.18250000000E+03  0.18250000000E+03  0.00000000000E+00 0. -1.
         11   -1    0    0    0    0 -0.00000000000E+00 -0.00000000000E+00 -0.18250000000E+03  0.18250000000E+03  0.00000000000E+00 0. -1.
        -11    1    1    2    0    0  0.12601869673E+01  0.12597303100E+01  0.59821710689E+02  0.59848241924E+02  0.00000000000E+00 0. -1.
         11    1    1    2    0    0  0.57538189622E+01  0.18397799305E+01 -0.18203439079E+03  0.18213459488E+03  0.00000000000E+00 0. -1.
        -15    1    1    2    0    0 -0.56538170168E+01 -0.20764610309E+00  0.23496491263E+02  0.24233274530E+02  0.17770000000E+01 0. -1.
         15    1    1    2    0    0 -0.13601889128E+01 -0.28918641374E+01  0.98716188837E+02  0.98783888664E+02  0.17770000000E+01 0. -1.
</event>
<event>
 6    1  0.1226227E-002  0.1832645E+03  0.7546771E-02  0.1067848E+00
        -11   -1    0    0    0    0  0.00000000000E+00  0.00000000000E+00  0.18250000000E+03  0.18250000000E+03  0.00000000000E+00 0. -1.
         11   -1    0    0    0    0 -0.00000000000E+00 -0.00000000000E+00 -0.18250000000E+03  0.18250000000E+03  0.00000000000E+00 0. -1.
        -11    1    1    2    0    0  0.13324085246E+01 -0.33452790851E+01  0.16335067660E+03  0.16339036003E+03  0.00000000000E+00 0. -1.
         11    1    1    2    0    0 -0.73293126891E+01  0.21489749246E+01 -0.18157488112E+03  0.18173545161E+03  0.00000000000E+00 0. -1.
        -15    1    1    2    0    0  0.34035398271E+01  0.28769688293E+00  0.53553995145E+01  0.65958233611E+01  0.17770000000E+01 0.  1.
         15    1    1    2    0    0  0.25933643374E+01  0.90860727765E+00  0.12868805004E+02  0.13278364997E+02  0.17770000000E+01 0. -1.
</event>
<event>
 6    1  0.1226227E-002  0.1838405E+03  0.7546771E-02  0.1067393E+00
        -11   -1    0    0    0    0  0.00000000000E+00  0.00000000000E+00  0.18250000000E+03  0.18250000000E+03  0.00000000000E+00 0. -1.
         11   -1    0    0    0    0 -0.00000000000E+00 -0.00000000000E+00 -0.18250000000E+03  0.18250000000E+03  0.00000000000E+00 0.  1.
        -11    1    1    2    0    0 -0.54584533574E+00 -0.32502488068E+01  0.15679424849E+03  0.15682888263E+03  0.00000000000E+00 0. -1.
         11    1    1    2    0    0  0.45699206715E+01 -0.24568565470E+00 -0.18110166060E+03  0.18115947673E+03  0.00000000000E+00 0.  1.
        -15    1    1    2    0    0 -0.34496703627E+00  0.40346658048E+00 -0.29795522078E+00  0.18783753223E+01  0.17770000000E+01 0. -1.
         15    1    1    2    0    0 -0.36791082995E+01  0.30924678810E+01  0.24605367328E+02  0.25133265323E+02  0.17770000000E+01 0.  1.
</event>
<event>
 6    1  0.1226227E-002  0.1829746E+03  0.7546771E-02  0.1068078E+00
        -11   -1    0    0    0    0  0.00000000000E+00  0.00000000000E+00  0.18250000000E+03  0.18250000000E+03  0.00000000000E+00 0. -1.
         11   -1    0    0    0    0 -0.00000000000E+00 -0.00000000000E+00 -0.18250000000E+03  0.18250000000E+03  0.00000000000E+00 0. -1.
        -11    1    1    2    0    0  0.41851975419E+01  0.21208463271E+01  0.18196488995E+03  0.18202536923E+03  0.00000000000E+00 0. -1.
         11    1    1    2    0    0  0.22416684859E+00  0.47816205487E+00 -0.67781107012E+01  0.67986523962E+01  0.00000000000E+00 0. -1.
        -15    1    1    2    0    0 -0.86315073886E+01 -0.24677373390E+01 -0.16115852485E+03  0.16141815420E+03  0.17770000000E+01 0. -1.
         15    1    1    2    0    0  0.42221429982E+01 -0.13127104289E+00 -0.14028254405E+02  0.14757824170E+02  0.17770000000E+01 0.  1.
</event>
<event>
 6    1  0.1226227E-002  0.1877159E+03  0.7546771E-02  0.1064377E+00
        -11   -1    0    0    0    0  0.00000000000E+00  0.00000000000E+00  0.18250000000E+03  0.18250000000E+03  0.00000000000E+00 0.  1.
         11   -1    0    0    0    0 -0.00000000000E+00 -0.00000000000E+00 -0.18250000000E+03  0.18250000000E+03  0.00000000000E+00 0. -1.
        -11    1    1    2    0    0  0.60063334359E+01  0.56729467952E+01  0.17709151878E+03  0.17728413463E+03  0.00000000000E+00 0.  1.
         11    1    1    2    0    0  0.25288746578E+01  0.40886624821E+01 -0.13979888847E+03  0.13988152697E+03  0.00000000000E+00 0. -1.
        -15    1    1    2    0    0  0.57702759628E+00  0.19965882529E+01  0.34629738216E+01  0.44123964223E+01  0.17770000000E+01 0. -1.
         15    1    1    2    0    0 -0.91122356900E+01 -0.11758197530E+02 -0.40755604131E+02  0.43421941982E+02  0.17770000000E+01 0.  1.
</event>
<event>
 6    1  0.1226227E-002  0.1826008E+03  0.7546771E-02  0.1068375E+00
        -11   -1    0    0    0    0  0.00000000000E+00  0.00000000000E+00  0.18250000000E+03  0.18250000000E+03  0.00000000000E+00 0.  1.
         11   -1    0    0    0    0 -0.00000000000E+00 -0.00000000000E+00 -0.18250000000E+03  0.18250000000E+03  0.00000000000E+00 0.  1.
        -11    1    1    2    0    0  0.70356145927E+00 -0.39562980002E+00  0.59265994581E+02  0.59271490915E+02  0.00000000000E+00 0.  1.
         11    1    1    2    0    0  0.22885824331E+01  0.18334317010E+01 -0.18237564077E+03  0.18239921444E+03  0.00000000000E+00 0.  1.
        -15    1    1    2    0    0 -0.38318396547E+01 -0.12267829288E+01  0.10817753723E+03  0.10826691684E+03  0.17770000000E+01 0.  1.
         15    1    1    2    0    0  0.83969576238E+00 -0.21101897213E+00  0.14932108964E+02  0.15062377804E+02  0.17770000000E+01 0. -1.
</event>
<event>
 6    1  0.1226227E-002  0.1293020E+03  0.7546771E-02  0.1121030E+00
        -11   -1    0    0    0    0  0.00000000000E+00  0.00000000000E+00  0.18250000000E+03  0.18250000000E+03  0.00000000000E+00 0.  1.
         11   -1    0    0    0    0 -0.00000000000E+00 -0.00000000000E+00 -0.18250000000E+03  0.18250000000E+03  0.00000000000E+00 0. -1.
        -11    1    1    2    0    0 -0.79395968438E+01 -0.40629384773E+01  0.12118661149E+03  0.12151435912E+03  0.00000000000E+00 0.  1.
         11    1    1    2    0    0  0.44497904095E+00 -0.95195271889E+00 -0.43039999437E+02  0.43052825365E+02  0.00000000000E+00 0. -1.
        -15    1    1    2    0    0  0.14532803508E+02  0.93021212669E+01  0.59781534289E+02  0.62247260252E+02  0.17770000000E+01 0.  1.
         15    1    1    2    0    0 -0.70381857049E+01 -0.42872300706E+01 -0.13792814635E+03  0.13818555526E+03  0.17770000000E+01 0. -1.
</event>
<event>
 6    1  0.1226227E-002  0.1859875E+03  0.7546771E-02  0.1065712E+00
        -11   -1    0    0    0    0  0.00000000000E+00  0.00000000000E+00  0.18250000000E+03  0.18250000000E+03  0.00000000000E+00 0. -1.
         11   -1    0    0    0    0 -0.00000000000E+00 -0.00000000000E+00 -0.18250000000E+03  0.18250000000E+03  0.00000000000E+00 0.  1.
        -11    1    1    2    0    0  0.79501107748E+01 -0.31439451728E+01  0.16736061348E+03  0.16757882801E+03  0.00000000000E+00 0. -1.
         11    1    1    2    0    0 -0.27789169526E+01 -0.30447219582E+01 -0.17896504595E+03  0.17901251460E+03  0.00000000000E+00 0.  1.
        -15    1    1    2    0    0 -0.44193615072E+01  0.49405458973E+01  0.13684593386E+02  0.15309003072E+02  0.17770000000E+01 0.  1.
         15    1    1    2    0    0 -0.75183231495E+00  0.12481212337E+01 -0.20801609161E+01  0.30996543163E+01  0.17770000000E+01 0. -1.
</event>
<event>
 6    1  0.1226227E-002  0.1850081E+03  0.7546771E-02  0.1066476E+00
        -11   -1    0    0    0    0  0.00000000000E+00  0.00000000000E+00  0.18250000000E+03  0.18250000000E+03  0.00000000000E+00 0. -1.
         11   -1    0    0    0    0 -0.00000000000E+00 -0.00000000000E+00 -0.18250000000E+03  0.18250000000E+03  0.00000000000E+00 0. -1.
        -11    1    1    2    0    0 -0.29674831436E+01  0.66034879254E-01  0.17457815828E+03  0.17460338961E+03  0.00000000000E+00 0. -1.
         11    1    1    2    0    0  0.92597065420E+00  0.42580763763E+01 -0.17993913951E+03  0.17999189582E+03  0.00000000000E+00 0. -1.
        -15    1    1    2    0    0  0.23437924907E+01 -0.29295343820E+01 -0.43764716037E+00  0.41743022137E+01  0.17770000000E+01 0.  1.
         15    1    1    2    0    0 -0.30228000137E+00 -0.13945768736E+01  0.57986283903E+01  0.62304123511E+01  0.17770000000E+01 0. -1.
</event>
<event>
 6    1  0.1226227E-002  0.1849804E+03  0.7546771E-02  0.1066497E+00
        -11   -1    0    0    0    0  0.00000000000E+00  0.00000000000E+00  0.18250000000E+03  0.18250000000E+03  0.00000000000E+00 0.  1.
         11   -1    0    0    0    0 -0.00000000000E+00 -0.00000000000E+00 -0.18250000000E+03  0.18250000000E+03  0.00000000000E+00 0.  1.
        -11    1    1    2    0    0  0.17420560941E+01 -0.54579676245E+01  0.16084675754E+03  0.16094876073E+03  0.00000000000E+00 0.  1.
         11    1    1    2    0    0  0.33754078231E+01 -0.22030646154E+01 -0.17997443596E+03  0.18001956691E+03  0.00000000000E+00 0.  1.
        -15    1    1    2    0    0  0.25643218353E+01  0.55811000425E+01  0.83846253110E+01  0.10544386884E+02  0.17770000000E+01 0.  1.
         15    1    1    2    0    0 -0.76817857525E+01  0.20799321974E+01  0.10743053112E+02  0.13487285474E+02  0.17770000000E+01 0. -1.
</event>
<event>
 6    1  0.1226227E-002  0.1856241E+03  0.7546771E-02  0.1065995E+00
        -11   -1    0    0    0    0  0.00000000000E+00  0.00000000000E+00  0.18250000000E+03  0.18250000000E+03  0.00000000000E+00 0. -1.
         11   -1    0    0    0    0 -0.00000000000E+00 -0.00000000000E+00 -0.18250000000E+03  0.18250000000E+03  0.00000000000E+00 0. -1.
        -11    1    1    2    0    0  0.40228457498E+01  0.18740105341E+01  0.17932095137E+03  0.17937585904E+03  0.00000000000E+00 0. -1.
         11    1    1    2    0    0  0.27585044286E+01 -0.55970935911E+01 -0.17231072833E+03  0.17242367558E+03  0.00000000000E+00 0. -1.
        -15    1    1    2    0    0 -0.75156302068E+01  0.17324908564E+01 -0.33083052740E+01  0.85783934836E+01  0.17770000000E+01 0. -1.
         15    1    1    2    0    0  0.73428002845E+00  0.19905922007E+01 -0.37019177693E+01  0.46220718991E+01  0.17770000000E+01 0. -1.
</event>
<event>
 6    1  0.1226227E-002  0.1845214E+03  0.7546771E-02  0.1066857E+00
        -11   -1    0    0    0    0  0.00000000000E+00  0.00000000000E+00  0.18250000000E+03  0.18250000000E+03  0.00000000000E+00 0.  1.
         11   -1    0    0    0    0 -0.00000000000E+00 -0.00000000000E+00 -0.18250000000E+03  0.18250000000E+03  0.00000000000E+00 0. -1.
        -11    1    1    2    0    0  0.17756615694E+01  0.49364917012E+01  0.18040237101E+03  0.18047863417E+03  0.00000000000E+00 0.  1.
         11    1    1    2    0    0  0.24209730479E+01  0.18582429582E+01 -0.17207085274E+03  0.17209791556E+03  0.00000000000E+00 0. -1.
        -15    1    1    2    0    0 -0.39971070335E+01 -0.43782288606E+01 -0.52128044620E+01  0.80917743390E+01  0.17770000000E+01 0. -1.
         15    1    1    2    0    0 -0.19952758383E+00 -0.24165057987E+01 -0.31187138156E+01  0.43316759338E+01  0.17770000000E+01 0.  1.
</event>
<event>
 6    1  0.1226227E-002  0.1547742E+03  0.7546771E-02  0.1092953E+00
        -11   -1    0    0    0    0  0.00000000000E+00  0.00000000000E+00  0.18250000000E+03  0.18250000000E+03  0.00000000000E+00 0.  1.
         11   -1    0    0    0    0 -0.00000000000E+00 -0.00000000000E+00 -0.18250000000E+03  0.18250000000E+03  0.00000000000E+00 0.  1.
        -11    1    1    2    0    0  0.40869348934E+00  0.56360663086E+01  0.32140656612E+02  0.32633634203E+02  0.00000000000E+00 0.  1.
         11    1    1    2    0    0  0.36006550913E+01 -0.97600449089E+01 -0.16280935700E+03  0.16314138016E+03  0.00000000000E+00 0.  1.
        -15    1    1    2    0    0 -0.13388592620E+02 -0.72108041707E+01  0.14664032480E+03  0.14743741959E+03  0.17770000000E+01 0.  1.
         15    1    1    2    0    0  0.93792440391E+01  0.11334782771E+02 -0.15971624413E+02  0.21787566055E+02  0.17770000000E+01 0. -1.
</event>
<event>
 6    1  0.1226227E-002  0.1825600E+03  0.7546771E-02  0.1068407E+00
        -11   -1    0    0    0    0  0.00000000000E+00  0.00000000000E+00  0.18250000000E+03  0.18250000000E+03  0.00000000000E+00 0.  1.
         11   -1    0    0    0    0 -0.00000000000E+00 -0.00000000000E+00 -0.18250000000E+03  0.18250000000E+03  0.00000000000E+00 0.  1.
        -11    1    1    2    0    0  0.11200264544E+01  0.21384236521E+00  0.56661926242E+02  0.56673398285E+02  0.00000000000E+00 0.  1.
         11    1    1    2    0    0 -0.21691874923E+01 -0.49729504487E+01 -0.18235926011E+03  0.18243995001E+03  0.00000000000E+00 0.  1.
        -15    1    1    2    0    0 -0.11798038487E+01  0.17813445903E+01  0.50996815797E+02  0.51072478656E+02  0.17770000000E+01 0.  1.
         15    1    1    2    0    0  0.22289648866E+01  0.29777634932E+01  0.74700518073E+02  0.74814173051E+02  0.17770000000E+01 0. -1.
</event>
<event>
 6    1  0.1226227E-002  0.1896507E+03  0.7546771E-02  0.1062901E+00
        -11   -1    0    0    0    0  0.00000000000E+00  0.00000000000E+00  0.18250000000E+03  0.18250000000E+03  0.00000000000E+00 0. -1.
         11   -1    0    0    0    0 -0.00000000000E+00 -0.00000000000E+00 -0.18250000000E+03  0.18250000000E+03  0.00000000000E+00 0. -1.
        -11    1    1    2    0    0 -0.39805629805E+01 -0.89741751458E+00  0.17530183861E+03  0.17534932238E+03  0.00000000000E+00 0. -1.
         11    1    1    2    0    0 -0.14713258018E+01 -0.30633590022E+01 -0.16465948604E+03  0.16469455155E+03  0.00000000000E+00 0. -1.
        -15    1    1    2    0    0 -0.79611988756E+01 -0.84790433015E+00 -0.34671079746E+01  0.89038304115E+01  0.17770000000E+01 0.  1.
         15    1    1    2    0    0  0.13413087658E+02  0.48086808469E+01 -0.71752445969E+01  0.16052295662E+02  0.17770000000E+01 0. -1.
</event>
<event>
 6    1  0.1226227E-002  0.1834608E+03  0.7546771E-02  0.1067693E+00
        -11   -1    0    0    0    0  0.00000000000E+00  0.00000000000E+00  0.18250000000E+03  0.18250000000E+03  0.00000000000E+00 0.  1.
         11   -1    0    0    0    0 -0.00000000000E+00 -0.00000000000E+00 -0.18250000000E+03  0.18250000000E+03  0.00000000000E+00 0.  1.
        -11    1    1    2    0    0  0.27467271638E+01 -0.94402745368E+01  0.18127282014E+03  0.18153924814E+03  0.00000000000E+00 0.  1.
         11    1    1    2    0    0 -0.11047753022E+01  0.31009435002E+01 -0.94485178343E+02  0.94542505285E+02  0.00000000000E+00 0.  1.
        -15    1    1    2    0    0 -0.78616904559E+01  0.31085573703E+01 -0.20616499163E+02  0.22353234050E+02  0.17770000000E+01 0. -1.
         15    1    1    2    0    0  0.62197385943E+01  0.32307736662E+01 -0.66171142633E+02  0.66565012529E+02  0.17770000000E+01 0.  1.
</event>
<event>
 6    1  0.1226227E-002  0.1853917E+03  0.7546771E-02  0.1066176E+00
        -11   -1    0    0    0    0  0.00000000000E+00  0.00000000000E+00  0.18250000000E+03  0.18250000000E+03  0.00000000000E+00 0.  1.
         11   -1    0    0    0    0 -0.00000000000E+00 -0.00000000000E+00 -0.18250000000E+03  0.18250000000E+03  0.00000000000E+00 0.  1.
        -11    1    1    2    0    0 -0.17335120393E+02 -0.13274681264E+02  0.17827627865E+03  0.17960833804E+03  0.00000000000E+00 0.  1.
         11    1    1    2    0    0  0.96393163823E+01  0.42593494655E+01 -0.28360553632E+02  0.30255238893E+02  0.00000000000E+00 0.  1.
        -15    1    1    2    0    0  0.10319095390E+02 -0.10028065028E+02 -0.26382345325E+02  0.30103682362E+02  0.17770000000E+01 0.  1.
         15    1    1    2    0    0 -0.26232913792E+01  0.19043396827E+02 -0.12353337970E+03  0.12503274071E+03  0.17770000000E+01 0. -1.
</event>
<event>
 6    1  0.1226227E-002  0.1861077E+03  0.7546771E-02  0.1065619E+00
        -11   -1    0    0    0    0  0.00000000000E+00  0.00000000000E+00  0.18250000000E+03  0.18250000000E+03  0.00000000000E+00 0. -1.
         11   -1    0    0    0    0 -0.00000000000E+00 -0.00000000000E+00 -0.18250000000E+03  0.18250000000E+03  0.00000000000E+00 0.  1.
        -11    1    1    2    0    0  0.57783966692E+00  0.51278418545E+01  0.16853914714E+03  0.16861812708E+03  0.00000000000E+00 0. -1.
         11    1    1    2    0    0  0.51427244029E+01 -0.24626420258E+01 -0.17880138567E+03  0.17889227970E+03  0.00000000000E+00 0.  1.
        -15    1    1    2    0    0 -0.26677972749E+01 -0.22909057940E+01 -0.22127345012E+01  0.45187735759E+01  0.17770000000E+01 0. -1.
         15    1    1    2    0    0 -0.30527667949E+01 -0.37429403475E+00  0.12474973032E+02  0.12970819645E+02  0.17770000000E+01 0.  1.
</event>
<event>
 6    1  0.1226227E-002  0.1835589E+03  0.7546771E-02  0.1067615E+00
        -11   -1    0    0    0    0  0.00000000000E+00  0.00000000000E+00  0.18250000000E+03  0.18250000000E+03  0.00000000000E+00 0.  1.
         11   -1    0    0    0    0 -0.00000000000E+00 -0.00000000000E+00 -0.18250000000E+03  0.18250000000E+03  0.00000000000E+00 0.  1.
        -11    1    1    2    0    0  0.40276352436E+01 -0.82776992299E+00  0.18139451727E+03  0.18144111426E+03  0.00000000000E+00 0.  1.
         11    1    1    2    0    0  0.18769781277E+01 -0.86536394465E+00 -0.15190094612E+03  0.15191500694E+03  0.00000000000E+00 0.  1.
        -15    1    1    2    0    0 -0.60089199049E+01 -0.25540323623E+01 -0.19489708137E+02  0.20630963429E+02  0.17770000000E+01 0. -1.
         15    1    1    2    0    0  0.10430653364E+00  0.42471662299E+01 -0.10003863014E+02  0.11012915375E+02  0.17770000000E+01 0.  1.
</event>
<event>
 6    1  0.1226227E-002  0.1833365E+03  0.7546771E-02  0.1067791E+00
        -11   -1    0    0    0    0  0.00000000000E+00  0.00000000000E+00  0.18250000000E+03  0.18250000000E+03  0.00000000000E+00 0.  1.
         11   -1    0    0    0    0 -0.00000000000E+00 -0.00000000000E+00 -0.18250000000E+03  0.18250000000E+03  0.00000000000E+00 0.  1.
        -11    1    1    2    0    0  0.12376536542E+01 -0.23027183074E+01  0.14779511439E+03  0.14781823343E+03  0.00000000000E+00 0.  1.
         11    1    1    2    0    0  0.20262839728E+01  0.21665403195E+01 -0.18163927690E+03  0.18166349836E+03  0.00000000000E+00 0.  1.
        -15    1    1    2    0    0 -0.18093591857E+01  0.35484495324E+01  0.28195318533E+02  0.28530667551E+02  0.17770000000E+01 0. -1.
         15    1    1    2    0    0 -0.14545784412E+01 -0.34122715445E+01  0.56488439840E+01  0.69876006533E+01  0.17770000000E+01 0. -1.
</event>
<event>
 6    1  0.1226227E-002  0.1853322E+03  0.7546771E-02  0.1066222E+00
        -11   -1    0    0    0    0  0.00000000000E+00  0.00000000000E+00  0.18250000000E+03  0.18250000000E+03  0.00000000000E+00 0. -1.
         11   -1    0    0    0    0 -0.00000000000E+00 -0.00000000000E+00 -0.18250000000E+03  0.18250000000E+03  0.00000000000E+00 0.  1.
        -11    1    1    2    0    0 -0.13216526179E+01  0.37619932758E+01  0.13106446334E+03  0.13112510404E+03  0.00000000000E+00 0. -1.
         11    1    1    2    0    0 -0.17963837137E+00  0.45486394593E+01 -0.17961014063E+03  0.17966781851E+03  0.00000000000E+00 0.  1.
        -15    1    1    2    0    0 -0.62273591775E+00 -0.67241113680E+01  0.16138434516E+01  0.71668468240E+01  0.17770000000E+01 0.  1.
         15    1    1    2    0    0  0.21240269070E+01 -0.15865213671E+01  0.46931833842E+02  0.47040230624E+02  0.17770000000E+01 0. -1.
</event>
<event>
 6    1  0.1226227E-002  0.1894048E+03  0.7546771E-02  0.1063088E+00
        -11   -1    0    0    0    0  0.00000000000E+00  0.00000000000E+00  0.18250000000E+03  0.18250000000E+03  0.00000000000E+00 0. -1.
         11   -1    0    0    0    0 -0.00000000000E+00 -0.00000000000E+00 -0.18250000000E+03  0.18250000000E+03  0.00000000000E+00 0. -1.
        -11    1    1    2    0    0  0.31441364372E+01  0.12842502614E+01  0.16767354109E+03  0.16770793444E+03  0.00000000000E+00 0. -1.
         11    1    1    2    0    0 -0.32090556731E+01 -0.59014777387E+01 -0.17546661609E+03  0.17559515608E+03  0.00000000000E+00 0. -1.
        -15    1    1    2    0    0  0.17278161271E+01  0.47600290646E+01 -0.57912627209E+01  0.78955479967E+01  0.17770000000E+01 0. -1.
         15    1    1    2    0    0 -0.16628968912E+01 -0.14280158734E+00  0.13584337720E+02  0.13801361478E+02  0.17770000000E+01 0.  1.
</event>
<event>
 6    1  0.1226227E-002  0.1829455E+03  0.7546771E-02  0.1068101E+00
        -11   -1    0    0    0    0  0.00000000000E+00  0.00000000000E+00  0.18250000000E+03  0.18250000000E+03  0.00000000000E+00 0.  1.
         11   -1    0    0    0    0 -0.00000000000E+00 -0.00000000000E+00 -0.18250000000E+03  0.18250000000E+03  0.00000000000E+00 0.  1.
        -11    1    1    2    0    0  0.14546907476E+01  0.24077291256E+01  0.18203273935E+03  0.18205447393E+03  0.00000000000E+00 0.  1.
         11    1    1    2    0    0  0.50338277502E+01  0.16944425990E+01 -0.85182844619E+02  0.85348272244E+02  0.00000000000E+00 0.  1.
        -15    1    1    2    0    0  0.26253319222E+00 -0.39520882111E+01 -0.54787461882E+02  0.54959181520E+02  0.17770000000E+01 0.  1.
         15    1    1    2    0    0 -0.67510516901E+01 -0.15008351355E+00 -0.42062432845E+02  0.42638072305E+02  0.17770000000E+01 0. -1.
</event>
<event>
 6    1  0.1226227E-002  0.1835979E+03  0.7546771E-02  0.1067584E+00
        -11   -1    0    0    0    0  0.00000000000E+00  0.00000000000E+00  0.18250000000E+03  0.18250000000E+03  0.00000000000E+00 0. -1.
         11   -1    0    0    0    0 -0.00000000000E+00 -0.00000000000E+00 -0.18250000000E+03  0.18250000000E+03  0.00000000000E+00 0.  1.
        -11    1    1    2    0    0 -0.16309499580E+01  0.29606880769E+01  0.15772256445E+03  0.15775878109E+03  0.00000000000E+00 0. -1.
         11    1    1    2    0    0  0.28875662112E+01 -0.13733518442E+01 -0.18137387837E+03  0.18140206142E+03  0.00000000000E+00 0.  1.
        -15    1    1    2    0    0 -0.49567000212E+01 -0.15328755203E+01  0.18242225938E+02  0.19048756354E+02  0.17770000000E+01 0.  1.
         15    1    1    2    0    0  0.37000837680E+01 -0.54460712367E-01  0.54090879773E+01  0.67904011373E+01  0.17770000000E+01 0. -1.
</event>
<event>
 6    1  0.1226227E-002  0.1841876E+03  0.7546771E-02  0.1067119E+00
        -11   -1    0    0    0    0  0.00000000000E+00  0.00000000000E+00  0.18250000000E+03  0.18250000000E+03  0.00000000000E+00 0. -1.
         11   -1    0    0    0    0 -0.00000000000E+00 -0.00000000000E+00 -0.18250000000E+03  0.18250000000E+03  0.00000000000E+00 0.  1.
        -11    1    1    2    0    0 -0.10865144302E+01  0.20582214838E+01  0.13974039314E+03  0.13975977341E+03  0.00000000000E+00 0. -1.
         11    1    1    2    0    0  0.45480484218E+01 -0.10033848883E+01 -0.18075245073E+03  0.18081244418E+03  0.00000000000E+00 0.  1.
        -15    1    1    2    0    0  0.20267805643E+01 -0.18670038344E+01  0.37462844204E+02  0.37606062911E+02  0.17770000000E+01 0. -1.
         15    1    1    2    0    0 -0.54883145558E+01  0.81216723889E+00  0.35492133817E+01  0.68217194985E+01  0.17770000000E+01 0. -1.
</event>
<event>
 6    1  0.1226227E-002  0.1866944E+03  0.7546771E-02  0.1065164E+00
        -11   -1    0    0    0    0  0.00000000000E+00  0.00000000000E+00  0.18250000000E+03  0.18250000000E+03  0.00000000000E+00 0.  1.
         11   -1    0    0    0    0 -0.00000000000E+00 -0.00000000000E+00 -0.18250000000E+03  0.18250000000E+03  0.00000000000E+00 0.  1.
        -11    1    1    2    0    0  0.29144919323E+01  0.31389973963E+01  0.16616581228E+03  0.16622101173E+03  0.00000000000E+00 0.  1.
         11    1    1    2    0    0  0.12923218706E+01  0.24796436773E+01 -0.17828372322E+03  0.17830564964E+03  0.00000000000E+00 0.  1.
        -15    1    1    2    0    0  0.41391607788E+00 -0.18434169954E+01 -0.30936183569E+01  0.40370430115E+01  0.17770000000E+01 0.  1.
         15    1    1    2    0    0 -0.46207298807E+01 -0.37752240781E+01  0.15211529292E+02  0.16436295625E+02  0.17770000000E+01 0. -1.
</event>
<event>
 6    1  0.1226227E-002  0.1875825E+03  0.7546771E-02  0.1064480E+00
        -11   -1    0    0    0    0  0.00000000000E+00  0.00000000000E+00  0.18250000000E+03  0.18250000000E+03  0.00000000000E+00 0.  1.
         11   -1    0    0    0    0 -0.00000000000E+00 -0.00000000000E+00 -0.18250000000E+03  0.18250000000E+03  0.00000000000E+00 0. -1.
        -11    1    1    2    0    0 -0.31906730842E+01  0.16777003937E+01  0.17738085184E+03  0.17741747849E+03  0.00000000000E+00 0.  1.
         11    1    1    2    0    0 -0.29620229827E+01  0.41701991651E+01 -0.16381093341E+03  0.16389077475E+03  0.00000000000E+00 0. -1.
        -15    1    1    2    0    0  0.14649950642E+01 -0.10895487287E+02 -0.12067515096E+02  0.16420733947E+02  0.17770000000E+01 0. -1.
         15    1    1    2    0    0  0.46877010027E+01  0.50475877281E+01 -0.15024033335E+01  0.72710128139E+01  0.17770000000E+01 0.  1.
</event>
<event>
 6    1  0.1226227E-002  0.1690813E+03  0.7546771E-02  0.1079668E+00
        -11   -1    0    0    0    0  0.00000000000E+00  0.00000000000E+00  0.18250000000E+03  0.18250000000E+03  0.00000000000E+00 0.  1.
         11   -1    0    0    0    0 -0.00000000000E+00 -0.00000000000E+00 -0.18250000000E+03  0.18250000000E+03  0.00000000000E+00 0.  1.
        -11    1    1    2    0    0  0.65096221761E+01  0.38788012129E+00  0.17047321036E+03  0.17059789296E+03  0.00000000000E+00 0.  1.
         11    1    1    2    0    0  0.37302471820E+01  0.32303101596E+01 -0.16767798912E+03  0.16775058176E+03  0.00000000000E+00 0.  1.
        -15    1    1    2    0    0  0.31977485193E+01  0.77237459523E+01 -0.27490097008E+01  0.89775626126E+01  0.17770000000E+01 0.  1.
         15    1    1    2    0    0 -0.13437617877E+02 -0.11341936233E+02 -0.46211542810E-01  0.17673962664E+02  0.17770000000E+01 0. -1.
</event>
<event>
 6    1  0.1226227E-002  0.1845161E+03  0.7546771E-02  0.1066861E+00
        -11   -1    0    0    0    0  0.00000000000E+00  0.00000000000E+00  0.18250000000E+03  0.18250000000E+03  0.00000000000E+00 0. -1.
         11   -1    0    0    0    0 -0.00000000000E+00 -0.00000000000E+00 -0.18250000000E+03  0.18250000000E+03  0.00000000000E+00 0.  1.
        -11    1    1    2    0    0  0.32781672260E+00 -0.20758186421E+01  0.13248856429E+03  0.13250523067E+03  0.00000000000E+00 0. -1.
         11    1    1    2    0    0  0.23706193462E+01  0.41453778570E+01 -0.18042072759E+03  0.18048391324E+03  0.00000000000E+00 0.  1.
        -15    1    1    2    0    0 -0.88687918446E+00 -0.44249962207E-01  0.48646017812E+02  0.48686561706E+02  0.17770000000E+01 0. -1.
         15    1    1    2    0    0 -0.18115568843E+01 -0.20253092527E+01 -0.71385451458E+00  0.33242943886E+01  0.17770000000E+01 0.  1.
</event>
<event>
 6    1  0.1226227E-002  0.1827708E+03  0.7546771E-02  0.1068239E+00
        -11   -1    0    0    0    0  0.00000000000E+00  0.00000000000E+00  0.18250000000E+03  0.18250000000E+03  0.00000000000E+00 0. -1.
         11   -1    0    0    0    0 -0.00000000000E+00 -0.00000000000E+00 -0.18250000000E+03  0.18250000000E+03  0.00000000000E+00 0. -1.
        -11    1    1    2    0    0 -0.11919504424E+01 -0.84726096157E+00  0.77028031915E+02  0.77041912604E+02  0.00000000000E+00 0. -1.
         11    1    1    2    0    0  0.14886458111E+01 -0.27883314699E+01 -0.18220173549E+03  0.18222915045E+03  0.00000000000E+00 0. -1.
        -15    1    1    2    0    0  0.17735473915E+01  0.51038189653E+01  0.32841711659E+02  0.33330619437E+02  0.17770000000E+01 0.  1.
         15    1    1    2    0    0 -0.20702427602E+01 -0.14682265338E+01  0.72331991916E+02  0.72398317506E+02  0.17770000000E+01 0. -1.
</event>
<event>
 6    1  0.1226227E-002  0.1827580E+03  0.7546771E-02  0.1068250E+00
        -11   -1    0    0    0    0  0.00000000000E+00  0.00000000000E+00  0.18250000000E+03  0.18250000000E+03  0.00000000000E+00 0.  1.
         11   -1    0    0    0    0 -0.00000000000E+00 -0.00000000000E+00 -0.18250000000E+03  0.18250000000E+03  0.00000000000E+00 0.  1.
        -11    1    1    2    0    0 -0.36780142392E+01  0.72825367089E+00  0.13642508936E+03  0.13647660293E+03  0.00000000000E+00 0.  1.
         11    1    1    2    0    0  0.23876354274E+00 -0.26029124767E+01 -0.18222323751E+03  0.18224198322E+03  0.00000000000E+00 0.  1.
        -15    1    1    2    0    0  0.30455260567E+01 -0.10698885115E+00  0.17266697173E+02  0.17623371864E+02  0.17770000000E+01 0.  1.
         15    1    1    2    0    0  0.39372463978E+00  0.19816476569E+01  0.28531450975E+02  0.28658041982E+02  0.17770000000E+01 0. -1.
</event>
<event>
 6    1  0.1226227E-002  0.1860797E+03  0.7546771E-02  0.1065641E+00
        -11   -1    0    0    0    0  0.00000000000E+00  0.00000000000E+00  0.18250000000E+03  0.18250000000E+03  0.00000000000E+00 0.  1.
         11   -1    0    0    0    0 -0.00000000000E+00 -0.00000000000E+00 -0.18250000000E+03  0.18250000000E+03  0.00000000000E+00 0.  1.
        -11    1    1    2    0    0 -0.51698503041E+01 -0.21312259300E+01  0.17883294154E+03  0.17892034668E+03  0.00000000000E+00 0.  1.
         11    1    1    2    0    0 -0.20960427276E+01 -0.18312108806E+01 -0.16990751172E+03  0.16993030708E+03  0.00000000000E+00 0.  1.
        -15    1    1    2    0    0  0.23064765010E+01  0.32681365993E+01  0.13506816254E+01  0.45806790473E+01  0.17770000000E+01 0. -1.
         15    1    1    2    0    0  0.49594165306E+01  0.69430021133E+00 -0.10276111448E+02  0.11568667192E+02  0.17770000000E+01 0.  1.
</event>
<event>
 6    1  0.1226227E-002  0.1938434E+03  0.7546771E-02  0.1059768E+00
        -11   -1    0    0    0    0  0.00000000000E+00  0.00000000000E+00  0.18250000000E+03  0.18250000000E+03  0.00000000000E+00 0. -1.
         11   -1    0    0    0    0 -0.00000000000E+00 -0.00000000000E+00 -0.18250000000E+03  0.18250000000E+03  0.00000000000E+00 0. -1.
        -11    1    1    2    0    0 -0.35987548223E+01 -0.25263064937E+01  0.17110006415E+03  0.17115655176E+03  0.00000000000E+00 0. -1.
         11    1    1    2    0    0  0.21529386537E+01 -0.68878203024E+01 -0.14413940943E+03  0.14431994513E+03  0.00000000000E+00 0. -1.
        -15    1    1    2    0    0  0.92594143573E+01 -0.69534586862E+00  0.79204887382E+01  0.12333374679E+02  0.17770000000E+01 0.  1.
         15    1    1    2    0    0 -0.78135981887E+01  0.10109472665E+02 -0.34881143459E+02  0.37190128425E+02  0.17770000000E+01 0. -1.
</event>
<event>
 6    1  0.1226227E-002  0.1834994E+03  0.7546771E-02  0.1067662E+00
        -11   -1    0    0    0    0  0.00000000000E+00  0.00000000000E+00  0.18250000000E+03  0.18250000000E+03  0.00000000000E+00 0.  1.
         11   -1    0    0    0    0 -0.00000000000E+00 -0.00000000000E+00 -0.18250000000E+03  0.18250000000E+03  0.00000000000E+00 0. -1.
        -11    1    1    2    0    0 -0.27103930671E+01 -0.19550175243E+01  0.18146983020E+03  0.18150059944E+03  0.00000000000E+00 0.  1.
         11    1    1    2    0    0  0.10655244881E+01 -0.31353564188E+01 -0.16693788051E+03  0.16697072124E+03  0.00000000000E+00 0. -1.
        -15    1    1    2    0    0  0.64719831317E+00  0.36286312303E+00 -0.79100050104E+01  0.81410345514E+01  0.17770000000E+01 0.  1.
         15    1    1    2    0    0  0.99767026585E+00  0.47275108201E+01 -0.66219446788E+01  0.83876447732E+01  0.17770000000E+01 0. -1.
</event>
<event>
 6    1  0.1226227E-002  0.1825760E+03  0.7546771E-02  0.1068394E+00
        -11   -1    0    0    0    0  0.00000000000E+00  0.00000000000E+00  0.18250000000E+03  0.18250000000E+03  0.00000000000E+00 0.  1.
         11   -1    0    0    0    0 -0.00000000000E+00 -0.00000000000E+00 -0.18250000000E+03  0.18250000000E+03  0.00000000000E+00 0. -1.
        -11    1    1    2    0    0 -0.19391057930E+00 -0.12142286567E+01  0.54479915885E+02  0.54493790357E+02  0.00000000000E+00 0.  1.
         11    1    1    2    0    0 -0.47192036441E+00  0.30580102984E+01 -0.18239777512E+03  0.18242401844E+03  0.00000000000E+00 0. -1.
        -15    1    1    2    0    0  0.22159766227E+00 -0.15050514941E+01  0.18350162721E+02  0.18498661747E+02  0.17770000000E+01 0. -1.
         15    1    1    2    0    0  0.44423328144E+00 -0.33873014768E+00  0.10956769651E+03  0.10958352946E+03  0.17770000000E+01 0.  1.
</event>
<event>
 6    1  0.1226227E-002  0.1780620E+03  0.7546771E-02  0.1072043E+00
        -11   -1    0    0    0    0  0.00000000000E+00  0.00000000000E+00  0.18250000000E+03  0.18250000000E+03  0.00000000000E+00 0. -1.
         11   -1    0    0    0    0 -0.00000000000E+00 -0.00000000000E+00 -0.18250000000E+03  0.18250000000E+03  0.00000000000E+00 0.  1.
        -11    1    1    2    0    0  0.28418920736E+00 -0.25433677916E+01  0.17772227083E+03  0.17774069605E+03  0.00000000000E+00 0. -1.
         11    1    1    2    0    0 -0.89015193388E-01 -0.26490506131E+01 -0.17840211326E+03  0.17842180194E+03  0.00000000000E+00 0.  1.
        -15    1    1    2    0    0  0.26805639576E+01  0.96803476172E+00  0.68147728456E+00  0.34270475223E+01  0.17770000000E+01 0.  1.
         15    1    1    2    0    0 -0.28757379716E+01  0.42243836430E+01 -0.16348530899E-02  0.54104544834E+01  0.17770000000E+01 0. -1.
</event>
<event>
 6    1  0.1226227E-002  0.1869085E+03  0.7546771E-02  0.1064999E+00
        -11   -1    0    0    0    0  0.00000000000E+00  0.00000000000E+00  0.18250000000E+03  0.18250000000E+03  0.00000000000E+00 0.  1.
         11   -1    0    0    0    0 -0.00000000000E+00 -0.00000000000E+00 -0.18250000000E+03  0.18250000000E+03  0.00000000000E+00 0.  1.
        -11    1    1    2    0    0 -0.19694727259E+01 -0.82751276793E+01  0.17788823834E+03  0.17809149868E+03  0.00000000000E+00 0.  1.
         11    1    1    2    0    0 -0.13027757527E+02 -0.39501377115E+00 -0.13384438725E+03  0.13447750183E+03  0.00000000000E+00 0.  1.
        -15    1    1    2    0    0  0.43267946250E+01 -0.83071770955E+00 -0.35232539534E+02  0.35551382739E+02  0.17770000000E+01 0.  1.
         15    1    1    2    0    0  0.10670435628E+02  0.95008591600E+01 -0.88113115598E+01  0.16879616751E+02  0.17770000000E+01 0. -1.
</event>
<event>
 6    1  0.1226227E-002  0.1879378E+03  0.7546771E-02  0.1064207E+00
        -11   -1    0    0    0    0  0.00000000000E+00  0.00000000000E+00  0.18250000000E+03  0.18250000000E+03  0.00000000000E+00 0. -1.
         11   -1    0    0    0    0 -0.00000000000E+00 -0.00000000000E+00 -0.18250000000E+03  0.18250000000E+03  0.00000000000E+00 0.  1.
        -11    1    1    2    0    0 -0.23413109191E+01  0.26304311629E+01  0.15425505529E+03  0.15429524616E+03  0.00000000000E+00 0. -1.
         11    1    1    2    0    0  0.71118096560E+01 -0.15731607689E+01 -0.17691236951E+03  0.17706224656E+03  0.00000000000E+00 0.  1.
        -15    1    1    2    0    0 -0.55468094283E+01  0.10025921050E+02  0.18116267326E+02  0.21509138954E+02  0.17770000000E+01 0. -1.
         15    1    1    2    0    0  0.77631069135E+00 -0.11083191444E+02  0.45410468917E+01  0.12133368319E+02  0.17770000000E+01 0.  1.
</event>
<event>
 6    1  0.1226227E-002  0.1858581E+03  0.7546771E-02  0.1065813E+00
        -11   -1    0    0    0    0  0.00000000000E+00  0.00000000000E+00  0.18250000000E+03  0.18250000000E+03  0.00000000000E+00 0.  1.
         11   -1    0    0    0    0 -0.00000000000E+00 -0.00000000000E+00 -0.18250000000E+03  0.18250000000E+03  0.00000000000E+00 0.  1.
        -11    1    1    2    0    0 -0.19410001302E+01 -0.51706532743E+01  0.17905675548E+03  0.17914191251E+03  0.00000000000E+00 0.  1.
         11    1    1    2    0    0  0.36068311905E+01  0.20383003874E+01 -0.17589539527E+03  0.17594417858E+03  0.00000000000E+00 0.  1.
        -15    1    1    2    0    0  0.17294691709E+01  0.33631176833E+01  0.95386522556E+00  0.42859318746E+01  0.17770000000E+01 0. -1.
         15    1    1    2    0    0 -0.33953002312E+01 -0.23076479636E+00 -0.41152254327E+01  0.56279770267E+01  0.17770000000E+01 0. -1.
</event>
<event>
 6    1  0.1226227E-002  0.1828364E+03  0.7546771E-02  0.1068187E+00
        -11   -1    0    0    0    0  0.00000000000E+00  0.00000000000E+00  0.18250000000E+03  0.18250000000E+03  0.00000000000E+00 0. -1.
         11   -1    0    0    0    0 -0.00000000000E+00 -0.00000000000E+00 -0.18250000000E+03  0.18250000000E+03  0.00000000000E+00 0.  1.
        -11    1    1    2    0    0 -0.12865141509E+00 -0.23104574161E+01  0.88967700182E+02  0.88997788963E+02  0.00000000000E+00 0. -1.
         11    1    1    2    0    0 -0.27160455379E+01 -0.21099891654E+01 -0.18213115348E+03  0.18216362432E+03  0.00000000000E+00 0.  1.
        -15    1    1    2    0    0  0.28798242535E+01  0.21005504045E+01  0.86131238755E+02  0.86223278285E+02  0.17770000000E+01 0. -1.
         15    1    1    2    0    0 -0.35127300455E-01  0.23198961769E+01  0.70322145402E+01  0.76153084335E+01  0.17770000000E+01 0.  1.
</event>
<event>
 6    1  0.1226227E-002  0.1827993E+03  0.7546771E-02  0.1068217E+00
        -11   -1    0    0    0    0  0.00000000000E+00  0.00000000000E+00  0.18250000000E+03  0.18250000000E+03  0.00000000000E+00 0.  1.
         11   -1    0    0    0    0 -0.00000000000E+00 -0.00000000000E+00 -0.18250000000E+03  0.18250000000E+03  0.00000000000E+00 0. -1.
        -11    1    1    2    0    0 -0.56055376759E+01  0.28324857517E+01  0.18209240113E+03  0.18220067941E+03  0.00000000000E+00 0.  1.
         11    1    1    2    0    0  0.32225672047E+00  0.19921281355E+01 -0.22973703310E+02  0.23062165286E+02  0.00000000000E+00 0. -1.
        -15    1    1    2    0    0  0.53281944634E+01 -0.32578717965E+01 -0.35082397148E+02  0.35678224501E+02  0.17770000000E+01 0. -1.
         15    1    1    2    0    0 -0.44913507952E-01 -0.15667420907E+01 -0.12403630067E+03  0.12405893080E+03  0.17770000000E+01 0. -1.
</event>
<event>
 6    1  0.1226227E-002  0.1896479E+03  0.7546771E-02  0.1062903E+00
        -11   -1    0    0    0    0  0.00000000000E+00  0.00000000000E+00  0.18250000000E+03  0.18250000000E+03  0.00000000000E+00 0.  1.
         11   -1    0    0    0    0 -0.00000000000E+00 -0.00000000000E+00 -0.18250000000E+03  0.18250000000E+03  0.00000000000E+00 0. -1.
        -11    1    1    2    0    0  0.14979396613E+02 -0.13858487282E+02  0.17416061857E+03  0.17535210592E+03  0.00000000000E+00 0.  1.
         11    1    1    2    0    0  0.29898636043E+00  0.10181191962E+01 -0.51736326369E+02  0.51747206936E+02  0.00000000000E+00 0. -1.
        -15    1    1    2    0    0 -0.18957230000E+02  0.13545721257E+02 -0.10028025828E+02  0.25427979956E+02  0.17770000000E+01 0. -1.
         15    1    1    2    0    0  0.36788470264E+01 -0.70535317170E+00 -0.11239626637E+03  0.11247270718E+03  0.17770000000E+01 0. -1.
</event>
<event>
 6    1  0.1226227E-002  0.9432366E+02  0.7546771E-02  0.1174015E+00
        -11   -1    0    0    0    0  0.00000000000E+00  0.00000000000E+00  0.18250000000E+03  0.18250000000E+03  0.00000000000E+00 0.  1.
         11   -1    0    0    0    0 -0.00000000000E+00 -0.00000000000E+00 -0.18250000000E+03  0.18250000000E+03  0.00000000000E+00 0.  1.
        -11    1    1    2    0    0  0.56844367172E+01  0.89292455446E+00  0.58594902445E+02  0.58876758806E+02  0.00000000000E+00 0.  1.
         11    1    1    2    0    0  0.23432631368E+00 -0.25793019757E+01 -0.11037220467E+03  0.11040258725E+03  0.00000000000E+00 0.  1.
        -15    1    1    2    0    0 -0.43815886408E+01  0.94995444911E+02  0.20653547748E+02  0.97329644181E+02  0.17770000000E+01 0.  1.
         15    1    1    2    0    0 -0.15371743901E+01 -0.93309067489E+02  0.31123754476E+02  0.98391009765E+02  0.17770000000E+01 0. -1.
</event>
<event>
 6    1  0.1226227E-002  0.1831881E+03  0.7546771E-02  0.1067908E+00
        -11   -1    0    0    0    0  0.00000000000E+00  0.00000000000E+00  0.18250000000E+03  0.18250000000E+03  0.00000000000E+00 0.  1.
         11   -1    0    0    0    0 -0.00000000000E+00 -0.00000000000E+00 -0.18250000000E+03  0.18250000000E+03  0.00000000000E+00 0.  1.
        -11    1    1    2    0    0  0.18054474639E+01 -0.57290680141E+01  0.18171262569E+03  0.18181188134E+03  0.00000000000E+00 0.  1.
         11    1    1    2    0    0  0.33203097622E+01 -0.10875896189E+01 -0.86596255285E+02  0.86666710665E+02  0.00000000000E+00 0.  1.
        -15    1    1    2    0    0 -0.45208718525E+01  0.10887331839E+02 -0.68091315197E+02  0.69127109090E+02  0.17770000000E+01 0.  1.
         15    1    1    2    0    0 -0.60488537359E+00 -0.40706742059E+01 -0.27025055206E+02  0.27394298909E+02  0.17770000000E+01 0. -1.
</event>
<event>
 6    1  0.1226227E-002  0.1793648E+03  0.7546771E-02  0.1070978E+00
        -11   -1    0    0    0    0  0.00000000000E+00  0.00000000000E+00  0.18250000000E+03  0.18250000000E+03  0.00000000000E+00 0. -1.
         11   -1    0    0    0    0 -0.00000000000E+00 -0.00000000000E+00 -0.18250000000E+03  0.18250000000E+03  0.00000000000E+00 0. -1.
        -11    1    1    2    0    0  0.20807262585E+00  0.29469248198E+01  0.10247092007E+02  0.10664452856E+02  0.00000000000E+00 0. -1.
         11    1    1    2    0    0  0.17670797172E+01 -0.79293349825E+01 -0.17981256756E+03  0.17999598989E+03  0.00000000000E+00 0. -1.
        -15    1    1    2    0    0  0.18254626344E+01  0.10977878123E+02  0.11487977854E+02  0.16092777451E+02  0.17770000000E+01 0.  1.
         15    1    1    2    0    0 -0.38006149775E+01 -0.59954679600E+01  0.15807749770E+03  0.15824677980E+03  0.17770000000E+01 0. -1.
</event>
<event>
 6    1  0.1226227E-002  0.1880411E+03  0.7546771E-02  0.1064128E+00
        -11   -1    0    0    0    0  0.00000000000E+00  0.00000000000E+00  0.18250000000E+03  0.18250000000E+03  0.00000000000E+00 0. -1.
         11   -1    0    0    0    0 -0.00000000000E+00 -0.00000000000E+00 -0.18250000000E+03  0.18250000000E+03  0.00000000000E+00 0. -1.
        -11    1    1    2    0    0 -0.60884594883E+01 -0.46544613238E+01  0.17679285799E+03  0.17695888784E+03  0.00000000000E+00 0. -1.
         11    1    1    2    0    0  0.12589461169E+01  0.29925329828E+01 -0.16660693972E+03  0.16663856865E+03  0.00000000000E+00 0. -1.
        -15    1    1    2    0    0 -0.19482167044E+01 -0.35615906585E+01 -0.11719550410E+02  0.12529408092E+02  0.17770000000E+01 0.  1.
         15    1    1    2    0    0  0.67777300758E+01  0.52235189994E+01  0.15336321360E+01  0.88731354236E+01  0.17770000000E+01 0.  1.
</event>
<event>
 6    1  0.1226227E-002  0.1833249E+03  0.7546771E-02  0.1067800E+00
        -11   -1    0    0    0    0  0.00000000000E+00  0.00000000000E+00  0.18250000000E+03  0.18250000000E+03  0.00000000000E+00 0. -1.
         11   -1    0    0    0    0 -0.00000000000E+00 -0.00000000000E+00 -0.18250000000E+03  0.18250000000E+03  0.00000000000E+00 0. -1.
        -11    1    1    2    0    0  0.37580616204E+01  0.14329772260E+01  0.12517659664E+03  0.12524119449E+03  0.00000000000E+00 0. -1.
         11    1    1    2    0    0 -0.74597180406E+01  0.71289277159E+01 -0.18138182766E+03  0.18167508472E+03  0.00000000000E+00 0. -1.
        -15    1    1    2    0    0 -0.19210778036E+00 -0.11843482879E+01  0.12735944316E+01  0.24938640786E+01  0.17770000000E+01 0. -1.
         15    1    1    2    0    0  0.38937642006E+01 -0.73775566540E+01  0.54931636592E+02  0.55589856714E+02  0.17770000000E+01 0.  1.
</event>
<event>
 6    1  0.1226227E-002  0.1937258E+03  0.7546771E-02  0.1059854E+00
        -11   -1    0    0    0    0  0.00000000000E+00  0.00000000000E+00  0.18250000000E+03  0.18250000000E+03  0.00000000000E+00 0.  1.
         11   -1    0    0    0    0 -0.00000000000E+00 -0.00000000000E+00 -0.18250000000E+03  0.18250000000E+03  0.00000000000E+00 0. -1.
        -11    1    1    2    0    0  0.19055074638E+02 -0.69343478604E+01  0.13369322134E+03  0.13522225587E+03  0.00000000000E+00 0.  1.
         11    1    1    2    0    0  0.28868829706E+01  0.26712216674E+01 -0.17122902112E+03  0.17127418717E+03  0.00000000000E+00 0. -1.
        -15    1    1    2    0    0  0.39343432465E+01  0.54239112019E+01  0.30951718785E+02  0.31718519737E+02  0.17770000000E+01 0.  1.
         15    1    1    2    0    0 -0.25876300855E+02 -0.11607850090E+01  0.65840809921E+01  0.26785037228E+02  0.17770000000E+01 0. -1.
</event>
<event>
 6    1  0.1226227E-002  0.1863730E+03  0.7546771E-02  0.1065413E+00
        -11   -1    0    0    0    0  0.00000000000E+00  0.00000000000E+00  0.18250000000E+03  0.18250000000E+03  0.00000000000E+00 0.  1.
         11   -1    0    0    0    0 -0.00000000000E+00 -0.00000000000E+00 -0.18250000000E+03  0.18250000000E+03  0.00000000000E+00 0.  1.
        -11    1    1    2    0    0 -0.19402281084E+00 -0.34680465058E+01  0.17859318836E+03  0.17862696302E+03  0.00000000000E+00 0.  1.
         11    1    1    2    0    0 -0.29002842267E+01 -0.21382017947E+01 -0.16673507804E+03  0.16677400818E+03  0.00000000000E+00 0.  1.
        -15    1    1    2    0    0  0.15014548961E+01  0.64438912697E+01 -0.14441240252E+02  0.15983905985E+02  0.17770000000E+01 0. -1.
         15    1    1    2    0    0  0.15928521415E+01 -0.83764296916E+00  0.25831299349E+01  0.36151228124E+01  0.17770000000E+01 0.  1.
</event>
<event>
 6    1  0.1226227E-002  0.1863054E+03  0.7546771E-02  0.1065465E+00
        -11   -1    0    0    0    0  0.00000000000E+00  0.00000000000E+00  0.18250000000E+03  0.18250000000E+03  0.00000000000E+00 0. -1.
         11   -1    0    0    0    0 -0.00000000000E+00 -0.00000000000E+00 -0.18250000000E+03  0.18250000000E+03  0.00000000000E+00 0.  1.
        -11    1    1    2    0    0 -0.26449804064E+01  0.58997969381E+00  0.17196841218E+03  0.17198976360E+03  0.00000000000E+00 0. -1.
         11    1    1    2    0    0 -0.16106147830E-01  0.42784432737E+01 -0.17864334235E+03  0.17869456931E+03  0.00000000000E+00 0.  1.
        -15    1    1    2    0    0  0.26441900394E+01  0.14752361307E+01 -0.14989904440E+01  0.38174289721E+01  0.17770000000E+01 0.  1.
         15    1    1    2    0    0  0.16896514814E-01 -0.63436590982E+01  0.81739206143E+01  0.10498238112E+02  0.17770000000E+01 0. -1.
</event>
<event>
 6    1  0.1226227E-002  0.1853814E+03  0.7546771E-02  0.1066184E+00
        -11   -1    0    0    0    0  0.00000000000E+00  0.00000000000E+00  0.18250000000E+03  0.18250000000E+03  0.00000000000E+00 0. -1.
         11   -1    0    0    0    0 -0.00000000000E+00 -0.00000000000E+00 -0.18250000000E+03  0.18250000000E+03  0.00000000000E+00 0.  1.
        -11    1    1    2    0    0 -0.90656648216E+00 -0.33761031193E+01  0.17958454279E+03  0.17961856236E+03  0.00000000000E+00 0. -1.
         11    1    1    2    0    0 -0.30782796621E+01  0.46915558024E+01 -0.17513535670E+03  0.17522522555E+03  0.00000000000E+00 0.  1.
        -15    1    1    2    0    0  0.30748818774E+01  0.26713448402E+01 -0.33467102852E+01  0.55631987694E+01  0.17770000000E+01 0. -1.
         15    1    1    2    0    0  0.90996426688E+00 -0.39867975232E+01 -0.11024758085E+01  0.45930133210E+01  0.17770000000E+01 0. -1.
</event>
<event>
 6    1  0.1226227E-002  0.1913016E+03  0.7546771E-02  0.1061657E+00
        -11   -1    0    0    0    0  0.00000000000E+00  0.00000000000E+00  0.18250000000E+03  0.18250000000E+03  0.00000000000E+00 0.  1.
         11   -1    0    0    0    0 -0.00000000000E+00 -0.00000000000E+00 -0.18250000000E+03  0.18250000000E+03  0.00000000000E+00 0. -1.
        -11    1    1    2    0    0  0.65885501442E+00 -0.77421544285E+01  0.13287431259E+03  0.13310130725E+03  0.00000000000E+00 0.  1.
         11    1    1    2    0    0  0.17072149596E+01  0.33946278150E+01 -0.17365684966E+03  0.17369841540E+03  0.00000000000E+00 0. -1.
        -15    1    1    2    0    0  0.52964389269E+01  0.38324421599E+01 -0.70177979495E+01  0.97543372546E+01  0.17770000000E+01 0.  1.
         15    1    1    2    0    0 -0.76625089009E+01  0.51508445353E+00  0.47800335016E+02  0.48445940091E+02  0.17770000000E+01 0. -1.
</event>
<event>
 6    1  0.1226227E-002  0.1886611E+03  0.7546771E-02  0.1063654E+00
        -11   -1    0    0    0    0  0.00000000000E+00  0.00000000000E+00  0.18250000000E+03  0.18250000000E+03  0.00000000000E+00 0. -1.
         11   -1    0    0    0    0 -0.00000000000E+00 -0.00000000000E+00 -0.18250000000E+03  0.18250000000E+03  0.00000000000E+00 0. -1.
        -11    1    1    2    0    0 -0.14802412353E+01 -0.28833006578E+01  0.17630914763E+03  0.17633893522E+03  0.00000000000E+00 0. -1.
         11    1    1    2    0    0  0.73423033849E+00  0.64644267978E+01 -0.11555659600E+03  0.11573959904E+03  0.00000000000E+00 0. -1.
        -15    1    1    2    0    0 -0.51019937761E+01 -0.21676151818E+01  0.45064020339E+01  0.73616767356E+01  0.17770000000E+01 0.  1.
         15    1    1    2    0    0  0.58480046729E+01 -0.14135109582E+01 -0.65258953663E+02  0.65559789002E+02  0.17770000000E+01 0. -1.
</event>
<event>
 6    1  0.1226227E-002  0.1855899E+03  0.7546771E-02  0.1066022E+00
        -11   -1    0    0    0    0  0.00000000000E+00  0.00000000000E+00  0.18250000000E+03  0.18250000000E+03  0.00000000000E+00 0. -1.
         11   -1    0    0    0    0 -0.00000000000E+00 -0.00000000000E+00 -0.18250000000E+03  0.18250000000E+03  0.00000000000E+00 0. -1.
        -11    1    1    2    0    0 -0.26564749076E+01  0.12610372410E+01  0.17498078795E+03  0.17500549484E+03  0.00000000000E+00 0. -1.
         11    1    1    2    0    0  0.52900818288E+01  0.46458092761E+01 -0.17927194882E+03  0.17941014504E+03  0.00000000000E+00 0. -1.
        -15    1    1    2    0    0  0.19649364495E+01 -0.19592551657E+01  0.20608181487E+01  0.38864323610E+01  0.17770000000E+01 0. -1.
         15    1    1    2    0    0 -0.45985433707E+01 -0.39475913514E+01  0.22303427243E+01  0.66979277599E+01  0.17770000000E+01 0.  1.
</event>
<event>
 6    1  0.1226227E-002  0.1834543E+03  0.7546771E-02  0.1067698E+00
        -11   -1    0    0    0    0  0.00000000000E+00  0.00000000000E+00  0.18250000000E+03  0.18250000000E+03  0.00000000000E+00 0. -1.
         11   -1    0    0    0    0 -0.00000000000E+00 -0.00000000000E+00 -0.18250000000E+03  0.18250000000E+03  0.00000000000E+00 0. -1.
        -11    1    1    2    0    0  0.83629624787E+00  0.29967831601E+01  0.15657257371E+03  0.15660348316E+03  0.00000000000E+00 0. -1.
         11    1    1    2    0    0  0.16326093170E+01  0.34267739391E+01 -0.18150599862E+03  0.18154568496E+03  0.00000000000E+00 0. -1.
        -15    1    1    2    0    0 -0.18182004305E+01 -0.59254693856E+01  0.23643864899E+02  0.24507287011E+02  0.17770000000E+01 0. -1.
         15    1    1    2    0    0 -0.65070513431E+00 -0.49808771362E+00  0.12895600133E+01  0.23435448727E+01  0.17770000000E+01 0. -1.
</event>
<event>
 6    1  0.1226227E-002  0.2114013E+03  0.7546771E-02  0.1047526E+00
        -11   -1    0    0    0    0  0.00000000000E+00  0.00000000000E+00  0.18250000000E+03  0.18250000000E+03  0.00000000000E+00 0. -1.
         11   -1    0    0    0    0 -0.00000000000E+00 -0.00000000000E+00 -0.18250000000E+03  0.18250000000E+03  0.00000000000E+00 0. -1.
        -11    1    1    2    0    0 -0.79963341350E+01 -0.81147605586E+00  0.12247093514E+03  0.12273438723E+03  0.00000000000E+00 0. -1.
         11    1    1    2    0    0 -0.87661078992E+01 -0.25050982549E+02 -0.15128831724E+03  0.15359866961E+03  0.00000000000E+00 0. -1.
        -15    1    1    2    0    0  0.86024263965E+01  0.18178689487E+01  0.52882662108E+02  0.53638046833E+02  0.17770000000E+01 0. -1.
         15    1    1    2    0    0  0.81600156378E+01  0.24044589656E+02 -0.24065280015E+02  0.35028896331E+02  0.17770000000E+01 0. -1.
</event>
<event>
 6    1  0.1226227E-002  0.1781542E+03  0.7546771E-02  0.1071968E+00
        -11   -1    0    0    0    0  0.00000000000E+00  0.00000000000E+00  0.18250000000E+03  0.18250000000E+03  0.00000000000E+00 0.  1.
         11   -1    0    0    0    0 -0.00000000000E+00 -0.00000000000E+00 -0.18250000000E+03  0.18250000000E+03  0.00000000000E+00 0. -1.
        -11    1    1    2    0    0 -0.30331358558E+01 -0.14213818488E+01  0.17785546370E+03  0.17788700405E+03  0.00000000000E+00 0.  1.
         11    1    1    2    0    0  0.53591446543E+01 -0.19564195198E+01 -0.17835417738E+03  0.17844539948E+03  0.00000000000E+00 0. -1.
        -15    1    1    2    0    0 -0.30440653424E+01  0.29756830198E+01 -0.23763009408E+01  0.51889843327E+01  0.17770000000E+01 0.  1.
         15    1    1    2    0    0  0.71805654393E+00  0.40211834871E+00  0.28750146158E+01  0.34786121382E+01  0.17770000000E+01 0. -1.
</event>
<event>
 6    1  0.1226227E-002  0.1840360E+03  0.7546771E-02  0.1067239E+00
        -11   -1    0    0    0    0  0.00000000000E+00  0.00000000000E+00  0.18250000000E+03  0.18250000000E+03  0.00000000000E+00 0.  1.
         11   -1    0    0    0    0 -0.00000000000E+00 -0.00000000000E+00 -0.18250000000E+03  0.18250000000E+03  0.00000000000E+00 0.  1.
        -11    1    1    2    0    0  0.58047902934E+01 -0.21122627726E+01  0.10475814284E+03  0.10494010547E+03  0.00000000000E+00 0.  1.
         11    1    1    2    0    0  0.12308369732E+01 -0.26650959137E+01 -0.18094015310E+03  0.18096396520E+03  0.00000000000E+00 0.  1.
        -15    1    1    2    0    0  0.83211817288E+00 -0.52132805824E+01  0.82071721962E+01  0.99189777469E+01  0.17770000000E+01 0. -1.
         15    1    1    2    0    0 -0.78677454395E+01  0.99906392687E+01  0.67974838067E+02  0.69176951584E+02  0.17770000000E+01 0. -1.
</event>
<event>
 6    1  0.1226227E-002  0.1830088E+03  0.7546771E-02  0.1068051E+00
        -11   -1    0    0    0    0  0.00000000000E+00  0.00000000000E+00  0.18250000000E+03  0.18250000000E+03  0.00000000000E+00 0. -1.
         11   -1    0    0    0    0 -0.00000000000E+00 -0.00000000000E+00 -0.18250000000E+03  0.18250000000E+03  0.00000000000E+00 0. -1.
        -11    1    1    2    0    0  0.17695782999E+01  0.25915024760E+01  0.18196414039E+03  0.18199119671E+03  0.00000000000E+00 0. -1.
         11    1    1    2    0    0  0.29594085782E+01  0.70459871832E+00 -0.14009430517E+02  0.14335923476E+02  0.00000000000E+00 0. -1.
        -15    1    1    2    0    0 -0.49384046573E+01 -0.16073293489E+01 -0.21247896864E+02  0.21945436846E+02  0.17770000000E+01 0.  1.
         15    1    1    2    0    0  0.20941777919E+00 -0.16887718454E+01 -0.14670681301E+03  0.14672744296E+03  0.17770000000E+01 0. -1.
</event>
<event>
 6    1  0.1226227E-002  0.1849927E+03  0.7546771E-02  0.1066488E+00
        -11   -1    0    0    0    0  0.00000000000E+00  0.00000000000E+00  0.18250000000E+03  0.18250000000E+03  0.00000000000E+00 0. -1.
         11   -1    0    0    0    0 -0.00000000000E+00 -0.00000000000E+00 -0.18250000000E+03  0.18250000000E+03  0.00000000000E+00 0.  1.
        -11    1    1    2    0    0  0.41760033312E+01 -0.30529130032E+01  0.17193166108E+03  0.17200946300E+03  0.00000000000E+00 0. -1.
         11    1    1    2    0    0 -0.16745851809E+01  0.18550308039E+01 -0.17998999530E+03  0.18000734369E+03  0.00000000000E+00 0.  1.
        -15    1    1    2    0    0 -0.18807279054E+01  0.16561185907E+01  0.98661967972E+01  0.10333413496E+02  0.17770000000E+01 0.  1.
         15    1    1    2    0    0 -0.62069024492E+00 -0.45823639143E+00 -0.18078625730E+01  0.26497798123E+01  0.17770000000E+01 0.  1.
</event>
<event>
 6    1  0.1226227E-002  0.1767589E+03  0.7546771E-02  0.1073119E+00
        -11   -1    0    0    0    0  0.00000000000E+00  0.00000000000E+00  0.18250000000E+03  0.18250000000E+03  0.00000000000E+00 0. -1.
         11   -1    0    0    0    0 -0.00000000000E+00 -0.00000000000E+00 -0.18250000000E+03  0.18250000000E+03  0.00000000000E+00 0. -1.
        -11    1    1    2    0    0 -0.10245529771E+02  0.11263656673E+01  0.18134293171E+03  0.18163562002E+03  0.00000000000E+00 0. -1.
         11    1    1    2    0    0 -0.84602205826E+00  0.33647583952E-01 -0.12788229973E+02  0.12816228436E+02  0.00000000000E+00 0. -1.
        -15    1    1    2    0    0  0.13014513562E+02 -0.75347939123E+00 -0.43053026832E+02  0.45018508892E+02  0.17770000000E+01 0.  1.
         15    1    1    2    0    0 -0.19229617322E+01 -0.40653386003E+00 -0.12550167490E+03  0.12552964265E+03  0.17770000000E+01 0. -1.
</event>
<event>
 6    1  0.1226227E-002  0.1830905E+03  0.7546771E-02  0.1067986E+00
        -11   -1    0    0    0    0  0.00000000000E+00  0.00000000000E+00  0.18250000000E+03  0.18250000000E+03  0.00000000000E+00 0.  1.
         11   -1    0    0    0    0 -0.00000000000E+00 -0.00000000000E+00 -0.18250000000E+03  0.18250000000E+03  0.00000000000E+00 0. -1.
        -11    1    1    2    0    0  0.18496028963E+01  0.17094108503E+01  0.18189209093E+03  0.18190952658E+03  0.00000000000E+00 0.  1.
         11    1    1    2    0    0  0.15008428130E+01  0.46681128561E+00 -0.28631887263E+02  0.28674996254E+02  0.00000000000E+00 0. -1.
        -15    1    1    2    0    0 -0.20697686201E+01  0.45952663751E+01 -0.12955018174E+03  0.12966035529E+03  0.17770000000E+01 0. -1.
         15    1    1    2    0    0 -0.12806770892E+01 -0.67714885109E+01 -0.23710021927E+02  0.24755121879E+02  0.17770000000E+01 0.  1.
</event>
<event>
 6    1  0.1226227E-002  0.1919020E+03  0.7546771E-02  0.1061208E+00
        -11   -1    0    0    0    0  0.00000000000E+00  0.00000000000E+00  0.18250000000E+03  0.18250000000E+03  0.00000000000E+00 0. -1.
         11   -1    0    0    0    0 -0.00000000000E+00 -0.00000000000E+00 -0.18250000000E+03  0.18250000000E+03  0.00000000000E+00 0. -1.
        -11    1    1    2    0    0 -0.15731769170E+01 -0.13068163999E+02  0.78249980654E+02  0.79349299104E+02  0.00000000000E+00 0. -1.
         11    1    1    2    0    0 -0.13555255851E+02 -0.38942527068E+01 -0.17252246214E+03  0.17309797835E+03  0.00000000000E+00 0. -1.
        -15    1    1    2    0    0  0.23925944376E+01  0.45967217136E+01  0.94551845821E+02  0.94710419890E+02  0.17770000000E+01 0.  1.
         15    1    1    2    0    0  0.12735838330E+02  0.12365694992E+02 -0.27936433310E+00  0.17842302656E+02  0.17770000000E+01 0. -1.
</event>
<event>
 6    1  0.1226227E-002  0.1833770E+03  0.7546771E-02  0.1067759E+00
        -11   -1    0    0    0    0  0.00000000000E+00  0.00000000000E+00  0.18250000000E+03  0.18250000000E+03  0.00000000000E+00 0. -1.
         11   -1    0    0    0    0 -0.00000000000E+00 -0.00000000000E+00 -0.18250000000E+03  0.18250000000E+03  0.00000000000E+00 0.  1.
        -11    1    1    2    0    0 -0.36395349668E+01 -0.42101722920E+01  0.18153773631E+03  0.18162302021E+03  0.00000000000E+00 0. -1.
         11    1    1    2    0    0  0.68857205056E+01 -0.23135665177E+01 -0.12040824225E+03  0.12062715506E+03  0.00000000000E+00 0.  1.
        -15    1    1    2    0    0  0.82167715524E+00  0.39062452400E+01 -0.62328644124E+01  0.76118481991E+01  0.17770000000E+01 0.  1.
         15    1    1    2    0    0 -0.40678626941E+01  0.26174935696E+01 -0.54896629651E+02  0.55137976527E+02  0.17770000000E+01 0. -1.
</event>
<event>
 6    1  0.1226227E-002  0.1839231E+03  0.7546771E-02  0.1067328E+00
        -11   -1    0    0    0    0  0.00000000000E+00  0.00000000000E+00  0.18250000000E+03  0.18250000000E+03  0.00000000000E+00 0.  1.
         11   -1    0    0    0    0 -0.00000000000E+00 -0.00000000000E+00 -0.18250000000E+03  0.18250000000E+03  0.00000000000E+00 0. -1.
        -11    1    1    2    0    0 -0.58446738178E+00  0.36901854506E+01  0.16063875979E+03  0.16068220256E+03  0.00000000000E+00 0.  1.
         11    1    1    2    0    0  0.35026165575E+01  0.47866377678E+01 -0.18097969131E+03  0.18107685907E+03  0.00000000000E+00 0. -1.
        -15    1    1    2    0    0 -0.31717682008E+01 -0.47719480309E+01  0.67045942227E+01  0.89967168579E+01  0.17770000000E+01 0.  1.
         15    1    1    2    0    0  0.25361902516E+00 -0.37048751875E+01  0.13636337296E+02  0.14244221517E+02  0.17770000000E+01 0.  1.
</event>
<event>
 6    1  0.1226227E-002  0.1866299E+03  0.7546771E-02  0.1065214E+00
        -11   -1    0    0    0    0  0.00000000000E+00  0.00000000000E+00  0.18250000000E+03  0.18250000000E+03  0.00000000000E+00 0.  1.
         11   -1    0    0    0    0 -0.00000000000E+00 -0.00000000000E+00 -0.18250000000E+03  0.18250000000E+03  0.00000000000E+00 0. -1.
        -11    1    1    2    0    0 -0.48414364612E+01 -0.22717509264E+01  0.16616678874E+03  0.16625282566E+03  0.00000000000E+00 0.  1.
         11    1    1    2    0    0 -0.55460629196E+01 -0.65153711462E+01 -0.17816471822E+03  0.17837005268E+03  0.00000000000E+00 0. -1.
        -15    1    1    2    0    0  0.14547435161E+01  0.62706310506E+00  0.65886917780E+01  0.70055745790E+01  0.17770000000E+01 0.  1.
         15    1    1    2    0    0  0.89327558646E+01  0.81600589676E+01  0.54092377006E+01  0.13371547075E+02  0.17770000000E+01 0. -1.
</event>
<event>
 6    1  0.1226227E-002  0.1687058E+03  0.7546771E-02  0.1079998E+00
        -11   -1    0    0    0    0  0.00000000000E+00  0.00000000000E+00  0.18250000000E+03  0.18250000000E+03  0.00000000000E+00 0. -1.
         11   -1    0    0    0    0 -0.00000000000E+00 -0.00000000000E+00 -0.18250000000E+03  0.18250000000E+03  0.00000000000E+00 0. -1.
        -11    1    1    2    0    0  0.13862574208E+02  0.28140701987E+01  0.16572740269E+03  0.16632997913E+03  0.00000000000E+00 0. -1.
         11    1    1    2    0    0  0.74314854528E+00 -0.53207268553E+01 -0.17136987878E+03  0.17145406895E+03  0.00000000000E+00 0. -1.
        -15    1    1    2    0    0 -0.18066285892E+01 -0.84173877131E+01 -0.13756666492E+01  0.88975564343E+01  0.17770000000E+01 0.  1.
         15    1    1    2    0    0 -0.12799094164E+02  0.10924044370E+02  0.70181427439E+01  0.18318395491E+02  0.17770000000E+01 0. -1.
</event>
<event>
 6    1  0.1226227E-002  0.1840337E+03  0.7546771E-02  0.1067240E+00
        -11   -1    0    0    0    0  0.00000000000E+00  0.00000000000E+00  0.18250000000E+03  0.18250000000E+03  0.00000000000E+00 0. -1.
         11   -1    0    0    0    0 -0.00000000000E+00 -0.00000000000E+00 -0.18250000000E+03  0.18250000000E+03  0.00000000000E+00 0. -1.
        -11    1    1    2    0    0  0.30642242583E+01 -0.15733476997E+02  0.18025500711E+03  0.18096629343E+03  0.00000000000E+00 0. -1.
         11    1    1    2    0    0  0.36796099409E+01 -0.77339539708E+00 -0.48913464500E+02  0.49057768795E+02  0.00000000000E+00 0. -1.
        -15    1    1    2    0    0  0.13373579142E+00 -0.33174511263E+01 -0.70360646853E+02  0.70461349134E+02  0.17770000000E+01 0. -1.
         15    1    1    2    0    0 -0.68775699906E+01  0.19824323520E+02 -0.60980895755E+02  0.64514588645E+02  0.17770000000E+01 0.  1.
</event>
<event>
 6    1  0.1226227E-002  0.1833692E+03  0.7546771E-02  0.1067765E+00
        -11   -1    0    0    0    0  0.00000000000E+00  0.00000000000E+00  0.18250000000E+03  0.18250000000E+03  0.00000000000E+00 0.  1.
         11   -1    0    0    0    0 -0.00000000000E+00 -0.00000000000E+00 -0.18250000000E+03  0.18250000000E+03  0.00000000000E+00 0. -1.
        -11    1    1    2    0    0 -0.31522612218E+01 -0.21917328951E+01  0.17124977973E+03  0.17129281217E+03  0.00000000000E+00 0.  1.
         11    1    1    2    0    0  0.16948867878E+01  0.37313464964E+01 -0.18158460592E+03  0.18163084731E+03  0.00000000000E+00 0. -1.
        -15    1    1    2    0    0 -0.13426877669E+01 -0.14753543720E+00  0.19938155009E+01  0.29929260593E+01  0.17770000000E+01 0. -1.
         15    1    1    2    0    0  0.28000622010E+01 -0.13920781641E+01  0.83410106896E+01  0.90834144609E+01  0.17770000000E+01 0.  1.
</event>
<event>
 6    1  0.1226227E-002  0.1827567E+03  0.7546771E-02  0.1068251E+00
        -11   -1    0    0    0    0  0.00000000000E+00  0.00000000000E+00  0.18250000000E+03  0.18250000000E+03  0.00000000000E+00 0. -1.
         11   -1    0    0    0    0 -0.00000000000E+00 -0.00000000000E+00 -0.18250000000E+03  0.18250000000E+03  0.00000000000E+00 0.  1.
        -11    1    1    2    0    0 -0.56322989271E+01  0.49813492316E+00  0.18215560948E+03  0.18224334554E+03  0.00000000000E+00 0. -1.
         11    1    1    2    0    0  0.54598423802E+00  0.40715052110E-03 -0.21921514425E+02  0.21928312603E+02  0.00000000000E+00 0.  1.
        -15    1    1    2    0    0  0.38629678834E+01  0.53361310239E+01 -0.10984565889E+03  0.11005736377E+03  0.17770000000E+01 0. -1.
         15    1    1    2    0    0  0.12233468057E+01 -0.58346730976E+01 -0.50388436164E+02  0.50770978084E+02  0.17770000000E+01 0.  1.
</event>
<event>
 6    1  0.1226227E-002  0.1742530E+03  0.7546771E-02  0.1075216E+00
        -11   -1    0    0    0    0  0.00000000000E+00  0.00000000000E+00  0.18250000000E+03  0.18250000000E+03  0.00000000000E+00 0. -1.
         11   -1    0    0    0    0 -0.00000000000E+00 -0.00000000000E+00 -0.18250000000E+03  0.18250000000E+03  0.00000000000E+00 0.  1.
        -11    1    1    2    0    0  0.40352437458E+01 -0.76790975393E+00  0.17425730265E+03  0.17430570961E+03  0.00000000000E+00 0. -1.
         11    1    1    2    0    0 -0.61398004166E+01 -0.24886973728E+01 -0.17409581897E+03  0.17422182684E+03  0.00000000000E+00 0.  1.
        -15    1    1    2    0    0 -0.45819529461E+01  0.30381664518E+01 -0.53087738169E+01  0.78463721954E+01  0.17770000000E+01 0. -1.
         15    1    1    2    0    0  0.66865096169E+01  0.21844067495E+00  0.51472901397E+01  0.86260913494E+01  0.17770000000E+01 0.  1.
</event>
<event>
 6    1  0.1226227E-002  0.1839398E+03  0.7546771E-02  0.1067315E+00
        -11   -1    0    0    0    0  0.00000000000E+00  0.00000000000E+00  0.18250000000E+03  0.18250000000E+03  0.00000000000E+00 0. -1.
         11   -1    0    0    0    0 -0.00000000000E+00 -0.00000000000E+00 -0.18250000000E+03  0.18250000000E+03  0.00000000000E+00 0. -1.
        -11    1    1    2    0    0 -0.41029299882E+01 -0.18808605692E+01  0.15369378548E+03  0.15376004476E+03  0.00000000000E+00 0. -1.
         11    1    1    2    0    0  0.19673678818E+01  0.15564568152E+01 -0.18104285783E+03  0.18106023711E+03  0.00000000000E+00 0. -1.
        -15    1    1    2    0    0  0.22970594863E+01 -0.12574407376E+01  0.47510916603E+00  0.32001714348E+01  0.17770000000E+01 0.  1.
         15    1    1    2    0    0 -0.16149738000E+00  0.15818444916E+01  0.26873963184E+02  0.26979546690E+02  0.17770000000E+01 0.  1.
</event>
<event>
 6    1  0.1226227E-002  0.1757413E+03  0.7546771E-02  0.1073966E+00
        -11   -1    0    0    0    0  0.00000000000E+00  0.00000000000E+00  0.18250000000E+03  0.18250000000E+03  0.00000000000E+00 0.  1.
         11   -1    0    0    0    0 -0.00000000000E+00 -0.00000000000E+00 -0.18250000000E+03  0.18250000000E+03  0.00000000000E+00 0.  1.
        -11    1    1    2    0    0  0.43806903781E+01 -0.86292050321E+00  0.17588185571E+03  0.17593851837E+03  0.00000000000E+00 0.  1.
         11    1    1    2    0    0  0.90800704196E+00  0.25345755974E+01 -0.17556742660E+03  0.17558806860E+03  0.00000000000E+00 0.  1.
        -15    1    1    2    0    0 -0.69607436094E+01  0.33110727918E+01  0.87742102374E-01  0.79107889812E+01  0.17770000000E+01 0.  1.
         15    1    1    2    0    0  0.16720461893E+01 -0.49827278859E+01 -0.40217121004E+00  0.55626240504E+01  0.17770000000E+01 0. -1.
</event>
<event>
 6    1  0.1226227E-002  0.1940086E+03  0.7546771E-02  0.1059646E+00
        -11   -1    0    0    0    0  0.00000000000E+00  0.00000000000E+00  0.18250000000E+03  0.18250000000E+03  0.00000000000E+00 0. -1.
         11   -1    0    0    0    0 -0.00000000000E+00 -0.00000000000E+00 -0.18250000000E+03  0.18250000000E+03  0.00000000000E+00 0. -1.
        -11    1    1    2    0    0 -0.34574718807E+01 -0.76832574618E+00  0.17095470424E+03  0.17099138966E+03  0.00000000000E+00 0. -1.
         11    1    1    2    0    0  0.19548789939E+01 -0.11829483462E+01 -0.16615023845E+03  0.16616594915E+03  0.00000000000E+00 0. -1.
        -15    1    1    2    0    0 -0.55085049043E+01 -0.29278595966E+01 -0.13838642407E+02  0.15283381196E+02  0.17770000000E+01 0.  1.
         15    1    1    2    0    0  0.70110977912E+01  0.48791336889E+01  0.90341766256E+01  0.12559279999E+02  0.17770000000E+01 0. -1.
</event>
<event>
 6    1  0.1226227E-002  0.1847062E+03  0.7546771E-02  0.1066712E+00
        -11   -1    0    0    0    0  0.00000000000E+00  0.00000000000E+00  0.18250000000E+03  0.18250000000E+03  0.00000000000E+00 0. -1.
         11   -1    0    0    0    0 -0.00000000000E+00 -0.00000000000E+00 -0.18250000000E+03  0.18250000000E+03  0.00000000000E+00 0.  1.
        -11    1    1    2    0    0 -0.18173369848E+01  0.29674345378E+01  0.14949394537E+03  0.14953443778E+03  0.00000000000E+00 0. -1.
         11    1    1    2    0    0 -0.91639410426E+01  0.16930671214E+01 -0.18005276254E+03  0.18029376470E+03  0.00000000000E+00 0.  1.
        -15    1    1    2    0    0  0.22592855390E+01 -0.12307801737E+01 -0.33276883083E-01  0.31269837438E+01  0.17770000000E+01 0. -1.
         15    1    1    2    0    0  0.87219924884E+01 -0.34297214855E+01  0.30592094052E+02  0.32044813776E+02  0.17770000000E+01 0.  1.
</event>
<event>
 6    1  0.1226227E-002  0.1837041E+03  0.7546771E-02  0.1067500E+00
        -11   -1    0    0    0    0  0.00000000000E+00  0.00000000000E+00  0.18250000000E+03  0.18250000000E+03  0.00000000000E+00 0. -1.
         11   -1    0    0    0    0 -0.00000000000E+00 -0.00000000000E+00 -0.18250000000E+03  0.18250000000E+03  0.00000000000E+00 0. -1.
        -11    1    1    2    0    0  0.43911048594E+00 -0.93385397318E+00  0.74077532379E+02  0.74084719778E+02  0.00000000000E+00 0. -1.
         11    1    1    2    0    0 -0.92919962113E+01 -0.49928438695E+01 -0.18098871780E+03  0.18129585118E+03  0.00000000000E+00 0. -1.
        -15    1    1    2    0    0 -0.24875742522E+01 -0.21961013532E+00  0.76204954361E+02  0.76266565757E+02  0.17770000000E+01 0. -1.
         15    1    1    2    0    0  0.11340459978E+02  0.61463079780E+01  0.30706231062E+02  0.33352863285E+02  0.17770000000E+01 0.  1.
</event>
<event>
 6    1  0.1226227E-002  0.1785030E+03  0.7546771E-02  0.1071682E+00
        -11   -1    0    0    0    0  0.00000000000E+00  0.00000000000E+00  0.18250000000E+03  0.18250000000E+03  0.00000000000E+00 0.  1.
         11   -1    0    0    0    0 -0.00000000000E+00 -0.00000000000E+00 -0.18250000000E+03  0.18250000000E+03  0.00000000000E+00 0.  1.
        -11    1    1    2    0    0 -0.28127398471E+01 -0.65318870131E+00  0.17744957737E+03  0.17747307027E+03  0.00000000000E+00 0.  1.
         11    1    1    2    0    0 -0.25965007838E+01  0.31115544702E+00 -0.17956132129E+03  0.17958036289E+03  0.00000000000E+00 0.  1.
        -15    1    1    2    0    0  0.47377657706E+01 -0.35125970502E+00  0.69739328335E-01  0.50727113511E+01  0.17770000000E+01 0. -1.
         15    1    1    2    0    0  0.67147486027E+00  0.69329295932E+00  0.20420045907E+01  0.28738554877E+01  0.17770000000E+01 0.  1.
</event>
<event>
 6    1  0.1226227E-002  0.1863849E+03  0.7546771E-02  0.1065404E+00
        -11   -1    0    0    0    0  0.00000000000E+00  0.00000000000E+00  0.18250000000E+03  0.18250000000E+03  0.00000000000E+00 0. -1.
         11   -1    0    0    0    0 -0.00000000000E+00 -0.00000000000E+00 -0.18250000000E+03  0.18250000000E+03  0.00000000000E+00 0.  1.
        -11    1    1    2    0    0 -0.42353361286E+00 -0.42234117995E+01  0.17856468441E+03  0.17861512564E+03  0.00000000000E+00 0. -1.
         11    1    1    2    0    0 -0.19165626301E+01 -0.55994669563E+01 -0.16957288528E+03  0.16967613464E+03  0.00000000000E+00 0.  1.
        -15    1    1    2    0    0 -0.12839541246E+01 -0.53982180686E+00 -0.38350442871E+01  0.44503077939E+01  0.17770000000E+01 0.  1.
         15    1    1    2    0    0  0.36240503675E+01  0.10362700563E+02 -0.51567548403E+01  0.12258431935E+02  0.17770000000E+01 0. -1.
</event>
<event>
 6    1  0.1226227E-002  0.1832229E+03  0.7546771E-02  0.1067881E+00
        -11   -1    0    0    0    0  0.00000000000E+00  0.00000000000E+00  0.18250000000E+03  0.18250000000E+03  0.00000000000E+00 0. -1.
         11   -1    0    0    0    0 -0.00000000000E+00 -0.00000000000E+00 -0.18250000000E+03  0.18250000000E+03  0.00000000000E+00 0.  1.
        -11    1    1    2    0    0 -0.71534212645E+00  0.79161784826E+01  0.18160328235E+03  0.18177714311E+03  0.00000000000E+00 0. -1.
         11    1    1    2    0    0 -0.14240756733E+01  0.12424085831E+00 -0.84077901445E+02  0.84090052555E+02  0.00000000000E+00 0.  1.
        -15    1    1    2    0    0 -0.38053061943E+01 -0.99226723427E+01 -0.48628991874E+02  0.49808396494E+02  0.17770000000E+01 0.  1.
         15    1    1    2    0    0  0.59447239941E+01  0.18822530019E+01 -0.48896389032E+02  0.49324407843E+02  0.17770000000E+01 0.  1.
</event>
<event>
 6    1  0.1226227E-002  0.1834525E+03  0.7546771E-02  0.1067699E+00
        -11   -1    0    0    0    0  0.00000000000E+00  0.00000000000E+00  0.18250000000E+03  0.18250000000E+03  0.00000000000E+00 0. -1.
         11   -1    0    0    0    0 -0.00000000000E+00 -0.00000000000E+00 -0.18250000000E+03  0.18250000000E+03  0.00000000000E+00 0. -1.
        -11    1    1    2    0    0  0.49521653856E+01  0.17078967882E+01  0.18147189538E+03  0.18154748598E+03  0.00000000000E+00 0. -1.
         11    1    1    2    0    0  0.23592473853E+01 -0.90500940733E+00 -0.12662662449E+03  0.12665183426E+03  0.00000000000E+00 0. -1.
        -15    1    1    2    0    0 -0.28767751406E+01  0.12124584417E+01 -0.48379352807E+02  0.48512528255E+02  0.17770000000E+01 0.  1.
         15    1    1    2    0    0 -0.44346376303E+01 -0.20153458226E+01 -0.64659180802E+01  0.82881515018E+01  0.17770000000E+01 0.  1.
</event>
<event>
 6    1  0.1226227E-002  0.1848365E+03  0.7546771E-02  0.1066610E+00
        -11   -1    0    0    0    0  0.00000000000E+00  0.00000000000E+00  0.18250000000E+03  0.18250000000E+03  0.00000000000E+00 0.  1.
         11   -1    0    0    0    0 -0.00000000000E+00 -0.00000000000E+00 -0.18250000000E+03  0.18250000000E+03  0.00000000000E+00 0. -1.
        -11    1    1    2    0    0 -0.37520177140E+01 -0.84510053958E+00  0.48858202905E+02  0.49009344241E+02  0.00000000000E+00 0.  1.
         11    1    1    2    0    0 -0.57366400594E+01  0.69227721561E+01 -0.17993898703E+03  0.18016346152E+03  0.00000000000E+00 0. -1.
        -15    1    1    2    0    0  0.12737688711E+02 -0.14040994658E+02  0.39750126587E+02  0.44075259924E+02  0.17770000000E+01 0.  1.
         15    1    1    2    0    0 -0.32490309381E+01  0.79633230415E+01  0.91330657536E+02  0.91751934317E+02  0.17770000000E+01 0. -1.
</event>
<event>
 6    1  0.1226227E-002  0.1906407E+03  0.7546771E-02  0.1062153E+00
        -11   -1    0    0    0    0  0.00000000000E+00  0.00000000000E+00  0.18250000000E+03  0.18250000000E+03  0.00000000000E+00 0. -1.
         11   -1    0    0    0    0 -0.00000000000E+00 -0.00000000000E+00 -0.18250000000E+03  0.18250000000E+03  0.00000000000E+00 0.  1.
        -11    1    1    2    0    0 -0.68441590406E+00  0.62949734960E+00  0.45817396436E+02  0.45826831749E+02  0.00000000000E+00 0. -1.
         11    1    1    2    0    0 -0.10492452297E+02 -0.43516438894E+00 -0.17404279126E+03  0.17435932471E+03  0.00000000000E+00 0.  1.
        -15    1    1    2    0    0  0.48253500237E+01 -0.18990033278E+01  0.13505585469E+03  0.13516705158E+03  0.17770000000E+01 0. -1.
         15    1    1    2    0    0  0.63515181777E+01  0.17046703672E+01 -0.68304598663E+01  0.96467919646E+01  0.17770000000E+01 0.  1.
</event>
<event>
 6    1  0.1226227E-002  0.1849440E+03  0.7546771E-02  0.1066526E+00
        -11   -1    0    0    0    0  0.00000000000E+00  0.00000000000E+00  0.18250000000E+03  0.18250000000E+03  0.00000000000E+00 0. -1.
         11   -1    0    0    0    0 -0.00000000000E+00 -0.00000000000E+00 -0.18250000000E+03  0.18250000000E+03  0.00000000000E+00 0.  1.
        -11    1    1    2    0    0  0.56787059052E+01  0.26531602508E+01  0.17994688461E+03  0.18005601418E+03  0.00000000000E+00 0. -1.
         11    1    1    2    0    0 -0.30896205145E+01  0.31126135834E+01 -0.12647695306E+03  0.12655296826E+03  0.00000000000E+00 0.  1.
        -15    1    1    2    0    0 -0.24418279381E+01  0.33973827848E+01 -0.46548593269E+02  0.46770011736E+02  0.17770000000E+01 0.  1.
         15    1    1    2    0    0 -0.14725745262E+00 -0.91631566191E+01 -0.69213382771E+01  0.11621005831E+02  0.17770000000E+01 0. -1.
</event>
<event>
 6    1  0.1226227E-002  0.1989955E+03  0.7546771E-02  0.1056033E+00
        -11   -1    0    0    0    0  0.00000000000E+00  0.00000000000E+00  0.18250000000E+03  0.18250000000E+03  0.00000000000E+00 0.  1.
         11   -1    0    0    0    0 -0.00000000000E+00 -0.00000000000E+00 -0.18250000000E+03  0.18250000000E+03  0.00000000000E+00 0. -1.
        -11    1    1    2    0    0  0.98527322437E+01  0.15756753696E+02  0.16496105233E+03  0.16600451924E+03  0.00000000000E+00 0.  1.
         11    1    1    2    0    0 -0.11008705000E+02 -0.21817720787E+01 -0.14861899416E+03  0.14904213210E+03  0.00000000000E+00 0. -1.
        -15    1    1    2    0    0 -0.16403062792E+02 -0.10664396408E+02  0.67240544163E+01  0.20764403591E+02  0.17770000000E+01 0.  1.
         15    1    1    2    0    0  0.17559035549E+02 -0.29105852092E+01 -0.23066112593E+02  0.29188945078E+02  0.17770000000E+01 0. -1.
</event>
<event>
 6    1  0.1226227E-002  0.1853796E+03  0.7546771E-02  0.1066185E+00
        -11   -1    0    0    0    0  0.00000000000E+00  0.00000000000E+00  0.18250000000E+03  0.18250000000E+03  0.00000000000E+00 0. -1.
         11   -1    0    0    0    0 -0.00000000000E+00 -0.00000000000E+00 -0.18250000000E+03  0.18250000000E+03  0.00000000000E+00 0. -1.
        -11    1    1    2    0    0  0.29886321697E+01  0.20645076635E+01  0.17958364157E+03  0.17962037310E+03  0.00000000000E+00 0. -1.
         11    1    1    2    0    0 -0.40319040483E+01  0.22932285671E+01 -0.17215306507E+03  0.17221554216E+03  0.00000000000E+00 0. -1.
        -15    1    1    2    0    0  0.27289730583E+01 -0.16761481200E+01 -0.86009667038E+01  0.93483219731E+01  0.17770000000E+01 0.  1.
         15    1    1    2    0    0 -0.16857011797E+01 -0.26815881106E+01  0.11703902010E+01  0.38157627658E+01  0.17770000000E+01 0. -1.
</event>
<event>
 6    1  0.1226227E-002  0.1826385E+03  0.7546771E-02  0.1068345E+00
        -11   -1    0    0    0    0  0.00000000000E+00  0.00000000000E+00  0.18250000000E+03  0.18250000000E+03  0.00000000000E+00 0.  1.
         11   -1    0    0    0    0 -0.00000000000E+00 -0.00000000000E+00 -0.18250000000E+03  0.18250000000E+03  0.00000000000E+00 0. -1.
        -11    1    1    2    0    0 -0.18992956083E+01  0.17007029185E+01  0.18234366924E+03  0.18236149107E+03  0.00000000000E+00 0.  1.
         11    1    1    2    0    0  0.23331475109E+00 -0.14968457366E+01 -0.10585144677E+03  0.10586228680E+03  0.00000000000E+00 0. -1.
        -15    1    1    2    0    0  0.17827138205E+01 -0.24695636048E+01 -0.32783416007E+02  0.32972517450E+02  0.17770000000E+01 0. -1.
         15    1    1    2    0    0 -0.11673296334E+00  0.22657064229E+01 -0.43708806464E+02  0.43803704680E+02  0.17770000000E+01 0. -1.
</event>
<event>
 6    1  0.1226227E-002  0.1840803E+03  0.7546771E-02  0.1067204E+00
        -11   -1    0    0    0    0  0.00000000000E+00  0.00000000000E+00  0.18250000000E+03  0.18250000000E+03  0.00000000000E+00 0. -1.
         11   -1    0    0    0    0 -0.00000000000E+00 -0.00000000000E+00 -0.18250000000E+03  0.18250000000E+03  0.00000000000E+00 0. -1.
        -11    1    1    2    0    0 -0.22609439671E+01 -0.20316903585E+01  0.17544761561E+03  0.17547394524E+03  0.00000000000E+00 0. -1.
         11    1    1    2    0    0  0.19577617552E+01  0.31851886424E+01 -0.18088106171E+03  0.18091969694E+03  0.00000000000E+00 0. -1.
        -15    1    1    2    0    0  0.13603419749E+01 -0.26425647884E+01  0.11993467391E+01  0.36646746855E+01  0.17770000000E+01 0.  1.
         15    1    1    2    0    0 -0.10571597630E+01  0.14890665045E+01  0.42340993554E+01  0.49416831313E+01  0.17770000000E+01 0. -1.
</event>
<event>
 6    1  0.1226227E-002  0.1833783E+03  0.7546771E-02  0.1067758E+00
        -11   -1    0    0    0    0  0.00000000000E+00  0.00000000000E+00  0.18250000000E+03  0.18250000000E+03  0.00000000000E+00 0. -1.
         11   -1    0    0    0    0 -0.00000000000E+00 -0.00000000000E+00 -0.18250000000E+03  0.18250000000E+03  0.00000000000E+00 0. -1.
        -11    1    1    2    0    0 -0.48715230385E+00 -0.26099596094E+01  0.18160225751E+03  0.18162166484E+03  0.00000000000E+00 0. -1.
         11    1    1    2    0    0  0.40707213296E+01 -0.46818631645E+01 -0.13567512511E+03  0.13581689950E+03  0.00000000000E+00 0. -1.
        -15    1    1    2    0    0 -0.84200142997E+00  0.28524886284E+01 -0.36324117960E+02  0.36488970010E+02  0.17770000000E+01 0. -1.
         15    1    1    2    0    0 -0.27415675958E+01  0.44393341456E+01 -0.96030144354E+01  0.11072465660E+02  0.17770000000E+01 0.  1.
</event>
<event>
 6    1  0.1226227E-002  0.1748336E+03  0.7546771E-02  0.1074726E+00
        -11   -1    0    0    0    0  0.00000000000E+00  0.00000000000E+00  0.18250000000E+03  0.18250000000E+03  0.00000000000E+00 0.  1.
         11   -1    0    0    0    0 -0.00000000000E+00 -0.00000000000E+00 -0.18250000000E+03  0.18250000000E+03  0.00000000000E+00 0. -1.
        -11    1    1    2    0    0 -0.44020347178E+01  0.61843897937E+00  0.17458562572E+03  0.17464220878E+03  0.00000000000E+00 0.  1.
         11    1    1    2    0    0 -0.27817896896E+01 -0.10139245753E+01 -0.17507433344E+03  0.17509936786E+03  0.00000000000E+00 0. -1.
        -15    1    1    2    0    0  0.15910743858E+01  0.25139352060E+00 -0.60280731626E+01  0.64876892232E+01  0.17770000000E+01 0.  1.
         15    1    1    2    0    0  0.55927500216E+01  0.14409207532E+00  0.65167808764E+01  0.87707341381E+01  0.17770000000E+01 0. -1.
</event>
<event>
 6    1  0.1226227E-002  0.1844475E+03  0.7546771E-02  0.1066915E+00
        -11   -1    0    0    0    0  0.00000000000E+00  0.00000000000E+00  0.18250000000E+03  0.18250000000E+03  0.00000000000E+00 0.  1.
         11   -1    0    0    0    0 -0.00000000000E+00 -0.00000000000E+00 -0.18250000000E+03  0.18250000000E+03  0.00000000000E+00 0.  1.
        -11    1    1    2    0    0 -0.67412102974E+01 -0.33195120850E+01  0.18039607281E+03  0.18055250251E+03  0.00000000000E+00 0.  1.
         11    1    1    2    0    0  0.23613774823E+01 -0.29300729053E+01 -0.11885711666E+03  0.11891667507E+03  0.00000000000E+00 0.  1.
        -15    1    1    2    0    0 -0.20630944374E+00  0.78740004366E+00 -0.56693466642E+02  0.56727149155E+02  0.17770000000E+01 0. -1.
         15    1    1    2    0    0  0.45861422588E+01  0.54621849466E+01 -0.48454895159E+01  0.88036732593E+01  0.17770000000E+01 0. -1.
</event>
<event>
 6    1  0.1226227E-002  0.1826363E+03  0.7546771E-02  0.1068346E+00
        -11   -1    0    0    0    0  0.00000000000E+00  0.00000000000E+00  0.18250000000E+03  0.18250000000E+03  0.00000000000E+00 0.  1.
         11   -1    0    0    0    0 -0.00000000000E+00 -0.00000000000E+00 -0.18250000000E+03  0.18250000000E+03  0.00000000000E+00 0. -1.
        -11    1    1    2    0    0  0.18709714345E+01  0.16042623776E+01  0.18234704491E+03  0.18236369973E+03  0.00000000000E+00 0.  1.
         11    1    1    2    0    0 -0.41491722819E+00 -0.20568484096E+01 -0.62767449205E+02  0.62802511585E+02  0.00000000000E+00 0. -1.
        -15    1    1    2    0    0 -0.57572165771E+00 -0.23708608922E+01 -0.23604337269E+02  0.23796531337E+02  0.17770000000E+01 0. -1.
         15    1    1    2    0    0 -0.88033254857E+00  0.28234469242E+01 -0.95975258436E+02  0.96037257348E+02  0.17770000000E+01 0.  1.
</event>
<event>
 6    1  0.1226227E-002  0.1831907E+03  0.7546771E-02  0.1067906E+00
        -11   -1    0    0    0    0  0.00000000000E+00  0.00000000000E+00  0.18250000000E+03  0.18250000000E+03  0.00000000000E+00 0. -1.
         11   -1    0    0    0    0 -0.00000000000E+00 -0.00000000000E+00 -0.18250000000E+03  0.18250000000E+03  0.00000000000E+00 0.  1.
        -11    1    1    2    0    0  0.49704642932E+01  0.60373460806E+01  0.18164108493E+03  0.18180934739E+03  0.00000000000E+00 0. -1.
         11    1    1    2    0    0  0.81132705416E+00 -0.21115230040E+01 -0.12087838655E+03  0.12089954969E+03  0.00000000000E+00 0.  1.
        -15    1    1    2    0    0 -0.34883060406E+01 -0.58416411582E+01 -0.17090017446E+02  0.18480245554E+02  0.17770000000E+01 0.  1.
         15    1    1    2    0    0 -0.22934853067E+01  0.19158180816E+01 -0.43672680937E+02  0.43810857364E+02  0.17770000000E+01 0. -1.
</event>
<event>
 6    1  0.1226227E-002  0.1831049E+03  0.7546771E-02  0.1067974E+00
        -11   -1    0    0    0    0  0.00000000000E+00  0.00000000000E+00  0.18250000000E+03  0.18250000000E+03  0.00000000000E+00 0.  1.
         11   -1    0    0    0    0 -0.00000000000E+00 -0.00000000000E+00 -0.18250000000E+03  0.18250000000E+03  0.00000000000E+00 0.  1.
        -11    1    1    2    0    0 -0.27946095680E+01  0.61170789613E+00  0.16230008089E+03  0.16232529158E+03  0.00000000000E+00 0.  1.
         11    1    1    2    0    0  0.40209736058E+01  0.48146625304E+01 -0.18178694464E+03  0.18189514134E+03  0.00000000000E+00 0.  1.
        -15    1    1    2    0    0 -0.53966610062E+00 -0.48080370627E+01  0.15143976601E+02  0.15997068988E+02  0.17770000000E+01 0. -1.
         15    1    1    2    0    0 -0.68669793724E+00 -0.61833336383E+00  0.43428871496E+01  0.47824980920E+01  0.17770000000E+01 0. -1.
</event>
<event>
 6    1  0.1226227E-002  0.1835430E+03  0.7546771E-02  0.1067628E+00
        -11   -1    0    0    0    0  0.00000000000E+00  0.00000000000E+00  0.18250000000E+03  0.18250000000E+03  0.00000000000E+00 0.  1.
         11   -1    0    0    0    0 -0.00000000000E+00 -0.00000000000E+00 -0.18250000000E+03  0.18250000000E+03  0.00000000000E+00 0.  1.
        -11    1    1    2    0    0  0.14784310618E+01 -0.32794241982E+01  0.15581515247E+03  0.15585667172E+03  0.00000000000E+00 0.  1.
         11    1    1    2    0    0 -0.22831056305E+01  0.15975788530E+01 -0.18143557179E+03  0.18145696884E+03  0.00000000000E+00 0.  1.
        -15    1    1    2    0    0 -0.30188484445E+01  0.21460689056E+01  0.21065035411E+02  0.21461884902E+02  0.17770000000E+01 0.  1.
         15    1    1    2    0    0  0.38235230132E+01 -0.46422356032E+00  0.45553839118E+01  0.62244745425E+01  0.17770000000E+01 0. -1.
</event>
<event>
 6    1  0.1226227E-002  0.1890813E+03  0.7546771E-02  0.1063334E+00
        -11   -1    0    0    0    0  0.00000000000E+00  0.00000000000E+00  0.18250000000E+03  0.18250000000E+03  0.00000000000E+00 0.  1.
         11   -1    0    0    0    0 -0.00000000000E+00 -0.00000000000E+00 -0.18250000000E+03  0.18250000000E+03  0.00000000000E+00 0. -1.
        -11    1    1    2    0    0 -0.37646041262E+01 -0.10554447241E-01  0.16387689824E+03  0.16392013340E+03  0.00000000000E+00 0.  1.
         11    1    1    2    0    0 -0.83053388956E+01  0.68628810645E+01 -0.17558849338E+03  0.17591872214E+03  0.00000000000E+00 0. -1.
        -15    1    1    2    0    0  0.11299586124E+01  0.25431304581E+01  0.99998295123E+01  0.10530842239E+02  0.17770000000E+01 0.  1.
         15    1    1    2    0    0  0.10939984409E+02 -0.93954570754E+01  0.17117656300E+01  0.14630302222E+02  0.17770000000E+01 0. -1.
</event>
<event>
 6    1  0.1226227E-002  0.1846176E+03  0.7546771E-02  0.1066782E+00
        -11   -1    0    0    0    0  0.00000000000E+00  0.00000000000E+00  0.18250000000E+03  0.18250000000E+03  0.00000000000E+00 0. -1.
         11   -1    0    0    0    0 -0.00000000000E+00 -0.00000000000E+00 -0.18250000000E+03  0.18250000000E+03  0.00000000000E+00 0.  1.
        -11    1    1    2    0    0  0.27425562245E+00  0.57666056606E+01  0.18029003674E+03  0.18038244456E+03  0.00000000000E+00 0. -1.
         11    1    1    2    0    0 -0.18618517547E+01  0.24086282499E+01 -0.17101856573E+03  0.17104566000E+03  0.00000000000E+00 0.  1.
        -15    1    1    2    0    0  0.28163999173E+01 -0.48748728346E+01 -0.47971307519E+01  0.76070155842E+01  0.17770000000E+01 0.  1.
         15    1    1    2    0    0 -0.12288037851E+01 -0.33003610760E+01 -0.44743402581E+01  0.59648798579E+01  0.17770000000E+01 0. -1.
</event>
<event>
 6    1  0.1226227E-002  0.1842538E+03  0.7546771E-02  0.1067067E+00
        -11   -1    0    0    0    0  0.00000000000E+00  0.00000000000E+00  0.18250000000E+03  0.18250000000E+03  0.00000000000E+00 0.  1.
         11   -1    0    0    0    0 -0.00000000000E+00 -0.00000000000E+00 -0.18250000000E+03  0.18250000000E+03  0.00000000000E+00 0.  1.
        -11    1    1    2    0    0 -0.81952230948E+00 -0.28297909923E+01  0.13686339938E+03  0.13689510372E+03  0.00000000000E+00 0.  1.
         11    1    1    2    0    0  0.40244148103E+01  0.34059256596E+01 -0.18066928764E+03  0.18074619703E+03  0.00000000000E+00 0.  1.
        -15    1    1    2    0    0  0.39564057290E+00  0.14292955557E+01  0.42665126666E+02  0.42727861867E+02  0.17770000000E+01 0.  1.
         15    1    1    2    0    0 -0.36005330737E+01 -0.20054302231E+01  0.11407615973E+01  0.46308373774E+01  0.17770000000E+01 0. -1.
</event>
<event>
 6    1  0.1226227E-002  0.1829302E+03  0.7546771E-02  0.1068113E+00
        -11   -1    0    0    0    0  0.00000000000E+00  0.00000000000E+00  0.18250000000E+03  0.18250000000E+03  0.00000000000E+00 0. -1.
         11   -1    0    0    0    0 -0.00000000000E+00 -0.00000000000E+00 -0.18250000000E+03  0.18250000000E+03  0.00000000000E+00 0. -1.
        -11    1    1    2    0    0  0.28257861657E+01 -0.48908258250E+00  0.18204716884E+03  0.18206975573E+03  0.00000000000E+00 0. -1.
         11    1    1    2    0    0 -0.26054598705E+01 -0.82942907760E+00 -0.13393225636E+03  0.13396016448E+03  0.00000000000E+00 0. -1.
        -15    1    1    2    0    0 -0.36702880760E+01  0.27703516197E+01 -0.23885853450E+02  0.24389292460E+02  0.17770000000E+01 0. -1.
         15    1    1    2    0    0  0.34499617808E+01 -0.14518399596E+01 -0.24229059028E+02  0.24580787334E+02  0.17770000000E+01 0. -1.
</event>
<event>
 6    1  0.1226227E-002  0.1827854E+03  0.7546771E-02  0.1068228E+00
        -11   -1    0    0    0    0  0.00000000000E+00  0.00000000000E+00  0.18250000000E+03  0.18250000000E+03  0.00000000000E+00 0. -1.
         11   -1    0    0    0    0 -0.00000000000E+00 -0.00000000000E+00 -0.18250000000E+03  0.18250000000E+03  0.00000000000E+00 0.  1.
        -11    1    1    2    0    0 -0.15121165316E+01  0.24489041064E+01  0.72387185550E+02  0.72444380456E+02  0.00000000000E+00 0. -1.
         11    1    1    2    0    0  0.11971276552E+01 -0.43574452208E+01 -0.18215851595E+03  0.18221455863E+03  0.00000000000E+00 0.  1.
        -15    1    1    2    0    0 -0.42003388973E+01  0.18404846683E+01  0.82117857542E+02  0.82265001593E+02  0.17770000000E+01 0. -1.
         15    1    1    2    0    0  0.45153277737E+01  0.68056446087E-01  0.27653472861E+02  0.28076059319E+02  0.17770000000E+01 0.  1.
</event>
<event>
 6    1  0.1226227E-002  0.1835553E+03  0.7546771E-02  0.1067618E+00
        -11   -1    0    0    0    0  0.00000000000E+00  0.00000000000E+00  0.18250000000E+03  0.18250000000E+03  0.00000000000E+00 0.  1.
         11   -1    0    0    0    0 -0.00000000000E+00 -0.00000000000E+00 -0.18250000000E+03  0.18250000000E+03  0.00000000000E+00 0.  1.
        -11    1    1    2    0    0  0.51061016376E+01  0.87646894974E+01  0.18116095958E+03  0.18144471701E+03  0.00000000000E+00 0.  1.
         11    1    1    2    0    0  0.25985287813E+01  0.42831952022E+01 -0.10372496699E+03  0.10384588046E+03  0.00000000000E+00 0.  1.
        -15    1    1    2    0    0 -0.41628726113E+01 -0.13923789710E+02 -0.64979498390E+02  0.66608515734E+02  0.17770000000E+01 0. -1.
         15    1    1    2    0    0 -0.35417578076E+01  0.87590501036E+00 -0.12456494200E+02  0.13100886791E+02  0.17770000000E+01 0.  1.
</event>
<event>
 6    1  0.1226227E-002  0.1856950E+03  0.7546771E-02  0.1065940E+00
        -11   -1    0    0    0    0  0.00000000000E+00  0.00000000000E+00  0.18250000000E+03  0.18250000000E+03  0.00000000000E+00 0.  1.
         11   -1    0    0    0    0 -0.00000000000E+00 -0.00000000000E+00 -0.18250000000E+03  0.18250000000E+03  0.00000000000E+00 0. -1.
        -11    1    1    2    0    0 -0.48033844243E+01 -0.91450126905E+00  0.17923828341E+03  0.17930496662E+03  0.00000000000E+00 0.  1.
         11    1    1    2    0    0 -0.24541339086E+00 -0.28070170962E+01 -0.15983608516E+03  0.15986091984E+03  0.00000000000E+00 0. -1.
        -15    1    1    2    0    0 -0.21639737221E+01  0.17505766296E+00 -0.17041220624E+02  0.17270621205E+02  0.17770000000E+01 0. -1.
         15    1    1    2    0    0  0.72127715373E+01  0.35464607023E+01 -0.23609776274E+01  0.85634923436E+01  0.17770000000E+01 0.  1.
</event>
<event>
 6    1  0.1226227E-002  0.1833035E+03  0.7546771E-02  0.1067817E+00
        -11   -1    0    0    0    0  0.00000000000E+00  0.00000000000E+00  0.18250000000E+03  0.18250000000E+03  0.00000000000E+00 0. -1.
         11   -1    0    0    0    0 -0.00000000000E+00 -0.00000000000E+00 -0.18250000000E+03  0.18250000000E+03  0.00000000000E+00 0.  1.
        -11    1    1    2    0    0 -0.33786910769E+01  0.14472972443E+01  0.18165927199E+03  0.18169645380E+03  0.00000000000E+00 0. -1.
         11    1    1    2    0    0  0.89150927142E+00 -0.56007745036E+01 -0.16291505747E+03  0.16301373995E+03  0.00000000000E+00 0.  1.
        -15    1    1    2    0    0  0.19218610477E+01  0.11993676688E+01 -0.14545967271E+02  0.14828180116E+02  0.17770000000E+01 0. -1.
         15    1    1    2    0    0  0.56532075786E+00  0.29541095905E+01 -0.41982472530E+01  0.54616261342E+01  0.17770000000E+01 0.  1.
</event>
<event>
 6    1  0.1226227E-002  0.1828678E+03  0.7546771E-02  0.1068162E+00
        -11   -1    0    0    0    0  0.00000000000E+00  0.00000000000E+00  0.18250000000E+03  0.18250000000E+03  0.00000000000E+00 0.  1.
         11   -1    0    0    0    0 -0.00000000000E+00 -0.00000000000E+00 -0.18250000000E+03  0.18250000000E+03  0.00000000000E+00 0. -1.
        -11    1    1    2    0    0  0.47148627186E+01  0.32148793254E+01  0.14573448575E+03  0.14584617141E+03  0.00000000000E+00 0.  1.
         11    1    1    2    0    0 -0.25673968724E+01 -0.25229806970E+01 -0.18209662778E+03  0.18213220145E+03  0.00000000000E+00 0. -1.
        -15    1    1    2    0    0 -0.35835276828E+01 -0.20986129444E+00  0.14765898078E+02  0.15299515923E+02  0.17770000000E+01 0.  1.
         15    1    1    2    0    0  0.14360618366E+01 -0.48203733388E+00  0.21596243952E+02  0.21722111210E+02  0.17770000000E+01 0. -1.
</event>
<event>
 6    1  0.1226227E-002  0.1764708E+03  0.7546771E-02  0.1073358E+00
        -11   -1    0    0    0    0  0.00000000000E+00  0.00000000000E+00  0.18250000000E+03  0.18250000000E+03  0.00000000000E+00 0.  1.
         11   -1    0    0    0    0 -0.00000000000E+00 -0.00000000000E+00 -0.18250000000E+03  0.18250000000E+03  0.00000000000E+00 0.  1.
        -11    1    1    2    0    0  0.36818007010E+01  0.29879316278E+01  0.17895650448E+03  0.17901931149E+03  0.00000000000E+00 0.  1.
         11    1    1    2    0    0  0.40738324171E+01  0.30317414008E+00 -0.17400948982E+03  0.17405743469E+03  0.00000000000E+00 0.  1.
        -15    1    1    2    0    0 -0.63570680784E+01 -0.15557227970E+01 -0.58258087380E+01  0.89403783156E+01  0.17770000000E+01 0. -1.
         15    1    1    2    0    0 -0.13985650396E+01 -0.17353829709E+01  0.87879407733E+00  0.29828755013E+01  0.17770000000E+01 0.  1.
</event>
<event>
 6    1  0.1226227E-002  0.1639568E+03  0.7546771E-02  0.1084255E+00
        -11   -1    0    0    0    0  0.00000000000E+00  0.00000000000E+00  0.18250000000E+03  0.18250000000E+03  0.00000000000E+00 0. -1.
         11   -1    0    0    0    0 -0.00000000000E+00 -0.00000000000E+00 -0.18250000000E+03  0.18250000000E+03  0.00000000000E+00 0. -1.
        -11    1    1    2    0    0 -0.47579938373E+01  0.37047741384E+01  0.16256501590E+03  0.16267682150E+03  0.00000000000E+00 0. -1.
         11    1    1    2    0    0 -0.59214873625E+00 -0.21756178358E+01 -0.16527975925E+03  0.16529513838E+03  0.00000000000E+00 0. -1.
        -15    1    1    2    0    0 -0.12897802013E+01 -0.32537630709E+01  0.18929554026E+02  0.19332259353E+02  0.17770000000E+01 0. -1.
         15    1    1    2    0    0  0.66399227749E+01  0.17246067682E+01 -0.16214810675E+02  0.17695780773E+02  0.17770000000E+01 0.  1.
</event>
<event>
 6    1  0.1226227E-002  0.1925268E+03  0.7546771E-02  0.1060742E+00
        -11   -1    0    0    0    0  0.00000000000E+00  0.00000000000E+00  0.18250000000E+03  0.18250000000E+03  0.00000000000E+00 0.  1.
         11   -1    0    0    0    0 -0.00000000000E+00 -0.00000000000E+00 -0.18250000000E+03  0.18250000000E+03  0.00000000000E+00 0. -1.
        -11    1    1    2    0    0  0.27618597566E+01 -0.10642483233E+02  0.15987684618E+03  0.16025447346E+03  0.00000000000E+00 0.  1.
         11    1    1    2    0    0 -0.40729560732E+00  0.30529631525E+01 -0.17244572606E+03  0.17247322955E+03  0.00000000000E+00 0. -1.
        -15    1    1    2    0    0  0.11497219898E+01 -0.46525726074E+01 -0.71154530858E+01  0.87610327095E+01  0.17770000000E+01 0.  1.
         15    1    1    2    0    0 -0.35042861391E+01  0.12242092688E+02  0.19684332968E+02  0.23511264282E+02  0.17770000000E+01 0.  1.
</event>
<event>
 6    1  0.1226227E-002  0.1944468E+03  0.7546771E-02  0.1059324E+00
        -11   -1    0    0    0    0  0.00000000000E+00  0.00000000000E+00  0.18250000000E+03  0.18250000000E+03  0.00000000000E+00 0.  1.
         11   -1    0    0    0    0 -0.00000000000E+00 -0.00000000000E+00 -0.18250000000E+03  0.18250000000E+03  0.00000000000E+00 0.  1.
        -11    1    1    2    0    0 -0.19727675028E+01  0.12089353579E+01  0.16689464602E+03  0.16691068332E+03  0.00000000000E+00 0.  1.
         11    1    1    2    0    0  0.12196931751E+01 -0.29892689387E+01 -0.17052259575E+03  0.17055315606E+03  0.00000000000E+00 0.  1.
        -15    1    1    2    0    0  0.60119155193E+00  0.23965613090E+01  0.15357316856E+02  0.15655984396E+02  0.17770000000E+01 0. -1.
         15    1    1    2    0    0  0.15188277575E+00 -0.61622772819E+00 -0.11729367128E+02  0.11880176229E+02  0.17770000000E+01 0.  1.
</event>
<event>
 6    1  0.1226227E-002  0.1833953E+03  0.7546771E-02  0.1067744E+00
        -11   -1    0    0    0    0  0.00000000000E+00  0.00000000000E+00  0.18250000000E+03  0.18250000000E+03  0.00000000000E+00 0.  1.
         11   -1    0    0    0    0 -0.00000000000E+00 -0.00000000000E+00 -0.18250000000E+03  0.18250000000E+03  0.00000000000E+00 0. -1.
        -11    1    1    2    0    0  0.24743537657E+01 -0.83737191945E+00  0.16940893479E+03  0.16942907308E+03  0.00000000000E+00 0.  1.
         11    1    1    2    0    0 -0.89891037007E+00  0.28557082720E+01 -0.18158001786E+03  0.18160469707E+03  0.00000000000E+00 0. -1.
        -15    1    1    2    0    0 -0.38193679001E+00 -0.19741545651E+01  0.14833344508E+01  0.30661330779E+01  0.17770000000E+01 0. -1.
         15    1    1    2    0    0 -0.11935066056E+01 -0.44181787471E-01  0.10687748620E+02  0.10900096770E+02  0.17770000000E+01 0. -1.
</event>
<event>
 6    1  0.1226227E-002  0.1859179E+03  0.7546771E-02  0.1065766E+00
        -11   -1    0    0    0    0  0.00000000000E+00  0.00000000000E+00  0.18250000000E+03  0.18250000000E+03  0.00000000000E+00 0.  1.
         11   -1    0    0    0    0 -0.00000000000E+00 -0.00000000000E+00 -0.18250000000E+03  0.18250000000E+03  0.00000000000E+00 0.  1.
        -11    1    1    2    0    0  0.53232879201E+01 -0.62126239599E+00  0.16362930454E+03  0.16371705063E+03  0.00000000000E+00 0.  1.
         11    1    1    2    0    0  0.41825604116E+01 -0.55157444788E+01 -0.17894824027E+03  0.17908207600E+03  0.00000000000E+00 0.  1.
        -15    1    1    2    0    0 -0.92748846018E+01  0.70259818081E+01  0.16192127351E+02  0.20018257215E+02  0.17770000000E+01 0.  1.
         15    1    1    2    0    0 -0.23096372985E+00 -0.88897493325E+00 -0.87319161971E+00  0.21826161553E+01  0.17770000000E+01 0. -1.
</event>
<event>
 6    1  0.1226227E-002  0.1830019E+03  0.7546771E-02  0.1068056E+00
        -11   -1    0    0    0    0  0.00000000000E+00  0.00000000000E+00  0.18250000000E+03  0.18250000000E+03  0.00000000000E+00 0.  1.
         11   -1    0    0    0    0 -0.00000000000E+00 -0.00000000000E+00 -0.18250000000E+03  0.18250000000E+03  0.00000000000E+00 0. -1.
        -11    1    1    2    0    0 -0.11637074198E+00 -0.59435097138E+00  0.30111983750E+02  0.30118073653E+02  0.00000000000E+00 0.  1.
         11    1    1    2    0    0 -0.23970122266E+01 -0.15919420457E+01 -0.18197535936E+03  0.18199810813E+03  0.00000000000E+00 0. -1.
        -15    1    1    2    0    0  0.29255775384E+01 -0.32381137643E+01  0.11834343473E+02  0.12737888331E+02  0.17770000000E+01 0. -1.
         15    1    1    2    0    0 -0.41219456986E+00  0.54244067815E+01  0.14002903214E+03  0.14014592989E+03  0.17770000000E+01 0.  1.
</event>
<event>
 6    1  0.1226227E-002  0.1827276E+03  0.7546771E-02  0.1068274E+00
        -11   -1    0    0    0    0  0.00000000000E+00  0.00000000000E+00  0.18250000000E+03  0.18250000000E+03  0.00000000000E+00 0. -1.
         11   -1    0    0    0    0 -0.00000000000E+00 -0.00000000000E+00 -0.18250000000E+03  0.18250000000E+03  0.00000000000E+00 0.  1.
        -11    1    1    2    0    0 -0.21996449969E+01 -0.11098694324E+01  0.18225571930E+03  0.18227237165E+03  0.00000000000E+00 0. -1.
         11    1    1    2    0    0  0.37022441665E+00 -0.25203273526E+01 -0.99987206949E+02  0.10001965142E+03  0.00000000000E+00 0.  1.
        -15    1    1    2    0    0 -0.15373740021E+01  0.43216402048E-02 -0.46046819350E+02  0.46106733117E+02  0.17770000000E+01 0.  1.
         15    1    1    2    0    0  0.33667945824E+01  0.36258751448E+01 -0.36221693000E+02  0.36601243819E+02  0.17770000000E+01 0.  1.
</event>
<event>
 6    1  0.1226227E-002  0.1765439E+03  0.7546771E-02  0.1073297E+00
        -11   -1    0    0    0    0  0.00000000000E+00  0.00000000000E+00  0.18250000000E+03  0.18250000000E+03  0.00000000000E+00 0. -1.
         11   -1    0    0    0    0 -0.00000000000E+00 -0.00000000000E+00 -0.18250000000E+03  0.18250000000E+03  0.00000000000E+00 0. -1.
        -11    1    1    2    0    0 -0.10399393464E+01  0.41568657926E+01  0.17690100110E+03  0.17695288977E+03  0.00000000000E+00 0. -1.
         11    1    1    2    0    0 -0.42524481658E+01  0.17074559250E+01 -0.17616444929E+03  0.17622403898E+03  0.00000000000E+00 0. -1.
        -15    1    1    2    0    0  0.59131924738E+01 -0.59344060723E+01  0.17124630309E+01  0.87334574651E+01  0.17770000000E+01 0. -1.
         15    1    1    2    0    0 -0.62080496158E+00  0.70084354698E-01 -0.24490148495E+01  0.30896137866E+01  0.17770000000E+01 0.  1.
</event>
<event>
 6    1  0.1595292E-002  0.1830290E+03  0.7546771E-02  0.1068035E+00
        -11   -1    0    0    0    0  0.00000000000E+00  0.00000000000E+00  0.18250000000E+03  0.18250000000E+03  0.00000000000E+00 0. -1.
         11   -1    0    0    0    0 -0.00000000000E+00 -0.00000000000E+00 -0.18250000000E+03  0.18250000000E+03  0.00000000000E+00 0.  1.
        -11    1    1    2    0    0  0.24226131773E+01  0.92205350877E+00  0.18195257552E+03  0.18197103883E+03  0.00000000000E+00 0. -1.
         11    1    1    2    0    0 -0.11827534523E+01  0.14690651143E+01 -0.13516000846E+03  0.13517316651E+03  0.00000000000E+00 0.  1.
        -15    1    1    2    0    0  0.65502873210E-01 -0.26228598467E+01 -0.44683756933E+02  0.44795976907E+02  0.17770000000E+01 0.  1.
         15    1    1    2    0    0 -0.13053625982E+01  0.23174122366E+00 -0.21088101256E+01  0.30598177484E+01  0.17770000000E+01 0. -1.
</event>
<event>
 6    1  0.1226227E-002  0.1826169E+03  0.7546771E-02  0.1068362E+00
        -11   -1    0    0    0    0  0.00000000000E+00  0.00000000000E+00  0.18250000000E+03  0.18250000000E+03  0.00000000000E+00 0. -1.
         11   -1    0    0    0    0 -0.00000000000E+00 -0.00000000000E+00 -0.18250000000E+03  0.18250000000E+03  0.00000000000E+00 0. -1.
        -11    1    1    2    0    0 -0.89093611211E+00 -0.14949610703E+01  0.88314196795E+02  0.88331342293E+02  0.00000000000E+00 0. -1.
         11    1    1    2    0    0 -0.19575005213E+01  0.23813167747E+01 -0.18235705204E+03  0.18238310477E+03  0.00000000000E+00 0. -1.
        -15    1    1    2    0    0  0.35409682205E+01 -0.95851736588E+00  0.39594987591E+02  0.39804245789E+02  0.17770000000E+01 0.  1.
         15    1    1    2    0    0 -0.69253158711E+00  0.72161661428E-01  0.54447867654E+02  0.54481307146E+02  0.17770000000E+01 0. -1.
</event>
<event>
 6    1  0.1226227E-002  0.1930336E+03  0.7546771E-02  0.1060366E+00
        -11   -1    0    0    0    0  0.00000000000E+00  0.00000000000E+00  0.18250000000E+03  0.18250000000E+03  0.00000000000E+00 0. -1.
         11   -1    0    0    0    0 -0.00000000000E+00 -0.00000000000E+00 -0.18250000000E+03  0.18250000000E+03  0.00000000000E+00 0.  1.
        -11    1    1    2    0    0  0.14502301176E+01 -0.20592585196E+01  0.13025356877E+03  0.13027791789E+03  0.00000000000E+00 0. -1.
         11    1    1    2    0    0 -0.34158140638E+01 -0.14537591986E+01 -0.17192634263E+03  0.17196641676E+03  0.00000000000E+00 0.  1.
        -15    1    1    2    0    0 -0.51142610265E-02  0.23160249385E+01  0.51971502914E+02  0.52053422959E+02  0.17770000000E+01 0. -1.
         15    1    1    2    0    0  0.19706982072E+01  0.11969927797E+01 -0.10298729050E+02  0.10702242390E+02  0.17770000000E+01 0. -1.
</event>
<event>
 6    1  0.1226227E-002  0.1832878E+03  0.7546771E-02  0.1067829E+00
        -11   -1    0    0    0    0  0.00000000000E+00  0.00000000000E+00  0.18250000000E+03  0.18250000000E+03  0.00000000000E+00 0. -1.
         11   -1    0    0    0    0 -0.00000000000E+00 -0.00000000000E+00 -0.18250000000E+03  0.18250000000E+03  0.00000000000E+00 0.  1.
        -11    1    1    2    0    0  0.12920621752E+01  0.23932567052E+01  0.11252443915E+03  0.11255730322E+03  0.00000000000E+00 0. -1.
         11    1    1    2    0    0 -0.20705516245E+01  0.28531364325E+01 -0.18167798653E+03  0.18171218551E+03  0.00000000000E+00 0.  1.
        -15    1    1    2    0    0  0.30895020864E+01 -0.15063991815E+01  0.46344659016E+01  0.60374054717E+01  0.17770000000E+01 0.  1.
         15    1    1    2    0    0 -0.23110126371E+01 -0.37399939562E+01  0.64519081478E+02  0.64693105799E+02  0.17770000000E+01 0. -1.
</event>
<event>
 6    1  0.1226227E-002  0.1849246E+03  0.7546771E-02  0.1066541E+00
        -11   -1    0    0    0    0  0.00000000000E+00  0.00000000000E+00  0.18250000000E+03  0.18250000000E+03  0.00000000000E+00 0.  1.
         11   -1    0    0    0    0 -0.00000000000E+00 -0.00000000000E+00 -0.18250000000E+03  0.18250000000E+03  0.00000000000E+00 0.  1.
        -11    1    1    2    0    0  0.47594581917E+01 -0.48332508320E+01  0.17994759956E+03  0.18007540461E+03  0.00000000000E+00 0.  1.
         11    1    1    2    0    0  0.47128739041E+00 -0.19636177500E+01 -0.83244139440E+02  0.83268629492E+02  0.00000000000E+00 0.  1.
        -15    1    1    2    0    0  0.12074019231E+02  0.22300739282E+01 -0.27776010461E+02  0.30420710975E+02  0.17770000000E+01 0. -1.
         15    1    1    2    0    0 -0.17304764813E+02  0.45667946538E+01 -0.68927449661E+02  0.71235254926E+02  0.17770000000E+01 0.  1.
</event>
<event>
 6    1  0.1226227E-002  0.1851419E+03  0.7546771E-02  0.1066371E+00
        -11   -1    0    0    0    0  0.00000000000E+00  0.00000000000E+00  0.18250000000E+03  0.18250000000E+03  0.00000000000E+00 0.  1.
         11   -1    0    0    0    0 -0.00000000000E+00 -0.00000000000E+00 -0.18250000000E+03  0.18250000000E+03  0.00000000000E+00 0.  1.
        -11    1    1    2    0    0 -0.92958974159E+00  0.92008182314E+01  0.17962017200E+03  0.17985807011E+03  0.00000000000E+00 0.  1.
         11    1    1    2    0    0  0.47438539996E+01  0.78063005843E+01 -0.14335873951E+03  0.14364947154E+03  0.00000000000E+00 0.  1.
        -15    1    1    2    0    0 -0.75258480368E+00 -0.45219510962E+00 -0.10369391230E+02  0.10557124030E+02  0.17770000000E+01 0. -1.
         15    1    1    2    0    0 -0.30616794543E+01 -0.16554923706E+02 -0.25892041262E+02  0.30935334323E+02  0.17770000000E+01 0.  1.
</event>
<event>
 6    1  0.1226227E-002  0.1772970E+03  0.7546771E-02  0.1072673E+00
        -11   -1    0    0    0    0  0.00000000000E+00  0.00000000000E+00  0.18250000000E+03  0.18250000000E+03  0.00000000000E+00 0. -1.
         11   -1    0    0    0    0 -0.00000000000E+00 -0.00000000000E+00 -0.18250000000E+03  0.18250000000E+03  0.00000000000E+00 0.  1.
        -11    1    1    2    0    0 -0.32689882539E+01  0.11630296365E+01  0.17811370234E+03  0.17814749475E+03  0.00000000000E+00 0. -1.
         11    1    1    2    0    0 -0.20421323804E+01  0.33630700972E+01 -0.17647509110E+03  0.17651894607E+03  0.00000000000E+00 0.  1.
        -15    1    1    2    0    0  0.27653459598E+01  0.78739726004E+00 -0.23816198775E+01  0.41348488441E+01  0.17770000000E+01 0.  1.
         15    1    1    2    0    0  0.25457746745E+01 -0.53134969937E+01  0.74300863315E+00  0.61987103356E+01  0.17770000000E+01 0. -1.
</event>
<event>
 6    1  0.1226227E-002  0.1874950E+03  0.7546771E-02  0.1064547E+00
        -11   -1    0    0    0    0  0.00000000000E+00  0.00000000000E+00  0.18250000000E+03  0.18250000000E+03  0.00000000000E+00 0. -1.
         11   -1    0    0    0    0 -0.00000000000E+00 -0.00000000000E+00 -0.18250000000E+03  0.18250000000E+03  0.00000000000E+00 0.  1.
        -11    1    1    2    0    0  0.12211617123E+02  0.82105192908E+01  0.17689400381E+03  0.17750499938E+03  0.00000000000E+00 0. -1.
         11    1    1    2    0    0 -0.94817452217E+01  0.18712496911E+01 -0.16011669428E+03  0.16040810719E+03  0.00000000000E+00 0.  1.
        -15    1    1    2    0    0 -0.85335464647E+01 -0.10499660477E+02 -0.64342150846E+01  0.15087118285E+02  0.17770000000E+01 0.  1.
         15    1    1    2    0    0  0.58036745630E+01  0.41789149466E+00 -0.10343094449E+02  0.11999775145E+02  0.17770000000E+01 0. -1.
</event>
<event>
 6    1  0.1226227E-002  0.1846974E+03  0.7546771E-02  0.1066719E+00
        -11   -1    0    0    0    0  0.00000000000E+00  0.00000000000E+00  0.18250000000E+03  0.18250000000E+03  0.00000000000E+00 0. -1.
         11   -1    0    0    0    0 -0.00000000000E+00 -0.00000000000E+00 -0.18250000000E+03  0.18250000000E+03  0.00000000000E+00 0. -1.
        -11    1    1    2    0    0  0.19393289155E+01 -0.19962577471E+01  0.18028113138E+03  0.18030261333E+03  0.00000000000E+00 0. -1.
         11    1    1    2    0    0  0.10922754366E+01 -0.19825236734E+01 -0.16650319759E+03  0.16651858236E+03  0.00000000000E+00 0. -1.
        -15    1    1    2    0    0  0.75100216325E-01  0.38296596625E+01 -0.13967370629E+02  0.14591679289E+02  0.17770000000E+01 0. -1.
         15    1    1    2    0    0 -0.31067045685E+01  0.14912175805E+00  0.18943683530E+00  0.35871250172E+01  0.17770000000E+01 0.  1.
</event>
<event>
 6    1  0.1226227E-002  0.1875052E+03  0.7546771E-02  0.1064539E+00
        -11   -1    0    0    0    0  0.00000000000E+00  0.00000000000E+00  0.18250000000E+03  0.18250000000E+03  0.00000000000E+00 0.  1.
         11   -1    0    0    0    0 -0.00000000000E+00 -0.00000000000E+00 -0.18250000000E+03  0.18250000000E+03  0.00000000000E+00 0.  1.
        -11    1    1    2    0    0 -0.18071597263E+01 -0.60184551984E+01  0.16515032355E+03  0.16526983088E+03  0.00000000000E+00 0.  1.
         11    1    1    2    0    0 -0.32460268835E+01  0.45306164163E+01 -0.17740724858E+03  0.17749477464E+03  0.00000000000E+00 0.  1.
        -15    1    1    2    0    0  0.12453487209E+01  0.45955768264E+01  0.15345109464E+02  0.16164786830E+02  0.17770000000E+01 0.  1.
         15    1    1    2    0    0  0.38078378889E+01 -0.31077380443E+01 -0.30881844327E+01  0.60706076492E+01  0.17770000000E+01 0. -1.
</event>
<event>
 6    1  0.1226227E-002  0.1879640E+03  0.7546771E-02  0.1064187E+00
        -11   -1    0    0    0    0  0.00000000000E+00  0.00000000000E+00  0.18250000000E+03  0.18250000000E+03  0.00000000000E+00 0. -1.
         11   -1    0    0    0    0 -0.00000000000E+00 -0.00000000000E+00 -0.18250000000E+03  0.18250000000E+03  0.00000000000E+00 0.  1.
        -11    1    1    2    0    0 -0.26632861343E+01  0.47155149482E+01  0.17695314003E+03  0.17703599335E+03  0.00000000000E+00 0. -1.
         11    1    1    2    0    0 -0.13398630501E+01  0.74380036195E+00 -0.40994472259E+02  0.41023106023E+02  0.00000000000E+00 0.  1.
        -15    1    1    2    0    0  0.32493017710E+01 -0.51179670419E+01  0.36649643657E+01  0.73035088445E+01  0.17770000000E+01 0.  1.
         15    1    1    2    0    0  0.75384741340E+00 -0.34134826822E+00 -0.13962363214E+03  0.13963739179E+03  0.17770000000E+01 0.  1.
</event>
<event>
 6    1  0.1226227E-002  0.1831356E+03  0.7546771E-02  0.1067950E+00
        -11   -1    0    0    0    0  0.00000000000E+00  0.00000000000E+00  0.18250000000E+03  0.18250000000E+03  0.00000000000E+00 0.  1.
         11   -1    0    0    0    0 -0.00000000000E+00 -0.00000000000E+00 -0.18250000000E+03  0.18250000000E+03  0.00000000000E+00 0.  1.
        -11    1    1    2    0    0  0.26972501820E+01  0.17147634969E+01  0.18183629993E+03  0.18186438778E+03  0.00000000000E+00 0.  1.
         11    1    1    2    0    0 -0.24972996840E+01  0.24329672745E+00 -0.16551552698E+03  0.16553454434E+03  0.00000000000E+00 0.  1.
        -15    1    1    2    0    0  0.11223909504E+01 -0.43399893155E+00 -0.13627446113E+02  0.13795402607E+02  0.17770000000E+01 0.  1.
         15    1    1    2    0    0 -0.13223414484E+01 -0.15240612928E+01 -0.26933268359E+01  0.38056652737E+01  0.17770000000E+01 0.  1.
</event>
<event>
 6    1  0.1226227E-002  0.1892980E+03  0.7546771E-02  0.1063169E+00
        -11   -1    0    0    0    0  0.00000000000E+00  0.00000000000E+00  0.18250000000E+03  0.18250000000E+03  0.00000000000E+00 0. -1.
         11   -1    0    0    0    0 -0.00000000000E+00 -0.00000000000E+00 -0.18250000000E+03  0.18250000000E+03  0.00000000000E+00 0.  1.
        -11    1    1    2    0    0  0.14621162830E+01  0.21664842936E+01  0.16619986448E+03  0.16622041508E+03  0.00000000000E+00 0. -1.
         11    1    1    2    0    0  0.15117872601E+01 -0.23683448893E+01 -0.17567956598E+03  0.17570203317E+03  0.00000000000E+00 0.  1.
        -15    1    1    2    0    0 -0.27233299400E+01 -0.15897969444E+01  0.15830578367E+02  0.16239116993E+02  0.17770000000E+01 0.  1.
         15    1    1    2    0    0 -0.25057360314E+00  0.17916575401E+01 -0.63508768640E+01  0.68384347488E+01  0.17770000000E+01 0.  1.
</event>
<event>
 6    1  0.1226227E-002  0.1830511E+03  0.7546771E-02  0.1068017E+00
        -11   -1    0    0    0    0  0.00000000000E+00  0.00000000000E+00  0.18250000000E+03  0.18250000000E+03  0.00000000000E+00 0. -1.
         11   -1    0    0    0    0 -0.00000000000E+00 -0.00000000000E+00 -0.18250000000E+03  0.18250000000E+03  0.00000000000E+00 0.  1.
        -11    1    1    2    0    0 -0.10335632925E+01  0.21080657750E+01  0.13340030605E+03  0.13342096480E+03  0.00000000000E+00 0. -1.
         11    1    1    2    0    0 -0.39692106008E+01 -0.29938665550E+01 -0.18188098998E+03  0.18194892796E+03  0.00000000000E+00 0.  1.
        -15    1    1    2    0    0  0.45141489986E+01  0.22728331163E+01  0.12812863644E+02  0.13887782952E+02  0.17770000000E+01 0. -1.
         15    1    1    2    0    0  0.48862489460E+00 -0.13870323363E+01  0.35667820284E+02  0.35742324292E+02  0.17770000000E+01 0.  1.
</event>
<event>
 6    1  0.1226227E-002  0.1832261E+03  0.7546771E-02  0.1067878E+00
        -11   -1    0    0    0    0  0.00000000000E+00  0.00000000000E+00  0.18250000000E+03  0.18250000000E+03  0.00000000000E+00 0.  1.
         11   -1    0    0    0    0 -0.00000000000E+00 -0.00000000000E+00 -0.18250000000E+03  0.18250000000E+03  0.00000000000E+00 0.  1.
        -11    1    1    2    0    0 -0.22999293455E+01  0.48996319896E+01  0.18169328400E+03  0.18177388569E+03  0.00000000000E+00 0.  1.
         11    1    1    2    0    0 -0.14216000138E+01 -0.18939869795E+01 -0.14918035859E+03  0.14919915389E+03  0.00000000000E+00 0.  1.
        -15    1    1    2    0    0  0.13218000267E+01  0.21366379133E+01 -0.19217742452E+02  0.19462572564E+02  0.17770000000E+01 0.  1.
         15    1    1    2    0    0  0.23997293325E+01 -0.51422829234E+01 -0.13295182962E+02  0.14564387853E+02  0.17770000000E+01 0.  1.
</event>
<event>
 6    1  0.1226227E-002  0.1857047E+03  0.7546771E-02  0.1065932E+00
        -11   -1    0    0    0    0  0.00000000000E+00  0.00000000000E+00  0.18250000000E+03  0.18250000000E+03  0.00000000000E+00 0.  1.
         11   -1    0    0    0    0 -0.00000000000E+00 -0.00000000000E+00 -0.18250000000E+03  0.18250000000E+03  0.00000000000E+00 0.  1.
        -11    1    1    2    0    0 -0.25689977176E+01 -0.30984655963E+01  0.17925008727E+03  0.17929527050E+03  0.00000000000E+00 0.  1.
         11    1    1    2    0    0  0.72925672692E+00 -0.26234063552E+01 -0.16789314220E+03  0.16791522050E+03  0.00000000000E+00 0.  1.
        -15    1    1    2    0    0 -0.18871138920E+01  0.83841067921E+01 -0.74914700425E+01  0.11538383680E+02  0.17770000000E+01 0. -1.
         15    1    1    2    0    0  0.37268548827E+01 -0.26622348406E+01 -0.38654750234E+01  0.62511253242E+01  0.17770000000E+01 0.  1.
</event>
<event>
 6    1  0.1226227E-002  0.1846974E+03  0.7546771E-02  0.1066719E+00
        -11   -1    0    0    0    0  0.00000000000E+00  0.00000000000E+00  0.18250000000E+03  0.18250000000E+03  0.00000000000E+00 0.  1.
         11   -1    0    0    0    0 -0.00000000000E+00 -0.00000000000E+00 -0.18250000000E+03  0.18250000000E+03  0.00000000000E+00 0.  1.
        -11    1    1    2    0    0  0.46600363170E+01  0.30848703166E+01  0.18021601520E+03  0.18030264695E+03  0.00000000000E+00 0.  1.
         11    1    1    2    0    0  0.19305854367E+01 -0.16906512211E+01 -0.15742323776E+03  0.15744415279E+03  0.00000000000E+00 0.  1.
        -15    1    1    2    0    0 -0.25650151219E+01 -0.56900510924E-01  0.79552076781E+00  0.32207332295E+01  0.17770000000E+01 0.  1.
         15    1    1    2    0    0 -0.40256066318E+01 -0.13373185846E+01 -0.23588298210E+02  0.24032467022E+02  0.17770000000E+01 0. -1.
</event>
<event>
 6    1  0.1226227E-002  0.1863591E+03  0.7546771E-02  0.1065424E+00
        -11   -1    0    0    0    0  0.00000000000E+00  0.00000000000E+00  0.18250000000E+03  0.18250000000E+03  0.00000000000E+00 0. -1.
         11   -1    0    0    0    0 -0.00000000000E+00 -0.00000000000E+00 -0.18250000000E+03  0.18250000000E+03  0.00000000000E+00 0.  1.
        -11    1    1    2    0    0  0.42172384387E+01  0.16454136680E+01  0.17858352111E+03  0.17864088697E+03  0.00000000000E+00 0. -1.
         11    1    1    2    0    0 -0.25556915185E+01  0.14218098988E+00 -0.17472118640E+03  0.17473993462E+03  0.00000000000E+00 0.  1.
        -15    1    1    2    0    0 -0.61163444121E+00  0.11503109377E+01 -0.66934601485E+01  0.70468042191E+01  0.17770000000E+01 0.  1.
         15    1    1    2    0    0 -0.10499124790E+01 -0.29379055956E+01  0.28311254352E+01  0.45723741899E+01  0.17770000000E+01 0. -1.
</event>
<event>
 6    1  0.1226227E-002  0.1839154E+03  0.7546771E-02  0.1067334E+00
        -11   -1    0    0    0    0  0.00000000000E+00  0.00000000000E+00  0.18250000000E+03  0.18250000000E+03  0.00000000000E+00 0. -1.
         11   -1    0    0    0    0 -0.00000000000E+00 -0.00000000000E+00 -0.18250000000E+03  0.18250000000E+03  0.00000000000E+00 0. -1.
        -11    1    1    2    0    0  0.30322138836E+01 -0.42906035737E+01  0.15691865684E+03  0.15700658733E+03  0.00000000000E+00 0. -1.
         11    1    1    2    0    0 -0.19542018009E+01  0.58678373711E+01 -0.18097893895E+03  0.18108458456E+03  0.00000000000E+00 0. -1.
        -15    1    1    2    0    0  0.74256020972E+00  0.47518498813E+01  0.12072793006E+02  0.13116460381E+02  0.17770000000E+01 0.  1.
         15    1    1    2    0    0 -0.18205722924E+01 -0.63290836787E+01  0.11987489102E+02  0.13792367732E+02  0.17770000000E+01 0. -1.
</event>
<event>
 6    1  0.1226227E-002  0.1873080E+03  0.7546771E-02  0.1064691E+00
        -11   -1    0    0    0    0  0.00000000000E+00  0.00000000000E+00  0.18250000000E+03  0.18250000000E+03  0.00000000000E+00 0. -1.
         11   -1    0    0    0    0 -0.00000000000E+00 -0.00000000000E+00 -0.18250000000E+03  0.18250000000E+03  0.00000000000E+00 0.  1.
        -11    1    1    2    0    0  0.16710618392E+01  0.29467065562E+01  0.17765969165E+03  0.17769198509E+03  0.00000000000E+00 0. -1.
         11    1    1    2    0    0 -0.91970211830E+00 -0.19048078520E+01 -0.41910372068E+02  0.41963715658E+02  0.00000000000E+00 0.  1.
        -15    1    1    2    0    0 -0.14790198093E+01 -0.56151316528E+01  0.28136036200E+01  0.66926300813E+01  0.17770000000E+01 0.  1.
         15    1    1    2    0    0  0.72766008839E+00  0.45732329486E+01 -0.13856292320E+03  0.13865166917E+03  0.17770000000E+01 0.  1.
</event>
<event>
 6    1  0.1226227E-002  0.1873612E+03  0.7546771E-02  0.1064650E+00
        -11   -1    0    0    0    0  0.00000000000E+00  0.00000000000E+00  0.18250000000E+03  0.18250000000E+03  0.00000000000E+00 0.  1.
         11   -1    0    0    0    0 -0.00000000000E+00 -0.00000000000E+00 -0.18250000000E+03  0.18250000000E+03  0.00000000000E+00 0. -1.
        -11    1    1    2    0    0 -0.54001398971E+01 -0.70271206784E+01  0.17741757835E+03  0.17763878812E+03  0.00000000000E+00 0.  1.
         11    1    1    2    0    0 -0.31662573540E+01  0.30225954756E+01 -0.16396806581E+03  0.16402648529E+03  0.00000000000E+00 0. -1.
        -15    1    1    2    0    0  0.50965342988E+00  0.83169753413E+01 -0.10598583859E+02  0.13598512207E+02  0.17770000000E+01 0.  1.
         15    1    1    2    0    0  0.80567438212E+01 -0.43124501385E+01 -0.28509286839E+01  0.97362143853E+01  0.17770000000E+01 0. -1.
</event>
<event>
 6    1  0.1226227E-002  0.1842421E+03  0.7546771E-02  0.1067076E+00
        -11   -1    0    0    0    0  0.00000000000E+00  0.00000000000E+00  0.18250000000E+03  0.18250000000E+03  0.00000000000E+00 0.  1.
         11   -1    0    0    0    0 -0.00000000000E+00 -0.00000000000E+00 -0.18250000000E+03  0.18250000000E+03  0.00000000000E+00 0.  1.
        -11    1    1    2    0    0 -0.25022725507E+01  0.66361585305E+01  0.13928230694E+03  0.13946275845E+03  0.00000000000E+00 0.  1.
         11    1    1    2    0    0 -0.70989081204E+01 -0.36864210116E+00 -0.18061807454E+03  0.18075790230E+03  0.00000000000E+00 0.  1.
        -15    1    1    2    0    0  0.66016573058E+01 -0.50104188198E+01  0.95122798622E+01  0.12740776001E+02  0.17770000000E+01 0. -1.
         15    1    1    2    0    0  0.29995233653E+01 -0.12570976096E+01  0.31823487731E+02  0.32038563251E+02  0.17770000000E+01 0.  1.
</event>
<event>
 6    1  0.1226227E-002  0.1834081E+03  0.7546771E-02  0.1067734E+00
        -11   -1    0    0    0    0  0.00000000000E+00  0.00000000000E+00  0.18250000000E+03  0.18250000000E+03  0.00000000000E+00 0. -1.
         11   -1    0    0    0    0 -0.00000000000E+00 -0.00000000000E+00 -0.18250000000E+03  0.18250000000E+03  0.00000000000E+00 0. -1.
        -11    1    1    2    0    0 -0.69537114866E+00  0.41126692034E+01  0.10574122894E+03  0.10582346189E+03  0.00000000000E+00 0. -1.
         11    1    1    2    0    0 -0.10242636191E+02 -0.29322754947E+01 -0.18127909833E+03  0.18159190876E+03  0.00000000000E+00 0. -1.
        -15    1    1    2    0    0  0.55423845847E+01  0.60556444295E+01  0.31866187113E+02  0.32954521184E+02  0.17770000000E+01 0. -1.
         15    1    1    2    0    0  0.53956227553E+01 -0.72360381383E+01  0.43671682275E+02  0.44630108163E+02  0.17770000000E+01 0.  1.
</event>
<event>
 6    1  0.1226227E-002  0.1928599E+03  0.7546771E-02  0.1060495E+00
        -11   -1    0    0    0    0  0.00000000000E+00  0.00000000000E+00  0.18250000000E+03  0.18250000000E+03  0.00000000000E+00 0. -1.
         11   -1    0    0    0    0 -0.00000000000E+00 -0.00000000000E+00 -0.18250000000E+03  0.18250000000E+03  0.00000000000E+00 0.  1.
        -11    1    1    2    0    0 -0.46195961575E+01 -0.64938265470E+01  0.14659621814E+03  0.14681267528E+03  0.00000000000E+00 0. -1.
         11    1    1    2    0    0  0.28893323416E+02 -0.75583861732E+01 -0.16952953419E+03  0.17214010661E+03  0.00000000000E+00 0.  1.
        -15    1    1    2    0    0 -0.30948166096E+01  0.17597388770E+02  0.71000775641E+01  0.19308412980E+02  0.17770000000E+01 0.  1.
         15    1    1    2    0    0 -0.21178910649E+02 -0.35451760501E+01  0.15833238491E+02  0.26738805127E+02  0.17770000000E+01 0. -1.
</event>
<event>
 6    1  0.1226227E-002  0.1845742E+03  0.7546771E-02  0.1066816E+00
        -11   -1    0    0    0    0  0.00000000000E+00  0.00000000000E+00  0.18250000000E+03  0.18250000000E+03  0.00000000000E+00 0.  1.
         11   -1    0    0    0    0 -0.00000000000E+00 -0.00000000000E+00 -0.18250000000E+03  0.18250000000E+03  0.00000000000E+00 0. -1.
        -11    1    1    2    0    0 -0.20219715078E+00  0.37988972173E+01  0.17708384413E+03  0.17712470284E+03  0.00000000000E+00 0.  1.
         11    1    1    2    0    0  0.22752628672E+01  0.10577556548E+01 -0.18040836975E+03  0.18042581729E+03  0.00000000000E+00 0. -1.
        -15    1    1    2    0    0 -0.21456762885E+01 -0.29315390331E+01  0.19422096655E+01  0.44863966858E+01  0.17770000000E+01 0.  1.
         15    1    1    2    0    0  0.72610572131E-01 -0.19251138390E+01  0.13823159573E+01  0.29630831905E+01  0.17770000000E+01 0. -1.
</event>
<event>
 6    1  0.1226227E-002  0.1852269E+03  0.7546771E-02  0.1066305E+00
        -11   -1    0    0    0    0  0.00000000000E+00  0.00000000000E+00  0.18250000000E+03  0.18250000000E+03  0.00000000000E+00 0. -1.
         11   -1    0    0    0    0 -0.00000000000E+00 -0.00000000000E+00 -0.18250000000E+03  0.18250000000E+03  0.00000000000E+00 0. -1.
        -11    1    1    2    0    0  0.50438041324E+01  0.31243985269E+00  0.10105914034E+03  0.10118541113E+03  0.00000000000E+00 0. -1.
         11    1    1    2    0    0 -0.27052746296E+01 -0.62881881429E+00 -0.17975161546E+03  0.17977307136E+03  0.00000000000E+00 0. -1.
        -15    1    1    2    0    0  0.43006006819E+01  0.34494498895E+01  0.87472099793E+00  0.58580488722E+01  0.17770000000E+01 0. -1.
         15    1    1    2    0    0 -0.66391301846E+01 -0.31330709279E+01  0.77817754120E+02  0.78183468638E+02  0.17770000000E+01 0. -1.
</event>
<event>
 6    1  0.1226227E-002  0.1828633E+03  0.7546771E-02  0.1068166E+00
        -11   -1    0    0    0    0  0.00000000000E+00  0.00000000000E+00  0.18250000000E+03  0.18250000000E+03  0.00000000000E+00 0. -1.
         11   -1    0    0    0    0 -0.00000000000E+00 -0.00000000000E+00 -0.18250000000E+03  0.18250000000E+03  0.00000000000E+00 0.  1.
        -11    1    1    2    0    0 -0.20180623945E+01  0.70628111308E+01  0.18198847335E+03  0.18213665284E+03  0.00000000000E+00 0. -1.
         11    1    1    2    0    0  0.13601651977E+01  0.15569752484E+01 -0.92154430192E+02  0.92177617811E+02  0.00000000000E+00 0.  1.
        -15    1    1    2    0    0  0.14066553935E+01 -0.67127144778E+01 -0.83440489296E+02  0.83740743954E+02  0.17770000000E+01 0.  1.
         15    1    1    2    0    0 -0.74875819671E+00 -0.19070719015E+01 -0.63935538627E+01  0.69449853902E+01  0.17770000000E+01 0. -1.
</event>
<event>
 6    1  0.1226227E-002  0.1826144E+03  0.7546771E-02  0.1068364E+00
        -11   -1    0    0    0    0  0.00000000000E+00  0.00000000000E+00  0.18250000000E+03  0.18250000000E+03  0.00000000000E+00 0. -1.
         11   -1    0    0    0    0 -0.00000000000E+00 -0.00000000000E+00 -0.18250000000E+03  0.18250000000E+03  0.00000000000E+00 0. -1.
        -11    1    1    2    0    0  0.49685358172E+01  0.14365388135E+01  0.18231221161E+03  0.18238556000E+03  0.00000000000E+00 0. -1.
         11    1    1    2    0    0 -0.83466553202E+00 -0.96044354977E+00 -0.56270535391E+02  0.56284920463E+02  0.00000000000E+00 0. -1.
        -15    1    1    2    0    0 -0.42746692685E+01 -0.21825341120E+01 -0.10783329295E+03  0.10795468053E+03  0.17770000000E+01 0. -1.
         15    1    1    2    0    0  0.14079898327E+00  0.17064388482E+01 -0.18208383277E+02  0.18374839005E+02  0.17770000000E+01 0.  1.
</event>
<event>
 6    1  0.1226227E-002  0.1836075E+03  0.7546771E-02  0.1067577E+00
        -11   -1    0    0    0    0  0.00000000000E+00  0.00000000000E+00  0.18250000000E+03  0.18250000000E+03  0.00000000000E+00 0.  1.
         11   -1    0    0    0    0 -0.00000000000E+00 -0.00000000000E+00 -0.18250000000E+03  0.18250000000E+03  0.00000000000E+00 0. -1.
        -11    1    1    2    0    0  0.58203782540E+00  0.39130663615E+01  0.11314501045E+03  0.11321415215E+03  0.00000000000E+00 0.  1.
         11    1    1    2    0    0  0.49065565266E+01  0.56805621764E+00 -0.18132523978E+03  0.18139250141E+03  0.00000000000E+00 0. -1.
        -15    1    1    2    0    0 -0.45677205050E+01 -0.40541362450E+00  0.48723968258E+01  0.69228903390E+01  0.17770000000E+01 0.  1.
         15    1    1    2    0    0 -0.92087384698E+00 -0.40757089547E+01  0.63307832506E+02  0.63470456102E+02  0.17770000000E+01 0.  1.
</event>
<event>
 6    1  0.1226227E-002  0.1543592E+03  0.7546771E-02  0.1093362E+00
        -11   -1    0    0    0    0  0.00000000000E+00  0.00000000000E+00  0.18250000000E+03  0.18250000000E+03  0.00000000000E+00 0.  1.
         11   -1    0    0    0    0 -0.00000000000E+00 -0.00000000000E+00 -0.18250000000E+03  0.18250000000E+03  0.00000000000E+00 0.  1.
        -11    1    1    2    0    0 -0.18400188804E-01  0.15240227844E+01  0.30372149872E+02  0.30410367835E+02  0.00000000000E+00 0.  1.
         11    1    1    2    0    0 -0.10307315224E+01  0.26896179924E+01 -0.15900259582E+03  0.15902868273E+03  0.00000000000E+00 0.  1.
        -15    1    1    2    0    0  0.47287024687E+01 -0.13337053320E+02 -0.21116114558E+02  0.25481083991E+02  0.17770000000E+01 0. -1.
         15    1    1    2    0    0 -0.36795707575E+01  0.91234125429E+01  0.14974656051E+03  0.15007986544E+03  0.17770000000E+01 0.  1.
</event>
<event>
 6    1  0.1226227E-002  0.1830792E+03  0.7546771E-02  0.1067995E+00
        -11   -1    0    0    0    0  0.00000000000E+00  0.00000000000E+00  0.18250000000E+03  0.18250000000E+03  0.00000000000E+00 0. -1.
         11   -1    0    0    0    0 -0.00000000000E+00 -0.00000000000E+00 -0.18250000000E+03  0.18250000000E+03  0.00000000000E+00 0.  1.
        -11    1    1    2    0    0 -0.99267887243E-01  0.28980737267E+01  0.18189773192E+03  0.18192084422E+03  0.00000000000E+00 0. -1.
         11    1    1    2    0    0 -0.27276969662E+01 -0.73477494757E+00 -0.15671930406E+03  0.15674476224E+03  0.00000000000E+00 0.  1.
        -15    1    1    2    0    0 -0.13558953391E+01 -0.57736261605E+00 -0.40234224965E+01  0.46386913399E+01  0.17770000000E+01 0.  1.
         15    1    1    2    0    0  0.41828601925E+01 -0.15859361631E+01 -0.21155005361E+02  0.21695702194E+02  0.17770000000E+01 0. -1.
</event>
<event>
 6    1  0.1226227E-002  0.1728429E+03  0.7546771E-02  0.1076413E+00
        -11   -1    0    0    0    0  0.00000000000E+00  0.00000000000E+00  0.18250000000E+03  0.18250000000E+03  0.00000000000E+00 0. -1.
         11   -1    0    0    0    0 -0.00000000000E+00 -0.00000000000E+00 -0.18250000000E+03  0.18250000000E+03  0.00000000000E+00 0.  1.
        -11    1    1    2    0    0 -0.23295131257E+01  0.10716994128E+01  0.17146109396E+03  0.17148026683E+03  0.00000000000E+00 0. -1.
         11    1    1    2    0    0 -0.41631037162E+01 -0.51709022820E+01 -0.17417492706E+03  0.17430139093E+03  0.00000000000E+00 0.  1.
        -15    1    1    2    0    0 -0.33711985583E+01  0.28226982091E+01  0.68245671473E+01  0.83105385293E+01  0.17770000000E+01 0. -1.
         15    1    1    2    0    0  0.98638154002E+01  0.12765046601E+01 -0.41107340473E+01  0.10907803711E+02  0.17770000000E+01 0.  1.
</event>
<event>
 6    1  0.1226227E-002  0.1835222E+03  0.7546771E-02  0.1067644E+00
        -11   -1    0    0    0    0  0.00000000000E+00  0.00000000000E+00  0.18250000000E+03  0.18250000000E+03  0.00000000000E+00 0.  1.
         11   -1    0    0    0    0 -0.00000000000E+00 -0.00000000000E+00 -0.18250000000E+03  0.18250000000E+03  0.00000000000E+00 0. -1.
        -11    1    1    2    0    0 -0.14722880850E+00 -0.25366206548E+01  0.15220824329E+03  0.15222944999E+03  0.00000000000E+00 0.  1.
         11    1    1    2    0    0  0.80705050324E+00 -0.31579698710E+01 -0.18144852422E+03  0.18147779767E+03  0.00000000000E+00 0. -1.
        -15    1    1    2    0    0 -0.11508208770E+01  0.42068364829E+01  0.28386602240E+02  0.28774620373E+02  0.17770000000E+01 0. -1.
         15    1    1    2    0    0  0.49099918221E+00  0.14877540430E+01  0.85367869687E+00  0.25181319677E+01  0.17770000000E+01 0.  1.
</event>
<event>
 6    1  0.1226227E-002  0.1863095E+03  0.7546771E-02  0.1065462E+00
        -11   -1    0    0    0    0  0.00000000000E+00  0.00000000000E+00  0.18250000000E+03  0.18250000000E+03  0.00000000000E+00 0.  1.
         11   -1    0    0    0    0 -0.00000000000E+00 -0.00000000000E+00 -0.18250000000E+03  0.18250000000E+03  0.00000000000E+00 0. -1.
        -11    1    1    2    0    0 -0.21018302152E+01  0.26247407005E+01  0.17586997474E+03  0.17590211758E+03  0.00000000000E+00 0.  1.
         11    1    1    2    0    0  0.25930713974E+01  0.11678672202E+01 -0.17866788431E+03  0.17869051686E+03  0.00000000000E+00 0. -1.
        -15    1    1    2    0    0  0.15020856500E+01 -0.10542380375E+01  0.52676866099E+01  0.58543941070E+01  0.17770000000E+01 0. -1.
         15    1    1    2    0    0 -0.19933268322E+01 -0.27383698832E+01 -0.24697770397E+01  0.45529714586E+01  0.17770000000E+01 0.  1.
</event>
<event>
 6    1  0.1226227E-002  0.1840530E+03  0.7546771E-02  0.1067225E+00
        -11   -1    0    0    0    0  0.00000000000E+00  0.00000000000E+00  0.18250000000E+03  0.18250000000E+03  0.00000000000E+00 0. -1.
         11   -1    0    0    0    0 -0.00000000000E+00 -0.00000000000E+00 -0.18250000000E+03  0.18250000000E+03  0.00000000000E+00 0.  1.
        -11    1    1    2    0    0 -0.99116434108E+01 -0.52065317754E+01  0.18060025069E+03  0.18094695134E+03  0.00000000000E+00 0. -1.
         11    1    1    2    0    0  0.23039681263E+00  0.36759949537E+01 -0.11046568501E+03  0.11052707173E+03  0.00000000000E+00 0.  1.
        -15    1    1    2    0    0  0.27156119757E+01 -0.46215621642E+00 -0.63373346936E+02  0.63458072518E+02  0.17770000000E+01 0.  1.
         15    1    1    2    0    0  0.69656346225E+01  0.19926930382E+01 -0.67612187523E+01  0.10067904412E+02  0.17770000000E+01 0. -1.
</event>
<event>
 6    1  0.1226227E-002  0.2031086E+03  0.7546771E-02  0.1053140E+00
        -11   -1    0    0    0    0  0.00000000000E+00  0.00000000000E+00  0.18250000000E+03  0.18250000000E+03  0.00000000000E+00 0. -1.
         11   -1    0    0    0    0 -0.00000000000E+00 -0.00000000000E+00 -0.18250000000E+03  0.18250000000E+03  0.00000000000E+00 0.  1.
        -11    1    1    2    0    0 -0.81997714542E-02 -0.32322829972E+02  0.15863188681E+03  0.16189144794E+03  0.00000000000E+00 0. -1.
         11    1    1    2    0    0 -0.98982483668E+00  0.30569648038E+01 -0.12599024896E+03  0.12603121685E+03  0.00000000000E+00 0.  1.
        -15    1    1    2    0    0  0.30242154188E+00  0.32733775777E+01 -0.47116897721E+02  0.47264852051E+02  0.17770000000E+01 0.  1.
         15    1    1    2    0    0  0.69560306626E+00  0.25992487591E+02  0.14475259873E+02  0.29812483160E+02  0.17770000000E+01 0. -1.
</event>
<event>
 6    1  0.1226227E-002  0.1831236E+03  0.7546771E-02  0.1067959E+00
        -11   -1    0    0    0    0  0.00000000000E+00  0.00000000000E+00  0.18250000000E+03  0.18250000000E+03  0.00000000000E+00 0.  1.
         11   -1    0    0    0    0 -0.00000000000E+00 -0.00000000000E+00 -0.18250000000E+03  0.18250000000E+03  0.00000000000E+00 0. -1.
        -11    1    1    2    0    0 -0.21169888231E+01  0.19619081944E+01  0.18185345345E+03  0.18187635706E+03  0.00000000000E+00 0.  1.
         11    1    1    2    0    0  0.16989999550E+01  0.30460576383E+01 -0.14607499796E+03  0.14611663183E+03  0.00000000000E+00 0. -1.
        -15    1    1    2    0    0 -0.29562768716E+01 -0.23590356967E+01 -0.10415444802E+02  0.11222470396E+02  0.17770000000E+01 0. -1.
         15    1    1    2    0    0  0.33742657398E+01 -0.26489301360E+01 -0.25363010682E+02  0.25784540718E+02  0.17770000000E+01 0.  1.
</event>
<event>
 6    1  0.1226227E-002  0.2199751E+03  0.7546771E-02  0.1042009E+00
        -11   -1    0    0    0    0  0.00000000000E+00  0.00000000000E+00  0.18250000000E+03  0.18250000000E+03  0.00000000000E+00 0.  1.
         11   -1    0    0    0    0 -0.00000000000E+00 -0.00000000000E+00 -0.18250000000E+03  0.18250000000E+03  0.00000000000E+00 0.  1.
        -11    1    1    2    0    0  0.12198310219E+01 -0.10558333309E+01  0.11045480786E+03  0.11046658930E+03  0.00000000000E+00 0.  1.
         11    1    1    2    0    0  0.62586011984E+01  0.27484038886E+01 -0.14486373251E+03  0.14502491100E+03  0.00000000000E+00 0.  1.
        -15    1    1    2    0    0 -0.16614633112E+02 -0.35149290284E+00 -0.35358886452E+02  0.39109821795E+02  0.17770000000E+01 0.  1.
         15    1    1    2    0    0  0.91362008916E+01 -0.13410776549E+01  0.69767811100E+02  0.70398677904E+02  0.17770000000E+01 0. -1.
</event>
<event>
 6    1  0.1226227E-002  0.1829598E+03  0.7546771E-02  0.1068089E+00
        -11   -1    0    0    0    0  0.00000000000E+00  0.00000000000E+00  0.18250000000E+03  0.18250000000E+03  0.00000000000E+00 0. -1.
         11   -1    0    0    0    0 -0.00000000000E+00 -0.00000000000E+00 -0.18250000000E+03  0.18250000000E+03  0.00000000000E+00 0.  1.
        -11    1    1    2    0    0 -0.25882232604E+01 -0.15423921552E+01  0.18201522608E+03  0.18204016150E+03  0.00000000000E+00 0. -1.
         11    1    1    2    0    0  0.10115106691E+01  0.21399210722E+01 -0.16765503277E+03  0.16767174011E+03  0.00000000000E+00 0.  1.
        -15    1    1    2    0    0 -0.42508761118E-01 -0.91763736272E+00 -0.26003319480E+01  0.32807500002E+01  0.17770000000E+01 0.  1.
         15    1    1    2    0    0  0.16192213525E+01  0.32010844578E+00 -0.11759861362E+02  0.12007348394E+02  0.17770000000E+01 0.  1.
</event>
<event>
 6    1  0.1226227E-002  0.2006140E+03  0.7546771E-02  0.1054886E+00
        -11   -1    0    0    0    0  0.00000000000E+00  0.00000000000E+00  0.18250000000E+03  0.18250000000E+03  0.00000000000E+00 0. -1.
         11   -1    0    0    0    0 -0.00000000000E+00 -0.00000000000E+00 -0.18250000000E+03  0.18250000000E+03  0.00000000000E+00 0. -1.
        -11    1    1    2    0    0 -0.43433836176E+01 -0.61255162379E+00  0.16432751058E+03  0.16438604240E+03  0.00000000000E+00 0. -1.
         11    1    1    2    0    0 -0.17093075025E+01  0.14748074430E+01 -0.15666966771E+03  0.15668593290E+03  0.00000000000E+00 0. -1.
        -15    1    1    2    0    0  0.81505341788E+00 -0.17878811519E+01 -0.25288562625E+02  0.25426953411E+02  0.17770000000E+01 0. -1.
         15    1    1    2    0    0  0.52376377022E+01  0.92562533275E+00  0.17630719754E+02  0.18501071293E+02  0.17770000000E+01 0. -1.
</event>
<event>
 6    1  0.1226227E-002  0.1890557E+03  0.7546771E-02  0.1063353E+00
        -11   -1    0    0    0    0  0.00000000000E+00  0.00000000000E+00  0.18250000000E+03  0.18250000000E+03  0.00000000000E+00 0. -1.
         11   -1    0    0    0    0 -0.00000000000E+00 -0.00000000000E+00 -0.18250000000E+03  0.18250000000E+03  0.00000000000E+00 0.  1.
        -11    1    1    2    0    0 -0.38521425989E-01  0.93732337663E+01  0.70615718709E+02  0.71235094749E+02  0.00000000000E+00 0. -1.
         11    1    1    2    0    0 -0.25405790251E+01  0.22548660844E+02 -0.17447489695E+03  0.17594427048E+03  0.00000000000E+00 0.  1.
        -15    1    1    2    0    0  0.87634319265E+01 -0.19245326146E+01  0.75466771669E+02  0.76019029987E+02  0.17770000000E+01 0.  1.
         15    1    1    2    0    0 -0.61843314754E+01 -0.29997361995E+02  0.28392406574E+02  0.41801604785E+02  0.17770000000E+01 0. -1.
</event>
<event>
 6    1  0.1226227E-002  0.1844681E+03  0.7546771E-02  0.1066899E+00
        -11   -1    0    0    0    0  0.00000000000E+00  0.00000000000E+00  0.18250000000E+03  0.18250000000E+03  0.00000000000E+00 0.  1.
         11   -1    0    0    0    0 -0.00000000000E+00 -0.00000000000E+00 -0.18250000000E+03  0.18250000000E+03  0.00000000000E+00 0. -1.
        -11    1    1    2    0    0  0.51110898931E+00  0.28176469235E+01  0.18050915882E+03  0.18053187194E+03  0.00000000000E+00 0.  1.
         11    1    1    2    0    0 -0.73552425503E+01 -0.49888884383E+00 -0.16749149018E+03  0.16765365420E+03  0.00000000000E+00 0. -1.
        -15    1    1    2    0    0 -0.81621013537E+00 -0.13781179928E+01 -0.14566412940E+01  0.28008821907E+01  0.17770000000E+01 0.  1.
         15    1    1    2    0    0  0.76603436964E+01 -0.94064008690E+00 -0.11561027349E+02  0.14013591677E+02  0.17770000000E+01 0.  1.
</event>
<event>
 6    1  0.1226227E-002  0.1873462E+03  0.7546771E-02  0.1064661E+00
        -11   -1    0    0    0    0  0.00000000000E+00  0.00000000000E+00  0.18250000000E+03  0.18250000000E+03  0.00000000000E+00 0.  1.
         11   -1    0    0    0    0 -0.00000000000E+00 -0.00000000000E+00 -0.18250000000E+03  0.18250000000E+03  0.00000000000E+00 0.  1.
        -11    1    1    2    0    0 -0.13039317125E+01  0.38313536169E+01  0.17760767821E+03  0.17765378372E+03  0.00000000000E+00 0.  1.
         11    1    1    2    0    0 -0.30949549075E+01 -0.77116816908E+01 -0.79940532398E+02  0.80371247971E+02  0.00000000000E+00 0.  1.
        -15    1    1    2    0    0  0.66108598922E+01  0.81821491111E+01 -0.10052014034E+03  0.10108465450E+03  0.17770000000E+01 0.  1.
         15    1    1    2    0    0 -0.22119732722E+01 -0.43018210372E+01  0.28529945284E+01  0.58903138093E+01  0.17770000000E+01 0. -1.
</event>
<event>
 6    1  0.1226227E-002  0.1863963E+03  0.7546771E-02  0.1065395E+00
        -11   -1    0    0    0    0  0.00000000000E+00  0.00000000000E+00  0.18250000000E+03  0.18250000000E+03  0.00000000000E+00 0.  1.
         11   -1    0    0    0    0 -0.00000000000E+00 -0.00000000000E+00 -0.18250000000E+03  0.18250000000E+03  0.00000000000E+00 0. -1.
        -11    1    1    2    0    0 -0.21102496123E+01 -0.13734920723E+01  0.17477373598E+03  0.17479187173E+03  0.00000000000E+00 0.  1.
         11    1    1    2    0    0  0.15024313960E+00  0.29566379437E+01 -0.17857915517E+03  0.17860369241E+03  0.00000000000E+00 0. -1.
        -15    1    1    2    0    0 -0.35206442771E+01 -0.26700015092E+01  0.29703073265E+00  0.47717712059E+01  0.17770000000E+01 0.  1.
         15    1    1    2    0    0  0.54806507498E+01  0.10868556378E+01  0.35083884565E+01  0.68326646618E+01  0.17770000000E+01 0. -1.
</event>
<event>
 6    1  0.1226227E-002  0.1646578E+03  0.7546771E-02  0.1083617E+00
        -11   -1    0    0    0    0  0.00000000000E+00  0.00000000000E+00  0.18250000000E+03  0.18250000000E+03  0.00000000000E+00 0. -1.
         11   -1    0    0    0    0 -0.00000000000E+00 -0.00000000000E+00 -0.18250000000E+03  0.18250000000E+03  0.00000000000E+00 0. -1.
        -11    1    1    2    0    0  0.53696164800E+01  0.25999476691E+00  0.16423432558E+03  0.16432228722E+03  0.00000000000E+00 0. -1.
         11    1    1    2    0    0  0.11474571645E+01 -0.32418581790E+01 -0.16503650601E+03  0.16507233148E+03  0.00000000000E+00 0. -1.
        -15    1    1    2    0    0 -0.15486683076E+02  0.50670759997E+01 -0.11582330062E+02  0.20070393881E+02  0.17770000000E+01 0. -1.
         15    1    1    2    0    0  0.89696094316E+01 -0.20852125877E+01  0.12384510494E+02  0.15534987418E+02  0.17770000000E+01 0.  1.
</event>
<event>
 6    1  0.1226227E-002  0.1834782E+03  0.7546771E-02  0.1067679E+00
        -11   -1    0    0    0    0  0.00000000000E+00  0.00000000000E+00  0.18250000000E+03  0.18250000000E+03  0.00000000000E+00 0. -1.
         11   -1    0    0    0    0 -0.00000000000E+00 -0.00000000000E+00 -0.18250000000E+03  0.18250000000E+03  0.00000000000E+00 0. -1.
        -11    1    1    2    0    0  0.15054279178E+01 -0.39428565683E+01  0.18147271583E+03  0.18152178663E+03  0.00000000000E+00 0. -1.
         11    1    1    2    0    0  0.19157529906E+01  0.17213579016E+01 -0.17348134747E+03  0.17350046427E+03  0.00000000000E+00 0. -1.
        -15    1    1    2    0    0 -0.76874340660E+00  0.40212079075E+00 -0.13720767387E+01  0.24068633389E+01  0.17770000000E+01 0. -1.
         15    1    1    2    0    0 -0.26524375019E+01  0.18193778759E+01 -0.66192916244E+01  0.75708857583E+01  0.17770000000E+01 0.  1.
</event>
<event>
 6    1  0.1226227E-002  0.7595234E+02  0.7546771E-02  0.1213476E+00
        -11   -1    0    0    0    0  0.00000000000E+00  0.00000000000E+00  0.18250000000E+03  0.18250000000E+03  0.00000000000E+00 0.  1.
         11   -1    0    0    0    0 -0.00000000000E+00 -0.00000000000E+00 -0.18250000000E+03  0.18250000000E+03  0.00000000000E+00 0. -1.
        -11    1    1    2    0    0  0.14630273336E+01  0.38118661578E+00  0.10882865023E+03  0.10883915134E+03  0.00000000000E+00 0.  1.
         11    1    1    2    0    0 -0.33143174059E+01  0.10497535288E+01 -0.13538435507E+03  0.13542898611E+03  0.00000000000E+00 0. -1.
        -15    1    1    2    0    0 -0.47615989509E+02 -0.32994800193E+02  0.49225910137E+01  0.58166390020E+02  0.17770000000E+01 0. -1.
         15    1    1    2    0    0  0.49467279582E+02  0.31563860048E+02  0.21633113823E+02  0.62565472531E+02  0.17770000000E+01 0.  1.
</event>
<event>
 6    1  0.1226227E-002  0.1836095E+03  0.7546771E-02  0.1067575E+00
        -11   -1    0    0    0    0  0.00000000000E+00  0.00000000000E+00  0.18250000000E+03  0.18250000000E+03  0.00000000000E+00 0.  1.
         11   -1    0    0    0    0 -0.00000000000E+00 -0.00000000000E+00 -0.18250000000E+03  0.18250000000E+03  0.00000000000E+00 0.  1.
        -11    1    1    2    0    0  0.27277429749E+01 -0.12326319274E+01  0.18136575997E+03  0.18139045966E+03  0.00000000000E+00 0.  1.
         11    1    1    2    0    0 -0.30903439751E+01  0.40108226400E+01 -0.12399269851E+03  0.12409603622E+03  0.00000000000E+00 0.  1.
        -15    1    1    2    0    0  0.44995270915E+01  0.13890929170E+01 -0.48296417443E+02  0.48557975555E+02  0.17770000000E+01 0.  1.
         15    1    1    2    0    0 -0.41369260913E+01 -0.41672836297E+01 -0.90766440263E+01  0.10955528564E+02  0.17770000000E+01 0. -1.
</event>
<event>
 6    1  0.1226227E-002  0.1938948E+03  0.7546771E-02  0.1059730E+00
        -11   -1    0    0    0    0  0.00000000000E+00  0.00000000000E+00  0.18250000000E+03  0.18250000000E+03  0.00000000000E+00 0.  1.
         11   -1    0    0    0    0 -0.00000000000E+00 -0.00000000000E+00 -0.18250000000E+03  0.18250000000E+03  0.00000000000E+00 0. -1.
        -11    1    1    2    0    0  0.63245667780E+01  0.19330055458E+01  0.15004970171E+03  0.15019537157E+03  0.00000000000E+00 0.  1.
         11    1    1    2    0    0  0.75753939914E+00 -0.62044423869E+01 -0.17099100832E+03  0.17110521295E+03  0.00000000000E+00 0. -1.
        -15    1    1    2    0    0  0.18250741953E+01  0.86137103913E+01 -0.86330636377E+01  0.12458507908E+02  0.17770000000E+01 0. -1.
         15    1    1    2    0    0 -0.89071803725E+01 -0.43422735502E+01  0.29574370246E+02  0.31240907577E+02  0.17770000000E+01 0. -1.
</event>
<event>
 6    1  0.1226227E-002  0.1830186E+03  0.7546771E-02  0.1068043E+00
        -11   -1    0    0    0    0  0.00000000000E+00  0.00000000000E+00  0.18250000000E+03  0.18250000000E+03  0.00000000000E+00 0.  1.
         11   -1    0    0    0    0 -0.00000000000E+00 -0.00000000000E+00 -0.18250000000E+03  0.18250000000E+03  0.00000000000E+00 0.  1.
        -11    1    1    2    0    0  0.27726355960E+01  0.27650114375E+01  0.11867343300E+03  0.11873801622E+03  0.00000000000E+00 0.  1.
         11    1    1    2    0    0  0.16038121722E+01 -0.23849213262E+01 -0.18195865731E+03  0.18198135353E+03  0.00000000000E+00 0.  1.
        -15    1    1    2    0    0  0.15363964183E+01  0.24752530691E+01  0.10072179270E+02  0.10634562330E+02  0.17770000000E+01 0. -1.
         15    1    1    2    0    0 -0.59128441865E+01 -0.28553431804E+01  0.53213045041E+02  0.53646067913E+02  0.17770000000E+01 0.  1.
</event>
<event>
 6    1  0.1226227E-002  0.1832317E+03  0.7546771E-02  0.1067874E+00
        -11   -1    0    0    0    0  0.00000000000E+00  0.00000000000E+00  0.18250000000E+03  0.18250000000E+03  0.00000000000E+00 0.  1.
         11   -1    0    0    0    0 -0.00000000000E+00 -0.00000000000E+00 -0.18250000000E+03  0.18250000000E+03  0.00000000000E+00 0.  1.
        -11    1    1    2    0    0 -0.55918835534E+01  0.32961066781E+01  0.18165232395E+03  0.18176825982E+03  0.00000000000E+00 0.  1.
         11    1    1    2    0    0  0.20861803260E+01  0.62585488769E+01 -0.11389826412E+03  0.11408915878E+03  0.00000000000E+00 0.  1.
        -15    1    1    2    0    0  0.65136649540E+00 -0.87345026277E+01 -0.59855951418E+02  0.60519488296E+02  0.17770000000E+01 0.  1.
         15    1    1    2    0    0  0.28543367319E+01 -0.82015292731E+00 -0.78981084218E+01  0.86230931020E+01  0.17770000000E+01 0. -1.
</event>
<event>
 6    1  0.1226227E-002  0.2023337E+03  0.7546771E-02  0.1053679E+00
        -11   -1    0    0    0    0  0.00000000000E+00  0.00000000000E+00  0.18250000000E+03  0.18250000000E+03  0.00000000000E+00 0.  1.
         11   -1    0    0    0    0 -0.00000000000E+00 -0.00000000000E+00 -0.18250000000E+03  0.18250000000E+03  0.00000000000E+00 0. -1.
        -11    1    1    2    0    0  0.46232373816E+01  0.51985540918E+01  0.15497662375E+03  0.15513269545E+03  0.00000000000E+00 0.  1.
         11    1    1    2    0    0 -0.28203217120E+01 -0.44239508659E+01 -0.16258166894E+03  0.16266629839E+03  0.00000000000E+00 0. -1.
        -15    1    1    2    0    0 -0.60820979791E+01 -0.22673133651E+02  0.78503660431E+01  0.24816302734E+02  0.17770000000E+01 0.  1.
         15    1    1    2    0    0  0.42791823095E+01  0.21898530425E+02 -0.24532085471E+00  0.22384703423E+02  0.17770000000E+01 0. -1.
</event>
<event>
 6    1  0.1226227E-002  0.1831073E+03  0.7546771E-02  0.1067972E+00
        -11   -1    0    0    0    0  0.00000000000E+00  0.00000000000E+00  0.18250000000E+03  0.18250000000E+03  0.00000000000E+00 0.  1.
         11   -1    0    0    0    0 -0.00000000000E+00 -0.00000000000E+00 -0.18250000000E+03  0.18250000000E+03  0.00000000000E+00 0.  1.
        -11    1    1    2    0    0 -0.67655017651E+01 -0.48942117133E+00  0.18176616023E+03  0.18189268416E+03  0.00000000000E+00 0.  1.
         11    1    1    2    0    0  0.65271253993E+00  0.13444342100E+01 -0.92457442189E+02  0.92469520130E+02  0.00000000000E+00 0.  1.
        -15    1    1    2    0    0 -0.30835914727E+01  0.42480858477E+00 -0.52916933331E+02  0.53038180218E+02  0.17770000000E+01 0. -1.
         15    1    1    2    0    0  0.91963806979E+01 -0.12798216235E+01 -0.36391784711E+02  0.37599615488E+02  0.17770000000E+01 0.  1.
</event>
<event>
 6    1  0.1226227E-002  0.1829398E+03  0.7546771E-02  0.1068105E+00
        -11   -1    0    0    0    0  0.00000000000E+00  0.00000000000E+00  0.18250000000E+03  0.18250000000E+03  0.00000000000E+00 0.  1.
         11   -1    0    0    0    0 -0.00000000000E+00 -0.00000000000E+00 -0.18250000000E+03  0.18250000000E+03  0.00000000000E+00 0.  1.
        -11    1    1    2    0    0  0.28044415905E+01  0.18937245127E+01  0.18202872784E+03  0.18206017918E+03  0.00000000000E+00 0.  1.
         11    1    1    2    0    0  0.16766683058E+01  0.17951708086E+00 -0.11704369445E+03  0.11705584075E+03  0.00000000000E+00 0.  1.
        -15    1    1    2    0    0  0.22044836483E+01 -0.11945755294E+01 -0.33256178278E+02  0.33397872410E+02  0.17770000000E+01 0. -1.
         15    1    1    2    0    0 -0.66855935446E+01 -0.87866606413E+00 -0.31728855111E+02  0.32486107658E+02  0.17770000000E+01 0.  1.
</event>
<event>
 6    1  0.1226227E-002  0.1964108E+03  0.7546771E-02  0.1057891E+00
        -11   -1    0    0    0    0  0.00000000000E+00  0.00000000000E+00  0.18250000000E+03  0.18250000000E+03  0.00000000000E+00 0. -1.
         11   -1    0    0    0    0 -0.00000000000E+00 -0.00000000000E+00 -0.18250000000E+03  0.18250000000E+03  0.00000000000E+00 0. -1.
        -11    1    1    2    0    0  0.93039607230E+00 -0.18183821122E+01  0.13928575022E+03  0.13930072636E+03  0.00000000000E+00 0. -1.
         11    1    1    2    0    0  0.19806371146E+01  0.27779579901E+01 -0.16855464547E+03  0.16858917072E+03  0.00000000000E+00 0. -1.
        -15    1    1    2    0    0  0.16110904919E+01 -0.11023641858E+02  0.40033877584E+02  0.41593092886E+02  0.17770000000E+01 0. -1.
         15    1    1    2    0    0 -0.45221236788E+01  0.10064065980E+02 -0.10764982332E+02  0.15517010029E+02  0.17770000000E+01 0.  1.
</event>
<event>
 6    1  0.1226227E-002  0.1963024E+03  0.7546771E-02  0.1057970E+00
        -11   -1    0    0    0    0  0.00000000000E+00  0.00000000000E+00  0.18250000000E+03  0.18250000000E+03  0.00000000000E+00 0. -1.
         11   -1    0    0    0    0 -0.00000000000E+00 -0.00000000000E+00 -0.18250000000E+03  0.18250000000E+03  0.00000000000E+00 0. -1.
        -11    1    1    2    0    0  0.19455950695E+01 -0.19241972610E+01  0.16867537764E+03  0.16869757229E+03  0.00000000000E+00 0. -1.
         11    1    1    2    0    0 -0.24009324555E+01  0.24792841174E+01 -0.12732193525E+03  0.12736870308E+03  0.00000000000E+00 0. -1.
        -15    1    1    2    0    0  0.56371557091E+01 -0.61819391927E+01 -0.53658736135E+02  0.54336098400E+02  0.17770000000E+01 0. -1.
         15    1    1    2    0    0 -0.51818183230E+01  0.56268523363E+01  0.12305293751E+02  0.14597626233E+02  0.17770000000E+01 0.  1.
</event>
<event>
 6    1  0.1226227E-002  0.1774097E+03  0.7546771E-02  0.1072580E+00
        -11   -1    0    0    0    0  0.00000000000E+00  0.00000000000E+00  0.18250000000E+03  0.18250000000E+03  0.00000000000E+00 0.  1.
         11   -1    0    0    0    0 -0.00000000000E+00 -0.00000000000E+00 -0.18250000000E+03  0.18250000000E+03  0.00000000000E+00 0. -1.
        -11    1    1    2    0    0 -0.45436846405E+01  0.14414917596E+01  0.17616623946E+03  0.17623072063E+03  0.00000000000E+00 0.  1.
         11    1    1    2    0    0 -0.19687797105E+01 -0.37970612957E+01 -0.17861342310E+03  0.17866462627E+03  0.00000000000E+00 0. -1.
        -15    1    1    2    0    0  0.51882104232E+00  0.26388139942E+01 -0.36480609049E+00  0.32439677948E+01  0.17770000000E+01 0.  1.
         15    1    1    2    0    0  0.59936433086E+01 -0.28324445814E+00  0.28119897329E+01  0.68606853005E+01  0.17770000000E+01 0.  1.
</event>
<event>
 6    1  0.1226227E-002  0.1856266E+03  0.7546771E-02  0.1065993E+00
        -11   -1    0    0    0    0  0.00000000000E+00  0.00000000000E+00  0.18250000000E+03  0.18250000000E+03  0.00000000000E+00 0.  1.
         11   -1    0    0    0    0 -0.00000000000E+00 -0.00000000000E+00 -0.18250000000E+03  0.18250000000E+03  0.00000000000E+00 0.  1.
        -11    1    1    2    0    0  0.13052664928E+01 -0.20554356579E+01  0.94604270708E+02  0.94635598866E+02  0.00000000000E+00 0.  1.
         11    1    1    2    0    0 -0.32276521138E+01 -0.11662035261E+01 -0.17934054491E+03  0.17937337823E+03  0.00000000000E+00 0.  1.
        -15    1    1    2    0    0  0.62720917372E+00  0.29024408443E+01  0.87430384172E+02  0.87498842047E+02  0.17770000000E+01 0.  1.
         15    1    1    2    0    0  0.12951764473E+01  0.31919833971E+00 -0.26941099698E+01  0.34921808571E+01  0.17770000000E+01 0. -1.
</event>
<event>
 6    1  0.1226227E-002  0.1834451E+03  0.7546771E-02  0.1067705E+00
        -11   -1    0    0    0    0  0.00000000000E+00  0.00000000000E+00  0.18250000000E+03  0.18250000000E+03  0.00000000000E+00 0.  1.
         11   -1    0    0    0    0 -0.00000000000E+00 -0.00000000000E+00 -0.18250000000E+03  0.18250000000E+03  0.00000000000E+00 0. -1.
        -11    1    1    2    0    0 -0.14274746351E+01  0.49140003896E+01  0.18148273771E+03  0.18155486546E+03  0.00000000000E+00 0.  1.
         11    1    1    2    0    0 -0.30225270764E+01  0.12648838082E+01 -0.14713200320E+03  0.14716848156E+03  0.00000000000E+00 0. -1.
        -15    1    1    2    0    0 -0.61251217714E+00 -0.51231389609E+01 -0.23508058740E+02  0.24133136529E+02  0.17770000000E+01 0. -1.
         15    1    1    2    0    0  0.50625138887E+01 -0.10557452369E+01 -0.10842675775E+02  0.12143516453E+02  0.17770000000E+01 0.  1.
</event>
<event>
 6    1  0.1226227E-002  0.1845422E+03  0.7546771E-02  0.1066841E+00
        -11   -1    0    0    0    0  0.00000000000E+00  0.00000000000E+00  0.18250000000E+03  0.18250000000E+03  0.00000000000E+00 0.  1.
         11   -1    0    0    0    0 -0.00000000000E+00 -0.00000000000E+00 -0.18250000000E+03  0.18250000000E+03  0.00000000000E+00 0. -1.
        -11    1    1    2    0    0  0.14614972027E+01 -0.22641186358E+01  0.16483116252E+03  0.16485319028E+03  0.00000000000E+00 0.  1.
         11    1    1    2    0    0  0.25014044914E+01 -0.14388562589E+01 -0.18043468130E+03  0.18045775558E+03  0.00000000000E+00 0. -1.
        -15    1    1    2    0    0  0.14175302665E+01  0.25487695531E+01  0.41907147489E+00  0.34407801720E+01  0.17770000000E+01 0. -1.
         15    1    1    2    0    0 -0.53804319606E+01  0.11542053416E+01  0.15184447302E+02  0.16248273968E+02  0.17770000000E+01 0.  1.
</event>
<event>
 6    1  0.1226227E-002  0.1832324E+03  0.7546771E-02  0.1067873E+00
        -11   -1    0    0    0    0  0.00000000000E+00  0.00000000000E+00  0.18250000000E+03  0.18250000000E+03  0.00000000000E+00 0. -1.
         11   -1    0    0    0    0 -0.00000000000E+00 -0.00000000000E+00 -0.18250000000E+03  0.18250000000E+03  0.00000000000E+00 0. -1.
        -11    1    1    2    0    0  0.30785843809E+01 -0.54715699497E+01  0.97423618635E+02  0.97625699626E+02  0.00000000000E+00 0. -1.
         11    1    1    2    0    0  0.92588186338E+00  0.29453774040E+01 -0.18174137652E+03  0.18176760010E+03  0.00000000000E+00 0. -1.
        -15    1    1    2    0    0 -0.38466446246E+01 -0.43527682768E+01  0.20126107822E+02  0.21022873533E+02  0.17770000000E+01 0. -1.
         15    1    1    2    0    0 -0.15782161959E+00  0.68789608225E+01  0.64191650065E+02  0.64583826743E+02  0.17770000000E+01 0.  1.
</event>
<event>
 6    1  0.1226227E-002  0.1834546E+03  0.7546771E-02  0.1067697E+00
        -11   -1    0    0    0    0  0.00000000000E+00  0.00000000000E+00  0.18250000000E+03  0.18250000000E+03  0.00000000000E+00 0. -1.
         11   -1    0    0    0    0 -0.00000000000E+00 -0.00000000000E+00 -0.18250000000E+03  0.18250000000E+03  0.00000000000E+00 0. -1.
        -11    1    1    2    0    0  0.88372864052E+00 -0.32029130165E+01  0.16770725135E+03  0.16774016151E+03  0.00000000000E+00 0. -1.
         11    1    1    2    0    0  0.34341321224E+01  0.14710283764E+01 -0.18150692547E+03  0.18154536948E+03  0.00000000000E+00 0. -1.
        -15    1    1    2    0    0 -0.18858224870E+01  0.35194118007E+00  0.11205464541E+02  0.11506535257E+02  0.17770000000E+01 0. -1.
         15    1    1    2    0    0 -0.24320382759E+01  0.13799434600E+01  0.25942095776E+01  0.42079337520E+01  0.17770000000E+01 0.  1.
</event>
<event>
 6    1  0.1226227E-002  0.1884241E+03  0.7546771E-02  0.1063835E+00
        -11   -1    0    0    0    0  0.00000000000E+00  0.00000000000E+00  0.18250000000E+03  0.18250000000E+03  0.00000000000E+00 0.  1.
         11   -1    0    0    0    0 -0.00000000000E+00 -0.00000000000E+00 -0.18250000000E+03  0.18250000000E+03  0.00000000000E+00 0. -1.
        -11    1    1    2    0    0 -0.72275013671E+01  0.39221462531E+01  0.17638435730E+03  0.17657593695E+03  0.00000000000E+00 0.  1.
         11    1    1    2    0    0 -0.16208548795E+02 -0.43370142902E+01 -0.58886867841E+02  0.61230629190E+02  0.00000000000E+00 0. -1.
        -15    1    1    2    0    0  0.10110461528E+01  0.37690272555E+01  0.25644724455E+01  0.49962014270E+01  0.17770000000E+01 0.  1.
         15    1    1    2    0    0  0.22425004009E+02 -0.33541592184E+01 -0.12006196191E+03  0.12219723244E+03  0.17770000000E+01 0. -1.
</event>
<event>
 6    1  0.1226227E-002  0.1843606E+03  0.7546771E-02  0.1066983E+00
        -11   -1    0    0    0    0  0.00000000000E+00  0.00000000000E+00  0.18250000000E+03  0.18250000000E+03  0.00000000000E+00 0. -1.
         11   -1    0    0    0    0 -0.00000000000E+00 -0.00000000000E+00 -0.18250000000E+03  0.18250000000E+03  0.00000000000E+00 0.  1.
        -11    1    1    2    0    0  0.77493797428E+00 -0.16851459818E+01  0.89476723859E+02  0.89495946044E+02  0.00000000000E+00 0. -1.
         11    1    1    2    0    0 -0.25272435428E+01 -0.27263182302E+01 -0.18060111385E+03  0.18063937028E+03  0.00000000000E+00 0.  1.
        -15    1    1    2    0    0 -0.45787484835E+01  0.72236482721E+01  0.85003653753E+02  0.85451301408E+02  0.17770000000E+01 0.  1.
         15    1    1    2    0    0  0.63310540520E+01 -0.28121840601E+01  0.61207362397E+01  0.94133822674E+01  0.17770000000E+01 0. -1.
</event>
<event>
 6    1  0.1226227E-002  0.1832479E+03  0.7546771E-02  0.1067861E+00
        -11   -1    0    0    0    0  0.00000000000E+00  0.00000000000E+00  0.18250000000E+03  0.18250000000E+03  0.00000000000E+00 0.  1.
         11   -1    0    0    0    0 -0.00000000000E+00 -0.00000000000E+00 -0.18250000000E+03  0.18250000000E+03  0.00000000000E+00 0. -1.
        -11    1    1    2    0    0  0.23940143895E+01  0.69876891023E+00  0.18173494687E+03  0.18175205775E+03  0.00000000000E+00 0.  1.
         11    1    1    2    0    0  0.27218183164E+01  0.10869397349E+00 -0.11439188092E+03  0.11442430917E+03  0.00000000000E+00 0. -1.
        -15    1    1    2    0    0 -0.32974504490E+00  0.68577625342E+00 -0.58300825320E+02  0.58332863661E+02  0.17770000000E+01 0. -1.
         15    1    1    2    0    0 -0.47860876610E+01 -0.14932391371E+01 -0.90422406327E+01  0.10490769413E+02  0.17770000000E+01 0. -1.
</event>
<event>
 6    1  0.1226227E-002  0.1829034E+03  0.7546771E-02  0.1068134E+00
        -11   -1    0    0    0    0  0.00000000000E+00  0.00000000000E+00  0.18250000000E+03  0.18250000000E+03  0.00000000000E+00 0. -1.
         11   -1    0    0    0    0 -0.00000000000E+00 -0.00000000000E+00 -0.18250000000E+03  0.18250000000E+03  0.00000000000E+00 0. -1.
        -11    1    1    2    0    0  0.45330546849E+00  0.36879447820E+01  0.14319686127E+03  0.14324506100E+03  0.00000000000E+00 0. -1.
         11    1    1    2    0    0 -0.32210984042E-02 -0.30738546351E+01 -0.18207067645E+03  0.18209662219E+03  0.00000000000E+00 0. -1.
        -15    1    1    2    0    0  0.12618942252E+01  0.28229261388E+01  0.15537775978E+02  0.15941816094E+02  0.17770000000E+01 0. -1.
         15    1    1    2    0    0 -0.17119785952E+01 -0.34370162857E+01  0.23336039198E+02  0.23716500714E+02  0.17770000000E+01 0.  1.
</event>
<event>
 6    1  0.1226227E-002  0.1831566E+03  0.7546771E-02  0.1067933E+00
        -11   -1    0    0    0    0  0.00000000000E+00  0.00000000000E+00  0.18250000000E+03  0.18250000000E+03  0.00000000000E+00 0.  1.
         11   -1    0    0    0    0 -0.00000000000E+00 -0.00000000000E+00 -0.18250000000E+03  0.18250000000E+03  0.00000000000E+00 0. -1.
        -11    1    1    2    0    0 -0.15414741480E+01  0.92327643838E+00  0.90006711656E+02  0.90024645098E+02  0.00000000000E+00 0.  1.
         11    1    1    2    0    0 -0.29316592208E+01 -0.64667484958E+01 -0.18170468887E+03  0.18184335957E+03  0.00000000000E+00 0. -1.
        -15    1    1    2    0    0 -0.28488209381E+01 -0.21567146937E+00  0.57471205280E+01  0.66595358910E+01  0.17770000000E+01 0. -1.
         15    1    1    2    0    0  0.73219543069E+01  0.57591435267E+01  0.85950856683E+02  0.86472459446E+02  0.17770000000E+01 0.  1.
</event>
<event>
 6    1  0.1226227E-002  0.1835160E+03  0.7546771E-02  0.1067649E+00
        -11   -1    0    0    0    0  0.00000000000E+00  0.00000000000E+00  0.18250000000E+03  0.18250000000E+03  0.00000000000E+00 0.  1.
         11   -1    0    0    0    0 -0.00000000000E+00 -0.00000000000E+00 -0.18250000000E+03  0.18250000000E+03  0.00000000000E+00 0. -1.
        -11    1    1    2    0    0  0.75270611912E+01  0.29284485193E+01  0.18130414176E+03  0.18148395047E+03  0.00000000000E+00 0.  1.
         11    1    1    2    0    0  0.60431716797E+00 -0.18931591725E+01 -0.11395869677E+03  0.11397602301E+03  0.00000000000E+00 0. -1.
        -15    1    1    2    0    0 -0.68910213448E+01 -0.10630970222E+01 -0.10947477504E+02  0.13100432938E+02  0.17770000000E+01 0. -1.
         15    1    1    2    0    0 -0.12403570144E+01  0.27807675431E-01 -0.56397967483E+02  0.56439593585E+02  0.17770000000E+01 0.  1.
</event>
<event>
 6    1  0.1226227E-002  0.1720278E+03  0.7546771E-02  0.1077110E+00
        -11   -1    0    0    0    0  0.00000000000E+00  0.00000000000E+00  0.18250000000E+03  0.18250000000E+03  0.00000000000E+00 0.  1.
         11   -1    0    0    0    0 -0.00000000000E+00 -0.00000000000E+00 -0.18250000000E+03  0.18250000000E+03  0.00000000000E+00 0. -1.
        -11    1    1    2    0    0  0.10584405545E+00  0.44132183972E+01  0.17544204756E+03  0.17549757763E+03  0.00000000000E+00 0.  1.
         11    1    1    2    0    0 -0.18523309864E+01  0.79686570421E+01 -0.16865382373E+03  0.16885213319E+03  0.00000000000E+00 0. -1.
        -15    1    1    2    0    0  0.32356473001E+01 -0.42502866079E+01  0.40272461731E+01  0.69217620906E+01  0.17770000000E+01 0. -1.
         15    1    1    2    0    0 -0.14891603691E+01 -0.81315888314E+01 -0.10815470009E+02  0.13728527090E+02  0.17770000000E+01 0. -1.
</event>
<event>
 6    1  0.1295715E-002  0.1843546E+03  0.7546771E-02  0.1066988E+00
        -11   -1    0    0    0    0  0.00000000000E+00  0.00000000000E+00  0.18250000000E+03  0.18250000000E+03  0.00000000000E+00 0. -1.
         11   -1    0    0    0    0 -0.00000000000E+00 -0.00000000000E+00 -0.18250000000E+03  0.18250000000E+03  0.00000000000E+00 0.  1.
        -11    1    1    2    0    0 -0.15601883693E+00  0.25016068780E+01  0.18062804897E+03  0.18064543851E+03  0.00000000000E+00 0. -1.
         11    1    1    2    0    0 -0.52307325144E+00  0.51969308105E+01 -0.15675211476E+03  0.15683911240E+03  0.00000000000E+00 0.  1.
        -15    1    1    2    0    0  0.96373171761E+00 -0.44509278439E+00  0.40608910326E+00  0.21093894306E+01  0.17770000000E+01 0. -1.
         15    1    1    2    0    0 -0.28463962924E+00 -0.72534449041E+01 -0.24282023309E+02  0.25406059664E+02  0.17770000000E+01 0.  1.
</event>
<event>
 6    1  0.1226227E-002  0.1893348E+03  0.7546771E-02  0.1063141E+00
        -11   -1    0    0    0    0  0.00000000000E+00  0.00000000000E+00  0.18250000000E+03  0.18250000000E+03  0.00000000000E+00 0. -1.
         11   -1    0    0    0    0 -0.00000000000E+00 -0.00000000000E+00 -0.18250000000E+03  0.18250000000E+03  0.00000000000E+00 0.  1.
        -11    1    1    2    0    0  0.28226773191E+01 -0.28042956375E+01  0.13991846685E+03  0.13997502973E+03  0.00000000000E+00 0. -1.
         11    1    1    2    0    0  0.10002906620E+02 -0.42502089776E+01 -0.17532866141E+03  0.17566519840E+03  0.00000000000E+00 0.  1.
        -15    1    1    2    0    0 -0.10773432883E+02  0.11401896588E+02  0.24170562861E+01  0.15970910806E+02  0.17770000000E+01 0.  1.
         15    1    1    2    0    0 -0.20521510556E+01 -0.43473919729E+01  0.32993138273E+02  0.33388861062E+02  0.17770000000E+01 0. -1.
</event>
<event>
 6    1  0.1226227E-002  0.1830138E+03  0.7546771E-02  0.1068047E+00
        -11   -1    0    0    0    0  0.00000000000E+00  0.00000000000E+00  0.18250000000E+03  0.18250000000E+03  0.00000000000E+00 0. -1.
         11   -1    0    0    0    0 -0.00000000000E+00 -0.00000000000E+00 -0.18250000000E+03  0.18250000000E+03  0.00000000000E+00 0.  1.
        -11    1    1    2    0    0  0.25063228726E+01  0.33487638081E+01  0.18193813432E+03  0.18198620990E+03  0.00000000000E+00 0. -1.
         11    1    1    2    0    0  0.39180173831E+01  0.22617620509E+01 -0.12904947121E+03  0.12912874369E+03  0.00000000000E+00 0.  1.
        -15    1    1    2    0    0 -0.14604827924E+01  0.37493453248E+00 -0.11120579056E+02  0.11362156197E+02  0.17770000000E+01 0. -1.
         15    1    1    2    0    0 -0.49638574634E+01 -0.59854603915E+01 -0.41768084057E+02  0.42522890210E+02  0.17770000000E+01 0.  1.
</event>
<event>
 6    1  0.1226227E-002  0.1842874E+03  0.7546771E-02  0.1067041E+00
        -11   -1    0    0    0    0  0.00000000000E+00  0.00000000000E+00  0.18250000000E+03  0.18250000000E+03  0.00000000000E+00 0. -1.
         11   -1    0    0    0    0 -0.00000000000E+00 -0.00000000000E+00 -0.18250000000E+03  0.18250000000E+03  0.00000000000E+00 0.  1.
        -11    1    1    2    0    0  0.17443567191E+01 -0.63167260637E-01  0.12432804809E+03  0.12434030043E+03  0.00000000000E+00 0. -1.
         11    1    1    2    0    0  0.11239435121E+02  0.17582263367E+01 -0.18035416651E+03  0.18071259402E+03  0.00000000000E+00 0.  1.
        -15    1    1    2    0    0 -0.25073698872E+01  0.65210096273E+01  0.12899600172E+02  0.14777275930E+02  0.17770000000E+01 0.  1.
         15    1    1    2    0    0 -0.10476421953E+02 -0.82160687033E+01  0.43126518250E+02  0.45169829613E+02  0.17770000000E+01 0. -1.
</event>
<event>
 6    1  0.1226227E-002  0.1831287E+03  0.7546771E-02  0.1067956E+00
        -11   -1    0    0    0    0  0.00000000000E+00  0.00000000000E+00  0.18250000000E+03  0.18250000000E+03  0.00000000000E+00 0. -1.
         11   -1    0    0    0    0 -0.00000000000E+00 -0.00000000000E+00 -0.18250000000E+03  0.18250000000E+03  0.00000000000E+00 0.  1.
        -11    1    1    2    0    0 -0.45484622343E+01 -0.28303048869E+01  0.18179243274E+03  0.18187134941E+03  0.00000000000E+00 0. -1.
         11    1    1    2    0    0 -0.86475385530E+00  0.19215405288E+01 -0.14944161071E+03  0.14945646566E+03  0.00000000000E+00 0.  1.
        -15    1    1    2    0    0  0.33492967495E+01 -0.26351309287E+01 -0.12529579618E+02  0.13353269193E+02  0.17770000000E+01 0. -1.
         15    1    1    2    0    0  0.20639193401E+01  0.35438952869E+01 -0.19821242412E+02  0.20318915734E+02  0.17770000000E+01 0.  1.
</event>
<event>
 6    1  0.1226227E-002  0.9785892E+02  0.7546771E-02  0.1167572E+00
        -11   -1    0    0    0    0  0.00000000000E+00  0.00000000000E+00  0.18250000000E+03  0.18250000000E+03  0.00000000000E+00 0. -1.
         11   -1    0    0    0    0 -0.00000000000E+00 -0.00000000000E+00 -0.18250000000E+03  0.18250000000E+03  0.00000000000E+00 0. -1.
        -11    1    1    2    0    0  0.36087065972E+01 -0.25505405815E+01  0.69682129961E+02  0.69822111515E+02  0.00000000000E+00 0. -1.
         11    1    1    2    0    0 -0.44557354428E+01  0.18571041335E+01 -0.16328288348E+03  0.16335422386E+03  0.00000000000E+00 0. -1.
        -15    1    1    2    0    0  0.42769286926E+02  0.19056258976E+02  0.43389569588E+02  0.63860515096E+02  0.17770000000E+01 0. -1.
         15    1    1    2    0    0 -0.41922258081E+02 -0.18362822528E+02  0.50211183930E+02  0.67963149533E+02  0.17770000000E+01 0.  1.
</event>
<event>
 6    1  0.1226227E-002  0.1831928E+03  0.7546771E-02  0.1067905E+00
        -11   -1    0    0    0    0  0.00000000000E+00  0.00000000000E+00  0.18250000000E+03  0.18250000000E+03  0.00000000000E+00 0. -1.
         11   -1    0    0    0    0 -0.00000000000E+00 -0.00000000000E+00 -0.18250000000E+03  0.18250000000E+03  0.00000000000E+00 0.  1.
        -11    1    1    2    0    0  0.18001978677E+01 -0.19951758634E+01  0.16900374168E+03  0.16902510507E+03  0.00000000000E+00 0. -1.
         11    1    1    2    0    0 -0.11530820968E+01  0.23500140942E+01 -0.18178836433E+03  0.18180720990E+03  0.00000000000E+00 0.  1.
        -15    1    1    2    0    0  0.12804624241E+00 -0.13949270986E+01  0.16063053415E+01  0.27749168097E+01  0.17770000000E+01 0. -1.
         15    1    1    2    0    0 -0.77516201330E+00  0.10400888678E+01  0.11178317307E+02  0.11392768225E+02  0.17770000000E+01 0.  1.
</event>
<event>
 6    1  0.1226227E-002  0.1891737E+03  0.7546771E-02  0.1063263E+00
        -11   -1    0    0    0    0  0.00000000000E+00  0.00000000000E+00  0.18250000000E+03  0.18250000000E+03  0.00000000000E+00 0. -1.
         11   -1    0    0    0    0 -0.00000000000E+00 -0.00000000000E+00 -0.18250000000E+03  0.18250000000E+03  0.00000000000E+00 0.  1.
        -11    1    1    2    0    0 -0.15495746126E+02 -0.32590057858E+01  0.17511185695E+03  0.17582633964E+03  0.00000000000E+00 0. -1.
         11    1    1    2    0    0  0.10535213441E+02 -0.38695970703E+01 -0.88178902147E+02  0.88890287926E+02  0.00000000000E+00 0.  1.
        -15    1    1    2    0    0  0.14986284314E+02  0.13241528463E+02 -0.99822797896E+01  0.22421650974E+02  0.17770000000E+01 0. -1.
         15    1    1    2    0    0 -0.10025751629E+02 -0.61129256072E+01 -0.76950675012E+02  0.77861721462E+02  0.17770000000E+01 0.  1.
</event>
<event>
 6    1  0.1226227E-002  0.1825623E+03  0.7546771E-02  0.1068405E+00
        -11   -1    0    0    0    0  0.00000000000E+00  0.00000000000E+00  0.18250000000E+03  0.18250000000E+03  0.00000000000E+00 0.  1.
         11   -1    0    0    0    0 -0.00000000000E+00 -0.00000000000E+00 -0.18250000000E+03  0.18250000000E+03  0.00000000000E+00 0. -1.
        -11    1    1    2    0    0 -0.12247638400E+01  0.13559485703E+01  0.87514156419E+02  0.87533229214E+02  0.00000000000E+00 0.  1.
         11    1    1    2    0    0  0.19350853876E+01 -0.25253045842E+01 -0.18240992590E+03  0.18243766822E+03  0.00000000000E+00 0. -1.
        -15    1    1    2    0    0  0.51638690970E+00 -0.28956030290E+00  0.62725323674E+02  0.62753282460E+02  0.17770000000E+01 0.  1.
         15    1    1    2    0    0 -0.12267084572E+01  0.14589163168E+01  0.32170445812E+02  0.32275820101E+02  0.17770000000E+01 0. -1.
</event>
<event>
 6    1  0.1226227E-002  0.1835461E+03  0.7546771E-02  0.1067625E+00
        -11   -1    0    0    0    0  0.00000000000E+00  0.00000000000E+00  0.18250000000E+03  0.18250000000E+03  0.00000000000E+00 0. -1.
         11   -1    0    0    0    0 -0.00000000000E+00 -0.00000000000E+00 -0.18250000000E+03  0.18250000000E+03  0.00000000000E+00 0. -1.
        -11    1    1    2    0    0  0.71989983886E+01 -0.19388919823E+01  0.15392273805E+03  0.15410319324E+03  0.00000000000E+00 0. -1.
         11    1    1    2    0    0 -0.77589878466E+00  0.47076627133E+01 -0.18139118617E+03  0.18145392398E+03  0.00000000000E+00 0. -1.
        -15    1    1    2    0    0  0.83803104347E+00 -0.15920860554E+01  0.11463124184E+02  0.11738738395E+02  0.17770000000E+01 0. -1.
         15    1    1    2    0    0 -0.72611306474E+01 -0.11766846756E+01  0.16005323937E+02  0.17704144386E+02  0.17770000000E+01 0.  1.
</event>
<event>
 6    1  0.1226227E-002  0.1945914E+03  0.7546771E-02  0.1059218E+00
        -11   -1    0    0    0    0  0.00000000000E+00  0.00000000000E+00  0.18250000000E+03  0.18250000000E+03  0.00000000000E+00 0.  1.
         11   -1    0    0    0    0 -0.00000000000E+00 -0.00000000000E+00 -0.18250000000E+03  0.18250000000E+03  0.00000000000E+00 0. -1.
        -11    1    1    2    0    0 -0.80066533734E+01 -0.11250230618E+02  0.14133872650E+03  0.14201165373E+03  0.00000000000E+00 0.  1.
         11    1    1    2    0    0 -0.59390447391E+01 -0.24408033970E+00 -0.17030494223E+03  0.17040864173E+03  0.00000000000E+00 0. -1.
        -15    1    1    2    0    0  0.23185586593E+02  0.13365267815E+02  0.32693716880E+02  0.42287571009E+02  0.17770000000E+01 0.  1.
         15    1    1    2    0    0 -0.92398884806E+01 -0.18709568570E+01 -0.37275011474E+01  0.10292133525E+02  0.17770000000E+01 0. -1.
</event>
<event>
 6    1  0.1226227E-002  0.1835795E+03  0.7546771E-02  0.1067599E+00
        -11   -1    0    0    0    0  0.00000000000E+00  0.00000000000E+00  0.18250000000E+03  0.18250000000E+03  0.00000000000E+00 0. -1.
         11   -1    0    0    0    0 -0.00000000000E+00 -0.00000000000E+00 -0.18250000000E+03  0.18250000000E+03  0.00000000000E+00 0.  1.
        -11    1    1    2    0    0 -0.27474247354E+01 -0.39464065094E+01  0.18135675477E+03  0.18142049214E+03  0.00000000000E+00 0. -1.
         11    1    1    2    0    0 -0.22771305984E+01  0.63269199032E+00 -0.15313956633E+03  0.15315780228E+03  0.00000000000E+00 0.  1.
        -15    1    1    2    0    0 -0.12557348459E+01 -0.91071086736E+00 -0.14183705057E+02  0.14378507657E+02  0.17770000000E+01 0.  1.
         15    1    1    2    0    0  0.62802901797E+01  0.42244253864E+01 -0.14033483387E+02  0.16043197922E+02  0.17770000000E+01 0. -1.
</event>
<event>
 6    1  0.1226227E-002  0.1866266E+03  0.7546771E-02  0.1065217E+00
        -11   -1    0    0    0    0  0.00000000000E+00  0.00000000000E+00  0.18250000000E+03  0.18250000000E+03  0.00000000000E+00 0. -1.
         11   -1    0    0    0    0 -0.00000000000E+00 -0.00000000000E+00 -0.18250000000E+03  0.18250000000E+03  0.00000000000E+00 0.  1.
        -11    1    1    2    0    0 -0.13294847430E+01  0.42965126233E+01  0.17831666633E+03  0.17837337537E+03  0.00000000000E+00 0. -1.
         11    1    1    2    0    0  0.16182210962E+01 -0.32099869880E+01 -0.10990898955E+03  0.10996776182E+03  0.00000000000E+00 0.  1.
        -15    1    1    2    0    0  0.23334977824E+01  0.84323108301E+00 -0.71660489500E+02  0.71725446913E+02  0.17770000000E+01 0.  1.
         15    1    1    2    0    0 -0.26222341356E+01 -0.19297567183E+01  0.32528127187E+01  0.49334158994E+01  0.17770000000E+01 0. -1.
</event>
<event>
 6    1  0.1226227E-002  0.1886664E+03  0.7546771E-02  0.1063650E+00
        -11   -1    0    0    0    0  0.00000000000E+00  0.00000000000E+00  0.18250000000E+03  0.18250000000E+03  0.00000000000E+00 0. -1.
         11   -1    0    0    0    0 -0.00000000000E+00 -0.00000000000E+00 -0.18250000000E+03  0.18250000000E+03  0.00000000000E+00 0.  1.
        -11    1    1    2    0    0  0.56310898746E+01 -0.32681138963E+01  0.17383749620E+03  0.17395937694E+03  0.00000000000E+00 0. -1.
         11    1    1    2    0    0 -0.18308418920E+01  0.22324280452E+01 -0.17630995871E+03  0.17633359651E+03  0.00000000000E+00 0.  1.
        -15    1    1    2    0    0  0.38866036757E+01  0.28051583562E+01  0.39843624486E+01  0.64813173551E+01  0.17770000000E+01 0. -1.
         15    1    1    2    0    0 -0.76868516583E+01 -0.17694725052E+01 -0.15118999336E+01  0.82257091957E+01  0.17770000000E+01 0.  1.
</event>
<event>
 6    1  0.1226227E-002  0.1748746E+03  0.7546771E-02  0.1074692E+00
        -11   -1    0    0    0    0  0.00000000000E+00  0.00000000000E+00  0.18250000000E+03  0.18250000000E+03  0.00000000000E+00 0.  1.
         11   -1    0    0    0    0 -0.00000000000E+00 -0.00000000000E+00 -0.18250000000E+03  0.18250000000E+03  0.00000000000E+00 0. -1.
        -11    1    1    2    0    0  0.24133233961E+01  0.13310175984E+01  0.17518642161E+03  0.17520809928E+03  0.00000000000E+00 0.  1.
         11    1    1    2    0    0  0.34317890774E-01  0.32490092533E+01 -0.17455005649E+03  0.17458029517E+03  0.00000000000E+00 0. -1.
        -15    1    1    2    0    0  0.11861506655E+01 -0.45566758616E+01 -0.64176895876E+01  0.81556555194E+01  0.17770000000E+01 0.  1.
         15    1    1    2    0    0 -0.36337919524E+01 -0.23350990099E-01  0.57813244690E+01  0.70559500308E+01  0.17770000000E+01 0. -1.
</event>
<event>
 6    1  0.1226227E-002  0.1883764E+03  0.7546771E-02  0.1063871E+00
        -11   -1    0    0    0    0  0.00000000000E+00  0.00000000000E+00  0.18250000000E+03  0.18250000000E+03  0.00000000000E+00 0.  1.
         11   -1    0    0    0    0 -0.00000000000E+00 -0.00000000000E+00 -0.18250000000E+03  0.18250000000E+03  0.00000000000E+00 0. -1.
        -11    1    1    2    0    0  0.37115845089E+00  0.30990141085E+01  0.86711638310E+02  0.86767792789E+02  0.00000000000E+00 0.  1.
         11    1    1    2    0    0  0.61694868508E+01  0.78169273373E+01 -0.17634266510E+03  0.17662361806E+03  0.00000000000E+00 0. -1.
        -15    1    1    2    0    0  0.15343929198E+01 -0.35447482421E+01  0.90404741853E+02  0.90504666622E+02  0.17770000000E+01 0.  1.
         15    1    1    2    0    0 -0.80750382215E+01 -0.73711932037E+01 -0.77371505931E+00  0.11103922528E+02  0.17770000000E+01 0.  1.
</event>
<event>
 6    1  0.1226227E-002  0.1768127E+03  0.7546771E-02  0.1073074E+00
        -11   -1    0    0    0    0  0.00000000000E+00  0.00000000000E+00  0.18250000000E+03  0.18250000000E+03  0.00000000000E+00 0.  1.
         11   -1    0    0    0    0 -0.00000000000E+00 -0.00000000000E+00 -0.18250000000E+03  0.18250000000E+03  0.00000000000E+00 0.  1.
        -11    1    1    2    0    0 -0.99010596027E+00 -0.67116905921E+01  0.17775515264E+03  0.17788457322E+03  0.00000000000E+00 0.  1.
         11    1    1    2    0    0 -0.23670345991E+01  0.28701257163E+01 -0.17574394757E+03  0.17578331998E+03  0.00000000000E+00 0.  1.
        -15    1    1    2    0    0  0.62848049857E+01  0.10260944232E+01 -0.43069339006E+00  0.66253203145E+01  0.17770000000E+01 0. -1.
         15    1    1    2    0    0 -0.29276644263E+01  0.28154704526E+01 -0.15805116760E+01  0.47067864855E+01  0.17770000000E+01 0.  1.
</event>
<event>
 6    1  0.1226227E-002  0.1885599E+03  0.7546771E-02  0.1063731E+00
        -11   -1    0    0    0    0  0.00000000000E+00  0.00000000000E+00  0.18250000000E+03  0.18250000000E+03  0.00000000000E+00 0. -1.
         11   -1    0    0    0    0 -0.00000000000E+00 -0.00000000000E+00 -0.18250000000E+03  0.18250000000E+03  0.00000000000E+00 0. -1.
        -11    1    1    2    0    0 -0.11360279960E+01 -0.24893250955E+01  0.16516180043E+03  0.16518446543E+03  0.00000000000E+00 0. -1.
         11    1    1    2    0    0 -0.23946594721E+01  0.10848195865E+01 -0.17642047682E+03  0.17644006311E+03  0.00000000000E+00 0. -1.
        -15    1    1    2    0    0  0.13616274737E+01  0.43797900646E+01 -0.47590679119E+01  0.68441980376E+01  0.17770000000E+01 0.  1.
         15    1    1    2    0    0  0.21690599944E+01 -0.29752845556E+01  0.16017744303E+02  0.16531273423E+02  0.17770000000E+01 0.  1.
</event>
<event>
 6    1  0.1226227E-002  0.1856657E+03  0.7546771E-02  0.1065962E+00
        -11   -1    0    0    0    0  0.00000000000E+00  0.00000000000E+00  0.18250000000E+03  0.18250000000E+03  0.00000000000E+00 0.  1.
         11   -1    0    0    0    0 -0.00000000000E+00 -0.00000000000E+00 -0.18250000000E+03  0.18250000000E+03  0.00000000000E+00 0.  1.
        -11    1    1    2    0    0  0.53709527220E+00 -0.30347265589E+01  0.17388512973E+03  0.17391243883E+03  0.00000000000E+00 0.  1.
         11    1    1    2    0    0  0.63517209224E+01  0.10102975179E+01 -0.17921890404E+03  0.17933427063E+03  0.00000000000E+00 0.  1.
        -15    1    1    2    0    0 -0.34735733734E+01  0.21853247857E+01 -0.76721323781E+00  0.45373672490E+01  0.17770000000E+01 0. -1.
         15    1    1    2    0    0 -0.34152428212E+01 -0.16089574478E+00  0.61009875423E+01  0.72159232923E+01  0.17770000000E+01 0.  1.
</event>
<event>
 6    1  0.1226227E-002  0.1759417E+03  0.7546771E-02  0.1073798E+00
        -11   -1    0    0    0    0  0.00000000000E+00  0.00000000000E+00  0.18250000000E+03  0.18250000000E+03  0.00000000000E+00 0. -1.
         11   -1    0    0    0    0 -0.00000000000E+00 -0.00000000000E+00 -0.18250000000E+03  0.18250000000E+03  0.00000000000E+00 0. -1.
        -11    1    1    2    0    0  0.19162402183E+01  0.43519724216E+01  0.17706681457E+03  0.17713065365E+03  0.00000000000E+00 0. -1.
         11    1    1    2    0    0  0.37336010594E+01 -0.70578194770E+01 -0.17463455351E+03  0.17481698965E+03  0.00000000000E+00 0. -1.
        -15    1    1    2    0    0 -0.27568223737E+01 -0.25288577564E+01 -0.48350260559E+01  0.63663488055E+01  0.17770000000E+01 0.  1.
         15    1    1    2    0    0 -0.28930189040E+01  0.52347048118E+01  0.24027649901E+01  0.66860078854E+01  0.17770000000E+01 0. -1.
</event>
<event>
 6    1  0.1226227E-002  0.1867441E+03  0.7546771E-02  0.1065126E+00
        -11   -1    0    0    0    0  0.00000000000E+00  0.00000000000E+00  0.18250000000E+03  0.18250000000E+03  0.00000000000E+00 0.  1.
         11   -1    0    0    0    0 -0.00000000000E+00 -0.00000000000E+00 -0.18250000000E+03  0.18250000000E+03  0.00000000000E+00 0.  1.
        -11    1    1    2    0    0 -0.73411261716E+00  0.31356239731E+01  0.17095493905E+03  0.17098526909E+03  0.00000000000E+00 0.  1.
         11    1    1    2    0    0 -0.37145205792E+01 -0.24011808877E+01 -0.17820105530E+03  0.17825593803E+03  0.00000000000E+00 0.  1.
        -15    1    1    2    0    0  0.21629347262E+01 -0.15551737722E+01 -0.34147441891E+01  0.46813522585E+01  0.17770000000E+01 0.  1.
         15    1    1    2    0    0  0.22856984702E+01  0.82073068683E+00  0.10660860443E+02  0.11077440623E+02  0.17770000000E+01 0. -1.
</event>
<event>
 6    1  0.1226227E-002  0.1826229E+03  0.7546771E-02  0.1068357E+00
        -11   -1    0    0    0    0  0.00000000000E+00  0.00000000000E+00  0.18250000000E+03  0.18250000000E+03  0.00000000000E+00 0.  1.
         11   -1    0    0    0    0 -0.00000000000E+00 -0.00000000000E+00 -0.18250000000E+03  0.18250000000E+03  0.00000000000E+00 0.  1.
        -11    1    1    2    0    0 -0.14219487849E+01 -0.13485325399E+00  0.99687606548E+02  0.99697838608E+02  0.00000000000E+00 0.  1.
         11    1    1    2    0    0  0.13566712147E+01 -0.26385916873E+01 -0.18235296547E+03  0.18237710036E+03  0.00000000000E+00 0.  1.
        -15    1    1    2    0    0  0.15192943738E+01 -0.46023430401E+00  0.21594972386E+02  0.21726035818E+02  0.17770000000E+01 0.  1.
         15    1    1    2    0    0 -0.14540168037E+01  0.32336792453E+01  0.61070386533E+02  0.61199025210E+02  0.17770000000E+01 0.  1.
</event>
<event>
 6    1  0.1226227E-002  0.1752653E+03  0.7546771E-02  0.1074364E+00
        -11   -1    0    0    0    0  0.00000000000E+00  0.00000000000E+00  0.18250000000E+03  0.18250000000E+03  0.00000000000E+00 0.  1.
         11   -1    0    0    0    0 -0.00000000000E+00 -0.00000000000E+00 -0.18250000000E+03  0.18250000000E+03  0.00000000000E+00 0. -1.
        -11    1    1    2    0    0 -0.28534415648E+01 -0.13149338223E+01  0.17321805171E+03  0.17324654287E+03  0.00000000000E+00 0.  1.
         11    1    1    2    0    0 -0.40785886729E+01  0.10591766144E+01 -0.17732677407E+03  0.17737683486E+03  0.00000000000E+00 0. -1.
        -15    1    1    2    0    0  0.33467789768E+00  0.21453160663E+01  0.63496448066E+01  0.69419095708E+01  0.17770000000E+01 0.  1.
         15    1    1    2    0    0  0.65973523400E+01 -0.18895588585E+01 -0.22409224417E+01  0.74347127025E+01  0.17770000000E+01 0. -1.
</event>
<event>
 6    1  0.1226227E-002  0.1863826E+03  0.7546771E-02  0.1065406E+00
        -11   -1    0    0    0    0  0.00000000000E+00  0.00000000000E+00  0.18250000000E+03  0.18250000000E+03  0.00000000000E+00 0. -1.
         11   -1    0    0    0    0 -0.00000000000E+00 -0.00000000000E+00 -0.18250000000E+03  0.18250000000E+03  0.00000000000E+00 0. -1.
        -11    1    1    2    0    0  0.43359747647E+01  0.43396862776E+00  0.17258071349E+03  0.17263571957E+03  0.00000000000E+00 0. -1.
         11    1    1    2    0    0  0.17011458795E+01 -0.17577900835E+01 -0.17860064946E+03  0.17861740036E+03  0.00000000000E+00 0. -1.
        -15    1    1    2    0    0 -0.39759160415E+01  0.49150528108E+01  0.64698199838E+01  0.92185656219E+01  0.17770000000E+01 0.  1.
         15    1    1    2    0    0 -0.20612046027E+01 -0.35912313550E+01 -0.44988400503E+00  0.45283144411E+01  0.17770000000E+01 0. -1.
</event>
<event>
 6    1  0.1226227E-002  0.1833530E+03  0.7546771E-02  0.1067778E+00
        -11   -1    0    0    0    0  0.00000000000E+00  0.00000000000E+00  0.18250000000E+03  0.18250000000E+03  0.00000000000E+00 0.  1.
         11   -1    0    0    0    0 -0.00000000000E+00 -0.00000000000E+00 -0.18250000000E+03  0.18250000000E+03  0.00000000000E+00 0.  1.
        -11    1    1    2    0    0  0.12107608429E+01  0.35318306490E+01  0.18160866833E+03  0.18164704287E+03  0.00000000000E+00 0.  1.
         11    1    1    2    0    0 -0.20155442087E+01 -0.10645711888E+01 -0.16485184680E+03  0.16486760484E+03  0.00000000000E+00 0.  1.
        -15    1    1    2    0    0  0.10832069072E+01  0.15342948580E+01 -0.26099804981E+01  0.36738433711E+01  0.17770000000E+01 0.  1.
         15    1    1    2    0    0 -0.27842354134E+00 -0.40015543183E+01 -0.14146841027E+02  0.14811508926E+02  0.17770000000E+01 0. -1.
</event>
<event>
 6    1  0.1226227E-002  0.1847384E+03  0.7546771E-02  0.1066687E+00
        -11   -1    0    0    0    0  0.00000000000E+00  0.00000000000E+00  0.18250000000E+03  0.18250000000E+03  0.00000000000E+00 0. -1.
         11   -1    0    0    0    0 -0.00000000000E+00 -0.00000000000E+00 -0.18250000000E+03  0.18250000000E+03  0.00000000000E+00 0. -1.
        -11    1    1    2    0    0 -0.13083594212E+01 -0.58278736580E+01  0.11786269027E+03  0.11801393847E+03  0.00000000000E+00 0. -1.
         11    1    1    2    0    0  0.27903082352E+01 -0.23770821277E+01 -0.18022436199E+03  0.18026163484E+03  0.00000000000E+00 0. -1.
        -15    1    1    2    0    0 -0.13895883100E+01  0.65440444290E+01  0.63612324640E+02  0.63987819531E+02  0.17770000000E+01 0.  1.
         15    1    1    2    0    0 -0.92360504027E-01  0.16609113566E+01 -0.12506529213E+01  0.27366071561E+01  0.17770000000E+01 0. -1.
</event>
<event>
 6    1  0.1226227E-002  0.1898076E+03  0.7546771E-02  0.1062782E+00
        -11   -1    0    0    0    0  0.00000000000E+00  0.00000000000E+00  0.18250000000E+03  0.18250000000E+03  0.00000000000E+00 0.  1.
         11   -1    0    0    0    0 -0.00000000000E+00 -0.00000000000E+00 -0.18250000000E+03  0.18250000000E+03  0.00000000000E+00 0.  1.
        -11    1    1    2    0    0  0.57495456863E+01  0.13847591256E+01  0.15281379359E+03  0.15292818689E+03  0.00000000000E+00 0.  1.
         11    1    1    2    0    0  0.32048735793E+01  0.14438690546E+01 -0.17515709616E+03  0.17519236373E+03  0.00000000000E+00 0.  1.
        -15    1    1    2    0    0 -0.65473333997E+01 -0.25934524652E+01  0.28830704616E+02  0.29731478739E+02  0.17770000000E+01 0. -1.
         15    1    1    2    0    0 -0.24070858659E+01 -0.23517571503E+00 -0.64874020447E+01  0.71479706401E+01  0.17770000000E+01 0. -1.
</event>
<event>
 6    1  0.1226227E-002  0.1883678E+03  0.7546771E-02  0.1063878E+00
        -11   -1    0    0    0    0  0.00000000000E+00  0.00000000000E+00  0.18250000000E+03  0.18250000000E+03  0.00000000000E+00 0. -1.
         11   -1    0    0    0    0 -0.00000000000E+00 -0.00000000000E+00 -0.18250000000E+03  0.18250000000E+03  0.00000000000E+00 0. -1.
        -11    1    1    2    0    0 -0.17956340340E+01 -0.38213251020E+01  0.17658174565E+03  0.17663221599E+03  0.00000000000E+00 0. -1.
         11    1    1    2    0    0  0.10406478746E+01 -0.79851131341E+01 -0.11478007946E+03  0.11506220762E+03  0.00000000000E+00 0. -1.
        -15    1    1    2    0    0 -0.10891322010E+02  0.13336338043E+02 -0.96505023951E+01  0.19818393805E+02  0.17770000000E+01 0.  1.
         15    1    1    2    0    0  0.11646308170E+02 -0.15298998067E+01 -0.52151163794E+02  0.53487182590E+02  0.17770000000E+01 0. -1.
</event>
<event>
 6    1  0.1226227E-002  0.1831267E+03  0.7546771E-02  0.1067957E+00
        -11   -1    0    0    0    0  0.00000000000E+00  0.00000000000E+00  0.18250000000E+03  0.18250000000E+03  0.00000000000E+00 0.  1.
         11   -1    0    0    0    0 -0.00000000000E+00 -0.00000000000E+00 -0.18250000000E+03  0.18250000000E+03  0.00000000000E+00 0. -1.
        -11    1    1    2    0    0  0.23656689386E+01  0.16765273241E+01  0.15821985975E+03  0.15824642540E+03  0.00000000000E+00 0.  1.
         11    1    1    2    0    0  0.67916016025E+00 -0.34348671675E+01 -0.18183963885E+03  0.18187334557E+03  0.00000000000E+00 0. -1.
        -15    1    1    2    0    0  0.61220565666E-01  0.14554010222E+01  0.18408616919E+02  0.18551464793E+02  0.17770000000E+01 0.  1.
         15    1    1    2    0    0 -0.31060496645E+01  0.30293882131E+00  0.52111621825E+01  0.63287642348E+01  0.17770000000E+01 0. -1.
</event>
<event>
 6    1  0.1226227E-002  0.2077403E+03  0.7546771E-02  0.1049969E+00
        -11   -1    0    0    0    0  0.00000000000E+00  0.00000000000E+00  0.18250000000E+03  0.18250000000E+03  0.00000000000E+00 0.  1.
         11   -1    0    0    0    0 -0.00000000000E+00 -0.00000000000E+00 -0.18250000000E+03  0.18250000000E+03  0.00000000000E+00 0. -1.
        -11    1    1    2    0    0 -0.20742057107E+01  0.41907164168E+00  0.13465825918E+03  0.13467488524E+03  0.00000000000E+00 0.  1.
         11    1    1    2    0    0 -0.29412813123E+01  0.11909277945E+02 -0.15678050118E+03  0.15725968202E+03  0.00000000000E+00 0. -1.
        -15    1    1    2    0    0  0.12732547385E+01 -0.57051909897E+01 -0.24777431464E+02  0.25519585044E+02  0.17770000000E+01 0. -1.
         15    1    1    2    0    0  0.37422322845E+01 -0.66231585965E+01  0.46899673472E+02  0.47545847695E+02  0.17770000000E+01 0. -1.
</event>
<event>
 6    1  0.1226227E-002  0.1842320E+03  0.7546771E-02  0.1067084E+00
        -11   -1    0    0    0    0  0.00000000000E+00  0.00000000000E+00  0.18250000000E+03  0.18250000000E+03  0.00000000000E+00 0.  1.
         11   -1    0    0    0    0 -0.00000000000E+00 -0.00000000000E+00 -0.18250000000E+03  0.18250000000E+03  0.00000000000E+00 0.  1.
        -11    1    1    2    0    0 -0.31804095875E+01 -0.49250093517E+00  0.18073932361E+03  0.18076797466E+03  0.00000000000E+00 0.  1.
         11    1    1    2    0    0  0.10711976954E+01  0.21550451431E+01 -0.17208716999E+03  0.17210399693E+03  0.00000000000E+00 0.  1.
        -15    1    1    2    0    0 -0.84230209054E+00 -0.39152175529E+01 -0.43603573112E+01  0.61813304538E+01  0.17770000000E+01 0.  1.
         15    1    1    2    0    0  0.29515139826E+01  0.22526733450E+01 -0.42917963090E+01  0.59466979532E+01  0.17770000000E+01 0. -1.
</event>
<event>
 6    1  0.1226227E-002  0.1857310E+03  0.7546771E-02  0.1065912E+00
        -11   -1    0    0    0    0  0.00000000000E+00  0.00000000000E+00  0.18250000000E+03  0.18250000000E+03  0.00000000000E+00 0.  1.
         11   -1    0    0    0    0 -0.00000000000E+00 -0.00000000000E+00 -0.18250000000E+03  0.18250000000E+03  0.00000000000E+00 0.  1.
        -11    1    1    2    0    0  0.10387644972E+02  0.55714637029E-01  0.17896773636E+03  0.17926895139E+03  0.00000000000E+00 0.  1.
         11    1    1    2    0    0 -0.43425541157E+01 -0.89329448228E+01 -0.13000976020E+03  0.13038862308E+03  0.00000000000E+00 0.  1.
        -15    1    1    2    0    0  0.66069333490E+01 -0.28252450105E-01 -0.43833212517E+01  0.81254907959E+01  0.17770000000E+01 0.  1.
         15    1    1    2    0    0 -0.12652024205E+02  0.89054826359E+01 -0.44574654907E+02  0.47216934743E+02  0.17770000000E+01 0.  1.
</event>
<event>
 6    1  0.1226227E-002  0.1856516E+03  0.7546771E-02  0.1065973E+00
        -11   -1    0    0    0    0  0.00000000000E+00  0.00000000000E+00  0.18250000000E+03  0.18250000000E+03  0.00000000000E+00 0.  1.
         11   -1    0    0    0    0 -0.00000000000E+00 -0.00000000000E+00 -0.18250000000E+03  0.18250000000E+03  0.00000000000E+00 0.  1.
        -11    1    1    2    0    0  0.13628115375E+01  0.20704177097E+01  0.17933126702E+03  0.17934839619E+03  0.00000000000E+00 0.  1.
         11    1    1    2    0    0 -0.41197171677E+01  0.13364663364E+01 -0.17396239233E+03  0.17401629854E+03  0.00000000000E+00 0.  1.
        -15    1    1    2    0    0  0.35347177511E+01 -0.19178874435E+01 -0.72983840471E+01  0.85203673938E+01  0.17770000000E+01 0. -1.
         15    1    1    2    0    0 -0.77781212092E+00 -0.14889966026E+01  0.19295093620E+01  0.31149378736E+01  0.17770000000E+01 0. -1.
</event>
<event>
 6    1  0.1226227E-002  0.1832746E+03  0.7546771E-02  0.1067840E+00
        -11   -1    0    0    0    0  0.00000000000E+00  0.00000000000E+00  0.18250000000E+03  0.18250000000E+03  0.00000000000E+00 0. -1.
         11   -1    0    0    0    0 -0.00000000000E+00 -0.00000000000E+00 -0.18250000000E+03  0.18250000000E+03  0.00000000000E+00 0. -1.
        -11    1    1    2    0    0 -0.38395465157E+01 -0.76829837703E+00  0.14321148625E+03  0.14326500687E+03  0.00000000000E+00 0. -1.
         11    1    1    2    0    0 -0.71955847587E+00  0.44267095255E+01 -0.18167000253E+03  0.18172535140E+03  0.00000000000E+00 0. -1.
        -15    1    1    2    0    0  0.10102009464E+01 -0.25671840808E+01  0.34554273826E+01  0.47653591106E+01  0.17770000000E+01 0.  1.
         15    1    1    2    0    0  0.35489040452E+01 -0.10912270677E+01  0.35003088896E+02  0.35244282624E+02  0.17770000000E+01 0. -1.
</event>
<event>
 6    1  0.1226227E-002  0.1831671E+03  0.7546771E-02  0.1067925E+00
        -11   -1    0    0    0    0  0.00000000000E+00  0.00000000000E+00  0.18250000000E+03  0.18250000000E+03  0.00000000000E+00 0.  1.
         11   -1    0    0    0    0 -0.00000000000E+00 -0.00000000000E+00 -0.18250000000E+03  0.18250000000E+03  0.00000000000E+00 0.  1.
        -11    1    1    2    0    0  0.25480787737E+01  0.19552118825E+01  0.18180454734E+03  0.18183291504E+03  0.00000000000E+00 0.  1.
         11    1    1    2    0    0  0.43436841213E+01  0.93612817583E+00 -0.13371518162E+03  0.13378898954E+03  0.00000000000E+00 0.  1.
        -15    1    1    2    0    0 -0.34629870751E+01  0.20444360698E-01 -0.70366178512E+01  0.80414188573E+01  0.17770000000E+01 0. -1.
         15    1    1    2    0    0 -0.34287758199E+01 -0.29117844190E+01 -0.41052747873E+02  0.41336676560E+02  0.17770000000E+01 0.  1.
</event>
<event>
 6    1  0.1226227E-002  0.1928865E+03  0.7546771E-02  0.1060475E+00
        -11   -1    0    0    0    0  0.00000000000E+00  0.00000000000E+00  0.18250000000E+03  0.18250000000E+03  0.00000000000E+00 0. -1.
         11   -1    0    0    0    0 -0.00000000000E+00 -0.00000000000E+00 -0.18250000000E+03  0.18250000000E+03  0.00000000000E+00 0.  1.
        -11    1    1    2    0    0  0.95122511317E+01 -0.28176218297E+01  0.17182735295E+03  0.17211351236E+03  0.00000000000E+00 0. -1.
         11    1    1    2    0    0 -0.10858128464E+01  0.16489101362E+01 -0.14170565772E+03  0.14171941054E+03  0.00000000000E+00 0.  1.
        -15    1    1    2    0    0 -0.10128935662E+02  0.37423771933E+01  0.75706606166E+01  0.13306891292E+02  0.17770000000E+01 0. -1.
         15    1    1    2    0    0  0.17024973764E+01 -0.25736654998E+01 -0.37692355844E+02  0.37860185809E+02  0.17770000000E+01 0. -1.
</event>
<event>
 6    1  0.1226227E-002  0.1955313E+03  0.7546771E-02  0.1058531E+00
        -11   -1    0    0    0    0  0.00000000000E+00  0.00000000000E+00  0.18250000000E+03  0.18250000000E+03  0.00000000000E+00 0.  1.
         11   -1    0    0    0    0 -0.00000000000E+00 -0.00000000000E+00 -0.18250000000E+03  0.18250000000E+03  0.00000000000E+00 0.  1.
        -11    1    1    2    0    0 -0.11362309788E+01  0.60897218347E+01  0.16935544498E+03  0.16946870648E+03  0.00000000000E+00 0.  1.
         11    1    1    2    0    0  0.22193432933E+00 -0.91287459449E+01 -0.14858841338E+03  0.14886873361E+03  0.00000000000E+00 0.  1.
        -15    1    1    2    0    0  0.13772229468E+01  0.41654881299E+01 -0.33457428202E+02  0.33790609129E+02  0.17770000000E+01 0. -1.
         15    1    1    2    0    0 -0.46292629730E+00 -0.11264640197E+01  0.12690396601E+02  0.12871950778E+02  0.17770000000E+01 0.  1.
</event>
<event>
 6    1  0.1226227E-002  0.1829598E+03  0.7546771E-02  0.1068089E+00
        -11   -1    0    0    0    0  0.00000000000E+00  0.00000000000E+00  0.18250000000E+03  0.18250000000E+03  0.00000000000E+00 0.  1.
         11   -1    0    0    0    0 -0.00000000000E+00 -0.00000000000E+00 -0.18250000000E+03  0.18250000000E+03  0.00000000000E+00 0. -1.
        -11    1    1    2    0    0  0.22595893549E+01 -0.24210854966E+01  0.11409290012E+03  0.11414095346E+03  0.00000000000E+00 0.  1.
         11    1    1    2    0    0 -0.85656646465E+01 -0.32346664266E+00 -0.18183823548E+03  0.18204015800E+03  0.00000000000E+00 0. -1.
        -15    1    1    2    0    0  0.58016537762E+01  0.99147427902E+00  0.63970906611E+02  0.64265673803E+02  0.17770000000E+01 0. -1.
         15    1    1    2    0    0  0.50442151541E+00  0.17530778603E+01  0.37744287482E+01  0.45532147352E+01  0.17770000000E+01 0. -1.
</event>
<event>
 6    1  0.1226227E-002  0.1868641E+03  0.7546771E-02  0.1065033E+00
        -11   -1    0    0    0    0  0.00000000000E+00  0.00000000000E+00  0.18250000000E+03  0.18250000000E+03  0.00000000000E+00 0. -1.
         11   -1    0    0    0    0 -0.00000000000E+00 -0.00000000000E+00 -0.18250000000E+03  0.18250000000E+03  0.00000000000E+00 0. -1.
        -11    1    1    2    0    0 -0.48754653352E+01  0.26115400954E-02  0.17806914681E+03  0.17813587852E+03  0.00000000000E+00 0. -1.
         11    1    1    2    0    0  0.80946498329E+01 -0.49095072485E+01 -0.16782029971E+03  0.16808711911E+03  0.00000000000E+00 0. -1.
        -15    1    1    2    0    0  0.37641933828E+01  0.27251222166E+01  0.11591517941E+01  0.51085031859E+01  0.17770000000E+01 0. -1.
         15    1    1    2    0    0 -0.69833778805E+01  0.21817734918E+01 -0.11407998898E+02  0.13668499188E+02  0.17770000000E+01 0.  1.
</event>
<event>
 6    1  0.1226227E-002  0.1734193E+03  0.7546771E-02  0.1075922E+00
        -11   -1    0    0    0    0  0.00000000000E+00  0.00000000000E+00  0.18250000000E+03  0.18250000000E+03  0.00000000000E+00 0.  1.
         11   -1    0    0    0    0 -0.00000000000E+00 -0.00000000000E+00 -0.18250000000E+03  0.18250000000E+03  0.00000000000E+00 0. -1.
        -11    1    1    2    0    0 -0.67380239706E+01  0.23339271268E+01  0.17468578765E+03  0.17483126892E+03  0.00000000000E+00 0.  1.
         11    1    1    2    0    0  0.41311612119E+01 -0.71475638233E+01 -0.17186381725E+03  0.17206198256E+03  0.00000000000E+00 0. -1.
        -15    1    1    2    0    0 -0.23631403407E+01  0.82559358432E+01 -0.64035880564E+01  0.10858571633E+02  0.17770000000E+01 0.  1.
         15    1    1    2    0    0  0.49700030993E+01 -0.34422991467E+01  0.35816176552E+01  0.72481768915E+01  0.17770000000E+01 0. -1.
</event>
<event>
 6    1  0.1226227E-002  0.1837882E+03  0.7546771E-02  0.1067434E+00
        -11   -1    0    0    0    0  0.00000000000E+00  0.00000000000E+00  0.18250000000E+03  0.18250000000E+03  0.00000000000E+00 0. -1.
         11   -1    0    0    0    0 -0.00000000000E+00 -0.00000000000E+00 -0.18250000000E+03  0.18250000000E+03  0.00000000000E+00 0. -1.
        -11    1    1    2    0    0  0.96881769554E+01  0.72250802697E+00  0.18095116366E+03  0.18121177230E+03  0.00000000000E+00 0. -1.
         11    1    1    2    0    0  0.37078354736E+01 -0.65162902955E-02 -0.87235077479E+02  0.87313840994E+02  0.00000000000E+00 0. -1.
        -15    1    1    2    0    0 -0.96298686882E+01 -0.92081915461E+01 -0.55903967527E+02  0.57497273646E+02  0.17770000000E+01 0. -1.
         15    1    1    2    0    0 -0.37661437408E+01  0.84921998094E+01 -0.37812118655E+02  0.38977113059E+02  0.17770000000E+01 0.  1.
</event>
<event>
 6    1  0.1226227E-002  0.1860875E+03  0.7546771E-02  0.1065635E+00
        -11   -1    0    0    0    0  0.00000000000E+00  0.00000000000E+00  0.18250000000E+03  0.18250000000E+03  0.00000000000E+00 0.  1.
         11   -1    0    0    0    0 -0.00000000000E+00 -0.00000000000E+00 -0.18250000000E+03  0.18250000000E+03  0.00000000000E+00 0.  1.
        -11    1    1    2    0    0  0.48376492781E+01 -0.10007246214E+01  0.15164821965E+03  0.15172866184E+03  0.00000000000E+00 0.  1.
         11    1    1    2    0    0  0.18275685529E+01 -0.66578331348E+01 -0.17877927890E+03  0.17891254096E+03  0.00000000000E+00 0.  1.
        -15    1    1    2    0    0  0.21257192471E+01  0.38441687497E+01 -0.77341086661E+00  0.48012716089E+01  0.17770000000E+01 0. -1.
         15    1    1    2    0    0 -0.87909370781E+01  0.38143890065E+01  0.27904470110E+02  0.29557525595E+02  0.17770000000E+01 0.  1.
</event>
<event>
 6    1  0.1226227E-002  0.1846153E+03  0.7546771E-02  0.1066783E+00
        -11   -1    0    0    0    0  0.00000000000E+00  0.00000000000E+00  0.18250000000E+03  0.18250000000E+03  0.00000000000E+00 0. -1.
         11   -1    0    0    0    0 -0.00000000000E+00 -0.00000000000E+00 -0.18250000000E+03  0.18250000000E+03  0.00000000000E+00 0. -1.
        -11    1    1    2    0    0  0.57432151146E+01 -0.58857273498E+01  0.14177058269E+03  0.14200888854E+03  0.00000000000E+00 0. -1.
         11    1    1    2    0    0  0.30928926950E+01  0.12102482233E+01 -0.18035408955E+03  0.18038466759E+03  0.00000000000E+00 0. -1.
        -15    1    1    2    0    0  0.19276936903E-01 -0.36608846414E+01  0.32869401952E+01  0.52310756834E+01  0.17770000000E+01 0. -1.
         15    1    1    2    0    0 -0.88553847464E+01  0.83363637679E+01  0.35296566663E+02  0.37375368186E+02  0.17770000000E+01 0.  1.
</event>
<event>
 6    1  0.1226227E-002  0.1847178E+03  0.7546771E-02  0.1066703E+00
        -11   -1    0    0    0    0  0.00000000000E+00  0.00000000000E+00  0.18250000000E+03  0.18250000000E+03  0.00000000000E+00 0.  1.
         11   -1    0    0    0    0 -0.00000000000E+00 -0.00000000000E+00 -0.18250000000E+03  0.18250000000E+03  0.00000000000E+00 0.  1.
        -11    1    1    2    0    0  0.31593212953E+01 -0.16512450427E+01  0.18024692610E+03  0.18028217408E+03  0.00000000000E+00 0.  1.
         11    1    1    2    0    0 -0.90645026114E+01  0.87375290611E+01 -0.14973044315E+03  0.15025882745E+03  0.00000000000E+00 0.  1.
        -15    1    1    2    0    0  0.29110804624E+01  0.26680243543E+01 -0.36430639790E+01  0.56588327037E+01  0.17770000000E+01 0.  1.
         15    1    1    2    0    0  0.29941008537E+01 -0.97543083727E+01 -0.26873418973E+02  0.28800165765E+02  0.17770000000E+01 0. -1.
</event>
<event>
 6    1  0.1226227E-002  0.1840009E+03  0.7546771E-02  0.1067266E+00
        -11   -1    0    0    0    0  0.00000000000E+00  0.00000000000E+00  0.18250000000E+03  0.18250000000E+03  0.00000000000E+00 0. -1.
         11   -1    0    0    0    0 -0.00000000000E+00 -0.00000000000E+00 -0.18250000000E+03  0.18250000000E+03  0.00000000000E+00 0.  1.
        -11    1    1    2    0    0 -0.43893883486E+01 -0.19933983513E+01  0.16471910876E+03  0.16478963911E+03  0.00000000000E+00 0. -1.
         11    1    1    2    0    0 -0.28176443522E-01  0.25658245316E+01 -0.18098090310E+03  0.18099909264E+03  0.00000000000E+00 0.  1.
        -15    1    1    2    0    0  0.38679415580E+01  0.17871935204E+01  0.15412325079E+02  0.16088894490E+02  0.17770000000E+01 0.  1.
         15    1    1    2    0    0  0.54962323411E+00 -0.23596197008E+01  0.84946926291E+00  0.31223737541E+01  0.17770000000E+01 0. -1.
</event>
<event>
 6    1  0.1226227E-002  0.1854535E+03  0.7546771E-02  0.1066128E+00
        -11   -1    0    0    0    0  0.00000000000E+00  0.00000000000E+00  0.18250000000E+03  0.18250000000E+03  0.00000000000E+00 0.  1.
         11   -1    0    0    0    0 -0.00000000000E+00 -0.00000000000E+00 -0.18250000000E+03  0.18250000000E+03  0.00000000000E+00 0.  1.
        -11    1    1    2    0    0  0.49878680031E+01  0.10708994515E+01  0.17947401509E+03  0.17954650580E+03  0.00000000000E+00 0.  1.
         11    1    1    2    0    0 -0.58516671712E+01  0.40515098523E+01 -0.16491024266E+03  0.16506376003E+03  0.00000000000E+00 0.  1.
        -15    1    1    2    0    0  0.28274000908E+01 -0.48878407365E+01 -0.35064118499E+00  0.59300806554E+01  0.17770000000E+01 0.  1.
         15    1    1    2    0    0 -0.19636009227E+01 -0.23456856731E+00 -0.14213131241E+02  0.14459653512E+02  0.17770000000E+01 0. -1.
</event>
<event>
 6    1  0.1226227E-002  0.1884041E+03  0.7546771E-02  0.1063850E+00
        -11   -1    0    0    0    0  0.00000000000E+00  0.00000000000E+00  0.18250000000E+03  0.18250000000E+03  0.00000000000E+00 0.  1.
         11   -1    0    0    0    0 -0.00000000000E+00 -0.00000000000E+00 -0.18250000000E+03  0.18250000000E+03  0.00000000000E+00 0. -1.
        -11    1    1    2    0    0 -0.70063060317E+01  0.65709892201E+01  0.18854334646E+02  0.21160154973E+02  0.00000000000E+00 0.  1.
         11    1    1    2    0    0 -0.43363745447E+01  0.22171462425E+02 -0.17514485422E+03  0.17659586023E+03  0.00000000000E+00 0. -1.
        -15    1    1    2    0    0  0.98102107112E+01 -0.17476899034E+02  0.15425046443E+03  0.15555721050E+03  0.17770000000E+01 0.  1.
         15    1    1    2    0    0  0.15324698652E+01 -0.11265552611E+02  0.20400551413E+01  0.11686774299E+02  0.17770000000E+01 0. -1.
</event>
<event>
 6    1  0.1226227E-002  0.1785298E+03  0.7546771E-02  0.1071660E+00
        -11   -1    0    0    0    0  0.00000000000E+00  0.00000000000E+00  0.18250000000E+03  0.18250000000E+03  0.00000000000E+00 0. -1.
         11   -1    0    0    0    0 -0.00000000000E+00 -0.00000000000E+00 -0.18250000000E+03  0.18250000000E+03  0.00000000000E+00 0. -1.
        -11    1    1    2    0    0 -0.25079592409E+01  0.19157217599E+01  0.17690520258E+03  0.17693335058E+03  0.00000000000E+00 0. -1.
         11    1    1    2    0    0  0.86317708483E+00  0.33152654712E+01 -0.18015054953E+03  0.18018311951E+03  0.00000000000E+00 0. -1.
        -15    1    1    2    0    0  0.18596469090E+01 -0.22197629406E+01  0.50269420146E+00  0.34345399399E+01  0.17770000000E+01 0.  1.
         15    1    1    2    0    0 -0.21486475289E+00 -0.30112242904E+01  0.27426527566E+01  0.44489899677E+01  0.17770000000E+01 0. -1.
</event>
<event>
 6    1  0.1226227E-002  0.1890144E+03  0.7546771E-02  0.1063384E+00
        -11   -1    0    0    0    0  0.00000000000E+00  0.00000000000E+00  0.18250000000E+03  0.18250000000E+03  0.00000000000E+00 0.  1.
         11   -1    0    0    0    0 -0.00000000000E+00 -0.00000000000E+00 -0.18250000000E+03  0.18250000000E+03  0.00000000000E+00 0.  1.
        -11    1    1    2    0    0 -0.12331686372E+01 -0.55056553894E+01  0.17027748790E+03  0.17037093599E+03  0.00000000000E+00 0.  1.
         11    1    1    2    0    0 -0.11633786212E+01  0.32284081024E+01 -0.17595209100E+03  0.17598555167E+03  0.00000000000E+00 0.  1.
        -15    1    1    2    0    0  0.67523582688E+01 -0.38729219401E+00 -0.36323851227E+01  0.78801198032E+01  0.17770000000E+01 0. -1.
         15    1    1    2    0    0 -0.43558110103E+01  0.26645394810E+01  0.93069882239E+01  0.10763392542E+02  0.17770000000E+01 0. -1.
</event>
<event>
 6    1  0.1226227E-002  0.1828856E+03  0.7546771E-02  0.1068148E+00
        -11   -1    0    0    0    0  0.00000000000E+00  0.00000000000E+00  0.18250000000E+03  0.18250000000E+03  0.00000000000E+00 0.  1.
         11   -1    0    0    0    0 -0.00000000000E+00 -0.00000000000E+00 -0.18250000000E+03  0.18250000000E+03  0.00000000000E+00 0. -1.
        -11    1    1    2    0    0 -0.21758188249E+01  0.46538844995E+00  0.14826063020E+03  0.14827732544E+03  0.00000000000E+00 0.  1.
         11    1    1    2    0    0  0.32978659439E+00  0.36459090198E+01 -0.18207765231E+03  0.18211444995E+03  0.00000000000E+00 0. -1.
        -15    1    1    2    0    0  0.17739865771E+01 -0.22597135971E+01  0.82813203234E+01  0.89437871853E+01  0.17770000000E+01 0. -1.
         15    1    1    2    0    0  0.72045653489E-01 -0.18515838727E+01  0.25535701787E+02  0.25664437422E+02  0.17770000000E+01 0.  1.
</event>
<event>
 6    1  0.1226227E-002  0.1885063E+03  0.7546771E-02  0.1063772E+00
        -11   -1    0    0    0    0  0.00000000000E+00  0.00000000000E+00  0.18250000000E+03  0.18250000000E+03  0.00000000000E+00 0.  1.
         11   -1    0    0    0    0 -0.00000000000E+00 -0.00000000000E+00 -0.18250000000E+03  0.18250000000E+03  0.00000000000E+00 0.  1.
        -11    1    1    2    0    0  0.67433212214E+01 -0.53070997803E+01  0.17628498761E+03  0.17649372381E+03  0.00000000000E+00 0.  1.
         11    1    1    2    0    0  0.99028817776E+00  0.30881758625E+01 -0.16007187740E+03  0.16010472646E+03  0.00000000000E+00 0.  1.
        -15    1    1    2    0    0 -0.29934010249E+00 -0.31721903111E+01 -0.18430972665E+02  0.18788583721E+02  0.17770000000E+01 0.  1.
         15    1    1    2    0    0 -0.74342692967E+01  0.53911142289E+01  0.22178624578E+01  0.96129660088E+01  0.17770000000E+01 0.  1.
</event>
<event>
 6    1  0.1226227E-002  0.9924501E+02  0.7546771E-02  0.1165128E+00
        -11   -1    0    0    0    0  0.00000000000E+00  0.00000000000E+00  0.18250000000E+03  0.18250000000E+03  0.00000000000E+00 0.  1.
         11   -1    0    0    0    0 -0.00000000000E+00 -0.00000000000E+00 -0.18250000000E+03  0.18250000000E+03  0.00000000000E+00 0.  1.
        -11    1    1    2    0    0 -0.33227951114E+01 -0.27587840927E+01  0.15006130824E+03  0.15012344284E+03  0.00000000000E+00 0.  1.
         11    1    1    2    0    0  0.26391736740E+01 -0.23298014577E+01 -0.81359501535E+02  0.81435629196E+02  0.00000000000E+00 0.  1.
        -15    1    1    2    0    0 -0.48902219723E+02 -0.22384399603E+02 -0.16307424123E+02  0.56227913441E+02  0.17770000000E+01 0. -1.
         15    1    1    2    0    0  0.49585841160E+02  0.27472985153E+02 -0.52394382586E+02  0.77213014527E+02  0.17770000000E+01 0.  1.
</event>
<event>
 6    1  0.1226227E-002  0.1828741E+03  0.7546771E-02  0.1068157E+00
        -11   -1    0    0    0    0  0.00000000000E+00  0.00000000000E+00  0.18250000000E+03  0.18250000000E+03  0.00000000000E+00 0.  1.
         11   -1    0    0    0    0 -0.00000000000E+00 -0.00000000000E+00 -0.18250000000E+03  0.18250000000E+03  0.00000000000E+00 0.  1.
        -11    1    1    2    0    0 -0.17297826065E+01  0.33873299897E+01  0.18208614536E+03  0.18212586440E+03  0.00000000000E+00 0.  1.
         11    1    1    2    0    0 -0.95190196244E+00 -0.39170643564E+01 -0.14123274572E+03  0.14129026143E+03  0.00000000000E+00 0.  1.
        -15    1    1    2    0    0  0.31431807060E+01 -0.19272756473E+01 -0.30864066347E+02  0.31134262426E+02  0.17770000000E+01 0. -1.
         15    1    1    2    0    0 -0.46149613700E+00  0.24570100140E+01 -0.99893332953E+01  0.10449611743E+02  0.17770000000E+01 0. -1.
</event>
<event>
 6    1  0.1226227E-002  0.1828247E+03  0.7546771E-02  0.1068197E+00
        -11   -1    0    0    0    0  0.00000000000E+00  0.00000000000E+00  0.18250000000E+03  0.18250000000E+03  0.00000000000E+00 0. -1.
         11   -1    0    0    0    0 -0.00000000000E+00 -0.00000000000E+00 -0.18250000000E+03  0.18250000000E+03  0.00000000000E+00 0. -1.
        -11    1    1    2    0    0 -0.25496279601E+00 -0.11773619596E+01  0.72546577878E+02  0.72556578951E+02  0.00000000000E+00 0. -1.
         11    1    1    2    0    0  0.98263481993E+01  0.66788026907E+01 -0.18178748770E+03  0.18217533918E+03  0.00000000000E+00 0. -1.
        -15    1    1    2    0    0  0.45523432874E+00  0.17324341706E+01  0.19011934813E+02  0.19178632923E+02  0.17770000000E+01 0. -1.
         15    1    1    2    0    0 -0.10026619732E+02 -0.72338749017E+01  0.90228975004E+02  0.91089448942E+02  0.17770000000E+01 0. -1.
</event>
<event>
 6    1  0.1226227E-002  0.1843446E+03  0.7546771E-02  0.1066996E+00
        -11   -1    0    0    0    0  0.00000000000E+00  0.00000000000E+00  0.18250000000E+03  0.18250000000E+03  0.00000000000E+00 0.  1.
         11   -1    0    0    0    0 -0.00000000000E+00 -0.00000000000E+00 -0.18250000000E+03  0.18250000000E+03  0.00000000000E+00 0. -1.
        -11    1    1    2    0    0 -0.40227790398E+01  0.41284962887E+01  0.15073763559E+03  0.15084781078E+03  0.00000000000E+00 0.  1.
         11    1    1    2    0    0  0.27015096286E+01 -0.30268899060E+01 -0.18060980941E+03  0.18065537211E+03  0.00000000000E+00 0. -1.
        -15    1    1    2    0    0 -0.37278933894E+01  0.52635527464E+01  0.11023080226E+02  0.12894502833E+02  0.17770000000E+01 0.  1.
         15    1    1    2    0    0  0.50491628006E+01 -0.63651591291E+01  0.18849093591E+02  0.20602314285E+02  0.17770000000E+01 0. -1.
</event>
<event>
 6    1  0.1226227E-002  0.1825482E+03  0.7546771E-02  0.1068416E+00
        -11   -1    0    0    0    0  0.00000000000E+00  0.00000000000E+00  0.18250000000E+03  0.18250000000E+03  0.00000000000E+00 0.  1.
         11   -1    0    0    0    0 -0.00000000000E+00 -0.00000000000E+00 -0.18250000000E+03  0.18250000000E+03  0.00000000000E+00 0. -1.
        -11    1    1    2    0    0 -0.85216497055E+00 -0.71017262080E+00  0.16967904320E+02  0.17004126185E+02  0.00000000000E+00 0.  1.
         11    1    1    2    0    0  0.19640850869E+01  0.15656166939E+01 -0.18243453912E+03  0.18245182885E+03  0.00000000000E+00 0. -1.
        -15    1    1    2    0    0  0.95115029854E+00 -0.73522054180E+00  0.51235798089E+02  0.51280697840E+02  0.17770000000E+01 0. -1.
         15    1    1    2    0    0 -0.20630704149E+01 -0.12022353126E+00  0.11423083671E+03  0.11426334713E+03  0.17770000000E+01 0.  1.
</event>
<event>
 6    1  0.1226227E-002  0.1855179E+03  0.7546771E-02  0.1066078E+00
        -11   -1    0    0    0    0  0.00000000000E+00  0.00000000000E+00  0.18250000000E+03  0.18250000000E+03  0.00000000000E+00 0.  1.
         11   -1    0    0    0    0 -0.00000000000E+00 -0.00000000000E+00 -0.18250000000E+03  0.18250000000E+03  0.00000000000E+00 0. -1.
        -11    1    1    2    0    0  0.29675508423E+00  0.30913589135E+01  0.17945526151E+03  0.17948213128E+03  0.00000000000E+00 0.  1.
         11    1    1    2    0    0  0.24685305784E+01  0.15785634041E+01 -0.15924635895E+03  0.15927331335E+03  0.00000000000E+00 0. -1.
        -15    1    1    2    0    0  0.12382126248E+01 -0.90247082794E+01 -0.68763196964E+01  0.11550758919E+02  0.17770000000E+01 0. -1.
         15    1    1    2    0    0 -0.40034982875E+01  0.43547859618E+01 -0.13332582869E+02  0.14693796456E+02  0.17770000000E+01 0. -1.
</event>
<event>
 6    1  0.1226227E-002  0.1840760E+03  0.7546771E-02  0.1067207E+00
        -11   -1    0    0    0    0  0.00000000000E+00  0.00000000000E+00  0.18250000000E+03  0.18250000000E+03  0.00000000000E+00 0. -1.
         11   -1    0    0    0    0 -0.00000000000E+00 -0.00000000000E+00 -0.18250000000E+03  0.18250000000E+03  0.00000000000E+00 0. -1.
        -11    1    1    2    0    0 -0.11381486144E+01 -0.67864441705E+00  0.83622106353E+02  0.83632604954E+02  0.00000000000E+00 0. -1.
         11    1    1    2    0    0  0.21259726904E+02 -0.10458219357E+02 -0.17936593778E+03  0.18092398950E+03  0.00000000000E+00 0. -1.
        -15    1    1    2    0    0  0.33012921629E+01 -0.86664860752E+00  0.15703678548E+02  0.16168267028E+02  0.17770000000E+01 0.  1.
         15    1    1    2    0    0 -0.23422870452E+02  0.12003512382E+02  0.80040152882E+02  0.84275138517E+02  0.17770000000E+01 0. -1.
</event>
<event>
 6    1  0.1226227E-002  0.9718375E+02  0.7546771E-02  0.1168779E+00
        -11   -1    0    0    0    0  0.00000000000E+00  0.00000000000E+00  0.18250000000E+03  0.18250000000E+03  0.00000000000E+00 0. -1.
         11   -1    0    0    0    0 -0.00000000000E+00 -0.00000000000E+00 -0.18250000000E+03  0.18250000000E+03  0.00000000000E+00 0.  1.
        -11    1    1    2    0    0  0.13843142016E+01 -0.43561149019E+01  0.87889575711E+02  0.88008349499E+02  0.00000000000E+00 0. -1.
         11    1    1    2    0    0 -0.59674349294E+01 -0.18829163042E+01 -0.82147325731E+02  0.82385306810E+02  0.00000000000E+00 0.  1.
        -15    1    1    2    0    0  0.89010187810E+01 -0.13049987678E+01 -0.99755147944E+02  0.10017573772E+03  0.17770000000E+01 0.  1.
         15    1    1    2    0    0 -0.43178980532E+01  0.75440299739E+01  0.94012897964E+02  0.94430605973E+02  0.17770000000E+01 0. -1.
</event>
<event>
 6    1  0.1226227E-002  0.1829311E+03  0.7546771E-02  0.1068112E+00
        -11   -1    0    0    0    0  0.00000000000E+00  0.00000000000E+00  0.18250000000E+03  0.18250000000E+03  0.00000000000E+00 0. -1.
         11   -1    0    0    0    0 -0.00000000000E+00 -0.00000000000E+00 -0.18250000000E+03  0.18250000000E+03  0.00000000000E+00 0. -1.
        -11    1    1    2    0    0 -0.35773551907E+00 -0.26323218357E+01  0.18204952303E+03  0.18206890434E+03  0.00000000000E+00 0. -1.
         11    1    1    2    0    0 -0.27621755911E+01  0.36991169483E+00 -0.14363140081E+03  0.14365843431E+03  0.00000000000E+00 0. -1.
        -15    1    1    2    0    0  0.29625306837E+01 -0.54414217705E+00 -0.30280008781E+02  0.30481294913E+02  0.17770000000E+01 0.  1.
         15    1    1    2    0    0  0.15738042642E+00  0.28065523179E+01 -0.81381134365E+01  0.87913664363E+01  0.17770000000E+01 0.  1.
</event>
<event>
 6    1  0.1226227E-002  0.1878989E+03  0.7546771E-02  0.1064237E+00
        -11   -1    0    0    0    0  0.00000000000E+00  0.00000000000E+00  0.18250000000E+03  0.18250000000E+03  0.00000000000E+00 0. -1.
         11   -1    0    0    0    0 -0.00000000000E+00 -0.00000000000E+00 -0.18250000000E+03  0.18250000000E+03  0.00000000000E+00 0.  1.
        -11    1    1    2    0    0 -0.94987269896E+00  0.20000571821E+01  0.13782026587E+03  0.13783805052E+03  0.00000000000E+00 0. -1.
         11    1    1    2    0    0 -0.59227406021E+00 -0.60988620433E+01 -0.17699509316E+03  0.17710112904E+03  0.00000000000E+00 0.  1.
        -15    1    1    2    0    0  0.89623876816E+01  0.48442508454E+01  0.40913060226E+02  0.42199850536E+02  0.17770000000E+01 0.  1.
         15    1    1    2    0    0 -0.74202409225E+01 -0.74544598418E+00 -0.17382329359E+01  0.78609699021E+01  0.17770000000E+01 0. -1.
</event>
<event>
 6    1  0.1226227E-002  0.1912406E+03  0.7546771E-02  0.1061703E+00
        -11   -1    0    0    0    0  0.00000000000E+00  0.00000000000E+00  0.18250000000E+03  0.18250000000E+03  0.00000000000E+00 0. -1.
         11   -1    0    0    0    0 -0.00000000000E+00 -0.00000000000E+00 -0.18250000000E+03  0.18250000000E+03  0.00000000000E+00 0.  1.
        -11    1    1    2    0    0 -0.24832604009E+01 -0.54455472811E+01  0.17365626995E+03  0.17375937575E+03  0.00000000000E+00 0. -1.
         11    1    1    2    0    0  0.14740361759E+01  0.39720094760E+01 -0.17231357330E+03  0.17236564967E+03  0.00000000000E+00 0.  1.
        -15    1    1    2    0    0  0.29730889799E+01  0.66421150993E+01 -0.73674117101E+01  0.10506828036E+02  0.17770000000E+01 0.  1.
         15    1    1    2    0    0 -0.19638647549E+01 -0.51685772942E+01  0.60247150632E+01  0.83681465459E+01  0.17770000000E+01 0. -1.
</event>
<event>
 6    1  0.1226227E-002  0.1722648E+03  0.7546771E-02  0.1076907E+00
        -11   -1    0    0    0    0  0.00000000000E+00  0.00000000000E+00  0.18250000000E+03  0.18250000000E+03  0.00000000000E+00 0.  1.
         11   -1    0    0    0    0 -0.00000000000E+00 -0.00000000000E+00 -0.18250000000E+03  0.18250000000E+03  0.00000000000E+00 0. -1.
        -11    1    1    2    0    0  0.24863949358E+00 -0.30226686445E+01  0.17393993808E+03  0.17396637723E+03  0.00000000000E+00 0.  1.
         11    1    1    2    0    0 -0.70410470953E+01  0.25722387604E+01 -0.17048304644E+03  0.17064777139E+03  0.00000000000E+00 0. -1.
        -15    1    1    2    0    0 -0.86796268869E+00 -0.29266982350E+01 -0.93499352764E+01  0.99948957204E+01  0.17770000000E+01 0. -1.
         15    1    1    2    0    0  0.76603702904E+01  0.33771281191E+01  0.58930436342E+01  0.10390955663E+02  0.17770000000E+01 0.  1.
</event>
<event>
 6    1  0.1226227E-002  0.1679914E+03  0.7546771E-02  0.1080628E+00
        -11   -1    0    0    0    0  0.00000000000E+00  0.00000000000E+00  0.18250000000E+03  0.18250000000E+03  0.00000000000E+00 0. -1.
         11   -1    0    0    0    0 -0.00000000000E+00 -0.00000000000E+00 -0.18250000000E+03  0.18250000000E+03  0.00000000000E+00 0.  1.
        -11    1    1    2    0    0  0.91444614118E+01 -0.10356716895E+02  0.16964495407E+03  0.17020661914E+03  0.00000000000E+00 0. -1.
         11    1    1    2    0    0 -0.32422528762E+01 -0.78045921186E+00 -0.16599879806E+03  0.16603229288E+03  0.00000000000E+00 0.  1.
        -15    1    1    2    0    0 -0.40574195427E+00  0.16285173334E+01 -0.13608846162E+02  0.13826609060E+02  0.17770000000E+01 0.  1.
         15    1    1    2    0    0 -0.54964665814E+01  0.95086587739E+01  0.99626901522E+01  0.14934478921E+02  0.17770000000E+01 0.  1.
</event>
<event>
 6    1  0.1226227E-002  0.1783823E+03  0.7546771E-02  0.1071781E+00
        -11   -1    0    0    0    0  0.00000000000E+00  0.00000000000E+00  0.18250000000E+03  0.18250000000E+03  0.00000000000E+00 0. -1.
         11   -1    0    0    0    0 -0.00000000000E+00 -0.00000000000E+00 -0.18250000000E+03  0.18250000000E+03  0.00000000000E+00 0. -1.
        -11    1    1    2    0    0 -0.94189965004E+00  0.23087455781E+01  0.17948758425E+03  0.17950490350E+03  0.00000000000E+00 0. -1.
         11    1    1    2    0    0 -0.53436737900E+00  0.30187561735E+01 -0.17728275327E+03  0.17730925821E+03  0.00000000000E+00 0. -1.
        -15    1    1    2    0    0  0.66246978873E+00 -0.15539743536E+01  0.12100360266E+01  0.27341577676E+01  0.17770000000E+01 0. -1.
         15    1    1    2    0    0  0.81379724031E+00 -0.37735273980E+01 -0.34148669994E+01  0.54516805294E+01  0.17770000000E+01 0.  1.
</event>
<event>
 6    1  0.1226227E-002  0.1831698E+03  0.7546771E-02  0.1067923E+00
        -11   -1    0    0    0    0  0.00000000000E+00  0.00000000000E+00  0.18250000000E+03  0.18250000000E+03  0.00000000000E+00 0.  1.
         11   -1    0    0    0    0 -0.00000000000E+00 -0.00000000000E+00 -0.18250000000E+03  0.18250000000E+03  0.00000000000E+00 0.  1.
        -11    1    1    2    0    0 -0.39208902205E+01  0.38134464125E+01  0.56961533334E+02  0.57223526923E+02  0.00000000000E+00 0.  1.
         11    1    1    2    0    0  0.27749279440E+01 -0.10660309823E+01 -0.18180590811E+03  0.18183020890E+03  0.00000000000E+00 0.  1.
        -15    1    1    2    0    0 -0.47170705251E+00  0.31927197413E+01  0.68491769661E+01  0.77772052180E+01  0.17770000000E+01 0. -1.
         15    1    1    2    0    0  0.16176693290E+01 -0.59401351715E+01  0.11799519781E+03  0.11816905896E+03  0.17770000000E+01 0.  1.
</event>
<event>
 6    1  0.1226227E-002  0.1841666E+03  0.7546771E-02  0.1067136E+00
        -11   -1    0    0    0    0  0.00000000000E+00  0.00000000000E+00  0.18250000000E+03  0.18250000000E+03  0.00000000000E+00 0.  1.
         11   -1    0    0    0    0 -0.00000000000E+00 -0.00000000000E+00 -0.18250000000E+03  0.18250000000E+03  0.00000000000E+00 0.  1.
        -11    1    1    2    0    0  0.19170067766E+01  0.56424376503E+00  0.13713824689E+03  0.13715280546E+03  0.00000000000E+00 0.  1.
         11    1    1    2    0    0  0.21907258694E+01 -0.18537544879E+01 -0.18081067188E+03  0.18083344478E+03  0.00000000000E+00 0.  1.
        -15    1    1    2    0    0 -0.10744416759E+01 -0.14169437733E+01  0.42292992995E+02  0.42367642606E+02  0.17770000000E+01 0. -1.
         15    1    1    2    0    0 -0.30332909701E+01  0.27064544962E+01  0.13794319930E+01  0.46461071525E+01  0.17770000000E+01 0. -1.
</event>
<event>
 6    1  0.1226227E-002  0.1836071E+03  0.7546771E-02  0.1067577E+00
        -11   -1    0    0    0    0  0.00000000000E+00  0.00000000000E+00  0.18250000000E+03  0.18250000000E+03  0.00000000000E+00 0.  1.
         11   -1    0    0    0    0 -0.00000000000E+00 -0.00000000000E+00 -0.18250000000E+03  0.18250000000E+03  0.00000000000E+00 0. -1.
        -11    1    1    2    0    0 -0.12904852353E+01 -0.27336197478E+01  0.18136767124E+03  0.18139286149E+03  0.00000000000E+00 0.  1.
         11    1    1    2    0    0  0.31280474688E+01 -0.33917069203E+00 -0.13707003941E+03  0.13710614655E+03  0.00000000000E+00 0. -1.
        -15    1    1    2    0    0  0.20631448941E+01 -0.10075541432E+01 -0.36961826641E+02  0.37075680572E+02  0.17770000000E+01 0. -1.
         15    1    1    2    0    0 -0.39007071276E+01  0.40803445831E+01 -0.73358051840E+01  0.94253113853E+01  0.17770000000E+01 0.  1.
</event>
<event>
 6    1  0.1226227E-002  0.1863778E+03  0.7546771E-02  0.1065409E+00
        -11   -1    0    0    0    0  0.00000000000E+00  0.00000000000E+00  0.18250000000E+03  0.18250000000E+03  0.00000000000E+00 0.  1.
         11   -1    0    0    0    0 -0.00000000000E+00 -0.00000000000E+00 -0.18250000000E+03  0.18250000000E+03  0.00000000000E+00 0. -1.
        -11    1    1    2    0    0  0.30961363613E+00  0.10791881993E+02  0.17829563303E+03  0.17862220840E+03  0.00000000000E+00 0.  1.
         11    1    1    2    0    0  0.21085994630E+01 -0.65225868238E+01 -0.14966897169E+03  0.14982587032E+03  0.00000000000E+00 0. -1.
        -15    1    1    2    0    0 -0.87542416998E+00 -0.82997257452E+01 -0.10663448066E+01  0.85992229399E+01  0.17770000000E+01 0. -1.
         15    1    1    2    0    0 -0.15427889291E+01  0.40304305756E+01 -0.27560316530E+02  0.27952698341E+02  0.17770000000E+01 0. -1.
</event>
<event>
 6    1  0.1226227E-002  0.1866624E+03  0.7546771E-02  0.1065189E+00
        -11   -1    0    0    0    0  0.00000000000E+00  0.00000000000E+00  0.18250000000E+03  0.18250000000E+03  0.00000000000E+00 0. -1.
         11   -1    0    0    0    0 -0.00000000000E+00 -0.00000000000E+00 -0.18250000000E+03  0.18250000000E+03  0.00000000000E+00 0.  1.
        -11    1    1    2    0    0  0.89881926000E+01  0.58384450411E+00  0.17811003865E+03  0.17833764142E+03  0.00000000000E+00 0. -1.
         11    1    1    2    0    0 -0.38812369434E+01  0.14724847211E+01 -0.14997147870E+03  0.15002891933E+03  0.00000000000E+00 0.  1.
        -15    1    1    2    0    0 -0.70576140499E+01 -0.24773867157E+01  0.65529816782E+00  0.77158606588E+01  0.17770000000E+01 0. -1.
         15    1    1    2    0    0  0.19506583932E+01  0.42105749052E+00 -0.28793858116E+02  0.28917578595E+02  0.17770000000E+01 0.  1.
</event>
<event>
 6    1  0.1226227E-002  0.1846043E+03  0.7546771E-02  0.1066792E+00
        -11   -1    0    0    0    0  0.00000000000E+00  0.00000000000E+00  0.18250000000E+03  0.18250000000E+03  0.00000000000E+00 0.  1.
         11   -1    0    0    0    0 -0.00000000000E+00 -0.00000000000E+00 -0.18250000000E+03  0.18250000000E+03  0.00000000000E+00 0.  1.
        -11    1    1    2    0    0 -0.13169920896E+01  0.52178558128E+00  0.80663379132E+02  0.80675817079E+02  0.00000000000E+00 0.  1.
         11    1    1    2    0    0 -0.37989315919E+01  0.16047366633E+02 -0.17964037388E+03  0.18039571443E+03  0.00000000000E+00 0.  1.
        -15    1    1    2    0    0  0.35317075377E+01 -0.18930915182E+02  0.36029799695E+02  0.40892012702E+02  0.17770000000E+01 0.  1.
         15    1    1    2    0    0  0.15842161438E+01  0.23617629678E+01  0.62947195050E+02  0.63036455792E+02  0.17770000000E+01 0.  1.
</event>
<event>
 6    1  0.1226227E-002  0.1775493E+03  0.7546771E-02  0.1072465E+00
        -11   -1    0    0    0    0  0.00000000000E+00  0.00000000000E+00  0.18250000000E+03  0.18250000000E+03  0.00000000000E+00 0.  1.
         11   -1    0    0    0    0 -0.00000000000E+00 -0.00000000000E+00 -0.18250000000E+03  0.18250000000E+03  0.00000000000E+00 0. -1.
        -11    1    1    2    0    0 -0.31460950504E+01 -0.40351882579E+01  0.17831384182E+03  0.17838723845E+03  0.00000000000E+00 0.  1.
         11    1    1    2    0    0  0.22252940768E+00  0.26157340046E+01 -0.17671044579E+03  0.17672994436E+03  0.00000000000E+00 0. -1.
        -15    1    1    2    0    0  0.36612603595E+01  0.43361230189E+01  0.20118765375E+00  0.59502097213E+01  0.17770000000E+01 0.  1.
         15    1    1    2    0    0 -0.73769471677E+00 -0.29166687656E+01 -0.18045836837E+01  0.39326074626E+01  0.17770000000E+01 0.  1.
</event>
<event>
 6    1  0.1226227E-002  0.1850881E+03  0.7546771E-02  0.1066413E+00
        -11   -1    0    0    0    0  0.00000000000E+00  0.00000000000E+00  0.18250000000E+03  0.18250000000E+03  0.00000000000E+00 0.  1.
         11   -1    0    0    0    0 -0.00000000000E+00 -0.00000000000E+00 -0.18250000000E+03  0.18250000000E+03  0.00000000000E+00 0. -1.
        -11    1    1    2    0    0  0.23569542631E+01 -0.64021430833E+00  0.16644978695E+03  0.16646770463E+03  0.00000000000E+00 0.  1.
         11    1    1    2    0    0 -0.60414621324E+01 -0.13028411066E+01 -0.17980567056E+03  0.17991185571E+03  0.00000000000E+00 0. -1.
        -15    1    1    2    0    0 -0.22550517208E+01  0.46424019556E+01  0.91585140635E+01  0.10661766412E+02  0.17770000000E+01 0.  1.
         15    1    1    2    0    0  0.59395595901E+01 -0.26993465407E+01  0.41973695422E+01  0.79586732528E+01  0.17770000000E+01 0.  1.
</event>
<event>
 6    1  0.1226227E-002  0.1837654E+03  0.7546771E-02  0.1067452E+00
        -11   -1    0    0    0    0  0.00000000000E+00  0.00000000000E+00  0.18250000000E+03  0.18250000000E+03  0.00000000000E+00 0. -1.
         11   -1    0    0    0    0 -0.00000000000E+00 -0.00000000000E+00 -0.18250000000E+03  0.18250000000E+03  0.00000000000E+00 0.  1.
        -11    1    1    2    0    0 -0.31968650729E+01 -0.21103616122E+00  0.18120623839E+03  0.18123455883E+03  0.00000000000E+00 0. -1.
         11    1    1    2    0    0 -0.44373933986E+00 -0.24801227451E+01 -0.15216985000E+03  0.15219070656E+03  0.00000000000E+00 0.  1.
        -15    1    1    2    0    0  0.61535609716E+01 -0.17265540119E+01 -0.12047471886E+02  0.13753058177E+02  0.17770000000E+01 0. -1.
         15    1    1    2    0    0 -0.25129565589E+01  0.44177129182E+01 -0.16988916503E+02  0.17821676438E+02  0.17770000000E+01 0. -1.
</event>
<event>
 6    1  0.1226227E-002  0.1829715E+03  0.7546771E-02  0.1068080E+00
        -11   -1    0    0    0    0  0.00000000000E+00  0.00000000000E+00  0.18250000000E+03  0.18250000000E+03  0.00000000000E+00 0.  1.
         11   -1    0    0    0    0 -0.00000000000E+00 -0.00000000000E+00 -0.18250000000E+03  0.18250000000E+03  0.00000000000E+00 0.  1.
        -11    1    1    2    0    0 -0.25378792206E+01 -0.14020147847E+01  0.18200537317E+03  0.18202846574E+03  0.00000000000E+00 0.  1.
         11    1    1    2    0    0  0.21551446497E+01 -0.16613109434E+01 -0.16930608406E+03  0.16932795015E+03  0.00000000000E+00 0.  1.
        -15    1    1    2    0    0  0.14020040639E+00  0.12494164021E+01 -0.80654924078E+01  0.83540765067E+01  0.17770000000E+01 0.  1.
         15    1    1    2    0    0  0.24253416451E+00  0.18139093261E+01 -0.46337967000E+01  0.52895076067E+01  0.17770000000E+01 0. -1.
</event>
<event>
 6    1  0.1226227E-002  0.1672299E+03  0.7546771E-02  0.1081304E+00
        -11   -1    0    0    0    0  0.00000000000E+00  0.00000000000E+00  0.18250000000E+03  0.18250000000E+03  0.00000000000E+00 0.  1.
         11   -1    0    0    0    0 -0.00000000000E+00 -0.00000000000E+00 -0.18250000000E+03  0.18250000000E+03  0.00000000000E+00 0.  1.
        -11    1    1    2    0    0 -0.10692010070E+02 -0.21814521139E+01  0.16533176380E+03  0.16569149023E+03  0.00000000000E+00 0.  1.
         11    1    1    2    0    0  0.59553277794E+01 -0.27093631441E+01 -0.16872805057E+03  0.16885485373E+03  0.00000000000E+00 0.  1.
        -15    1    1    2    0    0 -0.75205042169E+01 -0.15535330028E+01 -0.88720399232E+01  0.11867698592E+02  0.17770000000E+01 0. -1.
         15    1    1    2    0    0  0.12257186507E+02  0.64443482609E+01  0.12268326693E+02  0.18585957453E+02  0.17770000000E+01 0.  1.
</event>
<event>
 6    1  0.1226227E-002  0.1775855E+03  0.7546771E-02  0.1072435E+00
        -11   -1    0    0    0    0  0.00000000000E+00  0.00000000000E+00  0.18250000000E+03  0.18250000000E+03  0.00000000000E+00 0. -1.
         11   -1    0    0    0    0 -0.00000000000E+00 -0.00000000000E+00 -0.18250000000E+03  0.18250000000E+03  0.00000000000E+00 0. -1.
        -11    1    1    2    0    0  0.18703701646E+01  0.17557744857E+01  0.17726241654E+03  0.17728097852E+03  0.00000000000E+00 0. -1.
         11    1    1    2    0    0  0.27365825712E+01 -0.57671394536E+00 -0.17790042324E+03  0.17792240463E+03  0.00000000000E+00 0. -1.
        -15    1    1    2    0    0 -0.31164839279E+01 -0.75999734365E+00  0.41683468529E+01  0.55518386613E+01  0.17770000000E+01 0.  1.
         15    1    1    2    0    0 -0.14904688079E+01 -0.41906319666E+00 -0.35303401548E+01  0.42447781848E+01  0.17770000000E+01 0. -1.
</event>
<event>
 6    1  0.1226227E-002  0.1835392E+03  0.7546771E-02  0.1067631E+00
        -11   -1    0    0    0    0  0.00000000000E+00  0.00000000000E+00  0.18250000000E+03  0.18250000000E+03  0.00000000000E+00 0.  1.
         11   -1    0    0    0    0 -0.00000000000E+00 -0.00000000000E+00 -0.18250000000E+03  0.18250000000E+03  0.00000000000E+00 0. -1.
        -11    1    1    2    0    0  0.63633170136E+01 -0.16066328169E+01  0.15367953396E+03  0.15381960938E+03  0.00000000000E+00 0.  1.
         11    1    1    2    0    0 -0.17646416392E+01 -0.35180953741E+01 -0.18141807533E+03  0.18146076439E+03  0.00000000000E+00 0. -1.
        -15    1    1    2    0    0  0.18842036661E+01  0.18919732634E+01  0.86510904437E+01  0.92265313715E+01  0.17770000000E+01 0. -1.
         15    1    1    2    0    0 -0.64828790406E+01  0.32327549277E+01  0.19087450927E+02  0.20493094861E+02  0.17770000000E+01 0.  1.
</event>
<event>
 6    1  0.1226227E-002  0.1850694E+03  0.7546771E-02  0.1066428E+00
        -11   -1    0    0    0    0  0.00000000000E+00  0.00000000000E+00  0.18250000000E+03  0.18250000000E+03  0.00000000000E+00 0. -1.
         11   -1    0    0    0    0 -0.00000000000E+00 -0.00000000000E+00 -0.18250000000E+03  0.18250000000E+03  0.00000000000E+00 0. -1.
        -11    1    1    2    0    0 -0.16670096788E+01 -0.22041084809E+01  0.17990932768E+03  0.17993055106E+03  0.00000000000E+00 0. -1.
         11    1    1    2    0    0  0.17065956397E+01 -0.17403964176E+01 -0.17734018195E+03  0.17735693271E+03  0.00000000000E+00 0. -1.
        -15    1    1    2    0    0  0.21202691252E+01  0.47158860823E+00 -0.83370382516E+00  0.29275805790E+01  0.17770000000E+01 0.  1.
         15    1    1    2    0    0 -0.21598550861E+01  0.34729162903E+01 -0.17354419120E+01  0.47849356508E+01  0.17770000000E+01 0. -1.
</event>
<event>
 6    1  0.1226227E-002  0.1843074E+03  0.7546771E-02  0.1067025E+00
        -11   -1    0    0    0    0  0.00000000000E+00  0.00000000000E+00  0.18250000000E+03  0.18250000000E+03  0.00000000000E+00 0. -1.
         11   -1    0    0    0    0 -0.00000000000E+00 -0.00000000000E+00 -0.18250000000E+03  0.18250000000E+03  0.00000000000E+00 0.  1.
        -11    1    1    2    0    0 -0.46340458574E+01 -0.24426393108E+01  0.18061660416E+03  0.18069255261E+03  0.00000000000E+00 0. -1.
         11    1    1    2    0    0 -0.10016396928E+01 -0.24002932507E+01 -0.11718197211E+03  0.11721083260E+03  0.00000000000E+00 0.  1.
        -15    1    1    2    0    0 -0.59212303557E+01  0.49952881192E+01 -0.41351995641E+02  0.42108896266E+02  0.17770000000E+01 0. -1.
         15    1    1    2    0    0  0.11556915906E+02 -0.15235555764E+00 -0.22082636412E+02  0.24987718531E+02  0.17770000000E+01 0.  1.
</event>
<event>
 6    1  0.1226227E-002  0.1834051E+03  0.7546771E-02  0.1067737E+00
        -11   -1    0    0    0    0  0.00000000000E+00  0.00000000000E+00  0.18250000000E+03  0.18250000000E+03  0.00000000000E+00 0.  1.
         11   -1    0    0    0    0 -0.00000000000E+00 -0.00000000000E+00 -0.18250000000E+03  0.18250000000E+03  0.00000000000E+00 0. -1.
        -11    1    1    2    0    0  0.14402234130E+00 -0.25477952459E+01  0.17222488118E+03  0.17224378567E+03  0.00000000000E+00 0.  1.
         11    1    1    2    0    0  0.12511449878E+01  0.22631966227E+01 -0.18157651579E+03  0.18159492974E+03  0.00000000000E+00 0. -1.
        -15    1    1    2    0    0  0.76312297118E+00  0.88700261549E+00  0.10337357666E+01  0.23654743592E+01  0.17770000000E+01 0. -1.
         15    1    1    2    0    0 -0.21582903003E+01 -0.60240399228E+00  0.83178988341E+01  0.87958102302E+01  0.17770000000E+01 0. -1.
</event>
<event>
 6    1  0.1226227E-002  0.1890945E+03  0.7546771E-02  0.1063324E+00
        -11   -1    0    0    0    0  0.00000000000E+00  0.00000000000E+00  0.18250000000E+03  0.18250000000E+03  0.00000000000E+00 0.  1.
         11   -1    0    0    0    0 -0.00000000000E+00 -0.00000000000E+00 -0.18250000000E+03  0.18250000000E+03  0.00000000000E+00 0. -1.
        -11    1    1    2    0    0  0.19374924941E+00  0.60848750381E+01  0.14032166057E+03  0.14045366378E+03  0.00000000000E+00 0.  1.
         11    1    1    2    0    0 -0.46452257511E+01 -0.50415591949E+01 -0.17577188151E+03  0.17590551375E+03  0.00000000000E+00 0. -1.
        -15    1    1    2    0    0 -0.84593309872E+01 -0.25977475024E+01  0.34297659271E+02  0.35465416018E+02  0.17770000000E+01 0. -1.
         15    1    1    2    0    0  0.12910807489E+02  0.15544316592E+01  0.11525616649E+01  0.13175406453E+02  0.17770000000E+01 0.  1.
</event>
<event>
 6    1  0.1226227E-002  0.1873236E+03  0.7546771E-02  0.1064679E+00
        -11   -1    0    0    0    0  0.00000000000E+00  0.00000000000E+00  0.18250000000E+03  0.18250000000E+03  0.00000000000E+00 0. -1.
         11   -1    0    0    0    0 -0.00000000000E+00 -0.00000000000E+00 -0.18250000000E+03  0.18250000000E+03  0.00000000000E+00 0. -1.
        -11    1    1    2    0    0 -0.33504361138E+01 -0.20067533026E+01  0.16056837273E+03  0.16061586099E+03  0.00000000000E+00 0. -1.
         11    1    1    2    0    0 -0.35755564432E+01  0.18297928170E+01 -0.17763098265E+03  0.17767638769E+03  0.00000000000E+00 0. -1.
        -15    1    1    2    0    0  0.92674230664E+01  0.16783179143E+01  0.26402230023E+00  0.95879777893E+01  0.17770000000E+01 0. -1.
         15    1    1    2    0    0 -0.23414305093E+01 -0.15013574287E+01  0.16798587615E+02  0.17119773533E+02  0.17770000000E+01 0.  1.
</event>
<event>
 6    1  0.1226227E-002  0.1845589E+03  0.7546771E-02  0.1066828E+00
        -11   -1    0    0    0    0  0.00000000000E+00  0.00000000000E+00  0.18250000000E+03  0.18250000000E+03  0.00000000000E+00 0.  1.
         11   -1    0    0    0    0 -0.00000000000E+00 -0.00000000000E+00 -0.18250000000E+03  0.18250000000E+03  0.00000000000E+00 0.  1.
        -11    1    1    2    0    0  0.24167771021E+01 -0.26109722667E+01  0.18040597169E+03  0.18044105023E+03  0.00000000000E+00 0.  1.
         11    1    1    2    0    0  0.11421295655E+01 -0.32648161563E+01 -0.16988880303E+03  0.16992400914E+03  0.00000000000E+00 0.  1.
        -15    1    1    2    0    0  0.14941277212E+01  0.37055456457E+01 -0.50396071970E+01  0.66722451903E+01  0.17770000000E+01 0.  1.
         15    1    1    2    0    0 -0.50530343889E+01  0.21702427773E+01 -0.54775614550E+01  0.79626954444E+01  0.17770000000E+01 0. -1.
</event>
<event>
 6    1  0.1226227E-002  0.1775928E+03  0.7546771E-02  0.1072429E+00
        -11   -1    0    0    0    0  0.00000000000E+00  0.00000000000E+00  0.18250000000E+03  0.18250000000E+03  0.00000000000E+00 0.  1.
         11   -1    0    0    0    0 -0.00000000000E+00 -0.00000000000E+00 -0.18250000000E+03  0.18250000000E+03  0.00000000000E+00 0. -1.
        -11    1    1    2    0    0  0.22105501692E+01 -0.43251790124E+01  0.17880284442E+03  0.17886880912E+03  0.00000000000E+00 0.  1.
         11    1    1    2    0    0 -0.25113670191E+01 -0.10283667262E+01 -0.17634491410E+03  0.17636579383E+03  0.00000000000E+00 0. -1.
        -15    1    1    2    0    0  0.29612007542E+01  0.21826212743E+01 -0.32138016132E+01  0.51979606908E+01  0.17770000000E+01 0. -1.
         15    1    1    2    0    0 -0.26603839042E+01  0.31709244643E+01  0.75587129994E+00  0.45674363595E+01  0.17770000000E+01 0.  1.
</event>
<event>
 6    1  0.1226227E-002  0.1836600E+03  0.7546771E-02  0.1067535E+00
        -11   -1    0    0    0    0  0.00000000000E+00  0.00000000000E+00  0.18250000000E+03  0.18250000000E+03  0.00000000000E+00 0.  1.
         11   -1    0    0    0    0 -0.00000000000E+00 -0.00000000000E+00 -0.18250000000E+03  0.18250000000E+03  0.00000000000E+00 0. -1.
        -11    1    1    2    0    0  0.21445228192E+01  0.12054091759E+01  0.15650210374E+03  0.15652143772E+03  0.00000000000E+00 0.  1.
         11    1    1    2    0    0  0.22334744763E+01 -0.39022626119E+01 -0.18128422569E+03  0.18133997504E+03  0.00000000000E+00 0. -1.
        -15    1    1    2    0    0 -0.50658326370E+01  0.34161533909E+01  0.24196687119E+02  0.25019395693E+02  0.17770000000E+01 0. -1.
         15    1    1    2    0    0  0.68783534146E+00 -0.71929995487E+00  0.58543483054E+00  0.21191915494E+01  0.17770000000E+01 0. -1.
</event>
<event>
 6    1  0.1226227E-002  0.1857254E+03  0.7546771E-02  0.1065916E+00
        -11   -1    0    0    0    0  0.00000000000E+00  0.00000000000E+00  0.18250000000E+03  0.18250000000E+03  0.00000000000E+00 0. -1.
         11   -1    0    0    0    0 -0.00000000000E+00 -0.00000000000E+00 -0.18250000000E+03  0.18250000000E+03  0.00000000000E+00 0.  1.
        -11    1    1    2    0    0 -0.40574190566E+01  0.32961029552E+01  0.16730441691E+03  0.16738606531E+03  0.00000000000E+00 0. -1.
         11    1    1    2    0    0 -0.52307385468E+01  0.49797656990E-01 -0.17919831613E+03  0.17927464854E+03  0.00000000000E+00 0.  1.
        -15    1    1    2    0    0  0.27244429749E+01 -0.37442737362E+01  0.10166758476E+02  0.11312067992E+02  0.17770000000E+01 0.  1.
         15    1    1    2    0    0  0.65637146285E+01  0.39837312399E+00  0.17271407454E+01  0.70272181569E+01  0.17770000000E+01 0.  1.
</event>
<event>
 6    1  0.1226227E-002  0.1843266E+03  0.7546771E-02  0.1067010E+00
        -11   -1    0    0    0    0  0.00000000000E+00  0.00000000000E+00  0.18250000000E+03  0.18250000000E+03  0.00000000000E+00 0. -1.
         11   -1    0    0    0    0 -0.00000000000E+00 -0.00000000000E+00 -0.18250000000E+03  0.18250000000E+03  0.00000000000E+00 0.  1.
        -11    1    1    2    0    0  0.10827567876E+02 -0.18150168566E+01  0.18033951537E+03  0.18067338298E+03  0.00000000000E+00 0. -1.
         11    1    1    2    0    0  0.41824353057E+01  0.30544338851E+01 -0.13438191824E+03  0.13448168009E+03  0.00000000000E+00 0.  1.
        -15    1    1    2    0    0 -0.11646988514E+02 -0.42607711942E+00 -0.43878085429E+02  0.45434326154E+02  0.17770000000E+01 0. -1.
         15    1    1    2    0    0 -0.33630146676E+01 -0.81333990905E+00 -0.20795117051E+01  0.44106107733E+01  0.17770000000E+01 0.  1.
</event>
<event>
 6    1  0.1226227E-002  0.1677932E+03  0.7546771E-02  0.1080804E+00
        -11   -1    0    0    0    0  0.00000000000E+00  0.00000000000E+00  0.18250000000E+03  0.18250000000E+03  0.00000000000E+00 0. -1.
         11   -1    0    0    0    0 -0.00000000000E+00 -0.00000000000E+00 -0.18250000000E+03  0.18250000000E+03  0.00000000000E+00 0. -1.
        -11    1    1    2    0    0 -0.69394895908E+01  0.65552892707E+01  0.16538661862E+03  0.16566189046E+03  0.00000000000E+00 0. -1.
         11    1    1    2    0    0  0.14117084158E+01  0.40054550157E+01 -0.17011644258E+03  0.17016944681E+03  0.00000000000E+00 0. -1.
        -15    1    1    2    0    0 -0.22655554229E+01 -0.42531257048E+01 -0.10011774235E+02  0.11252340733E+02  0.17770000000E+01 0.  1.
         15    1    1    2    0    0  0.77933365979E+01 -0.63076185817E+01  0.14741598201E+02  0.17916322000E+02  0.17770000000E+01 0.  1.
</event>
<event>
 6    1  0.1226227E-002  0.1872698E+03  0.7546771E-02  0.1064720E+00
        -11   -1    0    0    0    0  0.00000000000E+00  0.00000000000E+00  0.18250000000E+03  0.18250000000E+03  0.00000000000E+00 0.  1.
         11   -1    0    0    0    0 -0.00000000000E+00 -0.00000000000E+00 -0.18250000000E+03  0.18250000000E+03  0.00000000000E+00 0. -1.
        -11    1    1    2    0    0 -0.30921347547E+01  0.39588116971E-01  0.17770330530E+03  0.17773021009E+03  0.00000000000E+00 0.  1.
         11    1    1    2    0    0 -0.22651654419E+01 -0.60074024961E+00 -0.13995328282E+03  0.13997290179E+03  0.00000000000E+00 0. -1.
        -15    1    1    2    0    0  0.57212569203E+01 -0.42622546747E+01 -0.40700199520E+02  0.41358959919E+02  0.17770000000E+01 0. -1.
         15    1    1    2    0    0 -0.36395672374E+00  0.48234068073E+01  0.29501770365E+01  0.59379281970E+01  0.17770000000E+01 0.  1.
</event>
<event>
 6    1  0.1226227E-002  0.1863909E+03  0.7546771E-02  0.1065399E+00
        -11   -1    0    0    0    0  0.00000000000E+00  0.00000000000E+00  0.18250000000E+03  0.18250000000E+03  0.00000000000E+00 0.  1.
         11   -1    0    0    0    0 -0.00000000000E+00 -0.00000000000E+00 -0.18250000000E+03  0.18250000000E+03  0.00000000000E+00 0. -1.
        -11    1    1    2    0    0  0.13175573475E+00 -0.25588430233E+01  0.17859071553E+03  0.17860909470E+03  0.00000000000E+00 0.  1.
         11    1    1    2    0    0  0.56749932977E+01  0.24619803793E+01 -0.16785233821E+03  0.16796628929E+03  0.00000000000E+00 0. -1.
        -15    1    1    2    0    0  0.98456943732E+00  0.38609216407E+01  0.76831020169E+00  0.44299122405E+01  0.17770000000E+01 0. -1.
         15    1    1    2    0    0 -0.67913184697E+01 -0.37640589968E+01 -0.11506687520E+02  0.13994703762E+02  0.17770000000E+01 0. -1.
</event>
<event>
 6    1  0.1226227E-002  0.1855681E+03  0.7546771E-02  0.1066038E+00
        -11   -1    0    0    0    0  0.00000000000E+00  0.00000000000E+00  0.18250000000E+03  0.18250000000E+03  0.00000000000E+00 0. -1.
         11   -1    0    0    0    0 -0.00000000000E+00 -0.00000000000E+00 -0.18250000000E+03  0.18250000000E+03  0.00000000000E+00 0. -1.
        -11    1    1    2    0    0  0.31387970739E+01 -0.48643959538E+01  0.17933847401E+03  0.17943188863E+03  0.00000000000E+00 0. -1.
         11    1    1    2    0    0 -0.23200759629E+01 -0.84169654635E+01 -0.98563634065E+02  0.98949573118E+02  0.00000000000E+00 0. -1.
        -15    1    1    2    0    0  0.32945626175E+01  0.24061822476E+01  0.51731865681E+00  0.44798664536E+01  0.17770000000E+01 0.  1.
         15    1    1    2    0    0 -0.41132837285E+01  0.10875179170E+02 -0.81292158607E+02  0.82138671800E+02  0.17770000000E+01 0. -1.
</event>
<event>
 6    1  0.1226227E-002  0.1851213E+03  0.7546771E-02  0.1066387E+00
        -11   -1    0    0    0    0  0.00000000000E+00  0.00000000000E+00  0.18250000000E+03  0.18250000000E+03  0.00000000000E+00 0.  1.
         11   -1    0    0    0    0 -0.00000000000E+00 -0.00000000000E+00 -0.18250000000E+03  0.18250000000E+03  0.00000000000E+00 0. -1.
        -11    1    1    2    0    0  0.24193486891E+01  0.79388717451E+00  0.16714351366E+03  0.16716290755E+03  0.00000000000E+00 0.  1.
         11    1    1    2    0    0  0.32098072771E+01  0.54290620102E+01 -0.17976808288E+03  0.17987868467E+03  0.00000000000E+00 0. -1.
        -15    1    1    2    0    0 -0.77398848320E+01 -0.54138407634E+01  0.79625565143E+01  0.12481006541E+02  0.17770000000E+01 0.  1.
         15    1    1    2    0    0  0.21107288658E+01 -0.80910842124E+00  0.46620127090E+01  0.54774012343E+01  0.17770000000E+01 0. -1.
</event>
<event>
 6    1  0.1226227E-002  0.1894065E+03  0.7546771E-02  0.1063086E+00
        -11   -1    0    0    0    0  0.00000000000E+00  0.00000000000E+00  0.18250000000E+03  0.18250000000E+03  0.00000000000E+00 0.  1.
         11   -1    0    0    0    0 -0.00000000000E+00 -0.00000000000E+00 -0.18250000000E+03  0.18250000000E+03  0.00000000000E+00 0. -1.
        -11    1    1    2    0    0  0.26006270734E+01  0.53488753997E+01  0.17549271387E+03  0.17559346898E+03  0.00000000000E+00 0.  1.
         11    1    1    2    0    0  0.17767155639E+01  0.92653660338E+01 -0.16158825834E+03  0.16186342688E+03  0.00000000000E+00 0. -1.
        -15    1    1    2    0    0 -0.86583735810E+01 -0.51363891760E+00 -0.41203040234E+01  0.97655461829E+01  0.17770000000E+01 0. -1.
         15    1    1    2    0    0  0.42810309436E+01 -0.14100602516E+02 -0.97841515007E+01  0.17777557955E+02  0.17770000000E+01 0.  1.
</event>
<event>
 6    1  0.1226227E-002  0.1855846E+03  0.7546771E-02  0.1066026E+00
        -11   -1    0    0    0    0  0.00000000000E+00  0.00000000000E+00  0.18250000000E+03  0.18250000000E+03  0.00000000000E+00 0.  1.
         11   -1    0    0    0    0 -0.00000000000E+00 -0.00000000000E+00 -0.18250000000E+03  0.18250000000E+03  0.00000000000E+00 0. -1.
        -11    1    1    2    0    0 -0.40753928608E+01  0.65350082869E+00  0.17936793688E+03  0.17941541927E+03  0.00000000000E+00 0.  1.
         11    1    1    2    0    0 -0.91653271088E+01  0.28338932673E+00 -0.16215129506E+03  0.16241036303E+03  0.00000000000E+00 0. -1.
        -15    1    1    2    0    0  0.11106413999E+02 -0.34514564727E+01 -0.13139114494E+02  0.17636866003E+02  0.17770000000E+01 0.  1.
         15    1    1    2    0    0  0.21343059701E+01  0.25145663173E+01 -0.40775273255E+01  0.55373516981E+01  0.17770000000E+01 0. -1.
</event>
<event>
 6    1  0.1226227E-002  0.1825628E+03  0.7546771E-02  0.1068405E+00
        -11   -1    0    0    0    0  0.00000000000E+00  0.00000000000E+00  0.18250000000E+03  0.18250000000E+03  0.00000000000E+00 0.  1.
         11   -1    0    0    0    0 -0.00000000000E+00 -0.00000000000E+00 -0.18250000000E+03  0.18250000000E+03  0.00000000000E+00 0. -1.
        -11    1    1    2    0    0  0.10410008084E+01  0.11783309081E+01  0.14615769779E+02  0.14700097709E+02  0.00000000000E+00 0.  1.
         11    1    1    2    0    0 -0.17922856155E+01 -0.17145691528E+01 -0.18242036275E+03  0.18243722422E+03  0.00000000000E+00 0. -1.
        -15    1    1    2    0    0 -0.24373726535E+00  0.51652670353E+00  0.12025595303E+03  0.12027043766E+03  0.17770000000E+01 0.  1.
         15    1    1    2    0    0  0.99502207245E+00  0.19711541130E-01  0.47548639947E+02  0.47592240411E+02  0.17770000000E+01 0. -1.
</event>
<event>
 6    1  0.1226227E-002  0.1826556E+03  0.7546771E-02  0.1068331E+00
        -11   -1    0    0    0    0  0.00000000000E+00  0.00000000000E+00  0.18250000000E+03  0.18250000000E+03  0.00000000000E+00 0. -1.
         11   -1    0    0    0    0 -0.00000000000E+00 -0.00000000000E+00 -0.18250000000E+03  0.18250000000E+03  0.00000000000E+00 0.  1.
        -11    1    1    2    0    0 -0.22846199732E+01 -0.58911708351E+00  0.36239668017E+02  0.36316388660E+02  0.00000000000E+00 0. -1.
         11    1    1    2    0    0  0.13498624629E+01  0.33000296776E+01 -0.18230957717E+03  0.18234443850E+03  0.00000000000E+00 0.  1.
        -15    1    1    2    0    0  0.10241178397E+01  0.23504820952E+01  0.76085595564E+02  0.76149518480E+02  0.17770000000E+01 0. -1.
         15    1    1    2    0    0 -0.89360329289E-01 -0.50613946893E+01  0.69984313589E+02  0.70189654359E+02  0.17770000000E+01 0.  1.
</event>
<event>
 6    1  0.1226227E-002  0.1827771E+03  0.7546771E-02  0.1068234E+00
        -11   -1    0    0    0    0  0.00000000000E+00  0.00000000000E+00  0.18250000000E+03  0.18250000000E+03  0.00000000000E+00 0.  1.
         11   -1    0    0    0    0 -0.00000000000E+00 -0.00000000000E+00 -0.18250000000E+03  0.18250000000E+03  0.00000000000E+00 0. -1.
        -11    1    1    2    0    0  0.20849196712E+01  0.13202612785E+01  0.18220615175E+03  0.18222286277E+03  0.00000000000E+00 0.  1.
         11    1    1    2    0    0 -0.30475838666E+01 -0.31826597636E+01 -0.94949667158E+02  0.95051861549E+02  0.00000000000E+00 0. -1.
        -15    1    1    2    0    0  0.16652082544E+01 -0.86925576691E+00 -0.74358389139E+02  0.74403335197E+02  0.17770000000E+01 0. -1.
         15    1    1    2    0    0 -0.70254405898E+00  0.27316542520E+01 -0.12898095451E+02  0.13321940488E+02  0.17770000000E+01 0.  1.
</event>
<event>
 6    1  0.1226227E-002  0.1828250E+03  0.7546771E-02  0.1068196E+00
        -11   -1    0    0    0    0  0.00000000000E+00  0.00000000000E+00  0.18250000000E+03  0.18250000000E+03  0.00000000000E+00 0. -1.
         11   -1    0    0    0    0 -0.00000000000E+00 -0.00000000000E+00 -0.18250000000E+03  0.18250000000E+03  0.00000000000E+00 0.  1.
        -11    1    1    2    0    0  0.31417512697E+01  0.68840395410E+00  0.18214663280E+03  0.18217502667E+03  0.00000000000E+00 0. -1.
         11    1    1    2    0    0 -0.98946925142E+00 -0.15296780215E+01 -0.12446785245E+03  0.12448118435E+03  0.00000000000E+00 0.  1.
        -15    1    1    2    0    0  0.13815399830E+01  0.11750031158E+01 -0.60310928054E+01  0.65437828871E+01  0.17770000000E+01 0. -1.
         15    1    1    2    0    0 -0.35338220013E+01 -0.33372904847E+00 -0.51647687551E+02  0.51800006095E+02  0.17770000000E+01 0.  1.
</event>
<event>
 6    1  0.1226227E-002  0.1825690E+03  0.7546771E-02  0.1068400E+00
        -11   -1    0    0    0    0  0.00000000000E+00  0.00000000000E+00  0.18250000000E+03  0.18250000000E+03  0.00000000000E+00 0.  1.
         11   -1    0    0    0    0 -0.00000000000E+00 -0.00000000000E+00 -0.18250000000E+03  0.18250000000E+03  0.00000000000E+00 0.  1.
        -11    1    1    2    0    0  0.22677770029E+01  0.97185807697E+00  0.18241429000E+03  0.18243097466E+03  0.00000000000E+00 0.  1.
         11    1    1    2    0    0  0.69605397978E+00 -0.99721197815E+00 -0.84068708650E+02  0.84077504107E+02  0.00000000000E+00 0.  1.
        -15    1    1    2    0    0 -0.13108943472E+01  0.79128153614E+00 -0.67638828858E+02  0.67679490754E+02  0.17770000000E+01 0.  1.
         15    1    1    2    0    0 -0.16529366354E+01 -0.76592763496E+00 -0.30706752490E+02  0.30812030477E+02  0.17770000000E+01 0. -1.
</event>
<event>
 6    1  0.1226227E-002  0.1836063E+03  0.7546771E-02  0.1067578E+00
        -11   -1    0    0    0    0  0.00000000000E+00  0.00000000000E+00  0.18250000000E+03  0.18250000000E+03  0.00000000000E+00 0. -1.
         11   -1    0    0    0    0 -0.00000000000E+00 -0.00000000000E+00 -0.18250000000E+03  0.18250000000E+03  0.00000000000E+00 0. -1.
        -11    1    1    2    0    0 -0.16941732358E+01  0.96293665430E+00  0.10556719032E+03  0.10558517482E+03  0.00000000000E+00 0. -1.
         11    1    1    2    0    0 -0.12628143221E-01 -0.26540582157E+01 -0.18137432605E+03  0.18139374392E+03  0.00000000000E+00 0. -1.
        -15    1    1    2    0    0  0.59494498572E+01  0.10696465883E+01  0.71210243048E+02  0.71488436417E+02  0.17770000000E+01 0.  1.
         15    1    1    2    0    0 -0.42426484782E+01  0.62147497310E+00  0.45968926825E+01  0.65326448385E+01  0.17770000000E+01 0. -1.
</event>
<event>
 6    1  0.1226227E-002  0.1855630E+03  0.7546771E-02  0.1066042E+00
        -11   -1    0    0    0    0  0.00000000000E+00  0.00000000000E+00  0.18250000000E+03  0.18250000000E+03  0.00000000000E+00 0. -1.
         11   -1    0    0    0    0 -0.00000000000E+00 -0.00000000000E+00 -0.18250000000E+03  0.18250000000E+03  0.00000000000E+00 0. -1.
        -11    1    1    2    0    0  0.28798079623E+01 -0.51671206329E-01  0.17077040831E+03  0.17079469640E+03  0.00000000000E+00 0. -1.
         11    1    1    2    0    0 -0.41870621773E+01 -0.84908074657E+00 -0.17938609585E+03  0.17943696334E+03  0.00000000000E+00 0. -1.
        -15    1    1    2    0    0  0.17765182467E+00 -0.22473658529E+01  0.10249272426E+02  0.10643661387E+02  0.17770000000E+01 0.  1.
         15    1    1    2    0    0  0.11296023903E+01  0.31481178058E+01 -0.16335848845E+01  0.41246788790E+01  0.17770000000E+01 0. -1.
</event>
<event>
 6    1  0.1226227E-002  0.1850980E+03  0.7546771E-02  0.1066405E+00
        -11   -1    0    0    0    0  0.00000000000E+00  0.00000000000E+00  0.18250000000E+03  0.18250000000E+03  0.00000000000E+00 0.  1.
         11   -1    0    0    0    0 -0.00000000000E+00 -0.00000000000E+00 -0.18250000000E+03  0.18250000000E+03  0.00000000000E+00 0. -1.
        -11    1    1    2    0    0 -0.33952249637E+01  0.38981805017E+01  0.16684893303E+03  0.16692899634E+03  0.00000000000E+00 0.  1.
         11    1    1    2    0    0 -0.31227178180E+01 -0.41170165241E+01 -0.17982772894E+03  0.17990195465E+03  0.00000000000E+00 0. -1.
        -15    1    1    2    0    0 -0.15111520599E+01  0.20506561488E+01  0.55046089840E+00  0.31542839741E+01  0.17770000000E+01 0. -1.
         15    1    1    2    0    0  0.80290948416E+01 -0.18318201264E+01  0.12428335010E+02  0.15014765036E+02  0.17770000000E+01 0. -1.
</event>
<event>
 6    1  0.1226227E-002  0.1833293E+03  0.7546771E-02  0.1067797E+00
        -11   -1    0    0    0    0  0.00000000000E+00  0.00000000000E+00  0.18250000000E+03  0.18250000000E+03  0.00000000000E+00 0. -1.
         11   -1    0    0    0    0 -0.00000000000E+00 -0.00000000000E+00 -0.18250000000E+03  0.18250000000E+03  0.00000000000E+00 0. -1.
        -11    1    1    2    0    0  0.58122409265E+01  0.72163295368E+00  0.18157629319E+03  0.18167072727E+03  0.00000000000E+00 0. -1.
         11    1    1    2    0    0  0.27592960612E+01 -0.97288390079E+00 -0.39496806083E+02  0.39605023780E+02  0.00000000000E+00 0. -1.
        -15    1    1    2    0    0 -0.15472129890E+01  0.29652566587E+01 -0.43098587163E+01  0.57375278857E+01  0.17770000000E+01 0.  1.
         15    1    1    2    0    0 -0.70243239987E+01 -0.27140057116E+01 -0.13776962839E+03  0.13798672106E+03  0.17770000000E+01 0. -1.
</event>
<event>
 6    1  0.1226227E-002  0.1754672E+03  0.7546771E-02  0.1074195E+00
        -11   -1    0    0    0    0  0.00000000000E+00  0.00000000000E+00  0.18250000000E+03  0.18250000000E+03  0.00000000000E+00 0. -1.
         11   -1    0    0    0    0 -0.00000000000E+00 -0.00000000000E+00 -0.18250000000E+03  0.18250000000E+03  0.00000000000E+00 0.  1.
        -11    1    1    2    0    0 -0.25274198279E+01 -0.23792220786E+01  0.17427676273E+03  0.17431132659E+03  0.00000000000E+00 0. -1.
         11    1    1    2    0    0 -0.19859762251E+01 -0.57729208920E+01 -0.17664940579E+03  0.17675486778E+03  0.00000000000E+00 0.  1.
        -15    1    1    2    0    0  0.50075825010E+00  0.18721235244E+01  0.51517190856E+01  0.57839038592E+01  0.17770000000E+01 0.  1.
         15    1    1    2    0    0  0.40126378029E+01  0.62800194462E+01 -0.27790760286E+01  0.81499017758E+01  0.17770000000E+01 0.  1.
</event>
<event>
 6    1  0.1226227E-002  0.1760613E+03  0.7546771E-02  0.1073699E+00
        -11   -1    0    0    0    0  0.00000000000E+00  0.00000000000E+00  0.18250000000E+03  0.18250000000E+03  0.00000000000E+00 0.  1.
         11   -1    0    0    0    0 -0.00000000000E+00 -0.00000000000E+00 -0.18250000000E+03  0.18250000000E+03  0.00000000000E+00 0. -1.
        -11    1    1    2    0    0 -0.24085421698E+01 -0.42066076043E+00  0.17619226744E+03  0.17620923113E+03  0.00000000000E+00 0.  1.
         11    1    1    2    0    0 -0.53293851306E+01 -0.13623606370E+01 -0.17591699479E+03  0.17600297563E+03  0.00000000000E+00 0. -1.
        -15    1    1    2    0    0  0.61221120081E+01  0.51010077360E+01  0.15384754339E+01  0.83081388423E+01  0.17770000000E+01 0.  1.
         15    1    1    2    0    0  0.16158152923E+01 -0.33179863385E+01 -0.18137480823E+01  0.44796543960E+01  0.17770000000E+01 0. -1.
</event>
<event>
 6    1  0.1226227E-002  0.1829021E+03  0.7546771E-02  0.1068135E+00
        -11   -1    0    0    0    0  0.00000000000E+00  0.00000000000E+00  0.18250000000E+03  0.18250000000E+03  0.00000000000E+00 0. -1.
         11   -1    0    0    0    0 -0.00000000000E+00 -0.00000000000E+00 -0.18250000000E+03  0.18250000000E+03  0.00000000000E+00 0.  1.
        -11    1    1    2    0    0 -0.18538321390E+01 -0.23224490293E+01  0.10789457070E+02  0.11191195064E+02  0.00000000000E+00 0. -1.
         11    1    1    2    0    0  0.15706079045E+01 -0.49771175090E+01 -0.18202305092E+03  0.18209785713E+03  0.00000000000E+00 0.  1.
        -15    1    1    2    0    0  0.21414794477E+01 -0.17923373928E+01  0.50326839919E+02  0.50435572296E+02  0.17770000000E+01 0. -1.
         15    1    1    2    0    0 -0.18582552132E+01  0.90919039310E+01  0.12090675393E+03  0.12127537551E+03  0.17770000000E+01 0.  1.
</event>
<event>
 6    1  0.1226227E-002  0.1836915E+03  0.7546771E-02  0.1067510E+00
        -11   -1    0    0    0    0  0.00000000000E+00  0.00000000000E+00  0.18250000000E+03  0.18250000000E+03  0.00000000000E+00 0.  1.
         11   -1    0    0    0    0 -0.00000000000E+00 -0.00000000000E+00 -0.18250000000E+03  0.18250000000E+03  0.00000000000E+00 0. -1.
        -11    1    1    2    0    0 -0.14639825900E+00 -0.46882205198E+01  0.18124781888E+03  0.18130850144E+03  0.00000000000E+00 0.  1.
         11    1    1    2    0    0 -0.29864117828E+01 -0.34579930801E+00 -0.13940994492E+03  0.13944235718E+03  0.00000000000E+00 0. -1.
        -15    1    1    2    0    0  0.23725272453E+01  0.87379348452E+01 -0.20144761360E+02  0.22157380940E+02  0.17770000000E+01 0. -1.
         15    1    1    2    0    0  0.76028279642E+00 -0.37039150174E+01 -0.21693112600E+02  0.22091760447E+02  0.17770000000E+01 0. -1.
</event>
<event>
 6    1  0.1226227E-002  0.1832884E+03  0.7546771E-02  0.1067829E+00
        -11   -1    0    0    0    0  0.00000000000E+00  0.00000000000E+00  0.18250000000E+03  0.18250000000E+03  0.00000000000E+00 0. -1.
         11   -1    0    0    0    0 -0.00000000000E+00 -0.00000000000E+00 -0.18250000000E+03  0.18250000000E+03  0.00000000000E+00 0.  1.
        -11    1    1    2    0    0  0.79730478483E+01  0.37872350102E+01  0.18149706763E+03  0.18171157971E+03  0.00000000000E+00 0. -1.
         11    1    1    2    0    0 -0.43517201147E+01 -0.50890896351E+01 -0.10021806211E+03  0.10044150673E+03  0.00000000000E+00 0.  1.
        -15    1    1    2    0    0 -0.76568210871E+01 -0.17708405611E+01 -0.24001787792E+02  0.25318102845E+02  0.17770000000E+01 0. -1.
         15    1    1    2    0    0  0.40354933535E+01  0.30726951860E+01 -0.57277217736E+02  0.57528810720E+02  0.17770000000E+01 0.  1.
</event>
<event>
 6    1  0.1226227E-002  0.1928466E+03  0.7546771E-02  0.1060505E+00
        -11   -1    0    0    0    0  0.00000000000E+00  0.00000000000E+00  0.18250000000E+03  0.18250000000E+03  0.00000000000E+00 0.  1.
         11   -1    0    0    0    0 -0.00000000000E+00 -0.00000000000E+00 -0.18250000000E+03  0.18250000000E+03  0.00000000000E+00 0.  1.
        -11    1    1    2    0    0 -0.13449998360E+02  0.47655269542E+01  0.15682805134E+03  0.15747587241E+03  0.00000000000E+00 0.  1.
         11    1    1    2    0    0  0.10099685034E+02 -0.10843023340E+02 -0.17151452498E+03  0.17215344049E+03  0.00000000000E+00 0.  1.
        -15    1    1    2    0    0 -0.86542418831E+01  0.14878864277E+00 -0.59891773552E+01  0.10674549875E+02  0.17770000000E+01 0.  1.
         15    1    1    2    0    0  0.12004555209E+02  0.59287077432E+01  0.20675650988E+02  0.24696137230E+02  0.17770000000E+01 0. -1.
</event>
<event>
 6    1  0.1226227E-002  0.1861130E+03  0.7546771E-02  0.1065615E+00
        -11   -1    0    0    0    0  0.00000000000E+00  0.00000000000E+00  0.18250000000E+03  0.18250000000E+03  0.00000000000E+00 0.  1.
         11   -1    0    0    0    0 -0.00000000000E+00 -0.00000000000E+00 -0.18250000000E+03  0.18250000000E+03  0.00000000000E+00 0. -1.
        -11    1    1    2    0    0 -0.29327961340E+01 -0.12989885806E+01  0.16598335549E+03  0.16601434565E+03  0.00000000000E+00 0.  1.
         11    1    1    2    0    0 -0.47278822187E+01  0.21859292007E+00 -0.17882441903E+03  0.17888704116E+03  0.00000000000E+00 0. -1.
        -15    1    1    2    0    0 -0.19521988647E+01 -0.23005862969E+01  0.78873876311E+01  0.86297387191E+01  0.17770000000E+01 0.  1.
         15    1    1    2    0    0  0.96128772174E+01  0.33809819575E+01  0.49536759170E+01  0.11468874465E+02  0.17770000000E+01 0. -1.
</event>
<event>
 6    1  0.1226227E-002  0.1910167E+03  0.7546771E-02  0.1061871E+00
        -11   -1    0    0    0    0  0.00000000000E+00  0.00000000000E+00  0.18250000000E+03  0.18250000000E+03  0.00000000000E+00 0.  1.
         11   -1    0    0    0    0 -0.00000000000E+00 -0.00000000000E+00 -0.18250000000E+03  0.18250000000E+03  0.00000000000E+00 0. -1.
        -11    1    1    2    0    0 -0.29890278992E+01  0.56737957728E+01  0.17386509437E+03  0.17398332474E+03  0.00000000000E+00 0.  1.
         11    1    1    2    0    0  0.17316781235E+00  0.22967028286E+01 -0.15284925030E+03  0.15286660246E+03  0.00000000000E+00 0. -1.
        -15    1    1    2    0    0  0.34764664589E+01  0.80113724046E+00  0.73704030758E+01  0.83790339787E+01  0.17770000000E+01 0.  1.
         15    1    1    2    0    0 -0.66060637195E+00 -0.87716358418E+01 -0.28386247150E+02  0.29771038820E+02  0.17770000000E+01 0.  1.
</event>
<event>
 6    1  0.1226227E-002  0.1845848E+03  0.7546771E-02  0.1066807E+00
        -11   -1    0    0    0    0  0.00000000000E+00  0.00000000000E+00  0.18250000000E+03  0.18250000000E+03  0.00000000000E+00 0. -1.
         11   -1    0    0    0    0 -0.00000000000E+00 -0.00000000000E+00 -0.18250000000E+03  0.18250000000E+03  0.00000000000E+00 0. -1.
        -11    1    1    2    0    0  0.19917739972E+01  0.17815132305E+01  0.18039542961E+03  0.18041522103E+03  0.00000000000E+00 0. -1.
         11    1    1    2    0    0 -0.14279347669E+01 -0.20192717441E+00 -0.59273731116E+02  0.59291272315E+02  0.00000000000E+00 0. -1.
        -15    1    1    2    0    0 -0.70771476537E+01 -0.14964636912E+02 -0.73769850597E+02  0.75625227028E+02  0.17770000000E+01 0. -1.
         15    1    1    2    0    0  0.65133084234E+01  0.13385050856E+02 -0.47351847899E+02  0.49668279631E+02  0.17770000000E+01 0.  1.
</event>
<event>
 6    1  0.1226227E-002  0.1852880E+03  0.7546771E-02  0.1066257E+00
        -11   -1    0    0    0    0  0.00000000000E+00  0.00000000000E+00  0.18250000000E+03  0.18250000000E+03  0.00000000000E+00 0.  1.
         11   -1    0    0    0    0 -0.00000000000E+00 -0.00000000000E+00 -0.18250000000E+03  0.18250000000E+03  0.00000000000E+00 0. -1.
        -11    1    1    2    0    0 -0.15206892356E+01 -0.22140480699E+01  0.17562323075E+03  0.17564376927E+03  0.00000000000E+00 0.  1.
         11    1    1    2    0    0 -0.31088792965E+01  0.50760606423E+01 -0.17961339818E+03  0.17971200385E+03  0.00000000000E+00 0. -1.
        -15    1    1    2    0    0  0.23263399913E+01 -0.82117901574E+00  0.50860739584E+01  0.59255438604E+01  0.17770000000E+01 0. -1.
         15    1    1    2    0    0  0.23032285408E+01 -0.20408335566E+01 -0.10959065303E+01  0.37186830249E+01  0.17770000000E+01 0.  1.
</event>
<event>
 6    1  0.1226227E-002  0.1844981E+03  0.7546771E-02  0.1066875E+00
        -11   -1    0    0    0    0  0.00000000000E+00  0.00000000000E+00  0.18250000000E+03  0.18250000000E+03  0.00000000000E+00 0. -1.
         11   -1    0    0    0    0 -0.00000000000E+00 -0.00000000000E+00 -0.18250000000E+03  0.18250000000E+03  0.00000000000E+00 0.  1.
        -11    1    1    2    0    0  0.60406910048E+01 -0.28389607668E+01  0.11687624624E+03  0.11706667580E+03  0.00000000000E+00 0. -1.
         11    1    1    2    0    0  0.51519288031E+01 -0.26439491248E+01 -0.18040897473E+03  0.18050188642E+03  0.00000000000E+00 0.  1.
        -15    1    1    2    0    0  0.49920714057E+00 -0.57153014931E+01  0.12602471221E+02  0.13960440137E+02  0.17770000000E+01 0.  1.
         15    1    1    2    0    0 -0.11691826948E+02  0.11198211385E+02  0.50930257264E+02  0.53470997649E+02  0.17770000000E+01 0. -1.
</event>
<event>
 6    1  0.1226227E-002  0.1833231E+03  0.7546771E-02  0.1067802E+00
        -11   -1    0    0    0    0  0.00000000000E+00  0.00000000000E+00  0.18250000000E+03  0.18250000000E+03  0.00000000000E+00 0. -1.
         11   -1    0    0    0    0 -0.00000000000E+00 -0.00000000000E+00 -0.18250000000E+03  0.18250000000E+03  0.00000000000E+00 0. -1.
        -11    1    1    2    0    0  0.23008083508E+01  0.10349508456E+01  0.18165939606E+03  0.18167691383E+03  0.00000000000E+00 0. -1.
         11    1    1    2    0    0 -0.55161240078E-01  0.45819126603E+01 -0.82127066450E+02  0.82254799313E+02  0.00000000000E+00 0. -1.
        -15    1    1    2    0    0 -0.15187913845E+01  0.18294174179E+01 -0.29659030001E+01  0.41961655073E+01  0.17770000000E+01 0.  1.
         15    1    1    2    0    0 -0.72685572623E+00 -0.74462809237E+01 -0.96566426606E+02  0.96872121353E+02  0.17770000000E+01 0. -1.
</event>
<event>
 6    1  0.1226227E-002  0.1845727E+03  0.7546771E-02  0.1066817E+00
        -11   -1    0    0    0    0  0.00000000000E+00  0.00000000000E+00  0.18250000000E+03  0.18250000000E+03  0.00000000000E+00 0. -1.
         11   -1    0    0    0    0 -0.00000000000E+00 -0.00000000000E+00 -0.18250000000E+03  0.18250000000E+03  0.00000000000E+00 0.  1.
        -11    1    1    2    0    0 -0.61913092193E+00  0.97191858501E+01  0.14806398725E+03  0.14838392843E+03  0.00000000000E+00 0. -1.
         11    1    1    2    0    0  0.93640305243E+00  0.28509074008E+01 -0.18040238590E+03  0.18042734095E+03  0.00000000000E+00 0.  1.
        -15    1    1    2    0    0  0.27863418558E+01 -0.11652486112E+02  0.20749566606E+02  0.24025952153E+02  0.17770000000E+01 0. -1.
         15    1    1    2    0    0 -0.31036139863E+01 -0.91760713903E+00  0.11588832049E+02  0.12162778461E+02  0.17770000000E+01 0.  1.
</event>
<event>
 6    1  0.1226227E-002  0.1904189E+03  0.7546771E-02  0.1062320E+00
        -11   -1    0    0    0    0  0.00000000000E+00  0.00000000000E+00  0.18250000000E+03  0.18250000000E+03  0.00000000000E+00 0. -1.
         11   -1    0    0    0    0 -0.00000000000E+00 -0.00000000000E+00 -0.18250000000E+03  0.18250000000E+03  0.00000000000E+00 0.  1.
        -11    1    1    2    0    0 -0.21194722832E+01 -0.54726399695E+01  0.15942867844E+03  0.15953665867E+03  0.00000000000E+00 0. -1.
         11    1    1    2    0    0  0.53747628677E+01 -0.14845684410E+01 -0.17449199773E+03  0.17458106796E+03  0.00000000000E+00 0.  1.
        -15    1    1    2    0    0  0.21160231379E+01  0.11375952392E+02  0.19280663347E+02  0.22556408288E+02  0.17770000000E+01 0. -1.
         15    1    1    2    0    0 -0.53713137224E+01 -0.44187439820E+01 -0.42173440556E+01  0.83258650822E+01  0.17770000000E+01 0.  1.
</event>
<event>
 6    1  0.1226227E-002  0.1845710E+03  0.7546771E-02  0.1066818E+00
        -11   -1    0    0    0    0  0.00000000000E+00  0.00000000000E+00  0.18250000000E+03  0.18250000000E+03  0.00000000000E+00 0. -1.
         11   -1    0    0    0    0 -0.00000000000E+00 -0.00000000000E+00 -0.18250000000E+03  0.18250000000E+03  0.00000000000E+00 0.  1.
        -11    1    1    2    0    0 -0.15122827108E+01  0.22006459636E+01  0.15029650981E+03  0.15032022719E+03  0.00000000000E+00 0. -1.
         11    1    1    2    0    0  0.14527319615E+01 -0.40513150924E+01 -0.18037761526E+03  0.18042895464E+03  0.00000000000E+00 0.  1.
        -15    1    1    2    0    0 -0.13187259147E+01  0.10925392238E+01  0.31426180573E+02  0.31522931882E+02  0.17770000000E+01 0. -1.
         15    1    1    2    0    0  0.13782766640E+01  0.75812990498E+00 -0.13450751209E+01  0.27278862873E+01  0.17770000000E+01 0.  1.
</event>
<event>
 6    1  0.1226227E-002  0.1825657E+03  0.7546771E-02  0.1068403E+00
        -11   -1    0    0    0    0  0.00000000000E+00  0.00000000000E+00  0.18250000000E+03  0.18250000000E+03  0.00000000000E+00 0.  1.
         11   -1    0    0    0    0 -0.00000000000E+00 -0.00000000000E+00 -0.18250000000E+03  0.18250000000E+03  0.00000000000E+00 0.  1.
        -11    1    1    2    0    0  0.27956191189E+01 -0.17201776662E+01  0.18240480920E+03  0.18243434138E+03  0.00000000000E+00 0.  1.
         11    1    1    2    0    0 -0.13694610753E+01  0.31331911752E-02 -0.46929470196E+02  0.46949447349E+02  0.00000000000E+00 0.  1.
        -15    1    1    2    0    0 -0.87059546800E-01  0.30681774752E+01 -0.71446814762E+02  0.71534791263E+02  0.17770000000E+01 0.  1.
         15    1    1    2    0    0 -0.13390984968E+01 -0.13511330002E+01 -0.64028524237E+02  0.64081420007E+02  0.17770000000E+01 0. -1.
</event>
<event>
 6    1  0.1226227E-002  0.1895101E+03  0.7546771E-02  0.1063008E+00
        -11   -1    0    0    0    0  0.00000000000E+00  0.00000000000E+00  0.18250000000E+03  0.18250000000E+03  0.00000000000E+00 0.  1.
         11   -1    0    0    0    0 -0.00000000000E+00 -0.00000000000E+00 -0.18250000000E+03  0.18250000000E+03  0.00000000000E+00 0. -1.
        -11    1    1    2    0    0 -0.27410885897E+01  0.48490554464E+01  0.14346495450E+03  0.14357304787E+03  0.00000000000E+00 0.  1.
         11    1    1    2    0    0  0.10383462567E+02  0.31635787725E+01 -0.17515389256E+03  0.17548991596E+03  0.00000000000E+00 0. -1.
        -15    1    1    2    0    0 -0.12982751364E+02 -0.37886632587E+01  0.16944741576E+00  0.13641563096E+02  0.17770000000E+01 0.  1.
         15    1    1    2    0    0  0.53403773864E+01 -0.42239709602E+01  0.31519490647E+02  0.32295473072E+02  0.17770000000E+01 0. -1.
</event>
<event>
 6    1  0.1226227E-002  0.1934574E+03  0.7546771E-02  0.1060053E+00
        -11   -1    0    0    0    0  0.00000000000E+00  0.00000000000E+00  0.18250000000E+03  0.18250000000E+03  0.00000000000E+00 0. -1.
         11   -1    0    0    0    0 -0.00000000000E+00 -0.00000000000E+00 -0.18250000000E+03  0.18250000000E+03  0.00000000000E+00 0. -1.
        -11    1    1    2    0    0 -0.21206556327E+01  0.70575553685E+01  0.17138424591E+03  0.17154260699E+03  0.00000000000E+00 0. -1.
         11    1    1    2    0    0 -0.12039872079E+02 -0.13426063562E+02 -0.13933656721E+03  0.14049874257E+03  0.00000000000E+00 0. -1.
        -15    1    1    2    0    0  0.93974394348E+01  0.18937462447E+02 -0.33148028710E+02  0.39355925707E+02  0.17770000000E+01 0. -1.
         15    1    1    2    0    0  0.47630882765E+01 -0.12568954253E+02  0.11003500124E+01  0.13602724730E+02  0.17770000000E+01 0.  1.
</event>
<event>
 6    1  0.1226227E-002  0.2005281E+03  0.7546771E-02  0.1054946E+00
        -11   -1    0    0    0    0  0.00000000000E+00  0.00000000000E+00  0.18250000000E+03  0.18250000000E+03  0.00000000000E+00 0.  1.
         11   -1    0    0    0    0 -0.00000000000E+00 -0.00000000000E+00 -0.18250000000E+03  0.18250000000E+03  0.00000000000E+00 0. -1.
        -11    1    1    2    0    0  0.11572112294E+02 -0.71173123196E+01  0.96643131260E+02  0.97593364207E+02  0.00000000000E+00 0.  1.
         11    1    1    2    0    0  0.21280213605E+01  0.13028098659E+02 -0.16394129193E+03  0.16447190347E+03  0.00000000000E+00 0. -1.
        -15    1    1    2    0    0 -0.20229731303E+02 -0.74705935722E+01  0.82995519739E+02  0.85769842151E+02  0.17770000000E+01 0.  1.
         15    1    1    2    0    0  0.65295976482E+01  0.15598072331E+01 -0.15697359064E+02  0.17164890172E+02  0.17770000000E+01 0. -1.
</event>
<event>
 6    1  0.1226227E-002  0.1830619E+03  0.7546771E-02  0.1068008E+00
        -11   -1    0    0    0    0  0.00000000000E+00  0.00000000000E+00  0.18250000000E+03  0.18250000000E+03  0.00000000000E+00 0. -1.
         11   -1    0    0    0    0 -0.00000000000E+00 -0.00000000000E+00 -0.18250000000E+03  0.18250000000E+03  0.00000000000E+00 0.  1.
        -11    1    1    2    0    0 -0.19285517550E+01 -0.82494821206E+00  0.12176245117E+03  0.12178051719E+03  0.00000000000E+00 0. -1.
         11    1    1    2    0    0  0.43832578674E+01 -0.15493974009E+01 -0.18187865463E+03  0.18193806252E+03  0.00000000000E+00 0.  1.
        -15    1    1    2    0    0  0.36847580883E+00  0.29324953839E+01  0.50718093776E+01  0.61332114720E+01  0.17770000000E+01 0. -1.
         15    1    1    2    0    0 -0.28231819212E+01 -0.55814977094E+00  0.55044394082E+02  0.55148208821E+02  0.17770000000E+01 0. -1.
</event>
<event>
 6    1  0.1226227E-002  0.1945304E+03  0.7546771E-02  0.1059263E+00
        -11   -1    0    0    0    0  0.00000000000E+00  0.00000000000E+00  0.18250000000E+03  0.18250000000E+03  0.00000000000E+00 0.  1.
         11   -1    0    0    0    0 -0.00000000000E+00 -0.00000000000E+00 -0.18250000000E+03  0.18250000000E+03  0.00000000000E+00 0.  1.
        -11    1    1    2    0    0  0.28084409666E+01  0.14365770207E+01  0.17044045185E+03  0.17046964164E+03  0.00000000000E+00 0.  1.
         11    1    1    2    0    0 -0.22828293049E+01  0.70784559408E+01 -0.15174093535E+03  0.15192309669E+03  0.00000000000E+00 0.  1.
        -15    1    1    2    0    0  0.16433624980E+01 -0.33088769384E+01 -0.29772955780E+02  0.30053883805E+02  0.17770000000E+01 0. -1.
         15    1    1    2    0    0 -0.21689741596E+01 -0.52061560232E+01  0.11073439276E+02  0.12553377866E+02  0.17770000000E+01 0.  1.
</event>
<event>
 6    1  0.1226227E-002  0.1865411E+03  0.7546771E-02  0.1065283E+00
        -11   -1    0    0    0    0  0.00000000000E+00  0.00000000000E+00  0.18250000000E+03  0.18250000000E+03  0.00000000000E+00 0.  1.
         11   -1    0    0    0    0 -0.00000000000E+00 -0.00000000000E+00 -0.18250000000E+03  0.18250000000E+03  0.00000000000E+00 0. -1.
        -11    1    1    2    0    0  0.96353807497E+00  0.70921335154E+01  0.17831530519E+03  0.17845888835E+03  0.00000000000E+00 0.  1.
         11    1    1    2    0    0 -0.55878250985E+01 -0.32345087234E+01 -0.57095645744E+02  0.57459538799E+02  0.00000000000E+00 0. -1.
        -15    1    1    2    0    0 -0.31772808820E+01 -0.51216106344E+01  0.11974922745E+01  0.63966964944E+01  0.17770000000E+01 0. -1.
         15    1    1    2    0    0  0.78015679055E+01  0.12639858424E+01 -0.12241715173E+03  0.12268487636E+03  0.17770000000E+01 0. -1.
</event>
<event>
 6    1  0.1226227E-002  0.1861480E+03  0.7546771E-02  0.1065588E+00
        -11   -1    0    0    0    0  0.00000000000E+00  0.00000000000E+00  0.18250000000E+03  0.18250000000E+03  0.00000000000E+00 0. -1.
         11   -1    0    0    0    0 -0.00000000000E+00 -0.00000000000E+00 -0.18250000000E+03  0.18250000000E+03  0.00000000000E+00 0. -1.
        -11    1    1    2    0    0  0.13188932637E+01  0.28151623887E+01  0.17882496132E+03  0.17885198185E+03  0.00000000000E+00 0. -1.
         11    1    1    2    0    0 -0.13324360965E+01  0.23502336328E+01 -0.16315109810E+03  0.16317346535E+03  0.00000000000E+00 0. -1.
        -15    1    1    2    0    0  0.26018349505E+01  0.27608737222E+01  0.94680990310E+00  0.42948977651E+01  0.17770000000E+01 0.  1.
         15    1    1    2    0    0 -0.25882921177E+01 -0.79262697438E+01 -0.16620673125E+02  0.18679655036E+02  0.17770000000E+01 0. -1.
</event>
<event>
 6    1  0.1226227E-002  0.1828007E+03  0.7546771E-02  0.1068216E+00
        -11   -1    0    0    0    0  0.00000000000E+00  0.00000000000E+00  0.18250000000E+03  0.18250000000E+03  0.00000000000E+00 0. -1.
         11   -1    0    0    0    0 -0.00000000000E+00 -0.00000000000E+00 -0.18250000000E+03  0.18250000000E+03  0.00000000000E+00 0.  1.
        -11    1    1    2    0    0  0.25746639323E+01  0.11593943538E+01  0.12736878804E+03  0.12740008342E+03  0.00000000000E+00 0. -1.
         11    1    1    2    0    0  0.23830750829E+01  0.34384214425E+01 -0.18215126584E+03  0.18219930142E+03  0.00000000000E+00 0.  1.
        -15    1    1    2    0    0 -0.14755625035E+01 -0.22125214108E+01  0.32199226260E+02  0.32357695166E+02  0.17770000000E+01 0.  1.
         15    1    1    2    0    0 -0.34821765117E+01 -0.23852943855E+01  0.22583251547E+02  0.23042919998E+02  0.17770000000E+01 0. -1.
</event>
<event>
 6    1  0.1226227E-002  0.1826403E+03  0.7546771E-02  0.1068343E+00
        -11   -1    0    0    0    0  0.00000000000E+00  0.00000000000E+00  0.18250000000E+03  0.18250000000E+03  0.00000000000E+00 0.  1.
         11   -1    0    0    0    0 -0.00000000000E+00 -0.00000000000E+00 -0.18250000000E+03  0.18250000000E+03  0.00000000000E+00 0. -1.
        -11    1    1    2    0    0  0.52559072990E-01  0.61859521343E+00  0.60773050571E+01  0.61089327425E+01  0.00000000000E+00 0.  1.
         11    1    1    2    0    0 -0.32687123693E-01  0.30993796665E+01 -0.18233332328E+03  0.18235966660E+03  0.00000000000E+00 0. -1.
        -15    1    1    2    0    0 -0.24814564331E+01 -0.14995210720E+01  0.14640584434E+03  0.14644533170E+03  0.17770000000E+01 0.  1.
         15    1    1    2    0    0  0.24615844838E+01 -0.22184538079E+01  0.29850173885E+02  0.30086068959E+02  0.17770000000E+01 0. -1.
</event>
<event>
 6    1  0.1226227E-002  0.1843786E+03  0.7546771E-02  0.1066969E+00
        -11   -1    0    0    0    0  0.00000000000E+00  0.00000000000E+00  0.18250000000E+03  0.18250000000E+03  0.00000000000E+00 0.  1.
         11   -1    0    0    0    0 -0.00000000000E+00 -0.00000000000E+00 -0.18250000000E+03  0.18250000000E+03  0.00000000000E+00 0.  1.
        -11    1    1    2    0    0 -0.16581345180E+02  0.39861459932E+01  0.17981450317E+03  0.18062138831E+03  0.00000000000E+00 0.  1.
         11    1    1    2    0    0  0.26880669435E+01 -0.21778178236E+01 -0.57405502008E+02  0.57509653582E+02  0.00000000000E+00 0.  1.
        -15    1    1    2    0    0  0.42023447526E+01 -0.90120989086E+00 -0.11337669398E+03  0.11347204214E+03  0.17770000000E+01 0.  1.
         15    1    1    2    0    0  0.96909334834E+01 -0.90711827881E+00 -0.90323071785E+01  0.13396915963E+02  0.17770000000E+01 0. -1.
</event>
<event>
 6    1  0.1226227E-002  0.1849918E+03  0.7546771E-02  0.1066488E+00
        -11   -1    0    0    0    0  0.00000000000E+00  0.00000000000E+00  0.18250000000E+03  0.18250000000E+03  0.00000000000E+00 0.  1.
         11   -1    0    0    0    0 -0.00000000000E+00 -0.00000000000E+00 -0.18250000000E+03  0.18250000000E+03  0.00000000000E+00 0.  1.
        -11    1    1    2    0    0  0.24672269317E+01 -0.37223127728E+00  0.17571298131E+03  0.17573069614E+03  0.00000000000E+00 0.  1.
         11    1    1    2    0    0  0.56605899513E+00  0.32313999438E+01 -0.17997828416E+03  0.18000818075E+03  0.00000000000E+00 0.  1.
        -15    1    1    2    0    0 -0.11387284878E+01 -0.68974800224E-01  0.49558276505E+01  0.53869673095E+01  0.17770000000E+01 0. -1.
         15    1    1    2    0    0 -0.18945574390E+01 -0.27901938663E+01 -0.69052479697E+00  0.38741558044E+01  0.17770000000E+01 0.  1.
</event>
<event>
 6    1  0.1226227E-002  0.1887594E+03  0.7546771E-02  0.1063579E+00
        -11   -1    0    0    0    0  0.00000000000E+00  0.00000000000E+00  0.18250000000E+03  0.18250000000E+03  0.00000000000E+00 0.  1.
         11   -1    0    0    0    0 -0.00000000000E+00 -0.00000000000E+00 -0.18250000000E+03  0.18250000000E+03  0.00000000000E+00 0. -1.
        -11    1    1    2    0    0  0.25515441131E+01 -0.32900303723E+01  0.17619136974E+03  0.17624055563E+03  0.00000000000E+00 0.  1.
         11    1    1    2    0    0 -0.32068921203E+01  0.12202376204E+01 -0.16558046020E+03  0.16561600749E+03  0.00000000000E+00 0. -1.
        -15    1    1    2    0    0  0.84770689390E+01  0.43172114568E+01 -0.11188835157E+02  0.14793470645E+02  0.17770000000E+01 0. -1.
         15    1    1    2    0    0 -0.78217209319E+01 -0.22474187049E+01  0.57792561008E+00  0.83499662384E+01  0.17770000000E+01 0.  1.
</event>
<event>
 6    1  0.1226227E-002  0.1874662E+03  0.7546771E-02  0.1064569E+00
        -11   -1    0    0    0    0  0.00000000000E+00  0.00000000000E+00  0.18250000000E+03  0.18250000000E+03  0.00000000000E+00 0.  1.
         11   -1    0    0    0    0 -0.00000000000E+00 -0.00000000000E+00 -0.18250000000E+03  0.18250000000E+03  0.00000000000E+00 0.  1.
        -11    1    1    2    0    0  0.21008467084E+01 -0.16077673402E+01  0.17751407267E+03  0.17753378402E+03  0.00000000000E+00 0.  1.
         11    1    1    2    0    0  0.68454900703E+01  0.74716142153E+00 -0.16553887165E+03  0.16568203587E+03  0.00000000000E+00 0.  1.
        -15    1    1    2    0    0 -0.76609441203E+00  0.36602907199E+01  0.24952189144E+01  0.48340950791E+01  0.17770000000E+01 0. -1.
         15    1    1    2    0    0 -0.81802423667E+01 -0.27996848012E+01 -0.14470419940E+02  0.16950085026E+02  0.17770000000E+01 0.  1.
</event>
<event>
 6    1  0.1226227E-002  0.1839590E+03  0.7546771E-02  0.1067299E+00
        -11   -1    0    0    0    0  0.00000000000E+00  0.00000000000E+00  0.18250000000E+03  0.18250000000E+03  0.00000000000E+00 0. -1.
         11   -1    0    0    0    0 -0.00000000000E+00 -0.00000000000E+00 -0.18250000000E+03  0.18250000000E+03  0.00000000000E+00 0. -1.
        -11    1    1    2    0    0 -0.26161395059E+01  0.35273517098E+01  0.18098774303E+03  0.18104101614E+03  0.00000000000E+00 0. -1.
         11    1    1    2    0    0  0.37474559149E+01  0.64684706003E+00 -0.16146726354E+03  0.16151203990E+03  0.00000000000E+00 0. -1.
        -15    1    1    2    0    0 -0.27029825615E+01  0.23460667914E+01 -0.89649302224E+01  0.98151845123E+01  0.17770000000E+01 0.  1.
         15    1    1    2    0    0  0.15716661525E+01 -0.65202655613E+01 -0.10555549265E+02  0.12631759449E+02  0.17770000000E+01 0. -1.
</event>
<event>
 6    1  0.1226227E-002  0.1829421E+03  0.7546771E-02  0.1068103E+00
        -11   -1    0    0    0    0  0.00000000000E+00  0.00000000000E+00  0.18250000000E+03  0.18250000000E+03  0.00000000000E+00 0.  1.
         11   -1    0    0    0    0 -0.00000000000E+00 -0.00000000000E+00 -0.18250000000E+03  0.18250000000E+03  0.00000000000E+00 0. -1.
        -11    1    1    2    0    0  0.15324133411E+01 -0.20689247323E+01  0.18203972988E+03  0.18205793582E+03  0.00000000000E+00 0.  1.
         11    1    1    2    0    0 -0.20066517141E+01 -0.30191525458E+01 -0.13408058880E+03  0.13412958744E+03  0.00000000000E+00 0. -1.
        -15    1    1    2    0    0  0.18425638244E+01  0.10783996365E+01 -0.61083551601E+01  0.67102696656E+01  0.17770000000E+01 0.  1.
         15    1    1    2    0    0 -0.13683254514E+01  0.40096776416E+01 -0.41850785920E+02  0.42102207074E+02  0.17770000000E+01 0.  1.
</event>
<event>
 6    1  0.1226227E-002  0.1959405E+03  0.7546771E-02  0.1058233E+00
        -11   -1    0    0    0    0  0.00000000000E+00  0.00000000000E+00  0.18250000000E+03  0.18250000000E+03  0.00000000000E+00 0.  1.
         11   -1    0    0    0    0 -0.00000000000E+00 -0.00000000000E+00 -0.18250000000E+03  0.18250000000E+03  0.00000000000E+00 0.  1.
        -11    1    1    2    0    0  0.37388547833E+00 -0.65793793048E+01  0.16893098695E+03  0.16905947584E+03  0.00000000000E+00 0.  1.
         11    1    1    2    0    0  0.33593172353E+01 -0.10000584831E+01 -0.14725851075E+03  0.14730021765E+03  0.00000000000E+00 0.  1.
        -15    1    1    2    0    0  0.12647240251E+01  0.56665453559E+01 -0.34288247410E+02  0.34821701603E+02  0.17770000000E+01 0.  1.
         15    1    1    2    0    0 -0.49979267387E+01  0.19128924319E+01  0.12615771217E+02  0.13818604906E+02  0.17770000000E+01 0. -1.
</event>
<event>
 6    1  0.1226227E-002  0.1971614E+03  0.7546771E-02  0.1057349E+00
        -11   -1    0    0    0    0  0.00000000000E+00  0.00000000000E+00  0.18250000000E+03  0.18250000000E+03  0.00000000000E+00 0.  1.
         11   -1    0    0    0    0 -0.00000000000E+00 -0.00000000000E+00 -0.18250000000E+03  0.18250000000E+03  0.00000000000E+00 0. -1.
        -11    1    1    2    0    0  0.28095862599E+01 -0.11396166101E+01  0.16781122980E+03  0.16783861697E+03  0.00000000000E+00 0.  1.
         11    1    1    2    0    0  0.37420145264E+01 -0.37708711307E+01 -0.15212304457E+03  0.15221577720E+03  0.00000000000E+00 0. -1.
        -15    1    1    2    0    0  0.10882606024E+01 -0.15094904418E+01  0.13657982546E+02  0.13898240492E+02  0.17770000000E+01 0. -1.
         15    1    1    2    0    0 -0.76398613886E+01  0.64199781827E+01 -0.29346167777E+02  0.31047365333E+02  0.17770000000E+01 0.  1.
</event>
<event>
 6    1  0.1226227E-002  0.1836938E+03  0.7546771E-02  0.1067508E+00
        -11   -1    0    0    0    0  0.00000000000E+00  0.00000000000E+00  0.18250000000E+03  0.18250000000E+03  0.00000000000E+00 0. -1.
         11   -1    0    0    0    0 -0.00000000000E+00 -0.00000000000E+00 -0.18250000000E+03  0.18250000000E+03  0.00000000000E+00 0. -1.
        -11    1    1    2    0    0  0.10251723461E+01  0.47755955161E+00  0.21460268423E+02  0.21490047982E+02  0.00000000000E+00 0. -1.
         11    1    1    2    0    0 -0.96085196741E+01  0.10591240977E+02 -0.18074134566E+03  0.18130618320E+03  0.00000000000E+00 0. -1.
        -15    1    1    2    0    0  0.79788543036E+01 -0.93136816529E+01  0.25044977444E+02  0.27943074385E+02  0.17770000000E+01 0.  1.
         15    1    1    2    0    0  0.60449302438E+00 -0.17551188752E+01  0.13423609979E+03  0.13426069443E+03  0.17770000000E+01 0. -1.
</event>
<event>
 6    1  0.1226227E-002  0.1833014E+03  0.7546771E-02  0.1067819E+00
        -11   -1    0    0    0    0  0.00000000000E+00  0.00000000000E+00  0.18250000000E+03  0.18250000000E+03  0.00000000000E+00 0. -1.
         11   -1    0    0    0    0 -0.00000000000E+00 -0.00000000000E+00 -0.18250000000E+03  0.18250000000E+03  0.00000000000E+00 0.  1.
        -11    1    1    2    0    0  0.23195402402E+00  0.74874718722E+00  0.35782126539E+02  0.35790711151E+02  0.00000000000E+00 0. -1.
         11    1    1    2    0    0  0.65607453058E+00 -0.28086186346E+01 -0.18167566579E+03  0.18169855892E+03  0.00000000000E+00 0.  1.
        -15    1    1    2    0    0 -0.18279137478E+01  0.39152179382E+01  0.14423706106E+03  0.14431270808E+03  0.17770000000E+01 0. -1.
         15    1    1    2    0    0  0.93988519321E+00 -0.18553464908E+01  0.16564781920E+01  0.31980218539E+01  0.17770000000E+01 0.  1.
</event>
<event>
 6    1  0.1226227E-002  0.1846183E+03  0.7546771E-02  0.1066781E+00
        -11   -1    0    0    0    0  0.00000000000E+00  0.00000000000E+00  0.18250000000E+03  0.18250000000E+03  0.00000000000E+00 0.  1.
         11   -1    0    0    0    0 -0.00000000000E+00 -0.00000000000E+00 -0.18250000000E+03  0.18250000000E+03  0.00000000000E+00 0.  1.
        -11    1    1    2    0    0  0.25539109062E+01  0.72100432311E+00  0.78425232897E+02  0.78470118281E+02  0.00000000000E+00 0.  1.
         11    1    1    2    0    0 -0.60943925056E+01 -0.45684145949E+01 -0.18022083290E+03  0.18038170817E+03  0.00000000000E+00 0.  1.
        -15    1    1    2    0    0 -0.12994776697E+02  0.18732123698E+01  0.40952098819E+02  0.43041901360E+02  0.17770000000E+01 0.  1.
         15    1    1    2    0    0  0.16535258296E+02  0.19741979019E+01  0.60843501183E+02  0.63106272188E+02  0.17770000000E+01 0. -1.
</event>
<event>
 6    1  0.1824436E-002  0.1869124E+03  0.7546771E-02  0.1064996E+00
        -11   -1    0    0    0    0  0.00000000000E+00  0.00000000000E+00  0.18250000000E+03  0.18250000000E+03  0.00000000000E+00 0. -1.
         11   -1    0    0    0    0 -0.00000000000E+00 -0.00000000000E+00 -0.18250000000E+03  0.18250000000E+03  0.00000000000E+00 0. -1.
        -11    1    1    2    0    0 -0.66808196582E+01  0.29302744612E+01  0.17793809696E+03  0.17808758016E+03  0.00000000000E+00 0. -1.
         11    1    1    2    0    0 -0.14432823954E+01 -0.18903792904E+01 -0.13525681290E+03  0.13527772187E+03  0.00000000000E+00 0. -1.
        -15    1    1    2    0    0  0.70824857947E+01 -0.84344770152E+00  0.14186854803E+01  0.74862144338E+01  0.17770000000E+01 0. -1.
         15    1    1    2    0    0  0.10416162589E+01 -0.19644746919E+00 -0.44099969536E+02  0.44148483531E+02  0.17770000000E+01 0. -1.
</event>
<event>
 6    1  0.1226227E-002  0.1838250E+03  0.7546771E-02  0.1067405E+00
        -11   -1    0    0    0    0  0.00000000000E+00  0.00000000000E+00  0.18250000000E+03  0.18250000000E+03  0.00000000000E+00 0.  1.
         11   -1    0    0    0    0 -0.00000000000E+00 -0.00000000000E+00 -0.18250000000E+03  0.18250000000E+03  0.00000000000E+00 0. -1.
        -11    1    1    2    0    0 -0.54770070416E+01 -0.14515131681E+01  0.15822119409E+03  0.15832261606E+03  0.00000000000E+00 0.  1.
         11    1    1    2    0    0 -0.95797820687E+00  0.62533138760E+01 -0.18106446625E+03  0.18117495024E+03  0.00000000000E+00 0. -1.
        -15    1    1    2    0    0  0.27873996092E+01 -0.29850579372E+01  0.35274124722E+01  0.56815961858E+01  0.17770000000E+01 0.  1.
         15    1    1    2    0    0  0.36475856393E+01 -0.18167427707E+01  0.19315859686E+02  0.19820837513E+02  0.17770000000E+01 0. -1.
</event>
<event>
 6    1  0.1226227E-002  0.2191467E+03  0.7546771E-02  0.1042530E+00
        -11   -1    0    0    0    0  0.00000000000E+00  0.00000000000E+00  0.18250000000E+03  0.18250000000E+03  0.00000000000E+00 0.  1.
         11   -1    0    0    0    0 -0.00000000000E+00 -0.00000000000E+00 -0.18250000000E+03  0.18250000000E+03  0.00000000000E+00 0.  1.
        -11    1    1    2    0    0 -0.24569528666E+02  0.17389415688E+02  0.14271349233E+03  0.14585333185E+03  0.00000000000E+00 0.  1.
         11    1    1    2    0    0 -0.11286663713E+02 -0.70414011061E+00 -0.11242938770E+03  0.11299668938E+03  0.00000000000E+00 0.  1.
        -15    1    1    2    0    0  0.48724187860E+02 -0.88083619298E+01  0.20143212720E+02  0.53484020699E+02  0.17770000000E+01 0. -1.
         15    1    1    2    0    0 -0.12867995480E+02 -0.78769136475E+01 -0.50427317349E+02  0.52665958078E+02  0.17770000000E+01 0.  1.
</event>
<event>
 6    1  0.1226227E-002  0.1831456E+03  0.7546771E-02  0.1067942E+00
        -11   -1    0    0    0    0  0.00000000000E+00  0.00000000000E+00  0.18250000000E+03  0.18250000000E+03  0.00000000000E+00 0. -1.
         11   -1    0    0    0    0 -0.00000000000E+00 -0.00000000000E+00 -0.18250000000E+03  0.18250000000E+03  0.00000000000E+00 0. -1.
        -11    1    1    2    0    0  0.98906990907E+00  0.12135378475E+01  0.57795407269E+02  0.57816606912E+02  0.00000000000E+00 0. -1.
         11    1    1    2    0    0  0.28506236275E+01  0.63344690477E+00 -0.18183095390E+03  0.18185440085E+03  0.00000000000E+00 0. -1.
        -15    1    1    2    0    0 -0.12762426362E+01  0.50722888947E+01  0.99339507008E+02  0.99492976091E+02  0.17770000000E+01 0. -1.
         15    1    1    2    0    0 -0.25634509004E+01 -0.69192736470E+01  0.24696039626E+02  0.25836016150E+02  0.17770000000E+01 0.  1.
</event>
<event>
 6    1  0.1226227E-002  0.1842127E+03  0.7546771E-02  0.1067100E+00
        -11   -1    0    0    0    0  0.00000000000E+00  0.00000000000E+00  0.18250000000E+03  0.18250000000E+03  0.00000000000E+00 0.  1.
         11   -1    0    0    0    0 -0.00000000000E+00 -0.00000000000E+00 -0.18250000000E+03  0.18250000000E+03  0.00000000000E+00 0.  1.
        -11    1    1    2    0    0 -0.15955491970E+01  0.21348956394E+01  0.15998942273E+03  0.16001162127E+03  0.00000000000E+00 0.  1.
         11    1    1    2    0    0  0.21659520937E+01 -0.16172305078E+01 -0.18076706546E+03  0.18078727483E+03  0.00000000000E+00 0.  1.
        -15    1    1    2    0    0  0.52753101170E+01 -0.15196626950E+01  0.13266543729E+02  0.14467106934E+02  0.17770000000E+01 0.  1.
         15    1    1    2    0    0 -0.58457130137E+01  0.10019975634E+01  0.75110990062E+01  0.97339969713E+01  0.17770000000E+01 0. -1.
</event>
<event>
 6    1  0.1226227E-002  0.1848184E+03  0.7546771E-02  0.1066624E+00
        -11   -1    0    0    0    0  0.00000000000E+00  0.00000000000E+00  0.18250000000E+03  0.18250000000E+03  0.00000000000E+00 0. -1.
         11   -1    0    0    0    0 -0.00000000000E+00 -0.00000000000E+00 -0.18250000000E+03  0.18250000000E+03  0.00000000000E+00 0.  1.
        -11    1    1    2    0    0  0.31226386193E+01 -0.17823359612E+01  0.16840512562E+03  0.16844350367E+03  0.00000000000E+00 0. -1.
         11    1    1    2    0    0  0.17200546858E+01 -0.26157897575E+01 -0.18015439134E+03  0.18018159080E+03  0.00000000000E+00 0.  1.
        -15    1    1    2    0    0 -0.49267119623E+01  0.66302351170E+01  0.96835629902E+01  0.12851522464E+02  0.17770000000E+01 0. -1.
         15    1    1    2    0    0  0.84018657163E-01 -0.22321093983E+01  0.20657027225E+01  0.35233830672E+01  0.17770000000E+01 0.  1.
</event>
<event>
 6    1  0.1226227E-002  0.1840499E+03  0.7546771E-02  0.1067228E+00
        -11   -1    0    0    0    0  0.00000000000E+00  0.00000000000E+00  0.18250000000E+03  0.18250000000E+03  0.00000000000E+00 0.  1.
         11   -1    0    0    0    0 -0.00000000000E+00 -0.00000000000E+00 -0.18250000000E+03  0.18250000000E+03  0.00000000000E+00 0. -1.
        -11    1    1    2    0    0 -0.43162295694E+01  0.30003178646E+01  0.15808398025E+03  0.15817135189E+03  0.00000000000E+00 0.  1.
         11    1    1    2    0    0  0.28960010236E+01  0.88781871210E+00 -0.18092475819E+03  0.18095011238E+03  0.00000000000E+00 0. -1.
        -15    1    1    2    0    0  0.29929061211E+01 -0.44236228035E+01  0.22758757747E+02  0.23444502745E+02  0.17770000000E+01 0. -1.
         15    1    1    2    0    0 -0.15726775753E+01  0.53548622678E+00  0.82020193409E-01  0.24340329840E+01  0.17770000000E+01 0.  1.
</event>
<event>
 6    1  0.1226227E-002  0.1846512E+03  0.7546771E-02  0.1066755E+00
        -11   -1    0    0    0    0  0.00000000000E+00  0.00000000000E+00  0.18250000000E+03  0.18250000000E+03  0.00000000000E+00 0.  1.
         11   -1    0    0    0    0 -0.00000000000E+00 -0.00000000000E+00 -0.18250000000E+03  0.18250000000E+03  0.00000000000E+00 0. -1.
        -11    1    1    2    0    0  0.40647983138E+01 -0.10404331111E+01  0.18029997574E+03  0.18034879078E+03  0.00000000000E+00 0.  1.
         11    1    1    2    0    0  0.25676216497E+01 -0.58176935750E+00 -0.17369653533E+03  0.17371648604E+03  0.00000000000E+00 0. -1.
        -15    1    1    2    0    0 -0.60101795890E+01  0.11351383624E+01 -0.34873411837E+01  0.72615477225E+01  0.17770000000E+01 0.  1.
         15    1    1    2    0    0 -0.62224037448E+00  0.48706410621E+00 -0.31160992247E+01  0.36731754526E+01  0.17770000000E+01 0.  1.
</event>
<event>
 6    1  0.1226227E-002  0.1921982E+03  0.7546771E-02  0.1060987E+00
        -11   -1    0    0    0    0  0.00000000000E+00  0.00000000000E+00  0.18250000000E+03  0.18250000000E+03  0.00000000000E+00 0.  1.
         11   -1    0    0    0    0 -0.00000000000E+00 -0.00000000000E+00 -0.18250000000E+03  0.18250000000E+03  0.00000000000E+00 0. -1.
        -11    1    1    2    0    0  0.11239358100E+02 -0.10699039361E+02  0.17210361104E+03  0.17280175215E+03  0.00000000000E+00 0.  1.
         11    1    1    2    0    0  0.14610479220E+02  0.85275923091E+00 -0.13579303016E+03  0.13657942869E+03  0.00000000000E+00 0. -1.
        -15    1    1    2    0    0 -0.23311064459E+02  0.19782057653E+02 -0.32173856245E+02  0.44419030672E+02  0.17770000000E+01 0. -1.
         15    1    1    2    0    0 -0.25387728614E+01 -0.99357775221E+01 -0.41367246352E+01  0.11199788494E+02  0.17770000000E+01 0.  1.
</event>
<event>
 6    1  0.1226227E-002  0.1833290E+03  0.7546771E-02  0.1067797E+00
        -11   -1    0    0    0    0  0.00000000000E+00  0.00000000000E+00  0.18250000000E+03  0.18250000000E+03  0.00000000000E+00 0. -1.
         11   -1    0    0    0    0 -0.00000000000E+00 -0.00000000000E+00 -0.18250000000E+03  0.18250000000E+03  0.00000000000E+00 0.  1.
        -11    1    1    2    0    0 -0.17668757202E+01 -0.37634209150E+01  0.12327243695E+03  0.12334252672E+03  0.00000000000E+00 0. -1.
         11    1    1    2    0    0  0.17564499208E+01  0.26225918761E+01 -0.18164359190E+03  0.18167101470E+03  0.00000000000E+00 0.  1.
        -15    1    1    2    0    0 -0.27734251532E-01 -0.14489462033E+01  0.95417273745E+00  0.24836241466E+01  0.17770000000E+01 0.  1.
         15    1    1    2    0    0  0.38160050921E-01  0.25897752422E+01  0.57416982212E+02  0.57502834429E+02  0.17770000000E+01 0. -1.
</event>
<event>
 6    1  0.1471924E-002  0.1836783E+03  0.7546771E-02  0.1067521E+00
        -11   -1    0    0    0    0  0.00000000000E+00  0.00000000000E+00  0.18250000000E+03  0.18250000000E+03  0.00000000000E+00 0.  1.
         11   -1    0    0    0    0 -0.00000000000E+00 -0.00000000000E+00 -0.18250000000E+03  0.18250000000E+03  0.00000000000E+00 0. -1.
        -11    1    1    2    0    0 -0.70569807953E+01 -0.53312960170E+01  0.18110583916E+03  0.18132167182E+03  0.00000000000E+00 0.  1.
         11    1    1    2    0    0  0.12466446378E+01  0.24977924070E+00 -0.81550166737E+02  0.81560077289E+02  0.00000000000E+00 0. -1.
        -15    1    1    2    0    0 -0.16852567346E+00  0.80629872180E+00 -0.89575126819E+02  0.89596537836E+02  0.17770000000E+01 0. -1.
         15    1    1    2    0    0  0.59788618309E+01  0.42752180545E+01 -0.99805456035E+01  0.12521713052E+02  0.17770000000E+01 0.  1.
</event>
<event>
 6    1  0.1226227E-002  0.1899795E+03  0.7546771E-02  0.1062652E+00
        -11   -1    0    0    0    0  0.00000000000E+00  0.00000000000E+00  0.18250000000E+03  0.18250000000E+03  0.00000000000E+00 0.  1.
         11   -1    0    0    0    0 -0.00000000000E+00 -0.00000000000E+00 -0.18250000000E+03  0.18250000000E+03  0.00000000000E+00 0.  1.
        -11    1    1    2    0    0 -0.23462250290E+01  0.25980491663E+01  0.17498549304E+03  0.17502050567E+03  0.00000000000E+00 0.  1.
         11    1    1    2    0    0 -0.22496079316E+01 -0.16643851643E+01 -0.71991566588E+02  0.72045933775E+02  0.00000000000E+00 0.  1.
        -15    1    1    2    0    0  0.93871324045E+01 -0.13194579855E+02 -0.10336927950E+03  0.10464502313E+03  0.17770000000E+01 0.  1.
         15    1    1    2    0    0 -0.47912994439E+01  0.12260915853E+02  0.37535304640E+00  0.13288537422E+02  0.17770000000E+01 0. -1.
</event>
<event>
 6    1  0.1226227E-002  0.1877157E+03  0.7546771E-02  0.1064377E+00
        -11   -1    0    0    0    0  0.00000000000E+00  0.00000000000E+00  0.18250000000E+03  0.18250000000E+03  0.00000000000E+00 0.  1.
         11   -1    0    0    0    0 -0.00000000000E+00 -0.00000000000E+00 -0.18250000000E+03  0.18250000000E+03  0.00000000000E+00 0. -1.
        -11    1    1    2    0    0 -0.24251236860E+01  0.53611707499E+01  0.14708951453E+03  0.14720716240E+03  0.00000000000E+00 0.  1.
         11    1    1    2    0    0 -0.89136474291E+01  0.87958410478E+01 -0.17684150233E+03  0.17728433907E+03  0.00000000000E+00 0. -1.
        -15    1    1    2    0    0  0.24355339681E+01 -0.51659792399E+01  0.26713173660E+02  0.27374633207E+02  0.17770000000E+01 0. -1.
         15    1    1    2    0    0  0.89032371469E+01 -0.89910325579E+01  0.30388141460E+01  0.13133865332E+02  0.17770000000E+01 0. -1.
</event>
<event>
 6    1  0.1226227E-002  0.1825821E+03  0.7546771E-02  0.1068389E+00
        -11   -1    0    0    0    0  0.00000000000E+00  0.00000000000E+00  0.18250000000E+03  0.18250000000E+03  0.00000000000E+00 0.  1.
         11   -1    0    0    0    0 -0.00000000000E+00 -0.00000000000E+00 -0.18250000000E+03  0.18250000000E+03  0.00000000000E+00 0.  1.
        -11    1    1    2    0    0 -0.31224758950E+01  0.57672673238E-01  0.18239114021E+03  0.18241787524E+03  0.00000000000E+00 0.  1.
         11    1    1    2    0    0  0.33725493850E+00 -0.71957886395E+00 -0.46966011404E+02  0.46972734239E+02  0.00000000000E+00 0.  1.
        -15    1    1    2    0    0 -0.28593330945E+00 -0.19463926062E+01 -0.47097619045E+02  0.47172170299E+02  0.17770000000E+01 0. -1.
         15    1    1    2    0    0  0.30711542659E+01  0.26082987969E+01 -0.88327509758E+02  0.88437220220E+02  0.17770000000E+01 0.  1.
</event>
<event>
 6    1  0.1226227E-002  0.1857183E+03  0.7546771E-02  0.1065922E+00
        -11   -1    0    0    0    0  0.00000000000E+00  0.00000000000E+00  0.18250000000E+03  0.18250000000E+03  0.00000000000E+00 0. -1.
         11   -1    0    0    0    0 -0.00000000000E+00 -0.00000000000E+00 -0.18250000000E+03  0.18250000000E+03  0.00000000000E+00 0. -1.
        -11    1    1    2    0    0  0.54320850589E+01  0.19269932091E+01  0.12421392376E+03  0.12434757620E+03  0.00000000000E+00 0. -1.
         11    1    1    2    0    0 -0.21492147264E+01 -0.18326901539E+01 -0.17925947347E+03  0.17928172440E+03  0.00000000000E+00 0. -1.
        -15    1    1    2    0    0  0.84824570665E+01 -0.71112855902E+01  0.13275883910E+02  0.17376112431E+02  0.17770000000E+01 0.  1.
         15    1    1    2    0    0 -0.11765327399E+02  0.70169825349E+01  0.41769665795E+02  0.43994586966E+02  0.17770000000E+01 0. -1.
</event>
<event>
 6    1  0.1226227E-002  0.1830540E+03  0.7546771E-02  0.1068015E+00
        -11   -1    0    0    0    0  0.00000000000E+00  0.00000000000E+00  0.18250000000E+03  0.18250000000E+03  0.00000000000E+00 0. -1.
         11   -1    0    0    0    0 -0.00000000000E+00 -0.00000000000E+00 -0.18250000000E+03  0.18250000000E+03  0.00000000000E+00 0.  1.
        -11    1    1    2    0    0  0.32213483469E+01  0.17686989075E+01  0.18190889947E+03  0.18194601696E+03  0.00000000000E+00 0. -1.
         11    1    1    2    0    0 -0.26391200673E+01 -0.10018177859E+01 -0.12172460263E+03  0.12175733028E+03  0.00000000000E+00 0.  1.
        -15    1    1    2    0    0 -0.31476674469E+01 -0.22056250025E+01 -0.84814749416E+01  0.94797541209E+01  0.17770000000E+01 0. -1.
         15    1    1    2    0    0  0.25654391673E+01  0.14387438809E+01 -0.51702821905E+02  0.51816898633E+02  0.17770000000E+01 0.  1.
</event>
<event>
 6    1  0.1226227E-002  0.1836156E+03  0.7546771E-02  0.1067570E+00
        -11   -1    0    0    0    0  0.00000000000E+00  0.00000000000E+00  0.18250000000E+03  0.18250000000E+03  0.00000000000E+00 0. -1.
         11   -1    0    0    0    0 -0.00000000000E+00 -0.00000000000E+00 -0.18250000000E+03  0.18250000000E+03  0.00000000000E+00 0.  1.
        -11    1    1    2    0    0 -0.69869389556E+01 -0.89089206382E+01  0.18103070259E+03  0.18138440248E+03  0.00000000000E+00 0. -1.
         11    1    1    2    0    0  0.24365281687E+01  0.18479828762E+01 -0.12509432143E+03  0.12513169449E+03  0.00000000000E+00 0.  1.
        -15    1    1    2    0    0 -0.33830736757E+01  0.20603400917E+01 -0.48321847771E+01  0.64959931888E+01  0.17770000000E+01 0. -1.
         15    1    1    2    0    0  0.79334844626E+01  0.50005976703E+01 -0.51104196384E+02  0.51987909842E+02  0.17770000000E+01 0.  1.
</event>
<event>
 6    1  0.1226227E-002  0.2139458E+03  0.7546771E-02  0.1045859E+00
        -11   -1    0    0    0    0  0.00000000000E+00  0.00000000000E+00  0.18250000000E+03  0.18250000000E+03  0.00000000000E+00 0. -1.
         11   -1    0    0    0    0 -0.00000000000E+00 -0.00000000000E+00 -0.18250000000E+03  0.18250000000E+03  0.00000000000E+00 0.  1.
        -11    1    1    2    0    0 -0.16446382557E+01 -0.10472189023E+02  0.15068180158E+03  0.15105421842E+03  0.00000000000E+00 0. -1.
         11    1    1    2    0    0  0.72900429665E+01 -0.12007626299E+02 -0.60806922850E+02  0.62408410349E+02  0.00000000000E+00 0.  1.
        -15    1    1    2    0    0  0.18144290098E+00  0.80205084493E+01  0.29762265990E+02  0.30875745872E+02  0.17770000000E+01 0.  1.
         15    1    1    2    0    0 -0.58268476118E+01  0.14459306873E+02 -0.11963714472E+03  0.12066162535E+03  0.17770000000E+01 0. -1.
</event>
<event>
 6    1  0.1226227E-002  0.1886336E+03  0.7546771E-02  0.1063675E+00
        -11   -1    0    0    0    0  0.00000000000E+00  0.00000000000E+00  0.18250000000E+03  0.18250000000E+03  0.00000000000E+00 0. -1.
         11   -1    0    0    0    0 -0.00000000000E+00 -0.00000000000E+00 -0.18250000000E+03  0.18250000000E+03  0.00000000000E+00 0. -1.
        -11    1    1    2    0    0 -0.51280264481E+01  0.12976349642E+02  0.12196245771E+03  0.12275798709E+03  0.00000000000E+00 0. -1.
         11    1    1    2    0    0  0.19432836317E+01  0.87414002978E+01 -0.17613896654E+03  0.17636644796E+03  0.00000000000E+00 0. -1.
        -15    1    1    2    0    0  0.34064659531E-01 -0.89598510678E+01  0.51555228417E+02  0.52358183674E+02  0.17770000000E+01 0. -1.
         15    1    1    2    0    0  0.31506781569E+01 -0.12757898872E+02  0.26212804202E+01  0.13517381274E+02  0.17770000000E+01 0.  1.
</event>
<event>
 6    1  0.1226227E-002  0.1889256E+03  0.7546771E-02  0.1063452E+00
        -11   -1    0    0    0    0  0.00000000000E+00  0.00000000000E+00  0.18250000000E+03  0.18250000000E+03  0.00000000000E+00 0.  1.
         11   -1    0    0    0    0 -0.00000000000E+00 -0.00000000000E+00 -0.18250000000E+03  0.18250000000E+03  0.00000000000E+00 0. -1.
        -11    1    1    2    0    0 -0.11769703182E+01  0.28374953399E+01  0.17359292528E+03  0.17362010352E+03  0.00000000000E+00 0.  1.
         11    1    1    2    0    0  0.53302688034E-01 -0.24679486430E+01 -0.17605707203E+03  0.17607437696E+03  0.00000000000E+00 0. -1.
        -15    1    1    2    0    0  0.62193465521E+01 -0.29361709240E+01 -0.25063733674E+01  0.75326627222E+01  0.17770000000E+01 0.  1.
         15    1    1    2    0    0 -0.50956789220E+01  0.25666242271E+01  0.49705201180E+01  0.77728568006E+01  0.17770000000E+01 0. -1.
</event>
<event>
 6    1  0.1226227E-002  0.1875761E+03  0.7546771E-02  0.1064485E+00
        -11   -1    0    0    0    0  0.00000000000E+00  0.00000000000E+00  0.18250000000E+03  0.18250000000E+03  0.00000000000E+00 0.  1.
         11   -1    0    0    0    0 -0.00000000000E+00 -0.00000000000E+00 -0.18250000000E+03  0.18250000000E+03  0.00000000000E+00 0.  1.
        -11    1    1    2    0    0 -0.24045775063E+01  0.25408579949E+01  0.17684668680E+03  0.17688128387E+03  0.00000000000E+00 0.  1.
         11    1    1    2    0    0  0.30349733445E+01 -0.21083809079E+01 -0.17738538467E+03  0.17742387390E+03  0.00000000000E+00 0.  1.
        -15    1    1    2    0    0 -0.26404028600E+01  0.37267685818E+01 -0.17996294093E+01  0.52208166350E+01  0.17770000000E+01 0. -1.
         15    1    1    2    0    0  0.20100070218E+01 -0.41592456688E+01  0.23383272868E+01  0.54740255992E+01  0.17770000000E+01 0.  1.
</event>
<event>
 6    1  0.1226227E-002  0.1751971E+03  0.7546771E-02  0.1074421E+00
        -11   -1    0    0    0    0  0.00000000000E+00  0.00000000000E+00  0.18250000000E+03  0.18250000000E+03  0.00000000000E+00 0. -1.
         11   -1    0    0    0    0 -0.00000000000E+00 -0.00000000000E+00 -0.18250000000E+03  0.18250000000E+03  0.00000000000E+00 0.  1.
        -11    1    1    2    0    0 -0.37226496221E+00 -0.49538354129E+01  0.17632481909E+03  0.17639478703E+03  0.00000000000E+00 0. -1.
         11    1    1    2    0    0 -0.36586241241E+01  0.39032905451E+01 -0.17394989373E+03  0.17403214283E+03  0.00000000000E+00 0.  1.
        -15    1    1    2    0    0  0.13357515733E+01  0.52113076403E+01  0.35186846037E+01  0.66693950197E+01  0.17770000000E+01 0. -1.
         15    1    1    2    0    0  0.26951375131E+01 -0.41607627725E+01 -0.58936099560E+01  0.79036751184E+01  0.17770000000E+01 0. -1.
</event>
<event>
 6    1  0.1226227E-002  0.1742054E+03  0.7546771E-02  0.1075256E+00
        -11   -1    0    0    0    0  0.00000000000E+00  0.00000000000E+00  0.18250000000E+03  0.18250000000E+03  0.00000000000E+00 0. -1.
         11   -1    0    0    0    0 -0.00000000000E+00 -0.00000000000E+00 -0.18250000000E+03  0.18250000000E+03  0.00000000000E+00 0. -1.
        -11    1    1    2    0    0  0.61597923230E+01  0.50794166950E+01  0.17282738787E+03  0.17301170340E+03  0.00000000000E+00 0. -1.
         11    1    1    2    0    0 -0.32307317239E+01  0.38890632393E+01 -0.17546401414E+03  0.17553684143E+03  0.00000000000E+00 0. -1.
        -15    1    1    2    0    0 -0.55280946108E+01 -0.49912435871E+01  0.65249253895E+01  0.10060055810E+02  0.17770000000E+01 0. -1.
         15    1    1    2    0    0  0.25990340117E+01 -0.39772363472E+01 -0.38882991155E+01  0.63913993590E+01  0.17770000000E+01 0.  1.
</event>
<event>
 6    1  0.1226227E-002  0.1872110E+03  0.7546771E-02  0.1064765E+00
        -11   -1    0    0    0    0  0.00000000000E+00  0.00000000000E+00  0.18250000000E+03  0.18250000000E+03  0.00000000000E+00 0.  1.
         11   -1    0    0    0    0 -0.00000000000E+00 -0.00000000000E+00 -0.18250000000E+03  0.18250000000E+03  0.00000000000E+00 0.  1.
        -11    1    1    2    0    0  0.18238890269E+01 -0.50269122750E+01  0.12834985402E+03  0.12846120600E+03  0.00000000000E+00 0.  1.
         11    1    1    2    0    0  0.96191380241E+00 -0.30639933346E+01 -0.17775996082E+03  0.17778896761E+03  0.00000000000E+00 0.  1.
        -15    1    1    2    0    0  0.19617534475E+01  0.25914277914E+01 -0.36291599380E+01  0.51857984383E+01  0.17770000000E+01 0.  1.
         15    1    1    2    0    0 -0.47475562768E+01  0.54994778182E+01  0.53039266731E+02  0.53564027960E+02  0.17770000000E+01 0. -1.
</event>
<event>
 6    1  0.1226227E-002  0.1679630E+03  0.7546771E-02  0.1080654E+00
        -11   -1    0    0    0    0  0.00000000000E+00  0.00000000000E+00  0.18250000000E+03  0.18250000000E+03  0.00000000000E+00 0.  1.
         11   -1    0    0    0    0 -0.00000000000E+00 -0.00000000000E+00 -0.18250000000E+03  0.18250000000E+03  0.00000000000E+00 0. -1.
        -11    1    1    2    0    0  0.22467720161E+01 -0.18510199508E+01  0.16882488056E+03  0.16884997647E+03  0.00000000000E+00 0.  1.
         11    1    1    2    0    0  0.32865461834E+00  0.74476427446E+01 -0.16697128526E+03  0.16713762442E+03  0.00000000000E+00 0. -1.
        -15    1    1    2    0    0 -0.10225473330E+01  0.13608979875E+01 -0.14326647251E+02  0.14536443748E+02  0.17770000000E+01 0. -1.
         15    1    1    2    0    0 -0.15528793014E+01 -0.69575207812E+01  0.12473051950E+02  0.14475955356E+02  0.17770000000E+01 0.  1.
</event>
<event>
 6    1  0.1226227E-002  0.1829730E+03  0.7546771E-02  0.1068079E+00
        -11   -1    0    0    0    0  0.00000000000E+00  0.00000000000E+00  0.18250000000E+03  0.18250000000E+03  0.00000000000E+00 0.  1.
         11   -1    0    0    0    0 -0.00000000000E+00 -0.00000000000E+00 -0.18250000000E+03  0.18250000000E+03  0.00000000000E+00 0. -1.
        -11    1    1    2    0    0 -0.18695328180E+01  0.21993743207E+01  0.18200411583E+03  0.18202700509E+03  0.00000000000E+00 0.  1.
         11    1    1    2    0    0 -0.28371279371E+01 -0.11376274743E+01 -0.86978926131E+02  0.87032620793E+02  0.00000000000E+00 0. -1.
        -15    1    1    2    0    0 -0.11449609838E+01 -0.16677266453E+01 -0.47801242527E+01  0.54863070174E+01  0.17770000000E+01 0. -1.
         15    1    1    2    0    0  0.58516217389E+01  0.60597979883E+00 -0.90245065449E+02  0.90454067103E+02  0.17770000000E+01 0.  1.
</event>
<event>
 6    1  0.1226227E-002  0.1833210E+03  0.7546771E-02  0.1067803E+00
        -11   -1    0    0    0    0  0.00000000000E+00  0.00000000000E+00  0.18250000000E+03  0.18250000000E+03  0.00000000000E+00 0.  1.
         11   -1    0    0    0    0 -0.00000000000E+00 -0.00000000000E+00 -0.18250000000E+03  0.18250000000E+03  0.00000000000E+00 0.  1.
        -11    1    1    2    0    0  0.34698587115E+01  0.14523548835E+00  0.92859389811E+02  0.92924309461E+02  0.00000000000E+00 0.  1.
         11    1    1    2    0    0  0.27906170425E+01  0.12754657995E+01 -0.18165308529E+03  0.18167899645E+03  0.00000000000E+00 0.  1.
        -15    1    1    2    0    0 -0.70099831719E+01  0.22785849156E+00  0.86973999853E+02  0.87274430178E+02  0.17770000000E+01 0.  1.
         15    1    1    2    0    0  0.74950741789E+00 -0.16485597794E+01  0.18196956289E+01  0.31222639058E+01  0.17770000000E+01 0. -1.
</event>
<event>
 6    1  0.1226227E-002  0.1841821E+03  0.7546771E-02  0.1067124E+00
        -11   -1    0    0    0    0  0.00000000000E+00  0.00000000000E+00  0.18250000000E+03  0.18250000000E+03  0.00000000000E+00 0.  1.
         11   -1    0    0    0    0 -0.00000000000E+00 -0.00000000000E+00 -0.18250000000E+03  0.18250000000E+03  0.00000000000E+00 0.  1.
        -11    1    1    2    0    0  0.81191062530E+00  0.28370995272E+01  0.16636045268E+03  0.16638662371E+03  0.00000000000E+00 0.  1.
         11    1    1    2    0    0  0.11520172788E+01 -0.21892276336E+01 -0.18080095805E+03  0.18081788157E+03  0.00000000000E+00 0.  1.
        -15    1    1    2    0    0 -0.44401864562E+00 -0.31244589025E+01  0.13878599073E+02  0.14343383046E+02  0.17770000000E+01 0. -1.
         15    1    1    2    0    0 -0.15199092585E+01  0.24765870089E+01  0.56190629878E+00  0.34521116806E+01  0.17770000000E+01 0. -1.
</event>
<event>
 6    1  0.1226227E-002  0.1832081E+03  0.7546771E-02  0.1067893E+00
        -11   -1    0    0    0    0  0.00000000000E+00  0.00000000000E+00  0.18250000000E+03  0.18250000000E+03  0.00000000000E+00 0. -1.
         11   -1    0    0    0    0 -0.00000000000E+00 -0.00000000000E+00 -0.18250000000E+03  0.18250000000E+03  0.00000000000E+00 0.  1.
        -11    1    1    2    0    0 -0.15036966005E+00 -0.25010452025E+01  0.18177467428E+03  0.18179194165E+03  0.00000000000E+00 0. -1.
         11    1    1    2    0    0 -0.16950826023E+01  0.53888204483E+00 -0.69750165847E+02  0.69772840952E+02  0.00000000000E+00 0.  1.
        -15    1    1    2    0    0 -0.52340785198E+01 -0.14620998406E+00 -0.89365497498E+02  0.89536399455E+02  0.17770000000E+01 0.  1.
         15    1    1    2    0    0  0.70795307821E+01  0.21083731417E+01 -0.22659010938E+02  0.23898817943E+02  0.17770000000E+01 0. -1.
</event>
<event>
 6    1  0.1226227E-002  0.1866995E+03  0.7546771E-02  0.1065160E+00
        -11   -1    0    0    0    0  0.00000000000E+00  0.00000000000E+00  0.18250000000E+03  0.18250000000E+03  0.00000000000E+00 0.  1.
         11   -1    0    0    0    0 -0.00000000000E+00 -0.00000000000E+00 -0.18250000000E+03  0.18250000000E+03  0.00000000000E+00 0. -1.
        -11    1    1    2    0    0 -0.13944955113E+00  0.43898262570E+01  0.15604936619E+03  0.15611116138E+03  0.00000000000E+00 0.  1.
         11    1    1    2    0    0 -0.83972273761E+01 -0.68959863648E+01 -0.17796910746E+03  0.17830050831E+03  0.00000000000E+00 0. -1.
        -15    1    1    2    0    0 -0.53222659668E+01  0.44735875321E+01  0.83789448583E+01  0.11031951159E+02  0.17770000000E+01 0. -1.
         15    1    1    2    0    0  0.13858942894E+02 -0.19674274243E+01  0.13540796414E+02  0.19556379147E+02  0.17770000000E+01 0. -1.
</event>
<event>
 6    1  0.1226227E-002  0.1441230E+03  0.7546771E-02  0.1103912E+00
        -11   -1    0    0    0    0  0.00000000000E+00  0.00000000000E+00  0.18250000000E+03  0.18250000000E+03  0.00000000000E+00 0.  1.
         11   -1    0    0    0    0 -0.00000000000E+00 -0.00000000000E+00 -0.18250000000E+03  0.18250000000E+03  0.00000000000E+00 0.  1.
        -11    1    1    2    0    0  0.55522192128E+00  0.86844580735E+01  0.40643528081E+02  0.41564702071E+02  0.00000000000E+00 0.  1.
         11    1    1    2    0    0  0.77714373524E+01  0.10481101287E+02 -0.15484497340E+03  0.15539374026E+03  0.00000000000E+00 0.  1.
        -15    1    1    2    0    0  0.33536460721E+01  0.54860868473E+01  0.13407722187E+03  0.13424307522E+03  0.17770000000E+01 0.  1.
         15    1    1    2    0    0 -0.11680305346E+02 -0.24651646208E+02 -0.19875776550E+02  0.33798482454E+02  0.17770000000E+01 0. -1.
</event>
<event>
 6    1  0.1460239E-002  0.2028394E+03  0.7546771E-02  0.1053327E+00
        -11   -1    0    0    0    0  0.00000000000E+00  0.00000000000E+00  0.18250000000E+03  0.18250000000E+03  0.00000000000E+00 0.  1.
         11   -1    0    0    0    0 -0.00000000000E+00 -0.00000000000E+00 -0.18250000000E+03  0.18250000000E+03  0.00000000000E+00 0. -1.
        -11    1    1    2    0    0  0.71240121155E+01 -0.11388448942E+01  0.16200004946E+03  0.16216061341E+03  0.00000000000E+00 0.  1.
         11    1    1    2    0    0 -0.38903277248E-01  0.25988746051E+01 -0.15580663433E+03  0.15582831246E+03  0.00000000000E+00 0. -1.
        -15    1    1    2    0    0  0.47461080870E+00 -0.35391055742E+01 -0.25650410521E+02  0.25958655831E+02  0.17770000000E+01 0. -1.
         15    1    1    2    0    0 -0.75597196469E+01  0.20790758632E+01  0.19456995394E+02  0.21052418302E+02  0.17770000000E+01 0. -1.
</event>
<event>
 6    1  0.1226227E-002  0.1827627E+03  0.7546771E-02  0.1068246E+00
        -11   -1    0    0    0    0  0.00000000000E+00  0.00000000000E+00  0.18250000000E+03  0.18250000000E+03  0.00000000000E+00 0.  1.
         11   -1    0    0    0    0 -0.00000000000E+00 -0.00000000000E+00 -0.18250000000E+03  0.18250000000E+03  0.00000000000E+00 0. -1.
        -11    1    1    2    0    0  0.87613876710E+00 -0.23537877991E+01  0.18222002385E+03  0.18223733160E+03  0.00000000000E+00 0.  1.
         11    1    1    2    0    0 -0.21934086236E+01 -0.10970881667E+01 -0.15315453708E+03  0.15317417169E+03  0.00000000000E+00 0. -1.
        -15    1    1    2    0    0  0.25874574313E+00  0.19749531061E+01 -0.19866472091E+02  0.20044995172E+02  0.17770000000E+01 0. -1.
         15    1    1    2    0    0  0.10585241133E+01  0.14759228596E+01 -0.91990146752E+01  0.95435015367E+01  0.17770000000E+01 0.  1.
</event>
<event>
 6    1  0.1226227E-002  0.1828067E+03  0.7546771E-02  0.1068211E+00
        -11   -1    0    0    0    0  0.00000000000E+00  0.00000000000E+00  0.18250000000E+03  0.18250000000E+03  0.00000000000E+00 0.  1.
         11   -1    0    0    0    0 -0.00000000000E+00 -0.00000000000E+00 -0.18250000000E+03  0.18250000000E+03  0.00000000000E+00 0. -1.
        -11    1    1    2    0    0 -0.72717993549E-01 -0.16394057679E+01  0.83132403996E+02  0.83148599107E+02  0.00000000000E+00 0.  1.
         11    1    1    2    0    0  0.18743245321E+01  0.40349865176E+01 -0.18213894893E+03  0.18219327904E+03  0.00000000000E+00 0. -1.
        -15    1    1    2    0    0 -0.21039773872E+00 -0.28995018715E+01  0.94264766213E+02  0.94326323243E+02  0.17770000000E+01 0.  1.
         15    1    1    2    0    0 -0.15912087998E+01  0.50392112179E+00  0.47417787248E+01  0.53317986099E+01  0.17770000000E+01 0. -1.
</event>
<event>
 6    1  0.1226227E-002  0.1899338E+03  0.7546771E-02  0.1062687E+00
        -11   -1    0    0    0    0  0.00000000000E+00  0.00000000000E+00  0.18250000000E+03  0.18250000000E+03  0.00000000000E+00 0. -1.
         11   -1    0    0    0    0 -0.00000000000E+00 -0.00000000000E+00 -0.18250000000E+03  0.18250000000E+03  0.00000000000E+00 0.  1.
        -11    1    1    2    0    0  0.94998602087E+00 -0.68028128787E+01  0.16041417180E+03  0.16056116358E+03  0.00000000000E+00 0. -1.
         11    1    1    2    0    0  0.28046011515E-01  0.81921759437E+01 -0.17487437289E+03  0.17506615558E+03  0.00000000000E+00 0.  1.
        -15    1    1    2    0    0 -0.88624243507E-01  0.12238446080E+01  0.21498344038E+02  0.21606530847E+02  0.17770000000E+01 0.  1.
         15    1    1    2    0    0 -0.88940778888E+00 -0.26132076730E+01 -0.70381429465E+01  0.77661499917E+01  0.17770000000E+01 0.  1.
</event>
<event>
 6    1  0.1226227E-002  0.1860200E+03  0.7546771E-02  0.1065687E+00
        -11   -1    0    0    0    0  0.00000000000E+00  0.00000000000E+00  0.18250000000E+03  0.18250000000E+03  0.00000000000E+00 0. -1.
         11   -1    0    0    0    0 -0.00000000000E+00 -0.00000000000E+00 -0.18250000000E+03  0.18250000000E+03  0.00000000000E+00 0.  1.
        -11    1    1    2    0    0 -0.34793768567E+01 -0.60643619338E+00  0.17894519211E+03  0.17898004248E+03  0.00000000000E+00 0. -1.
         11    1    1    2    0    0  0.96212179817E+00  0.26975857395E+01 -0.17327981916E+03  0.17330348633E+03  0.00000000000E+00 0.  1.
        -15    1    1    2    0    0  0.48514790786E+01 -0.53016409084E+00  0.98099625863E+00  0.52856414816E+01  0.17770000000E+01 0.  1.
         15    1    1    2    0    0 -0.23342240201E+01 -0.15609854553E+01 -0.66463692091E+01  0.74308297000E+01  0.17770000000E+01 0.  1.
</event>
<event>
 6    1  0.1226227E-002  0.1829648E+03  0.7546771E-02  0.1068085E+00
        -11   -1    0    0    0    0  0.00000000000E+00  0.00000000000E+00  0.18250000000E+03  0.18250000000E+03  0.00000000000E+00 0.  1.
         11   -1    0    0    0    0 -0.00000000000E+00 -0.00000000000E+00 -0.18250000000E+03  0.18250000000E+03  0.00000000000E+00 0.  1.
        -11    1    1    2    0    0  0.19333430482E+01 -0.49264702192E+01  0.12268154725E+03  0.12279564308E+03  0.00000000000E+00 0.  1.
         11    1    1    2    0    0  0.21304449811E+01 -0.14390166526E+01 -0.18201706435E+03  0.18203521989E+03  0.00000000000E+00 0.  1.
        -15    1    1    2    0    0 -0.35433805051E+01  0.50651102117E+01  0.53886977374E+02  0.54269466059E+02  0.17770000000E+01 0.  1.
         15    1    1    2    0    0 -0.52040752422E+00  0.13003766601E+01  0.54485397247E+01  0.58996709722E+01  0.17770000000E+01 0. -1.
</event>
<event>
 6    1  0.1226227E-002  0.1828299E+03  0.7546771E-02  0.1068192E+00
        -11   -1    0    0    0    0  0.00000000000E+00  0.00000000000E+00  0.18250000000E+03  0.18250000000E+03  0.00000000000E+00 0. -1.
         11   -1    0    0    0    0 -0.00000000000E+00 -0.00000000000E+00 -0.18250000000E+03  0.18250000000E+03  0.00000000000E+00 0. -1.
        -11    1    1    2    0    0  0.13507787065E+01 -0.23764040113E+01  0.12153072104E+03  0.12156145794E+03  0.00000000000E+00 0. -1.
         11    1    1    2    0    0  0.27656470316E+01 -0.22534482128E+01 -0.18213513561E+03  0.18217007015E+03  0.00000000000E+00 0. -1.
        -15    1    1    2    0    0 -0.49996012024E+01  0.36624618688E+01  0.36670051570E+02  0.37232513349E+02  0.17770000000E+01 0.  1.
         15    1    1    2    0    0  0.88317546436E+00  0.96739035533E+00  0.23934362999E+02  0.24035958565E+02  0.17770000000E+01 0.  1.
</event>
<event>
 6    1  0.1226227E-002  0.1851312E+03  0.7546771E-02  0.1066379E+00
        -11   -1    0    0    0    0  0.00000000000E+00  0.00000000000E+00  0.18250000000E+03  0.18250000000E+03  0.00000000000E+00 0. -1.
         11   -1    0    0    0    0 -0.00000000000E+00 -0.00000000000E+00 -0.18250000000E+03  0.18250000000E+03  0.00000000000E+00 0. -1.
        -11    1    1    2    0    0 -0.79884849629E+00  0.28210421137E+01  0.17122323249E+03  0.17124833366E+03  0.00000000000E+00 0. -1.
         11    1    1    2    0    0 -0.18185225476E+01  0.18402569967E+01 -0.17985023148E+03  0.17986883925E+03  0.00000000000E+00 0. -1.
        -15    1    1    2    0    0  0.12799594781E+01 -0.55756150683E+01  0.12439938980E+01  0.61180903453E+01  0.17770000000E+01 0. -1.
         15    1    1    2    0    0  0.13374115658E+01  0.91431595790E+00  0.73830050970E+01  0.77647367392E+01  0.17770000000E+01 0.  1.
</event>
<event>
 6    1  0.1226227E-002  0.1827680E+03  0.7546771E-02  0.1068242E+00
        -11   -1    0    0    0    0  0.00000000000E+00  0.00000000000E+00  0.18250000000E+03  0.18250000000E+03  0.00000000000E+00 0. -1.
         11   -1    0    0    0    0 -0.00000000000E+00 -0.00000000000E+00 -0.18250000000E+03  0.18250000000E+03  0.00000000000E+00 0. -1.
        -11    1    1    2    0    0 -0.21071127909E+01  0.17914766420E+01  0.18221104540E+03  0.18223203445E+03  0.00000000000E+00 0. -1.
         11    1    1    2    0    0  0.63201594992E+00 -0.39020158606E+01 -0.14430227174E+03  0.14435640201E+03  0.00000000000E+00 0. -1.
        -15    1    1    2    0    0 -0.71996228586E+00  0.19719589609E+01 -0.27094488456E+02  0.27233729115E+02  0.17770000000E+01 0. -1.
         15    1    1    2    0    0  0.21950591268E+01  0.13858025779E+00 -0.10814285206E+02  0.11177834431E+02  0.17770000000E+01 0. -1.
</event>
<event>
 6    1  0.1226227E-002  0.1838011E+03  0.7546771E-02  0.1067424E+00
        -11   -1    0    0    0    0  0.00000000000E+00  0.00000000000E+00  0.18250000000E+03  0.18250000000E+03  0.00000000000E+00 0.  1.
         11   -1    0    0    0    0 -0.00000000000E+00 -0.00000000000E+00 -0.18250000000E+03  0.18250000000E+03  0.00000000000E+00 0.  1.
        -11    1    1    2    0    0 -0.11160296535E+01  0.31974530422E+01  0.16079175961E+03  0.16082742050E+03  0.00000000000E+00 0.  1.
         11    1    1    2    0    0  0.54781962321E+01  0.96894768822E+00 -0.18111346042E+03  0.18119888255E+03  0.00000000000E+00 0.  1.
        -15    1    1    2    0    0 -0.10003552696E+01 -0.35267935340E+01  0.18037709205E+02  0.18492043307E+02  0.17770000000E+01 0.  1.
         15    1    1    2    0    0 -0.33618113090E+01 -0.63960719637E+00  0.22839916066E+01  0.44816536348E+01  0.17770000000E+01 0. -1.
</event>
<event>
 6    1  0.1226227E-002  0.1843183E+03  0.7546771E-02  0.1067017E+00
        -11   -1    0    0    0    0  0.00000000000E+00  0.00000000000E+00  0.18250000000E+03  0.18250000000E+03  0.00000000000E+00 0. -1.
         11   -1    0    0    0    0 -0.00000000000E+00 -0.00000000000E+00 -0.18250000000E+03  0.18250000000E+03  0.00000000000E+00 0.  1.
        -11    1    1    2    0    0 -0.15647188227E+01 -0.84876728721E+00  0.11253295916E+03  0.11254703749E+03  0.00000000000E+00 0. -1.
         11    1    1    2    0    0  0.22762094525E+01  0.14489312486E+01 -0.18066153871E+03  0.18068168723E+03  0.00000000000E+00 0.  1.
        -15    1    1    2    0    0  0.29150715459E+01  0.94218361564E+01  0.46811515242E+02  0.47872166516E+02  0.17770000000E+01 0. -1.
         15    1    1    2    0    0 -0.36265621757E+01 -0.10022000118E+02  0.21317064309E+02  0.23899108756E+02  0.17770000000E+01 0.  1.
</event>
<event>
 6    1  0.1226227E-002  0.1860270E+03  0.7546771E-02  0.1065681E+00
        -11   -1    0    0    0    0  0.00000000000E+00  0.00000000000E+00  0.18250000000E+03  0.18250000000E+03  0.00000000000E+00 0. -1.
         11   -1    0    0    0    0 -0.00000000000E+00 -0.00000000000E+00 -0.18250000000E+03  0.18250000000E+03  0.00000000000E+00 0. -1.
        -11    1    1    2    0    0 -0.20768234343E+01 -0.22289707495E+01  0.16892864598E+03  0.16895611542E+03  0.00000000000E+00 0. -1.
         11    1    1    2    0    0 -0.36706658469E+01 -0.34269820858E+01 -0.17890253864E+03  0.17897300446E+03  0.00000000000E+00 0. -1.
        -15    1    1    2    0    0  0.65759369228E+00  0.29615854160E+01  0.10449554126E+02  0.11025167939E+02  0.17770000000E+01 0.  1.
         15    1    1    2    0    0  0.50898955889E+01  0.26943674193E+01 -0.47566146938E+00  0.60457121772E+01  0.17770000000E+01 0. -1.
</event>
<event>
 6    1  0.1691741E-002  0.1843726E+03  0.7546771E-02  0.1066974E+00
        -11   -1    0    0    0    0  0.00000000000E+00  0.00000000000E+00  0.18250000000E+03  0.18250000000E+03  0.00000000000E+00 0. -1.
         11   -1    0    0    0    0 -0.00000000000E+00 -0.00000000000E+00 -0.18250000000E+03  0.18250000000E+03  0.00000000000E+00 0. -1.
        -11    1    1    2    0    0 -0.19512833744E+01 -0.21823210953E+01  0.18060366947E+03  0.18062739399E+03  0.00000000000E+00 0. -1.
         11    1    1    2    0    0  0.49057045270E+01  0.98786870922E+01 -0.86741286916E+02  0.87439723532E+02  0.00000000000E+00 0. -1.
        -15    1    1    2    0    0 -0.58137133560E+01 -0.62629631386E+01 -0.92676431227E+02  0.93086532883E+02  0.17770000000E+01 0. -1.
         15    1    1    2    0    0  0.28592922034E+01 -0.14334028583E+01 -0.11859513297E+01  0.38463495961E+01  0.17770000000E+01 0.  1.
</event>
<event>
 6    1  0.1226227E-002  0.1711449E+03  0.7546771E-02  0.1077871E+00
        -11   -1    0    0    0    0  0.00000000000E+00  0.00000000000E+00  0.18250000000E+03  0.18250000000E+03  0.00000000000E+00 0. -1.
         11   -1    0    0    0    0 -0.00000000000E+00 -0.00000000000E+00 -0.18250000000E+03  0.18250000000E+03  0.00000000000E+00 0.  1.
        -11    1    1    2    0    0 -0.70018249599E+00 -0.19644783892E+00  0.25950131526E+02  0.25960319210E+02  0.00000000000E+00 0. -1.
         11    1    1    2    0    0 -0.93027771160E+01 -0.19139657026E+02 -0.17880280257E+03  0.18006473930E+03  0.00000000000E+00 0.  1.
        -15    1    1    2    0    0  0.10005585793E+02  0.26831942155E+02  0.68431982821E+02  0.74203496337E+02  0.17770000000E+01 0.  1.
         15    1    1    2    0    0 -0.26261812324E-02 -0.74958372899E+01  0.84420688224E+02  0.84771445150E+02  0.17770000000E+01 0. -1.
</event>
<event>
 6    1  0.1226227E-002  0.1849064E+03  0.7546771E-02  0.1066555E+00
        -11   -1    0    0    0    0  0.00000000000E+00  0.00000000000E+00  0.18250000000E+03  0.18250000000E+03  0.00000000000E+00 0. -1.
         11   -1    0    0    0    0 -0.00000000000E+00 -0.00000000000E+00 -0.18250000000E+03  0.18250000000E+03  0.00000000000E+00 0.  1.
        -11    1    1    2    0    0  0.62300300245E+00  0.32161229180E+01  0.18006381165E+03  0.18009360856E+03  0.00000000000E+00 0. -1.
         11    1    1    2    0    0  0.85226270196E+00  0.79361955577E+01 -0.13601429955E+03  0.13624829993E+03  0.00000000000E+00 0.  1.
        -15    1    1    2    0    0 -0.38739595495E+00 -0.92407604571E+01 -0.44762049631E+02  0.45742109108E+02  0.17770000000E+01 0.  1.
         15    1    1    2    0    0 -0.10878697495E+01 -0.19115580185E+01  0.71253753461E+00  0.29159824053E+01  0.17770000000E+01 0. -1.
</event>
<event>
 6    1  0.1226227E-002  0.1841912E+03  0.7546771E-02  0.1067117E+00
        -11   -1    0    0    0    0  0.00000000000E+00  0.00000000000E+00  0.18250000000E+03  0.18250000000E+03  0.00000000000E+00 0. -1.
         11   -1    0    0    0    0 -0.00000000000E+00 -0.00000000000E+00 -0.18250000000E+03  0.18250000000E+03  0.00000000000E+00 0.  1.
        -11    1    1    2    0    0  0.10235504948E+01 -0.28923726615E+01  0.16198527468E+03  0.16201432866E+03  0.00000000000E+00 0. -1.
         11    1    1    2    0    0 -0.23851814043E+01 -0.12326733709E+01 -0.18078889108E+03  0.18080882642E+03  0.00000000000E+00 0.  1.
        -15    1    1    2    0    0  0.23858453874E+01  0.57678980549E+01  0.51844117780E+01  0.83064288758E+01  0.17770000000E+01 0.  1.
         15    1    1    2    0    0 -0.10242144780E+01 -0.16428520225E+01  0.13619204615E+02  0.13870416050E+02  0.17770000000E+01 0. -1.
</event>
<event>
 6    1  0.1226227E-002  0.1845005E+03  0.7546771E-02  0.1066873E+00
        -11   -1    0    0    0    0  0.00000000000E+00  0.00000000000E+00  0.18250000000E+03  0.18250000000E+03  0.00000000000E+00 0.  1.
         11   -1    0    0    0    0 -0.00000000000E+00 -0.00000000000E+00 -0.18250000000E+03  0.18250000000E+03  0.00000000000E+00 0. -1.
        -11    1    1    2    0    0  0.15247563991E+01 -0.21207294755E+01  0.16960236583E+03  0.16962247749E+03  0.00000000000E+00 0.  1.
         11    1    1    2    0    0  0.29417425100E+01 -0.27446463323E+01 -0.18045464872E+03  0.18049949357E+03  0.00000000000E+00 0. -1.
        -15    1    1    2    0    0 -0.24662632882E+00  0.80921359064E+00  0.77949194783E+01  0.80395366692E+01  0.17770000000E+01 0.  1.
         15    1    1    2    0    0 -0.42198725802E+01  0.40561622172E+01  0.30573634102E+01  0.68384922715E+01  0.17770000000E+01 0. -1.
</event>
<event>
 6    1  0.1226227E-002  0.1858871E+03  0.7546771E-02  0.1065790E+00
        -11   -1    0    0    0    0  0.00000000000E+00  0.00000000000E+00  0.18250000000E+03  0.18250000000E+03  0.00000000000E+00 0. -1.
         11   -1    0    0    0    0 -0.00000000000E+00 -0.00000000000E+00 -0.18250000000E+03  0.18250000000E+03  0.00000000000E+00 0.  1.
        -11    1    1    2    0    0  0.45832996387E+01 -0.79537437080E+00  0.17542643819E+03  0.17548810351E+03  0.00000000000E+00 0. -1.
         11    1    1    2    0    0 -0.46709179355E+01 -0.12068063961E+01 -0.17904796451E+03  0.17911294608E+03  0.00000000000E+00 0.  1.
        -15    1    1    2    0    0 -0.31126338030E+01 -0.24415829426E+00  0.47526913533E+01  0.59576762722E+01  0.17770000000E+01 0. -1.
         15    1    1    2    0    0  0.32002520998E+01  0.22463390611E+01 -0.11311650307E+01  0.44412741423E+01  0.17770000000E+01 0.  1.
</event>
<event>
 6    1  0.1226227E-002  0.1842510E+03  0.7546771E-02  0.1067070E+00
        -11   -1    0    0    0    0  0.00000000000E+00  0.00000000000E+00  0.18250000000E+03  0.18250000000E+03  0.00000000000E+00 0. -1.
         11   -1    0    0    0    0 -0.00000000000E+00 -0.00000000000E+00 -0.18250000000E+03  0.18250000000E+03  0.00000000000E+00 0.  1.
        -11    1    1    2    0    0  0.57728304136E+01 -0.12279087884E+01  0.18065264426E+03  0.18074902824E+03  0.00000000000E+00 0. -1.
         11    1    1    2    0    0 -0.26685723046E+01  0.25995064257E+01 -0.15310684981E+03  0.15315216672E+03  0.00000000000E+00 0.  1.
        -15    1    1    2    0    0  0.31468075479E+01 -0.17124933756E+01 -0.22530837929E+02  0.22882994081E+02  0.17770000000E+01 0. -1.
         15    1    1    2    0    0 -0.62510656570E+01  0.34089573827E+00 -0.50149565220E+01  0.82158109563E+01  0.17770000000E+01 0. -1.
</event>
<event>
 6    1  0.1226227E-002  0.2055826E+03  0.7546771E-02  0.1051435E+00
        -11   -1    0    0    0    0  0.00000000000E+00  0.00000000000E+00  0.18250000000E+03  0.18250000000E+03  0.00000000000E+00 0. -1.
         11   -1    0    0    0    0 -0.00000000000E+00 -0.00000000000E+00 -0.18250000000E+03  0.18250000000E+03  0.00000000000E+00 0. -1.
        -11    1    1    2    0    0  0.64072968611E+01 -0.84780114837E+01  0.10894600699E+03  0.10946306487E+03  0.00000000000E+00 0. -1.
         11    1    1    2    0    0 -0.13951390868E+00 -0.21452263214E+01 -0.15940291801E+03  0.15941741351E+03  0.00000000000E+00 0. -1.
        -15    1    1    2    0    0 -0.22294129335E+01  0.89626424661E+01  0.72738836448E+02  0.73344361057E+02  0.17770000000E+01 0.  1.
         15    1    1    2    0    0 -0.40383700189E+01  0.16605953390E+01 -0.22281925423E+02  0.22775160567E+02  0.17770000000E+01 0.  1.
</event>
<event>
 6    1  0.1226227E-002  0.1855999E+03  0.7546771E-02  0.1066014E+00
        -11   -1    0    0    0    0  0.00000000000E+00  0.00000000000E+00  0.18250000000E+03  0.18250000000E+03  0.00000000000E+00 0. -1.
         11   -1    0    0    0    0 -0.00000000000E+00 -0.00000000000E+00 -0.18250000000E+03  0.18250000000E+03  0.00000000000E+00 0. -1.
        -11    1    1    2    0    0  0.39010633738E+01  0.12919913365E+01  0.17935306631E+03  0.17940013916E+03  0.00000000000E+00 0. -1.
         11    1    1    2    0    0 -0.12050356033E+01 -0.32474217648E+01 -0.14054828521E+03  0.14059096107E+03  0.00000000000E+00 0. -1.
        -15    1    1    2    0    0 -0.99562436990E+01  0.37927036936E+01 -0.34582024619E+02  0.36229622488E+02  0.17770000000E+01 0. -1.
         15    1    1    2    0    0  0.72602159285E+01 -0.18372732653E+01 -0.42227564777E+01  0.87792772851E+01  0.17770000000E+01 0.  1.
</event>
<event>
 6    1  0.1226227E-002  0.1772082E+03  0.7546771E-02  0.1072747E+00
        -11   -1    0    0    0    0  0.00000000000E+00  0.00000000000E+00  0.18250000000E+03  0.18250000000E+03  0.00000000000E+00 0.  1.
         11   -1    0    0    0    0 -0.00000000000E+00 -0.00000000000E+00 -0.18250000000E+03  0.18250000000E+03  0.00000000000E+00 0. -1.
        -11    1    1    2    0    0  0.39262363881E+01  0.16565594178E+01  0.17846004186E+03  0.17851091301E+03  0.00000000000E+00 0.  1.
         11    1    1    2    0    0 -0.20283991818E+01  0.36669604383E+01 -0.17590980914E+03  0.17595971685E+03  0.00000000000E+00 0. -1.
        -15    1    1    2    0    0 -0.34669597447E+01 -0.18513709811E+01  0.16201139633E+01  0.46075896774E+01  0.17770000000E+01 0.  1.
         15    1    1    2    0    0  0.15691225384E+01 -0.34721488750E+01 -0.41703466876E+01  0.59217804624E+01  0.17770000000E+01 0.  1.
</event>
<event>
 6    1  0.1226227E-002  0.1736630E+03  0.7546771E-02  0.1075715E+00
        -11   -1    0    0    0    0  0.00000000000E+00  0.00000000000E+00  0.18250000000E+03  0.18250000000E+03  0.00000000000E+00 0.  1.
         11   -1    0    0    0    0 -0.00000000000E+00 -0.00000000000E+00 -0.18250000000E+03  0.18250000000E+03  0.00000000000E+00 0. -1.
        -11    1    1    2    0    0  0.14705084268E+01  0.38842331313E+01  0.17486788588E+03  0.17491720091E+03  0.00000000000E+00 0.  1.
         11    1    1    2    0    0  0.75886566015E+01  0.26026580749E+01 -0.17240961601E+03  0.17259616806E+03  0.00000000000E+00 0. -1.
        -15    1    1    2    0    0 -0.44568428728E+00  0.35756932253E+00  0.41358373966E+01  0.45375511320E+01  0.17770000000E+01 0.  1.
         15    1    1    2    0    0 -0.86134807410E+01 -0.68444605287E+01 -0.65941072737E+01  0.12949079896E+02  0.17770000000E+01 0. -1.
</event>
<event>
 6    1  0.1226227E-002  0.1826329E+03  0.7546771E-02  0.1068349E+00
        -11   -1    0    0    0    0  0.00000000000E+00  0.00000000000E+00  0.18250000000E+03  0.18250000000E+03  0.00000000000E+00 0. -1.
         11   -1    0    0    0    0 -0.00000000000E+00 -0.00000000000E+00 -0.18250000000E+03  0.18250000000E+03  0.00000000000E+00 0.  1.
        -11    1    1    2    0    0 -0.36432246301E+01  0.18672788268E+01  0.18232114068E+03  0.18236709724E+03  0.00000000000E+00 0. -1.
         11    1    1    2    0    0  0.16154653356E+01 -0.98948037985E+00 -0.51348796516E+02  0.51383729947E+02  0.00000000000E+00 0.  1.
        -15    1    1    2    0    0  0.32237811467E+01 -0.34484008574E+01 -0.89525689082E+02  0.89667669580E+02  0.17770000000E+01 0.  1.
         15    1    1    2    0    0 -0.11960218521E+01  0.25706024105E+01 -0.41446655081E+02  0.41581503237E+02  0.17770000000E+01 0.  1.
</event>
<event>
 6    1  0.1226227E-002  0.1826486E+03  0.7546771E-02  0.1068337E+00
        -11   -1    0    0    0    0  0.00000000000E+00  0.00000000000E+00  0.18250000000E+03  0.18250000000E+03  0.00000000000E+00 0.  1.
         11   -1    0    0    0    0 -0.00000000000E+00 -0.00000000000E+00 -0.18250000000E+03  0.18250000000E+03  0.00000000000E+00 0. -1.
        -11    1    1    2    0    0 -0.45704326045E+00  0.26496370258E+01  0.18233159473E+03  0.18235141870E+03  0.00000000000E+00 0.  1.
         11    1    1    2    0    0 -0.20682521354E+01 -0.75113349263E+00 -0.11348949826E+03  0.11351082805E+03  0.00000000000E+00 0. -1.
        -15    1    1    2    0    0  0.32438232665E+01 -0.13738571548E-01 -0.40132822951E+02  0.40302900456E+02  0.17770000000E+01 0.  1.
         15    1    1    2    0    0 -0.71852787062E+00 -0.18847649616E+01 -0.28709273512E+02  0.28834852797E+02  0.17770000000E+01 0. -1.
</event>
<event>
 6    1  0.1226227E-002  0.1909070E+03  0.7546771E-02  0.1061953E+00
        -11   -1    0    0    0    0  0.00000000000E+00  0.00000000000E+00  0.18250000000E+03  0.18250000000E+03  0.00000000000E+00 0. -1.
         11   -1    0    0    0    0 -0.00000000000E+00 -0.00000000000E+00 -0.18250000000E+03  0.18250000000E+03  0.00000000000E+00 0. -1.
        -11    1    1    2    0    0  0.61632116249E+01 -0.21858438824E+01  0.17397012160E+03  0.17409298177E+03  0.00000000000E+00 0. -1.
         11    1    1    2    0    0  0.68113071564E+01 -0.10023055346E+01 -0.14927966295E+03  0.14943833609E+03  0.00000000000E+00 0. -1.
        -15    1    1    2    0    0  0.56467343434E+01 -0.41550903608E+01  0.25051351324E+01  0.76540065118E+01  0.17770000000E+01 0. -1.
         15    1    1    2    0    0 -0.18621253125E+02  0.73432397777E+01 -0.27195593780E+02  0.33814675636E+02  0.17770000000E+01 0.  1.
</event>
<event>
 6    1  0.1226227E-002  0.1893154E+03  0.7546771E-02  0.1063156E+00
        -11   -1    0    0    0    0  0.00000000000E+00  0.00000000000E+00  0.18250000000E+03  0.18250000000E+03  0.00000000000E+00 0. -1.
         11   -1    0    0    0    0 -0.00000000000E+00 -0.00000000000E+00 -0.18250000000E+03  0.18250000000E+03  0.00000000000E+00 0. -1.
        -11    1    1    2    0    0  0.30040670612E+01 -0.77244913202E+00  0.17565719764E+03  0.17568458151E+03  0.00000000000E+00 0. -1.
         11    1    1    2    0    0  0.23669882216E+01 -0.82403819619E+00 -0.16173189367E+03  0.16175131252E+03  0.00000000000E+00 0. -1.
        -15    1    1    2    0    0 -0.48357433540E+01  0.14984262330E+00 -0.20208147963E+02  0.20855067483E+02  0.17770000000E+01 0. -1.
         15    1    1    2    0    0 -0.53531192879E+00  0.14466447049E+01  0.62828439944E+01  0.67090384871E+01  0.17770000000E+01 0.  1.
</event>
<event>
 6    1  0.1226227E-002  0.1825487E+03  0.7546771E-02  0.1068416E+00
        -11   -1    0    0    0    0  0.00000000000E+00  0.00000000000E+00  0.18250000000E+03  0.18250000000E+03  0.00000000000E+00 0. -1.
         11   -1    0    0    0    0 -0.00000000000E+00 -0.00000000000E+00 -0.18250000000E+03  0.18250000000E+03  0.00000000000E+00 0. -1.
        -11    1    1    2    0    0 -0.23091257026E+01  0.35196745139E+01  0.18240273920E+03  0.18245130703E+03  0.00000000000E+00 0. -1.
         11    1    1    2    0    0 -0.42272701882E+00 -0.52900577691E+00 -0.47890837297E+01  0.48367208121E+01  0.00000000000E+00 0. -1.
        -15    1    1    2    0    0  0.67950461090E+00 -0.20921240062E+01 -0.64162381622E+02  0.64224665463E+02  0.17770000000E+01 0.  1.
         15    1    1    2    0    0  0.20523481105E+01 -0.89854473077E+00 -0.11345127384E+03  0.11348730670E+03  0.17770000000E+01 0. -1.
</event>
<event>
 6    1  0.1226227E-002  0.1853323E+03  0.7546771E-02  0.1066222E+00
        -11   -1    0    0    0    0  0.00000000000E+00  0.00000000000E+00  0.18250000000E+03  0.18250000000E+03  0.00000000000E+00 0. -1.
         11   -1    0    0    0    0 -0.00000000000E+00 -0.00000000000E+00 -0.18250000000E+03  0.18250000000E+03  0.00000000000E+00 0.  1.
        -11    1    1    2    0    0  0.30133426999E+01  0.25087297773E+01  0.17962487683E+03  0.17966766636E+03  0.00000000000E+00 0. -1.
         11    1    1    2    0    0 -0.34704594418E+01  0.30666982807E+01 -0.17537598061E+03  0.17543712065E+03  0.00000000000E+00 0.  1.
        -15    1    1    2    0    0  0.25809165113E+01 -0.49513008684E+01 -0.17551059585E+01  0.61167504652E+01  0.17770000000E+01 0. -1.
         15    1    1    2    0    0 -0.21237997694E+01 -0.62412718960E+00 -0.24937902570E+01  0.37784625253E+01  0.17770000000E+01 0.  1.
</event>
<event>
 6    1  0.1226227E-002  0.1840170E+03  0.7546771E-02  0.1067254E+00
        -11   -1    0    0    0    0  0.00000000000E+00  0.00000000000E+00  0.18250000000E+03  0.18250000000E+03  0.00000000000E+00 0.  1.
         11   -1    0    0    0    0 -0.00000000000E+00 -0.00000000000E+00 -0.18250000000E+03  0.18250000000E+03  0.00000000000E+00 0. -1.
        -11    1    1    2    0    0 -0.41851910747E+01 -0.68019032729E+01  0.13581394319E+03  0.13604855338E+03  0.00000000000E+00 0.  1.
         11    1    1    2    0    0 -0.15449489526E+01  0.33816227618E+01 -0.18094482922E+03  0.18098301981E+03  0.00000000000E+00 0. -1.
        -15    1    1    2    0    0  0.13169307551E+01 -0.30863893110E+01  0.24179484781E+01  0.45015896565E+01  0.17770000000E+01 0.  1.
         15    1    1    2    0    0  0.44132092723E+01  0.65066698221E+01  0.42712937549E+02  0.43466837145E+02  0.17770000000E+01 0. -1.
</event>
<event>
 6    1  0.1226227E-002  0.1832844E+03  0.7546771E-02  0.1067832E+00
        -11   -1    0    0    0    0  0.00000000000E+00  0.00000000000E+00  0.18250000000E+03  0.18250000000E+03  0.00000000000E+00 0.  1.
         11   -1    0    0    0    0 -0.00000000000E+00 -0.00000000000E+00 -0.18250000000E+03  0.18250000000E+03  0.00000000000E+00 0. -1.
        -11    1    1    2    0    0 -0.44264968988E+01 -0.53675471708E+00  0.11787341017E+03  0.11795771618E+03  0.00000000000E+00 0.  1.
         11    1    1    2    0    0  0.10899279890E+01 -0.32173047473E+01 -0.18168384981E+03  0.18171560273E+03  0.00000000000E+00 0. -1.
        -15    1    1    2    0    0  0.38412118889E+01  0.12433993415E+01  0.60908152235E+02  0.61067681210E+02  0.17770000000E+01 0.  1.
         15    1    1    2    0    0 -0.50464297916E+00  0.25106601229E+01  0.29022874064E+01  0.42589998801E+01  0.17770000000E+01 0. -1.
</event>
<event>
 6    1  0.1226227E-002  0.1833037E+03  0.7546771E-02  0.1067817E+00
        -11   -1    0    0    0    0  0.00000000000E+00  0.00000000000E+00  0.18250000000E+03  0.18250000000E+03  0.00000000000E+00 0. -1.
         11   -1    0    0    0    0 -0.00000000000E+00 -0.00000000000E+00 -0.18250000000E+03  0.18250000000E+03  0.00000000000E+00 0. -1.
        -11    1    1    2    0    0  0.81459470933E+01 -0.11845172816E+02  0.18112673562E+03  0.18169633714E+03  0.00000000000E+00 0. -1.
         11    1    1    2    0    0 -0.21834836559E+01 -0.17016387723E+01 -0.40395727022E+02  0.40490467236E+02  0.00000000000E+00 0. -1.
        -15    1    1    2    0    0 -0.33443538557E+01  0.14207792918E+02 -0.52423766411E+02  0.54446809788E+02  0.17770000000E+01 0.  1.
         15    1    1    2    0    0 -0.26181095817E+01 -0.66098133043E+00 -0.88307242187E+02  0.88366385837E+02  0.17770000000E+01 0. -1.
</event>
<event>
 6    1  0.1226227E-002  0.1829463E+03  0.7546771E-02  0.1068100E+00
        -11   -1    0    0    0    0  0.00000000000E+00  0.00000000000E+00  0.18250000000E+03  0.18250000000E+03  0.00000000000E+00 0. -1.
         11   -1    0    0    0    0 -0.00000000000E+00 -0.00000000000E+00 -0.18250000000E+03  0.18250000000E+03  0.00000000000E+00 0. -1.
        -11    1    1    2    0    0 -0.26243213078E+01  0.54515877750E+01  0.18195310892E+03  0.18205367537E+03  0.00000000000E+00 0. -1.
         11    1    1    2    0    0  0.10834360701E+00  0.18164098155E+01 -0.10873049188E+03  0.10874571691E+03  0.00000000000E+00 0. -1.
        -15    1    1    2    0    0 -0.28415982952E+01 -0.10840382737E+01 -0.17330628704E+02  0.17684972155E+02  0.17770000000E+01 0.  1.
         15    1    1    2    0    0  0.53575759960E+01 -0.61839593168E+01 -0.55891988339E+02  0.56515635561E+02  0.17770000000E+01 0. -1.
</event>
<event>
 6    1  0.1226227E-002  0.1784728E+03  0.7546771E-02  0.1071706E+00
        -11   -1    0    0    0    0  0.00000000000E+00  0.00000000000E+00  0.18250000000E+03  0.18250000000E+03  0.00000000000E+00 0. -1.
         11   -1    0    0    0    0 -0.00000000000E+00 -0.00000000000E+00 -0.18250000000E+03  0.18250000000E+03  0.00000000000E+00 0.  1.
        -11    1    1    2    0    0  0.73079532140E+00 -0.33426419968E+01  0.17720923031E+03  0.17724225970E+03  0.00000000000E+00 0. -1.
         11    1    1    2    0    0  0.45184520572E+01  0.47836827676E+01 -0.17963257297E+03  0.17975305644E+03  0.00000000000E+00 0.  1.
        -15    1    1    2    0    0 -0.13714460439E+01 -0.11279940198E+01 -0.81382927199E+00  0.26406972268E+01  0.17770000000E+01 0. -1.
         15    1    1    2    0    0 -0.38778013348E+01 -0.31304675107E+00  0.32371719305E+01  0.53639866301E+01  0.17770000000E+01 0.  1.
</event>
<event>
 6    1  0.1226227E-002  0.1831901E+03  0.7546771E-02  0.1067907E+00
        -11   -1    0    0    0    0  0.00000000000E+00  0.00000000000E+00  0.18250000000E+03  0.18250000000E+03  0.00000000000E+00 0.  1.
         11   -1    0    0    0    0 -0.00000000000E+00 -0.00000000000E+00 -0.18250000000E+03  0.18250000000E+03  0.00000000000E+00 0. -1.
        -11    1    1    2    0    0  0.25873001284E+01 -0.17082661784E+01  0.12513634684E+02  0.12891987756E+02  0.00000000000E+00 0.  1.
         11    1    1    2    0    0 -0.22868503407E+01  0.18332254123E+01 -0.18178628708E+03  0.18180991329E+03  0.00000000000E+00 0. -1.
        -15    1    1    2    0    0 -0.31703044136E+00  0.32329081088E+01  0.16242468568E+03  0.16246688416E+03  0.17770000000E+01 0.  1.
         15    1    1    2    0    0  0.16580653666E-01 -0.33578673427E+01  0.68479667142E+01  0.78312147926E+01  0.17770000000E+01 0. -1.
</event>
<event>
 6    1  0.1226227E-002  0.1825817E+03  0.7546771E-02  0.1068390E+00
        -11   -1    0    0    0    0  0.00000000000E+00  0.00000000000E+00  0.18250000000E+03  0.18250000000E+03  0.00000000000E+00 0. -1.
         11   -1    0    0    0    0 -0.00000000000E+00 -0.00000000000E+00 -0.18250000000E+03  0.18250000000E+03  0.00000000000E+00 0.  1.
        -11    1    1    2    0    0 -0.67782700596E+00 -0.28675742314E-01  0.22682467201E+02  0.22692610914E+02  0.00000000000E+00 0. -1.
         11    1    1    2    0    0  0.14710090852E+01 -0.23153548272E+01 -0.18239771131E+03  0.18241833742E+03  0.00000000000E+00 0.  1.
        -15    1    1    2    0    0 -0.18509007652E+01  0.52973710082E+00  0.23427201924E+02  0.23573246998E+02  0.17770000000E+01 0.  1.
         15    1    1    2    0    0  0.10577186859E+01  0.18142934687E+01  0.13628804219E+03  0.13631580467E+03  0.17770000000E+01 0. -1.
</event>
<event>
 6    1  0.1226227E-002  0.2038429E+03  0.7546771E-02  0.1052631E+00
        -11   -1    0    0    0    0  0.00000000000E+00  0.00000000000E+00  0.18250000000E+03  0.18250000000E+03  0.00000000000E+00 0. -1.
         11   -1    0    0    0    0 -0.00000000000E+00 -0.00000000000E+00 -0.18250000000E+03  0.18250000000E+03  0.00000000000E+00 0.  1.
        -11    1    1    2    0    0  0.56072180690E+01 -0.17912008377E+01  0.14695831645E+03  0.14707615738E+03  0.00000000000E+00 0. -1.
         11    1    1    2    0    0 -0.19916487728E+00 -0.23796556505E+01 -0.16113942609E+03  0.16115711919E+03  0.00000000000E+00 0.  1.
        -15    1    1    2    0    0 -0.51382041846E+01 -0.63235713906E+00  0.34948984666E+02  0.35374995067E+02  0.17770000000E+01 0.  1.
         15    1    1    2    0    0 -0.26984900714E+00  0.48032136273E+01 -0.20767875035E+02  0.21391728357E+02  0.17770000000E+01 0. -1.
</event>
<event>
 6    1  0.1226227E-002  0.1836494E+03  0.7546771E-02  0.1067544E+00
        -11   -1    0    0    0    0  0.00000000000E+00  0.00000000000E+00  0.18250000000E+03  0.18250000000E+03  0.00000000000E+00 0. -1.
         11   -1    0    0    0    0 -0.00000000000E+00 -0.00000000000E+00 -0.18250000000E+03  0.18250000000E+03  0.00000000000E+00 0. -1.
        -11    1    1    2    0    0 -0.15537031698E+01 -0.22530479124E+01  0.18132998387E+03  0.18135063625E+03  0.00000000000E+00 0. -1.
         11    1    1    2    0    0  0.25668992532E+01  0.24701591830E+00 -0.17069241950E+03  0.17071189784E+03  0.00000000000E+00 0. -1.
        -15    1    1    2    0    0 -0.28113484088E+01 -0.86996990561E+00 -0.39973647559E+01  0.52723032447E+01  0.17770000000E+01 0. -1.
         15    1    1    2    0    0  0.17981523254E+01  0.28760018997E+01 -0.66401996163E+01  0.76651626634E+01  0.17770000000E+01 0. -1.
</event>
<event>
 6    1  0.1637757E-002  0.1884713E+03  0.7546771E-02  0.1063799E+00
        -11   -1    0    0    0    0  0.00000000000E+00  0.00000000000E+00  0.18250000000E+03  0.18250000000E+03  0.00000000000E+00 0.  1.
         11   -1    0    0    0    0 -0.00000000000E+00 -0.00000000000E+00 -0.18250000000E+03  0.18250000000E+03  0.00000000000E+00 0. -1.
        -11    1    1    2    0    0  0.16341563754E+01  0.20780159885E+01  0.17650886179E+03  0.17652865747E+03  0.00000000000E+00 0.  1.
         11    1    1    2    0    0 -0.18939156464E+01 -0.50849824095E+01 -0.16976188830E+03  0.16984858752E+03  0.00000000000E+00 0. -1.
        -15    1    1    2    0    0 -0.18928058754E+01 -0.11289453231E+01  0.50636695388E+01  0.58013541370E+01  0.17770000000E+01 0.  1.
         15    1    1    2    0    0  0.21525651464E+01  0.41359117442E+01 -0.11810643029E+02  0.12821400876E+02  0.17770000000E+01 0.  1.
</event>
<event>
 6    1  0.1226227E-002  0.1947025E+03  0.7546771E-02  0.1059136E+00
        -11   -1    0    0    0    0  0.00000000000E+00  0.00000000000E+00  0.18250000000E+03  0.18250000000E+03  0.00000000000E+00 0.  1.
         11   -1    0    0    0    0 -0.00000000000E+00 -0.00000000000E+00 -0.18250000000E+03  0.18250000000E+03  0.00000000000E+00 0. -1.
        -11    1    1    2    0    0  0.10755340511E+01  0.25037053593E+01  0.16753160765E+03  0.16755376712E+03  0.00000000000E+00 0.  1.
         11    1    1    2    0    0  0.27498286663E+01 -0.20455170216E+01 -0.17026298863E+03  0.17029747795E+03  0.00000000000E+00 0. -1.
        -15    1    1    2    0    0  0.30285276459E+01  0.73782841101E+01 -0.84592575368E+01  0.11761284929E+02  0.17770000000E+01 0.  1.
         15    1    1    2    0    0 -0.68538903633E+01 -0.78364724479E+01  0.11190638516E+02  0.15387469998E+02  0.17770000000E+01 0. -1.
</event>
<event>
 6    1  0.1226227E-002  0.1793842E+03  0.7546771E-02  0.1070962E+00
        -11   -1    0    0    0    0  0.00000000000E+00  0.00000000000E+00  0.18250000000E+03  0.18250000000E+03  0.00000000000E+00 0.  1.
         11   -1    0    0    0    0 -0.00000000000E+00 -0.00000000000E+00 -0.18250000000E+03  0.18250000000E+03  0.00000000000E+00 0. -1.
        -11    1    1    2    0    0  0.14709016125E+01 -0.66245933504E+00  0.65021997176E+01  0.66993287046E+01  0.00000000000E+00 0.  1.
         11    1    1    2    0    0 -0.13385253912E+02 -0.24058025986E+00 -0.18168156588E+03  0.18217413176E+03  0.00000000000E+00 0. -1.
        -15    1    1    2    0    0  0.12930727309E+01  0.58474273857E+01  0.71440327740E+02  0.71712917949E+02  0.17770000000E+01 0.  1.
         15    1    1    2    0    0  0.10621279569E+02 -0.49443877908E+01  0.10373903842E+03  0.10441362159E+03  0.17770000000E+01 0. -1.
</event>
<event>
 6    1  0.1226227E-002  0.1832906E+03  0.7546771E-02  0.1067827E+00
        -11   -1    0    0    0    0  0.00000000000E+00  0.00000000000E+00  0.18250000000E+03  0.18250000000E+03  0.00000000000E+00 0.  1.
         11   -1    0    0    0    0 -0.00000000000E+00 -0.00000000000E+00 -0.18250000000E+03  0.18250000000E+03  0.00000000000E+00 0. -1.
        -11    1    1    2    0    0 -0.22009199642E+01  0.29680161512E+01  0.15680061798E+03  0.15684414866E+03  0.00000000000E+00 0.  1.
         11    1    1    2    0    0 -0.12212818416E+01  0.23240587124E+01 -0.18169046340E+03  0.18170943087E+03  0.00000000000E+00 0. -1.
        -15    1    1    2    0    0  0.28401573476E+01 -0.48910385712E+01  0.11675610121E+02  0.13094516133E+02  0.17770000000E+01 0.  1.
         15    1    1    2    0    0  0.58204445820E+00 -0.40103629244E+00  0.13214235298E+02  0.13351904335E+02  0.17770000000E+01 0.  1.
</event>
<event>
 6    1  0.1226227E-002  0.1848638E+03  0.7546771E-02  0.1066589E+00
        -11   -1    0    0    0    0  0.00000000000E+00  0.00000000000E+00  0.18250000000E+03  0.18250000000E+03  0.00000000000E+00 0. -1.
         11   -1    0    0    0    0 -0.00000000000E+00 -0.00000000000E+00 -0.18250000000E+03  0.18250000000E+03  0.00000000000E+00 0.  1.
        -11    1    1    2    0    0 -0.83244348323E+01 -0.69908774465E+01  0.17980791658E+03  0.18013621359E+03  0.00000000000E+00 0. -1.
         11    1    1    2    0    0  0.53189358090E+01 -0.35131595153E+00 -0.14957529038E+03  0.14967024418E+03  0.00000000000E+00 0.  1.
        -15    1    1    2    0    0 -0.53618847244E+01 -0.12868691257E+01 -0.83317756687E+01  0.10148007427E+02  0.17770000000E+01 0.  1.
         15    1    1    2    0    0  0.83673837477E+01  0.86290625237E+01 -0.21900850526E+02  0.25045534804E+02  0.17770000000E+01 0. -1.
</event>
<event>
 6    1  0.1226227E-002  0.1840009E+03  0.7546771E-02  0.1067266E+00
        -11   -1    0    0    0    0  0.00000000000E+00  0.00000000000E+00  0.18250000000E+03  0.18250000000E+03  0.00000000000E+00 0.  1.
         11   -1    0    0    0    0 -0.00000000000E+00 -0.00000000000E+00 -0.18250000000E+03  0.18250000000E+03  0.00000000000E+00 0.  1.
        -11    1    1    2    0    0 -0.28640896817E+01 -0.11241881568E+02  0.18062690882E+03  0.18099906934E+03  0.00000000000E+00 0.  1.
         11    1    1    2    0    0  0.43453843832E+01 -0.87116785972E+00 -0.13204698872E+03  0.13212134017E+03  0.00000000000E+00 0.  1.
        -15    1    1    2    0    0  0.40507390776E+01  0.49260923566E+01 -0.86434063449E+01  0.10887657013E+02  0.17770000000E+01 0. -1.
         15    1    1    2    0    0 -0.55320337791E+01  0.71869570715E+01 -0.39936513759E+02  0.40991933474E+02  0.17770000000E+01 0.  1.
</event>
<event>
 6    1  0.1226227E-002  0.1885745E+03  0.7546771E-02  0.1063720E+00
        -11   -1    0    0    0    0  0.00000000000E+00  0.00000000000E+00  0.18250000000E+03  0.18250000000E+03  0.00000000000E+00 0.  1.
         11   -1    0    0    0    0 -0.00000000000E+00 -0.00000000000E+00 -0.18250000000E+03  0.18250000000E+03  0.00000000000E+00 0. -1.
        -11    1    1    2    0    0 -0.36710656311E+01  0.52389538713E+01  0.16757390067E+03  0.16769596162E+03  0.00000000000E+00 0.  1.
         11    1    1    2    0    0 -0.45630816743E+01 -0.50195335089E+01 -0.17629503039E+03  0.17642549468E+03  0.00000000000E+00 0. -1.
        -15    1    1    2    0    0  0.78044418141E+01 -0.40367817970E+01  0.12379224829E+02  0.15284235528E+02  0.17770000000E+01 0.  1.
         15    1    1    2    0    0  0.42970549136E+00  0.38173614345E+01 -0.36580951017E+01  0.55943081703E+01  0.17770000000E+01 0. -1.
</event>
<event>
 6    1  0.1226227E-002  0.1827791E+03  0.7546771E-02  0.1068233E+00
        -11   -1    0    0    0    0  0.00000000000E+00  0.00000000000E+00  0.18250000000E+03  0.18250000000E+03  0.00000000000E+00 0. -1.
         11   -1    0    0    0    0 -0.00000000000E+00 -0.00000000000E+00 -0.18250000000E+03  0.18250000000E+03  0.00000000000E+00 0. -1.
        -11    1    1    2    0    0  0.36426923196E+00 -0.81314458432E+00  0.29590447970E+02  0.29603859668E+02  0.00000000000E+00 0. -1.
         11    1    1    2    0    0 -0.36149568984E+01 -0.15454076774E+01 -0.18217852733E+03  0.18222094287E+03  0.00000000000E+00 0. -1.
        -15    1    1    2    0    0 -0.23237871527E+01 -0.19459147266E+01  0.15431631317E+02  0.15826545579E+02  0.17770000000E+01 0. -1.
         15    1    1    2    0    0  0.55744748191E+01  0.43044669884E+01  0.13715644805E+03  0.13734865189E+03  0.17770000000E+01 0. -1.
</event>
<event>
 6    1  0.1226227E-002  0.1831637E+03  0.7546771E-02  0.1067928E+00
        -11   -1    0    0    0    0  0.00000000000E+00  0.00000000000E+00  0.18250000000E+03  0.18250000000E+03  0.00000000000E+00 0.  1.
         11   -1    0    0    0    0 -0.00000000000E+00 -0.00000000000E+00 -0.18250000000E+03  0.18250000000E+03  0.00000000000E+00 0.  1.
        -11    1    1    2    0    0  0.62114237865E+00  0.40493439540E+01  0.18179013682E+03  0.18183629134E+03  0.00000000000E+00 0.  1.
         11    1    1    2    0    0 -0.27223808098E+00  0.13663167956E+01 -0.50721293863E+02  0.50740423592E+02  0.00000000000E+00 0.  1.
        -15    1    1    2    0    0  0.26340624521E+00 -0.11796228899E+01 -0.11798908095E+01  0.24516860188E+01  0.17770000000E+01 0. -1.
         15    1    1    2    0    0 -0.61231054288E+00 -0.42360378597E+01 -0.12988895215E+03  0.12997159905E+03  0.17770000000E+01 0.  1.
</event>
<event>
 6    1  0.1226227E-002  0.1869193E+03  0.7546771E-02  0.1064990E+00
        -11   -1    0    0    0    0  0.00000000000E+00  0.00000000000E+00  0.18250000000E+03  0.18250000000E+03  0.00000000000E+00 0. -1.
         11   -1    0    0    0    0 -0.00000000000E+00 -0.00000000000E+00 -0.18250000000E+03  0.18250000000E+03  0.00000000000E+00 0.  1.
        -11    1    1    2    0    0 -0.44388206776E+01  0.24453529659E+01  0.14907164461E+03  0.14915776247E+03  0.00000000000E+00 0. -1.
         11    1    1    2    0    0 -0.33581512541E+01 -0.30576316070E+01 -0.17802274269E+03  0.17808066488E+03  0.00000000000E+00 0.  1.
        -15    1    1    2    0    0 -0.52479641536E+01  0.15017571141E+01 -0.22004277265E+00  0.57447845921E+01  0.17770000000E+01 0.  1.
         15    1    1    2    0    0  0.13044936085E+02 -0.88947847297E+00  0.29171140856E+02  0.32016788054E+02  0.17770000000E+01 0. -1.
</event>
<event>
 6    1  0.1226227E-002  0.1826778E+03  0.7546771E-02  0.1068313E+00
        -11   -1    0    0    0    0  0.00000000000E+00  0.00000000000E+00  0.18250000000E+03  0.18250000000E+03  0.00000000000E+00 0.  1.
         11   -1    0    0    0    0 -0.00000000000E+00 -0.00000000000E+00 -0.18250000000E+03  0.18250000000E+03  0.00000000000E+00 0.  1.
        -11    1    1    2    0    0  0.10280507001E+02 -0.10802137354E+01  0.18202893774E+03  0.18232221440E+03  0.00000000000E+00 0.  1.
         11    1    1    2    0    0 -0.50745038113E+01  0.12839348057E+01 -0.12204931300E+03  0.12216150736E+03  0.00000000000E+00 0.  1.
        -15    1    1    2    0    0 -0.47000290423E+01  0.15505589502E+01 -0.46641660160E+02  0.46937156897E+02  0.17770000000E+01 0. -1.
         15    1    1    2    0    0 -0.50597414769E+00 -0.17542800205E+01 -0.13337964588E+02  0.13579121348E+02  0.17770000000E+01 0.  1.
</event>
<event>
 6    1  0.1226227E-002  0.1829389E+03  0.7546771E-02  0.1068106E+00
        -11   -1    0    0    0    0  0.00000000000E+00  0.00000000000E+00  0.18250000000E+03  0.18250000000E+03  0.00000000000E+00 0. -1.
         11   -1    0    0    0    0 -0.00000000000E+00 -0.00000000000E+00 -0.18250000000E+03  0.18250000000E+03  0.00000000000E+00 0.  1.
        -11    1    1    2    0    0 -0.24234158860E+01  0.82133129682E+00  0.14377117338E+03  0.14379394224E+03  0.00000000000E+00 0. -1.
         11    1    1    2    0    0 -0.21050915811E+01  0.23629732896E+01 -0.18203356618E+03  0.18206107291E+03  0.00000000000E+00 0.  1.
        -15    1    1    2    0    0  0.13258743713E+01  0.53788001983E+00  0.52808058973E+01  0.57525557528E+01  0.17770000000E+01 0. -1.
         15    1    1    2    0    0  0.32026330958E+01 -0.37221846063E+01  0.32981586909E+02  0.33392429098E+02  0.17770000000E+01 0.  1.
</event>
<event>
 6    1  0.1226227E-002  0.1848443E+03  0.7546771E-02  0.1066604E+00
        -11   -1    0    0    0    0  0.00000000000E+00  0.00000000000E+00  0.18250000000E+03  0.18250000000E+03  0.00000000000E+00 0.  1.
         11   -1    0    0    0    0 -0.00000000000E+00 -0.00000000000E+00 -0.18250000000E+03  0.18250000000E+03  0.00000000000E+00 0. -1.
        -11    1    1    2    0    0  0.16708940333E+01 -0.19548628811E+01  0.15046011248E+03  0.15048208805E+03  0.00000000000E+00 0.  1.
         11    1    1    2    0    0  0.13946465524E+01 -0.26394166344E+01 -0.18013095630E+03  0.18015569094E+03  0.00000000000E+00 0. -1.
        -15    1    1    2    0    0 -0.45705638067E+01 -0.42041888863E+01  0.53267824871E+01  0.83724308518E+01  0.17770000000E+01 0.  1.
         15    1    1    2    0    0  0.15050232210E+01  0.87984684018E+01  0.24344061338E+02  0.25989790159E+02  0.17770000000E+01 0. -1.
</event>
<event>
 6    1  0.1226227E-002  0.1751653E+03  0.7546771E-02  0.1074448E+00
        -11   -1    0    0    0    0  0.00000000000E+00  0.00000000000E+00  0.18250000000E+03  0.18250000000E+03  0.00000000000E+00 0.  1.
         11   -1    0    0    0    0 -0.00000000000E+00 -0.00000000000E+00 -0.18250000000E+03  0.18250000000E+03  0.00000000000E+00 0. -1.
        -11    1    1    2    0    0 -0.51654130809E+00 -0.76390311393E+01  0.17747793829E+03  0.17764301335E+03  0.00000000000E+00 0.  1.
         11    1    1    2    0    0 -0.23661389827E+01  0.13432346249E+00 -0.17279483588E+03  0.17281108750E+03  0.00000000000E+00 0. -1.
        -15    1    1    2    0    0  0.16590007888E+01  0.54863747033E+01  0.27099344004E+01  0.65843803396E+01  0.17770000000E+01 0. -1.
         15    1    1    2    0    0  0.12236795020E+01  0.20183329735E+01 -0.73930368148E+01  0.79615188162E+01  0.17770000000E+01 0. -1.
</event>
<event>
 6    1  0.1226227E-002  0.1736655E+03  0.7546771E-02  0.1075713E+00
        -11   -1    0    0    0    0  0.00000000000E+00  0.00000000000E+00  0.18250000000E+03  0.18250000000E+03  0.00000000000E+00 0. -1.
         11   -1    0    0    0    0 -0.00000000000E+00 -0.00000000000E+00 -0.18250000000E+03  0.18250000000E+03  0.00000000000E+00 0. -1.
        -11    1    1    2    0    0 -0.14699134142E+02  0.38470697558E+01  0.17667762298E+03  0.17732976894E+03  0.00000000000E+00 0. -1.
         11    1    1    2    0    0  0.40152694288E+01  0.27295437843E+01 -0.17021847582E+03  0.17028770452E+03  0.00000000000E+00 0. -1.
        -15    1    1    2    0    0  0.10640871582E+02 -0.49465496417E+01 -0.16233972368E+01  0.11978716499E+02  0.17770000000E+01 0.  1.
         15    1    1    2    0    0  0.42993131765E-01 -0.16300638984E+01 -0.48357499204E+01  0.54038100461E+01  0.17770000000E+01 0.  1.
</event>
<event>
 6    1  0.1226227E-002  0.1830979E+03  0.7546771E-02  0.1067980E+00
        -11   -1    0    0    0    0  0.00000000000E+00  0.00000000000E+00  0.18250000000E+03  0.18250000000E+03  0.00000000000E+00 0. -1.
         11   -1    0    0    0    0 -0.00000000000E+00 -0.00000000000E+00 -0.18250000000E+03  0.18250000000E+03  0.00000000000E+00 0.  1.
        -11    1    1    2    0    0 -0.12529864628E+00 -0.22216251124E+01  0.10920058693E+03  0.10922325533E+03  0.00000000000E+00 0. -1.
         11    1    1    2    0    0  0.72894764159E+01  0.20738752538E+01 -0.18174413341E+03  0.18190208205E+03  0.00000000000E+00 0.  1.
        -15    1    1    2    0    0 -0.78891167821E+01 -0.42674119978E+01  0.46822976440E+02  0.47707418924E+02  0.17770000000E+01 0. -1.
         15    1    1    2    0    0  0.72493901240E+00  0.44151618564E+01  0.25720570035E+02  0.26167243697E+02  0.17770000000E+01 0.  1.
</event>
<event>
 6    1  0.1226227E-002  0.1840697E+03  0.7546771E-02  0.1067212E+00
        -11   -1    0    0    0    0  0.00000000000E+00  0.00000000000E+00  0.18250000000E+03  0.18250000000E+03  0.00000000000E+00 0. -1.
         11   -1    0    0    0    0 -0.00000000000E+00 -0.00000000000E+00 -0.18250000000E+03  0.18250000000E+03  0.00000000000E+00 0. -1.
        -11    1    1    2    0    0  0.15874061686E+01  0.25798742995E+01  0.18090494017E+03  0.18093029870E+03  0.00000000000E+00 0. -1.
         11    1    1    2    0    0  0.34279799934E+01  0.14511409687E+01 -0.14862225776E+03  0.14866886815E+03  0.00000000000E+00 0. -1.
        -15    1    1    2    0    0 -0.13009226437E+01 -0.60705178257E+01 -0.63236383760E+01  0.90382364269E+01  0.17770000000E+01 0. -1.
         15    1    1    2    0    0 -0.37144635183E+01  0.20395025575E+01 -0.25959044035E+02  0.26362596726E+02  0.17770000000E+01 0. -1.
</event>
<event>
 6    1  0.1226227E-002  0.1850713E+03  0.7546771E-02  0.1066426E+00
        -11   -1    0    0    0    0  0.00000000000E+00  0.00000000000E+00  0.18250000000E+03  0.18250000000E+03  0.00000000000E+00 0. -1.
         11   -1    0    0    0    0 -0.00000000000E+00 -0.00000000000E+00 -0.18250000000E+03  0.18250000000E+03  0.00000000000E+00 0.  1.
        -11    1    1    2    0    0  0.61282232976E+01  0.19513487225E+01  0.17981370580E+03  0.17992868498E+03  0.00000000000E+00 0. -1.
         11    1    1    2    0    0  0.92828532448E+00 -0.46646796111E+01 -0.17395289759E+03  0.17401790577E+03  0.00000000000E+00 0.  1.
        -15    1    1    2    0    0 -0.44402354043E+01  0.32551130704E+01 -0.22102582747E+01  0.61930947182E+01  0.17770000000E+01 0.  1.
         15    1    1    2    0    0 -0.26162732177E+01 -0.54178218187E+00 -0.36505499411E+01  0.48603145325E+01  0.17770000000E+01 0. -1.
</event>
<event>
 6    1  0.1226227E-002  0.1830793E+03  0.7546771E-02  0.1067995E+00
        -11   -1    0    0    0    0  0.00000000000E+00  0.00000000000E+00  0.18250000000E+03  0.18250000000E+03  0.00000000000E+00 0.  1.
         11   -1    0    0    0    0 -0.00000000000E+00 -0.00000000000E+00 -0.18250000000E+03  0.18250000000E+03  0.00000000000E+00 0. -1.
        -11    1    1    2    0    0  0.11044328681E+01 -0.28275033583E+01  0.18189533405E+03  0.18192066155E+03  0.00000000000E+00 0.  1.
         11    1    1    2    0    0  0.19981419726E+01 -0.37366971697E+00 -0.14498863920E+03  0.14500288859E+03  0.00000000000E+00 0. -1.
        -15    1    1    2    0    0 -0.31252508356E+01  0.14047826101E+01 -0.34027227077E+02  0.34245445222E+02  0.17770000000E+01 0.  1.
         15    1    1    2    0    0  0.22675994872E-01  0.17963904651E+01 -0.28794677736E+01  0.38310046414E+01  0.17770000000E+01 0. -1.
</event>
<event>
 6    1  0.1226227E-002  0.1837239E+03  0.7546771E-02  0.1067485E+00
        -11   -1    0    0    0    0  0.00000000000E+00  0.00000000000E+00  0.18250000000E+03  0.18250000000E+03  0.00000000000E+00 0.  1.
         11   -1    0    0    0    0 -0.00000000000E+00 -0.00000000000E+00 -0.18250000000E+03  0.18250000000E+03  0.00000000000E+00 0. -1.
        -11    1    1    2    0    0 -0.50333483904E+00 -0.24558058729E+01  0.18125878214E+03  0.18127611655E+03  0.00000000000E+00 0.  1.
         11    1    1    2    0    0 -0.38695228289E+01  0.15340838233E+01 -0.16226935137E+03  0.16232273104E+03  0.00000000000E+00 0. -1.
        -15    1    1    2    0    0 -0.22012518932E+01  0.95191543368E+00 -0.70542115053E+01  0.76597181313E+01  0.17770000000E+01 0. -1.
         15    1    1    2    0    0  0.65741095612E+01 -0.30193384121E-01 -0.11935219266E+02  0.13741434280E+02  0.17770000000E+01 0.  1.
</event>
<event>
 6    1  0.1226227E-002  0.1828465E+03  0.7546771E-02  0.1068179E+00
        -11   -1    0    0    0    0  0.00000000000E+00  0.00000000000E+00  0.18250000000E+03  0.18250000000E+03  0.00000000000E+00 0. -1.
         11   -1    0    0    0    0 -0.00000000000E+00 -0.00000000000E+00 -0.18250000000E+03  0.18250000000E+03  0.00000000000E+00 0. -1.
        -11    1    1    2    0    0  0.12759617301E+01 -0.13447929911E+01  0.98071565204E+02  0.98089084246E+02  0.00000000000E+00 0. -1.
         11    1    1    2    0    0  0.67777123447E+01  0.21215668942E+01 -0.18201498351E+03  0.18215348652E+03  0.00000000000E+00 0. -1.
        -15    1    1    2    0    0 -0.13639557144E+01  0.18824230094E+01  0.46199012675E+02  0.46291580149E+02  0.17770000000E+01 0. -1.
         15    1    1    2    0    0 -0.66897183605E+01 -0.26591969124E+01  0.37744405632E+02  0.38465849080E+02  0.17770000000E+01 0. -1.
</event>
<event>
 6    1  0.1226227E-002  0.1834946E+03  0.7546771E-02  0.1067666E+00
        -11   -1    0    0    0    0  0.00000000000E+00  0.00000000000E+00  0.18250000000E+03  0.18250000000E+03  0.00000000000E+00 0.  1.
         11   -1    0    0    0    0 -0.00000000000E+00 -0.00000000000E+00 -0.18250000000E+03  0.18250000000E+03  0.00000000000E+00 0. -1.
        -11    1    1    2    0    0  0.55835625049E+01 -0.35343363022E+01  0.14354795812E+03  0.14369997907E+03  0.00000000000E+00 0.  1.
         11    1    1    2    0    0 -0.36871026453E+01  0.48389722691E+01 -0.18140341036E+03  0.18150539294E+03  0.00000000000E+00 0. -1.
        -15    1    1    2    0    0 -0.63543705127E-01 -0.38900565405E+01  0.43779100897E+01  0.61204904579E+01  0.17770000000E+01 0. -1.
         15    1    1    2    0    0 -0.18329161544E+01  0.25854205736E+01  0.33477542148E+02  0.33674137531E+02  0.17770000000E+01 0.  1.
</event>
<event>
 6    1  0.1226227E-002  0.1828031E+03  0.7546771E-02  0.1068214E+00
        -11   -1    0    0    0    0  0.00000000000E+00  0.00000000000E+00  0.18250000000E+03  0.18250000000E+03  0.00000000000E+00 0. -1.
         11   -1    0    0    0    0 -0.00000000000E+00 -0.00000000000E+00 -0.18250000000E+03  0.18250000000E+03  0.00000000000E+00 0. -1.
        -11    1    1    2    0    0  0.16326531505E+01  0.88386315014E+00  0.11788173704E+03  0.11789635575E+03  0.00000000000E+00 0. -1.
         11    1    1    2    0    0 -0.10950896372E+01 -0.50341996830E+01 -0.18212401148E+03  0.18219686590E+03  0.00000000000E+00 0. -1.
        -15    1    1    2    0    0 -0.36588368044E+01  0.37694470247E+01  0.43548205164E+02  0.43899882911E+02  0.17770000000E+01 0. -1.
         15    1    1    2    0    0  0.31212732911E+01  0.38088950819E+00  0.20694069272E+02  0.21006895435E+02  0.17770000000E+01 0.  1.
</event>
<event>
 6    1  0.1226227E-002  0.1630883E+03  0.7546771E-02  0.1085051E+00
        -11   -1    0    0    0    0  0.00000000000E+00  0.00000000000E+00  0.18250000000E+03  0.18250000000E+03  0.00000000000E+00 0. -1.
         11   -1    0    0    0    0 -0.00000000000E+00 -0.00000000000E+00 -0.18250000000E+03  0.18250000000E+03  0.00000000000E+00 0. -1.
        -11    1    1    2    0    0 -0.17100342895E+01  0.18120648774E+01  0.16090060303E+03  0.16091989265E+03  0.00000000000E+00 0. -1.
         11    1    1    2    0    0 -0.10578490133E+02  0.25114474871E+02 -0.16437158349E+03  0.16661530170E+03  0.00000000000E+00 0. -1.
        -15    1    1    2    0    0  0.12763135137E+02 -0.26586905205E+02 -0.39533318996E+01  0.29808517390E+02  0.17770000000E+01 0.  1.
         15    1    1    2    0    0 -0.47461071455E+00 -0.33963454361E+00  0.74243123565E+01  0.76562882600E+01  0.17770000000E+01 0.  1.
</event>
<event>
 6    1  0.1226227E-002  0.1828497E+03  0.7546771E-02  0.1068177E+00
        -11   -1    0    0    0    0  0.00000000000E+00  0.00000000000E+00  0.18250000000E+03  0.18250000000E+03  0.00000000000E+00 0. -1.
         11   -1    0    0    0    0 -0.00000000000E+00 -0.00000000000E+00 -0.18250000000E+03  0.18250000000E+03  0.00000000000E+00 0.  1.
        -11    1    1    2    0    0  0.11913328627E+01 -0.38279492583E+01  0.14906898713E+03  0.14912288689E+03  0.00000000000E+00 0. -1.
         11    1    1    2    0    0 -0.36179407784E+01  0.11272903136E+00 -0.18211437030E+03  0.18215033921E+03  0.00000000000E+00 0.  1.
        -15    1    1    2    0    0  0.12049197004E+01  0.83918691564E-01  0.16985451950E+02  0.17120811336E+02  0.17770000000E+01 0.  1.
         15    1    1    2    0    0  0.12216882153E+01  0.36313015353E+01  0.16059931222E+02  0.16605962567E+02  0.17770000000E+01 0. -1.
</event>
<event>
 6    1  0.1226227E-002  0.1853307E+03  0.7546771E-02  0.1066224E+00
        -11   -1    0    0    0    0  0.00000000000E+00  0.00000000000E+00  0.18250000000E+03  0.18250000000E+03  0.00000000000E+00 0.  1.
         11   -1    0    0    0    0 -0.00000000000E+00 -0.00000000000E+00 -0.18250000000E+03  0.18250000000E+03  0.00000000000E+00 0.  1.
        -11    1    1    2    0    0  0.36558150041E+01 -0.18319828466E+01  0.17962274875E+03  0.17966928789E+03  0.00000000000E+00 0.  1.
         11    1    1    2    0    0 -0.38308985772E+01 -0.26975561962E+01 -0.17585640048E+03  0.17591880565E+03  0.00000000000E+00 0.  1.
        -15    1    1    2    0    0 -0.23331145569E+01  0.10774853247E+01  0.44851215453E+00  0.31564680124E+01  0.17770000000E+01 0. -1.
         15    1    1    2    0    0  0.25081981300E+01  0.34520537182E+01 -0.42148604201E+01  0.62554384414E+01  0.17770000000E+01 0.  1.
</event>
<event>
 6    1  0.1226227E-002  0.1602786E+03  0.7546771E-02  0.1087662E+00
        -11   -1    0    0    0    0  0.00000000000E+00  0.00000000000E+00  0.18250000000E+03  0.18250000000E+03  0.00000000000E+00 0.  1.
         11   -1    0    0    0    0 -0.00000000000E+00 -0.00000000000E+00 -0.18250000000E+03  0.18250000000E+03  0.00000000000E+00 0.  1.
        -11    1    1    2    0    0 -0.12068711669E+02 -0.24166467292E+02  0.15320844460E+03  0.15557152516E+03  0.00000000000E+00 0.  1.
         11    1    1    2    0    0  0.65544370455E+00  0.26764114393E+01 -0.16614528497E+03  0.16616813324E+03  0.00000000000E+00 0.  1.
        -15    1    1    2    0    0 -0.13007314840E+01  0.59926528993E+00 -0.96539702371E+01  0.99200751822E+01  0.17770000000E+01 0. -1.
         15    1    1    2    0    0  0.12713999448E+02  0.20890790562E+02  0.22590810604E+02  0.33340266422E+02  0.17770000000E+01 0. -1.
</event>
<event>
 6    1  0.1226227E-002  0.1826983E+03  0.7546771E-02  0.1068297E+00
        -11   -1    0    0    0    0  0.00000000000E+00  0.00000000000E+00  0.18250000000E+03  0.18250000000E+03  0.00000000000E+00 0.  1.
         11   -1    0    0    0    0 -0.00000000000E+00 -0.00000000000E+00 -0.18250000000E+03  0.18250000000E+03  0.00000000000E+00 0.  1.
        -11    1    1    2    0    0  0.37394416410E+01  0.36123958575E+00  0.18226294797E+03  0.18230166242E+03  0.00000000000E+00 0.  1.
         11    1    1    2    0    0  0.36430735579E+00 -0.10046518918E+01 -0.71504986300E+02  0.71512971628E+02  0.00000000000E+00 0.  1.
        -15    1    1    2    0    0  0.14727149109E+01  0.15076476781E+01 -0.15454270639E+02  0.15698219667E+02  0.17770000000E+01 0.  1.
         15    1    1    2    0    0 -0.55764639077E+01 -0.86423537208E+00 -0.95303691032E+02  0.95487146285E+02  0.17770000000E+01 0.  1.
</event>
<event>
 6    1  0.1226227E-002  0.1853926E+03  0.7546771E-02  0.1066175E+00
        -11   -1    0    0    0    0  0.00000000000E+00  0.00000000000E+00  0.18250000000E+03  0.18250000000E+03  0.00000000000E+00 0.  1.
         11   -1    0    0    0    0 -0.00000000000E+00 -0.00000000000E+00 -0.18250000000E+03  0.18250000000E+03  0.00000000000E+00 0. -1.
        -11    1    1    2    0    0  0.15489391492E+01 -0.75703145470E+00  0.26705922749E+02  0.26761513765E+02  0.00000000000E+00 0.  1.
         11    1    1    2    0    0 -0.28463131966E+01  0.32030926413E+01 -0.17955625837E+03  0.17960738075E+03  0.00000000000E+00 0. -1.
        -15    1    1    2    0    0 -0.28139654353E+00 -0.12218394266E+01 -0.24681456315E+01  0.32896120527E+01  0.17770000000E+01 0. -1.
         15    1    1    2    0    0  0.15787705910E+01 -0.12242217600E+01  0.15531848125E+03  0.15534149343E+03  0.17770000000E+01 0.  1.
</event>
<event>
 6    1  0.1226227E-002  0.1860256E+03  0.7546771E-02  0.1065683E+00
        -11   -1    0    0    0    0  0.00000000000E+00  0.00000000000E+00  0.18250000000E+03  0.18250000000E+03  0.00000000000E+00 0. -1.
         11   -1    0    0    0    0 -0.00000000000E+00 -0.00000000000E+00 -0.18250000000E+03  0.18250000000E+03  0.00000000000E+00 0. -1.
        -11    1    1    2    0    0  0.37463107969E+01  0.68798500175E+00  0.17893386992E+03  0.17897440591E+03  0.00000000000E+00 0. -1.
         11    1    1    2    0    0 -0.14736648822E+01 -0.77359708277E+00 -0.11511087603E+03  0.11512290789E+03  0.00000000000E+00 0. -1.
        -15    1    1    2    0    0 -0.34003732765E+01  0.55851891278E+01  0.32647137716E-01  0.67761103038E+01  0.17770000000E+01 0.  1.
         15    1    1    2    0    0  0.11277273618E+01 -0.54995770468E+01 -0.63855641027E+02  0.64126575900E+02  0.17770000000E+01 0. -1.
</event>
<event>
 6    1  0.1226227E-002  0.1839091E+03  0.7546771E-02  0.1067339E+00
        -11   -1    0    0    0    0  0.00000000000E+00  0.00000000000E+00  0.18250000000E+03  0.18250000000E+03  0.00000000000E+00 0.  1.
         11   -1    0    0    0    0 -0.00000000000E+00 -0.00000000000E+00 -0.18250000000E+03  0.18250000000E+03  0.00000000000E+00 0.  1.
        -11    1    1    2    0    0 -0.74749219266E+00 -0.55508922407E+01  0.15584490199E+03  0.15594551814E+03  0.00000000000E+00 0.  1.
         11    1    1    2    0    0 -0.30162422604E+01 -0.42109802766E+01 -0.18101678125E+03  0.18109087544E+03  0.00000000000E+00 0.  1.
        -15    1    1    2    0    0  0.46377244932E+01  0.74986410766E+01  0.16608309036E+02  0.18887344030E+02  0.17770000000E+01 0.  1.
         15    1    1    2    0    0 -0.87399004012E+00  0.22632314407E+01  0.85635702210E+01  0.90762623957E+01  0.17770000000E+01 0. -1.
</event>
<event>
 6    1  0.1226227E-002  0.1828604E+03  0.7546771E-02  0.1068168E+00
        -11   -1    0    0    0    0  0.00000000000E+00  0.00000000000E+00  0.18250000000E+03  0.18250000000E+03  0.00000000000E+00 0.  1.
         11   -1    0    0    0    0 -0.00000000000E+00 -0.00000000000E+00 -0.18250000000E+03  0.18250000000E+03  0.00000000000E+00 0. -1.
        -11    1    1    2    0    0  0.11669369887E+01  0.38673743574E+00  0.97952599769E+01  0.98721034129E+01  0.00000000000E+00 0.  1.
         11    1    1    2    0    0 -0.63741736419E+01  0.12315306762E+02 -0.18161097445E+03  0.18213962476E+03  0.00000000000E+00 0. -1.
        -15    1    1    2    0    0  0.30119377530E+01 -0.15641080241E+02  0.13559438503E+03  0.13653831016E+03  0.17770000000E+01 0.  1.
         15    1    1    2    0    0  0.21952989002E+01  0.29390360436E+01  0.36221329440E+02  0.36449961667E+02  0.17770000000E+01 0. -1.
</event>
<event>
 6    1  0.1226227E-002  0.1941678E+03  0.7546771E-02  0.1059529E+00
        -11   -1    0    0    0    0  0.00000000000E+00  0.00000000000E+00  0.18250000000E+03  0.18250000000E+03  0.00000000000E+00 0. -1.
         11   -1    0    0    0    0 -0.00000000000E+00 -0.00000000000E+00 -0.18250000000E+03  0.18250000000E+03  0.00000000000E+00 0. -1.
        -11    1    1    2    0    0 -0.22024805375E+01 -0.20338815170E+01  0.17080589419E+03  0.17083220154E+03  0.00000000000E+00 0. -1.
         11    1    1    2    0    0 -0.99624727962E+01 -0.14815445859E+02 -0.10632556408E+03  0.10781407087E+03  0.00000000000E+00 0. -1.
        -15    1    1    2    0    0  0.79942601115E+01  0.14563976989E+02  0.44066876325E+01  0.17279879784E+02  0.17770000000E+01 0.  1.
         15    1    1    2    0    0  0.41706932222E+01  0.22853503870E+01 -0.68887017739E+02  0.69073847803E+02  0.17770000000E+01 0. -1.
</event>
<event>
 6    1  0.1226227E-002  0.1859865E+03  0.7546771E-02  0.1065713E+00
        -11   -1    0    0    0    0  0.00000000000E+00  0.00000000000E+00  0.18250000000E+03  0.18250000000E+03  0.00000000000E+00 0. -1.
         11   -1    0    0    0    0 -0.00000000000E+00 -0.00000000000E+00 -0.18250000000E+03  0.18250000000E+03  0.00000000000E+00 0. -1.
        -11    1    1    2    0    0  0.73961224384E+00  0.51908936625E+01  0.17272714973E+03  0.17280671473E+03  0.00000000000E+00 0. -1.
         11    1    1    2    0    0 -0.40642775210E+01  0.85969319034E+00 -0.17896525533E+03  0.17901346329E+03  0.00000000000E+00 0. -1.
        -15    1    1    2    0    0  0.18030900291E+01 -0.15733124561E+01 -0.19478320006E+01  0.35606494127E+01  0.17770000000E+01 0. -1.
         15    1    1    2    0    0  0.15215752481E+01 -0.44772743968E+01  0.81859376048E+01  0.96191725595E+01  0.17770000000E+01 0.  1.
</event>
<event>
 6    1  0.1226227E-002  0.1829609E+03  0.7546771E-02  0.1068089E+00
        -11   -1    0    0    0    0  0.00000000000E+00  0.00000000000E+00  0.18250000000E+03  0.18250000000E+03  0.00000000000E+00 0.  1.
         11   -1    0    0    0    0 -0.00000000000E+00 -0.00000000000E+00 -0.18250000000E+03  0.18250000000E+03  0.00000000000E+00 0.  1.
        -11    1    1    2    0    0  0.27630553761E+01 -0.57662304179E-01  0.18201813147E+03  0.18203911114E+03  0.00000000000E+00 0.  1.
         11    1    1    2    0    0  0.17133037762E+01  0.23287280828E+01 -0.15222716447E+03  0.15225461565E+03  0.00000000000E+00 0.  1.
        -15    1    1    2    0    0 -0.25457831902E+00 -0.18649355130E+01 -0.71780526964E+01  0.76305284287E+01  0.17770000000E+01 0. -1.
         15    1    1    2    0    0 -0.42217808332E+01 -0.40613026562E+00 -0.22612914298E+02  0.23075744782E+02  0.17770000000E+01 0. -1.
</event>
<event>
 6    1  0.1226227E-002  0.1844105E+03  0.7546771E-02  0.1066944E+00
        -11   -1    0    0    0    0  0.00000000000E+00  0.00000000000E+00  0.18250000000E+03  0.18250000000E+03  0.00000000000E+00 0.  1.
         11   -1    0    0    0    0 -0.00000000000E+00 -0.00000000000E+00 -0.18250000000E+03  0.18250000000E+03  0.00000000000E+00 0. -1.
        -11    1    1    2    0    0  0.33995418092E+01 -0.75662928692E+00  0.18055592899E+03  0.18058951483E+03  0.00000000000E+00 0.  1.
         11    1    1    2    0    0 -0.22423394058E+01 -0.28054290269E+00 -0.16565177003E+03  0.16566718355E+03  0.00000000000E+00 0. -1.
        -15    1    1    2    0    0 -0.24333918366E+01 -0.71331874036E+00 -0.15560471850E+02  0.15865567517E+02  0.17770000000E+01 0.  1.
         15    1    1    2    0    0  0.12761894332E+01  0.17504909300E+01  0.65631289163E+00  0.28777341047E+01  0.17770000000E+01 0. -1.
</event>
<event>
 6    1  0.1226227E-002  0.1902613E+03  0.7546771E-02  0.1062439E+00
        -11   -1    0    0    0    0  0.00000000000E+00  0.00000000000E+00  0.18250000000E+03  0.18250000000E+03  0.00000000000E+00 0. -1.
         11   -1    0    0    0    0 -0.00000000000E+00 -0.00000000000E+00 -0.18250000000E+03  0.18250000000E+03  0.00000000000E+00 0. -1.
        -11    1    1    2    0    0  0.24833184223E+00 -0.25687361673E+01  0.15472112044E+03  0.15474264178E+03  0.00000000000E+00 0. -1.
         11    1    1    2    0    0 -0.25536499271E+01  0.11082833001E+01 -0.17471651107E+03  0.17473868679E+03  0.00000000000E+00 0. -1.
        -15    1    1    2    0    0 -0.20081383059E+01 -0.28553913520E+01  0.26286161014E+02  0.26576415655E+02  0.17770000000E+01 0. -1.
         15    1    1    2    0    0  0.43134563908E+01  0.43158442192E+01 -0.62907703843E+01  0.89422557774E+01  0.17770000000E+01 0.  1.
</event>
<event>
 6    1  0.1226227E-002  0.1885787E+03  0.7546771E-02  0.1063717E+00
        -11   -1    0    0    0    0  0.00000000000E+00  0.00000000000E+00  0.18250000000E+03  0.18250000000E+03  0.00000000000E+00 0. -1.
         11   -1    0    0    0    0 -0.00000000000E+00 -0.00000000000E+00 -0.18250000000E+03  0.18250000000E+03  0.00000000000E+00 0. -1.
        -11    1    1    2    0    0 -0.16323050507E+01 -0.27800007521E+01  0.82655678236E+02  0.82718522524E+02  0.00000000000E+00 0. -1.
         11    1    1    2    0    0  0.11229642033E+02 -0.17410228495E+02 -0.17520056355E+03  0.17642125265E+03  0.00000000000E+00 0. -1.
        -15    1    1    2    0    0 -0.58072641371E+01  0.61825740538E+01 -0.30245661613E+01  0.91790123735E+01  0.17770000000E+01 0. -1.
         15    1    1    2    0    0 -0.37900728451E+01  0.14007655193E+02  0.95569451480E+02  0.96681212453E+02  0.17770000000E+01 0.  1.
</event>
<event>
 6    1  0.1226227E-002  0.1849490E+03  0.7546771E-02  0.1066522E+00
        -11   -1    0    0    0    0  0.00000000000E+00  0.00000000000E+00  0.18250000000E+03  0.18250000000E+03  0.00000000000E+00 0.  1.
         11   -1    0    0    0    0 -0.00000000000E+00 -0.00000000000E+00 -0.18250000000E+03  0.18250000000E+03  0.00000000000E+00 0. -1.
        -11    1    1    2    0    0  0.24629147960E+01  0.13722411063E+00  0.17316937066E+03  0.17318693864E+03  0.00000000000E+00 0.  1.
         11    1    1    2    0    0  0.74787271127E+00  0.28336188217E+01 -0.18002719189E+03  0.18005104423E+03  0.00000000000E+00 0. -1.
        -15    1    1    2    0    0 -0.44059646690E+01 -0.16056984654E+01  0.65249226242E+00  0.50571006890E+01  0.17770000000E+01 0. -1.
         15    1    1    2    0    0  0.11951771617E+01 -0.13651444670E+01  0.62053289665E+01  0.67049164384E+01  0.17770000000E+01 0.  1.
</event>
<event>
 6    1  0.1226227E-002  0.1847685E+03  0.7546771E-02  0.1066663E+00
        -11   -1    0    0    0    0  0.00000000000E+00  0.00000000000E+00  0.18250000000E+03  0.18250000000E+03  0.00000000000E+00 0. -1.
         11   -1    0    0    0    0 -0.00000000000E+00 -0.00000000000E+00 -0.18250000000E+03  0.18250000000E+03  0.00000000000E+00 0.  1.
        -11    1    1    2    0    0 -0.25154217934E+01  0.13347560310E+02  0.17971901342E+03  0.18023154135E+03  0.00000000000E+00 0. -1.
         11    1    1    2    0    0  0.87031683606E-01 -0.73707345288E+00 -0.43046283161E+02  0.43052681052E+02  0.00000000000E+00 0.  1.
        -15    1    1    2    0    0  0.90718572261E+01 -0.23111360220E+02 -0.88379359734E+02  0.91817768001E+02  0.17770000000E+01 0.  1.
         15    1    1    2    0    0 -0.66434671163E+01  0.10500873363E+02 -0.48293370521E+02  0.49898009600E+02  0.17770000000E+01 0. -1.
</event>
<event>
 6    1  0.1226227E-002  0.1829679E+03  0.7546771E-02  0.1068083E+00
        -11   -1    0    0    0    0  0.00000000000E+00  0.00000000000E+00  0.18250000000E+03  0.18250000000E+03  0.00000000000E+00 0. -1.
         11   -1    0    0    0    0 -0.00000000000E+00 -0.00000000000E+00 -0.18250000000E+03  0.18250000000E+03  0.00000000000E+00 0.  1.
        -11    1    1    2    0    0 -0.12649359822E+01  0.22287410532E+01  0.18201409553E+03  0.18203213541E+03  0.00000000000E+00 0. -1.
         11    1    1    2    0    0 -0.31528045922E+01 -0.57015614632E+01 -0.12478556468E+03  0.12495553262E+03  0.00000000000E+00 0.  1.
        -15    1    1    2    0    0  0.43204570368E+01  0.42611741899E+01 -0.27390161230E+02  0.28110542785E+02  0.17770000000E+01 0. -1.
         15    1    1    2    0    0  0.97283537530E-01 -0.78835377992E+00 -0.29838369619E+02  0.29901789182E+02  0.17770000000E+01 0.  1.
</event>
<event>
 6    1  0.1226227E-002  0.2001055E+03  0.7546771E-02  0.1055245E+00
        -11   -1    0    0    0    0  0.00000000000E+00  0.00000000000E+00  0.18250000000E+03  0.18250000000E+03  0.00000000000E+00 0. -1.
         11   -1    0    0    0    0 -0.00000000000E+00 -0.00000000000E+00 -0.18250000000E+03  0.18250000000E+03  0.00000000000E+00 0.  1.
        -11    1    1    2    0    0  0.37284949858E+01  0.14296934105E+00  0.16485226639E+03  0.16489448702E+03  0.00000000000E+00 0. -1.
         11    1    1    2    0    0  0.13393674479E+02 -0.14473717817E+02 -0.12634640725E+03  0.12787608709E+03  0.00000000000E+00 0.  1.
        -15    1    1    2    0    0 -0.24945334836E+02  0.25606417082E+02 -0.44534191907E+02  0.57135018191E+02  0.17770000000E+01 0. -1.
         15    1    1    2    0    0  0.78231653714E+01 -0.11275668606E+02  0.60283327724E+01  0.15094407705E+02  0.17770000000E+01 0.  1.
</event>
<event>
 6    1  0.1226227E-002  0.1909897E+03  0.7546771E-02  0.1061891E+00
        -11   -1    0    0    0    0  0.00000000000E+00  0.00000000000E+00  0.18250000000E+03  0.18250000000E+03  0.00000000000E+00 0.  1.
         11   -1    0    0    0    0 -0.00000000000E+00 -0.00000000000E+00 -0.18250000000E+03  0.18250000000E+03  0.00000000000E+00 0. -1.
        -11    1    1    2    0    0  0.91124542245E+00 -0.23935524978E+01  0.17399144501E+03  0.17401029394E+03  0.00000000000E+00 0.  1.
         11    1    1    2    0    0 -0.61993536983E+01  0.13817249316E+01 -0.16380249894E+03  0.16392559229E+03  0.00000000000E+00 0. -1.
        -15    1    1    2    0    0  0.21029725818E+01  0.12536644657E+02 -0.67194510786E+01  0.14487881306E+02  0.17770000000E+01 0.  1.
         15    1    1    2    0    0  0.31851356940E+01 -0.11524817091E+02 -0.34694949922E+01  0.12576232459E+02  0.17770000000E+01 0. -1.
</event>
<event>
 6    1  0.1226227E-002  0.1957440E+03  0.7546771E-02  0.1058376E+00
        -11   -1    0    0    0    0  0.00000000000E+00  0.00000000000E+00  0.18250000000E+03  0.18250000000E+03  0.00000000000E+00 0.  1.
         11   -1    0    0    0    0 -0.00000000000E+00 -0.00000000000E+00 -0.18250000000E+03  0.18250000000E+03  0.00000000000E+00 0.  1.
        -11    1    1    2    0    0  0.84540433066E+00 -0.27294235893E+01  0.16573735836E+03  0.16576198726E+03  0.00000000000E+00 0.  1.
         11    1    1    2    0    0 -0.30106870589E+01  0.20945764159E+01 -0.16921626295E+03  0.16925600472E+03  0.00000000000E+00 0.  1.
        -15    1    1    2    0    0 -0.38686453960E+01  0.16398392979E+01  0.15619319236E+02  0.16271949868E+02  0.17770000000E+01 0. -1.
         15    1    1    2    0    0  0.60339281242E+01 -0.10049921245E+01 -0.12140414651E+02  0.13710058158E+02  0.17770000000E+01 0.  1.
</event>
<event>
 6    1  0.1226227E-002  0.1825465E+03  0.7546771E-02  0.1068418E+00
        -11   -1    0    0    0    0  0.00000000000E+00  0.00000000000E+00  0.18250000000E+03  0.18250000000E+03  0.00000000000E+00 0. -1.
         11   -1    0    0    0    0 -0.00000000000E+00 -0.00000000000E+00 -0.18250000000E+03  0.18250000000E+03  0.00000000000E+00 0. -1.
        -11    1    1    2    0    0  0.25279910271E+00  0.10391767084E+01  0.45871908209E+02  0.45884373793E+02  0.00000000000E+00 0. -1.
         11    1    1    2    0    0 -0.26135840476E+01  0.30878506712E+00 -0.18243449437E+03  0.18245347600E+03  0.00000000000E+00 0. -1.
        -15    1    1    2    0    0  0.10244561694E+01 -0.24523254825E+00  0.96884904148E+02  0.96906924573E+02  0.17770000000E+01 0. -1.
         15    1    1    2    0    0  0.13363287755E+01 -0.11027292272E+01  0.39677682011E+02  0.39755225632E+02  0.17770000000E+01 0.  1.
</event>
<event>
 6    1  0.1226227E-002  0.1843354E+03  0.7546771E-02  0.1067003E+00
        -11   -1    0    0    0    0  0.00000000000E+00  0.00000000000E+00  0.18250000000E+03  0.18250000000E+03  0.00000000000E+00 0. -1.
         11   -1    0    0    0    0 -0.00000000000E+00 -0.00000000000E+00 -0.18250000000E+03  0.18250000000E+03  0.00000000000E+00 0.  1.
        -11    1    1    2    0    0  0.58013520433E-01 -0.44874580028E+01  0.14158749507E+03  0.14165860159E+03  0.00000000000E+00 0. -1.
         11    1    1    2    0    0  0.14012086155E+00 -0.58826195840E+01 -0.18056876821E+03  0.18066461994E+03  0.00000000000E+00 0.  1.
        -15    1    1    2    0    0 -0.38104458520E+00  0.92026301852E+01  0.39400684255E+02  0.40501916572E+02  0.17770000000E+01 0. -1.
         15    1    1    2    0    0  0.18291020321E+00  0.11674474016E+01 -0.41941111724E+00  0.21748618952E+01  0.17770000000E+01 0.  1.
</event>
<event>
 6    1  0.1226227E-002  0.1714652E+03  0.7546771E-02  0.1077594E+00
        -11   -1    0    0    0    0  0.00000000000E+00  0.00000000000E+00  0.18250000000E+03  0.18250000000E+03  0.00000000000E+00 0. -1.
         11   -1    0    0    0    0 -0.00000000000E+00 -0.00000000000E+00 -0.18250000000E+03  0.18250000000E+03  0.00000000000E+00 0. -1.
        -11    1    1    2    0    0  0.52504423280E+01  0.11602236178E+02  0.17051063271E+03  0.17098554003E+03  0.00000000000E+00 0. -1.
         11    1    1    2    0    0 -0.35445186528E+01 -0.12947499775E+01 -0.17206619895E+03  0.17210757337E+03  0.00000000000E+00 0. -1.
        -15    1    1    2    0    0  0.37239163994E+01  0.18633947556E+01  0.62045065846E+01  0.76807176958E+01  0.17770000000E+01 0. -1.
         15    1    1    2    0    0 -0.54298400747E+01 -0.12170880956E+02 -0.46489403503E+01  0.14226168910E+02  0.17770000000E+01 0.  1.
</event>
<event>
 6    1  0.1226227E-002  0.1866862E+03  0.7546771E-02  0.1065171E+00
        -11   -1    0    0    0    0  0.00000000000E+00  0.00000000000E+00  0.18250000000E+03  0.18250000000E+03  0.00000000000E+00 0.  1.
         11   -1    0    0    0    0 -0.00000000000E+00 -0.00000000000E+00 -0.18250000000E+03  0.18250000000E+03  0.00000000000E+00 0.  1.
        -11    1    1    2    0    0 -0.15048118651E+01  0.16308111866E+01  0.13269739269E+03  0.13271594490E+03  0.00000000000E+00 0.  1.
         11    1    1    2    0    0  0.33020322884E+01  0.69423287333E+00 -0.17828188503E+03  0.17831381300E+03  0.00000000000E+00 0.  1.
        -15    1    1    2    0    0 -0.49944786972E+01 -0.40987917756E+00 -0.23821291426E+01  0.58262412110E+01  0.17770000000E+01 0. -1.
         15    1    1    2    0    0  0.31972582739E+01 -0.19151648824E+01  0.47966621479E+02  0.48144000894E+02  0.17770000000E+01 0. -1.
</event>
<event>
 6    1  0.1226227E-002  0.1896188E+03  0.7546771E-02  0.1062925E+00
        -11   -1    0    0    0    0  0.00000000000E+00  0.00000000000E+00  0.18250000000E+03  0.18250000000E+03  0.00000000000E+00 0. -1.
         11   -1    0    0    0    0 -0.00000000000E+00 -0.00000000000E+00 -0.18250000000E+03  0.18250000000E+03  0.00000000000E+00 0. -1.
        -11    1    1    2    0    0  0.15689723409E+01  0.50173702878E+01  0.16165506572E+03  0.16174052044E+03  0.00000000000E+00 0. -1.
         11    1    1    2    0    0  0.80402202046E+00 -0.24091274069E+01 -0.17536280573E+03  0.17538119620E+03  0.00000000000E+00 0. -1.
        -15    1    1    2    0    0 -0.22117783885E+01 -0.52118646446E+01 -0.56924721172E+01  0.82229839182E+01  0.17770000000E+01 0.  1.
         15    1    1    2    0    0 -0.16121597286E+00  0.26036217638E+01  0.19400212125E+02  0.19655299448E+02  0.17770000000E+01 0. -1.
</event>
<event>
 6    1  0.1226227E-002  0.1828498E+03  0.7546771E-02  0.1068177E+00
        -11   -1    0    0    0    0  0.00000000000E+00  0.00000000000E+00  0.18250000000E+03  0.18250000000E+03  0.00000000000E+00 0.  1.
         11   -1    0    0    0    0 -0.00000000000E+00 -0.00000000000E+00 -0.18250000000E+03  0.18250000000E+03  0.00000000000E+00 0.  1.
        -11    1    1    2    0    0 -0.95819164049E-01 -0.24657291151E+01  0.85669333130E+02  0.85704863575E+02  0.00000000000E+00 0.  1.
         11    1    1    2    0    0 -0.18790299845E+00 -0.38222867487E+01 -0.18210995775E+03  0.18215016304E+03  0.00000000000E+00 0.  1.
        -15    1    1    2    0    0  0.27155039200E+01  0.51762749160E+01  0.29428310616E+02  0.30055797747E+02  0.17770000000E+01 0. -1.
         15    1    1    2    0    0 -0.24317817575E+01  0.11117409479E+01  0.67012314005E+02  0.67089175638E+02  0.17770000000E+01 0.  1.
</event>
<event>
 6    1  0.1226227E-002  0.1874544E+03  0.7546771E-02  0.1064578E+00
        -11   -1    0    0    0    0  0.00000000000E+00  0.00000000000E+00  0.18250000000E+03  0.18250000000E+03  0.00000000000E+00 0. -1.
         11   -1    0    0    0    0 -0.00000000000E+00 -0.00000000000E+00 -0.18250000000E+03  0.18250000000E+03  0.00000000000E+00 0. -1.
        -11    1    1    2    0    0 -0.84009937084E+01  0.97154680983E+01  0.17708040966E+03  0.17754559556E+03  0.00000000000E+00 0. -1.
         11    1    1    2    0    0  0.29848717230E+01  0.15073137508E+01 -0.15318268340E+03  0.15321917617E+03  0.00000000000E+00 0. -1.
        -15    1    1    2    0    0 -0.56984302448E+01 -0.76237135683E+01 -0.19229190521E+02  0.21529343068E+02  0.17770000000E+01 0. -1.
         15    1    1    2    0    0  0.11114552230E+02 -0.35990682808E+01 -0.46685357410E+01  0.12705885201E+02  0.17770000000E+01 0.  1.
</event>
<event>
 6    1  0.1226227E-002  0.1836440E+03  0.7546771E-02  0.1067548E+00
        -11   -1    0    0    0    0  0.00000000000E+00  0.00000000000E+00  0.18250000000E+03  0.18250000000E+03  0.00000000000E+00 0. -1.
         11   -1    0    0    0    0 -0.00000000000E+00 -0.00000000000E+00 -0.18250000000E+03  0.18250000000E+03  0.00000000000E+00 0. -1.
        -11    1    1    2    0    0 -0.33391411695E+01  0.50653054905E+01  0.14293294799E+03  0.14306164686E+03  0.00000000000E+00 0. -1.
         11    1    1    2    0    0  0.35042488983E+01  0.41874792883E+01 -0.18127375205E+03  0.18135597019E+03  0.00000000000E+00 0. -1.
        -15    1    1    2    0    0  0.13332236782E+01 -0.85390717159E+01  0.17482827656E+02  0.19583161721E+02  0.17770000000E+01 0. -1.
         15    1    1    2    0    0 -0.14983314070E+01 -0.71371306288E+00  0.20857976404E+02  0.20999221224E+02  0.17770000000E+01 0.  1.
</event>
<event>
 6    1  0.1226227E-002  0.1827097E+03  0.7546771E-02  0.1068288E+00
        -11   -1    0    0    0    0  0.00000000000E+00  0.00000000000E+00  0.18250000000E+03  0.18250000000E+03  0.00000000000E+00 0.  1.
         11   -1    0    0    0    0 -0.00000000000E+00 -0.00000000000E+00 -0.18250000000E+03  0.18250000000E+03  0.00000000000E+00 0.  1.
        -11    1    1    2    0    0  0.13528496474E+01 -0.18727360774E+01  0.57996991480E+02  0.58042987202E+02  0.00000000000E+00 0.  1.
         11    1    1    2    0    0  0.60146579157E+01 -0.11516297266E+01 -0.18218738472E+03  0.18229027816E+03  0.00000000000E+00 0.  1.
        -15    1    1    2    0    0 -0.11690771656E+01  0.48197560772E+00  0.70118251877E+02  0.70152163311E+02  0.17770000000E+01 0. -1.
         15    1    1    2    0    0 -0.61984303975E+01  0.25423901963E+01  0.54072141359E+02  0.54514571331E+02  0.17770000000E+01 0.  1.
</event>
<event>
 6    1  0.1226227E-002  0.1884063E+03  0.7546771E-02  0.1063848E+00
        -11   -1    0    0    0    0  0.00000000000E+00  0.00000000000E+00  0.18250000000E+03  0.18250000000E+03  0.00000000000E+00 0. -1.
         11   -1    0    0    0    0 -0.00000000000E+00 -0.00000000000E+00 -0.18250000000E+03  0.18250000000E+03  0.00000000000E+00 0. -1.
        -11    1    1    2    0    0  0.10604803006E+01 -0.88829087771E+01  0.15283165093E+03  0.15309325332E+03  0.00000000000E+00 0. -1.
         11    1    1    2    0    0  0.65795444003E+01 -0.86766874766E+00 -0.17646896326E+03  0.17659370954E+03  0.00000000000E+00 0. -1.
        -15    1    1    2    0    0  0.78222657936E+01  0.17506756512E+01  0.44302503335E+01  0.93293919629E+01  0.17770000000E+01 0. -1.
         15    1    1    2    0    0 -0.15462290494E+02  0.79999018736E+01  0.19207062001E+02  0.25983645184E+02  0.17770000000E+01 0.  1.
</event>
<event>
 6    1  0.1226227E-002  0.1877291E+03  0.7546771E-02  0.1064367E+00
        -11   -1    0    0    0    0  0.00000000000E+00  0.00000000000E+00  0.18250000000E+03  0.18250000000E+03  0.00000000000E+00 0. -1.
         11   -1    0    0    0    0 -0.00000000000E+00 -0.00000000000E+00 -0.18250000000E+03  0.18250000000E+03  0.00000000000E+00 0. -1.
        -11    1    1    2    0    0 -0.71227939525E+00  0.20276753909E+01  0.15350475180E+03  0.15351979558E+03  0.00000000000E+00 0. -1.
         11    1    1    2    0    0 -0.72870384457E+01 -0.12148092340E+01 -0.17711688872E+03  0.17727089146E+03  0.00000000000E+00 0. -1.
        -15    1    1    2    0    0  0.32815248465E+01  0.64328083552E+01  0.24244756345E+02  0.25359719397E+02  0.17770000000E+01 0.  1.
         15    1    1    2    0    0  0.47177929944E+01 -0.72456745122E+01 -0.63261943029E+00  0.88495935623E+01  0.17770000000E+01 0. -1.
</event>
<event>
 6    1  0.1226227E-002  0.1833942E+03  0.7546771E-02  0.1067745E+00
        -11   -1    0    0    0    0  0.00000000000E+00  0.00000000000E+00  0.18250000000E+03  0.18250000000E+03  0.00000000000E+00 0. -1.
         11   -1    0    0    0    0 -0.00000000000E+00 -0.00000000000E+00 -0.18250000000E+03  0.18250000000E+03  0.00000000000E+00 0. -1.
        -11    1    1    2    0    0  0.32657757766E+01  0.31238193047E+01  0.16558895599E+03  0.16565061390E+03  0.00000000000E+00 0. -1.
         11    1    1    2    0    0 -0.21306262373E+01  0.18714194603E+01 -0.18158364632E+03  0.18160578842E+03  0.00000000000E+00 0. -1.
        -15    1    1    2    0    0 -0.19293783565E+01 -0.50694854937E+01  0.12532028945E+02  0.13770681265E+02  0.17770000000E+01 0.  1.
         15    1    1    2    0    0  0.79422881714E+00  0.74246728722E-01  0.34626613804E+01  0.39729164131E+01  0.17770000000E+01 0. -1.
</event>
<event>
 6    1  0.1226227E-002  0.1870726E+03  0.7546771E-02  0.1064872E+00
        -11   -1    0    0    0    0  0.00000000000E+00  0.00000000000E+00  0.18250000000E+03  0.18250000000E+03  0.00000000000E+00 0.  1.
         11   -1    0    0    0    0 -0.00000000000E+00 -0.00000000000E+00 -0.18250000000E+03  0.18250000000E+03  0.00000000000E+00 0. -1.
        -11    1    1    2    0    0  0.26393565926E+01  0.33639997949E+01  0.16787836160E+03  0.16793280499E+03  0.00000000000E+00 0.  1.
         11    1    1    2    0    0  0.62313973576E+01 -0.74108913733E+01 -0.17766376744E+03  0.17792741746E+03  0.00000000000E+00 0. -1.
        -15    1    1    2    0    0 -0.48130281734E+01  0.46908035978E+01 -0.14005490337E+01  0.70914134830E+01  0.17770000000E+01 0. -1.
         15    1    1    2    0    0 -0.40577257769E+01 -0.64391201935E+00  0.11185954877E+02  0.12048364067E+02  0.17770000000E+01 0.  1.
</event>
<event>
 6    1  0.1226227E-002  0.1851045E+03  0.7546771E-02  0.1066400E+00
        -11   -1    0    0    0    0  0.00000000000E+00  0.00000000000E+00  0.18250000000E+03  0.18250000000E+03  0.00000000000E+00 0.  1.
         11   -1    0    0    0    0 -0.00000000000E+00 -0.00000000000E+00 -0.18250000000E+03  0.18250000000E+03  0.00000000000E+00 0. -1.
        -11    1    1    2    0    0  0.18252119272E+01  0.35539459087E+01  0.16869728804E+03  0.16874459079E+03  0.00000000000E+00 0.  1.
         11    1    1    2    0    0  0.32318965494E+01  0.43821792790E+01 -0.17981303181E+03  0.17989545592E+03  0.00000000000E+00 0. -1.
        -15    1    1    2    0    0 -0.57002940603E+01 -0.65251250799E+01  0.58893008209E+01  0.10626015379E+02  0.17770000000E+01 0. -1.
         15    1    1    2    0    0  0.64318558368E+00 -0.14110001078E+01  0.52264429513E+01  0.57339379071E+01  0.17770000000E+01 0.  1.
</event>
<event>
 6    1  0.1226227E-002  0.1832241E+03  0.7546771E-02  0.1067880E+00
        -11   -1    0    0    0    0  0.00000000000E+00  0.00000000000E+00  0.18250000000E+03  0.18250000000E+03  0.00000000000E+00 0.  1.
         11   -1    0    0    0    0 -0.00000000000E+00 -0.00000000000E+00 -0.18250000000E+03  0.18250000000E+03  0.00000000000E+00 0. -1.
        -11    1    1    2    0    0  0.10740452210E+01 -0.32599599296E+01  0.18174347905E+03  0.18177588699E+03  0.00000000000E+00 0.  1.
         11    1    1    2    0    0  0.21963370206E+00  0.19457198357E+01 -0.41718609030E+02  0.41764535243E+02  0.00000000000E+00 0. -1.
        -15    1    1    2    0    0 -0.24546120448E+01  0.77392764789E+01 -0.27429472184E+02  0.28661039653E+02  0.17770000000E+01 0. -1.
         15    1    1    2    0    0  0.11609331217E+01 -0.64250363850E+01 -0.11259539784E+03  0.11279853812E+03  0.17770000000E+01 0. -1.
</event>
<event>
 6    1  0.1226227E-002  0.1861714E+03  0.7546771E-02  0.1065569E+00
        -11   -1    0    0    0    0  0.00000000000E+00  0.00000000000E+00  0.18250000000E+03  0.18250000000E+03  0.00000000000E+00 0.  1.
         11   -1    0    0    0    0 -0.00000000000E+00 -0.00000000000E+00 -0.18250000000E+03  0.18250000000E+03  0.00000000000E+00 0.  1.
        -11    1    1    2    0    0  0.11407517191E+02  0.11003365387E+00  0.17846433024E+03  0.17882857916E+03  0.00000000000E+00 0.  1.
         11    1    1    2    0    0 -0.53684242869E+01  0.45936738836E+01 -0.17345731397E+03  0.17360115664E+03  0.00000000000E+00 0.  1.
        -15    1    1    2    0    0  0.63966791488E-01 -0.48466252401E+01 -0.19918071512E+01  0.55334340780E+01  0.17770000000E+01 0. -1.
         15    1    1    2    0    0 -0.61030596957E+01  0.14291770258E+00 -0.30152091182E+01  0.70368301205E+01  0.17770000000E+01 0.  1.
</event>
<event>
 6    1  0.1226227E-002  0.1904611E+03  0.7546771E-02  0.1062289E+00
        -11   -1    0    0    0    0  0.00000000000E+00  0.00000000000E+00  0.18250000000E+03  0.18250000000E+03  0.00000000000E+00 0.  1.
         11   -1    0    0    0    0 -0.00000000000E+00 -0.00000000000E+00 -0.18250000000E+03  0.18250000000E+03  0.00000000000E+00 0.  1.
        -11    1    1    2    0    0  0.27830270388E+01  0.86509725223E+00  0.17451453619E+03  0.17453886953E+03  0.00000000000E+00 0.  1.
         11    1    1    2    0    0 -0.79139061617E+01 -0.13188381379E+02 -0.11242758183E+03  0.11347477460E+03  0.00000000000E+00 0.  1.
        -15    1    1    2    0    0 -0.34454852436E+01 -0.72954212190E+00  0.59601075264E+01  0.71473219459E+01  0.17770000000E+01 0. -1.
         15    1    1    2    0    0  0.85763643665E+01  0.13052826249E+02 -0.68047061891E+02  0.69839033927E+02  0.17770000000E+01 0. -1.
</event>
<event>
 6    1  0.1226227E-002  0.1887853E+03  0.7546771E-02  0.1063559E+00
        -11   -1    0    0    0    0  0.00000000000E+00  0.00000000000E+00  0.18250000000E+03  0.18250000000E+03  0.00000000000E+00 0. -1.
         11   -1    0    0    0    0 -0.00000000000E+00 -0.00000000000E+00 -0.18250000000E+03  0.18250000000E+03  0.00000000000E+00 0. -1.
        -11    1    1    2    0    0 -0.29900893253E+01  0.21842453932E+01  0.17617577681E+03  0.17621468695E+03  0.00000000000E+00 0. -1.
         11    1    1    2    0    0  0.58753219649E+01  0.34737586819E+01 -0.17097569680E+03  0.17111187949E+03  0.00000000000E+00 0. -1.
        -15    1    1    2    0    0 -0.25628715370E+01 -0.24492184997E+01  0.52582261239E+01  0.65858676531E+01  0.17770000000E+01 0.  1.
         15    1    1    2    0    0 -0.32236110271E+00 -0.32087855754E+01 -0.10458306133E+02  0.11087565906E+02  0.17770000000E+01 0. -1.
</event>
<event>
 6    1  0.1226227E-002  0.1855939E+03  0.7546771E-02  0.1066018E+00
        -11   -1    0    0    0    0  0.00000000000E+00  0.00000000000E+00  0.18250000000E+03  0.18250000000E+03  0.00000000000E+00 0.  1.
         11   -1    0    0    0    0 -0.00000000000E+00 -0.00000000000E+00 -0.18250000000E+03  0.18250000000E+03  0.00000000000E+00 0. -1.
        -11    1    1    2    0    0  0.22973294397E+01  0.13903488002E+01  0.17938600129E+03  0.17940609870E+03  0.00000000000E+00 0.  1.
         11    1    1    2    0    0 -0.46159681905E+01  0.54758877257E+01 -0.17164124933E+03  0.17179060213E+03  0.00000000000E+00 0. -1.
        -15    1    1    2    0    0 -0.53422829159E+00 -0.18643523102E+01 -0.73014291467E+01  0.77607864285E+01  0.17770000000E+01 0.  1.
         15    1    1    2    0    0  0.28528670424E+01 -0.50018842156E+01 -0.44332281777E+00  0.60425127380E+01  0.17770000000E+01 0. -1.
</event>
<event>
 6    1  0.1226227E-002  0.1840266E+03  0.7546771E-02  0.1067246E+00
        -11   -1    0    0    0    0  0.00000000000E+00  0.00000000000E+00  0.18250000000E+03  0.18250000000E+03  0.00000000000E+00 0.  1.
         11   -1    0    0    0    0 -0.00000000000E+00 -0.00000000000E+00 -0.18250000000E+03  0.18250000000E+03  0.00000000000E+00 0.  1.
        -11    1    1    2    0    0  0.33240333629E+01 -0.19220943172E+01  0.18093262133E+03  0.18097336021E+03  0.00000000000E+00 0.  1.
         11    1    1    2    0    0 -0.24400639466E+01 -0.66321314760E+00 -0.15070036649E+03  0.15072157849E+03  0.00000000000E+00 0.  1.
        -15    1    1    2    0    0  0.96820304972E+00 -0.25925130133E+01 -0.90113209775E+00  0.34100306344E+01  0.17770000000E+01 0. -1.
         15    1    1    2    0    0 -0.18521724660E+01  0.51778204781E+01 -0.29331122746E+02  0.29895030662E+02  0.17770000000E+01 0.  1.
</event>
<event>
 6    1  0.1226227E-002  0.1829340E+03  0.7546771E-02  0.1068110E+00
        -11   -1    0    0    0    0  0.00000000000E+00  0.00000000000E+00  0.18250000000E+03  0.18250000000E+03  0.00000000000E+00 0.  1.
         11   -1    0    0    0    0 -0.00000000000E+00 -0.00000000000E+00 -0.18250000000E+03  0.18250000000E+03  0.00000000000E+00 0. -1.
        -11    1    1    2    0    0  0.28944458570E+01  0.31748387673E+00  0.18204271736E+03  0.18206600329E+03  0.00000000000E+00 0.  1.
         11    1    1    2    0    0  0.35260919410E+01  0.30967697414E+01 -0.27675225745E+02  0.28070294392E+02  0.00000000000E+00 0. -1.
        -15    1    1    2    0    0 -0.43115981293E+01  0.20037391492E+01 -0.37996103300E+02  0.38333620283E+02  0.17770000000E+01 0.  1.
         15    1    1    2    0    0 -0.21089396687E+01 -0.54179927673E+01 -0.11637138831E+03  0.11653008203E+03  0.17770000000E+01 0. -1.
</event>
<event>
 6    1  0.1226227E-002  0.1837869E+03  0.7546771E-02  0.1067435E+00
        -11   -1    0    0    0    0  0.00000000000E+00  0.00000000000E+00  0.18250000000E+03  0.18250000000E+03  0.00000000000E+00 0.  1.
         11   -1    0    0    0    0 -0.00000000000E+00 -0.00000000000E+00 -0.18250000000E+03  0.18250000000E+03  0.00000000000E+00 0. -1.
        -11    1    1    2    0    0  0.35936304139E+01  0.73657481683E+01  0.18102763516E+03  0.18121306001E+03  0.00000000000E+00 0.  1.
         11    1    1    2    0    0  0.25007007501E+01  0.26842876592E+00 -0.13099464698E+03  0.13101878910E+03  0.00000000000E+00 0. -1.
        -15    1    1    2    0    0 -0.12750743026E+01  0.36579587451E+01 -0.15467481252E+02  0.16043914172E+02  0.17770000000E+01 0. -1.
         15    1    1    2    0    0 -0.48192568614E+01 -0.11292135679E+02 -0.34565506926E+02  0.36724236724E+02  0.17770000000E+01 0.  1.
</event>
<event>
 6    1  0.1226227E-002  0.1842066E+03  0.7546771E-02  0.1067104E+00
        -11   -1    0    0    0    0  0.00000000000E+00  0.00000000000E+00  0.18250000000E+03  0.18250000000E+03  0.00000000000E+00 0.  1.
         11   -1    0    0    0    0 -0.00000000000E+00 -0.00000000000E+00 -0.18250000000E+03  0.18250000000E+03  0.00000000000E+00 0. -1.
        -11    1    1    2    0    0  0.77823162541E+00 -0.38538976965E+01  0.18075064770E+03  0.18079340369E+03  0.00000000000E+00 0.  1.
         11    1    1    2    0    0 -0.81614538254E+00 -0.22673089490E+01 -0.16542114174E+03  0.16543869232E+03  0.00000000000E+00 0. -1.
        -15    1    1    2    0    0  0.10197121627E+01 -0.28109818278E+00 -0.99500794138E+01  0.10162708223E+02  0.17770000000E+01 0.  1.
         15    1    1    2    0    0 -0.98179840560E+00  0.64023048283E+01 -0.53794265525E+01  0.86051957710E+01  0.17770000000E+01 0.  1.
</event>
<event>
 6    1  0.1235804E-002  0.1828260E+03  0.7546771E-02  0.1068196E+00
        -11   -1    0    0    0    0  0.00000000000E+00  0.00000000000E+00  0.18250000000E+03  0.18250000000E+03  0.00000000000E+00 0. -1.
         11   -1    0    0    0    0 -0.00000000000E+00 -0.00000000000E+00 -0.18250000000E+03  0.18250000000E+03  0.00000000000E+00 0.  1.
        -11    1    1    2    0    0 -0.10371044791E+01  0.57237325371E+01  0.18208114666E+03  0.18217403951E+03  0.00000000000E+00 0. -1.
         11    1    1    2    0    0 -0.25525946754E+01 -0.22326661116E+01 -0.74677633656E+02  0.74754595217E+02  0.00000000000E+00 0.  1.
        -15    1    1    2    0    0  0.36814516768E+01 -0.46455312746E+01 -0.29646163858E+02  0.30285092171E+02  0.17770000000E+01 0. -1.
         15    1    1    2    0    0 -0.91752522285E-01  0.11544648490E+01 -0.77757349151E+02  0.77786273105E+02  0.17770000000E+01 0.  1.
</event>
<event>
 6    1  0.1226227E-002  0.1869817E+03  0.7546771E-02  0.1064942E+00
        -11   -1    0    0    0    0  0.00000000000E+00  0.00000000000E+00  0.18250000000E+03  0.18250000000E+03  0.00000000000E+00 0.  1.
         11   -1    0    0    0    0 -0.00000000000E+00 -0.00000000000E+00 -0.18250000000E+03  0.18250000000E+03  0.00000000000E+00 0.  1.
        -11    1    1    2    0    0 -0.75436651643E+01  0.64447091724E+01  0.17774163102E+03  0.17801833770E+03  0.00000000000E+00 0.  1.
         11    1    1    2    0    0 -0.64008478309E+01 -0.75517385539E+01 -0.15480191442E+03  0.15511812375E+03  0.00000000000E+00 0.  1.
        -15    1    1    2    0    0 -0.22925458759E+01 -0.40489673023E+01 -0.48769528612E+01  0.69708178156E+01  0.17770000000E+01 0.  1.
         15    1    1    2    0    0  0.16237058871E+02  0.51559966838E+01 -0.18062763738E+02  0.24892720732E+02  0.17770000000E+01 0. -1.
</event>
<event>
 6    1  0.1226227E-002  0.1856699E+03  0.7546771E-02  0.1065959E+00
        -11   -1    0    0    0    0  0.00000000000E+00  0.00000000000E+00  0.18250000000E+03  0.18250000000E+03  0.00000000000E+00 0. -1.
         11   -1    0    0    0    0 -0.00000000000E+00 -0.00000000000E+00 -0.18250000000E+03  0.18250000000E+03  0.00000000000E+00 0.  1.
        -11    1    1    2    0    0  0.62968695363E+01  0.79753527401E+01  0.11640448751E+03  0.11684717168E+03  0.00000000000E+00 0. -1.
         11    1    1    2    0    0 -0.13933158380E+01 -0.88469503885E+01 -0.17910634744E+03  0.17933012451E+03  0.00000000000E+00 0.  1.
        -15    1    1    2    0    0 -0.10681390825E+02 -0.10499074311E+02  0.39585094081E+02  0.42361067902E+02  0.17770000000E+01 0.  1.
         15    1    1    2    0    0  0.57778371268E+01  0.11370671960E+02  0.23116765855E+02  0.26461635914E+02  0.17770000000E+01 0. -1.
</event>
<event>
 6    1  0.1226227E-002  0.1645935E+03  0.7546771E-02  0.1083675E+00
        -11   -1    0    0    0    0  0.00000000000E+00  0.00000000000E+00  0.18250000000E+03  0.18250000000E+03  0.00000000000E+00 0. -1.
         11   -1    0    0    0    0 -0.00000000000E+00 -0.00000000000E+00 -0.18250000000E+03  0.18250000000E+03  0.00000000000E+00 0. -1.
        -11    1    1    2    0    0  0.33004324540E+01  0.69988843604E+01  0.16253710269E+03  0.16272119403E+03  0.00000000000E+00 0. -1.
         11    1    1    2    0    0  0.87210829070E+01 -0.12547130880E+02 -0.16604912972E+03  0.16675071592E+03  0.00000000000E+00 0. -1.
        -15    1    1    2    0    0 -0.33119805321E+01 -0.92654034636E+01  0.12537747164E+02  0.16036513004E+02  0.17770000000E+01 0.  1.
         15    1    1    2    0    0 -0.87095348289E+01  0.14813649983E+02 -0.90257201313E+01  0.19491577044E+02  0.17770000000E+01 0.  1.
</event>
<event>
 6    1  0.1226227E-002  0.1849340E+03  0.7546771E-02  0.1066534E+00
        -11   -1    0    0    0    0  0.00000000000E+00  0.00000000000E+00  0.18250000000E+03  0.18250000000E+03  0.00000000000E+00 0.  1.
         11   -1    0    0    0    0 -0.00000000000E+00 -0.00000000000E+00 -0.18250000000E+03  0.18250000000E+03  0.00000000000E+00 0.  1.
        -11    1    1    2    0    0  0.29756574204E+01 -0.13392765860E+01  0.18003647040E+03  0.18006604031E+03  0.00000000000E+00 0.  1.
         11    1    1    2    0    0  0.43439534361E+01  0.19720041373E+01 -0.16067700943E+03  0.16074781520E+03  0.00000000000E+00 0.  1.
        -15    1    1    2    0    0 -0.41694500789E+01  0.18639728798E+01 -0.19170770359E+02  0.19787240181E+02  0.17770000000E+01 0. -1.
         15    1    1    2    0    0 -0.31501607776E+01 -0.24967004312E+01 -0.18869061649E+00  0.43989043086E+01  0.17770000000E+01 0.  1.
</event>
<event>
 6    1  0.1226227E-002  0.1870406E+03  0.7546771E-02  0.1064897E+00
        -11   -1    0    0    0    0  0.00000000000E+00  0.00000000000E+00  0.18250000000E+03  0.18250000000E+03  0.00000000000E+00 0. -1.
         11   -1    0    0    0    0 -0.00000000000E+00 -0.00000000000E+00 -0.18250000000E+03  0.18250000000E+03  0.00000000000E+00 0. -1.
        -11    1    1    2    0    0 -0.20737392144E+01 -0.21126845230E+01  0.17168656547E+03  0.17171208634E+03  0.00000000000E+00 0. -1.
         11    1    1    2    0    0 -0.21782537396E+01 -0.17751206988E+01 -0.17793721122E+03  0.17795939700E+03  0.00000000000E+00 0. -1.
        -15    1    1    2    0    0  0.84030167410E+01  0.35824989501E+01  0.52811095009E+01  0.10700132506E+02  0.17770000000E+01 0.  1.
         15    1    1    2    0    0 -0.41510237870E+01  0.30530627178E+00  0.96953624593E+00  0.46283841599E+01  0.17770000000E+01 0.  1.
</event>
<event>
 6    1  0.1226227E-002  0.1871995E+03  0.7546771E-02  0.1064774E+00
        -11   -1    0    0    0    0  0.00000000000E+00  0.00000000000E+00  0.18250000000E+03  0.18250000000E+03  0.00000000000E+00 0. -1.
         11   -1    0    0    0    0 -0.00000000000E+00 -0.00000000000E+00 -0.18250000000E+03  0.18250000000E+03  0.00000000000E+00 0. -1.
        -11    1    1    2    0    0 -0.25634081508E+01 -0.20769668677E+01  0.13256697421E+03  0.13260802202E+03  0.00000000000E+00 0. -1.
         11    1    1    2    0    0 -0.47665824924E+01 -0.53371178111E+01 -0.17765639614E+03  0.17780045058E+03  0.00000000000E+00 0. -1.
        -15    1    1    2    0    0  0.84542710825E+01  0.59397880515E+01  0.48891753902E+02  0.50003171002E+02  0.17770000000E+01 0. -1.
         15    1    1    2    0    0 -0.11242804393E+01  0.14742966273E+01 -0.38023319701E+01  0.45883564010E+01  0.17770000000E+01 0.  1.
</event>
<event>
 6    1  0.1226227E-002  0.1825779E+03  0.7546771E-02  0.1068393E+00
        -11   -1    0    0    0    0  0.00000000000E+00  0.00000000000E+00  0.18250000000E+03  0.18250000000E+03  0.00000000000E+00 0.  1.
         11   -1    0    0    0    0 -0.00000000000E+00 -0.00000000000E+00 -0.18250000000E+03  0.18250000000E+03  0.00000000000E+00 0. -1.
        -11    1    1    2    0    0  0.40399988866E+01 -0.47449727737E+01  0.18231562887E+03  0.18242210636E+03  0.00000000000E+00 0.  1.
         11    1    1    2    0    0 -0.20464190812E+01 -0.76268676332E+00 -0.60926668932E+02  0.60965797865E+02  0.00000000000E+00 0. -1.
        -15    1    1    2    0    0 -0.13612926075E+01  0.11194323188E+01 -0.50899082810E+02  0.50960578943E+02  0.17770000000E+01 0.  1.
         15    1    1    2    0    0 -0.63228719794E+00  0.43882272182E+01 -0.70489877125E+02  0.70651516837E+02  0.17770000000E+01 0. -1.
</event>
<event>
 6    1  0.1226227E-002  0.1969445E+03  0.7546771E-02  0.1057505E+00
        -11   -1    0    0    0    0  0.00000000000E+00  0.00000000000E+00  0.18250000000E+03  0.18250000000E+03  0.00000000000E+00 0.  1.
         11   -1    0    0    0    0 -0.00000000000E+00 -0.00000000000E+00 -0.18250000000E+03  0.18250000000E+03  0.00000000000E+00 0.  1.
        -11    1    1    2    0    0  0.14644519581E+01 -0.18719465270E+01  0.13717604734E+03  0.13719663541E+03  0.00000000000E+00 0.  1.
         11    1    1    2    0    0  0.26215602779E+01 -0.33262296507E+01 -0.16800216076E+03  0.16805553368E+03  0.00000000000E+00 0.  1.
        -15    1    1    2    0    0 -0.12789065452E+02 -0.13767645842E+02 -0.38258044851E+01  0.19258836313E+02  0.17770000000E+01 0. -1.
         15    1    1    2    0    0  0.87030532157E+01  0.18965822020E+02  0.34651917899E+02  0.40488994594E+02  0.17770000000E+01 0.  1.
</event>
<event>
 6    1  0.1226227E-002  0.1830262E+03  0.7546771E-02  0.1068037E+00
        -11   -1    0    0    0    0  0.00000000000E+00  0.00000000000E+00  0.18250000000E+03  0.18250000000E+03  0.00000000000E+00 0.  1.
         11   -1    0    0    0    0 -0.00000000000E+00 -0.00000000000E+00 -0.18250000000E+03  0.18250000000E+03  0.00000000000E+00 0.  1.
        -11    1    1    2    0    0  0.84698561533E+00 -0.21722671801E+01  0.57833683946E+02  0.57880662817E+02  0.00000000000E+00 0.  1.
         11    1    1    2    0    0 -0.20834680823E+01 -0.37464648473E+01 -0.18192333559E+03  0.18197383567E+03  0.00000000000E+00 0.  1.
        -15    1    1    2    0    0  0.32645147049E+01 -0.12198089851E+01  0.91285611241E+01  0.99314322943E+01  0.17770000000E+01 0. -1.
         15    1    1    2    0    0 -0.20280322379E+01  0.71385410125E+01  0.11496109052E+03  0.11521406921E+03  0.17770000000E+01 0.  1.
</event>
<event>
 6    1  0.1226227E-002  0.1846625E+03  0.7546771E-02  0.1066746E+00
        -11   -1    0    0    0    0  0.00000000000E+00  0.00000000000E+00  0.18250000000E+03  0.18250000000E+03  0.00000000000E+00 0.  1.
         11   -1    0    0    0    0 -0.00000000000E+00 -0.00000000000E+00 -0.18250000000E+03  0.18250000000E+03  0.00000000000E+00 0. -1.
        -11    1    1    2    0    0  0.30742155973E+00 -0.32338572737E+01  0.18030828833E+03  0.18033754790E+03  0.00000000000E+00 0.  1.
         11    1    1    2    0    0 -0.16140451890E+01  0.16637670644E+02 -0.12568970448E+03  0.12679636840E+03  0.00000000000E+00 0. -1.
        -15    1    1    2    0    0  0.14568711571E+00  0.24066188333E+01 -0.61644964227E+01  0.68535964347E+01  0.17770000000E+01 0. -1.
         15    1    1    2    0    0  0.11609365136E+01 -0.15810432204E+02 -0.48454087425E+02  0.51012487268E+02  0.17770000000E+01 0.  1.
</event>
<event>
 6    1  0.1226227E-002  0.1833109E+03  0.7546771E-02  0.1067811E+00
        -11   -1    0    0    0    0  0.00000000000E+00  0.00000000000E+00  0.18250000000E+03  0.18250000000E+03  0.00000000000E+00 0.  1.
         11   -1    0    0    0    0 -0.00000000000E+00 -0.00000000000E+00 -0.18250000000E+03  0.18250000000E+03  0.00000000000E+00 0. -1.
        -11    1    1    2    0    0  0.15626873648E+01  0.37281375794E+01  0.18164415163E+03  0.18168912687E+03  0.00000000000E+00 0.  1.
         11    1    1    2    0    0 -0.11147780899E+00 -0.26903514630E+01 -0.15200862628E+03  0.15203247311E+03  0.00000000000E+00 0. -1.
        -15    1    1    2    0    0 -0.31899148477E+01  0.25697331285E+01 -0.22229556870E+02  0.22673553156E+02  0.17770000000E+01 0.  1.
         15    1    1    2    0    0  0.17387052919E+01 -0.36075192449E+01 -0.74059684860E+01  0.86048468557E+01  0.17770000000E+01 0. -1.
</event>
<event>
 6    1  0.1226227E-002  0.1839876E+03  0.7546771E-02  0.1067277E+00
        -11   -1    0    0    0    0  0.00000000000E+00  0.00000000000E+00  0.18250000000E+03  0.18250000000E+03  0.00000000000E+00 0. -1.
         11   -1    0    0    0    0 -0.00000000000E+00 -0.00000000000E+00 -0.18250000000E+03  0.18250000000E+03  0.00000000000E+00 0.  1.
        -11    1    1    2    0    0  0.19813943507E+01 -0.17068470083E+01  0.14566211420E+03  0.14568558873E+03  0.00000000000E+00 0. -1.
         11    1    1    2    0    0 -0.37775517718E+01 -0.70698079094E+00 -0.18097160454E+03  0.18101240667E+03  0.00000000000E+00 0.  1.
        -15    1    1    2    0    0 -0.45718776618E+01 -0.34476967160E+01  0.14997892699E+02  0.16151878913E+02  0.17770000000E+01 0.  1.
         15    1    1    2    0    0  0.63680350828E+01  0.58615245153E+01  0.20311597642E+02  0.22150125693E+02  0.17770000000E+01 0. -1.
</event>
<event>
 6    1  0.1226227E-002  0.1855499E+03  0.7546771E-02  0.1066053E+00
        -11   -1    0    0    0    0  0.00000000000E+00  0.00000000000E+00  0.18250000000E+03  0.18250000000E+03  0.00000000000E+00 0.  1.
         11   -1    0    0    0    0 -0.00000000000E+00 -0.00000000000E+00 -0.18250000000E+03  0.18250000000E+03  0.00000000000E+00 0. -1.
        -11    1    1    2    0    0 -0.34135188760E+01 -0.14902153319E+01  0.17941141848E+03  0.17945007643E+03  0.00000000000E+00 0.  1.
         11    1    1    2    0    0 -0.54847474238E+01 -0.53055987212E+01 -0.15578827929E+03  0.15597506146E+03  0.00000000000E+00 0. -1.
        -15    1    1    2    0    0  0.21161827454E+01  0.23748886048E+01  0.84556376001E+00  0.37404588448E+01  0.17770000000E+01 0. -1.
         15    1    1    2    0    0  0.67820835544E+01  0.44209254482E+01 -0.24468702943E+02  0.25834403261E+02  0.17770000000E+01 0.  1.
</event>
<event>
 6    1  0.1226227E-002  0.1849385E+03  0.7546771E-02  0.1066530E+00
        -11   -1    0    0    0    0  0.00000000000E+00  0.00000000000E+00  0.18250000000E+03  0.18250000000E+03  0.00000000000E+00 0.  1.
         11   -1    0    0    0    0 -0.00000000000E+00 -0.00000000000E+00 -0.18250000000E+03  0.18250000000E+03  0.00000000000E+00 0.  1.
        -11    1    1    2    0    0  0.33666463601E+01  0.12014747793E+01  0.16460951516E+03  0.16464832319E+03  0.00000000000E+00 0.  1.
         11    1    1    2    0    0 -0.22391413505E+01 -0.43404044695E+01 -0.17999527286E+03  0.18006152037E+03  0.00000000000E+00 0.  1.
        -15    1    1    2    0    0  0.52792733555E+01  0.21743029520E+01  0.44427994593E+01  0.74494641770E+01  0.17770000000E+01 0.  1.
         15    1    1    2    0    0 -0.64067783652E+01  0.96462673825E+00  0.10942958239E+02  0.12840692262E+02  0.17770000000E+01 0. -1.
</event>
<event>
 6    1  0.1226227E-002  0.1825768E+03  0.7546771E-02  0.1068394E+00
        -11   -1    0    0    0    0  0.00000000000E+00  0.00000000000E+00  0.18250000000E+03  0.18250000000E+03  0.00000000000E+00 0.  1.
         11   -1    0    0    0    0 -0.00000000000E+00 -0.00000000000E+00 -0.18250000000E+03  0.18250000000E+03  0.00000000000E+00 0. -1.
        -11    1    1    2    0    0 -0.24936528975E+01  0.30022904464E+01  0.18238148748E+03  0.18242324147E+03  0.00000000000E+00 0.  1.
         11    1    1    2    0    0  0.15695216225E+01 -0.79453199775E+00 -0.72941950212E+02  0.72963160430E+02  0.00000000000E+00 0. -1.
        -15    1    1    2    0    0  0.17680007368E+01 -0.19519197252E+01 -0.93083054852E+02  0.93137257029E+02  0.17770000000E+01 0. -1.
         15    1    1    2    0    0 -0.84386946182E+00 -0.25583872349E+00 -0.16356482415E+02  0.16476341072E+02  0.17770000000E+01 0. -1.
</event>
<event>
 6    1  0.1226227E-002  0.1830532E+03  0.7546771E-02  0.1068015E+00
        -11   -1    0    0    0    0  0.00000000000E+00  0.00000000000E+00  0.18250000000E+03  0.18250000000E+03  0.00000000000E+00 0.  1.
         11   -1    0    0    0    0 -0.00000000000E+00 -0.00000000000E+00 -0.18250000000E+03  0.18250000000E+03  0.00000000000E+00 0.  1.
        -11    1    1    2    0    0  0.46277237400E+01  0.37929587742E-01  0.18188795682E+03  0.18194682218E+03  0.00000000000E+00 0.  1.
         11    1    1    2    0    0  0.19431669209E+01  0.50905403051E+00 -0.12005521220E+03  0.12007201594E+03  0.00000000000E+00 0.  1.
        -15    1    1    2    0    0 -0.95763634351E+00 -0.76058712757E+00 -0.46582231973E+02  0.46632152264E+02  0.17770000000E+01 0.  1.
         15    1    1    2    0    0 -0.56132543174E+01  0.21360350931E+00 -0.15250512646E+02  0.16349009617E+02  0.17770000000E+01 0.  1.
</event>
<event>
 6    1  0.1226227E-002  0.1830042E+03  0.7546771E-02  0.1068054E+00
        -11   -1    0    0    0    0  0.00000000000E+00  0.00000000000E+00  0.18250000000E+03  0.18250000000E+03  0.00000000000E+00 0. -1.
         11   -1    0    0    0    0 -0.00000000000E+00 -0.00000000000E+00 -0.18250000000E+03  0.18250000000E+03  0.00000000000E+00 0. -1.
        -11    1    1    2    0    0  0.59867684449E+00  0.24443185756E+01  0.18197844468E+03  0.18199584456E+03  0.00000000000E+00 0. -1.
         11    1    1    2    0    0 -0.25699945700E+01 -0.48696717146E+01 -0.13336795188E+03  0.13348156863E+03  0.00000000000E+00 0. -1.
        -15    1    1    2    0    0 -0.10266180202E+01  0.12706848572E+01 -0.41018911603E+02  0.41089870074E+02  0.17770000000E+01 0. -1.
         15    1    1    2    0    0  0.29979357457E+01  0.11546682818E+01 -0.75915811963E+01  0.84327167411E+01  0.17770000000E+01 0. -1.
</event>
<event>
 6    1  0.1226227E-002  0.1852609E+03  0.7546771E-02  0.1066278E+00
        -11   -1    0    0    0    0  0.00000000000E+00  0.00000000000E+00  0.18250000000E+03  0.18250000000E+03  0.00000000000E+00 0.  1.
         11   -1    0    0    0    0 -0.00000000000E+00 -0.00000000000E+00 -0.18250000000E+03  0.18250000000E+03  0.00000000000E+00 0. -1.
        -11    1    1    2    0    0  0.67299347792E+00  0.56217535211E+01  0.17964988939E+03  0.17973908810E+03  0.00000000000E+00 0.  1.
         11    1    1    2    0    0  0.39585983213E+01  0.44903970966E+01 -0.12990782349E+03  0.13004567187E+03  0.00000000000E+00 0. -1.
        -15    1    1    2    0    0  0.22122141078E+00 -0.78046561089E+01 -0.36901269868E+01  0.88168226742E+01  0.17770000000E+01 0. -1.
         15    1    1    2    0    0 -0.48528132100E+01 -0.23074945089E+01 -0.46051938910E+02  0.46398417358E+02  0.17770000000E+01 0.  1.
</event>
<event>
 6    1  0.1226227E-002  0.1920763E+03  0.7546771E-02  0.1061078E+00
        -11   -1    0    0    0    0  0.00000000000E+00  0.00000000000E+00  0.18250000000E+03  0.18250000000E+03  0.00000000000E+00 0.  1.
         11   -1    0    0    0    0 -0.00000000000E+00 -0.00000000000E+00 -0.18250000000E+03  0.18250000000E+03  0.00000000000E+00 0.  1.
        -11    1    1    2    0    0 -0.23239106146E+01 -0.81563107629E+00  0.17290618802E+03  0.17292372790E+03  0.00000000000E+00 0.  1.
         11    1    1    2    0    0 -0.21225821971E+01  0.17518511461E+01 -0.16568934073E+03  0.16571219620E+03  0.00000000000E+00 0.  1.
        -15    1    1    2    0    0  0.10165302350E+01  0.37229620783E+01  0.85106486546E+01  0.95122368493E+01  0.17770000000E+01 0.  1.
         15    1    1    2    0    0  0.34299625767E+01 -0.46591821481E+01 -0.15727495943E+02  0.16851839045E+02  0.17770000000E+01 0. -1.
</event>
<event>
 6    1  0.1538410E-002  0.1842200E+03  0.7546771E-02  0.1067094E+00
        -11   -1    0    0    0    0  0.00000000000E+00  0.00000000000E+00  0.18250000000E+03  0.18250000000E+03  0.00000000000E+00 0. -1.
         11   -1    0    0    0    0 -0.00000000000E+00 -0.00000000000E+00 -0.18250000000E+03  0.18250000000E+03  0.00000000000E+00 0.  1.
        -11    1    1    2    0    0  0.25480796504E+01 -0.24015451722E+01  0.18074609508E+03  0.18078000723E+03  0.00000000000E+00 0. -1.
         11    1    1    2    0    0  0.11999554679E+01  0.13314031602E+01 -0.12729165151E+03  0.12730426966E+03  0.00000000000E+00 0.  1.
        -15    1    1    2    0    0 -0.16570172561E+01  0.78906943032E+00  0.73332711106E+00  0.26577875018E+01  0.17770000000E+01 0. -1.
         15    1    1    2    0    0 -0.20910178622E+01  0.28107258170E+00 -0.54187770673E+02  0.54257935613E+02  0.17770000000E+01 0.  1.
</event>
<event>
 6    1  0.1226227E-002  0.1861338E+03  0.7546771E-02  0.1065599E+00
        -11   -1    0    0    0    0  0.00000000000E+00  0.00000000000E+00  0.18250000000E+03  0.18250000000E+03  0.00000000000E+00 0. -1.
         11   -1    0    0    0    0 -0.00000000000E+00 -0.00000000000E+00 -0.18250000000E+03  0.18250000000E+03  0.00000000000E+00 0.  1.
        -11    1    1    2    0    0 -0.22771073721E+01 -0.84834285422E+01  0.17865035798E+03  0.17886616277E+03  0.00000000000E+00 0. -1.
         11    1    1    2    0    0  0.36689278464E+01 -0.18747146245E+01 -0.16360171469E+03  0.16365358730E+03  0.00000000000E+00 0.  1.
        -15    1    1    2    0    0  0.20343277517E+01  0.22527504466E+01 -0.12731815736E+02  0.13208718140E+02  0.17770000000E+01 0. -1.
         15    1    1    2    0    0 -0.34261482261E+01  0.81053927201E+01 -0.23168275468E+01  0.92715317880E+01  0.17770000000E+01 0.  1.
</event>
<event>
 6    1  0.1226227E-002  0.1922812E+03  0.7546771E-02  0.1060925E+00
        -11   -1    0    0    0    0  0.00000000000E+00  0.00000000000E+00  0.18250000000E+03  0.18250000000E+03  0.00000000000E+00 0. -1.
         11   -1    0    0    0    0 -0.00000000000E+00 -0.00000000000E+00 -0.18250000000E+03  0.18250000000E+03  0.00000000000E+00 0. -1.
        -11    1    1    2    0    0  0.29475964617E+01 -0.15511546459E+01  0.15544125193E+03  0.15547693464E+03  0.00000000000E+00 0. -1.
         11    1    1    2    0    0  0.15505240567E+02  0.31771640734E+01 -0.17199213191E+03  0.17271884754E+03  0.00000000000E+00 0. -1.
        -15    1    1    2    0    0  0.14846311403E+01 -0.37576109936E+01  0.16073899641E+02  0.16668885645E+02  0.17770000000E+01 0.  1.
         15    1    1    2    0    0 -0.19937468169E+02  0.21316015661E+01  0.47698034798E+00  0.20135332168E+02  0.17770000000E+01 0. -1.
</event>
<event>
 6    1  0.1226227E-002  0.1828863E+03  0.7546771E-02  0.1068148E+00
        -11   -1    0    0    0    0  0.00000000000E+00  0.00000000000E+00  0.18250000000E+03  0.18250000000E+03  0.00000000000E+00 0. -1.
         11   -1    0    0    0    0 -0.00000000000E+00 -0.00000000000E+00 -0.18250000000E+03  0.18250000000E+03  0.00000000000E+00 0.  1.
        -11    1    1    2    0    0  0.61739494797E+01  0.25659807071E+01  0.18199096245E+03  0.18211373458E+03  0.00000000000E+00 0. -1.
         11    1    1    2    0    0  0.23379783194E+01 -0.12229508873E+00 -0.10008916835E+03  0.10011654569E+03  0.00000000000E+00 0.  1.
        -15    1    1    2    0    0  0.83424280663E+00 -0.12879487353E+01 -0.18283963977E+02  0.18434094518E+02  0.17770000000E+01 0. -1.
         15    1    1    2    0    0 -0.93461706057E+01 -0.11557368830E+01 -0.63617830124E+02  0.64335625212E+02  0.17770000000E+01 0.  1.
</event>
<event>
 6    1  0.1226227E-002  0.1835931E+03  0.7546771E-02  0.1067588E+00
        -11   -1    0    0    0    0  0.00000000000E+00  0.00000000000E+00  0.18250000000E+03  0.18250000000E+03  0.00000000000E+00 0.  1.
         11   -1    0    0    0    0 -0.00000000000E+00 -0.00000000000E+00 -0.18250000000E+03  0.18250000000E+03  0.00000000000E+00 0. -1.
        -11    1    1    2    0    0 -0.57593996023E+01  0.46279777711E+01  0.18125642049E+03  0.18140694262E+03  0.00000000000E+00 0.  1.
         11    1    1    2    0    0  0.27934490836E+01  0.24656393125E+01 -0.15089584216E+03  0.15094183620E+03  0.00000000000E+00 0. -1.
        -15    1    1    2    0    0  0.27326168500E+01 -0.57208338130E+01 -0.88925941365E+01  0.11064858510E+02  0.17770000000E+01 0.  1.
         15    1    1    2    0    0  0.23333366874E+00 -0.13727832707E+01 -0.21467984200E+02  0.21586362665E+02  0.17770000000E+01 0. -1.
</event>
<event>
 6    1  0.1226227E-002  0.1851218E+03  0.7546771E-02  0.1066387E+00
        -11   -1    0    0    0    0  0.00000000000E+00  0.00000000000E+00  0.18250000000E+03  0.18250000000E+03  0.00000000000E+00 0.  1.
         11   -1    0    0    0    0 -0.00000000000E+00 -0.00000000000E+00 -0.18250000000E+03  0.18250000000E+03  0.00000000000E+00 0.  1.
        -11    1    1    2    0    0  0.16975745994E+01 -0.56733260789E+01  0.15683800500E+03  0.15694976330E+03  0.00000000000E+00 0.  1.
         11    1    1    2    0    0  0.52388861932E+01 -0.13520754894E+01 -0.17979680951E+03  0.17987819976E+03  0.00000000000E+00 0.  1.
        -15    1    1    2    0    0 -0.99813800524E+00 -0.12760659258E+01  0.14774913390E+02  0.14969315897E+02  0.17770000000E+01 0.  1.
         15    1    1    2    0    0 -0.59383227874E+01  0.83014674941E+01  0.81838911258E+01  0.13202721047E+02  0.17770000000E+01 0. -1.
</event>
<event>
 6    1  0.1226227E-002  0.2066067E+03  0.7546771E-02  0.1050737E+00
        -11   -1    0    0    0    0  0.00000000000E+00  0.00000000000E+00  0.18250000000E+03  0.18250000000E+03  0.00000000000E+00 0.  1.
         11   -1    0    0    0    0 -0.00000000000E+00 -0.00000000000E+00 -0.18250000000E+03  0.18250000000E+03  0.00000000000E+00 0. -1.
        -11    1    1    2    0    0 -0.26301226735E+01 -0.14134470504E+01  0.15836511552E+03  0.15839326119E+03  0.00000000000E+00 0.  1.
         11    1    1    2    0    0 -0.54359958476E+01  0.35419921193E+01 -0.13387052560E+03  0.13402765903E+03  0.00000000000E+00 0. -1.
        -15    1    1    2    0    0  0.27956089017E+02 -0.11841635114E+02  0.95989575052E+01  0.31891455744E+02  0.17770000000E+01 0.  1.
         15    1    1    2    0    0 -0.19889970496E+02  0.97130900448E+01 -0.34093547423E+02  0.40687624033E+02  0.17770000000E+01 0. -1.
</event>
<event>
 6    1  0.1226227E-002  0.1826485E+03  0.7546771E-02  0.1068337E+00
        -11   -1    0    0    0    0  0.00000000000E+00  0.00000000000E+00  0.18250000000E+03  0.18250000000E+03  0.00000000000E+00 0.  1.
         11   -1    0    0    0    0 -0.00000000000E+00 -0.00000000000E+00 -0.18250000000E+03  0.18250000000E+03  0.00000000000E+00 0. -1.
        -11    1    1    2    0    0  0.20423775914E-01 -0.11494501850E+01  0.69513115737E+02  0.69522621587E+02  0.00000000000E+00 0.  1.
         11    1    1    2    0    0  0.39182186777E+01 -0.50081576062E+00 -0.18230872158E+03  0.18235151006E+03  0.00000000000E+00 0. -1.
        -15    1    1    2    0    0 -0.19179170250E+01 -0.21756680044E+01  0.28807711251E+02  0.29007824695E+02  0.17770000000E+01 0.  1.
         15    1    1    2    0    0 -0.20207254286E+01  0.38259339500E+01  0.83987894596E+02  0.84118043662E+02  0.17770000000E+01 0. -1.
</event>
<event>
 6    1  0.1226227E-002  0.1833074E+03  0.7546771E-02  0.1067814E+00
        -11   -1    0    0    0    0  0.00000000000E+00  0.00000000000E+00  0.18250000000E+03  0.18250000000E+03  0.00000000000E+00 0. -1.
         11   -1    0    0    0    0 -0.00000000000E+00 -0.00000000000E+00 -0.18250000000E+03  0.18250000000E+03  0.00000000000E+00 0.  1.
        -11    1    1    2    0    0  0.48655352772E+01  0.52092785968E+00  0.18162665677E+03  0.18169256244E+03  0.00000000000E+00 0. -1.
         11    1    1    2    0    0 -0.18493310617E+01 -0.93368633753E+00 -0.14901659699E+03  0.14903099669E+03  0.00000000000E+00 0.  1.
        -15    1    1    2    0    0  0.19141547699E+01 -0.27482895065E+01 -0.18684218153E+02  0.19065015622E+02  0.17770000000E+01 0.  1.
         15    1    1    2    0    0 -0.49303589854E+01  0.31610479844E+01 -0.13925841626E+02  0.15211425248E+02  0.17770000000E+01 0.  1.
</event>
<event>
 6    1  0.1226227E-002  0.1738017E+03  0.7546771E-02  0.1075597E+00
        -11   -1    0    0    0    0  0.00000000000E+00  0.00000000000E+00  0.18250000000E+03  0.18250000000E+03  0.00000000000E+00 0.  1.
         11   -1    0    0    0    0 -0.00000000000E+00 -0.00000000000E+00 -0.18250000000E+03  0.18250000000E+03  0.00000000000E+00 0.  1.
        -11    1    1    2    0    0 -0.40697556116E+01  0.37781721057E+01  0.17728349570E+03  0.17737044664E+03  0.00000000000E+00 0.  1.
         11    1    1    2    0    0 -0.10525534064E+01  0.73380663267E+01 -0.17035621736E+03  0.17051743570E+03  0.00000000000E+00 0.  1.
        -15    1    1    2    0    0  0.55818418914E+01 -0.79023791234E+01 -0.85855305505E+01  0.13056554620E+02  0.17770000000E+01 0.  1.
         15    1    1    2    0    0 -0.45953287338E+00 -0.32138593090E+01  0.16582522109E+01  0.40555630330E+01  0.17770000000E+01 0. -1.
</event>
<event>
 6    1  0.1226227E-002  0.1773421E+03  0.7546771E-02  0.1072636E+00
        -11   -1    0    0    0    0  0.00000000000E+00  0.00000000000E+00  0.18250000000E+03  0.18250000000E+03  0.00000000000E+00 0.  1.
         11   -1    0    0    0    0 -0.00000000000E+00 -0.00000000000E+00 -0.18250000000E+03  0.18250000000E+03  0.00000000000E+00 0. -1.
        -11    1    1    2    0    0 -0.22019352288E+01  0.59453532117E+01  0.17828163636E+03  0.17839433177E+03  0.00000000000E+00 0.  1.
         11    1    1    2    0    0 -0.22360796289E+01 -0.18737771054E+01 -0.17632229825E+03  0.17634643164E+03  0.00000000000E+00 0. -1.
        -15    1    1    2    0    0  0.36199102451E+00 -0.52846315352E+00 -0.38328005009E+01  0.42729848450E+01  0.17770000000E+01 0.  1.
         15    1    1    2    0    0  0.40760238332E+01 -0.35431129528E+01  0.18734623876E+01  0.59862517490E+01  0.17770000000E+01 0.  1.
</event>
<event>
 6    1  0.1226227E-002  0.1350464E+03  0.7546771E-02  0.1114109E+00
        -11   -1    0    0    0    0  0.00000000000E+00  0.00000000000E+00  0.18250000000E+03  0.18250000000E+03  0.00000000000E+00 0. -1.
         11   -1    0    0    0    0 -0.00000000000E+00 -0.00000000000E+00 -0.18250000000E+03  0.18250000000E+03  0.00000000000E+00 0.  1.
        -11    1    1    2    0    0  0.10071877838E+02 -0.12754442704E+02  0.11305386274E+03  0.11421599893E+03  0.00000000000E+00 0. -1.
         11    1    1    2    0    0 -0.20643895624E+01 -0.73024342985E+02 -0.88645910938E+02  0.11486911638E+03  0.00000000000E+00 0.  1.
        -15    1    1    2    0    0  0.12456057941E+02  0.12739259766E+02  0.35157140322E+02  0.39454079174E+02  0.17770000000E+01 0. -1.
         15    1    1    2    0    0 -0.20463546216E+02  0.73039525923E+02 -0.59565092125E+02  0.96460805510E+02  0.17770000000E+01 0.  1.
</event>
<event>
 6    1  0.1226227E-002  0.1829617E+03  0.7546771E-02  0.1068088E+00
        -11   -1    0    0    0    0  0.00000000000E+00  0.00000000000E+00  0.18250000000E+03  0.18250000000E+03  0.00000000000E+00 0. -1.
         11   -1    0    0    0    0 -0.00000000000E+00 -0.00000000000E+00 -0.18250000000E+03  0.18250000000E+03  0.00000000000E+00 0.  1.
        -11    1    1    2    0    0  0.33422916402E+01  0.15549490398E-01  0.18200758684E+03  0.18203827296E+03  0.00000000000E+00 0. -1.
         11    1    1    2    0    0  0.24176574937E+00 -0.40670889540E+01 -0.14953280601E+03  0.14958830080E+03  0.00000000000E+00 0.  1.
        -15    1    1    2    0    0 -0.37581116720E+00  0.86374832757E+00 -0.17839850342E+02  0.17952862848E+02  0.17770000000E+01 0. -1.
         15    1    1    2    0    0 -0.32082462223E+01  0.31877911361E+01 -0.14634930487E+02  0.15420563398E+02  0.17770000000E+01 0.  1.
</event>
<event>
 6    1  0.1226227E-002  0.1834145E+03  0.7546771E-02  0.1067729E+00
        -11   -1    0    0    0    0  0.00000000000E+00  0.00000000000E+00  0.18250000000E+03  0.18250000000E+03  0.00000000000E+00 0. -1.
         11   -1    0    0    0    0 -0.00000000000E+00 -0.00000000000E+00 -0.18250000000E+03  0.18250000000E+03  0.00000000000E+00 0.  1.
        -11    1    1    2    0    0 -0.20742637365E+00 -0.32213340602E+01  0.14410238547E+03  0.14413853585E+03  0.00000000000E+00 0. -1.
         11    1    1    2    0    0 -0.51224808613E+01  0.69356527994E+00 -0.18151195023E+03  0.18158554161E+03  0.00000000000E+00 0.  1.
        -15    1    1    2    0    0  0.36050834622E+00  0.19049381692E+01  0.30226876934E+02  0.30341070744E+02  0.17770000000E+01 0.  1.
         15    1    1    2    0    0  0.49693988888E+01  0.62283061103E+00  0.71826878307E+01  0.89348518039E+01  0.17770000000E+01 0. -1.
</event>
<event>
 6    1  0.1226227E-002  0.1932452E+03  0.7546771E-02  0.1060209E+00
        -11   -1    0    0    0    0  0.00000000000E+00  0.00000000000E+00  0.18250000000E+03  0.18250000000E+03  0.00000000000E+00 0. -1.
         11   -1    0    0    0    0 -0.00000000000E+00 -0.00000000000E+00 -0.18250000000E+03  0.18250000000E+03  0.00000000000E+00 0.  1.
        -11    1    1    2    0    0 -0.33051318022E+01  0.83748931094E+00  0.17172097893E+03  0.17175482493E+03  0.00000000000E+00 0. -1.
         11    1    1    2    0    0  0.33500076068E+02 -0.41419089021E+01 -0.10910536998E+03  0.11420767166E+03  0.00000000000E+00 0.  1.
        -15    1    1    2    0    0 -0.34495774023E+02  0.12938488840E+02 -0.53493650178E+02  0.64977621204E+02  0.17770000000E+01 0. -1.
         15    1    1    2    0    0  0.43008297575E+01 -0.96340692488E+01 -0.91219587649E+01  0.14059882204E+02  0.17770000000E+01 0. -1.
</event>
<event>
 6    1  0.1226227E-002  0.1912042E+03  0.7546771E-02  0.1061730E+00
        -11   -1    0    0    0    0  0.00000000000E+00  0.00000000000E+00  0.18250000000E+03  0.18250000000E+03  0.00000000000E+00 0. -1.
         11   -1    0    0    0    0 -0.00000000000E+00 -0.00000000000E+00 -0.18250000000E+03  0.18250000000E+03  0.00000000000E+00 0.  1.
        -11    1    1    2    0    0  0.91523449036E+01 -0.27202143398E+01  0.17353336042E+03  0.17379583470E+03  0.00000000000E+00 0. -1.
         11    1    1    2    0    0 -0.40649969009E+01 -0.11046013070E+01 -0.13658108999E+03  0.13664603356E+03  0.00000000000E+00 0.  1.
        -15    1    1    2    0    0 -0.34662812093E+01 -0.53010773215E+00 -0.44959599086E+02  0.45131135578E+02  0.17770000000E+01 0. -1.
         15    1    1    2    0    0 -0.16210667934E+01  0.43549233790E+01  0.80073286642E+01  0.94269961558E+01  0.17770000000E+01 0.  1.
</event>
<event>
 6    1  0.1226227E-002  0.1883332E+03  0.7546771E-02  0.1063904E+00
        -11   -1    0    0    0    0  0.00000000000E+00  0.00000000000E+00  0.18250000000E+03  0.18250000000E+03  0.00000000000E+00 0. -1.
         11   -1    0    0    0    0 -0.00000000000E+00 -0.00000000000E+00 -0.18250000000E+03  0.18250000000E+03  0.00000000000E+00 0. -1.
        -11    1    1    2    0    0 -0.30719814677E+01 -0.24354174562E+01  0.17042728803E+03  0.17047236971E+03  0.00000000000E+00 0. -1.
         11    1    1    2    0    0  0.26370035536E+01  0.34148204076E+01 -0.17661411059E+03  0.17666680177E+03  0.00000000000E+00 0. -1.
        -15    1    1    2    0    0  0.20826995273E+01  0.47284717252E+01  0.94031351685E+01  0.10875328141E+02  0.17770000000E+01 0. -1.
         15    1    1    2    0    0 -0.16477216132E+01 -0.57078746766E+01 -0.32163126087E+01  0.69855003855E+01  0.17770000000E+01 0. -1.
</event>
<event>
 6    1  0.1226227E-002  0.1838315E+03  0.7546771E-02  0.1067400E+00
        -11   -1    0    0    0    0  0.00000000000E+00  0.00000000000E+00  0.18250000000E+03  0.18250000000E+03  0.00000000000E+00 0. -1.
         11   -1    0    0    0    0 -0.00000000000E+00 -0.00000000000E+00 -0.18250000000E+03  0.18250000000E+03  0.00000000000E+00 0.  1.
        -11    1    1    2    0    0 -0.28079643992E+01  0.58309459035E+00  0.18114575765E+03  0.18116845801E+03  0.00000000000E+00 0. -1.
         11    1    1    2    0    0  0.56496571216E+00 -0.23483519583E+01 -0.17550790776E+03  0.17552452714E+03  0.00000000000E+00 0.  1.
        -15    1    1    2    0    0  0.20919411199E+01 -0.32088132119E+00 -0.10407732762E+01  0.29529850125E+01  0.17770000000E+01 0.  1.
         15    1    1    2    0    0  0.15105756714E+00  0.20861386892E+01 -0.45970766163E+01  0.53540298314E+01  0.17770000000E+01 0.  1.
</event>
<event>
 6    1  0.1226227E-002  0.1832912E+03  0.7546771E-02  0.1067827E+00
        -11   -1    0    0    0    0  0.00000000000E+00  0.00000000000E+00  0.18250000000E+03  0.18250000000E+03  0.00000000000E+00 0. -1.
         11   -1    0    0    0    0 -0.00000000000E+00 -0.00000000000E+00 -0.18250000000E+03  0.18250000000E+03  0.00000000000E+00 0.  1.
        -11    1    1    2    0    0 -0.23711134843E+01  0.88634765501E+00  0.18169120759E+03  0.18170884048E+03  0.00000000000E+00 0. -1.
         11    1    1    2    0    0 -0.44295327011E+00  0.83193238055E+00 -0.65748676814E+02  0.65755431881E+02  0.00000000000E+00 0.  1.
        -15    1    1    2    0    0  0.57141568132E+01 -0.26794081220E+01 -0.11218760650E+03  0.11237903540E+03  0.17770000000E+01 0.  1.
         15    1    1    2    0    0 -0.29000900588E+01  0.96112808648E+00 -0.37549242796E+01  0.51566922434E+01  0.17770000000E+01 0. -1.
</event>
<event>
 6    1  0.1226227E-002  0.1837802E+03  0.7546771E-02  0.1067440E+00
        -11   -1    0    0    0    0  0.00000000000E+00  0.00000000000E+00  0.18250000000E+03  0.18250000000E+03  0.00000000000E+00 0.  1.
         11   -1    0    0    0    0 -0.00000000000E+00 -0.00000000000E+00 -0.18250000000E+03  0.18250000000E+03  0.00000000000E+00 0.  1.
        -11    1    1    2    0    0 -0.39889910155E+01  0.18511221678E+01  0.18116642808E+03  0.18121979297E+03  0.00000000000E+00 0.  1.
         11    1    1    2    0    0  0.21605987252E+01  0.80641985954E+00 -0.14265884171E+03  0.14267748111E+03  0.00000000000E+00 0.  1.
        -15    1    1    2    0    0  0.46751770396E+01  0.38859856232E+01 -0.11695132259E+02  0.13300075645E+02  0.17770000000E+01 0.  1.
         15    1    1    2    0    0 -0.28467847493E+01 -0.65435276505E+01 -0.26812454110E+02  0.27802650268E+02  0.17770000000E+01 0. -1.
</event>
<event>
 6    1  0.1226227E-002  0.1826123E+03  0.7546771E-02  0.1068365E+00
        -11   -1    0    0    0    0  0.00000000000E+00  0.00000000000E+00  0.18250000000E+03  0.18250000000E+03  0.00000000000E+00 0. -1.
         11   -1    0    0    0    0 -0.00000000000E+00 -0.00000000000E+00 -0.18250000000E+03  0.18250000000E+03  0.00000000000E+00 0.  1.
        -11    1    1    2    0    0  0.31610360644E+00  0.13433261210E+01  0.53772038854E+02  0.53789744460E+02  0.00000000000E+00 0. -1.
         11    1    1    2    0    0 -0.27125137601E+01  0.21288225321E+01 -0.18235511422E+03  0.18238771148E+03  0.00000000000E+00 0.  1.
        -15    1    1    2    0    0  0.39640067066E+01 -0.29391917684E+01  0.99538969401E+02  0.99677060329E+02  0.17770000000E+01 0. -1.
         15    1    1    2    0    0 -0.15675965530E+01 -0.53295688472E+00  0.29044105962E+02  0.29145483734E+02  0.17770000000E+01 0. -1.
</event>
<event>
 6    1  0.1226227E-002  0.1839690E+03  0.7546771E-02  0.1067291E+00
        -11   -1    0    0    0    0  0.00000000000E+00  0.00000000000E+00  0.18250000000E+03  0.18250000000E+03  0.00000000000E+00 0. -1.
         11   -1    0    0    0    0 -0.00000000000E+00 -0.00000000000E+00 -0.18250000000E+03  0.18250000000E+03  0.00000000000E+00 0. -1.
        -11    1    1    2    0    0  0.97212291639E+00  0.35896866339E+01  0.16584515834E+03  0.16588685125E+03  0.00000000000E+00 0. -1.
         11    1    1    2    0    0 -0.31415300106E+01 -0.87944287900E+00 -0.18100164131E+03  0.18103103819E+03  0.00000000000E+00 0. -1.
        -15    1    1    2    0    0  0.14757236712E+01  0.79951324806E+00  0.37820458084E-01  0.24446147293E+01  0.17770000000E+01 0.  1.
         15    1    1    2    0    0  0.69368342300E+00 -0.35097570030E+01  0.15118662509E+02  0.15637495835E+02  0.17770000000E+01 0. -1.
</event>
<event>
 6    1  0.1226227E-002  0.1832425E+03  0.7546771E-02  0.1067865E+00
        -11   -1    0    0    0    0  0.00000000000E+00  0.00000000000E+00  0.18250000000E+03  0.18250000000E+03  0.00000000000E+00 0. -1.
         11   -1    0    0    0    0 -0.00000000000E+00 -0.00000000000E+00 -0.18250000000E+03  0.18250000000E+03  0.00000000000E+00 0. -1.
        -11    1    1    2    0    0 -0.88316503163E+01  0.12868597926E+01  0.18153822247E+03  0.18175747653E+03  0.00000000000E+00 0. -1.
         11    1    1    2    0    0 -0.65020540196E+00  0.17628588481E+01 -0.11751406865E+03  0.11752908904E+03  0.00000000000E+00 0. -1.
        -15    1    1    2    0    0 -0.15635645451E+01 -0.12576021253E+01 -0.22925082514E+02  0.23081235549E+02  0.17770000000E+01 0.  1.
         15    1    1    2    0    0  0.11045420263E+02 -0.17921165155E+01 -0.41099071307E+02  0.42632198884E+02  0.17770000000E+01 0. -1.
</event>
<event>
 6    1  0.1226227E-002  0.1828105E+03  0.7546771E-02  0.1068208E+00
        -11   -1    0    0    0    0  0.00000000000E+00  0.00000000000E+00  0.18250000000E+03  0.18250000000E+03  0.00000000000E+00 0.  1.
         11   -1    0    0    0    0 -0.00000000000E+00 -0.00000000000E+00 -0.18250000000E+03  0.18250000000E+03  0.00000000000E+00 0.  1.
        -11    1    1    2    0    0 -0.12897618936E+01  0.14554406935E+01  0.11643828714E+03  0.11645452548E+03  0.00000000000E+00 0.  1.
         11    1    1    2    0    0  0.32345988177E+01  0.85431244759E+00 -0.18215882533E+03  0.18218954450E+03  0.00000000000E+00 0.  1.
        -15    1    1    2    0    0 -0.13648085049E+01 -0.30993432658E+01  0.62001341197E+02  0.62119181178E+02  0.17770000000E+01 0.  1.
         15    1    1    2    0    0 -0.58002841919E+00  0.78959012469E+00  0.37191969911E+01  0.42367488468E+01  0.17770000000E+01 0.  1.
</event>
<event>
 6    1  0.1226227E-002  0.1831404E+03  0.7546771E-02  0.1067946E+00
        -11   -1    0    0    0    0  0.00000000000E+00  0.00000000000E+00  0.18250000000E+03  0.18250000000E+03  0.00000000000E+00 0. -1.
         11   -1    0    0    0    0 -0.00000000000E+00 -0.00000000000E+00 -0.18250000000E+03  0.18250000000E+03  0.00000000000E+00 0. -1.
        -11    1    1    2    0    0  0.16358471343E+01 -0.13675341367E+01  0.63729957524E+02  0.63765614805E+02  0.00000000000E+00 0. -1.
         11    1    1    2    0    0  0.23733429835E+01 -0.44562520610E+01 -0.18178954752E+03  0.18185964513E+03  0.00000000000E+00 0. -1.
        -15    1    1    2    0    0 -0.16609619335E+01  0.81498829756E+01  0.11145056036E+03  0.11177461483E+03  0.17770000000E+01 0. -1.
         15    1    1    2    0    0 -0.23482281843E+01 -0.23260967779E+01  0.66090296396E+01  0.76001252360E+01  0.17770000000E+01 0. -1.
</event>
<event>
 6    1  0.1226227E-002  0.1828437E+03  0.7546771E-02  0.1068182E+00
        -11   -1    0    0    0    0  0.00000000000E+00  0.00000000000E+00  0.18250000000E+03  0.18250000000E+03  0.00000000000E+00 0. -1.
         11   -1    0    0    0    0 -0.00000000000E+00 -0.00000000000E+00 -0.18250000000E+03  0.18250000000E+03  0.00000000000E+00 0.  1.
        -11    1    1    2    0    0 -0.20064897611E+01  0.50065982258E+00  0.68891333987E+02  0.68922366181E+02  0.00000000000E+00 0. -1.
         11    1    1    2    0    0 -0.12174633365E+00  0.27748893726E+01 -0.18213513562E+03  0.18215631326E+03  0.00000000000E+00 0.  1.
        -15    1    1    2    0    0  0.25530046090E+01 -0.33892280730E+00  0.75731647785E+01  0.81940987891E+01  0.17770000000E+01 0. -1.
         15    1    1    2    0    0 -0.42476851425E+00 -0.29366263879E+01  0.10567063685E+03  0.10572722177E+03  0.17770000000E+01 0. -1.
</event>
<event>
 6    1  0.1226227E-002  0.1830413E+03  0.7546771E-02  0.1068025E+00
        -11   -1    0    0    0    0  0.00000000000E+00  0.00000000000E+00  0.18250000000E+03  0.18250000000E+03  0.00000000000E+00 0. -1.
         11   -1    0    0    0    0 -0.00000000000E+00 -0.00000000000E+00 -0.18250000000E+03  0.18250000000E+03  0.00000000000E+00 0. -1.
        -11    1    1    2    0    0  0.21079342516E+01  0.51920137656E+01  0.18187238116E+03  0.18195868603E+03  0.00000000000E+00 0. -1.
         11    1    1    2    0    0  0.16668098655E+01  0.73235661095E+00 -0.12906449746E+03  0.12907733769E+03  0.00000000000E+00 0. -1.
        -15    1    1    2    0    0 -0.27632867464E+01 -0.49504322798E+01 -0.15693108971E+02  0.16780164826E+02  0.17770000000E+01 0.  1.
         15    1    1    2    0    0 -0.10114573707E+01 -0.97393809681E+00 -0.37114774735E+02  0.37183811451E+02  0.17770000000E+01 0. -1.
</event>
<event>
 6    1  0.1226227E-002  0.1833568E+03  0.7546771E-02  0.1067775E+00
        -11   -1    0    0    0    0  0.00000000000E+00  0.00000000000E+00  0.18250000000E+03  0.18250000000E+03  0.00000000000E+00 0.  1.
         11   -1    0    0    0    0 -0.00000000000E+00 -0.00000000000E+00 -0.18250000000E+03  0.18250000000E+03  0.00000000000E+00 0. -1.
        -11    1    1    2    0    0  0.44412998729E+01 -0.32456881647E+01  0.18155992382E+03  0.18164323707E+03  0.00000000000E+00 0.  1.
         11    1    1    2    0    0 -0.74284547799E+00 -0.40073816071E+01 -0.54372649342E+02  0.54525186136E+02  0.00000000000E+00 0. -1.
        -15    1    1    2    0    0 -0.10024360611E+02  0.16656311894E+01 -0.93108462324E+02  0.93678202472E+02  0.17770000000E+01 0. -1.
         15    1    1    2    0    0  0.63259062158E+01  0.55874385824E+01 -0.34078812153E+02  0.35153374321E+02  0.17770000000E+01 0.  1.
</event>
<event>
 6    1  0.1226227E-002  0.1841835E+03  0.7546771E-02  0.1067123E+00
        -11   -1    0    0    0    0  0.00000000000E+00  0.00000000000E+00  0.18250000000E+03  0.18250000000E+03  0.00000000000E+00 0. -1.
         11   -1    0    0    0    0 -0.00000000000E+00 -0.00000000000E+00 -0.18250000000E+03  0.18250000000E+03  0.00000000000E+00 0.  1.
        -11    1    1    2    0    0 -0.55121537288E+01  0.12242637782E+00  0.60685737617E+02  0.60935683939E+02  0.00000000000E+00 0. -1.
         11    1    1    2    0    0  0.43513488139E+01  0.62254336185E+01 -0.18065688156E+03  0.18081647910E+03  0.00000000000E+00 0.  1.
        -15    1    1    2    0    0 -0.69454630383E-01 -0.23544585130E+01  0.11840917864E+03  0.11844593540E+03  0.17770000000E+01 0. -1.
         15    1    1    2    0    0  0.12302595453E+01 -0.39934014833E+01  0.15619653063E+01  0.48019015581E+01  0.17770000000E+01 0.  1.
</event>
<event>
 6    1  0.1226227E-002  0.1852827E+03  0.7546771E-02  0.1066261E+00
        -11   -1    0    0    0    0  0.00000000000E+00  0.00000000000E+00  0.18250000000E+03  0.18250000000E+03  0.00000000000E+00 0.  1.
         11   -1    0    0    0    0 -0.00000000000E+00 -0.00000000000E+00 -0.18250000000E+03  0.18250000000E+03  0.00000000000E+00 0.  1.
        -11    1    1    2    0    0 -0.48947188518E+00 -0.23848088486E+01  0.17970078937E+03  0.17971727962E+03  0.00000000000E+00 0.  1.
         11    1    1    2    0    0 -0.35918605358E+01  0.38430767226E+01 -0.15883133489E+03  0.15891841820E+03  0.00000000000E+00 0.  1.
        -15    1    1    2    0    0 -0.52377836345E+01 -0.72914912150E+00 -0.35775884265E+01  0.66274356876E+01  0.17770000000E+01 0.  1.
         15    1    1    2    0    0  0.93191160555E+01 -0.72911875247E+00 -0.17291866055E+02  0.19736866491E+02  0.17770000000E+01 0. -1.
</event>
<event>
 6    1  0.1226227E-002  0.1835247E+03  0.7546771E-02  0.1067642E+00
        -11   -1    0    0    0    0  0.00000000000E+00  0.00000000000E+00  0.18250000000E+03  0.18250000000E+03  0.00000000000E+00 0. -1.
         11   -1    0    0    0    0 -0.00000000000E+00 -0.00000000000E+00 -0.18250000000E+03  0.18250000000E+03  0.00000000000E+00 0.  1.
        -11    1    1    2    0    0  0.41589351495E+00  0.31218627251E+01  0.18144793115E+03  0.18147526199E+03  0.00000000000E+00 0. -1.
         11    1    1    2    0    0 -0.10695977268E+01  0.25115508095E+01 -0.63705890753E+02  0.63764350882E+02  0.00000000000E+00 0.  1.
        -15    1    1    2    0    0  0.58708523382E+01  0.19160912150E+01 -0.12055497986E+02  0.13661298379E+02  0.17770000000E+01 0. -1.
         15    1    1    2    0    0 -0.52171481264E+01 -0.75495047496E+01 -0.10568654242E+03  0.10609908875E+03  0.17770000000E+01 0.  1.
</event>
<event>
 6    1  0.1226227E-002  0.1829001E+03  0.7546771E-02  0.1068137E+00
        -11   -1    0    0    0    0  0.00000000000E+00  0.00000000000E+00  0.18250000000E+03  0.18250000000E+03  0.00000000000E+00 0.  1.
         11   -1    0    0    0    0 -0.00000000000E+00 -0.00000000000E+00 -0.18250000000E+03  0.18250000000E+03  0.00000000000E+00 0. -1.
        -11    1    1    2    0    0 -0.13948054775E+01  0.31933032929E+01  0.12895471818E+03  0.12900179072E+03  0.00000000000E+00 0.  1.
         11    1    1    2    0    0  0.34406538980E+01 -0.45950189459E+01 -0.18200941781E+03  0.18209991892E+03  0.00000000000E+00 0. -1.
        -15    1    1    2    0    0  0.15522661777E+01 -0.19890036350E+01  0.33772071954E+02  0.33912773977E+02  0.17770000000E+01 0. -1.
         15    1    1    2    0    0 -0.35981145981E+01  0.33907192881E+01  0.19282627676E+02  0.19985516382E+02  0.17770000000E+01 0.  1.
</event>
<event>
 6    1  0.1226227E-002  0.1881050E+03  0.7546771E-02  0.1064079E+00
        -11   -1    0    0    0    0  0.00000000000E+00  0.00000000000E+00  0.18250000000E+03  0.18250000000E+03  0.00000000000E+00 0.  1.
         11   -1    0    0    0    0 -0.00000000000E+00 -0.00000000000E+00 -0.18250000000E+03  0.18250000000E+03  0.00000000000E+00 0.  1.
        -11    1    1    2    0    0  0.58473376561E+01  0.60585656445E+01  0.17392061758E+03  0.17412431994E+03  0.00000000000E+00 0.  1.
         11    1    1    2    0    0 -0.35129418199E+01 -0.58259996162E+01 -0.17676417388E+03  0.17689504289E+03  0.00000000000E+00 0.  1.
        -15    1    1    2    0    0 -0.68173471251E+01 -0.32427849002E+01  0.32344054983E+00  0.77623590823E+01  0.17770000000E+01 0. -1.
         15    1    1    2    0    0  0.44829512890E+01  0.30102188719E+01  0.25201157499E+01  0.62182780823E+01  0.17770000000E+01 0.  1.
</event>
<event>
 6    1  0.1226227E-002  0.1837691E+03  0.7546771E-02  0.1067449E+00
        -11   -1    0    0    0    0  0.00000000000E+00  0.00000000000E+00  0.18250000000E+03  0.18250000000E+03  0.00000000000E+00 0.  1.
         11   -1    0    0    0    0 -0.00000000000E+00 -0.00000000000E+00 -0.18250000000E+03  0.18250000000E+03  0.00000000000E+00 0. -1.
        -11    1    1    2    0    0 -0.11674328677E+01  0.42393332783E+01  0.14090364250E+03  0.14097223598E+03  0.00000000000E+00 0.  1.
         11    1    1    2    0    0 -0.58559554744E+01 -0.37798849184E+01 -0.18109686839E+03  0.18123094516E+03  0.00000000000E+00 0. -1.
        -15    1    1    2    0    0  0.40126216177E+01  0.46576075703E+01  0.93058047200E+01  0.11293811182E+02  0.17770000000E+01 0. -1.
         15    1    1    2    0    0  0.30107667245E+01 -0.51170559301E+01  0.30887421163E+02  0.31503007678E+02  0.17770000000E+01 0. -1.
</event>
<event>
 6    1  0.1226227E-002  0.1851119E+03  0.7546771E-02  0.1066395E+00
        -11   -1    0    0    0    0  0.00000000000E+00  0.00000000000E+00  0.18250000000E+03  0.18250000000E+03  0.00000000000E+00 0.  1.
         11   -1    0    0    0    0 -0.00000000000E+00 -0.00000000000E+00 -0.18250000000E+03  0.18250000000E+03  0.00000000000E+00 0.  1.
        -11    1    1    2    0    0 -0.17376060936E+00  0.13022425976E+01  0.95479823779E+02  0.95488862059E+02  0.00000000000E+00 0.  1.
         11    1    1    2    0    0  0.16636256939E+01  0.21649749973E+01 -0.17986740846E+03  0.17988813021E+03  0.00000000000E+00 0.  1.
        -15    1    1    2    0    0 -0.17668158396E+01 -0.71443657832E+01  0.30178601917E+01  0.81503870946E+01  0.17770000000E+01 0.  1.
         15    1    1    2    0    0  0.27695075504E+00  0.36771481883E+01  0.81369724486E+02  0.81472620631E+02  0.17770000000E+01 0.  1.
</event>
<event>
 6    1  0.1226227E-002  0.1838685E+03  0.7546771E-02  0.1067371E+00
        -11   -1    0    0    0    0  0.00000000000E+00  0.00000000000E+00  0.18250000000E+03  0.18250000000E+03  0.00000000000E+00 0.  1.
         11   -1    0    0    0    0 -0.00000000000E+00 -0.00000000000E+00 -0.18250000000E+03  0.18250000000E+03  0.00000000000E+00 0.  1.
        -11    1    1    2    0    0  0.69736191747E+01  0.79036429316E+00  0.18099551581E+03  0.18113153448E+03  0.00000000000E+00 0.  1.
         11    1    1    2    0    0 -0.12658547010E+01  0.79930788676E+01 -0.13112440498E+03  0.13137389878E+03  0.00000000000E+00 0.  1.
        -15    1    1    2    0    0 -0.57657621549E+01 -0.37425315857E+01 -0.99849793502E+01  0.12251860982E+02  0.17770000000E+01 0. -1.
         15    1    1    2    0    0  0.57997681191E-01 -0.50409115751E+01 -0.39886131481E+02  0.40242705759E+02  0.17770000000E+01 0.  1.
</event>
<event>
 6    1  0.1226227E-002  0.1842564E+03  0.7546771E-02  0.1067065E+00
        -11   -1    0    0    0    0  0.00000000000E+00  0.00000000000E+00  0.18250000000E+03  0.18250000000E+03  0.00000000000E+00 0.  1.
         11   -1    0    0    0    0 -0.00000000000E+00 -0.00000000000E+00 -0.18250000000E+03  0.18250000000E+03  0.00000000000E+00 0.  1.
        -11    1    1    2    0    0 -0.26111507915E+01  0.81954668198E+01  0.14774814966E+03  0.14799830915E+03  0.00000000000E+00 0.  1.
         11    1    1    2    0    0  0.53049771874E+01 -0.44275621492E+00 -0.18066522103E+03  0.18074363310E+03  0.00000000000E+00 0.  1.
        -15    1    1    2    0    0 -0.57365408427E+01 -0.94485101837E+01  0.22506201670E+02  0.25137006348E+02  0.17770000000E+01 0. -1.
         15    1    1    2    0    0  0.30427144468E+01  0.16957995788E+01  0.10410869700E+02  0.11121051404E+02  0.17770000000E+01 0.  1.
</event>
<event>
 6    1  0.1226227E-002  0.1850847E+03  0.7546771E-02  0.1066416E+00
        -11   -1    0    0    0    0  0.00000000000E+00  0.00000000000E+00  0.18250000000E+03  0.18250000000E+03  0.00000000000E+00 0. -1.
         11   -1    0    0    0    0 -0.00000000000E+00 -0.00000000000E+00 -0.18250000000E+03  0.18250000000E+03  0.00000000000E+00 0. -1.
        -11    1    1    2    0    0 -0.51650657323E+01  0.10389537512E+02  0.17954076394E+03  0.17991527536E+03  0.00000000000E+00 0. -1.
         11    1    1    2    0    0  0.64964940717E+00 -0.54313008339E+00 -0.47293714684E+02  0.47301294732E+02  0.00000000000E+00 0. -1.
        -15    1    1    2    0    0  0.40515813316E+01 -0.11083188360E+02 -0.10149950920E+02  0.15666256994E+02  0.17770000000E+01 0.  1.
         15    1    1    2    0    0  0.46383499352E+00  0.12367809317E+01 -0.12209709833E+03  0.12211717291E+03  0.17770000000E+01 0. -1.
</event>
<event>
 6    1  0.1226227E-002  0.1931116E+03  0.7546771E-02  0.1060308E+00
        -11   -1    0    0    0    0  0.00000000000E+00  0.00000000000E+00  0.18250000000E+03  0.18250000000E+03  0.00000000000E+00 0. -1.
         11   -1    0    0    0    0 -0.00000000000E+00 -0.00000000000E+00 -0.18250000000E+03  0.18250000000E+03  0.00000000000E+00 0.  1.
        -11    1    1    2    0    0  0.71727128482E+01  0.15108568666E+01  0.17173207225E+03  0.17188843805E+03  0.00000000000E+00 0. -1.
         11    1    1    2    0    0 -0.43374939557E+00  0.28201269690E+01 -0.15736988487E+03  0.15739574937E+03  0.00000000000E+00 0.  1.
        -15    1    1    2    0    0 -0.60705641596E+01  0.10346476582E+02 -0.16797024395E+02  0.20717120562E+02  0.17770000000E+01 0.  1.
         15    1    1    2    0    0 -0.66839929296E+00 -0.14677460418E+02  0.24348370182E+01  0.14998692018E+02  0.17770000000E+01 0. -1.
</event>
<event>
 6    1  0.1510843E-002  0.1858564E+03  0.7546771E-02  0.1065814E+00
        -11   -1    0    0    0    0  0.00000000000E+00  0.00000000000E+00  0.18250000000E+03  0.18250000000E+03  0.00000000000E+00 0.  1.
         11   -1    0    0    0    0 -0.00000000000E+00 -0.00000000000E+00 -0.18250000000E+03  0.18250000000E+03  0.00000000000E+00 0. -1.
        -11    1    1    2    0    0  0.53783722524E+01 -0.84128976050E+01  0.17886513057E+03  0.17914362581E+03  0.00000000000E+00 0.  1.
         11    1    1    2    0    0 -0.92397655649E+01  0.40239351499E+01 -0.14033402813E+03  0.14069543266E+03  0.00000000000E+00 0. -1.
        -15    1    1    2    0    0  0.54792879854E+01 -0.15151829033E+01 -0.38322949053E+02  0.38783044351E+02  0.17770000000E+01 0. -1.
         15    1    1    2    0    0 -0.16178946729E+01  0.59041453585E+01 -0.20815339020E+00  0.63778971786E+01  0.17770000000E+01 0.  1.
</event>
<event>
 6    1  0.1226227E-002  0.1829169E+03  0.7546771E-02  0.1068123E+00
        -11   -1    0    0    0    0  0.00000000000E+00  0.00000000000E+00  0.18250000000E+03  0.18250000000E+03  0.00000000000E+00 0. -1.
         11   -1    0    0    0    0 -0.00000000000E+00 -0.00000000000E+00 -0.18250000000E+03  0.18250000000E+03  0.00000000000E+00 0. -1.
        -11    1    1    2    0    0  0.97337714846E+00  0.34268653043E+01  0.18204825251E+03  0.18208310496E+03  0.00000000000E+00 0. -1.
         11    1    1    2    0    0 -0.55992928314E+00 -0.31564381704E+01 -0.16544245043E+03  0.16547350551E+03  0.00000000000E+00 0. -1.
        -15    1    1    2    0    0 -0.14148772805E+01 -0.16026643028E+01 -0.69593530222E+01  0.74940465754E+01  0.17770000000E+01 0.  1.
         15    1    1    2    0    0  0.10014294151E+01  0.13322371688E+01 -0.96464490629E+01  0.99493429567E+01  0.17770000000E+01 0. -1.
</event>
<event>
 6    1  0.1226227E-002  0.1830243E+03  0.7546771E-02  0.1068038E+00
        -11   -1    0    0    0    0  0.00000000000E+00  0.00000000000E+00  0.18250000000E+03  0.18250000000E+03  0.00000000000E+00 0. -1.
         11   -1    0    0    0    0 -0.00000000000E+00 -0.00000000000E+00 -0.18250000000E+03  0.18250000000E+03  0.00000000000E+00 0.  1.
        -11    1    1    2    0    0  0.12055321650E+01 -0.20690418283E+01  0.12751234135E+03  0.12753482442E+03  0.00000000000E+00 0. -1.
         11    1    1    2    0    0 -0.51388894463E+01  0.26340472789E+01 -0.18188408783E+03  0.18197573409E+03  0.00000000000E+00 0.  1.
        -15    1    1    2    0    0  0.49580759180E+01 -0.13474550312E+01  0.13426790915E+02  0.14485668613E+02  0.17770000000E+01 0. -1.
         15    1    1    2    0    0 -0.10247186366E+01  0.78244958066E+00  0.40944955563E+02  0.41003772884E+02  0.17770000000E+01 0. -1.
</event>
<event>
 6    1  0.1226227E-002  0.1856571E+03  0.7546771E-02  0.1065969E+00
        -11   -1    0    0    0    0  0.00000000000E+00  0.00000000000E+00  0.18250000000E+03  0.18250000000E+03  0.00000000000E+00 0.  1.
         11   -1    0    0    0    0 -0.00000000000E+00 -0.00000000000E+00 -0.18250000000E+03  0.18250000000E+03  0.00000000000E+00 0.  1.
        -11    1    1    2    0    0 -0.38209332975E+01 -0.78280108727E+00  0.15225438347E+03  0.15230433216E+03  0.00000000000E+00 0.  1.
         11    1    1    2    0    0 -0.57046397657E+01 -0.29406149066E+01 -0.17922806349E+03  0.17934293650E+03  0.00000000000E+00 0.  1.
        -15    1    1    2    0    0  0.23026099906E+01  0.18173528363E+01  0.25251448070E+02  0.25483291442E+02  0.17770000000E+01 0. -1.
         15    1    1    2    0    0  0.72229630727E+01  0.19060631575E+01  0.17222319482E+01  0.78694398907E+01  0.17770000000E+01 0.  1.
</event>
<event>
 6    1  0.1226227E-002  0.1684187E+03  0.7546771E-02  0.1080251E+00
        -11   -1    0    0    0    0  0.00000000000E+00  0.00000000000E+00  0.18250000000E+03  0.18250000000E+03  0.00000000000E+00 0. -1.
         11   -1    0    0    0    0 -0.00000000000E+00 -0.00000000000E+00 -0.18250000000E+03  0.18250000000E+03  0.00000000000E+00 0.  1.
        -11    1    1    2    0    0  0.10472104835E+01  0.50775313664E+01  0.17292711772E+03  0.17300481502E+03  0.00000000000E+00 0. -1.
         11    1    1    2    0    0  0.35148262540E+01  0.15557496787E+02 -0.16384264653E+03  0.16461713924E+03  0.00000000000E+00 0.  1.
        -15    1    1    2    0    0 -0.76814332354E+01 -0.18057174773E+02 -0.10994479561E+02  0.22563295131E+02  0.17770000000E+01 0.  1.
         15    1    1    2    0    0  0.31193964979E+01 -0.25778533800E+01  0.19100083639E+01  0.48147506177E+01  0.17770000000E+01 0. -1.
</event>
<event>
 6    1  0.1226227E-002  0.1842552E+03  0.7546771E-02  0.1067066E+00
        -11   -1    0    0    0    0  0.00000000000E+00  0.00000000000E+00  0.18250000000E+03  0.18250000000E+03  0.00000000000E+00 0.  1.
         11   -1    0    0    0    0 -0.00000000000E+00 -0.00000000000E+00 -0.18250000000E+03  0.18250000000E+03  0.00000000000E+00 0. -1.
        -11    1    1    2    0    0  0.27116050466E+01  0.71563453849E+00  0.16277477199E+03  0.16279892914E+03  0.00000000000E+00 0.  1.
         11    1    1    2    0    0  0.14490298118E+01  0.25537357253E+01 -0.18072091382E+03  0.18074476464E+03  0.00000000000E+00 0. -1.
        -15    1    1    2    0    0 -0.14565738069E+01 -0.81182273532E+00 -0.56746069073E+00  0.25020799436E+01  0.17770000000E+01 0.  1.
         15    1    1    2    0    0 -0.27040610514E+01 -0.24575475284E+01  0.18513602524E+02  0.18954226268E+02  0.17770000000E+01 0.  1.
</event>
<event>
 6    1  0.1226227E-002  0.1864970E+03  0.7546771E-02  0.1065317E+00
        -11   -1    0    0    0    0  0.00000000000E+00  0.00000000000E+00  0.18250000000E+03  0.18250000000E+03  0.00000000000E+00 0. -1.
         11   -1    0    0    0    0 -0.00000000000E+00 -0.00000000000E+00 -0.18250000000E+03  0.18250000000E+03  0.00000000000E+00 0. -1.
        -11    1    1    2    0    0  0.30700958671E+01  0.23826363690E+01  0.16956008036E+03  0.16960460871E+03  0.00000000000E+00 0. -1.
         11    1    1    2    0    0  0.26777986525E+01 -0.46358703174E+01 -0.17842268737E+03  0.17850298952E+03  0.00000000000E+00 0. -1.
        -15    1    1    2    0    0 -0.25895992599E+01  0.28646169402E+01 -0.25128355000E+01  0.49380285328E+01  0.17770000000E+01 0.  1.
         15    1    1    2    0    0 -0.31582952597E+01 -0.61138299182E+00  0.11375442515E+02  0.11954373239E+02  0.17770000000E+01 0. -1.
</event>
<event>
 6    1  0.1226227E-002  0.1840574E+03  0.7546771E-02  0.1067222E+00
        -11   -1    0    0    0    0  0.00000000000E+00  0.00000000000E+00  0.18250000000E+03  0.18250000000E+03  0.00000000000E+00 0.  1.
         11   -1    0    0    0    0 -0.00000000000E+00 -0.00000000000E+00 -0.18250000000E+03  0.18250000000E+03  0.00000000000E+00 0. -1.
        -11    1    1    2    0    0 -0.10314123119E+01  0.36352214370E+01  0.16766362122E+03  0.16770619705E+03  0.00000000000E+00 0.  1.
         11    1    1    2    0    0  0.35393122438E+01 -0.55339916263E+00 -0.18090713056E+03  0.18094259550E+03  0.00000000000E+00 0. -1.
        -15    1    1    2    0    0 -0.91627722628E+00 -0.11555624239E+01 -0.42065669261E+00  0.23472472226E+01  0.17770000000E+01 0.  1.
         15    1    1    2    0    0 -0.15916227057E+01 -0.19262598505E+01  0.13664166026E+02  0.14003960226E+02  0.17770000000E+01 0. -1.
</event>
<event>
 6    1  0.1226227E-002  0.1834619E+03  0.7546771E-02  0.1067692E+00
        -11   -1    0    0    0    0  0.00000000000E+00  0.00000000000E+00  0.18250000000E+03  0.18250000000E+03  0.00000000000E+00 0.  1.
         11   -1    0    0    0    0 -0.00000000000E+00 -0.00000000000E+00 -0.18250000000E+03  0.18250000000E+03  0.00000000000E+00 0. -1.
        -11    1    1    2    0    0  0.15661854174E+01 -0.71817798231E+00  0.12579182853E+03  0.12580362810E+03  0.00000000000E+00 0.  1.
         11    1    1    2    0    0  0.11272720793E+01 -0.42907729585E+01 -0.18148389315E+03  0.18153810880E+03  0.00000000000E+00 0. -1.
        -15    1    1    2    0    0  0.34847801949E+01  0.54811003337E+01  0.41857422072E+02  0.42395609035E+02  0.17770000000E+01 0.  1.
         15    1    1    2    0    0 -0.61782376916E+01 -0.47214939296E+00  0.13834642541E+02  0.15262654070E+02  0.17770000000E+01 0. -1.
</event>
<event>
 6    1  0.1226227E-002  0.1926007E+03  0.7546771E-02  0.1060687E+00
        -11   -1    0    0    0    0  0.00000000000E+00  0.00000000000E+00  0.18250000000E+03  0.18250000000E+03  0.00000000000E+00 0.  1.
         11   -1    0    0    0    0 -0.00000000000E+00 -0.00000000000E+00 -0.18250000000E+03  0.18250000000E+03  0.00000000000E+00 0. -1.
        -11    1    1    2    0    0 -0.12230080202E+01 -0.23389536824E+01  0.16320109358E+03  0.16322243534E+03  0.00000000000E+00 0.  1.
         11    1    1    2    0    0 -0.19352233296E+00 -0.29990896467E+01 -0.17237311261E+03  0.17239930957E+03  0.00000000000E+00 0. -1.
        -15    1    1    2    0    0 -0.59535807461E+01 -0.78344214450E+00 -0.76814302823E+01  0.99106511126E+01  0.17770000000E+01 0. -1.
         15    1    1    2    0    0  0.73701110992E+01  0.61214854736E+01  0.16853449309E+02  0.19467603978E+02  0.17770000000E+01 0.  1.
</event>
<event>
 6    1  0.1226227E-002  0.1913097E+03  0.7546771E-02  0.1061651E+00
        -11   -1    0    0    0    0  0.00000000000E+00  0.00000000000E+00  0.18250000000E+03  0.18250000000E+03  0.00000000000E+00 0.  1.
         11   -1    0    0    0    0 -0.00000000000E+00 -0.00000000000E+00 -0.18250000000E+03  0.18250000000E+03  0.00000000000E+00 0.  1.
        -11    1    1    2    0    0  0.36604240036E+01 -0.58868436131E+01  0.15642903213E+03  0.15658255243E+03  0.00000000000E+00 0.  1.
         11    1    1    2    0    0 -0.18270892673E+02  0.89314452061E+01 -0.17249556308E+03  0.17369028619E+03  0.00000000000E+00 0.  1.
        -15    1    1    2    0    0  0.88624419288E+01 -0.41131739063E+01 -0.61532122966E+01  0.11682500892E+02  0.17770000000E+01 0. -1.
         15    1    1    2    0    0  0.57480267406E+01  0.10685723134E+01  0.22219743252E+02  0.23044660496E+02  0.17770000000E+01 0.  1.
</event>
<event>
 6    1  0.1226227E-002  0.1875000E+03  0.7546771E-02  0.1064543E+00
        -11   -1    0    0    0    0  0.00000000000E+00  0.00000000000E+00  0.18250000000E+03  0.18250000000E+03  0.00000000000E+00 0.  1.
         11   -1    0    0    0    0 -0.00000000000E+00 -0.00000000000E+00 -0.18250000000E+03  0.18250000000E+03  0.00000000000E+00 0. -1.
        -11    1    1    2    0    0  0.20747145809E+01 -0.34986386975E+01  0.15980893015E+03  0.15986068644E+03  0.00000000000E+00 0.  1.
         11    1    1    2    0    0 -0.70539364301E+01  0.96044484330E+01 -0.17709951753E+03  0.17749997904E+03  0.00000000000E+00 0. -1.
        -15    1    1    2    0    0 -0.49996617756E+01  0.29355668434E+01  0.56040248304E+00  0.60898235200E+01  0.17770000000E+01 0. -1.
         15    1    1    2    0    0  0.99788836248E+01 -0.90413765789E+01  0.16730184891E+02  0.21549511000E+02  0.17770000000E+01 0.  1.
</event>
<event>
 6    1  0.1226227E-002  0.1898669E+03  0.7546771E-02  0.1062737E+00
        -11   -1    0    0    0    0  0.00000000000E+00  0.00000000000E+00  0.18250000000E+03  0.18250000000E+03  0.00000000000E+00 0. -1.
         11   -1    0    0    0    0 -0.00000000000E+00 -0.00000000000E+00 -0.18250000000E+03  0.18250000000E+03  0.00000000000E+00 0. -1.
        -11    1    1    2    0    0 -0.21092845293E+01 -0.14980582658E+01  0.14939968703E+03  0.14942208587E+03  0.00000000000E+00 0. -1.
         11    1    1    2    0    0 -0.14449652424E+02 -0.20089926419E+02 -0.17337595710E+03  0.17513314963E+03  0.00000000000E+00 0. -1.
        -15    1    1    2    0    0  0.13925498941E+02  0.22853836157E+02  0.14759535787E+02  0.30614032297E+02  0.17770000000E+01 0. -1.
         15    1    1    2    0    0  0.26334380130E+01 -0.12658514720E+01  0.92167342875E+01  0.98307322028E+01  0.17770000000E+01 0.  1.
</event>
<event>
 6    1  0.1226227E-002  0.1666953E+03  0.7546771E-02  0.1081781E+00
        -11   -1    0    0    0    0  0.00000000000E+00  0.00000000000E+00  0.18250000000E+03  0.18250000000E+03  0.00000000000E+00 0. -1.
         11   -1    0    0    0    0 -0.00000000000E+00 -0.00000000000E+00 -0.18250000000E+03  0.18250000000E+03  0.00000000000E+00 0.  1.
        -11    1    1    2    0    0  0.10670565797E+01  0.71481098977E+01  0.16685026142E+03  0.16700671789E+03  0.00000000000E+00 0. -1.
         11    1    1    2    0    0  0.78854465093E+01 -0.61145188752E+01 -0.16620700676E+03  0.16650626626E+03  0.00000000000E+00 0.  1.
        -15    1    1    2    0    0 -0.65180965874E+01  0.66043183213E+01 -0.13351950516E+02  0.16356494588E+02  0.17770000000E+01 0.  1.
         15    1    1    2    0    0 -0.24344065016E+01 -0.76379093437E+01  0.12708695861E+02  0.15130521261E+02  0.17770000000E+01 0. -1.
</event>
<event>
 6    1  0.1226227E-002  0.1834412E+03  0.7546771E-02  0.1067708E+00
        -11   -1    0    0    0    0  0.00000000000E+00  0.00000000000E+00  0.18250000000E+03  0.18250000000E+03  0.00000000000E+00 0.  1.
         11   -1    0    0    0    0 -0.00000000000E+00 -0.00000000000E+00 -0.18250000000E+03  0.18250000000E+03  0.00000000000E+00 0.  1.
        -11    1    1    2    0    0  0.15860959301E+00  0.22330373552E+01  0.15518316742E+03  0.15519931399E+03  0.00000000000E+00 0.  1.
         11    1    1    2    0    0 -0.37334409235E+01  0.39236066241E+00 -0.18152001301E+03  0.18155882697E+03  0.00000000000E+00 0.  1.
        -15    1    1    2    0    0  0.56067375700E+01 -0.24602427084E+01  0.23384970708E+02  0.24238458787E+02  0.17770000000E+01 0.  1.
         15    1    1    2    0    0 -0.20319062396E+01 -0.16515530919E+00  0.29518748778E+01  0.40034002469E+01  0.17770000000E+01 0.  1.
</event>
<event>
 6    1  0.1226227E-002  0.1827107E+03  0.7546771E-02  0.1068287E+00
        -11   -1    0    0    0    0  0.00000000000E+00  0.00000000000E+00  0.18250000000E+03  0.18250000000E+03  0.00000000000E+00 0. -1.
         11   -1    0    0    0    0 -0.00000000000E+00 -0.00000000000E+00 -0.18250000000E+03  0.18250000000E+03  0.00000000000E+00 0.  1.
        -11    1    1    2    0    0  0.19417302544E+01  0.23171719624E+01  0.18226421572E+03  0.18228928639E+03  0.00000000000E+00 0. -1.
         11    1    1    2    0    0 -0.15989649218E+01 -0.38205223378E+01 -0.12413415885E+03  0.12420323053E+03  0.00000000000E+00 0.  1.
        -15    1    1    2    0    0  0.16076088563E+01  0.13369974246E+01 -0.12350917442E+02  0.12652069356E+02  0.17770000000E+01 0. -1.
         15    1    1    2    0    0 -0.19503741890E+01  0.16635295079E+00 -0.45779139423E+02  0.45855413727E+02  0.17770000000E+01 0.  1.
</event>
<event>
 6    1  0.1226227E-002  0.1831364E+03  0.7546771E-02  0.1067949E+00
        -11   -1    0    0    0    0  0.00000000000E+00  0.00000000000E+00  0.18250000000E+03  0.18250000000E+03  0.00000000000E+00 0.  1.
         11   -1    0    0    0    0 -0.00000000000E+00 -0.00000000000E+00 -0.18250000000E+03  0.18250000000E+03  0.00000000000E+00 0.  1.
        -11    1    1    2    0    0 -0.14521121513E+01 -0.18870437045E-01  0.57738100715E+02  0.57756361208E+02  0.00000000000E+00 0.  1.
         11    1    1    2    0    0  0.45189497853E+01 -0.11323232054E+00 -0.18180740652E+03  0.18186359392E+03  0.00000000000E+00 0.  1.
        -15    1    1    2    0    0 -0.54313563228E+01 -0.95104558410E-01  0.12210830059E+02  0.13482239284E+02  0.17770000000E+01 0.  1.
         15    1    1    2    0    0  0.23645186888E+01  0.22720731599E+00  0.11185847574E+03  0.11189780559E+03  0.17770000000E+01 0.  1.
</event>
<event>
 6    1  0.1226227E-002  0.1814651E+03  0.7546771E-02  0.1069282E+00
        -11   -1    0    0    0    0  0.00000000000E+00  0.00000000000E+00  0.18250000000E+03  0.18250000000E+03  0.00000000000E+00 0.  1.
         11   -1    0    0    0    0 -0.00000000000E+00 -0.00000000000E+00 -0.18250000000E+03  0.18250000000E+03  0.00000000000E+00 0.  1.
        -11    1    1    2    0    0 -0.63662884493E+00 -0.25407849259E-01  0.21449901065E+01  0.22376157852E+01  0.00000000000E+00 0.  1.
         11    1    1    2    0    0 -0.65890574647E+01  0.13520908196E+01 -0.18222889562E+03  0.18235299347E+03  0.00000000000E+00 0.  1.
        -15    1    1    2    0    0  0.10301122733E+01  0.53132650740E+00  0.10630809787E+03  0.10632926616E+03  0.17770000000E+01 0. -1.
         15    1    1    2    0    0  0.61955740363E+01 -0.18580094777E+01  0.73775807643E+02  0.74080124589E+02  0.17770000000E+01 0.  1.
</event>
<event>
 6    1  0.1226227E-002  0.1832814E+03  0.7546771E-02  0.1067834E+00
        -11   -1    0    0    0    0  0.00000000000E+00  0.00000000000E+00  0.18250000000E+03  0.18250000000E+03  0.00000000000E+00 0.  1.
         11   -1    0    0    0    0 -0.00000000000E+00 -0.00000000000E+00 -0.18250000000E+03  0.18250000000E+03  0.00000000000E+00 0.  1.
        -11    1    1    2    0    0 -0.25808041057E-01 -0.24838667245E+01  0.18170160729E+03  0.18171858559E+03  0.00000000000E+00 0.  1.
         11    1    1    2    0    0  0.35147715368E+01  0.16503940538E+01 -0.16957568774E+03  0.16962013823E+03  0.00000000000E+00 0.  1.
        -15    1    1    2    0    0 -0.26691926682E+01 -0.67804215158E+00 -0.95222682746E+01  0.10070533886E+02  0.17770000000E+01 0. -1.
         15    1    1    2    0    0 -0.81977082751E+00  0.15115148223E+01 -0.26036512684E+01  0.35907422903E+01  0.17770000000E+01 0.  1.
</event>
<event>
 6    1  0.1226227E-002  0.1864986E+03  0.7546771E-02  0.1065316E+00
        -11   -1    0    0    0    0  0.00000000000E+00  0.00000000000E+00  0.18250000000E+03  0.18250000000E+03  0.00000000000E+00 0.  1.
         11   -1    0    0    0    0 -0.00000000000E+00 -0.00000000000E+00 -0.18250000000E+03  0.18250000000E+03  0.00000000000E+00 0.  1.
        -11    1    1    2    0    0  0.91499378212E+01  0.87936530352E+00  0.17826456669E+03  0.17850140163E+03  0.00000000000E+00 0.  1.
         11    1    1    2    0    0 -0.31152040463E+01  0.18493886881E+01 -0.12023084318E+03  0.12028541219E+03  0.00000000000E+00 0.  1.
        -15    1    1    2    0    0  0.22796887643E+01 -0.29131576922E+01 -0.57549055157E+02  0.57695189982E+02  0.17770000000E+01 0.  1.
         15    1    1    2    0    0 -0.83144225392E+01  0.18440370062E+00 -0.48466835438E+00  0.85179962021E+01  0.17770000000E+01 0. -1.
</event>
<event>
 6    1  0.1226227E-002  0.1830732E+03  0.7546771E-02  0.1067999E+00
        -11   -1    0    0    0    0  0.00000000000E+00  0.00000000000E+00  0.18250000000E+03  0.18250000000E+03  0.00000000000E+00 0. -1.
         11   -1    0    0    0    0 -0.00000000000E+00 -0.00000000000E+00 -0.18250000000E+03  0.18250000000E+03  0.00000000000E+00 0. -1.
        -11    1    1    2    0    0 -0.30498805475E+01  0.24876051888E+01  0.18188421195E+03  0.18192678887E+03  0.00000000000E+00 0. -1.
         11    1    1    2    0    0 -0.46660376787E+00 -0.53767325152E+01 -0.13992255512E+03  0.14002659891E+03  0.00000000000E+00 0. -1.
        -15    1    1    2    0    0  0.10655626776E+01 -0.19336953459E+01 -0.24878927635E+02  0.25039835678E+02  0.17770000000E+01 0. -1.
         15    1    1    2    0    0  0.24509216378E+01  0.48228226723E+01 -0.17082729197E+02  0.18006776536E+02  0.17770000000E+01 0.  1.
</event>
<event>
 6    1  0.1226227E-002  0.1826059E+03  0.7546771E-02  0.1068371E+00
        -11   -1    0    0    0    0  0.00000000000E+00  0.00000000000E+00  0.18250000000E+03  0.18250000000E+03  0.00000000000E+00 0. -1.
         11   -1    0    0    0    0 -0.00000000000E+00 -0.00000000000E+00 -0.18250000000E+03  0.18250000000E+03  0.00000000000E+00 0.  1.
        -11    1    1    2    0    0  0.12002029415E+01 -0.12185729510E+01  0.31548172807E+02  0.31594502918E+02  0.00000000000E+00 0. -1.
         11    1    1    2    0    0 -0.44605959446E+01 -0.58658749864E+01 -0.18224513320E+03  0.18239406235E+03  0.00000000000E+00 0.  1.
        -15    1    1    2    0    0  0.18605509551E+01  0.44236640977E+01  0.12127483935E+03  0.12138276172E+03  0.17770000000E+01 0. -1.
         15    1    1    2    0    0  0.13998420480E+01  0.26607838396E+01  0.29422121047E+02  0.29628673010E+02  0.17770000000E+01 0.  1.
</event>
<event>
 6    1  0.1226227E-002  0.1828615E+03  0.7546771E-02  0.1068167E+00
        -11   -1    0    0    0    0  0.00000000000E+00  0.00000000000E+00  0.18250000000E+03  0.18250000000E+03  0.00000000000E+00 0. -1.
         11   -1    0    0    0    0 -0.00000000000E+00 -0.00000000000E+00 -0.18250000000E+03  0.18250000000E+03  0.00000000000E+00 0.  1.
        -11    1    1    2    0    0 -0.95918876308E+00  0.95122106857E+00  0.41347840410E+02  0.41369901755E+02  0.00000000000E+00 0. -1.
         11    1    1    2    0    0 -0.75069582081E+01  0.51547625954E+01 -0.18191076001E+03  0.18213854783E+03  0.00000000000E+00 0.  1.
        -15    1    1    2    0    0  0.15549835289E+01 -0.21592230185E+01  0.10317728800E+03  0.10322688945E+03  0.17770000000E+01 0. -1.
         15    1    1    2    0    0  0.69111634423E+01 -0.39467606455E+01  0.37385631595E+02  0.38264660961E+02  0.17770000000E+01 0. -1.
</event>
<event>
 6    1  0.1226227E-002  0.1717391E+03  0.7546771E-02  0.1077358E+00
        -11   -1    0    0    0    0  0.00000000000E+00  0.00000000000E+00  0.18250000000E+03  0.18250000000E+03  0.00000000000E+00 0. -1.
         11   -1    0    0    0    0 -0.00000000000E+00 -0.00000000000E+00 -0.18250000000E+03  0.18250000000E+03  0.00000000000E+00 0. -1.
        -11    1    1    2    0    0  0.23887426297E+01 -0.21367873323E+01  0.17394226796E+03  0.17397179235E+03  0.00000000000E+00 0. -1.
         11    1    1    2    0    0  0.10965486096E+02  0.16661461835E+01 -0.16943314121E+03  0.16979578107E+03  0.00000000000E+00 0. -1.
        -15    1    1    2    0    0 -0.10118794923E+02  0.69968616268E+01 -0.56402406405E+01  0.13649766547E+02  0.17770000000E+01 0.  1.
         15    1    1    2    0    0 -0.32354338033E+01 -0.65262204780E+01  0.11311138927E+01  0.75826600386E+01  0.17770000000E+01 0. -1.
</event>
<event>
 6    1  0.1226227E-002  0.1935204E+03  0.7546771E-02  0.1060006E+00
        -11   -1    0    0    0    0  0.00000000000E+00  0.00000000000E+00  0.18250000000E+03  0.18250000000E+03  0.00000000000E+00 0.  1.
         11   -1    0    0    0    0 -0.00000000000E+00 -0.00000000000E+00 -0.18250000000E+03  0.18250000000E+03  0.00000000000E+00 0. -1.
        -11    1    1    2    0    0 -0.18326409594E+01 -0.16183953714E+01  0.15140154742E+03  0.15142128759E+03  0.00000000000E+00 0.  1.
         11    1    1    2    0    0 -0.29082807287E+01 -0.42596483283E-01 -0.17145494040E+03  0.17147960957E+03  0.00000000000E+00 0. -1.
        -15    1    1    2    0    0  0.32805077039E+01 -0.62300254754E+01  0.29032012081E+02  0.29926416469E+02  0.17770000000E+01 0. -1.
         15    1    1    2    0    0  0.14604139841E+01  0.78910173302E+01 -0.89786191017E+01  0.12172686371E+02  0.17770000000E+01 0.  1.
</event>
<event>
 6    1  0.1226227E-002  0.1875098E+03  0.7546771E-02  0.1064535E+00
        -11   -1    0    0    0    0  0.00000000000E+00  0.00000000000E+00  0.18250000000E+03  0.18250000000E+03  0.00000000000E+00 0. -1.
         11   -1    0    0    0    0 -0.00000000000E+00 -0.00000000000E+00 -0.18250000000E+03  0.18250000000E+03  0.00000000000E+00 0.  1.
        -11    1    1    2    0    0 -0.52443095852E+01 -0.88222854181E-01  0.13308397836E+03  0.13318729617E+03  0.00000000000E+00 0. -1.
         11    1    1    2    0    0 -0.12534147713E+02  0.86025536487E+01 -0.17683792290E+03  0.17749016807E+03  0.00000000000E+00 0.  1.
        -15    1    1    2    0    0  0.20748541407E+02 -0.14405520931E+02  0.33302201533E+02  0.41835575289E+02  0.17770000000E+01 0.  1.
         15    1    1    2    0    0 -0.29700841089E+01  0.58911901368E+01  0.10451743004E+02  0.12486960465E+02  0.17770000000E+01 0. -1.
</event>
<event>
 6    1  0.1226227E-002  0.1843216E+03  0.7546771E-02  0.1067014E+00
        -11   -1    0    0    0    0  0.00000000000E+00  0.00000000000E+00  0.18250000000E+03  0.18250000000E+03  0.00000000000E+00 0.  1.
         11   -1    0    0    0    0 -0.00000000000E+00 -0.00000000000E+00 -0.18250000000E+03  0.18250000000E+03  0.00000000000E+00 0.  1.
        -11    1    1    2    0    0  0.23810659681E+01  0.47698339373E+00  0.16291015236E+03  0.16292825026E+03  0.00000000000E+00 0.  1.
         11    1    1    2    0    0  0.41870708319E+01  0.97412794973E+00 -0.18062725767E+03  0.18067840684E+03  0.00000000000E+00 0.  1.
        -15    1    1    2    0    0  0.43170942955E+00  0.75318752836E+00 -0.16282601687E+00  0.19844157317E+01  0.17770000000E+01 0.  1.
         15    1    1    2    0    0 -0.69998462296E+01 -0.22042988718E+01  0.17879931321E+02  0.19408927167E+02  0.17770000000E+01 0. -1.
</event>
<event>
 6    1  0.1226227E-002  0.1830885E+03  0.7546771E-02  0.1067987E+00
        -11   -1    0    0    0    0  0.00000000000E+00  0.00000000000E+00  0.18250000000E+03  0.18250000000E+03  0.00000000000E+00 0.  1.
         11   -1    0    0    0    0 -0.00000000000E+00 -0.00000000000E+00 -0.18250000000E+03  0.18250000000E+03  0.00000000000E+00 0.  1.
        -11    1    1    2    0    0  0.32290636327E+01 -0.17655756454E+01  0.16603718178E+03  0.16607796315E+03  0.00000000000E+00 0.  1.
         11    1    1    2    0    0 -0.27985465907E+00  0.28488511113E+01 -0.18188895518E+03  0.18191147927E+03  0.00000000000E+00 0.  1.
        -15    1    1    2    0    0 -0.12177395851E+01 -0.12313773909E+01  0.12969026809E+02  0.13204263151E+02  0.17770000000E+01 0. -1.
         15    1    1    2    0    0 -0.17314693884E+01  0.14810192499E+00  0.28827465880E+01  0.38062944334E+01  0.17770000000E+01 0.  1.
</event>
<event>
 6    1  0.1226227E-002  0.1862404E+03  0.7546771E-02  0.1065516E+00
        -11   -1    0    0    0    0  0.00000000000E+00  0.00000000000E+00  0.18250000000E+03  0.18250000000E+03  0.00000000000E+00 0. -1.
         11   -1    0    0    0    0 -0.00000000000E+00 -0.00000000000E+00 -0.18250000000E+03  0.18250000000E+03  0.00000000000E+00 0.  1.
        -11    1    1    2    0    0  0.28122231675E+01 -0.10262450012E+01  0.17077007141E+03  0.17079630871E+03  0.00000000000E+00 0. -1.
         11    1    1    2    0    0  0.24286154815E+01 -0.73506033439E+01 -0.17859185770E+03  0.17875956248E+03  0.00000000000E+00 0.  1.
        -15    1    1    2    0    0  0.51170219755E-01  0.57836931565E+00  0.51641670659E+01  0.54921289079E+01  0.17770000000E+01 0. -1.
         15    1    1    2    0    0 -0.52920088688E+01  0.77984790294E+01  0.26576192207E+01  0.99519998976E+01  0.17770000000E+01 0. -1.
</event>
<event>
 6    1  0.1226227E-002  0.1839883E+03  0.7546771E-02  0.1067276E+00
        -11   -1    0    0    0    0  0.00000000000E+00  0.00000000000E+00  0.18250000000E+03  0.18250000000E+03  0.00000000000E+00 0.  1.
         11   -1    0    0    0    0 -0.00000000000E+00 -0.00000000000E+00 -0.18250000000E+03  0.18250000000E+03  0.00000000000E+00 0.  1.
        -11    1    1    2    0    0  0.47189763419E+00  0.46132626310E+01  0.18095227738E+03  0.18101168904E+03  0.00000000000E+00 0.  1.
         11    1    1    2    0    0  0.21956007535E+01  0.50446092185E+00 -0.14654761233E+03  0.14656492699E+03  0.00000000000E+00 0.  1.
        -15    1    1    2    0    0 -0.71756198261E+01 -0.32254265878E+01 -0.28178351217E+02  0.29309897695E+02  0.17770000000E+01 0. -1.
         15    1    1    2    0    0  0.45081214384E+01 -0.18922969651E+01 -0.62263138308E+01  0.81134862807E+01  0.17770000000E+01 0.  1.
</event>
<event>
 6    1  0.1226227E-002  0.1829230E+03  0.7546771E-02  0.1068119E+00
        -11   -1    0    0    0    0  0.00000000000E+00  0.00000000000E+00  0.18250000000E+03  0.18250000000E+03  0.00000000000E+00 0. -1.
         11   -1    0    0    0    0 -0.00000000000E+00 -0.00000000000E+00 -0.18250000000E+03  0.18250000000E+03  0.00000000000E+00 0.  1.
        -11    1    1    2    0    0  0.38612338774E+00  0.16386113632E+01  0.45710796820E+02  0.45741787070E+02  0.00000000000E+00 0. -1.
         11    1    1    2    0    0  0.24350252551E+01 -0.55056869741E+00 -0.18205991528E+03  0.18207703102E+03  0.00000000000E+00 0.  1.
        -15    1    1    2    0    0 -0.43247536228E+00 -0.18641379286E+01  0.13088012360E+03  0.13090617452E+03  0.17770000000E+01 0. -1.
         15    1    1    2    0    0 -0.23886732805E+01  0.77609526288E+00  0.54689948631E+01  0.62750073873E+01  0.17770000000E+01 0. -1.
</event>
<event>
 6    1  0.1226227E-002  0.1840096E+03  0.7546771E-02  0.1067259E+00
        -11   -1    0    0    0    0  0.00000000000E+00  0.00000000000E+00  0.18250000000E+03  0.18250000000E+03  0.00000000000E+00 0.  1.
         11   -1    0    0    0    0 -0.00000000000E+00 -0.00000000000E+00 -0.18250000000E+03  0.18250000000E+03  0.00000000000E+00 0.  1.
        -11    1    1    2    0    0  0.29205378089E+01  0.90112172751E-01  0.18096676610E+03  0.18099035360E+03  0.00000000000E+00 0.  1.
         11    1    1    2    0    0  0.35809835567E+01  0.40382496394E-01 -0.17015865476E+03  0.17019633623E+03  0.00000000000E+00 0.  1.
        -15    1    1    2    0    0 -0.50611633463E+01 -0.22544078513E+00 -0.41896661019E+01  0.68100828931E+01  0.17770000000E+01 0. -1.
         15    1    1    2    0    0 -0.14403580193E+01  0.94946115987E-01 -0.66184452392E+01  0.70032272827E+01  0.17770000000E+01 0. -1.
</event>
<event>
 6    1  0.1226227E-002  0.1826891E+03  0.7546771E-02  0.1068304E+00
        -11   -1    0    0    0    0  0.00000000000E+00  0.00000000000E+00  0.18250000000E+03  0.18250000000E+03  0.00000000000E+00 0. -1.
         11   -1    0    0    0    0 -0.00000000000E+00 -0.00000000000E+00 -0.18250000000E+03  0.18250000000E+03  0.00000000000E+00 0. -1.
        -11    1    1    2    0    0  0.14037503399E+01 -0.28861059017E+01  0.18228264911E+03  0.18231090009E+03  0.00000000000E+00 0. -1.
         11    1    1    2    0    0 -0.53315340835E+00  0.20831683551E+00 -0.21689220942E+02  0.21696772882E+02  0.00000000000E+00 0. -1.
        -15    1    1    2    0    0  0.17147409617E+01 -0.15976273481E+00 -0.13702238892E+03  0.13704473232E+03  0.17770000000E+01 0.  1.
         15    1    1    2    0    0 -0.25853378932E+01  0.28375518010E+01 -0.23571039249E+02  0.23947594713E+02  0.17770000000E+01 0.  1.
</event>
<event>
 6    1  0.1226227E-002  0.1834943E+03  0.7546771E-02  0.1067666E+00
        -11   -1    0    0    0    0  0.00000000000E+00  0.00000000000E+00  0.18250000000E+03  0.18250000000E+03  0.00000000000E+00 0.  1.
         11   -1    0    0    0    0 -0.00000000000E+00 -0.00000000000E+00 -0.18250000000E+03  0.18250000000E+03  0.00000000000E+00 0.  1.
        -11    1    1    2    0    0 -0.13820447102E+01  0.25393515334E+01  0.18148269041E+03  0.18150571691E+03  0.00000000000E+00 0.  1.
         11    1    1    2    0    0  0.63674848012E+01 -0.11698294325E+01 -0.15573907385E+03  0.15587357854E+03  0.00000000000E+00 0.  1.
        -15    1    1    2    0    0 -0.51242537465E+00 -0.38764686494E+01 -0.81975810247E+01  0.92546016992E+01  0.17770000000E+01 0. -1.
         15    1    1    2    0    0 -0.44730147164E+01  0.25069465485E+01 -0.17546035536E+02  0.18366102844E+02  0.17770000000E+01 0.  1.
</event>
<event>
 6    1  0.1226227E-002  0.1841579E+03  0.7546771E-02  0.1067143E+00
        -11   -1    0    0    0    0  0.00000000000E+00  0.00000000000E+00  0.18250000000E+03  0.18250000000E+03  0.00000000000E+00 0. -1.
         11   -1    0    0    0    0 -0.00000000000E+00 -0.00000000000E+00 -0.18250000000E+03  0.18250000000E+03  0.00000000000E+00 0.  1.
        -11    1    1    2    0    0 -0.28050921048E+00 -0.29623902362E+01  0.18081759340E+03  0.18084207620E+03  0.00000000000E+00 0. -1.
         11    1    1    2    0    0 -0.23925420342E+01 -0.15063610968E+01 -0.16910172256E+03  0.16912535574E+03  0.00000000000E+00 0.  1.
        -15    1    1    2    0    0  0.72928168061E+00  0.25777809024E+01 -0.37403265351E+00  0.32364232690E+01  0.17770000000E+01 0. -1.
         15    1    1    2    0    0  0.19437695640E+01  0.18909704306E+01 -0.11341838188E+02  0.11796144785E+02  0.17770000000E+01 0. -1.
</event>
<event>
 6    1  0.1226227E-002  0.1887976E+03  0.7546771E-02  0.1063550E+00
        -11   -1    0    0    0    0  0.00000000000E+00  0.00000000000E+00  0.18250000000E+03  0.18250000000E+03  0.00000000000E+00 0.  1.
         11   -1    0    0    0    0 -0.00000000000E+00 -0.00000000000E+00 -0.18250000000E+03  0.18250000000E+03  0.00000000000E+00 0. -1.
        -11    1    1    2    0    0 -0.79448677845E+00  0.56617235529E+01  0.17610966639E+03  0.17620244299E+03  0.00000000000E+00 0.  1.
         11    1    1    2    0    0 -0.20875618450E+01 -0.79506875911E+01 -0.42071269248E+02  0.42866805849E+02  0.00000000000E+00 0. -1.
        -15    1    1    2    0    0 -0.40334268075E+01 -0.40023999540E+01  0.42502439126E+01  0.73150556744E+01  0.17770000000E+01 0.  1.
         15    1    1    2    0    0  0.69154754309E+01  0.62913639922E+01 -0.13828864105E+03  0.13861569548E+03  0.17770000000E+01 0. -1.
</event>
<event>
 6    1  0.1226227E-002  0.1832601E+03  0.7546771E-02  0.1067851E+00
        -11   -1    0    0    0    0  0.00000000000E+00  0.00000000000E+00  0.18250000000E+03  0.18250000000E+03  0.00000000000E+00 0.  1.
         11   -1    0    0    0    0 -0.00000000000E+00 -0.00000000000E+00 -0.18250000000E+03  0.18250000000E+03  0.00000000000E+00 0.  1.
        -11    1    1    2    0    0 -0.29631580565E+01  0.14752804908E+01  0.18170979220E+03  0.18173993876E+03  0.00000000000E+00 0.  1.
         11    1    1    2    0    0 -0.24863198470E+01 -0.28021657436E+01 -0.60721533891E+02  0.60836983795E+02  0.00000000000E+00 0.  1.
        -15    1    1    2    0    0  0.11299386065E+02 -0.97563598142E+00 -0.91654012477E+02  0.92370145194E+02  0.17770000000E+01 0.  1.
         15    1    1    2    0    0 -0.58499081611E+01  0.23025212342E+01 -0.29334245832E+02  0.30052932254E+02  0.17770000000E+01 0. -1.
</event>
<event>
 6    1  0.1226227E-002  0.1658511E+03  0.7546771E-02  0.1082538E+00
        -11   -1    0    0    0    0  0.00000000000E+00  0.00000000000E+00  0.18250000000E+03  0.18250000000E+03  0.00000000000E+00 0.  1.
         11   -1    0    0    0    0 -0.00000000000E+00 -0.00000000000E+00 -0.18250000000E+03  0.18250000000E+03  0.00000000000E+00 0. -1.
        -11    1    1    2    0    0  0.11460815385E+02  0.15469751816E+02  0.16554579957E+03  0.16666155905E+03  0.00000000000E+00 0.  1.
         11    1    1    2    0    0 -0.12934673040E+01 -0.20008830619E+01 -0.16545253060E+03  0.16546968445E+03  0.00000000000E+00 0. -1.
        -15    1    1    2    0    0  0.78058274651E+01 -0.59542829961E+00  0.58192403439E+01  0.99149767753E+01  0.17770000000E+01 0.  1.
         15    1    1    2    0    0 -0.17973175546E+02 -0.12873440454E+02 -0.59125093126E+01  0.22953779726E+02  0.17770000000E+01 0. -1.
</event>
<event>
 6    1  0.1226227E-002  0.2041044E+03  0.7546771E-02  0.1052450E+00
        -11   -1    0    0    0    0  0.00000000000E+00  0.00000000000E+00  0.18250000000E+03  0.18250000000E+03  0.00000000000E+00 0.  1.
         11   -1    0    0    0    0 -0.00000000000E+00 -0.00000000000E+00 -0.18250000000E+03  0.18250000000E+03  0.00000000000E+00 0.  1.
        -11    1    1    2    0    0 -0.10123263691E+01 -0.25115868696E+01  0.16087278030E+03  0.16089556960E+03  0.00000000000E+00 0.  1.
         11    1    1    2    0    0  0.13538497965E+01 -0.25656695038E+01 -0.78039201560E+02  0.78093101804E+02  0.00000000000E+00 0.  1.
        -15    1    1    2    0    0 -0.98855399178E+01 -0.53837893837E+01  0.19554798653E+02  0.22633094507E+02  0.17770000000E+01 0. -1.
         15    1    1    2    0    0  0.95440164904E+01  0.10461045757E+02 -0.10238837740E+03  0.10337823409E+03  0.17770000000E+01 0.  1.
</event>
<event>
 6    1  0.1226227E-002  0.1830528E+03  0.7546771E-02  0.1068016E+00
        -11   -1    0    0    0    0  0.00000000000E+00  0.00000000000E+00  0.18250000000E+03  0.18250000000E+03  0.00000000000E+00 0. -1.
         11   -1    0    0    0    0 -0.00000000000E+00 -0.00000000000E+00 -0.18250000000E+03  0.18250000000E+03  0.00000000000E+00 0.  1.
        -11    1    1    2    0    0 -0.11599557464E+01 -0.29512028697E+01  0.10281192255E+03  0.10286081137E+03  0.00000000000E+00 0. -1.
         11    1    1    2    0    0 -0.14542254419E+01 -0.24050956295E+01 -0.18192546924E+03  0.18194717809E+03  0.00000000000E+00 0.  1.
        -15    1    1    2    0    0  0.63003112206E+01  0.56184136186E+01  0.43820290653E+02  0.44661349005E+02  0.17770000000E+01 0. -1.
         15    1    1    2    0    0 -0.36861300323E+01 -0.26211511936E+00  0.35293256034E+02  0.35530661540E+02  0.17770000000E+01 0.  1.
</event>
<event>
 6    1  0.1226227E-002  0.1847537E+03  0.7546771E-02  0.1066675E+00
        -11   -1    0    0    0    0  0.00000000000E+00  0.00000000000E+00  0.18250000000E+03  0.18250000000E+03  0.00000000000E+00 0. -1.
         11   -1    0    0    0    0 -0.00000000000E+00 -0.00000000000E+00 -0.18250000000E+03  0.18250000000E+03  0.00000000000E+00 0. -1.
        -11    1    1    2    0    0 -0.50323298127E+01 -0.32222049899E+01  0.13826442170E+03  0.13839348705E+03  0.00000000000E+00 0. -1.
         11    1    1    2    0    0 -0.95876538161E+00 -0.32234626804E+01 -0.18021493023E+03  0.18024630654E+03  0.00000000000E+00 0. -1.
        -15    1    1    2    0    0  0.54252305587E+01  0.56248786722E+01  0.43221820036E+02  0.43958569619E+02  0.17770000000E+01 0.  1.
         15    1    1    2    0    0  0.56586463566E+00  0.82078899808E+00 -0.12713115090E+01  0.24016367998E+01  0.17770000000E+01 0. -1.
</event>
<event>
 6    1  0.1226227E-002  0.1838691E+03  0.7546771E-02  0.1067370E+00
        -11   -1    0    0    0    0  0.00000000000E+00  0.00000000000E+00  0.18250000000E+03  0.18250000000E+03  0.00000000000E+00 0.  1.
         11   -1    0    0    0    0 -0.00000000000E+00 -0.00000000000E+00 -0.18250000000E+03  0.18250000000E+03  0.00000000000E+00 0. -1.
        -11    1    1    2    0    0  0.19774300667E+01  0.32833179817E+00  0.70784472024E+02  0.70812848489E+02  0.00000000000E+00 0.  1.
         11    1    1    2    0    0  0.28912037320E+00  0.28448583182E+01 -0.18110834174E+03  0.18113091469E+03  0.00000000000E+00 0. -1.
        -15    1    1    2    0    0 -0.46437223553E+01 -0.50492155145E+01  0.10911194588E+03  0.10934181816E+03  0.17770000000E+01 0.  1.
         15    1    1    2    0    0  0.23771719154E+01  0.18760253982E+01  0.12119238337E+01  0.37144186609E+01  0.17770000000E+01 0. -1.
</event>
<event>
 6    1  0.1226227E-002  0.1878276E+03  0.7546771E-02  0.1064291E+00
        -11   -1    0    0    0    0  0.00000000000E+00  0.00000000000E+00  0.18250000000E+03  0.18250000000E+03  0.00000000000E+00 0. -1.
         11   -1    0    0    0    0 -0.00000000000E+00 -0.00000000000E+00 -0.18250000000E+03  0.18250000000E+03  0.00000000000E+00 0. -1.
        -11    1    1    2    0    0 -0.23087182767E+01 -0.11228379183E+01  0.17715376001E+03  0.17717236136E+03  0.00000000000E+00 0. -1.
         11    1    1    2    0    0 -0.43037778136E-01  0.35357493237E+01 -0.14200781895E+03  0.14205183568E+03  0.00000000000E+00 0. -1.
        -15    1    1    2    0    0  0.10361594852E+02 -0.46154378010E+01 -0.21208895574E+01  0.11675650538E+02  0.17770000000E+01 0. -1.
         15    1    1    2    0    0 -0.80098387974E+01  0.22025263955E+01 -0.33025051494E+02  0.34100152423E+02  0.17770000000E+01 0. -1.
</event>
<event>
 6    1  0.1226227E-002  0.1862989E+03  0.7546771E-02  0.1065470E+00
        -11   -1    0    0    0    0  0.00000000000E+00  0.00000000000E+00  0.18250000000E+03  0.18250000000E+03  0.00000000000E+00 0. -1.
         11   -1    0    0    0    0 -0.00000000000E+00 -0.00000000000E+00 -0.18250000000E+03  0.18250000000E+03  0.00000000000E+00 0. -1.
        -11    1    1    2    0    0 -0.64591615832E+01  0.42231549168E+00  0.17858382707E+03  0.17870109795E+03  0.00000000000E+00 0. -1.
         11    1    1    2    0    0 -0.17304200084E+01 -0.13228781682E+01 -0.14167755812E+03  0.14169430064E+03  0.00000000000E+00 0. -1.
        -15    1    1    2    0    0 -0.61962369374E+01  0.41929242107E+01 -0.43965531208E+01  0.88578425119E+01  0.17770000000E+01 0. -1.
         15    1    1    2    0    0  0.14385818529E+02 -0.32923615342E+01 -0.32509715831E+02  0.35746758897E+02  0.17770000000E+01 0.  1.
</event>
<event>
 6    1  0.1226227E-002  0.1848966E+03  0.7546771E-02  0.1066563E+00
        -11   -1    0    0    0    0  0.00000000000E+00  0.00000000000E+00  0.18250000000E+03  0.18250000000E+03  0.00000000000E+00 0. -1.
         11   -1    0    0    0    0 -0.00000000000E+00 -0.00000000000E+00 -0.18250000000E+03  0.18250000000E+03  0.00000000000E+00 0.  1.
        -11    1    1    2    0    0 -0.95116113904E+00  0.22633024511E+01  0.18008670425E+03  0.18010343776E+03  0.00000000000E+00 0. -1.
         11    1    1    2    0    0  0.88471701467E+00  0.35988370736E+01 -0.16704036298E+03  0.16708146880E+03  0.00000000000E+00 0.  1.
        -15    1    1    2    0    0 -0.43070114602E+01 -0.56912421379E+01 -0.71242164955E+01  0.10239764375E+02  0.17770000000E+01 0.  1.
         15    1    1    2    0    0  0.43734555846E+01 -0.17089738685E+00 -0.59221247718E+01  0.75753290675E+01  0.17770000000E+01 0. -1.
</event>
<event>
 6    1  0.1226227E-002  0.1833970E+03  0.7546771E-02  0.1067743E+00
        -11   -1    0    0    0    0  0.00000000000E+00  0.00000000000E+00  0.18250000000E+03  0.18250000000E+03  0.00000000000E+00 0. -1.
         11   -1    0    0    0    0 -0.00000000000E+00 -0.00000000000E+00 -0.18250000000E+03  0.18250000000E+03  0.00000000000E+00 0.  1.
        -11    1    1    2    0    0  0.23669327085E+01 -0.65159323972E+00  0.18158637452E+03  0.18160296902E+03  0.00000000000E+00 0. -1.
         11    1    1    2    0    0  0.20597158622E+01  0.13656761392E+01 -0.16970717015E+03  0.16972516343E+03  0.00000000000E+00 0.  1.
        -15    1    1    2    0    0 -0.63659325086E+00 -0.29063047463E+00 -0.13660620979E+01  0.23480995923E+01  0.17770000000E+01 0.  1.
         15    1    1    2    0    0 -0.37900553198E+01 -0.42345242488E+00 -0.10513142275E+02  0.11323767958E+02  0.17770000000E+01 0.  1.
</event>
<event>
 6    1  0.1226227E-002  0.1833098E+03  0.7546771E-02  0.1067812E+00
        -11   -1    0    0    0    0  0.00000000000E+00  0.00000000000E+00  0.18250000000E+03  0.18250000000E+03  0.00000000000E+00 0. -1.
         11   -1    0    0    0    0 -0.00000000000E+00 -0.00000000000E+00 -0.18250000000E+03  0.18250000000E+03  0.00000000000E+00 0.  1.
        -11    1    1    2    0    0 -0.11109554695E+01  0.63918633174E+01  0.10823827799E+03  0.10843253645E+03  0.00000000000E+00 0. -1.
         11    1    1    2    0    0 -0.32857572222E+01  0.19891318446E+01 -0.18164960253E+03  0.18169020597E+03  0.00000000000E+00 0.  1.
        -15    1    1    2    0    0  0.12961284191E+01 -0.40053212041E+01  0.61756425794E+02  0.61925248507E+02  0.17770000000E+01 0. -1.
         15    1    1    2    0    0  0.31005842726E+01 -0.43756739579E+01  0.11654898744E+02  0.12952009078E+02  0.17770000000E+01 0. -1.
</event>
<event>
 6    1  0.1226227E-002  0.1834043E+03  0.7546771E-02  0.1067737E+00
        -11   -1    0    0    0    0  0.00000000000E+00  0.00000000000E+00  0.18250000000E+03  0.18250000000E+03  0.00000000000E+00 0. -1.
         11   -1    0    0    0    0 -0.00000000000E+00 -0.00000000000E+00 -0.18250000000E+03  0.18250000000E+03  0.00000000000E+00 0.  1.
        -11    1    1    2    0    0 -0.16291610048E+01 -0.27388458154E+00  0.61110854097E+02  0.61133179754E+02  0.00000000000E+00 0. -1.
         11    1    1    2    0    0  0.29489018798E+01  0.40347701645E+00 -0.18157131284E+03  0.18159570607E+03  0.00000000000E+00 0.  1.
        -15    1    1    2    0    0 -0.50469103066E+01  0.35615570930E+01  0.11184177314E+03  0.11202631807E+03  0.17770000000E+01 0. -1.
         15    1    1    2    0    0  0.37271694316E+01 -0.36911495280E+01  0.86186855991E+01  0.10244796107E+02  0.17770000000E+01 0. -1.
</event>
<event>
 6    1  0.1226227E-002  0.1977064E+03  0.7546771E-02  0.1056956E+00
        -11   -1    0    0    0    0  0.00000000000E+00  0.00000000000E+00  0.18250000000E+03  0.18250000000E+03  0.00000000000E+00 0. -1.
         11   -1    0    0    0    0 -0.00000000000E+00 -0.00000000000E+00 -0.18250000000E+03  0.18250000000E+03  0.00000000000E+00 0.  1.
        -11    1    1    2    0    0  0.42387248377E+01  0.16155944773E+01  0.16723213414E+03  0.16729364489E+03  0.00000000000E+00 0. -1.
         11    1    1    2    0    0  0.17055831621E+01  0.14701439378E+01 -0.13638798717E+03  0.13640657382E+03  0.00000000000E+00 0.  1.
        -15    1    1    2    0    0  0.14168925013E+02  0.16029239004E+02 -0.24882960443E+02  0.32863572363E+02  0.17770000000E+01 0.  1.
         15    1    1    2    0    0 -0.20113233013E+02 -0.19114977419E+02 -0.59611865230E+01  0.28436208920E+02  0.17770000000E+01 0. -1.
</event>
<event>
 6    1  0.1226227E-002  0.1827809E+03  0.7546771E-02  0.1068231E+00
        -11   -1    0    0    0    0  0.00000000000E+00  0.00000000000E+00  0.18250000000E+03  0.18250000000E+03  0.00000000000E+00 0. -1.
         11   -1    0    0    0    0 -0.00000000000E+00 -0.00000000000E+00 -0.18250000000E+03  0.18250000000E+03  0.00000000000E+00 0.  1.
        -11    1    1    2    0    0  0.30511970669E+01 -0.29556453407E+01  0.18216959237E+03  0.18221911542E+03  0.00000000000E+00 0. -1.
         11    1    1    2    0    0  0.19957096921E+01  0.12691169325E+01 -0.10623571631E+03  0.10626203901E+03  0.00000000000E+00 0.  1.
        -15    1    1    2    0    0  0.24785752619E+00  0.10370847812E+01 -0.57849543892E+01  0.61449495101E+01  0.17770000000E+01 0.  1.
         15    1    1    2    0    0 -0.52947642852E+01  0.64944362704E+00 -0.70148921669E+02  0.70373896057E+02  0.17770000000E+01 0. -1.
</event>
<event>
 6    1  0.1226227E-002  0.1826108E+03  0.7546771E-02  0.1068367E+00
        -11   -1    0    0    0    0  0.00000000000E+00  0.00000000000E+00  0.18250000000E+03  0.18250000000E+03  0.00000000000E+00 0.  1.
         11   -1    0    0    0    0 -0.00000000000E+00 -0.00000000000E+00 -0.18250000000E+03  0.18250000000E+03  0.00000000000E+00 0. -1.
        -11    1    1    2    0    0 -0.34501531035E+00  0.37645337820E+01  0.18235002474E+03  0.18238920547E+03  0.00000000000E+00 0.  1.
         11    1    1    2    0    0  0.20073962115E+01 -0.18649665773E+01 -0.12374517866E+03  0.12377551043E+03  0.00000000000E+00 0. -1.
        -15    1    1    2    0    0 -0.48967830363E+00  0.24578566515E+00 -0.13251767021E+02  0.13381601310E+02  0.17770000000E+01 0.  1.
         15    1    1    2    0    0 -0.11727025975E+01 -0.21453528699E+01 -0.45353079054E+02  0.45453682788E+02  0.17770000000E+01 0.  1.
</event>
<event>
 6    1  0.1226227E-002  0.1936720E+03  0.7546771E-02  0.1059894E+00
        -11   -1    0    0    0    0  0.00000000000E+00  0.00000000000E+00  0.18250000000E+03  0.18250000000E+03  0.00000000000E+00 0.  1.
         11   -1    0    0    0    0 -0.00000000000E+00 -0.00000000000E+00 -0.18250000000E+03  0.18250000000E+03  0.00000000000E+00 0.  1.
        -11    1    1    2    0    0 -0.10484278430E+01  0.29808999684E+01  0.17129890526E+03  0.17132804764E+03  0.00000000000E+00 0.  1.
         11    1    1    2    0    0  0.24149363262E+01 -0.77806284249E+01 -0.16093988525E+03  0.16114594863E+03  0.00000000000E+00 0.  1.
        -15    1    1    2    0    0  0.13990648418E+01  0.15215967601E+02 -0.14212403723E+02  0.20943571831E+02  0.17770000000E+01 0. -1.
         15    1    1    2    0    0 -0.27655733249E+01 -0.10416239144E+02  0.38533837093E+01  0.11582431901E+02  0.17770000000E+01 0.  1.
</event>
<event>
 6    1  0.1226227E-002  0.1806166E+03  0.7546771E-02  0.1069964E+00
        -11   -1    0    0    0    0  0.00000000000E+00  0.00000000000E+00  0.18250000000E+03  0.18250000000E+03  0.00000000000E+00 0. -1.
         11   -1    0    0    0    0 -0.00000000000E+00 -0.00000000000E+00 -0.18250000000E+03  0.18250000000E+03  0.00000000000E+00 0. -1.
        -11    1    1    2    0    0 -0.12574067706E+02 -0.47250837167E+01  0.58522526216E+01  0.14652046122E+02  0.00000000000E+00 0. -1.
         11    1    1    2    0    0  0.82710702431E+01 -0.39419304698E+01 -0.17215225174E+03  0.17239590250E+03  0.00000000000E+00 0. -1.
        -15    1    1    2    0    0 -0.23202947588E+02  0.14999254708E+01  0.26581378288E+02  0.35360344368E+02  0.17770000000E+01 0.  1.
         15    1    1    2    0    0  0.27505945050E+02  0.71670887157E+01  0.13971862083E+03  0.14259170701E+03  0.17770000000E+01 0. -1.
</event>
<event>
 6    1  0.1226227E-002  0.1910620E+03  0.7546771E-02  0.1061837E+00
        -11   -1    0    0    0    0  0.00000000000E+00  0.00000000000E+00  0.18250000000E+03  0.18250000000E+03  0.00000000000E+00 0. -1.
         11   -1    0    0    0    0 -0.00000000000E+00 -0.00000000000E+00 -0.18250000000E+03  0.18250000000E+03  0.00000000000E+00 0. -1.
        -11    1    1    2    0    0 -0.14104531349E+01  0.61695934044E+00  0.10975763536E+03  0.10976843143E+03  0.00000000000E+00 0. -1.
         11    1    1    2    0    0 -0.45642586348E+01  0.50916195789E+01 -0.17380358659E+03  0.17393804575E+03  0.00000000000E+00 0. -1.
        -15    1    1    2    0    0 -0.66405071150E+00  0.98516405221E+01 -0.42613104860E+01  0.10900104604E+02  0.17770000000E+01 0. -1.
         15    1    1    2    0    0  0.66387624812E+01 -0.15560219441E+02  0.68307261716E+02  0.70393418219E+02  0.17770000000E+01 0.  1.
</event>
<event>
 6    1  0.1226227E-002  0.1843509E+03  0.7546771E-02  0.1066991E+00
        -11   -1    0    0    0    0  0.00000000000E+00  0.00000000000E+00  0.18250000000E+03  0.18250000000E+03  0.00000000000E+00 0. -1.
         11   -1    0    0    0    0 -0.00000000000E+00 -0.00000000000E+00 -0.18250000000E+03  0.18250000000E+03  0.00000000000E+00 0. -1.
        -11    1    1    2    0    0 -0.48773525882E+01  0.33483712391E+01  0.18055222220E+03  0.18064912150E+03  0.00000000000E+00 0. -1.
         11    1    1    2    0    0  0.31863111788E+01  0.22601308108E+01 -0.15090007745E+03  0.15095063480E+03  0.00000000000E+00 0. -1.
        -15    1    1    2    0    0 -0.58748478758E+01 -0.38522282566E+01 -0.16528523881E+02  0.18047252721E+02  0.17770000000E+01 0.  1.
         15    1    1    2    0    0  0.75658892852E+01 -0.17562737933E+01 -0.13123620867E+02  0.15352990978E+02  0.17770000000E+01 0. -1.
</event>
<event>
 6    1  0.1226227E-002  0.1761565E+03  0.7546771E-02  0.1073619E+00
        -11   -1    0    0    0    0  0.00000000000E+00  0.00000000000E+00  0.18250000000E+03  0.18250000000E+03  0.00000000000E+00 0. -1.
         11   -1    0    0    0    0 -0.00000000000E+00 -0.00000000000E+00 -0.18250000000E+03  0.18250000000E+03  0.00000000000E+00 0. -1.
        -11    1    1    2    0    0 -0.34284720115E+01  0.45474856726E+00  0.17337645289E+03  0.17341094439E+03  0.00000000000E+00 0. -1.
         11    1    1    2    0    0 -0.58535885221E+01  0.88207896327E+00 -0.17897333241E+03  0.17907120449E+03  0.00000000000E+00 0. -1.
        -15    1    1    2    0    0  0.30846944166E+00  0.45479790333E+00  0.69248274231E+00  0.19847558736E+01  0.17770000000E+01 0. -1.
         15    1    1    2    0    0  0.89735910919E+01 -0.17916254339E+01  0.49043967757E+01  0.10533095248E+02  0.17770000000E+01 0.  1.
</event>
<event>
 6    1  0.1226227E-002  0.1847473E+03  0.7546771E-02  0.1066680E+00
        -11   -1    0    0    0    0  0.00000000000E+00  0.00000000000E+00  0.18250000000E+03  0.18250000000E+03  0.00000000000E+00 0.  1.
         11   -1    0    0    0    0 -0.00000000000E+00 -0.00000000000E+00 -0.18250000000E+03  0.18250000000E+03  0.00000000000E+00 0.  1.
        -11    1    1    2    0    0 -0.29568121861E+01 -0.71206324826E+01  0.18008772218E+03  0.18025269436E+03  0.00000000000E+00 0.  1.
         11    1    1    2    0    0  0.41983241819E+01  0.20817220869E+01 -0.11051963714E+03  0.11061893910E+03  0.00000000000E+00 0.  1.
        -15    1    1    2    0    0 -0.68233430283E+01 -0.54403056538E+01 -0.52565112239E+02  0.53314197822E+02  0.17770000000E+01 0. -1.
         15    1    1    2    0    0  0.55818310325E+01  0.10479216050E+02 -0.17002972792E+02  0.20814168719E+02  0.17770000000E+01 0. -1.
</event>
<event>
 6    1  0.1226227E-002  0.1890205E+03  0.7546771E-02  0.1063380E+00
        -11   -1    0    0    0    0  0.00000000000E+00  0.00000000000E+00  0.18250000000E+03  0.18250000000E+03  0.00000000000E+00 0. -1.
         11   -1    0    0    0    0 -0.00000000000E+00 -0.00000000000E+00 -0.18250000000E+03  0.18250000000E+03  0.00000000000E+00 0.  1.
        -11    1    1    2    0    0 -0.30935540723E+01 -0.58236442465E+01  0.17585593538E+03  0.17597952983E+03  0.00000000000E+00 0. -1.
         11    1    1    2    0    0 -0.11142725744E+01 -0.21134656223E+01 -0.16450228432E+03  0.16451963374E+03  0.00000000000E+00 0.  1.
        -15    1    1    2    0    0  0.28025801919E+01  0.48752400812E+01  0.49862507316E+01  0.77228781513E+01  0.17770000000E+01 0.  1.
         15    1    1    2    0    0  0.14052464548E+01  0.30618697877E+01 -0.16339901795E+02  0.16777958275E+02  0.17770000000E+01 0.  1.
</event>
<event>
 6    1  0.1226227E-002  0.2146244E+03  0.7546771E-02  0.1045419E+00
        -11   -1    0    0    0    0  0.00000000000E+00  0.00000000000E+00  0.18250000000E+03  0.18250000000E+03  0.00000000000E+00 0. -1.
         11   -1    0    0    0    0 -0.00000000000E+00 -0.00000000000E+00 -0.18250000000E+03  0.18250000000E+03  0.00000000000E+00 0. -1.
        -11    1    1    2    0    0 -0.77110714056E+01 -0.97562515683E+01  0.12581653790E+03  0.12642960997E+03  0.00000000000E+00 0. -1.
         11    1    1    2    0    0 -0.16518370233E+01  0.11449307971E+02 -0.14992996992E+03  0.15037556683E+03  0.00000000000E+00 0. -1.
        -15    1    1    2    0    0 -0.27312153175E+01 -0.13687946069E+02 -0.29083912931E+02  0.32308684979E+02  0.17770000000E+01 0. -1.
         15    1    1    2    0    0  0.12094123746E+02  0.11994889666E+02  0.53197344947E+02  0.55886138225E+02  0.17770000000E+01 0.  1.
</event>
<event>
 6    1  0.1226227E-002  0.1862987E+03  0.7546771E-02  0.1065471E+00
        -11   -1    0    0    0    0  0.00000000000E+00  0.00000000000E+00  0.18250000000E+03  0.18250000000E+03  0.00000000000E+00 0. -1.
         11   -1    0    0    0    0 -0.00000000000E+00 -0.00000000000E+00 -0.18250000000E+03  0.18250000000E+03  0.00000000000E+00 0. -1.
        -11    1    1    2    0    0  0.18452381695E+01 -0.44360843416E+01  0.17863669971E+03  0.17870129891E+03  0.00000000000E+00 0. -1.
         11    1    1    2    0    0 -0.44972914313E+01 -0.41325275641E+01 -0.16024996247E+03  0.16036631157E+03  0.00000000000E+00 0. -1.
        -15    1    1    2    0    0 -0.21078748314E+01 -0.13545699865E+01  0.12783001265E+01  0.33271273445E+01  0.17770000000E+01 0.  1.
         15    1    1    2    0    0  0.47599280931E+01  0.99231818921E+01 -0.19665037369E+02  0.22605262176E+02  0.17770000000E+01 0. -1.
</event>
<event>
 6    1  0.1226227E-002  0.1960010E+03  0.7546771E-02  0.1058189E+00
        -11   -1    0    0    0    0  0.00000000000E+00  0.00000000000E+00  0.18250000000E+03  0.18250000000E+03  0.00000000000E+00 0. -1.
         11   -1    0    0    0    0 -0.00000000000E+00 -0.00000000000E+00 -0.18250000000E+03  0.18250000000E+03  0.00000000000E+00 0.  1.
        -11    1    1    2    0    0  0.87650150152E+01  0.39268378445E+01  0.16872586859E+03  0.16899900673E+03  0.00000000000E+00 0. -1.
         11    1    1    2    0    0 -0.16918864621E+02  0.17726793814E+01 -0.16164122515E+03  0.16253392274E+03  0.00000000000E+00 0.  1.
        -15    1    1    2    0    0  0.94148097248E+01 -0.86490122548E+01 -0.17887829493E+02  0.22058472933E+02  0.17770000000E+01 0. -1.
         15    1    1    2    0    0 -0.12609601192E+01  0.29494950289E+01  0.10803186053E+02  0.11408597602E+02  0.17770000000E+01 0.  1.
</event>
<event>
 6    1  0.1226227E-002  0.2021349E+03  0.7546771E-02  0.1053818E+00
        -11   -1    0    0    0    0  0.00000000000E+00  0.00000000000E+00  0.18250000000E+03  0.18250000000E+03  0.00000000000E+00 0. -1.
         11   -1    0    0    0    0 -0.00000000000E+00 -0.00000000000E+00 -0.18250000000E+03  0.18250000000E+03  0.00000000000E+00 0. -1.
        -11    1    1    2    0    0 -0.28420838649E+01  0.91246841059E+00  0.16283773451E+03  0.16286509085E+03  0.00000000000E+00 0. -1.
         11    1    1    2    0    0 -0.76505464505E+01 -0.15548439627E+01 -0.14895127166E+03  0.14915572309E+03  0.00000000000E+00 0. -1.
        -15    1    1    2    0    0  0.66978926134E+01  0.46723192471E+01 -0.32459157491E+02  0.33517860412E+02  0.17770000000E+01 0.  1.
         15    1    1    2    0    0  0.37947377020E+01 -0.40299436950E+01  0.18572694646E+02  0.19461325644E+02  0.17770000000E+01 0.  1.
</event>
<event>
 6    1  0.1226227E-002  0.1835981E+03  0.7546771E-02  0.1067584E+00
        -11   -1    0    0    0    0  0.00000000000E+00  0.00000000000E+00  0.18250000000E+03  0.18250000000E+03  0.00000000000E+00 0.  1.
         11   -1    0    0    0    0 -0.00000000000E+00 -0.00000000000E+00 -0.18250000000E+03  0.18250000000E+03  0.00000000000E+00 0. -1.
        -11    1    1    2    0    0  0.25246355095E+01 -0.28093856835E+00  0.17508329470E+03  0.17510172127E+03  0.00000000000E+00 0.  1.
         11    1    1    2    0    0 -0.31161445706E+01 -0.23535693986E+01 -0.18135987207E+03  0.18140190970E+03  0.00000000000E+00 0. -1.
        -15    1    1    2    0    0  0.13841732552E+01  0.21655822080E+01  0.18324401374E+01  0.36223262908E+01  0.17770000000E+01 0.  1.
         15    1    1    2    0    0 -0.79266419409E+00  0.46892575895E+00  0.44441372314E+01  0.48740427392E+01  0.17770000000E+01 0. -1.
</event>
<event>
 6    1  0.1226227E-002  0.1831656E+03  0.7546771E-02  0.1067926E+00
        -11   -1    0    0    0    0  0.00000000000E+00  0.00000000000E+00  0.18250000000E+03  0.18250000000E+03  0.00000000000E+00 0.  1.
         11   -1    0    0    0    0 -0.00000000000E+00 -0.00000000000E+00 -0.18250000000E+03  0.18250000000E+03  0.00000000000E+00 0.  1.
        -11    1    1    2    0    0  0.24666807872E+01  0.13013805346E+01  0.18181302274E+03  0.18183441188E+03  0.00000000000E+00 0.  1.
         11    1    1    2    0    0  0.32479770521E+01 -0.21245323649E+00 -0.99045716887E+02  0.99099185290E+02  0.00000000000E+00 0.  1.
        -15    1    1    2    0    0 -0.82578550002E+01  0.13928835430E+01 -0.73313907273E+02  0.73812052013E+02  0.17770000000E+01 0.  1.
         15    1    1    2    0    0  0.25431971609E+01 -0.24818108411E+01 -0.94533985838E+01  0.10254350815E+02  0.17770000000E+01 0. -1.
</event>
<event>
 6    1  0.1226227E-002  0.1838125E+03  0.7546771E-02  0.1067415E+00
        -11   -1    0    0    0    0  0.00000000000E+00  0.00000000000E+00  0.18250000000E+03  0.18250000000E+03  0.00000000000E+00 0.  1.
         11   -1    0    0    0    0 -0.00000000000E+00 -0.00000000000E+00 -0.18250000000E+03  0.18250000000E+03  0.00000000000E+00 0. -1.
        -11    1    1    2    0    0  0.38206742607E+00  0.46072135239E+01  0.18112850537E+03  0.18118749363E+03  0.00000000000E+00 0.  1.
         11    1    1    2    0    0  0.17040348415E+01  0.16589550619E+01 -0.15958934887E+03  0.15960706795E+03  0.00000000000E+00 0. -1.
        -15    1    1    2    0    0  0.22407488031E+00 -0.65808424029E+01 -0.88010199812E+01  0.11134333298E+02  0.17770000000E+01 0. -1.
         15    1    1    2    0    0 -0.23101771479E+01  0.31467381715E+00 -0.12738136514E+02  0.13071105115E+02  0.17770000000E+01 0. -1.
</event>
<event>
 6    1  0.1226227E-002  0.2154610E+03  0.7546771E-02  0.1044879E+00
        -11   -1    0    0    0    0  0.00000000000E+00  0.00000000000E+00  0.18250000000E+03  0.18250000000E+03  0.00000000000E+00 0.  1.
         11   -1    0    0    0    0 -0.00000000000E+00 -0.00000000000E+00 -0.18250000000E+03  0.18250000000E+03  0.00000000000E+00 0.  1.
        -11    1    1    2    0    0 -0.50958255539E+01 -0.10026755005E+01  0.13445066769E+03  0.13455093771E+03  0.00000000000E+00 0.  1.
         11    1    1    2    0    0 -0.33261166292E+01 -0.28732263096E+01 -0.14947437727E+03  0.14953898469E+03  0.00000000000E+00 0.  1.
        -15    1    1    2    0    0 -0.41731493647E+01 -0.24449662602E+02  0.35771593221E+02  0.43565649169E+02  0.17770000000E+01 0.  1.
         15    1    1    2    0    0  0.12595091548E+02  0.28325564412E+02 -0.20747883639E+02  0.37344428431E+02  0.17770000000E+01 0. -1.
</event>
<event>
 6    1  0.1226227E-002  0.1894082E+03  0.7546771E-02  0.1063085E+00
        -11   -1    0    0    0    0  0.00000000000E+00  0.00000000000E+00  0.18250000000E+03  0.18250000000E+03  0.00000000000E+00 0.  1.
         11   -1    0    0    0    0 -0.00000000000E+00 -0.00000000000E+00 -0.18250000000E+03  0.18250000000E+03  0.00000000000E+00 0.  1.
        -11    1    1    2    0    0  0.96878564099E+01  0.60030072691E+01  0.16743398021E+03  0.16782141814E+03  0.00000000000E+00 0.  1.
         11    1    1    2    0    0 -0.20795014983E+01 -0.49020263029E+01 -0.17551100691E+03  0.17559176442E+03  0.00000000000E+00 0.  1.
        -15    1    1    2    0    0  0.18756287924E+01  0.26901956434E+01 -0.41343334728E+01  0.55682652802E+01  0.17770000000E+01 0. -1.
         15    1    1    2    0    0 -0.94839837040E+01 -0.37911766097E+01  0.12211360168E+02  0.16018552154E+02  0.17770000000E+01 0.  1.
</event>
<event>
 6    1  0.1226227E-002  0.1711228E+03  0.7546771E-02  0.1077890E+00
        -11   -1    0    0    0    0  0.00000000000E+00  0.00000000000E+00  0.18250000000E+03  0.18250000000E+03  0.00000000000E+00 0.  1.
         11   -1    0    0    0    0 -0.00000000000E+00 -0.00000000000E+00 -0.18250000000E+03  0.18250000000E+03  0.00000000000E+00 0. -1.
        -11    1    1    2    0    0 -0.31724646328E+01 -0.68710550784E+01  0.16816006741E+03  0.16833028308E+03  0.00000000000E+00 0.  1.
         11    1    1    2    0    0 -0.52736460148E+01  0.11963265288E+02 -0.17360905824E+03  0.17410064952E+03  0.00000000000E+00 0. -1.
        -15    1    1    2    0    0 -0.42739258150E+01  0.38657949443E+01  0.13212987486E+00  0.60320808787E+01  0.17770000000E+01 0. -1.
         15    1    1    2    0    0  0.12720036463E+02 -0.89580051534E+01  0.53168609552E+01  0.16536986526E+02  0.17770000000E+01 0.  1.
</event>
<event>
 6    1  0.1226227E-002  0.1828712E+03  0.7546771E-02  0.1068160E+00
        -11   -1    0    0    0    0  0.00000000000E+00  0.00000000000E+00  0.18250000000E+03  0.18250000000E+03  0.00000000000E+00 0.  1.
         11   -1    0    0    0    0 -0.00000000000E+00 -0.00000000000E+00 -0.18250000000E+03  0.18250000000E+03  0.00000000000E+00 0. -1.
        -11    1    1    2    0    0 -0.48531526580E+01 -0.71568254787E+01  0.18192337829E+03  0.18212876986E+03  0.00000000000E+00 0.  1.
         11    1    1    2    0    0  0.22475567928E+01 -0.22120181041E+01 -0.71861482094E+02  0.71930641207E+02  0.00000000000E+00 0. -1.
        -15    1    1    2    0    0 -0.13378149495E+01  0.84612270501E+00 -0.62187349756E+01  0.66585333346E+01  0.17770000000E+01 0. -1.
         15    1    1    2    0    0  0.39434108146E+01  0.85227208778E+01 -0.10384316122E+03  0.10428205560E+03  0.17770000000E+01 0. -1.
</event>
<event>
 6    1  0.1226227E-002  0.1855533E+03  0.7546771E-02  0.1066050E+00
        -11   -1    0    0    0    0  0.00000000000E+00  0.00000000000E+00  0.18250000000E+03  0.18250000000E+03  0.00000000000E+00 0.  1.
         11   -1    0    0    0    0 -0.00000000000E+00 -0.00000000000E+00 -0.18250000000E+03  0.18250000000E+03  0.00000000000E+00 0.  1.
        -11    1    1    2    0    0 -0.24113499077E+00 -0.40394308887E+01  0.17940104111E+03  0.17944667369E+03  0.00000000000E+00 0.  1.
         11    1    1    2    0    0  0.59324544443E+01  0.80526892470E+01 -0.16118399619E+03  0.16149402604E+03  0.00000000000E+00 0.  1.
        -15    1    1    2    0    0 -0.54858024148E+00 -0.17905038623E+00 -0.17229043701E+02  0.17330051216E+02  0.17770000000E+01 0.  1.
         15    1    1    2    0    0 -0.51427392120E+01 -0.38342079720E+01 -0.98800121543E+00  0.67292490500E+01  0.17770000000E+01 0. -1.
</event>
<event>
 6    1  0.1226227E-002  0.1988891E+03  0.7546771E-02  0.1056109E+00
        -11   -1    0    0    0    0  0.00000000000E+00  0.00000000000E+00  0.18250000000E+03  0.18250000000E+03  0.00000000000E+00 0. -1.
         11   -1    0    0    0    0 -0.00000000000E+00 -0.00000000000E+00 -0.18250000000E+03  0.18250000000E+03  0.00000000000E+00 0. -1.
        -11    1    1    2    0    0 -0.63221946479E+01 -0.60431197072E+00  0.16046663267E+03  0.16059226488E+03  0.00000000000E+00 0. -1.
         11    1    1    2    0    0  0.10169012072E+02  0.17489876239E+01 -0.16579009173E+03  0.16611087346E+03  0.00000000000E+00 0. -1.
        -15    1    1    2    0    0 -0.10302621575E+02  0.31935706444E+00 -0.14182149764E+02  0.17622062909E+02  0.17770000000E+01 0.  1.
         15    1    1    2    0    0  0.64558041506E+01 -0.14640327176E+01  0.19505608826E+02  0.20674798758E+02  0.17770000000E+01 0.  1.
</event>
<event>
 6    1  0.1226227E-002  0.1875688E+03  0.7546771E-02  0.1064490E+00
        -11   -1    0    0    0    0  0.00000000000E+00  0.00000000000E+00  0.18250000000E+03  0.18250000000E+03  0.00000000000E+00 0. -1.
         11   -1    0    0    0    0 -0.00000000000E+00 -0.00000000000E+00 -0.18250000000E+03  0.18250000000E+03  0.00000000000E+00 0.  1.
        -11    1    1    2    0    0  0.18760114029E+01 -0.78723478712E+01  0.14109682614E+03  0.14132872188E+03  0.00000000000E+00 0. -1.
         11    1    1    2    0    0  0.27097587407E+01 -0.11792938068E+02 -0.17701812515E+03  0.17743120585E+03  0.00000000000E+00 0.  1.
        -15    1    1    2    0    0 -0.99791570484E+01  0.16794070803E+02  0.34550982776E+02  0.39731002118E+02  0.17770000000E+01 0. -1.
         15    1    1    2    0    0  0.53933869048E+01  0.28712151362E+01  0.13703162264E+01  0.65090701505E+01  0.17770000000E+01 0.  1.
</event>
<event>
 6    1  0.1226227E-002  0.1985163E+03  0.7546771E-02  0.1056376E+00
        -11   -1    0    0    0    0  0.00000000000E+00  0.00000000000E+00  0.18250000000E+03  0.18250000000E+03  0.00000000000E+00 0.  1.
         11   -1    0    0    0    0 -0.00000000000E+00 -0.00000000000E+00 -0.18250000000E+03  0.18250000000E+03  0.00000000000E+00 0.  1.
        -11    1    1    2    0    0 -0.23359894827E+01 -0.24907273516E+01  0.16644870190E+03  0.16648372574E+03  0.00000000000E+00 0.  1.
         11    1    1    2    0    0  0.37798796139E+00  0.24589003064E+01 -0.15280490542E+03  0.15282515561E+03  0.00000000000E+00 0.  1.
        -15    1    1    2    0    0 -0.90446521706E+00 -0.53807529445E+00 -0.29448708478E+02  0.29521038978E+02  0.17770000000E+01 0.  1.
         15    1    1    2    0    0  0.28624667384E+01  0.56990233968E+00  0.15804911998E+02  0.16170079677E+02  0.17770000000E+01 0. -1.
</event>
<event>
 6    1  0.1226227E-002  0.1838852E+03  0.7546771E-02  0.1067358E+00
        -11   -1    0    0    0    0  0.00000000000E+00  0.00000000000E+00  0.18250000000E+03  0.18250000000E+03  0.00000000000E+00 0.  1.
         11   -1    0    0    0    0 -0.00000000000E+00 -0.00000000000E+00 -0.18250000000E+03  0.18250000000E+03  0.00000000000E+00 0. -1.
        -11    1    1    2    0    0  0.19388230405E+01 -0.22251118347E+01  0.16128236881E+03  0.16130936937E+03  0.00000000000E+00 0.  1.
         11    1    1    2    0    0  0.22483438395E+01  0.16889509457E+01 -0.18109297504E+03  0.18111480672E+03  0.00000000000E+00 0. -1.
        -15    1    1    2    0    0 -0.44550958221E+01  0.29918564723E+01  0.52980076251E+01  0.77476252962E+01  0.17770000000E+01 0.  1.
         15    1    1    2    0    0  0.26792894212E+00 -0.24556955833E+01  0.14512598609E+02  0.14828198613E+02  0.17770000000E+01 0. -1.
</event>
<event>
 6    1  0.1226227E-002  0.1862888E+03  0.7546771E-02  0.1065478E+00
        -11   -1    0    0    0    0  0.00000000000E+00  0.00000000000E+00  0.18250000000E+03  0.18250000000E+03  0.00000000000E+00 0. -1.
         11   -1    0    0    0    0 -0.00000000000E+00 -0.00000000000E+00 -0.18250000000E+03  0.18250000000E+03  0.00000000000E+00 0.  1.
        -11    1    1    2    0    0  0.84959227718E+01 -0.23091205860E+01  0.17849418031E+03  0.17871117801E+03  0.00000000000E+00 0. -1.
         11    1    1    2    0    0  0.78660197032E+01  0.36639438478E+01 -0.12637798302E+03  0.12667554359E+03  0.00000000000E+00 0.  1.
        -15    1    1    2    0    0 -0.52987988628E+01  0.95722655580E+00  0.57034843818E+00  0.56988225458E+01  0.17770000000E+01 0.  1.
         15    1    1    2    0    0 -0.11063143612E+02 -0.23120498176E+01 -0.52686545723E+02  0.53914455855E+02  0.17770000000E+01 0. -1.
</event>
<event>
 6    1  0.1226227E-002  0.1839167E+03  0.7546771E-02  0.1067333E+00
        -11   -1    0    0    0    0  0.00000000000E+00  0.00000000000E+00  0.18250000000E+03  0.18250000000E+03  0.00000000000E+00 0.  1.
         11   -1    0    0    0    0 -0.00000000000E+00 -0.00000000000E+00 -0.18250000000E+03  0.18250000000E+03  0.00000000000E+00 0.  1.
        -11    1    1    2    0    0 -0.58647603481E+01 -0.90272642053E+01  0.18076300766E+03  0.18108327325E+03  0.00000000000E+00 0.  1.
         11    1    1    2    0    0  0.33555369987E+01 -0.88385158933E+00 -0.15053191983E+03  0.15057190876E+03  0.00000000000E+00 0.  1.
        -15    1    1    2    0    0  0.19799327542E+01  0.10877760360E+02 -0.28530724465E+02  0.30649727106E+02  0.17770000000E+01 0.  1.
         15    1    1    2    0    0  0.52929059525E+00 -0.96664456559E+00 -0.17003633694E+01  0.26950908776E+01  0.17770000000E+01 0.  1.
</event>
<event>
 6    1  0.1226227E-002  0.1810419E+03  0.7546771E-02  0.1069621E+00
        -11   -1    0    0    0    0  0.00000000000E+00  0.00000000000E+00  0.18250000000E+03  0.18250000000E+03  0.00000000000E+00 0. -1.
         11   -1    0    0    0    0 -0.00000000000E+00 -0.00000000000E+00 -0.18250000000E+03  0.18250000000E+03  0.00000000000E+00 0.  1.
        -11    1    1    2    0    0 -0.49716913476E+00 -0.17524071070E+00  0.54826802165E+01  0.55079641259E+01  0.00000000000E+00 0. -1.
         11    1    1    2    0    0 -0.19210861313E+02 -0.93864707537E+01 -0.17983187287E+03  0.18109849675E+03  0.00000000000E+00 0.  1.
        -15    1    1    2    0    0  0.15827331224E+02  0.11012099717E+02  0.45289273619E+02  0.49254916382E+02  0.17770000000E+01 0.  1.
         15    1    1    2    0    0  0.38806992232E+01 -0.14503882521E+01  0.12905991904E+03  0.12913862274E+03  0.17770000000E+01 0. -1.
</event>
<event>
 6    1  0.1226227E-002  0.1825499E+03  0.7546771E-02  0.1068415E+00
        -11   -1    0    0    0    0  0.00000000000E+00  0.00000000000E+00  0.18250000000E+03  0.18250000000E+03  0.00000000000E+00 0.  1.
         11   -1    0    0    0    0 -0.00000000000E+00 -0.00000000000E+00 -0.18250000000E+03  0.18250000000E+03  0.00000000000E+00 0.  1.
        -11    1    1    2    0    0  0.43803256591E+01  0.34255041267E+01  0.18236534982E+03  0.18245010865E+03  0.00000000000E+00 0.  1.
         11    1    1    2    0    0 -0.55851809070E+00  0.38881275050E+00 -0.23847121930E+02  0.23856830095E+02  0.00000000000E+00 0.  1.
        -15    1    1    2    0    0 -0.15486064407E+01 -0.31354579267E+01 -0.58748154493E+02  0.58878966225E+02  0.17770000000E+01 0.  1.
         15    1    1    2    0    0 -0.22732011278E+01 -0.67885895049E+00 -0.99770073395E+02  0.99814095032E+02  0.17770000000E+01 0. -1.
</event>
<event>
 6    1  0.1226227E-002  0.1879172E+03  0.7546771E-02  0.1064223E+00
        -11   -1    0    0    0    0  0.00000000000E+00  0.00000000000E+00  0.18250000000E+03  0.18250000000E+03  0.00000000000E+00 0.  1.
         11   -1    0    0    0    0 -0.00000000000E+00 -0.00000000000E+00 -0.18250000000E+03  0.18250000000E+03  0.00000000000E+00 0. -1.
        -11    1    1    2    0    0 -0.41293258864E+00 -0.68733327818E+01  0.12989408860E+03  0.13007646778E+03  0.00000000000E+00 0.  1.
         11    1    1    2    0    0  0.74727504717E+01 -0.20385684095E+01 -0.17691331349E+03  0.17708280055E+03  0.00000000000E+00 0. -1.
        -15    1    1    2    0    0  0.40628009712E+01  0.80144575181E+01  0.45531719087E+02  0.46443869919E+02  0.17770000000E+01 0.  1.
         15    1    1    2    0    0 -0.11122618854E+02  0.89744367322E+00  0.14875057966E+01  0.11396861753E+02  0.17770000000E+01 0. -1.
</event>
<event>
 6    1  0.1226227E-002  0.1804740E+03  0.7546771E-02  0.1070079E+00
        -11   -1    0    0    0    0  0.00000000000E+00  0.00000000000E+00  0.18250000000E+03  0.18250000000E+03  0.00000000000E+00 0.  1.
         11   -1    0    0    0    0 -0.00000000000E+00 -0.00000000000E+00 -0.18250000000E+03  0.18250000000E+03  0.00000000000E+00 0.  1.
        -11    1    1    2    0    0 -0.33608805126E+00 -0.58902097030E+00  0.42163998508E+01  0.42705887865E+01  0.00000000000E+00 0.  1.
         11    1    1    2    0    0 -0.67234294638E+01  0.16903650392E+01 -0.18221195896E+03  0.18234379569E+03  0.00000000000E+00 0.  1.
        -15    1    1    2    0    0  0.11785652192E+01 -0.42856959678E+00  0.12675950134E+03  0.12677815899E+03  0.17770000000E+01 0.  1.
         15    1    1    2    0    0  0.58809522959E+01 -0.67277447216E+00  0.51236057767E+02  0.51607456534E+02  0.17770000000E+01 0. -1.
</event>
<event>
 6    1  0.1226227E-002  0.2117406E+03  0.7546771E-02  0.1047302E+00
        -11   -1    0    0    0    0  0.00000000000E+00  0.00000000000E+00  0.18250000000E+03  0.18250000000E+03  0.00000000000E+00 0.  1.
         11   -1    0    0    0    0 -0.00000000000E+00 -0.00000000000E+00 -0.18250000000E+03  0.18250000000E+03  0.00000000000E+00 0.  1.
        -11    1    1    2    0    0 -0.42779497115E+01 -0.64587502534E-01  0.93479379561E+02  0.93577237769E+02  0.00000000000E+00 0.  1.
         11    1    1    2    0    0 -0.42669525858E+00  0.52730739085E+01 -0.15316805447E+03  0.15325938890E+03  0.00000000000E+00 0.  1.
        -15    1    1    2    0    0  0.21299432402E+02 -0.76450585010E+01  0.84871147470E+02  0.87854323411E+02  0.17770000000E+01 0.  1.
         15    1    1    2    0    0 -0.16594787432E+02  0.24365720950E+01 -0.25182472566E+02  0.30309049920E+02  0.17770000000E+01 0.  1.
</event>
<event>
 6    1  0.1226227E-002  0.1827962E+03  0.7546771E-02  0.1068219E+00
        -11   -1    0    0    0    0  0.00000000000E+00  0.00000000000E+00  0.18250000000E+03  0.18250000000E+03  0.00000000000E+00 0.  1.
         11   -1    0    0    0    0 -0.00000000000E+00 -0.00000000000E+00 -0.18250000000E+03  0.18250000000E+03  0.00000000000E+00 0. -1.
        -11    1    1    2    0    0  0.96123332204E+00 -0.26480149610E+01  0.97662033622E+02  0.97702654846E+02  0.00000000000E+00 0.  1.
         11    1    1    2    0    0 -0.11764441729E+01  0.31696494857E+01 -0.18217247274E+03  0.18220384333E+03  0.00000000000E+00 0. -1.
        -15    1    1    2    0    0  0.85634553270E+00  0.19615862405E+01  0.75625324305E+02  0.75676472919E+02  0.17770000000E+01 0. -1.
         15    1    1    2    0    0 -0.64113468182E+00 -0.24832207652E+01  0.88851148170E+01  0.94170289030E+01  0.17770000000E+01 0.  1.
</event>
<event>
 6    1  0.1226227E-002  0.1837035E+03  0.7546771E-02  0.1067501E+00
        -11   -1    0    0    0    0  0.00000000000E+00  0.00000000000E+00  0.18250000000E+03  0.18250000000E+03  0.00000000000E+00 0. -1.
         11   -1    0    0    0    0 -0.00000000000E+00 -0.00000000000E+00 -0.18250000000E+03  0.18250000000E+03  0.00000000000E+00 0. -1.
        -11    1    1    2    0    0  0.15353067060E+01 -0.62467256553E+01  0.18118234605E+03  0.18129650098E+03  0.00000000000E+00 0. -1.
         11    1    1    2    0    0  0.15280011755E+01 -0.12499325599E+01 -0.10712772255E+03  0.10714591013E+03  0.00000000000E+00 0. -1.
        -15    1    1    2    0    0 -0.27138857236E+01  0.50448859431E+01 -0.61708445523E+01  0.86054111690E+01  0.17770000000E+01 0.  1.
         15    1    1    2    0    0 -0.34942215785E+00  0.24517722721E+01 -0.67883778946E+02  0.67952177714E+02  0.17770000000E+01 0. -1.
</event>
<event>
 6    1  0.1226227E-002  0.1828740E+03  0.7546771E-02  0.1068157E+00
        -11   -1    0    0    0    0  0.00000000000E+00  0.00000000000E+00  0.18250000000E+03  0.18250000000E+03  0.00000000000E+00 0. -1.
         11   -1    0    0    0    0 -0.00000000000E+00 -0.00000000000E+00 -0.18250000000E+03  0.18250000000E+03  0.00000000000E+00 0. -1.
        -11    1    1    2    0    0  0.15720309994E+01  0.16932266498E+01  0.69853450635E+02  0.69891650886E+02  0.00000000000E+00 0. -1.
         11    1    1    2    0    0 -0.31688193446E+01  0.32869174254E+01 -0.18206873875E+03  0.18212597529E+03  0.00000000000E+00 0. -1.
        -15    1    1    2    0    0  0.10152708786E+01 -0.39697142119E+01  0.10921132820E+03  0.10930261361E+03  0.17770000000E+01 0. -1.
         15    1    1    2    0    0  0.58151746657E+00 -0.10104298633E+01  0.30039599200E+01  0.36797602196E+01  0.17770000000E+01 0.  1.
</event>
<event>
 6    1  0.1226227E-002  0.1838994E+03  0.7546771E-02  0.1067346E+00
        -11   -1    0    0    0    0  0.00000000000E+00  0.00000000000E+00  0.18250000000E+03  0.18250000000E+03  0.00000000000E+00 0. -1.
         11   -1    0    0    0    0 -0.00000000000E+00 -0.00000000000E+00 -0.18250000000E+03  0.18250000000E+03  0.00000000000E+00 0.  1.
        -11    1    1    2    0    0 -0.10812323202E+02  0.49809897334E+01  0.18070892021E+03  0.18110060860E+03  0.00000000000E+00 0. -1.
         11    1    1    2    0    0 -0.15346831266E+01 -0.61500933559E-01 -0.10348236440E+03  0.10349376202E+03  0.00000000000E+00 0.  1.
        -15    1    1    2    0    0  0.15279637538E+02 -0.83044135546E+01 -0.57460286619E+02  0.60060576713E+02  0.17770000000E+01 0.  1.
         15    1    1    2    0    0 -0.29326312089E+01  0.33849247548E+01 -0.19766269189E+02  0.20345052668E+02  0.17770000000E+01 0. -1.
</event>
<event>
 6    1  0.1226227E-002  0.1850072E+03  0.7546771E-02  0.1066476E+00
        -11   -1    0    0    0    0  0.00000000000E+00  0.00000000000E+00  0.18250000000E+03  0.18250000000E+03  0.00000000000E+00 0.  1.
         11   -1    0    0    0    0 -0.00000000000E+00 -0.00000000000E+00 -0.18250000000E+03  0.18250000000E+03  0.00000000000E+00 0.  1.
        -11    1    1    2    0    0 -0.25469320985E+01 -0.85367730841E+01  0.11873417069E+03  0.11906790771E+03  0.00000000000E+00 0.  1.
         11    1    1    2    0    0  0.68655858767E+00 -0.34094559480E+01 -0.17995918558E+03  0.17999278937E+03  0.00000000000E+00 0.  1.
        -15    1    1    2    0    0  0.38529539739E+01  0.19641588612E+01  0.51621029937E+02  0.51832341594E+02  0.17770000000E+01 0.  1.
         15    1    1    2    0    0 -0.19925804631E+01  0.99820701709E+01  0.96039849555E+01  0.14106961325E+02  0.17770000000E+01 0. -1.
</event>
<event>
 6    1  0.1226227E-002  0.1826181E+03  0.7546771E-02  0.1068361E+00
        -11   -1    0    0    0    0  0.00000000000E+00  0.00000000000E+00  0.18250000000E+03  0.18250000000E+03  0.00000000000E+00 0.  1.
         11   -1    0    0    0    0 -0.00000000000E+00 -0.00000000000E+00 -0.18250000000E+03  0.18250000000E+03  0.00000000000E+00 0. -1.
        -11    1    1    2    0    0 -0.10647926669E+01  0.12230219883E+01  0.89398323208E+02  0.89413029021E+02  0.00000000000E+00 0.  1.
         11    1    1    2    0    0 -0.23180473882E+01  0.28908026791E+01 -0.18234425469E+03  0.18238189961E+03  0.00000000000E+00 0. -1.
        -15    1    1    2    0    0  0.37887754737E+00 -0.92901653249E+00  0.19258873622E+02  0.19366686916E+02  0.17770000000E+01 0. -1.
         15    1    1    2    0    0  0.30039625077E+01 -0.31848081348E+01  0.73687057864E+02  0.73838384457E+02  0.17770000000E+01 0.  1.
</event>
<event>
 6    1  0.1226227E-002  0.1827085E+03  0.7546771E-02  0.1068289E+00
        -11   -1    0    0    0    0  0.00000000000E+00  0.00000000000E+00  0.18250000000E+03  0.18250000000E+03  0.00000000000E+00 0. -1.
         11   -1    0    0    0    0 -0.00000000000E+00 -0.00000000000E+00 -0.18250000000E+03  0.18250000000E+03  0.00000000000E+00 0.  1.
        -11    1    1    2    0    0 -0.50147357595E+00  0.32572793792E+01  0.18226172313E+03  0.18229151670E+03  0.00000000000E+00 0. -1.
         11    1    1    2    0    0  0.11529585121E+01  0.19948459554E+00 -0.84136770032E+02  0.84144905840E+02  0.00000000000E+00 0.  1.
        -15    1    1    2    0    0  0.49415771609E-01 -0.56950366088E+01 -0.77566491050E+02  0.77795592077E+02  0.17770000000E+01 0.  1.
         15    1    1    2    0    0 -0.70090070771E+00  0.22382726340E+01 -0.20558462044E+02  0.20767985382E+02  0.17770000000E+01 0.  1.
</event>
<event>
 6    1  0.1226227E-002  0.1825985E+03  0.7546771E-02  0.1068376E+00
        -11   -1    0    0    0    0  0.00000000000E+00  0.00000000000E+00  0.18250000000E+03  0.18250000000E+03  0.00000000000E+00 0.  1.
         11   -1    0    0    0    0 -0.00000000000E+00 -0.00000000000E+00 -0.18250000000E+03  0.18250000000E+03  0.00000000000E+00 0.  1.
        -11    1    1    2    0    0  0.72665293809E+00  0.28664359804E+01  0.12571621225E+03  0.12575098608E+03  0.00000000000E+00 0.  1.
         11    1    1    2    0    0 -0.26828677832E+01 -0.24829786761E+01 -0.18236484712E+03  0.18240148143E+03  0.00000000000E+00 0.  1.
        -15    1    1    2    0    0  0.65331892000E+00  0.98918738663E+00  0.23062445184E+02  0.23161161977E+02  0.17770000000E+01 0. -1.
         15    1    1    2    0    0  0.13028959251E+01 -0.13726446909E+01  0.33586189689E+02  0.33686370509E+02  0.17770000000E+01 0.  1.
</event>
<event>
 6    1  0.1226227E-002  0.1827079E+03  0.7546771E-02  0.1068289E+00
        -11   -1    0    0    0    0  0.00000000000E+00  0.00000000000E+00  0.18250000000E+03  0.18250000000E+03  0.00000000000E+00 0. -1.
         11   -1    0    0    0    0 -0.00000000000E+00 -0.00000000000E+00 -0.18250000000E+03  0.18250000000E+03  0.00000000000E+00 0. -1.
        -11    1    1    2    0    0  0.64957835616E+00 -0.17759106291E+01  0.10998013850E+03  0.10999639392E+03  0.00000000000E+00 0. -1.
         11    1    1    2    0    0 -0.10084173395E+01  0.26354859352E+01 -0.18227022745E+03  0.18229206924E+03  0.00000000000E+00 0. -1.
        -15    1    1    2    0    0 -0.74594953153E+00 -0.98492082854E+00  0.58360426636E+01  0.62244383452E+01  0.17770000000E+01 0.  1.
         15    1    1    2    0    0  0.11047885149E+01  0.12534552246E+00  0.66454046289E+02  0.66487098495E+02  0.17770000000E+01 0. -1.
</event>
<event>
 6    1  0.1226227E-002  0.1826426E+03  0.7546771E-02  0.1068341E+00
        -11   -1    0    0    0    0  0.00000000000E+00  0.00000000000E+00  0.18250000000E+03  0.18250000000E+03  0.00000000000E+00 0. -1.
         11   -1    0    0    0    0 -0.00000000000E+00 -0.00000000000E+00 -0.18250000000E+03  0.18250000000E+03  0.00000000000E+00 0. -1.
        -11    1    1    2    0    0  0.14206876487E+01  0.11347486624E+01  0.31487326248E+02  0.31539779995E+02  0.00000000000E+00 0. -1.
         11    1    1    2    0    0 -0.13833731520E+01  0.22686996299E+01 -0.18233799291E+03  0.18235735350E+03  0.00000000000E+00 0. -1.
        -15    1    1    2    0    0 -0.29871955522E+01 -0.31917807389E+01  0.59405683978E+02  0.59592816845E+02  0.17770000000E+01 0. -1.
         15    1    1    2    0    0  0.29498810555E+01 -0.21166755332E+00  0.91444982682E+02  0.91510049656E+02  0.17770000000E+01 0.  1.
</event>
<event>
 6    1  0.1226227E-002  0.1829648E+03  0.7546771E-02  0.1068085E+00
        -11   -1    0    0    0    0  0.00000000000E+00  0.00000000000E+00  0.18250000000E+03  0.18250000000E+03  0.00000000000E+00 0. -1.
         11   -1    0    0    0    0 -0.00000000000E+00 -0.00000000000E+00 -0.18250000000E+03  0.18250000000E+03  0.00000000000E+00 0.  1.
        -11    1    1    2    0    0  0.31506941287E+01  0.16727924253E+00  0.14621005432E+03  0.14624409335E+03  0.00000000000E+00 0. -1.
         11    1    1    2    0    0  0.10671649818E+01 -0.25373681771E+01 -0.18201437030E+03  0.18203518361E+03  0.00000000000E+00 0.  1.
        -15    1    1    2    0    0 -0.28646464947E+01  0.74900405341E+00  0.30906753653E+02  0.31099073250E+02  0.17770000000E+01 0.  1.
         15    1    1    2    0    0 -0.13532126158E+01  0.16210848812E+01  0.48975623259E+01  0.56216497855E+01  0.17770000000E+01 0. -1.
</event>
<event>
 6    1  0.1226227E-002  0.1829578E+03  0.7546771E-02  0.1068091E+00
        -11   -1    0    0    0    0  0.00000000000E+00  0.00000000000E+00  0.18250000000E+03  0.18250000000E+03  0.00000000000E+00 0. -1.
         11   -1    0    0    0    0 -0.00000000000E+00 -0.00000000000E+00 -0.18250000000E+03  0.18250000000E+03  0.00000000000E+00 0.  1.
        -11    1    1    2    0    0 -0.83821861065E+01  0.28244579954E+01  0.18182716370E+03  0.18204218211E+03  0.00000000000E+00 0. -1.
         11    1    1    2    0    0  0.10452757382E+01  0.18154125907E+01 -0.68188865241E+02  0.68221035371E+02  0.00000000000E+00 0.  1.
        -15    1    1    2    0    0  0.78606573507E+01 -0.37016400608E+01 -0.36194696828E+02  0.37265344231E+02  0.17770000000E+01 0. -1.
         15    1    1    2    0    0 -0.52374698245E+00 -0.93823052518E+00 -0.77443601634E+02  0.77471438288E+02  0.17770000000E+01 0.  1.
</event>
<event>
 6    1  0.1226227E-002  0.1836607E+03  0.7546771E-02  0.1067535E+00
        -11   -1    0    0    0    0  0.00000000000E+00  0.00000000000E+00  0.18250000000E+03  0.18250000000E+03  0.00000000000E+00 0. -1.
         11   -1    0    0    0    0 -0.00000000000E+00 -0.00000000000E+00 -0.18250000000E+03  0.18250000000E+03  0.00000000000E+00 0.  1.
        -11    1    1    2    0    0 -0.36190300591E+01 -0.44170581324E+01  0.18124933336E+03  0.18133926388E+03  0.00000000000E+00 0. -1.
         11    1    1    2    0    0 -0.63063725135E+00 -0.26997452354E+01 -0.13963460169E+03  0.13966212199E+03  0.00000000000E+00 0.  1.
        -15    1    1    2    0    0  0.67523891811E+01  0.43313522443E+01 -0.15368414109E+02  0.17427026515E+02  0.17770000000E+01 0.  1.
         15    1    1    2    0    0 -0.25027218706E+01  0.27854511236E+01 -0.26246317553E+02  0.26571587623E+02  0.17770000000E+01 0. -1.
</event>
<event>
 6    1  0.1226227E-002  0.1843389E+03  0.7546771E-02  0.1067000E+00
        -11   -1    0    0    0    0  0.00000000000E+00  0.00000000000E+00  0.18250000000E+03  0.18250000000E+03  0.00000000000E+00 0.  1.
         11   -1    0    0    0    0 -0.00000000000E+00 -0.00000000000E+00 -0.18250000000E+03  0.18250000000E+03  0.00000000000E+00 0. -1.
        -11    1    1    2    0    0  0.15830593087E+01 -0.26611903447E+01  0.17837996902E+03  0.17840684224E+03  0.00000000000E+00 0.  1.
         11    1    1    2    0    0 -0.20403067319E+01  0.19287477829E+01 -0.18063930883E+03  0.18066112702E+03  0.00000000000E+00 0. -1.
        -15    1    1    2    0    0  0.20154080309E+01 -0.60898103664E+00  0.93881435443E+00  0.29106406213E+01  0.17770000000E+01 0. -1.
         15    1    1    2    0    0 -0.15581606077E+01  0.13414235984E+01  0.13205254560E+01  0.30213901154E+01  0.17770000000E+01 0. -1.
</event>
<event>
 6    1  0.1226227E-002  0.1901314E+03  0.7546771E-02  0.1062537E+00
        -11   -1    0    0    0    0  0.00000000000E+00  0.00000000000E+00  0.18250000000E+03  0.18250000000E+03  0.00000000000E+00 0.  1.
         11   -1    0    0    0    0 -0.00000000000E+00 -0.00000000000E+00 -0.18250000000E+03  0.18250000000E+03  0.00000000000E+00 0.  1.
        -11    1    1    2    0    0 -0.31529345765E+01  0.17402956539E+01  0.17483147270E+03  0.17486856055E+03  0.00000000000E+00 0.  1.
         11    1    1    2    0    0 -0.59990917642E+01  0.83631067262E+01 -0.15902202757E+03  0.15935474862E+03  0.00000000000E+00 0.  1.
        -15    1    1    2    0    0  0.58906733005E+01 -0.51118371821E+01 -0.21127945292E+02  0.22591562862E+02  0.17770000000E+01 0. -1.
         15    1    1    2    0    0  0.32613530403E+01 -0.49915651980E+01  0.53185001641E+01  0.81851279633E+01  0.17770000000E+01 0.  1.
</event>
<event>
 6    1  0.1226227E-002  0.1846334E+03  0.7546771E-02  0.1066769E+00
        -11   -1    0    0    0    0  0.00000000000E+00  0.00000000000E+00  0.18250000000E+03  0.18250000000E+03  0.00000000000E+00 0.  1.
         11   -1    0    0    0    0 -0.00000000000E+00 -0.00000000000E+00 -0.18250000000E+03  0.18250000000E+03  0.00000000000E+00 0.  1.
        -11    1    1    2    0    0  0.24685837793E+01  0.12357639806E+01  0.18034550712E+03  0.18036663482E+03  0.00000000000E+00 0.  1.
         11    1    1    2    0    0 -0.61716774293E+00 -0.31508570169E+01 -0.17496411579E+03  0.17499357305E+03  0.00000000000E+00 0.  1.
        -15    1    1    2    0    0  0.49661246980E+00  0.22974734901E+01 -0.59285229544E+01  0.66204321463E+01  0.17770000000E+01 0.  1.
         15    1    1    2    0    0 -0.23480285061E+01 -0.38238045373E+00  0.54713162793E+00  0.30193599811E+01  0.17770000000E+01 0.  1.
</event>
<event>
 6    1  0.1226227E-002  0.1827786E+03  0.7546771E-02  0.1068233E+00
        -11   -1    0    0    0    0  0.00000000000E+00  0.00000000000E+00  0.18250000000E+03  0.18250000000E+03  0.00000000000E+00 0.  1.
         11   -1    0    0    0    0 -0.00000000000E+00 -0.00000000000E+00 -0.18250000000E+03  0.18250000000E+03  0.00000000000E+00 0.  1.
        -11    1    1    2    0    0 -0.19728053856E+01  0.27631491701E+01  0.18218980842E+03  0.18222144014E+03  0.00000000000E+00 0.  1.
         11    1    1    2    0    0 -0.16662965752E+01  0.15985962717E+01 -0.12354675694E+03  0.12356833415E+03  0.00000000000E+00 0.  1.
        -15    1    1    2    0    0  0.23522549827E+01 -0.63431246983E+00 -0.12237884531E+02  0.12603928063E+02  0.17770000000E+01 0.  1.
         15    1    1    2    0    0  0.12868469781E+01 -0.37274329720E+01 -0.46405166946E+02  0.46606297643E+02  0.17770000000E+01 0. -1.
</event>
<event>
 6    1  0.1381925E-002  0.1722413E+03  0.7546771E-02  0.1076927E+00
        -11   -1    0    0    0    0  0.00000000000E+00  0.00000000000E+00  0.18250000000E+03  0.18250000000E+03  0.00000000000E+00 0.  1.
         11   -1    0    0    0    0 -0.00000000000E+00 -0.00000000000E+00 -0.18250000000E+03  0.18250000000E+03  0.00000000000E+00 0. -1.
        -11    1    1    2    0    0 -0.16616155885E+01 -0.39463987813E+01  0.17133544898E+03  0.17138894687E+03  0.00000000000E+00 0.  1.
         11    1    1    2    0    0  0.59563079723E+01  0.70209313530E+01 -0.17289268911E+03  0.17313767074E+03  0.00000000000E+00 0. -1.
        -15    1    1    2    0    0 -0.36148653950E-01  0.44278852037E+01  0.81687782739E+01  0.94601343326E+01  0.17770000000E+01 0. -1.
         15    1    1    2    0    0 -0.42585437299E+01 -0.75024177754E+01 -0.66115381441E+01  0.11013248059E+02  0.17770000000E+01 0.  1.
</event>
<event>
 6    1  0.1226227E-002  0.1865446E+03  0.7546771E-02  0.1065280E+00
        -11   -1    0    0    0    0  0.00000000000E+00  0.00000000000E+00  0.18250000000E+03  0.18250000000E+03  0.00000000000E+00 0. -1.
         11   -1    0    0    0    0 -0.00000000000E+00 -0.00000000000E+00 -0.18250000000E+03  0.18250000000E+03  0.00000000000E+00 0.  1.
        -11    1    1    2    0    0  0.51927928515E+01 -0.53133305458E+01  0.17830067201E+03  0.17845539000E+03  0.00000000000E+00 0. -1.
         11    1    1    2    0    0  0.26739567783E+01 -0.14082843011E+01 -0.15668249355E+03  0.15671163675E+03  0.00000000000E+00 0.  1.
        -15    1    1    2    0    0  0.33888385780E+00  0.80864187435E+01 -0.21095661853E+01  0.85506145308E+01  0.17770000000E+01 0. -1.
         15    1    1    2    0    0 -0.82056334876E+01 -0.13648038966E+01 -0.19508612282E+02  0.21282358722E+02  0.17770000000E+01 0.  1.
</event>
<event>
 6    1  0.1226227E-002  0.1869515E+03  0.7546771E-02  0.1064966E+00
        -11   -1    0    0    0    0  0.00000000000E+00  0.00000000000E+00  0.18250000000E+03  0.18250000000E+03  0.00000000000E+00 0.  1.
         11   -1    0    0    0    0 -0.00000000000E+00 -0.00000000000E+00 -0.18250000000E+03  0.18250000000E+03  0.00000000000E+00 0.  1.
        -11    1    1    2    0    0  0.12329375563E+01  0.27722052735E+00  0.23720256587E+02  0.23753895655E+02  0.00000000000E+00 0.  1.
         11    1    1    2    0    0  0.12775800982E+02  0.43413182078E+01 -0.17753648422E+03  0.17804850846E+03  0.00000000000E+00 0.  1.
        -15    1    1    2    0    0 -0.17395304877E+02  0.61510008539E+01  0.14819895940E+02  0.23732224673E+02  0.17770000000E+01 0. -1.
         15    1    1    2    0    0  0.33865663379E+01 -0.10769539589E+02  0.13899633169E+03  0.13946537121E+03  0.17770000000E+01 0.  1.
</event>
<event>
 6    1  0.1226227E-002  0.1909264E+03  0.7546771E-02  0.1061938E+00
        -11   -1    0    0    0    0  0.00000000000E+00  0.00000000000E+00  0.18250000000E+03  0.18250000000E+03  0.00000000000E+00 0. -1.
         11   -1    0    0    0    0 -0.00000000000E+00 -0.00000000000E+00 -0.18250000000E+03  0.18250000000E+03  0.00000000000E+00 0. -1.
        -11    1    1    2    0    0  0.30075805320E+01  0.29693976612E+01  0.17402225013E+03  0.17407356607E+03  0.00000000000E+00 0. -1.
         11    1    1    2    0    0  0.12764118155E+01 -0.26773349051E+01 -0.14330404494E+03  0.14333473635E+03  0.00000000000E+00 0. -1.
        -15    1    1    2    0    0  0.68618754899E+01 -0.37940296100E+01 -0.34310861688E+02  0.35240217858E+02  0.17770000000E+01 0. -1.
         15    1    1    2    0    0 -0.11145867837E+02  0.35019668540E+01  0.35926564947E+01  0.12351479724E+02  0.17770000000E+01 0.  1.
</event>
<event>
 6    1  0.1226227E-002  0.1831733E+03  0.7546771E-02  0.1067920E+00
        -11   -1    0    0    0    0  0.00000000000E+00  0.00000000000E+00  0.18250000000E+03  0.18250000000E+03  0.00000000000E+00 0. -1.
         11   -1    0    0    0    0 -0.00000000000E+00 -0.00000000000E+00 -0.18250000000E+03  0.18250000000E+03  0.00000000000E+00 0. -1.
        -11    1    1    2    0    0 -0.39312828148E+01  0.77283876756E+00  0.14070835308E+03  0.14076538243E+03  0.00000000000E+00 0. -1.
         11    1    1    2    0    0  0.41171779258E+00 -0.25105905306E+01 -0.18180887286E+03  0.18182667248E+03  0.00000000000E+00 0. -1.
        -15    1    1    2    0    0  0.49864293808E+01 -0.11109264985E+01  0.13159886343E+02  0.14228105046E+02  0.17770000000E+01 0.  1.
         15    1    1    2    0    0 -0.14668643586E+01  0.28486782615E+01  0.27940633437E+02  0.28179840041E+02  0.17770000000E+01 0. -1.
</event>
<event>
 6    1  0.1226227E-002  0.1990412E+03  0.7546771E-02  0.1056001E+00
        -11   -1    0    0    0    0  0.00000000000E+00  0.00000000000E+00  0.18250000000E+03  0.18250000000E+03  0.00000000000E+00 0. -1.
         11   -1    0    0    0    0 -0.00000000000E+00 -0.00000000000E+00 -0.18250000000E+03  0.18250000000E+03  0.00000000000E+00 0.  1.
        -11    1    1    2    0    0 -0.12861681666E+01 -0.17653053401E+02  0.13385900787E+03  0.13502414048E+03  0.00000000000E+00 0. -1.
         11    1    1    2    0    0 -0.39488527802E+00  0.23390002702E+01 -0.16594184384E+03  0.16595879728E+03  0.00000000000E+00 0.  1.
        -15    1    1    2    0    0 -0.33934566991E+00  0.17178413496E+02  0.46305597706E+02  0.49422455965E+02  0.17770000000E+01 0. -1.
         15    1    1    2    0    0  0.20203991146E+01 -0.18643603648E+01 -0.14222761733E+02  0.14594606280E+02  0.17770000000E+01 0. -1.
</event>
<event>
 6    1  0.1226227E-002  0.1832096E+03  0.7546771E-02  0.1067891E+00
        -11   -1    0    0    0    0  0.00000000000E+00  0.00000000000E+00  0.18250000000E+03  0.18250000000E+03  0.00000000000E+00 0. -1.
         11   -1    0    0    0    0 -0.00000000000E+00 -0.00000000000E+00 -0.18250000000E+03  0.18250000000E+03  0.00000000000E+00 0.  1.
        -11    1    1    2    0    0 -0.28298004576E+00 -0.27432473268E+01  0.16608245644E+03  0.16610535157E+03  0.00000000000E+00 0. -1.
         11    1    1    2    0    0 -0.40720530274E+01 -0.22572795048E+00 -0.18174465773E+03  0.18179041004E+03  0.00000000000E+00 0.  1.
        -15    1    1    2    0    0  0.13993842018E+01  0.11478649082E+01  0.34341015775E+01  0.42692683959E+01  0.17770000000E+01 0. -1.
         15    1    1    2    0    0  0.29556488714E+01  0.18211103690E+01  0.12228099715E+02  0.12834969999E+02  0.17770000000E+01 0.  1.
</event>
<event>
 6    1  0.1226227E-002  0.1924313E+03  0.7546771E-02  0.1060813E+00
        -11   -1    0    0    0    0  0.00000000000E+00  0.00000000000E+00  0.18250000000E+03  0.18250000000E+03  0.00000000000E+00 0.  1.
         11   -1    0    0    0    0 -0.00000000000E+00 -0.00000000000E+00 -0.18250000000E+03  0.18250000000E+03  0.00000000000E+00 0.  1.
        -11    1    1    2    0    0  0.17784328593E+02 -0.83732251451E+01  0.12865907660E+03  0.13015203124E+03  0.00000000000E+00 0.  1.
         11    1    1    2    0    0  0.29964837450E+01 -0.30605590235E+01 -0.17251554728E+03  0.17256871093E+03  0.00000000000E+00 0.  1.
        -15    1    1    2    0    0 -0.27280547961E+01 -0.39614642900E+01 -0.54803853066E+01  0.75051871662E+01  0.17770000000E+01 0. -1.
         15    1    1    2    0    0 -0.18052757542E+02  0.15395248459E+02  0.49336855988E+02  0.54774070670E+02  0.17770000000E+01 0.  1.
</event>
<event>
 6    1  0.1226227E-002  0.1859420E+03  0.7546771E-02  0.1065748E+00
        -11   -1    0    0    0    0  0.00000000000E+00  0.00000000000E+00  0.18250000000E+03  0.18250000000E+03  0.00000000000E+00 0. -1.
         11   -1    0    0    0    0 -0.00000000000E+00 -0.00000000000E+00 -0.18250000000E+03  0.18250000000E+03  0.00000000000E+00 0. -1.
        -11    1    1    2    0    0  0.82693412771E+01  0.42370393244E+01  0.15113296884E+03  0.15141832378E+03  0.00000000000E+00 0. -1.
         11    1    1    2    0    0 -0.55033988025E+00  0.31598868796E+01 -0.17902931843E+03  0.17905804817E+03  0.00000000000E+00 0. -1.
        -15    1    1    2    0    0  0.52740051342E+00 -0.10070280160E+02  0.20788114441E+02  0.23173090532E+02  0.17770000000E+01 0. -1.
         15    1    1    2    0    0 -0.82464019103E+01  0.26733539555E+01  0.71082351495E+01  0.11350537511E+02  0.17770000000E+01 0.  1.
</event>
<event>
 6    1  0.1226227E-002  0.1959679E+03  0.7546771E-02  0.1058213E+00
        -11   -1    0    0    0    0  0.00000000000E+00  0.00000000000E+00  0.18250000000E+03  0.18250000000E+03  0.00000000000E+00 0.  1.
         11   -1    0    0    0    0 -0.00000000000E+00 -0.00000000000E+00 -0.18250000000E+03  0.18250000000E+03  0.00000000000E+00 0. -1.
        -11    1    1    2    0    0  0.92257660506E+00 -0.22876669872E+02  0.16747430475E+03  0.16903205590E+03  0.00000000000E+00 0.  1.
         11    1    1    2    0    0  0.68697846370E+01  0.15899767345E+01 -0.11322710719E+03  0.11344646213E+03  0.00000000000E+00 0. -1.
        -15    1    1    2    0    0  0.21348307819E+02  0.15778849165E+02 -0.84202677719E+01  0.27906647345E+02  0.17770000000E+01 0. -1.
         15    1    1    2    0    0 -0.29140669061E+02  0.55078439730E+01 -0.45826929788E+02  0.54614834628E+02  0.17770000000E+01 0.  1.
</event>
<event>
 6    1  0.1226227E-002  0.1853318E+03  0.7546771E-02  0.1066223E+00
        -11   -1    0    0    0    0  0.00000000000E+00  0.00000000000E+00  0.18250000000E+03  0.18250000000E+03  0.00000000000E+00 0.  1.
         11   -1    0    0    0    0 -0.00000000000E+00 -0.00000000000E+00 -0.18250000000E+03  0.18250000000E+03  0.00000000000E+00 0.  1.
        -11    1    1    2    0    0 -0.62765610560E+01 -0.17848483260E+01  0.17954965195E+03  0.17966818978E+03  0.00000000000E+00 0.  1.
         11    1    1    2    0    0  0.21989118022E+01 -0.41433697520E+01 -0.17116086664E+03  0.17122512957E+03  0.00000000000E+00 0.  1.
        -15    1    1    2    0    0  0.45288313513E+01  0.25541660995E+00 -0.17316952201E+01  0.51703044774E+01  0.17770000000E+01 0.  1.
         15    1    1    2    0    0 -0.45118209761E+00  0.56728014680E+01 -0.66570900843E+01  0.89363761767E+01  0.17770000000E+01 0. -1.
</event>
<event>
 6    1  0.1226227E-002  0.1851409E+03  0.7546771E-02  0.1066372E+00
        -11   -1    0    0    0    0  0.00000000000E+00  0.00000000000E+00  0.18250000000E+03  0.18250000000E+03  0.00000000000E+00 0.  1.
         11   -1    0    0    0    0 -0.00000000000E+00 -0.00000000000E+00 -0.18250000000E+03  0.18250000000E+03  0.00000000000E+00 0. -1.
        -11    1    1    2    0    0 -0.36752859703E+01 -0.73768304828E+00  0.17982001015E+03  0.17985907804E+03  0.00000000000E+00 0.  1.
         11    1    1    2    0    0 -0.32362960253E+00 -0.29544414962E+01 -0.16531982018E+03  0.16534653430E+03  0.00000000000E+00 0. -1.
        -15    1    1    2    0    0  0.73594223842E+01 -0.63429167761E+00 -0.95243818694E+01  0.12183390446E+02  0.17770000000E+01 0. -1.
         15    1    1    2    0    0 -0.33605068114E+01  0.43264162221E+01 -0.49758081052E+01  0.76109972182E+01  0.17770000000E+01 0. -1.
</event>
<event>
 6    1  0.1226227E-002  0.1956453E+03  0.7546771E-02  0.1058447E+00
        -11   -1    0    0    0    0  0.00000000000E+00  0.00000000000E+00  0.18250000000E+03  0.18250000000E+03  0.00000000000E+00 0. -1.
         11   -1    0    0    0    0 -0.00000000000E+00 -0.00000000000E+00 -0.18250000000E+03  0.18250000000E+03  0.00000000000E+00 0.  1.
        -11    1    1    2    0    0  0.59182082009E+01 -0.46864285711E+01  0.16918636310E+03  0.16935469660E+03  0.00000000000E+00 0. -1.
         11    1    1    2    0    0 -0.90499728796E+01  0.11439932576E+02 -0.15478511419E+03  0.15547091574E+03  0.00000000000E+00 0.  1.
        -15    1    1    2    0    0 -0.54192732967E+01 -0.15791061899E+02 -0.20256053255E+02  0.26309534040E+02  0.17770000000E+01 0.  1.
         15    1    1    2    0    0  0.85510379754E+01  0.90375578932E+01  0.58548043425E+01  0.13864853624E+02  0.17770000000E+01 0. -1.
</event>
<event>
 6    1  0.1226227E-002  0.1855731E+03  0.7546771E-02  0.1066035E+00
        -11   -1    0    0    0    0  0.00000000000E+00  0.00000000000E+00  0.18250000000E+03  0.18250000000E+03  0.00000000000E+00 0. -1.
         11   -1    0    0    0    0 -0.00000000000E+00 -0.00000000000E+00 -0.18250000000E+03  0.18250000000E+03  0.00000000000E+00 0. -1.
        -11    1    1    2    0    0 -0.11686482254E+02 -0.28484343813E+01  0.11329800327E+03  0.11393474005E+03  0.00000000000E+00 0. -1.
         11    1    1    2    0    0 -0.15395684969E+01  0.37026557268E+01 -0.17938212318E+03  0.17942693791E+03  0.00000000000E+00 0. -1.
        -15    1    1    2    0    0  0.37500752736E+01  0.11125119912E+02  0.34987558421E+02  0.36947507776E+02  0.17770000000E+01 0.  1.
         15    1    1    2    0    0  0.94759754775E+01 -0.11979341258E+02  0.31096561494E+02  0.34690814260E+02  0.17770000000E+01 0. -1.
</event>
<event>
 6    1  0.1226227E-002  0.1846289E+03  0.7546771E-02  0.1066773E+00
        -11   -1    0    0    0    0  0.00000000000E+00  0.00000000000E+00  0.18250000000E+03  0.18250000000E+03  0.00000000000E+00 0. -1.
         11   -1    0    0    0    0 -0.00000000000E+00 -0.00000000000E+00 -0.18250000000E+03  0.18250000000E+03  0.00000000000E+00 0.  1.
        -11    1    1    2    0    0  0.47395827554E+01  0.13836524881E+01  0.18030355015E+03  0.18037114053E+03  0.00000000000E+00 0. -1.
         11    1    1    2    0    0  0.25362200227E+01  0.26572660992E+01 -0.11578095049E+03  0.11583920741E+03  0.00000000000E+00 0.  1.
        -15    1    1    2    0    0 -0.34373830960E+01 -0.46617007039E+01 -0.23942444903E+01  0.65143834460E+01  0.17770000000E+01 0.  1.
         15    1    1    2    0    0 -0.38384196820E+01  0.62078211658E+00 -0.62128355170E+02  0.62275268616E+02  0.17770000000E+01 0.  1.
</event>
<event>
 6    1  0.1226227E-002  0.1853064E+03  0.7546771E-02  0.1066243E+00
        -11   -1    0    0    0    0  0.00000000000E+00  0.00000000000E+00  0.18250000000E+03  0.18250000000E+03  0.00000000000E+00 0.  1.
         11   -1    0    0    0    0 -0.00000000000E+00 -0.00000000000E+00 -0.18250000000E+03  0.18250000000E+03  0.00000000000E+00 0. -1.
        -11    1    1    2    0    0 -0.92068085761E-01  0.49432545641E+01  0.17962560103E+03  0.17969363034E+03  0.00000000000E+00 0.  1.
         11    1    1    2    0    0  0.68736169832E+01 -0.45410655577E+01 -0.66262112049E+02  0.66772265051E+02  0.00000000000E+00 0. -1.
        -15    1    1    2    0    0 -0.11792816149E+02  0.33128188591E+01 -0.11091121911E+03  0.11159973806E+03  0.17770000000E+01 0.  1.
         15    1    1    2    0    0  0.50112672513E+01 -0.37150078655E+01 -0.24522698717E+01  0.69343665485E+01  0.17770000000E+01 0. -1.
</event>
<event>
 6    1  0.1226227E-002  0.1901998E+03  0.7546771E-02  0.1062486E+00
        -11   -1    0    0    0    0  0.00000000000E+00  0.00000000000E+00  0.18250000000E+03  0.18250000000E+03  0.00000000000E+00 0.  1.
         11   -1    0    0    0    0 -0.00000000000E+00 -0.00000000000E+00 -0.18250000000E+03  0.18250000000E+03  0.00000000000E+00 0.  1.
        -11    1    1    2    0    0  0.18456436010E+01 -0.18195084532E+01  0.17478101742E+03  0.17480023187E+03  0.00000000000E+00 0.  1.
         11    1    1    2    0    0 -0.44375451163E+01  0.30757451010E+01 -0.16776410869E+03  0.16785097015E+03  0.00000000000E+00 0.  1.
        -15    1    1    2    0    0  0.16213785431E+01  0.93843278653E+01 -0.61668487949E+01  0.11483998908E+02  0.17770000000E+01 0. -1.
         15    1    1    2    0    0  0.97052297215E+00 -0.10640564513E+02 -0.85005993844E+00  0.10864799073E+02  0.17770000000E+01 0.  1.
</event>
<event>
 6    1  0.1226227E-002  0.1839445E+03  0.7546771E-02  0.1067311E+00
        -11   -1    0    0    0    0  0.00000000000E+00  0.00000000000E+00  0.18250000000E+03  0.18250000000E+03  0.00000000000E+00 0. -1.
         11   -1    0    0    0    0 -0.00000000000E+00 -0.00000000000E+00 -0.18250000000E+03  0.18250000000E+03  0.00000000000E+00 0. -1.
        -11    1    1    2    0    0  0.97731175029E+01  0.62714329856E+01  0.18068277415E+03  0.18105554278E+03  0.00000000000E+00 0. -1.
         11    1    1    2    0    0 -0.37882593038E+00 -0.18761379524E+01 -0.14068823254E+03  0.14070125152E+03  0.00000000000E+00 0. -1.
        -15    1    1    2    0    0 -0.88720889867E+01 -0.49159002683E+01 -0.15114887629E+02  0.18289275422E+02  0.17770000000E+01 0.  1.
         15    1    1    2    0    0 -0.52220258578E+00  0.52060523504E+00 -0.24879653979E+02  0.24953930281E+02  0.17770000000E+01 0.  1.
</event>
<event>
 6    1  0.1226227E-002  0.1837684E+03  0.7546771E-02  0.1067450E+00
        -11   -1    0    0    0    0  0.00000000000E+00  0.00000000000E+00  0.18250000000E+03  0.18250000000E+03  0.00000000000E+00 0. -1.
         11   -1    0    0    0    0 -0.00000000000E+00 -0.00000000000E+00 -0.18250000000E+03  0.18250000000E+03  0.00000000000E+00 0.  1.
        -11    1    1    2    0    0  0.28718049760E+01  0.84288983459E+01  0.18101274147E+03  0.18123163677E+03  0.00000000000E+00 0. -1.
         11    1    1    2    0    0 -0.21148999213E+01  0.30162132051E+01 -0.13823593057E+03  0.13828500585E+03  0.00000000000E+00 0.  1.
        -15    1    1    2    0    0 -0.74121120754E+00 -0.99097773724E+01 -0.41691421012E+02  0.42896216577E+02  0.17770000000E+01 0. -1.
         15    1    1    2    0    0 -0.15693847217E-01 -0.15353341786E+01 -0.10853898904E+01  0.25871408062E+01  0.17770000000E+01 0.  1.
</event>
<event>
 6    1  0.1226227E-002  0.1840180E+03  0.7546771E-02  0.1067253E+00
        -11   -1    0    0    0    0  0.00000000000E+00  0.00000000000E+00  0.18250000000E+03  0.18250000000E+03  0.00000000000E+00 0.  1.
         11   -1    0    0    0    0 -0.00000000000E+00 -0.00000000000E+00 -0.18250000000E+03  0.18250000000E+03  0.00000000000E+00 0.  1.
        -11    1    1    2    0    0  0.11834938855E+02  0.11535188631E+01  0.10870928976E+03  0.10935769778E+03  0.00000000000E+00 0.  1.
         11    1    1    2    0    0 -0.65727626965E+01  0.64453774428E+01 -0.18074769086E+03  0.18098196554E+03  0.00000000000E+00 0.  1.
        -15    1    1    2    0    0 -0.86058393744E+01  0.60080041769E+00  0.51152238875E+02  0.51905016168E+02  0.17770000000E+01 0.  1.
         15    1    1    2    0    0  0.33436632160E+01 -0.81996967237E+01  0.20886162220E+02  0.22755320507E+02  0.17770000000E+01 0. -1.
</event>
<event>
 6    1  0.1226227E-002  0.1894632E+03  0.7546771E-02  0.1063043E+00
        -11   -1    0    0    0    0  0.00000000000E+00  0.00000000000E+00  0.18250000000E+03  0.18250000000E+03  0.00000000000E+00 0.  1.
         11   -1    0    0    0    0 -0.00000000000E+00 -0.00000000000E+00 -0.18250000000E+03  0.18250000000E+03  0.00000000000E+00 0.  1.
        -11    1    1    2    0    0 -0.10994547850E+00  0.26588355062E+01  0.16995574899E+03  0.16997658106E+03  0.00000000000E+00 0.  1.
         11    1    1    2    0    0 -0.33977065967E+01  0.54631785256E+00 -0.17550302111E+03  0.17553675766E+03  0.00000000000E+00 0.  1.
        -15    1    1    2    0    0  0.84161339909E+01 -0.60797004997E+01  0.78092630962E+01  0.13112451663E+02  0.17770000000E+01 0. -1.
         15    1    1    2    0    0 -0.49084819158E+01  0.28745471409E+01 -0.22619909808E+01  0.63742096122E+01  0.17770000000E+01 0.  1.
</event>
<event>
 6    1  0.1226227E-002  0.1923319E+03  0.7546771E-02  0.1060887E+00
        -11   -1    0    0    0    0  0.00000000000E+00  0.00000000000E+00  0.18250000000E+03  0.18250000000E+03  0.00000000000E+00 0. -1.
         11   -1    0    0    0    0 -0.00000000000E+00 -0.00000000000E+00 -0.18250000000E+03  0.18250000000E+03  0.00000000000E+00 0.  1.
        -11    1    1    2    0    0  0.99523010075E+00 -0.46686318327E+01  0.17260212264E+03  0.17266811907E+03  0.00000000000E+00 0. -1.
         11    1    1    2    0    0 -0.83382807917E+01  0.34392819678E+01 -0.13924607899E+03  0.13953790202E+03  0.00000000000E+00 0.  1.
        -15    1    1    2    0    0  0.81281495064E+01  0.24753289455E+01 -0.42492727310E+02  0.43370308635E+02  0.17770000000E+01 0. -1.
         15    1    1    2    0    0 -0.78509881553E+00 -0.12459790806E+01  0.91366836617E+01  0.94236702698E+01  0.17770000000E+01 0.  1.
</event>
<event>
 6    1  0.1226227E-002  0.1125683E+03  0.7546771E-02  0.1143697E+00
        -11   -1    0    0    0    0  0.00000000000E+00  0.00000000000E+00  0.18250000000E+03  0.18250000000E+03  0.00000000000E+00 0.  1.
         11   -1    0    0    0    0 -0.00000000000E+00 -0.00000000000E+00 -0.18250000000E+03  0.18250000000E+03  0.00000000000E+00 0. -1.
        -11    1    1    2    0    0  0.11817237611E+01 -0.17005927551E+01  0.50266953453E+02  0.50309592487E+02  0.00000000000E+00 0.  1.
         11    1    1    2    0    0  0.27379169222E+01 -0.90109854039E+00 -0.86552103370E+02  0.86600085250E+02  0.00000000000E+00 0. -1.
        -15    1    1    2    0    0 -0.33868455417E+00  0.59138227996E+02  0.11603674831E+03  0.13025025683E+03  0.17770000000E+01 0.  1.
         15    1    1    2    0    0 -0.35809561291E+01 -0.56536536700E+02 -0.79751598391E+02  0.97840065432E+02  0.17770000000E+01 0. -1.
</event>
<event>
 6    1  0.1226227E-002  0.1829594E+03  0.7546771E-02  0.1068090E+00
        -11   -1    0    0    0    0  0.00000000000E+00  0.00000000000E+00  0.18250000000E+03  0.18250000000E+03  0.00000000000E+00 0.  1.
         11   -1    0    0    0    0 -0.00000000000E+00 -0.00000000000E+00 -0.18250000000E+03  0.18250000000E+03  0.00000000000E+00 0.  1.
        -11    1    1    2    0    0  0.85037680771E+00  0.65737127381E+01  0.18191983279E+03  0.18204055154E+03  0.00000000000E+00 0.  1.
         11    1    1    2    0    0 -0.50524450757E+00  0.11800064146E+01 -0.56057892990E+02  0.56072587364E+02  0.00000000000E+00 0.  1.
        -15    1    1    2    0    0  0.26655819275E+00 -0.10823152458E+02 -0.65067070702E+02  0.65985552215E+02  0.17770000000E+01 0. -1.
         15    1    1    2    0    0 -0.61169049289E+00  0.30694333055E+01 -0.60794869100E+02  0.60901308886E+02  0.17770000000E+01 0.  1.
</event>
<event>
 6    1  0.1226227E-002  0.1827927E+03  0.7546771E-02  0.1068222E+00
        -11   -1    0    0    0    0  0.00000000000E+00  0.00000000000E+00  0.18250000000E+03  0.18250000000E+03  0.00000000000E+00 0. -1.
         11   -1    0    0    0    0 -0.00000000000E+00 -0.00000000000E+00 -0.18250000000E+03  0.18250000000E+03  0.00000000000E+00 0. -1.
        -11    1    1    2    0    0  0.25906084414E+01  0.21967395673E+01  0.18217560711E+03  0.18220726863E+03  0.00000000000E+00 0. -1.
         11    1    1    2    0    0  0.21211666533E+01 -0.68528428200E+00 -0.11182111108E+03  0.11184332723E+03  0.00000000000E+00 0. -1.
        -15    1    1    2    0    0 -0.59973302883E+01 -0.21603568621E+01 -0.43868132447E+02  0.44364466477E+02  0.17770000000E+01 0.  1.
         15    1    1    2    0    0  0.12855551937E+01  0.64890157688E+00 -0.26486363581E+02  0.26584937656E+02  0.17770000000E+01 0. -1.
</event>
<event>
 6    1  0.1226227E-002  0.1908186E+03  0.7546771E-02  0.1062019E+00
        -11   -1    0    0    0    0  0.00000000000E+00  0.00000000000E+00  0.18250000000E+03  0.18250000000E+03  0.00000000000E+00 0.  1.
         11   -1    0    0    0    0 -0.00000000000E+00 -0.00000000000E+00 -0.18250000000E+03  0.18250000000E+03  0.00000000000E+00 0.  1.
        -11    1    1    2    0    0 -0.25792962387E+01 -0.35233976003E+01  0.17412662279E+03  0.17418136486E+03  0.00000000000E+00 0.  1.
         11    1    1    2    0    0  0.36750692333E+01 -0.12522423323E+01 -0.50884451119E+02  0.51032358464E+02  0.00000000000E+00 0.  1.
        -15    1    1    2    0    0 -0.12238969342E+02  0.20305026729E+02 -0.11505207087E+02  0.26412383462E+02  0.17770000000E+01 0.  1.
         15    1    1    2    0    0  0.11143196348E+02 -0.15529386797E+02 -0.11173696458E+03  0.11337389321E+03  0.17770000000E+01 0. -1.
</event>
<event>
 6    1  0.1226227E-002  0.1857850E+03  0.7546771E-02  0.1065870E+00
        -11   -1    0    0    0    0  0.00000000000E+00  0.00000000000E+00  0.18250000000E+03  0.18250000000E+03  0.00000000000E+00 0.  1.
         11   -1    0    0    0    0 -0.00000000000E+00 -0.00000000000E+00 -0.18250000000E+03  0.18250000000E+03  0.00000000000E+00 0.  1.
        -11    1    1    2    0    0 -0.19016268929E+01  0.37980352691E+01  0.13698128176E+03  0.13704711894E+03  0.00000000000E+00 0.  1.
         11    1    1    2    0    0  0.15500492138E+01  0.33929620752E+01 -0.17917615541E+03  0.17921498127E+03  0.00000000000E+00 0.  1.
        -15    1    1    2    0    0 -0.16826359192E+01 -0.62677286967E+01  0.44538916635E+02  0.45044294985E+02  0.17770000000E+01 0.  1.
         15    1    1    2    0    0  0.20342135984E+01 -0.92326864756E+00 -0.23440429858E+01  0.36936048081E+01  0.17770000000E+01 0. -1.
</event>
<event>
 6    1  0.1226227E-002  0.1831922E+03  0.7546771E-02  0.1067905E+00
        -11   -1    0    0    0    0  0.00000000000E+00  0.00000000000E+00  0.18250000000E+03  0.18250000000E+03  0.00000000000E+00 0. -1.
         11   -1    0    0    0    0 -0.00000000000E+00 -0.00000000000E+00 -0.18250000000E+03  0.18250000000E+03  0.00000000000E+00 0.  1.
        -11    1    1    2    0    0 -0.48195904176E+01 -0.18946165081E+01  0.18173403766E+03  0.18180780640E+03  0.00000000000E+00 0. -1.
         11    1    1    2    0    0  0.17875011275E-01  0.59129939127E+01 -0.13081978345E+03  0.13095334879E+03  0.00000000000E+00 0.  1.
        -15    1    1    2    0    0 -0.51365607922E+00  0.24721299237E+01 -0.11990054336E+02  0.12381211609E+02  0.17770000000E+01 0.  1.
         15    1    1    2    0    0  0.53153714855E+01 -0.64905073283E+01 -0.38924199876E+02  0.39857633201E+02  0.17770000000E+01 0. -1.
</event>
<event>
 6    1  0.1226227E-002  0.1834672E+03  0.7546771E-02  0.1067688E+00
        -11   -1    0    0    0    0  0.00000000000E+00  0.00000000000E+00  0.18250000000E+03  0.18250000000E+03  0.00000000000E+00 0.  1.
         11   -1    0    0    0    0 -0.00000000000E+00 -0.00000000000E+00 -0.18250000000E+03  0.18250000000E+03  0.00000000000E+00 0. -1.
        -11    1    1    2    0    0  0.27119059357E+01  0.89485295651E+00  0.15490967646E+03  0.15493599664E+03  0.00000000000E+00 0.  1.
         11    1    1    2    0    0  0.13304745791E+01 -0.21358001557E+01 -0.18151538467E+03  0.18153282535E+03  0.00000000000E+00 0. -1.
        -15    1    1    2    0    0 -0.25639361911E+01  0.16632034069E+01  0.25450228789E+01  0.43560170820E+01  0.17770000000E+01 0. -1.
         15    1    1    2    0    0 -0.14784443238E+01 -0.42225620772E+00  0.24060685338E+02  0.24175160927E+02  0.17770000000E+01 0. -1.
</event>
<event>
 6    1  0.1226227E-002  0.1829043E+03  0.7546771E-02  0.1068133E+00
        -11   -1    0    0    0    0  0.00000000000E+00  0.00000000000E+00  0.18250000000E+03  0.18250000000E+03  0.00000000000E+00 0. -1.
         11   -1    0    0    0    0 -0.00000000000E+00 -0.00000000000E+00 -0.18250000000E+03  0.18250000000E+03  0.00000000000E+00 0.  1.
        -11    1    1    2    0    0 -0.36689074657E+01 -0.14543383211E+01  0.18205292332E+03  0.18209569701E+03  0.00000000000E+00 0. -1.
         11    1    1    2    0    0 -0.26765750769E+01  0.13226029518E+01 -0.14247301355E+03  0.14250429089E+03  0.00000000000E+00 0.  1.
        -15    1    1    2    0    0  0.64466792206E+00 -0.45172623166E+00 -0.13478757506E+02  0.13618160163E+02  0.17770000000E+01 0.  1.
         15    1    1    2    0    0  0.57008146205E+01  0.58346160097E+00 -0.26101152261E+02  0.26781851936E+02  0.17770000000E+01 0. -1.
</event>
<event>
 6    1  0.1226227E-002  0.1828181E+03  0.7546771E-02  0.1068202E+00
        -11   -1    0    0    0    0  0.00000000000E+00  0.00000000000E+00  0.18250000000E+03  0.18250000000E+03  0.00000000000E+00 0. -1.
         11   -1    0    0    0    0 -0.00000000000E+00 -0.00000000000E+00 -0.18250000000E+03  0.18250000000E+03  0.00000000000E+00 0. -1.
        -11    1    1    2    0    0 -0.27134308500E+01  0.52580932075E+00  0.18216088303E+03  0.18218185005E+03  0.00000000000E+00 0. -1.
         11    1    1    2    0    0  0.12760868815E+01 -0.45571455814E+00 -0.10020561365E+03  0.10021477476E+03  0.00000000000E+00 0. -1.
        -15    1    1    2    0    0 -0.11280885178E+01 -0.19788376304E+01 -0.70894727694E+02  0.70953565984E+02  0.17770000000E+01 0. -1.
         15    1    1    2    0    0  0.25654324863E+01  0.19087428678E+01 -0.11060541683E+02  0.11649809205E+02  0.17770000000E+01 0.  1.
</event>
<event>
 6    1  0.1226227E-002  0.1827489E+03  0.7546771E-02  0.1068257E+00
        -11   -1    0    0    0    0  0.00000000000E+00  0.00000000000E+00  0.18250000000E+03  0.18250000000E+03  0.00000000000E+00 0.  1.
         11   -1    0    0    0    0 -0.00000000000E+00 -0.00000000000E+00 -0.18250000000E+03  0.18250000000E+03  0.00000000000E+00 0. -1.
        -11    1    1    2    0    0 -0.12692590938E+01 -0.27133612478E+01  0.12560330921E+03  0.12563902511E+03  0.00000000000E+00 0.  1.
         11    1    1    2    0    0 -0.23008202489E+01  0.55725224958E+01 -0.18215140013E+03  0.18225114362E+03  0.00000000000E+00 0. -1.
        -15    1    1    2    0    0  0.46031878724E+00 -0.77410512718E+00  0.40037730898E+02  0.40087264269E+02  0.17770000000E+01 0.  1.
         15    1    1    2    0    0  0.31097605554E+01 -0.20850561209E+01  0.16510360031E+02  0.17022566995E+02  0.17770000000E+01 0. -1.
</event>
<event>
 6    1  0.1226227E-002  0.1683197E+03  0.7546771E-02  0.1080338E+00
        -11   -1    0    0    0    0  0.00000000000E+00  0.00000000000E+00  0.18250000000E+03  0.18250000000E+03  0.00000000000E+00 0.  1.
         11   -1    0    0    0    0 -0.00000000000E+00 -0.00000000000E+00 -0.18250000000E+03  0.18250000000E+03  0.00000000000E+00 0. -1.
        -11    1    1    2    0    0  0.14927060287E+02  0.12589470827E+02  0.17201366533E+03  0.17311849400E+03  0.00000000000E+00 0.  1.
         11    1    1    2    0    0  0.56687751289E+01 -0.24877859979E+01 -0.16427372297E+03  0.16439032864E+03  0.00000000000E+00 0. -1.
        -15    1    1    2    0    0 -0.53443798252E+01 -0.80383592020E+00 -0.76588412934E+01  0.95406565215E+01  0.17770000000E+01 0.  1.
         15    1    1    2    0    0 -0.15251455591E+02 -0.92978489085E+01 -0.81101065369E-01  0.17950520838E+02  0.17770000000E+01 0. -1.
</event>
<event>
 6    1  0.1226227E-002  0.1832450E+03  0.7546771E-02  0.1067863E+00
        -11   -1    0    0    0    0  0.00000000000E+00  0.00000000000E+00  0.18250000000E+03  0.18250000000E+03  0.00000000000E+00 0. -1.
         11   -1    0    0    0    0 -0.00000000000E+00 -0.00000000000E+00 -0.18250000000E+03  0.18250000000E+03  0.00000000000E+00 0. -1.
        -11    1    1    2    0    0  0.34848540971E+01 -0.22013363395E+01  0.18170828169E+03  0.18175502669E+03  0.00000000000E+00 0. -1.
         11    1    1    2    0    0  0.25904978447E+01  0.30493888862E+01 -0.11254762601E+03  0.11261872656E+03  0.00000000000E+00 0. -1.
        -15    1    1    2    0    0 -0.18496815474E+01  0.29897531174E+01 -0.59645218318E+01  0.71479504203E+01  0.17770000000E+01 0. -1.
         15    1    1    2    0    0 -0.42256703944E+01 -0.38378056641E+01 -0.63196133853E+02  0.63478296335E+02  0.17770000000E+01 0.  1.
</event>
<event>
 6    1  0.1226227E-002  0.1832388E+03  0.7546771E-02  0.1067868E+00
        -11   -1    0    0    0    0  0.00000000000E+00  0.00000000000E+00  0.18250000000E+03  0.18250000000E+03  0.00000000000E+00 0. -1.
         11   -1    0    0    0    0 -0.00000000000E+00 -0.00000000000E+00 -0.18250000000E+03  0.18250000000E+03  0.00000000000E+00 0.  1.
        -11    1    1    2    0    0 -0.34837393941E+01 -0.69595051618E+00  0.10843185227E+03  0.10849003352E+03  0.00000000000E+00 0. -1.
         11    1    1    2    0    0 -0.18967743519E+01 -0.20900395191E+01 -0.18173929963E+03  0.18176121437E+03  0.00000000000E+00 0.  1.
        -15    1    1    2    0    0  0.71852432134E+01  0.42253400454E+01  0.69144243796E+02  0.69667534747E+02  0.17770000000E+01 0. -1.
         15    1    1    2    0    0 -0.18047294674E+01 -0.14393500101E+01  0.41632035674E+01  0.50812173586E+01  0.17770000000E+01 0. -1.
</event>
<event>
 6    1  0.1226227E-002  0.1826551E+03  0.7546771E-02  0.1068331E+00
        -11   -1    0    0    0    0  0.00000000000E+00  0.00000000000E+00  0.18250000000E+03  0.18250000000E+03  0.00000000000E+00 0.  1.
         11   -1    0    0    0    0 -0.00000000000E+00 -0.00000000000E+00 -0.18250000000E+03  0.18250000000E+03  0.00000000000E+00 0. -1.
        -11    1    1    2    0    0  0.35045039822E+01  0.20919422819E+01  0.18229919916E+03  0.18234488143E+03  0.00000000000E+00 0.  1.
         11    1    1    2    0    0  0.63032168972E+00  0.16356756623E+00 -0.85762025074E+01  0.86008900254E+01  0.00000000000E+00 0. -1.
        -15    1    1    2    0    0  0.10344077714E+00 -0.14841355766E+01 -0.10004524993E+02  0.10269450216E+02  0.17770000000E+01 0.  1.
         15    1    1    2    0    0 -0.42382664491E+01 -0.77137427149E+00 -0.16371847166E+03  0.16378477833E+03  0.17770000000E+01 0. -1.
</event>
<event>
 6    1  0.1226227E-002  0.1828322E+03  0.7546771E-02  0.1068191E+00
        -11   -1    0    0    0    0  0.00000000000E+00  0.00000000000E+00  0.18250000000E+03  0.18250000000E+03  0.00000000000E+00 0. -1.
         11   -1    0    0    0    0 -0.00000000000E+00 -0.00000000000E+00 -0.18250000000E+03  0.18250000000E+03  0.00000000000E+00 0.  1.
        -11    1    1    2    0    0  0.33450943178E+01  0.17233443927E+01  0.18212895940E+03  0.18216782763E+03  0.00000000000E+00 0. -1.
         11    1    1    2    0    0 -0.58383729816E+00  0.25646767203E+01 -0.14969156945E+03  0.14971467662E+03  0.00000000000E+00 0.  1.
        -15    1    1    2    0    0 -0.10584444109E+01 -0.33155378736E+01 -0.16119238367E+02  0.16586159003E+02  0.17770000000E+01 0. -1.
         15    1    1    2    0    0 -0.17028126087E+01 -0.97248323943E+00 -0.16318151584E+02  0.16531336745E+02  0.17770000000E+01 0.  1.
</event>
<event>
 6    1  0.1226227E-002  0.1834680E+03  0.7546771E-02  0.1067687E+00
        -11   -1    0    0    0    0  0.00000000000E+00  0.00000000000E+00  0.18250000000E+03  0.18250000000E+03  0.00000000000E+00 0. -1.
         11   -1    0    0    0    0 -0.00000000000E+00 -0.00000000000E+00 -0.18250000000E+03  0.18250000000E+03  0.00000000000E+00 0. -1.
        -11    1    1    2    0    0 -0.27766992322E+00 -0.56772623620E+01  0.18144295148E+03  0.18153196151E+03  0.00000000000E+00 0. -1.
         11    1    1    2    0    0 -0.31902592738E+01  0.13924074289E+01 -0.11758016012E+03  0.11763167348E+03  0.00000000000E+00 0. -1.
        -15    1    1    2    0    0  0.88656681453E+01  0.38191318851E+01 -0.47642683418E+02  0.48643281677E+02  0.17770000000E+01 0. -1.
         15    1    1    2    0    0 -0.53977389483E+01  0.46572304804E+00 -0.16220107945E+02  0.17193083332E+02  0.17770000000E+01 0.  1.
</event>
<event>
 6    1  0.1226227E-002  0.1860400E+03  0.7546771E-02  0.1065671E+00
        -11   -1    0    0    0    0  0.00000000000E+00  0.00000000000E+00  0.18250000000E+03  0.18250000000E+03  0.00000000000E+00 0.  1.
         11   -1    0    0    0    0 -0.00000000000E+00 -0.00000000000E+00 -0.18250000000E+03  0.18250000000E+03  0.00000000000E+00 0.  1.
        -11    1    1    2    0    0  0.11510489478E+01 -0.54660077655E+01  0.17887284444E+03  0.17896004200E+03  0.00000000000E+00 0.  1.
         11    1    1    2    0    0 -0.23657349354E+01  0.10764033932E+01 -0.15803120769E+03  0.15805257970E+03  0.00000000000E+00 0.  1.
        -15    1    1    2    0    0 -0.46768868987E+01  0.75294022753E+00  0.86612908845E+00  0.51330399032E+01  0.17770000000E+01 0. -1.
         15    1    1    2    0    0  0.58915728864E+01  0.36366641448E+01 -0.21707765831E+02  0.22854338397E+02  0.17770000000E+01 0.  1.
</event>
<event>
 6    1  0.1226227E-002  0.1892104E+03  0.7546771E-02  0.1063235E+00
        -11   -1    0    0    0    0  0.00000000000E+00  0.00000000000E+00  0.18250000000E+03  0.18250000000E+03  0.00000000000E+00 0. -1.
         11   -1    0    0    0    0 -0.00000000000E+00 -0.00000000000E+00 -0.18250000000E+03  0.18250000000E+03  0.00000000000E+00 0.  1.
        -11    1    1    2    0    0  0.62175271871E+01 -0.26144278640E+00  0.14331076825E+03  0.14344581657E+03  0.00000000000E+00 0. -1.
         11    1    1    2    0    0 -0.39605159133E+01  0.13639111033E+01 -0.17573967158E+03  0.17578958475E+03  0.00000000000E+00 0.  1.
        -15    1    1    2    0    0 -0.97741244607E+01  0.12765908709E+02  0.13571158267E+02  0.21114828909E+02  0.17770000000E+01 0.  1.
         15    1    1    2    0    0  0.75171131869E+01 -0.13868377026E+02  0.18857745062E+02  0.24649769772E+02  0.17770000000E+01 0. -1.
</event>
<event>
 6    1  0.1226227E-002  0.1837776E+03  0.7546771E-02  0.1067442E+00
        -11   -1    0    0    0    0  0.00000000000E+00  0.00000000000E+00  0.18250000000E+03  0.18250000000E+03  0.00000000000E+00 0.  1.
         11   -1    0    0    0    0 -0.00000000000E+00 -0.00000000000E+00 -0.18250000000E+03  0.18250000000E+03  0.00000000000E+00 0.  1.
        -11    1    1    2    0    0 -0.16527983295E+02 -0.98581804760E+00  0.18046440854E+03  0.18122237394E+03  0.00000000000E+00 0.  1.
         11    1    1    2    0    0 -0.17674060964E+01  0.90602876214E+00 -0.62562526799E+02  0.62594044221E+02  0.00000000000E+00 0.  1.
        -15    1    1    2    0    0  0.13096989444E+02 -0.50945097199E+01 -0.10694601127E+03  0.10787998989E+03  0.17770000000E+01 0.  1.
         15    1    1    2    0    0  0.51983999471E+01  0.51742990054E+01 -0.10955870464E+02  0.13303591953E+02  0.17770000000E+01 0. -1.
</event>
<event>
 6    1  0.1226227E-002  0.1894076E+03  0.7546771E-02  0.1063086E+00
        -11   -1    0    0    0    0  0.00000000000E+00  0.00000000000E+00  0.18250000000E+03  0.18250000000E+03  0.00000000000E+00 0. -1.
         11   -1    0    0    0    0 -0.00000000000E+00 -0.00000000000E+00 -0.18250000000E+03  0.18250000000E+03  0.00000000000E+00 0. -1.
        -11    1    1    2    0    0 -0.22473111465E+01 -0.54420501179E+00  0.83511922448E+02  0.83543927113E+02  0.00000000000E+00 0. -1.
         11    1    1    2    0    0  0.53933332150E+01  0.11719429186E+01 -0.17550561309E+03  0.17559237375E+03  0.00000000000E+00 0. -1.
        -15    1    1    2    0    0 -0.22227267541E+01  0.11569183191E+01  0.98644507541E+02  0.98692327824E+02  0.17770000000E+01 0. -1.
         15    1    1    2    0    0 -0.92329531437E+00 -0.17846562259E+01 -0.66508168983E+01  0.71713713122E+01  0.17770000000E+01 0.  1.
</event>
<event>
 6    1  0.1226227E-002  0.1870309E+03  0.7546771E-02  0.1064904E+00
        -11   -1    0    0    0    0  0.00000000000E+00  0.00000000000E+00  0.18250000000E+03  0.18250000000E+03  0.00000000000E+00 0.  1.
         11   -1    0    0    0    0 -0.00000000000E+00 -0.00000000000E+00 -0.18250000000E+03  0.18250000000E+03  0.00000000000E+00 0.  1.
        -11    1    1    2    0    0 -0.89444665512E+00  0.41398561239E+01  0.15489952638E+03  0.15495741904E+03  0.00000000000E+00 0.  1.
         11    1    1    2    0    0 -0.84733032047E+01 -0.23031160482E+01 -0.17775232121E+03  0.17796906728E+03  0.00000000000E+00 0.  1.
        -15    1    1    2    0    0  0.18829348076E+01  0.39263322604E+01 -0.22351432489E+01  0.52072183411E+01  0.17770000000E+01 0.  1.
         15    1    1    2    0    0  0.74848150522E+01 -0.57630723362E+01  0.25087938079E+02  0.26866295338E+02  0.17770000000E+01 0. -1.
</event>
<event>
 6    1  0.1226227E-002  0.1867786E+03  0.7546771E-02  0.1065099E+00
        -11   -1    0    0    0    0  0.00000000000E+00  0.00000000000E+00  0.18250000000E+03  0.18250000000E+03  0.00000000000E+00 0.  1.
         11   -1    0    0    0    0 -0.00000000000E+00 -0.00000000000E+00 -0.18250000000E+03  0.18250000000E+03  0.00000000000E+00 0.  1.
        -11    1    1    2    0    0  0.16593101318E+01 -0.39404541405E+01  0.16933084395E+03  0.16938481397E+03  0.00000000000E+00 0.  1.
         11    1    1    2    0    0  0.35511568402E+01 -0.26390766289E+01 -0.17816649813E+03  0.17822142547E+03  0.00000000000E+00 0.  1.
        -15    1    1    2    0    0  0.15349066659E+01  0.18993133582E+01 -0.20453559590E+01  0.36475388558E+01  0.17770000000E+01 0.  1.
         15    1    1    2    0    0 -0.67453736379E+01  0.46802174113E+01  0.10881010140E+02  0.13746221707E+02  0.17770000000E+01 0. -1.
</event>
<event>
 6    1  0.1226227E-002  0.1872334E+03  0.7546771E-02  0.1064748E+00
        -11   -1    0    0    0    0  0.00000000000E+00  0.00000000000E+00  0.18250000000E+03  0.18250000000E+03  0.00000000000E+00 0. -1.
         11   -1    0    0    0    0 -0.00000000000E+00 -0.00000000000E+00 -0.18250000000E+03  0.18250000000E+03  0.00000000000E+00 0.  1.
        -11    1    1    2    0    0 -0.12722898410E+01 -0.91860574104E+01  0.17752449782E+03  0.17776655956E+03  0.00000000000E+00 0. -1.
         11    1    1    2    0    0  0.10600323321E+01  0.24926109579E+01 -0.15051879218E+03  0.15054316184E+03  0.00000000000E+00 0.  1.
        -15    1    1    2    0    0  0.21804685695E+01  0.83349990699E+01  0.68596487128E+00  0.88235440433E+01  0.17770000000E+01 0. -1.
         15    1    1    2    0    0 -0.19682110607E+01 -0.16415526174E+01 -0.27691670515E+02  0.27866734554E+02  0.17770000000E+01 0. -1.
</event>
<event>
 6    1  0.1226227E-002  0.1772415E+03  0.7546771E-02  0.1072719E+00
        -11   -1    0    0    0    0  0.00000000000E+00  0.00000000000E+00  0.18250000000E+03  0.18250000000E+03  0.00000000000E+00 0.  1.
         11   -1    0    0    0    0 -0.00000000000E+00 -0.00000000000E+00 -0.18250000000E+03  0.18250000000E+03  0.00000000000E+00 0. -1.
        -11    1    1    2    0    0 -0.27420184304E+01 -0.32578098242E+00  0.17745275915E+03  0.17747424187E+03  0.00000000000E+00 0.  1.
         11    1    1    2    0    0 -0.44200192793E+01  0.21937297888E+01 -0.17701754912E+03  0.17708631149E+03  0.00000000000E+00 0. -1.
        -15    1    1    2    0    0  0.12068766349E+01  0.76483590321E+00  0.22239757521E+01  0.31851722586E+01  0.17770000000E+01 0. -1.
         15    1    1    2    0    0  0.59551610748E+01 -0.26327847096E+01 -0.26591857771E+01  0.72542743779E+01  0.17770000000E+01 0.  1.
</event>
<event>
 6    1  0.1226227E-002  0.1857958E+03  0.7546771E-02  0.1065861E+00
        -11   -1    0    0    0    0  0.00000000000E+00  0.00000000000E+00  0.18250000000E+03  0.18250000000E+03  0.00000000000E+00 0. -1.
         11   -1    0    0    0    0 -0.00000000000E+00 -0.00000000000E+00 -0.18250000000E+03  0.18250000000E+03  0.00000000000E+00 0. -1.
        -11    1    1    2    0    0 -0.16740020827E+01  0.14381807871E+01  0.28489817646E+02  0.28575170278E+02  0.00000000000E+00 0. -1.
         11    1    1    2    0    0 -0.22763956777E+01 -0.92197314300E+00 -0.17918741857E+03  0.17920424935E+03  0.00000000000E+00 0. -1.
        -15    1    1    2    0    0  0.15671317790E+02 -0.93957546149E+01  0.27064757949E+02  0.32703658173E+02  0.17770000000E+01 0.  1.
         15    1    1    2    0    0 -0.11720920030E+02  0.88795469708E+01  0.12363284298E+03  0.12451692219E+03  0.17770000000E+01 0. -1.
</event>
<event>
 6    1  0.1226227E-002  0.1840890E+03  0.7546771E-02  0.1067197E+00
        -11   -1    0    0    0    0  0.00000000000E+00  0.00000000000E+00  0.18250000000E+03  0.18250000000E+03  0.00000000000E+00 0.  1.
         11   -1    0    0    0    0 -0.00000000000E+00 -0.00000000000E+00 -0.18250000000E+03  0.18250000000E+03  0.00000000000E+00 0.  1.
        -11    1    1    2    0    0  0.80281493421E+00 -0.27700736939E+01  0.18088805407E+03  0.18091104423E+03  0.00000000000E+00 0.  1.
         11    1    1    2    0    0  0.20173014954E+01  0.29829009415E+01 -0.14878750879E+03  0.14883107866E+03  0.00000000000E+00 0.  1.
        -15    1    1    2    0    0 -0.23685891827E+01  0.17794533291E+01 -0.44086957783E+00  0.34826374850E+01  0.17770000000E+01 0. -1.
         15    1    1    2    0    0 -0.45152724694E+00 -0.19922805768E+01 -0.31659675705E+02  0.31775239629E+02  0.17770000000E+01 0.  1.
</event>
<event>
 6    1  0.1226227E-002  0.1848784E+03  0.7546771E-02  0.1066577E+00
        -11   -1    0    0    0    0  0.00000000000E+00  0.00000000000E+00  0.18250000000E+03  0.18250000000E+03  0.00000000000E+00 0. -1.
         11   -1    0    0    0    0 -0.00000000000E+00 -0.00000000000E+00 -0.18250000000E+03  0.18250000000E+03  0.00000000000E+00 0. -1.
        -11    1    1    2    0    0 -0.22424970699E+01 -0.39101938209E+01  0.18006516153E+03  0.18012157230E+03  0.00000000000E+00 0. -1.
         11    1    1    2    0    0 -0.12388811278E+01  0.29014571599E+01 -0.17322782604E+03  0.17325655253E+03  0.00000000000E+00 0. -1.
        -15    1    1    2    0    0 -0.17155531237E+01 -0.76968846330E-01  0.36657470386E+00  0.24982299208E+01  0.17770000000E+01 0. -1.
         15    1    1    2    0    0  0.51969313214E+01  0.10857055073E+01 -0.72039102005E+01  0.91236452575E+01  0.17770000000E+01 0.  1.
</event>
<event>
 6    1  0.1226227E-002  0.1827507E+03  0.7546771E-02  0.1068255E+00
        -11   -1    0    0    0    0  0.00000000000E+00  0.00000000000E+00  0.18250000000E+03  0.18250000000E+03  0.00000000000E+00 0.  1.
         11   -1    0    0    0    0 -0.00000000000E+00 -0.00000000000E+00 -0.18250000000E+03  0.18250000000E+03  0.00000000000E+00 0.  1.
        -11    1    1    2    0    0 -0.18088862339E+00  0.17896670150E+01  0.11983613373E+03  0.11984963319E+03  0.00000000000E+00 0.  1.
         11    1    1    2    0    0  0.31321148004E-01 -0.28100389140E+01 -0.18222764792E+03  0.18224931541E+03  0.00000000000E+00 0.  1.
        -15    1    1    2    0    0 -0.14107746242E+01  0.37142119338E+01  0.30570678584E+02  0.30878953567E+02  0.17770000000E+01 0.  1.
         15    1    1    2    0    0  0.15603420996E+01 -0.26938400348E+01  0.31820835609E+02  0.32022097830E+02  0.17770000000E+01 0.  1.
</event>
<event>
 6    1  0.1226227E-002  0.1911870E+03  0.7546771E-02  0.1061743E+00
        -11   -1    0    0    0    0  0.00000000000E+00  0.00000000000E+00  0.18250000000E+03  0.18250000000E+03  0.00000000000E+00 0.  1.
         11   -1    0    0    0    0 -0.00000000000E+00 -0.00000000000E+00 -0.18250000000E+03  0.18250000000E+03  0.00000000000E+00 0.  1.
        -11    1    1    2    0    0  0.77575952968E+00 -0.27868497970E+01  0.17378896307E+03  0.17381303754E+03  0.00000000000E+00 0.  1.
         11    1    1    2    0    0 -0.33638758600E+01 -0.15506255655E+01 -0.14767320147E+03  0.14771964843E+03  0.00000000000E+00 0.  1.
        -15    1    1    2    0    0 -0.20573638996E+01  0.20026806540E+01  0.81196773016E+01  0.87937685038E+01  0.17770000000E+01 0. -1.
         15    1    1    2    0    0  0.46454802299E+01  0.23347947085E+01 -0.34235438903E+02  0.34673545518E+02  0.17770000000E+01 0. -1.
</event>
<event>
 6    1  0.1226227E-002  0.2125801E+03  0.7546771E-02  0.1046751E+00
        -11   -1    0    0    0    0  0.00000000000E+00  0.00000000000E+00  0.18250000000E+03  0.18250000000E+03  0.00000000000E+00 0. -1.
         11   -1    0    0    0    0 -0.00000000000E+00 -0.00000000000E+00 -0.18250000000E+03  0.18250000000E+03  0.00000000000E+00 0.  1.
        -11    1    1    2    0    0  0.98724302023E+01  0.11178161268E+02  0.15168857407E+03  0.15241994512E+03  0.00000000000E+00 0. -1.
         11    1    1    2    0    0 -0.86163445379E+01 -0.14066345149E+02 -0.11605072794E+03  0.11721721253E+03  0.00000000000E+00 0.  1.
        -15    1    1    2    0    0  0.10902142244E+02  0.28726072365E+02 -0.53437852810E+02  0.61666893719E+02  0.17770000000E+01 0.  1.
         15    1    1    2    0    0 -0.12158227908E+02 -0.25837888485E+02  0.17800006678E+02  0.33695948628E+02  0.17770000000E+01 0. -1.
</event>
<event>
 6    1  0.1226227E-002  0.1852798E+03  0.7546771E-02  0.1066263E+00
        -11   -1    0    0    0    0  0.00000000000E+00  0.00000000000E+00  0.18250000000E+03  0.18250000000E+03  0.00000000000E+00 0.  1.
         11   -1    0    0    0    0 -0.00000000000E+00 -0.00000000000E+00 -0.18250000000E+03  0.18250000000E+03  0.00000000000E+00 0.  1.
        -11    1    1    2    0    0  0.41852697315E+01 -0.18497869668E+01  0.17966190207E+03  0.17972016373E+03  0.00000000000E+00 0.  1.
         11    1    1    2    0    0  0.30658995458E+01  0.47927201536E+01 -0.16874600461E+03  0.16884189048E+03  0.00000000000E+00 0.  1.
        -15    1    1    2    0    0 -0.69952273639E+01 -0.23232395075E+01 -0.12041807816E+02  0.14230021510E+02  0.17770000000E+01 0.  1.
         15    1    1    2    0    0 -0.25594191340E+00 -0.61969367933E+00  0.11259103621E+01  0.22079242883E+01  0.17770000000E+01 0. -1.
</event>
<event>
 6    1  0.1226227E-002  0.1841746E+03  0.7546771E-02  0.1067130E+00
        -11   -1    0    0    0    0  0.00000000000E+00  0.00000000000E+00  0.18250000000E+03  0.18250000000E+03  0.00000000000E+00 0.  1.
         11   -1    0    0    0    0 -0.00000000000E+00 -0.00000000000E+00 -0.18250000000E+03  0.18250000000E+03  0.00000000000E+00 0. -1.
        -11    1    1    2    0    0 -0.77689043650E+01  0.12797764152E+01  0.18065392123E+03  0.18082542122E+03  0.00000000000E+00 0.  1.
         11    1    1    2    0    0  0.11335979951E+01  0.26116655533E+01 -0.13027387829E+03  0.13030498534E+03  0.00000000000E+00 0. -1.
        -15    1    1    2    0    0  0.35735086070E+01  0.55498392071E+01 -0.33638719292E+02  0.34326255892E+02  0.17770000000E+01 0. -1.
         15    1    1    2    0    0  0.30617977629E+01 -0.94412811756E+01 -0.16741323652E+02  0.19543337545E+02  0.17770000000E+01 0.  1.
</event>
<event>
 6    1  0.1226227E-002  0.1898550E+03  0.7546771E-02  0.1062746E+00
        -11   -1    0    0    0    0  0.00000000000E+00  0.00000000000E+00  0.18250000000E+03  0.18250000000E+03  0.00000000000E+00 0. -1.
         11   -1    0    0    0    0 -0.00000000000E+00 -0.00000000000E+00 -0.18250000000E+03  0.18250000000E+03  0.00000000000E+00 0.  1.
        -11    1    1    2    0    0 -0.36784043850E+01 -0.44469231878E+01  0.16547601887E+03  0.16557662457E+03  0.00000000000E+00 0. -1.
         11    1    1    2    0    0  0.28835258427E+01 -0.54471116052E+01 -0.17503655450E+03  0.17514502892E+03  0.00000000000E+00 0.  1.
        -15    1    1    2    0    0  0.29085800979E+01  0.10666351140E+02  0.14648397755E+02  0.18438117328E+02  0.17770000000E+01 0. -1.
         15    1    1    2    0    0 -0.21137015555E+01 -0.77231634692E+00 -0.50878621256E+01  0.58402291748E+01  0.17770000000E+01 0.  1.
</event>
<event>
 6    1  0.1226227E-002  0.1781546E+03  0.7546771E-02  0.1071967E+00
        -11   -1    0    0    0    0  0.00000000000E+00  0.00000000000E+00  0.18250000000E+03  0.18250000000E+03  0.00000000000E+00 0. -1.
         11   -1    0    0    0    0 -0.00000000000E+00 -0.00000000000E+00 -0.18250000000E+03  0.18250000000E+03  0.00000000000E+00 0. -1.
        -11    1    1    2    0    0  0.64122768989E+01  0.54197484680E+00  0.17812466566E+03  0.17824086946E+03  0.00000000000E+00 0. -1.
         11    1    1    2    0    0 -0.14361017620E+01 -0.30345060587E+01 -0.17808012308E+03  0.17811176505E+03  0.00000000000E+00 0. -1.
        -15    1    1    2    0    0  0.32265012904E+00  0.71306506048E+00 -0.16698955293E+01  0.25610242024E+01  0.17770000000E+01 0. -1.
         15    1    1    2    0    0 -0.52988252659E+01  0.17794661514E+01  0.16253529514E+01  0.60863412818E+01  0.17770000000E+01 0.  1.
</event>
<event>
 6    1  0.1226227E-002  0.1833927E+03  0.7546771E-02  0.1067746E+00
        -11   -1    0    0    0    0  0.00000000000E+00  0.00000000000E+00  0.18250000000E+03  0.18250000000E+03  0.00000000000E+00 0.  1.
         11   -1    0    0    0    0 -0.00000000000E+00 -0.00000000000E+00 -0.18250000000E+03  0.18250000000E+03  0.00000000000E+00 0.  1.
        -11    1    1    2    0    0  0.10642102806E+01 -0.20396837365E+01  0.13065035338E+03  0.13067060761E+03  0.00000000000E+00 0.  1.
         11    1    1    2    0    0  0.30019572920E+01  0.54454978310E+01 -0.18150079587E+03  0.18160727985E+03  0.00000000000E+00 0.  1.
        -15    1    1    2    0    0 -0.38524743862E+00  0.16097852510E+01  0.40109384616E+02  0.40182835732E+02  0.17770000000E+01 0. -1.
         15    1    1    2    0    0 -0.36809201340E+01 -0.50155993454E+01  0.10741057868E+02  0.12539276811E+02  0.17770000000E+01 0. -1.
</event>
<event>
 6    1  0.1226227E-002  0.1827557E+03  0.7546771E-02  0.1068251E+00
        -11   -1    0    0    0    0  0.00000000000E+00  0.00000000000E+00  0.18250000000E+03  0.18250000000E+03  0.00000000000E+00 0. -1.
         11   -1    0    0    0    0 -0.00000000000E+00 -0.00000000000E+00 -0.18250000000E+03  0.18250000000E+03  0.00000000000E+00 0. -1.
        -11    1    1    2    0    0  0.20116067449E+01  0.24945983199E+01  0.18221614594E+03  0.18224432344E+03  0.00000000000E+00 0. -1.
         11    1    1    2    0    0  0.13669290244E+01 -0.27470441699E+01 -0.92386527328E+02  0.92437466313E+02  0.00000000000E+00 0. -1.
        -15    1    1    2    0    0 -0.15125893036E+01  0.11258429892E+01 -0.73425439751E+01  0.77862783063E+01  0.17770000000E+01 0. -1.
         15    1    1    2    0    0 -0.18659464658E+01 -0.87339713922E+00 -0.82487074640E+02  0.82531931944E+02  0.17770000000E+01 0.  1.
</event>
<event>
 6    1  0.1226227E-002  0.1868520E+03  0.7546771E-02  0.1065042E+00
        -11   -1    0    0    0    0  0.00000000000E+00  0.00000000000E+00  0.18250000000E+03  0.18250000000E+03  0.00000000000E+00 0.  1.
         11   -1    0    0    0    0 -0.00000000000E+00 -0.00000000000E+00 -0.18250000000E+03  0.18250000000E+03  0.00000000000E+00 0. -1.
        -11    1    1    2    0    0  0.12293660794E+01 -0.82129855740E+01  0.15594910316E+03  0.15617005875E+03  0.00000000000E+00 0.  1.
         11    1    1    2    0    0 -0.20379885630E+01  0.17214091912E+01 -0.17812800951E+03  0.17814798461E+03  0.00000000000E+00 0. -1.
        -15    1    1    2    0    0  0.63312605635E+01  0.50660817313E+01  0.63525495999E+00  0.83253421729E+01  0.17770000000E+01 0. -1.
         15    1    1    2    0    0 -0.55226380799E+01  0.14254946514E+01  0.21543651395E+02  0.22356614475E+02  0.17770000000E+01 0.  1.
</event>
<event>
 6    1  0.1226227E-002  0.1827848E+03  0.7546771E-02  0.1068228E+00
        -11   -1    0    0    0    0  0.00000000000E+00  0.00000000000E+00  0.18250000000E+03  0.18250000000E+03  0.00000000000E+00 0. -1.
         11   -1    0    0    0    0 -0.00000000000E+00 -0.00000000000E+00 -0.18250000000E+03  0.18250000000E+03  0.00000000000E+00 0.  1.
        -11    1    1    2    0    0  0.18765586044E+01 -0.43745295481E+01  0.18215304735E+03  0.18221523163E+03  0.00000000000E+00 0. -1.
         11    1    1    2    0    0  0.18880360179E+01 -0.10814747463E+01 -0.10705425405E+03  0.10707636331E+03  0.00000000000E+00 0.  1.
        -15    1    1    2    0    0 -0.13680290885E+01  0.58151871580E+01 -0.40176971002E+02  0.40657528616E+02  0.17770000000E+01 0.  1.
         15    1    1    2    0    0 -0.23965655338E+01 -0.35918286360E+00 -0.34921822290E+02  0.35050876447E+02  0.17770000000E+01 0.  1.
</event>
<event>
 6    1  0.1226227E-002  0.1830261E+03  0.7546771E-02  0.1068037E+00
        -11   -1    0    0    0    0  0.00000000000E+00  0.00000000000E+00  0.18250000000E+03  0.18250000000E+03  0.00000000000E+00 0. -1.
         11   -1    0    0    0    0 -0.00000000000E+00 -0.00000000000E+00 -0.18250000000E+03  0.18250000000E+03  0.00000000000E+00 0. -1.
        -11    1    1    2    0    0  0.24238589304E+01  0.77226155102E+00  0.18195607217E+03  0.18197385439E+03  0.00000000000E+00 0. -1.
         11    1    1    2    0    0  0.54642086860E-02  0.26825220433E+01 -0.15041553095E+03  0.15043944930E+03  0.00000000000E+00 0. -1.
        -15    1    1    2    0    0 -0.20185247350E+01 -0.48966921837E+01 -0.25704477091E+02  0.26304560592E+02  0.17770000000E+01 0.  1.
         15    1    1    2    0    0 -0.41079840407E+00  0.14419085894E+01 -0.58360641326E+01  0.62821357251E+01  0.17770000000E+01 0. -1.
</event>
<event>
 6    1  0.1226227E-002  0.1827046E+03  0.7546771E-02  0.1068292E+00
        -11   -1    0    0    0    0  0.00000000000E+00  0.00000000000E+00  0.18250000000E+03  0.18250000000E+03  0.00000000000E+00 0. -1.
         11   -1    0    0    0    0 -0.00000000000E+00 -0.00000000000E+00 -0.18250000000E+03  0.18250000000E+03  0.00000000000E+00 0.  1.
        -11    1    1    2    0    0 -0.72496786552E+00  0.38606625768E+01  0.18225303689E+03  0.18229536404E+03  0.00000000000E+00 0. -1.
         11    1    1    2    0    0 -0.20350686472E+01  0.77487158971E+00 -0.90399261707E+02  0.90425485609E+02  0.00000000000E+00 0.  1.
        -15    1    1    2    0    0  0.45144513511E+01 -0.39483080158E+01 -0.63520702938E+02  0.63827947155E+02  0.17770000000E+01 0. -1.
         15    1    1    2    0    0 -0.17544148383E+01 -0.68722615080E+00 -0.28333072248E+02  0.28451203195E+02  0.17770000000E+01 0.  1.
</event>
<event>
 6    1  0.1226227E-002  0.1941190E+03  0.7546771E-02  0.1059565E+00
        -11   -1    0    0    0    0  0.00000000000E+00  0.00000000000E+00  0.18250000000E+03  0.18250000000E+03  0.00000000000E+00 0.  1.
         11   -1    0    0    0    0 -0.00000000000E+00 -0.00000000000E+00 -0.18250000000E+03  0.18250000000E+03  0.00000000000E+00 0.  1.
        -11    1    1    2    0    0 -0.34301936859E+01 -0.20033603911E+01  0.17083484618E+03  0.17088102397E+03  0.00000000000E+00 0.  1.
         11    1    1    2    0    0 -0.87351911274E+01  0.24884509584E+01 -0.15557180624E+03  0.15583671855E+03  0.00000000000E+00 0.  1.
        -15    1    1    2    0    0  0.45185663215E+01  0.32525534542E+01  0.99902132551E+01  0.11574050089E+02  0.17770000000E+01 0.  1.
         15    1    1    2    0    0  0.76468184918E+01 -0.37376440215E+01 -0.25253253202E+02  0.26708207393E+02  0.17770000000E+01 0.  1.
</event>
<event>
 6    1  0.1226227E-002  0.1854738E+03  0.7546771E-02  0.1066112E+00
        -11   -1    0    0    0    0  0.00000000000E+00  0.00000000000E+00  0.18250000000E+03  0.18250000000E+03  0.00000000000E+00 0. -1.
         11   -1    0    0    0    0 -0.00000000000E+00 -0.00000000000E+00 -0.18250000000E+03  0.18250000000E+03  0.00000000000E+00 0.  1.
        -11    1    1    2    0    0 -0.49174966183E+01 -0.72518862375E+01  0.17931221916E+03  0.17952616402E+03  0.00000000000E+00 0. -1.
         11    1    1    2    0    0 -0.26409825011E+01 -0.19437900495E+01 -0.12988381092E+03  0.12992519943E+03  0.00000000000E+00 0.  1.
        -15    1    1    2    0    0  0.13433273897E+01  0.12335721469E+01  0.19180757796E+01  0.31879417206E+01  0.17770000000E+01 0. -1.
         15    1    1    2    0    0  0.62151517297E+01  0.79621041401E+01 -0.51346484018E+02  0.52360694833E+02  0.17770000000E+01 0.  1.
</event>
<event>
 6    1  0.1226227E-002  0.2035762E+03  0.7546771E-02  0.1052815E+00
        -11   -1    0    0    0    0  0.00000000000E+00  0.00000000000E+00  0.18250000000E+03  0.18250000000E+03  0.00000000000E+00 0. -1.
         11   -1    0    0    0    0 -0.00000000000E+00 -0.00000000000E+00 -0.18250000000E+03  0.18250000000E+03  0.00000000000E+00 0.  1.
        -11    1    1    2    0    0 -0.22065902031E+01  0.70703142859E+01  0.15417018716E+03  0.15434799964E+03  0.00000000000E+00 0. -1.
         11    1    1    2    0    0  0.89939246541E+00 -0.43533266098E+01 -0.16136255663E+03  0.16142377471E+03  0.00000000000E+00 0.  1.
        -15    1    1    2    0    0  0.37225672540E+01 -0.10294356941E+02  0.26252649298E+02  0.28498958155E+02  0.17770000000E+01 0. -1.
         15    1    1    2    0    0 -0.24153695162E+01  0.75773692646E+01 -0.19060279829E+02  0.20729267499E+02  0.17770000000E+01 0. -1.
</event>
<event>
 6    1  0.1226227E-002  0.1886152E+03  0.7546771E-02  0.1063689E+00
        -11   -1    0    0    0    0  0.00000000000E+00  0.00000000000E+00  0.18250000000E+03  0.18250000000E+03  0.00000000000E+00 0.  1.
         11   -1    0    0    0    0 -0.00000000000E+00 -0.00000000000E+00 -0.18250000000E+03  0.18250000000E+03  0.00000000000E+00 0.  1.
        -11    1    1    2    0    0 -0.39440465829E+01 -0.28003939389E+01  0.16739696507E+03  0.16746683739E+03  0.00000000000E+00 0.  1.
         11    1    1    2    0    0  0.17738721608E+01  0.20674990271E+01 -0.17636376913E+03  0.17638480727E+03  0.00000000000E+00 0.  1.
        -15    1    1    2    0    0  0.33751373723E+01 -0.16477942934E+01 -0.51813155200E+01  0.66415764569E+01  0.17770000000E+01 0. -1.
         15    1    1    2    0    0 -0.12049629502E+01  0.23806892052E+01  0.14148119584E+02  0.14506778883E+02  0.17770000000E+01 0.  1.
</event>
<event>
 6    1  0.1226227E-002  0.1840417E+03  0.7546771E-02  0.1067234E+00
        -11   -1    0    0    0    0  0.00000000000E+00  0.00000000000E+00  0.18250000000E+03  0.18250000000E+03  0.00000000000E+00 0.  1.
         11   -1    0    0    0    0 -0.00000000000E+00 -0.00000000000E+00 -0.18250000000E+03  0.18250000000E+03  0.00000000000E+00 0. -1.
        -11    1    1    2    0    0  0.55303474875E+00  0.53916615874E+00  0.46025227343E+02  0.46031707546E+02  0.00000000000E+00 0.  1.
         11    1    1    2    0    0  0.34353734886E+01  0.14743849127E+02 -0.18032391592E+03  0.18095827566E+03  0.00000000000E+00 0. -1.
        -15    1    1    2    0    0 -0.56921935398E+01 -0.15607879834E+02  0.36090636825E+02  0.39770576757E+02  0.17770000000E+01 0.  1.
         15    1    1    2    0    0  0.17037853025E+01  0.32486454766E+00  0.98208051749E+02  0.98239440037E+02  0.17770000000E+01 0.  1.
</event>
<event>
 6    1  0.1226227E-002  0.1863698E+03  0.7546771E-02  0.1065416E+00
        -11   -1    0    0    0    0  0.00000000000E+00  0.00000000000E+00  0.18250000000E+03  0.18250000000E+03  0.00000000000E+00 0. -1.
         11   -1    0    0    0    0 -0.00000000000E+00 -0.00000000000E+00 -0.18250000000E+03  0.18250000000E+03  0.00000000000E+00 0. -1.
        -11    1    1    2    0    0 -0.57124484786E+01  0.36010377616E+01  0.16785708447E+03  0.16799285803E+03  0.00000000000E+00 0. -1.
         11    1    1    2    0    0 -0.36734424159E+01 -0.94659904951E+00 -0.17858992372E+03  0.17863020765E+03  0.00000000000E+00 0. -1.
        -15    1    1    2    0    0  0.17393052315E+01 -0.18810982205E+01 -0.17761951072E+01  0.35883577389E+01  0.17770000000E+01 0.  1.
         15    1    1    2    0    0  0.76465856631E+01 -0.77334049161E+00  0.12509034361E+02  0.14788576586E+02  0.17770000000E+01 0. -1.
</event>
<event>
 6    1  0.1226227E-002  0.1832672E+03  0.7546771E-02  0.1067846E+00
        -11   -1    0    0    0    0  0.00000000000E+00  0.00000000000E+00  0.18250000000E+03  0.18250000000E+03  0.00000000000E+00 0.  1.
         11   -1    0    0    0    0 -0.00000000000E+00 -0.00000000000E+00 -0.18250000000E+03  0.18250000000E+03  0.00000000000E+00 0. -1.
        -11    1    1    2    0    0 -0.25073097009E+01  0.71884436561E+00  0.13879808355E+03  0.13882258943E+03  0.00000000000E+00 0.  1.
         11    1    1    2    0    0 -0.62057055372E+01 -0.11251814735E+01 -0.18162334777E+03  0.18173281836E+03  0.00000000000E+00 0. -1.
        -15    1    1    2    0    0  0.83179458695E+01  0.24031130331E+01  0.27577581693E+02  0.28959349384E+02  0.17770000000E+01 0.  1.
         15    1    1    2    0    0  0.39506936862E+00 -0.19967759252E+01  0.15247682524E+02  0.15485242822E+02  0.17770000000E+01 0.  1.
</event>
<event>
 6    1  0.1226227E-002  0.1844198E+03  0.7546771E-02  0.1066937E+00
        -11   -1    0    0    0    0  0.00000000000E+00  0.00000000000E+00  0.18250000000E+03  0.18250000000E+03  0.00000000000E+00 0. -1.
         11   -1    0    0    0    0 -0.00000000000E+00 -0.00000000000E+00 -0.18250000000E+03  0.18250000000E+03  0.00000000000E+00 0.  1.
        -11    1    1    2    0    0 -0.13538676336E+01  0.14560349532E+01  0.76916661336E+02  0.76942353658E+02  0.00000000000E+00 0. -1.
         11    1    1    2    0    0  0.11380339647E+02 -0.15351313842E+02 -0.17956619746E+03  0.18058016014E+03  0.00000000000E+00 0.  1.
        -15    1    1    2    0    0 -0.19578080453E+00  0.80742709773E+00  0.76829352420E+02  0.76854390837E+02  0.17770000000E+01 0. -1.
         15    1    1    2    0    0 -0.98306912088E+01  0.13087851791E+02  0.25820183703E+02  0.30623095363E+02  0.17770000000E+01 0.  1.
</event>
<event>
 6    1  0.1226227E-002  0.1864312E+03  0.7546771E-02  0.1065368E+00
        -11   -1    0    0    0    0  0.00000000000E+00  0.00000000000E+00  0.18250000000E+03  0.18250000000E+03  0.00000000000E+00 0. -1.
         11   -1    0    0    0    0 -0.00000000000E+00 -0.00000000000E+00 -0.18250000000E+03  0.18250000000E+03  0.00000000000E+00 0.  1.
        -11    1    1    2    0    0  0.62360186893E+00  0.28932260502E+01  0.17854430317E+03  0.17856883219E+03  0.00000000000E+00 0. -1.
         11    1    1    2    0    0 -0.11372619634E+01  0.52516412039E+01 -0.16575071906E+03  0.16583779415E+03  0.00000000000E+00 0.  1.
        -15    1    1    2    0    0  0.29894397284E+01  0.10164298389E+01  0.99802022222E+00  0.37581448709E+01  0.17770000000E+01 0. -1.
         15    1    1    2    0    0 -0.24757796339E+01 -0.91612970929E+01 -0.13791604330E+02  0.16835228784E+02  0.17770000000E+01 0.  1.
</event>
<event>
 6    1  0.1226227E-002  0.1758305E+03  0.7546771E-02  0.1073891E+00
        -11   -1    0    0    0    0  0.00000000000E+00  0.00000000000E+00  0.18250000000E+03  0.18250000000E+03  0.00000000000E+00 0.  1.
         11   -1    0    0    0    0 -0.00000000000E+00 -0.00000000000E+00 -0.18250000000E+03  0.18250000000E+03  0.00000000000E+00 0. -1.
        -11    1    1    2    0    0 -0.70677022522E+01  0.48955295816E+01  0.17698866945E+03  0.17719736945E+03  0.00000000000E+00 0.  1.
         11    1    1    2    0    0  0.79373611206E-02  0.39676534073E+01 -0.17460909857E+03  0.17465417155E+03  0.00000000000E+00 0. -1.
        -15    1    1    2    0    0  0.45041050568E+01 -0.32738924806E+01 -0.32567544962E+01  0.66910024052E+01  0.17770000000E+01 0. -1.
         15    1    1    2    0    0  0.25556598342E+01 -0.55892905083E+01  0.87718362110E+00  0.64574565953E+01  0.17770000000E+01 0.  1.
</event>
<event>
 6    1  0.1226227E-002  0.1868039E+03  0.7546771E-02  0.1065080E+00
        -11   -1    0    0    0    0  0.00000000000E+00  0.00000000000E+00  0.18250000000E+03  0.18250000000E+03  0.00000000000E+00 0.  1.
         11   -1    0    0    0    0 -0.00000000000E+00 -0.00000000000E+00 -0.18250000000E+03  0.18250000000E+03  0.00000000000E+00 0. -1.
        -11    1    1    2    0    0  0.11193292789E+00 -0.25148395248E+01  0.14531590082E+03  0.14533770322E+03  0.00000000000E+00 0.  1.
         11    1    1    2    0    0  0.23914222408E+01 -0.23462929502E+01 -0.17816456995E+03  0.17819606611E+03  0.00000000000E+00 0. -1.
        -15    1    1    2    0    0 -0.22763076535E+01  0.95789275762E+00  0.36006944487E+02  0.36135258618E+02  0.17770000000E+01 0. -1.
         15    1    1    2    0    0 -0.22704751523E+00  0.39032397174E+01 -0.31582753549E+01  0.53309720579E+01  0.17770000000E+01 0.  1.
</event>
<event>
 6    1  0.1226227E-002  0.2102302E+03  0.7546771E-02  0.1048302E+00
        -11   -1    0    0    0    0  0.00000000000E+00  0.00000000000E+00  0.18250000000E+03  0.18250000000E+03  0.00000000000E+00 0. -1.
         11   -1    0    0    0    0 -0.00000000000E+00 -0.00000000000E+00 -0.18250000000E+03  0.18250000000E+03  0.00000000000E+00 0.  1.
        -11    1    1    2    0    0  0.28569250225E+01 -0.67558406011E+00  0.98590070051E+02  0.98633768797E+02  0.00000000000E+00 0. -1.
         11    1    1    2    0    0 -0.13586462636E+02  0.16323861152E+02 -0.15330570933E+03  0.15476983208E+03  0.00000000000E+00 0.  1.
        -15    1    1    2    0    0 -0.30982050543E+01  0.28706230185E+01  0.78354780267E+02  0.78488653134E+02  0.17770000000E+01 0.  1.
         15    1    1    2    0    0  0.13827742667E+02 -0.18518900111E+02 -0.23639140990E+02  0.33107745987E+02  0.17770000000E+01 0.  1.
</event>
<event>
 6    1  0.1226227E-002  0.1849525E+03  0.7546771E-02  0.1066519E+00
        -11   -1    0    0    0    0  0.00000000000E+00  0.00000000000E+00  0.18250000000E+03  0.18250000000E+03  0.00000000000E+00 0.  1.
         11   -1    0    0    0    0 -0.00000000000E+00 -0.00000000000E+00 -0.18250000000E+03  0.18250000000E+03  0.00000000000E+00 0. -1.
        -11    1    1    2    0    0  0.56878628217E+01  0.57875672517E+01  0.17986450517E+03  0.18004746024E+03  0.00000000000E+00 0.  1.
         11    1    1    2    0    0  0.14025986810E+01  0.24619832156E+01 -0.15458148045E+03  0.15460744724E+03  0.00000000000E+00 0. -1.
        -15    1    1    2    0    0 -0.10316281392E+01 -0.70133111181E+00 -0.17928947763E+02  0.18059928539E+02  0.17770000000E+01 0.  1.
         15    1    1    2    0    0 -0.60588333635E+01 -0.75482193555E+01 -0.73540769632E+01  0.12285163985E+02  0.17770000000E+01 0. -1.
</event>
<event>
 6    1  0.1226227E-002  0.1832269E+03  0.7546771E-02  0.1067878E+00
        -11   -1    0    0    0    0  0.00000000000E+00  0.00000000000E+00  0.18250000000E+03  0.18250000000E+03  0.00000000000E+00 0. -1.
         11   -1    0    0    0    0 -0.00000000000E+00 -0.00000000000E+00 -0.18250000000E+03  0.18250000000E+03  0.00000000000E+00 0. -1.
        -11    1    1    2    0    0 -0.27355640674E+01 -0.24147538837E+01  0.18173643551E+03  0.18177306275E+03  0.00000000000E+00 0. -1.
         11    1    1    2    0    0  0.14532538144E+01 -0.11482448805E+01 -0.52700172570E+02  0.52732709032E+02  0.00000000000E+00 0. -1.
        -15    1    1    2    0    0 -0.34511300512E+00  0.43269604019E+00 -0.12435502001E+03  0.12436894733E+03  0.17770000000E+01 0. -1.
         15    1    1    2    0    0  0.16274232581E+01  0.31303027240E+01 -0.46812429378E+01  0.61252808954E+01  0.17770000000E+01 0.  1.
</event>
<event>
 6    1  0.1226227E-002  0.1857895E+03  0.7546771E-02  0.1065866E+00
        -11   -1    0    0    0    0  0.00000000000E+00  0.00000000000E+00  0.18250000000E+03  0.18250000000E+03  0.00000000000E+00 0. -1.
         11   -1    0    0    0    0 -0.00000000000E+00 -0.00000000000E+00 -0.18250000000E+03  0.18250000000E+03  0.00000000000E+00 0.  1.
        -11    1    1    2    0    0  0.37267913343E+00  0.37969199900E+01  0.17916989830E+03  0.17921051294E+03  0.00000000000E+00 0. -1.
         11    1    1    2    0    0 -0.52992445803E+01  0.18581688210E+01 -0.14508201954E+03  0.14519065802E+03  0.00000000000E+00 0.  1.
        -15    1    1    2    0    0  0.20876814723E+01  0.14477138829E+01  0.19848376693E+01  0.36812496506E+01  0.17770000000E+01 0.  1.
         15    1    1    2    0    0  0.28388839746E+01 -0.71028026939E+01 -0.36072716431E+02  0.36917579390E+02  0.17770000000E+01 0. -1.
</event>
<event>
 6    1  0.1226227E-002  0.1865676E+03  0.7546771E-02  0.1065262E+00
        -11   -1    0    0    0    0  0.00000000000E+00  0.00000000000E+00  0.18250000000E+03  0.18250000000E+03  0.00000000000E+00 0. -1.
         11   -1    0    0    0    0 -0.00000000000E+00 -0.00000000000E+00 -0.18250000000E+03  0.18250000000E+03  0.00000000000E+00 0.  1.
        -11    1    1    2    0    0  0.27651672329E+01  0.30691512661E+01  0.17838460367E+03  0.17843243165E+03  0.00000000000E+00 0. -1.
         11    1    1    2    0    0  0.45124643650E+01  0.35728124707E+00 -0.17132817346E+03  0.17138796051E+03  0.00000000000E+00 0.  1.
        -15    1    1    2    0    0 -0.31589917280E+01 -0.23126211031E+01  0.22028396918E+01  0.48309084872E+01  0.17770000000E+01 0.  1.
         15    1    1    2    0    0 -0.41186398699E+01 -0.11138114101E+01 -0.92592698965E+01  0.10348699351E+02  0.17770000000E+01 0.  1.
</event>
<event>
 6    1  0.1226227E-002  0.1935069E+03  0.7546771E-02  0.1060016E+00
        -11   -1    0    0    0    0  0.00000000000E+00  0.00000000000E+00  0.18250000000E+03  0.18250000000E+03  0.00000000000E+00 0. -1.
         11   -1    0    0    0    0 -0.00000000000E+00 -0.00000000000E+00 -0.18250000000E+03  0.18250000000E+03  0.00000000000E+00 0.  1.
        -11    1    1    2    0    0 -0.13680532475E-01 -0.10376054107E+02  0.17117889509E+03  0.17149308094E+03  0.00000000000E+00 0. -1.
         11    1    1    2    0    0  0.57103613573E+00 -0.33700518607E+01 -0.15848546506E+03  0.15852232009E+03  0.00000000000E+00 0.  1.
        -15    1    1    2    0    0 -0.65166384319E+01  0.13637078426E+02 -0.20165052114E+02  0.25263086514E+02  0.17770000000E+01 0.  1.
         15    1    1    2    0    0  0.59592828286E+01  0.10902754179E+00  0.74716220816E+01  0.97215124526E+01  0.17770000000E+01 0. -1.
</event>
<event>
 6    1  0.1226227E-002  0.1856109E+03  0.7546771E-02  0.1066005E+00
        -11   -1    0    0    0    0  0.00000000000E+00  0.00000000000E+00  0.18250000000E+03  0.18250000000E+03  0.00000000000E+00 0. -1.
         11   -1    0    0    0    0 -0.00000000000E+00 -0.00000000000E+00 -0.18250000000E+03  0.18250000000E+03  0.00000000000E+00 0.  1.
        -11    1    1    2    0    0 -0.35114837729E+01  0.56725092496E+00  0.11479575525E+03  0.11485084987E+03  0.00000000000E+00 0. -1.
         11    1    1    2    0    0 -0.87116148251E+00  0.35292623384E+01 -0.17935226414E+03  0.17938910020E+03  0.00000000000E+00 0.  1.
        -15    1    1    2    0    0 -0.12402799674E+00  0.54615497986E+01  0.44798285470E+00  0.57621460225E+01  0.17770000000E+01 0.  1.
         15    1    1    2    0    0  0.45066732521E+01 -0.95580630620E+01  0.64108526038E+02  0.64997903913E+02  0.17770000000E+01 0. -1.
</event>
<event>
 6    1  0.1226227E-002  0.1834715E+03  0.7546771E-02  0.1067684E+00
        -11   -1    0    0    0    0  0.00000000000E+00  0.00000000000E+00  0.18250000000E+03  0.18250000000E+03  0.00000000000E+00 0.  1.
         11   -1    0    0    0    0 -0.00000000000E+00 -0.00000000000E+00 -0.18250000000E+03  0.18250000000E+03  0.00000000000E+00 0.  1.
        -11    1    1    2    0    0  0.77196422764E+00  0.28527279457E+01  0.18150440955E+03  0.18152846794E+03  0.00000000000E+00 0.  1.
         11    1    1    2    0    0  0.18279569869E+00  0.14813118838E+01 -0.38988041186E+02  0.39016599733E+02  0.00000000000E+00 0.  1.
        -15    1    1    2    0    0  0.68650976048E+00  0.65983218628E+01 -0.15590460707E+02  0.17036118722E+02  0.17770000000E+01 0. -1.
         15    1    1    2    0    0 -0.16412696868E+01 -0.10932361692E+02 -0.12692590766E+03  0.12741881361E+03  0.17770000000E+01 0.  1.
</event>
<event>
 6    1  0.1226227E-002  0.1847656E+03  0.7546771E-02  0.1066666E+00
        -11   -1    0    0    0    0  0.00000000000E+00  0.00000000000E+00  0.18250000000E+03  0.18250000000E+03  0.00000000000E+00 0.  1.
         11   -1    0    0    0    0 -0.00000000000E+00 -0.00000000000E+00 -0.18250000000E+03  0.18250000000E+03  0.00000000000E+00 0. -1.
        -11    1    1    2    0    0 -0.65950282254E+01  0.49915542011E+01  0.18004447439E+03  0.18023435513E+03  0.00000000000E+00 0.  1.
         11    1    1    2    0    0 -0.68151629822E+00 -0.46610525817E+01 -0.10470759962E+03  0.10481350721E+03  0.00000000000E+00 0. -1.
        -15    1    1    2    0    0  0.10699375147E+02  0.14527082103E+01 -0.11142489303E+02  0.15617291268E+02  0.17770000000E+01 0.  1.
         15    1    1    2    0    0 -0.34228306236E+01 -0.17832098297E+01 -0.64194385464E+02  0.64334846396E+02  0.17770000000E+01 0. -1.
</event>
<event>
 6    1  0.1226227E-002  0.1902999E+03  0.7546771E-02  0.1062410E+00
        -11   -1    0    0    0    0  0.00000000000E+00  0.00000000000E+00  0.18250000000E+03  0.18250000000E+03  0.00000000000E+00 0. -1.
         11   -1    0    0    0    0 -0.00000000000E+00 -0.00000000000E+00 -0.18250000000E+03  0.18250000000E+03  0.00000000000E+00 0.  1.
        -11    1    1    2    0    0  0.30939830481E+01 -0.21499085852E+01  0.17465942603E+03  0.17470005707E+03  0.00000000000E+00 0. -1.
         11    1    1    2    0    0  0.16904135196E+00 -0.88743791771E+00 -0.52161602419E+02  0.52169424838E+02  0.00000000000E+00 0.  1.
        -15    1    1    2    0    0  0.25047709232E+01  0.53807247159E+00 -0.12892720678E+03  0.12896490134E+03  0.17770000000E+01 0.  1.
         15    1    1    2    0    0 -0.57677953232E+01  0.24992740313E+01  0.64293831668E+01  0.91656167539E+01  0.17770000000E+01 0.  1.
</event>
<event>
 6    1  0.1226227E-002  0.1588506E+03  0.7546771E-02  0.1089012E+00
        -11   -1    0    0    0    0  0.00000000000E+00  0.00000000000E+00  0.18250000000E+03  0.18250000000E+03  0.00000000000E+00 0. -1.
         11   -1    0    0    0    0 -0.00000000000E+00 -0.00000000000E+00 -0.18250000000E+03  0.18250000000E+03  0.00000000000E+00 0.  1.
        -11    1    1    2    0    0  0.19599949592E+01  0.32264178957E+01  0.15930700850E+03  0.15935173143E+03  0.00000000000E+00 0. -1.
         11    1    1    2    0    0 -0.16359716830E+01  0.11128448194E+02 -0.15827620539E+03  0.15867537917E+03  0.00000000000E+00 0.  1.
        -15    1    1    2    0    0 -0.28443062757E+01 -0.54889347632E+01  0.21565509463E+02  0.22504386470E+02  0.17770000000E+01 0.  1.
         15    1    1    2    0    0  0.25202829994E+01 -0.88659313266E+01 -0.22596312570E+02  0.24468502926E+02  0.17770000000E+01 0.  1.
</event>
<event>
 6    1  0.1226227E-002  0.1831881E+03  0.7546771E-02  0.1067908E+00
        -11   -1    0    0    0    0  0.00000000000E+00  0.00000000000E+00  0.18250000000E+03  0.18250000000E+03  0.00000000000E+00 0. -1.
         11   -1    0    0    0    0 -0.00000000000E+00 -0.00000000000E+00 -0.18250000000E+03  0.18250000000E+03  0.00000000000E+00 0. -1.
        -11    1    1    2    0    0  0.23537192658E+01  0.25054708733E+01  0.18177936685E+03  0.18181186868E+03  0.00000000000E+00 0. -1.
         11    1    1    2    0    0  0.24670239644E+01 -0.68207147061E+00 -0.15300067475E+03  0.15302208305E+03  0.00000000000E+00 0. -1.
        -15    1    1    2    0    0 -0.22995357466E+01 -0.29429286603E+00 -0.24503558359E+02  0.24677045492E+02  0.17770000000E+01 0.  1.
         15    1    1    2    0    0 -0.25212074836E+01 -0.15291065367E+01 -0.42751337445E+01  0.54890027791E+01  0.17770000000E+01 0. -1.
</event>
<event>
 6    1  0.1226227E-002  0.1879752E+03  0.7546771E-02  0.1064178E+00
        -11   -1    0    0    0    0  0.00000000000E+00  0.00000000000E+00  0.18250000000E+03  0.18250000000E+03  0.00000000000E+00 0.  1.
         11   -1    0    0    0    0 -0.00000000000E+00 -0.00000000000E+00 -0.18250000000E+03  0.18250000000E+03  0.00000000000E+00 0. -1.
        -11    1    1    2    0    0  0.36366214175E+01 -0.27645318756E+01  0.81152166482E+02  0.81280635926E+02  0.00000000000E+00 0.  1.
         11    1    1    2    0    0 -0.94117986707E+00  0.24344377501E+01 -0.17700555387E+03  0.17702479602E+03  0.00000000000E+00 0. -1.
        -15    1    1    2    0    0  0.24245038723E+01  0.25876727485E+00 -0.49222193359E+01  0.57733137556E+01  0.17770000000E+01 0. -1.
         15    1    1    2    0    0 -0.51199454228E+01  0.71326850622E-01  0.10077560672E+03  0.10092125429E+03  0.17770000000E+01 0.  1.
</event>
<event>
 6    1  0.1226227E-002  0.1842421E+03  0.7546771E-02  0.1067077E+00
        -11   -1    0    0    0    0  0.00000000000E+00  0.00000000000E+00  0.18250000000E+03  0.18250000000E+03  0.00000000000E+00 0.  1.
         11   -1    0    0    0    0 -0.00000000000E+00 -0.00000000000E+00 -0.18250000000E+03  0.18250000000E+03  0.00000000000E+00 0. -1.
        -11    1    1    2    0    0 -0.56826969155E+01 -0.17960522984E+01  0.18065966105E+03  0.18075793752E+03  0.00000000000E+00 0.  1.
         11    1    1    2    0    0  0.21334313471E+01 -0.18851259285E+01 -0.15178681716E+03  0.15181351419E+03  0.00000000000E+00 0. -1.
        -15    1    1    2    0    0 -0.17399615833E+01  0.28367259812E+01 -0.25657841530E+02  0.25933704741E+02  0.17770000000E+01 0. -1.
         15    1    1    2    0    0  0.52892271517E+01  0.84445224559E+00 -0.32150023605E+01  0.64948435420E+01  0.17770000000E+01 0.  1.
</event>
<event>
 6    1  0.1226227E-002  0.1836610E+03  0.7546771E-02  0.1067534E+00
        -11   -1    0    0    0    0  0.00000000000E+00  0.00000000000E+00  0.18250000000E+03  0.18250000000E+03  0.00000000000E+00 0. -1.
         11   -1    0    0    0    0 -0.00000000000E+00 -0.00000000000E+00 -0.18250000000E+03  0.18250000000E+03  0.00000000000E+00 0.  1.
        -11    1    1    2    0    0  0.22466043766E+01 -0.23560082026E+01  0.15705431481E+03  0.15708805113E+03  0.00000000000E+00 0. -1.
         11    1    1    2    0    0 -0.94612182024E+00  0.59512036502E+01 -0.18123885122E+03  0.18133900067E+03  0.00000000000E+00 0.  1.
        -15    1    1    2    0    0  0.17691428853E+01 -0.39892875331E+01  0.43269201643E+01  0.63972063183E+01  0.17770000000E+01 0.  1.
         15    1    1    2    0    0 -0.30696254416E+01  0.39409208551E+00  0.19857616242E+02  0.20175741888E+02  0.17770000000E+01 0. -1.
</event>
<event>
 6    1  0.1226227E-002  0.1840098E+03  0.7546771E-02  0.1067259E+00
        -11   -1    0    0    0    0  0.00000000000E+00  0.00000000000E+00  0.18250000000E+03  0.18250000000E+03  0.00000000000E+00 0. -1.
         11   -1    0    0    0    0 -0.00000000000E+00 -0.00000000000E+00 -0.18250000000E+03  0.18250000000E+03  0.00000000000E+00 0. -1.
        -11    1    1    2    0    0 -0.66140730434E+00  0.69394829504E+01  0.18085593515E+03  0.18099022947E+03  0.00000000000E+00 0. -1.
         11    1    1    2    0    0  0.27289831292E+01 -0.98589487150E+00 -0.11873562501E+03  0.11877107386E+03  0.00000000000E+00 0. -1.
        -15    1    1    2    0    0  0.16950632170E+01  0.64197854806E+01 -0.21126855491E+02  0.22216854792E+02  0.17770000000E+01 0. -1.
         15    1    1    2    0    0 -0.37626390419E+01 -0.12373373559E+02 -0.40993454650E+02  0.43021841882E+02  0.17770000000E+01 0.  1.
</event>
<event>
 6    1  0.1226227E-002  0.1908165E+03  0.7546771E-02  0.1062021E+00
        -11   -1    0    0    0    0  0.00000000000E+00  0.00000000000E+00  0.18250000000E+03  0.18250000000E+03  0.00000000000E+00 0. -1.
         11   -1    0    0    0    0 -0.00000000000E+00 -0.00000000000E+00 -0.18250000000E+03  0.18250000000E+03  0.00000000000E+00 0.  1.
        -11    1    1    2    0    0 -0.72620706684E+01 -0.38750632834E+01  0.14922645336E+03  0.14945329761E+03  0.00000000000E+00 0. -1.
         11    1    1    2    0    0 -0.22044536561E+02 -0.93297333015E+00 -0.17278036984E+03  0.17418349013E+03  0.00000000000E+00 0.  1.
        -15    1    1    2    0    0  0.30988520545E+02  0.39208832282E+01  0.20773338949E+02  0.37554641137E+02  0.17770000000E+01 0. -1.
         15    1    1    2    0    0 -0.16819133148E+01  0.88715338540E+00  0.27805775370E+01  0.38085711188E+01  0.17770000000E+01 0.  1.
</event>
<event>
 6    1  0.1226227E-002  0.1831805E+03  0.7546771E-02  0.1067914E+00
        -11   -1    0    0    0    0  0.00000000000E+00  0.00000000000E+00  0.18250000000E+03  0.18250000000E+03  0.00000000000E+00 0. -1.
         11   -1    0    0    0    0 -0.00000000000E+00 -0.00000000000E+00 -0.18250000000E+03  0.18250000000E+03  0.00000000000E+00 0. -1.
        -11    1    1    2    0    0 -0.67715820905E+00 -0.12106429971E+01  0.99380068042E+02  0.99389748584E+02  0.00000000000E+00 0. -1.
         11    1    1    2    0    0  0.67914702734E+01  0.75357445237E+00 -0.18169105311E+03  0.18181950039E+03  0.00000000000E+00 0. -1.
        -15    1    1    2    0    0  0.45032204243E+01  0.56377038169E+00  0.28432977145E+02  0.28847681875E+02  0.17770000000E+01 0.  1.
         15    1    1    2    0    0 -0.10617532489E+02 -0.10670183700E+00  0.53878007919E+02  0.54943069151E+02  0.17770000000E+01 0. -1.
</event>
<event>
 6    1  0.1226227E-002  0.1827283E+03  0.7546771E-02  0.1068273E+00
        -11   -1    0    0    0    0  0.00000000000E+00  0.00000000000E+00  0.18250000000E+03  0.18250000000E+03  0.00000000000E+00 0. -1.
         11   -1    0    0    0    0 -0.00000000000E+00 -0.00000000000E+00 -0.18250000000E+03  0.18250000000E+03  0.00000000000E+00 0. -1.
        -11    1    1    2    0    0 -0.30454526680E+00 -0.13527492214E+01  0.58989517212E+02  0.59005811740E+02  0.00000000000E+00 0. -1.
         11    1    1    2    0    0 -0.72670490642E+00  0.29193767038E+01 -0.18224683753E+03  0.18227166717E+03  0.00000000000E+00 0. -1.
        -15    1    1    2    0    0  0.21767951848E+01 -0.29504937923E+01  0.18881730913E+02  0.19316349090E+02  0.17770000000E+01 0.  1.
         15    1    1    2    0    0 -0.11455450115E+01  0.13838663100E+01  0.10437558941E+03  0.10440617200E+03  0.17770000000E+01 0.  1.
</event>
<event>
 6    1  0.1226227E-002  0.1868973E+03  0.7546771E-02  0.1065007E+00
        -11   -1    0    0    0    0  0.00000000000E+00  0.00000000000E+00  0.18250000000E+03  0.18250000000E+03  0.00000000000E+00 0. -1.
         11   -1    0    0    0    0 -0.00000000000E+00 -0.00000000000E+00 -0.18250000000E+03  0.18250000000E+03  0.00000000000E+00 0. -1.
        -11    1    1    2    0    0  0.20105450680E+01 -0.20817508977E+01  0.17807920794E+03  0.17810272395E+03  0.00000000000E+00 0. -1.
         11    1    1    2    0    0 -0.13036796486E+02  0.47867992330E+01 -0.14684280012E+03  0.14749806594E+03  0.00000000000E+00 0. -1.
        -15    1    1    2    0    0  0.81775229887E+01  0.76210758859E+01 -0.23446910403E+02  0.26035898608E+02  0.17770000000E+01 0.  1.
         15    1    1    2    0    0  0.28487284289E+01 -0.10326124221E+02 -0.77894974184E+01  0.13363311495E+02  0.17770000000E+01 0. -1.
</event>
<event>
 6    1  0.1226227E-002  0.1882223E+03  0.7546771E-02  0.1063989E+00
        -11   -1    0    0    0    0  0.00000000000E+00  0.00000000000E+00  0.18250000000E+03  0.18250000000E+03  0.00000000000E+00 0. -1.
         11   -1    0    0    0    0 -0.00000000000E+00 -0.00000000000E+00 -0.18250000000E+03  0.18250000000E+03  0.00000000000E+00 0. -1.
        -11    1    1    2    0    0  0.24368490861E+01  0.12570981740E+01  0.17675643118E+03  0.17677769795E+03  0.00000000000E+00 0. -1.
         11    1    1    2    0    0  0.72635532137E+01  0.25584883941E+01 -0.16284877005E+03  0.16303075469E+03  0.00000000000E+00 0. -1.
        -15    1    1    2    0    0  0.69142110629E-02 -0.60790008245E+01  0.17271489247E+01  0.65646836359E+01  0.17770000000E+01 0.  1.
         15    1    1    2    0    0 -0.97073165108E+01  0.22634142565E+01 -0.15634810053E+02  0.18626863728E+02  0.17770000000E+01 0. -1.
</event>
<event>
 6    1  0.1226227E-002  0.1897013E+03  0.7546771E-02  0.1062863E+00
        -11   -1    0    0    0    0  0.00000000000E+00  0.00000000000E+00  0.18250000000E+03  0.18250000000E+03  0.00000000000E+00 0.  1.
         11   -1    0    0    0    0 -0.00000000000E+00 -0.00000000000E+00 -0.18250000000E+03  0.18250000000E+03  0.00000000000E+00 0.  1.
        -11    1    1    2    0    0 -0.23335415037E+01 -0.27407644747E+01  0.16462395803E+03  0.16466330728E+03  0.00000000000E+00 0.  1.
         11    1    1    2    0    0 -0.16655371281E+01  0.17832661646E+01 -0.17528169851E+03  0.17529868193E+03  0.00000000000E+00 0.  1.
        -15    1    1    2    0    0  0.39776935066E+01 -0.20441552577E+01 -0.61856890637E+01  0.78371611278E+01  0.17770000000E+01 0.  1.
         15    1    1    2    0    0  0.21385125132E-01  0.30016535678E+01  0.16843429544E+02  0.17200849667E+02  0.17770000000E+01 0.  1.
</event>
<event>
 6    1  0.1226227E-002  0.1858805E+03  0.7546771E-02  0.1065795E+00
        -11   -1    0    0    0    0  0.00000000000E+00  0.00000000000E+00  0.18250000000E+03  0.18250000000E+03  0.00000000000E+00 0.  1.
         11   -1    0    0    0    0 -0.00000000000E+00 -0.00000000000E+00 -0.18250000000E+03  0.18250000000E+03  0.00000000000E+00 0. -1.
        -11    1    1    2    0    0  0.63381941356E+01  0.46019060854E+01  0.17894821224E+03  0.17911954921E+03  0.00000000000E+00 0.  1.
         11    1    1    2    0    0 -0.12587140191E+01  0.56539833719E+00 -0.82161034793E+02  0.82172621197E+02  0.00000000000E+00 0. -1.
        -15    1    1    2    0    0 -0.64012512023E+01 -0.56985043830E+01 -0.21100037272E+01  0.90032668453E+01  0.17770000000E+01 0.  1.
         15    1    1    2    0    0  0.13217710858E+01  0.53119996038E+00 -0.94677173722E+02  0.94704562748E+02  0.17770000000E+01 0. -1.
</event>
<event>
 6    1  0.1226227E-002  0.1847007E+03  0.7546771E-02  0.1066716E+00
        -11   -1    0    0    0    0  0.00000000000E+00  0.00000000000E+00  0.18250000000E+03  0.18250000000E+03  0.00000000000E+00 0. -1.
         11   -1    0    0    0    0 -0.00000000000E+00 -0.00000000000E+00 -0.18250000000E+03  0.18250000000E+03  0.00000000000E+00 0.  1.
        -11    1    1    2    0    0 -0.74082732943E+00 -0.15914748722E+01  0.57693191382E+02  0.57719892145E+02  0.00000000000E+00 0. -1.
         11    1    1    2    0    0 -0.13656256771E+01  0.33560860932E+01 -0.18026292203E+03  0.18029933251E+03  0.00000000000E+00 0.  1.
        -15    1    1    2    0    0  0.12757318289E+02 -0.79318697671E+01  0.30188393263E+02  0.33766263411E+02  0.17770000000E+01 0.  1.
         15    1    1    2    0    0 -0.10650865283E+02  0.61672585462E+01  0.92381337381E+02  0.93214511931E+02  0.17770000000E+01 0. -1.
</event>
<event>
 6    1  0.1226227E-002  0.1849772E+03  0.7546771E-02  0.1066500E+00
        -11   -1    0    0    0    0  0.00000000000E+00  0.00000000000E+00  0.18250000000E+03  0.18250000000E+03  0.00000000000E+00 0. -1.
         11   -1    0    0    0    0 -0.00000000000E+00 -0.00000000000E+00 -0.18250000000E+03  0.18250000000E+03  0.00000000000E+00 0.  1.
        -11    1    1    2    0    0  0.23242454078E+01  0.32809327241E+00  0.16693587526E+03  0.16695237708E+03  0.00000000000E+00 0. -1.
         11    1    1    2    0    0  0.20439457798E+01  0.43405930222E+01 -0.17995886661E+03  0.18002281003E+03  0.00000000000E+00 0.  1.
        -15    1    1    2    0    0 -0.36629429626E+01 -0.62016615138E+01  0.35207033966E+01  0.82116282238E+01  0.17770000000E+01 0. -1.
         15    1    1    2    0    0 -0.70524822491E+00  0.15329752192E+01  0.95022879470E+01  0.98131846671E+01  0.17770000000E+01 0. -1.
</event>
<event>
 6    1  0.1226227E-002  0.1878855E+03  0.7546771E-02  0.1064247E+00
        -11   -1    0    0    0    0  0.00000000000E+00  0.00000000000E+00  0.18250000000E+03  0.18250000000E+03  0.00000000000E+00 0.  1.
         11   -1    0    0    0    0 -0.00000000000E+00 -0.00000000000E+00 -0.18250000000E+03  0.18250000000E+03  0.00000000000E+00 0. -1.
        -11    1    1    2    0    0 -0.56172040106E+01 -0.54452747797E+00  0.15506253437E+03  0.15516519925E+03  0.00000000000E+00 0.  1.
         11    1    1    2    0    0  0.80887203974E+01  0.69862626868E+01 -0.17679173224E+03  0.17711451621E+03  0.00000000000E+00 0. -1.
        -15    1    1    2    0    0 -0.55990900015E+01 -0.10816754247E+02  0.23511674704E+01  0.12531468340E+02  0.17770000000E+01 0. -1.
         15    1    1    2    0    0  0.31275736147E+01  0.43750190384E+01  0.19378030399E+02  0.20188816197E+02  0.17770000000E+01 0.  1.
</event>
<event>
 6    1  0.1226227E-002  0.1865693E+03  0.7546771E-02  0.1065261E+00
        -11   -1    0    0    0    0  0.00000000000E+00  0.00000000000E+00  0.18250000000E+03  0.18250000000E+03  0.00000000000E+00 0.  1.
         11   -1    0    0    0    0 -0.00000000000E+00 -0.00000000000E+00 -0.18250000000E+03  0.18250000000E+03  0.00000000000E+00 0.  1.
        -11    1    1    2    0    0  0.40348585222E+01  0.49815758087E+01  0.10897939527E+03  0.10916778268E+03  0.00000000000E+00 0.  1.
         11    1    1    2    0    0  0.21721607435E+01 -0.67250728736E+01 -0.17829072032E+03  0.17843073121E+03  0.00000000000E+00 0.  1.
        -15    1    1    2    0    0 -0.12490204439E+01  0.34076957826E+01 -0.29033357031E+01  0.49758948764E+01  0.17770000000E+01 0. -1.
         15    1    1    2    0    0 -0.49579988218E+01 -0.16641987177E+01  0.72214660751E+02  0.72425591237E+02  0.17770000000E+01 0.  1.
</event>
<event>
 6    1  0.1226227E-002  0.2114397E+03  0.7546771E-02  0.1047500E+00
        -11   -1    0    0    0    0  0.00000000000E+00  0.00000000000E+00  0.18250000000E+03  0.18250000000E+03  0.00000000000E+00 0.  1.
         11   -1    0    0    0    0 -0.00000000000E+00 -0.00000000000E+00 -0.18250000000E+03  0.18250000000E+03  0.00000000000E+00 0. -1.
        -11    1    1    2    0    0  0.33280249926E+01  0.61211623355E-02  0.15352423296E+03  0.15356030051E+03  0.00000000000E+00 0.  1.
         11    1    1    2    0    0 -0.40472228441E+01  0.26725970089E+01 -0.82120827562E+02  0.82263923484E+02  0.00000000000E+00 0. -1.
        -15    1    1    2    0    0 -0.15358314230E+02  0.46226909709E+01 -0.96831557554E+02  0.98166976908E+02  0.17770000000E+01 0. -1.
         15    1    1    2    0    0  0.16077512082E+02 -0.73014091421E+01  0.25428152161E+02  0.31008799098E+02  0.17770000000E+01 0.  1.
</event>
<event>
 6    1  0.1226227E-002  0.1847961E+03  0.7546771E-02  0.1066642E+00
        -11   -1    0    0    0    0  0.00000000000E+00  0.00000000000E+00  0.18250000000E+03  0.18250000000E+03  0.00000000000E+00 0. -1.
         11   -1    0    0    0    0 -0.00000000000E+00 -0.00000000000E+00 -0.18250000000E+03  0.18250000000E+03  0.00000000000E+00 0.  1.
        -11    1    1    2    0    0  0.22795969889E+01 -0.17051108338E+01  0.18018142099E+03  0.18020390793E+03  0.00000000000E+00 0. -1.
         11    1    1    2    0    0  0.31706011647E+00 -0.24087451224E+01 -0.16809267241E+03  0.16811022901E+03  0.00000000000E+00 0.  1.
        -15    1    1    2    0    0 -0.37078673239E+01 -0.22730232308E+01 -0.40141182157E+01  0.61794650860E+01  0.17770000000E+01 0. -1.
         15    1    1    2    0    0  0.11112102185E+01  0.63868791870E+01 -0.80746303620E+01  0.10506397974E+02  0.17770000000E+01 0.  1.
</event>
<event>
 6    1  0.1226227E-002  0.1842300E+03  0.7546771E-02  0.1067086E+00
        -11   -1    0    0    0    0  0.00000000000E+00  0.00000000000E+00  0.18250000000E+03  0.18250000000E+03  0.00000000000E+00 0.  1.
         11   -1    0    0    0    0 -0.00000000000E+00 -0.00000000000E+00 -0.18250000000E+03  0.18250000000E+03  0.00000000000E+00 0.  1.
        -11    1    1    2    0    0  0.19007991259E+01  0.22657294645E+01  0.18074577211E+03  0.18076996627E+03  0.00000000000E+00 0.  1.
         11    1    1    2    0    0 -0.14661807224E+01 -0.33227241523E+01 -0.17535223971E+03  0.17538984620E+03  0.00000000000E+00 0.  1.
        -15    1    1    2    0    0 -0.17535329241E+01 -0.12803380384E+01 -0.48107066818E+01  0.55690906786E+01  0.17770000000E+01 0.  1.
         15    1    1    2    0    0  0.13189145206E+01  0.23373327261E+01 -0.58282572584E+00  0.32710968515E+01  0.17770000000E+01 0. -1.
</event>
<event>
 6    1  0.1226227E-002  0.1833869E+03  0.7546771E-02  0.1067751E+00
        -11   -1    0    0    0    0  0.00000000000E+00  0.00000000000E+00  0.18250000000E+03  0.18250000000E+03  0.00000000000E+00 0. -1.
         11   -1    0    0    0    0 -0.00000000000E+00 -0.00000000000E+00 -0.18250000000E+03  0.18250000000E+03  0.00000000000E+00 0. -1.
        -11    1    1    2    0    0  0.36648896300E+01 -0.25566878402E+01  0.14601854094E+03  0.14608690006E+03  0.00000000000E+00 0. -1.
         11    1    1    2    0    0 -0.19688921166E+01 -0.23576589129E+01 -0.18158712180E+03  0.18161309946E+03  0.00000000000E+00 0. -1.
        -15    1    1    2    0    0  0.50297518767E+00 -0.78176772157E+00  0.24125146137E+02  0.24208357027E+02  0.17770000000E+01 0.  1.
         15    1    1    2    0    0 -0.21989727011E+01  0.56961144747E+01  0.11443434724E+02  0.13091643454E+02  0.17770000000E+01 0. -1.
</event>
<event>
 6    1  0.1226227E-002  0.1848914E+03  0.7546771E-02  0.1066567E+00
        -11   -1    0    0    0    0  0.00000000000E+00  0.00000000000E+00  0.18250000000E+03  0.18250000000E+03  0.00000000000E+00 0. -1.
         11   -1    0    0    0    0 -0.00000000000E+00 -0.00000000000E+00 -0.18250000000E+03  0.18250000000E+03  0.00000000000E+00 0.  1.
        -11    1    1    2    0    0 -0.44669799326E+01  0.32250757187E+01  0.18002431660E+03  0.18010860499E+03  0.00000000000E+00 0. -1.
         11    1    1    2    0    0  0.43426340745E+01 -0.43359505198E+01 -0.14841023097E+03  0.14853705125E+03  0.00000000000E+00 0.  1.
        -15    1    1    2    0    0  0.13359208681E+01  0.69419487998E+01 -0.45656563485E+01  0.86010629924E+01  0.17770000000E+01 0. -1.
         15    1    1    2    0    0 -0.12115750101E+01 -0.58310739988E+01 -0.27048429285E+02  0.27753280774E+02  0.17770000000E+01 0.  1.
</event>
<event>
 6    1  0.1226227E-002  0.1901049E+03  0.7546771E-02  0.1062557E+00
        -11   -1    0    0    0    0  0.00000000000E+00  0.00000000000E+00  0.18250000000E+03  0.18250000000E+03  0.00000000000E+00 0.  1.
         11   -1    0    0    0    0 -0.00000000000E+00 -0.00000000000E+00 -0.18250000000E+03  0.18250000000E+03  0.00000000000E+00 0.  1.
        -11    1    1    2    0    0 -0.92120459441E+01 -0.54928994517E+01  0.16514288952E+03  0.16549080849E+03  0.00000000000E+00 0.  1.
         11    1    1    2    0    0  0.28491959933E+01 -0.54374577039E+01 -0.17478733158E+03  0.17489509755E+03  0.00000000000E+00 0.  1.
        -15    1    1    2    0    0  0.95400124723E+01  0.14358308686E+02  0.56937321352E+01  0.18241413896E+02  0.17770000000E+01 0.  1.
         15    1    1    2    0    0 -0.31771625215E+01 -0.34279515299E+01  0.39507099289E+01  0.63726800737E+01  0.17770000000E+01 0. -1.
</event>
<event>
 6    1  0.1226227E-002  0.1832536E+03  0.7546771E-02  0.1067857E+00
        -11   -1    0    0    0    0  0.00000000000E+00  0.00000000000E+00  0.18250000000E+03  0.18250000000E+03  0.00000000000E+00 0.  1.
         11   -1    0    0    0    0 -0.00000000000E+00 -0.00000000000E+00 -0.18250000000E+03  0.18250000000E+03  0.00000000000E+00 0. -1.
        -11    1    1    2    0    0 -0.32010703868E+01  0.12050601296E+01  0.14879791332E+03  0.14883721991E+03  0.00000000000E+00 0.  1.
         11    1    1    2    0    0  0.23313614763E+01  0.93875799241E+00 -0.18172902686E+03  0.18174640497E+03  0.00000000000E+00 0. -1.
        -15    1    1    2    0    0  0.19862346308E+01 -0.94153110732E+00  0.31457370489E+02  0.31584101949E+02  0.17770000000E+01 0. -1.
         15    1    1    2    0    0 -0.11165257203E+01 -0.12022870147E+01  0.14737430505E+01  0.28322731734E+01  0.17770000000E+01 0.  1.
</event>
<event>
 6    1  0.1226227E-002  0.1829774E+03  0.7546771E-02  0.1068075E+00
        -11   -1    0    0    0    0  0.00000000000E+00  0.00000000000E+00  0.18250000000E+03  0.18250000000E+03  0.00000000000E+00 0. -1.
         11   -1    0    0    0    0 -0.00000000000E+00 -0.00000000000E+00 -0.18250000000E+03  0.18250000000E+03  0.00000000000E+00 0. -1.
        -11    1    1    2    0    0 -0.24630576595E+00  0.17930368294E+01  0.11636424251E+03  0.11637831664E+03  0.00000000000E+00 0. -1.
         11    1    1    2    0    0 -0.26291777326E+01 -0.88071392329E+00 -0.18200145875E+03  0.18202257887E+03  0.00000000000E+00 0. -1.
        -15    1    1    2    0    0  0.57267489472E+01  0.22968364258E+01  0.31554173222E+02  0.32200849178E+02  0.17770000000E+01 0. -1.
         15    1    1    2    0    0 -0.28512654486E+01 -0.32091593319E+01  0.34083043014E+02  0.34398255310E+02  0.17770000000E+01 0.  1.
</event>
<event>
 6    1  0.1226227E-002  0.1736735E+03  0.7546771E-02  0.1075706E+00
        -11   -1    0    0    0    0  0.00000000000E+00  0.00000000000E+00  0.18250000000E+03  0.18250000000E+03  0.00000000000E+00 0. -1.
         11   -1    0    0    0    0 -0.00000000000E+00 -0.00000000000E+00 -0.18250000000E+03  0.18250000000E+03  0.00000000000E+00 0. -1.
        -11    1    1    2    0    0 -0.72375868192E+01 -0.24446385861E+01  0.17532532224E+03  0.17549167371E+03  0.00000000000E+00 0. -1.
         11    1    1    2    0    0 -0.32930146418E+01 -0.48222651294E+00 -0.17201089077E+03  0.17204308481E+03  0.00000000000E+00 0. -1.
        -15    1    1    2    0    0  0.54207376679E+01  0.97143417339E-01 -0.79599145776E+01  0.97934571419E+01  0.17770000000E+01 0.  1.
         15    1    1    2    0    0  0.51098637931E+01  0.28297216817E+01  0.46454830992E+01  0.76717843429E+01  0.17770000000E+01 0.  1.
</event>
<event>
 6    1  0.1226227E-002  0.1840158E+03  0.7546771E-02  0.1067255E+00
        -11   -1    0    0    0    0  0.00000000000E+00  0.00000000000E+00  0.18250000000E+03  0.18250000000E+03  0.00000000000E+00 0.  1.
         11   -1    0    0    0    0 -0.00000000000E+00 -0.00000000000E+00 -0.18250000000E+03  0.18250000000E+03  0.00000000000E+00 0. -1.
        -11    1    1    2    0    0 -0.28432751317E+01  0.72962567175E+00  0.18096044067E+03  0.18098424698E+03  0.00000000000E+00 0.  1.
         11    1    1    2    0    0 -0.37191226199E+00 -0.24171328230E+01 -0.17166732888E+03  0.17168474788E+03  0.00000000000E+00 0. -1.
        -15    1    1    2    0    0  0.50683692750E-01 -0.12034060419E+01 -0.24258711129E+00  0.21604009917E+01  0.17770000000E+01 0.  1.
         15    1    1    2    0    0  0.31645037010E+01  0.28909131932E+01 -0.90505246788E+01  0.10170604148E+02  0.17770000000E+01 0. -1.
</event>
<event>
 6    1  0.1226227E-002  0.1864308E+03  0.7546771E-02  0.1065368E+00
        -11   -1    0    0    0    0  0.00000000000E+00  0.00000000000E+00  0.18250000000E+03  0.18250000000E+03  0.00000000000E+00 0.  1.
         11   -1    0    0    0    0 -0.00000000000E+00 -0.00000000000E+00 -0.18250000000E+03  0.18250000000E+03  0.00000000000E+00 0. -1.
        -11    1    1    2    0    0  0.80634122305E+00  0.22927912822E+01  0.17855269974E+03  0.17856924053E+03  0.00000000000E+00 0.  1.
         11    1    1    2    0    0  0.89535903569E+01  0.50941035637E+01 -0.10603061151E+03  0.10652984206E+03  0.00000000000E+00 0. -1.
        -15    1    1    2    0    0 -0.39474662226E+00 -0.50076703746E+01  0.12537510624E+01  0.54737745846E+01  0.17770000000E+01 0. -1.
         15    1    1    2    0    0 -0.93651849576E+01 -0.23792244714E+01 -0.73775839292E+02  0.74427142835E+02  0.17770000000E+01 0.  1.
</event>
<event>
 6    1  0.1226227E-002  0.1826381E+03  0.7546771E-02  0.1068345E+00
        -11   -1    0    0    0    0  0.00000000000E+00  0.00000000000E+00  0.18250000000E+03  0.18250000000E+03  0.00000000000E+00 0.  1.
         11   -1    0    0    0    0 -0.00000000000E+00 -0.00000000000E+00 -0.18250000000E+03  0.18250000000E+03  0.00000000000E+00 0.  1.
        -11    1    1    2    0    0  0.31860838182E+01 -0.10377817863E+01  0.18233111252E+03  0.18236190039E+03  0.00000000000E+00 0.  1.
         11    1    1    2    0    0  0.20701065688E+01  0.93947807316E+00 -0.98288297192E+02  0.98314583482E+02  0.00000000000E+00 0.  1.
        -15    1    1    2    0    0 -0.78907820593E+00  0.31673032856E+00 -0.31143145493E+02  0.31205387399E+02  0.17770000000E+01 0. -1.
         15    1    1    2    0    0 -0.44671121811E+01 -0.21842661540E+00 -0.52899669838E+02  0.53118128726E+02  0.17770000000E+01 0.  1.
</event>
<event>
 6    1  0.1226227E-002  0.1872199E+03  0.7546771E-02  0.1064759E+00
        -11   -1    0    0    0    0  0.00000000000E+00  0.00000000000E+00  0.18250000000E+03  0.18250000000E+03  0.00000000000E+00 0. -1.
         11   -1    0    0    0    0 -0.00000000000E+00 -0.00000000000E+00 -0.18250000000E+03  0.18250000000E+03  0.00000000000E+00 0. -1.
        -11    1    1    2    0    0  0.14768589416E+01  0.39806259589E+01  0.12571653442E+03  0.12578820899E+03  0.00000000000E+00 0. -1.
         11    1    1    2    0    0  0.34782932695E+00 -0.63107154341E+01 -0.17766767265E+03  0.17778005518E+03  0.00000000000E+00 0. -1.
        -15    1    1    2    0    0 -0.34122652313E+00  0.11459863162E+01  0.56312997313E+02  0.56353714301E+02  0.17770000000E+01 0. -1.
         15    1    1    2    0    0 -0.14834617454E+01  0.11841031590E+01 -0.43618590807E+01  0.50780215322E+01  0.17770000000E+01 0.  1.
</event>
<event>
 6    1  0.1226227E-002  0.1881042E+03  0.7546771E-02  0.1064079E+00
        -11   -1    0    0    0    0  0.00000000000E+00  0.00000000000E+00  0.18250000000E+03  0.18250000000E+03  0.00000000000E+00 0. -1.
         11   -1    0    0    0    0 -0.00000000000E+00 -0.00000000000E+00 -0.18250000000E+03  0.18250000000E+03  0.00000000000E+00 0.  1.
        -11    1    1    2    0    0 -0.19661385060E+02 -0.10596562718E+01  0.17579656954E+03  0.17689580774E+03  0.00000000000E+00 0. -1.
         11    1    1    2    0    0  0.19571342342E+02  0.68741017487E+01 -0.13398077078E+03  0.13557705430E+03  0.00000000000E+00 0.  1.
        -15    1    1    2    0    0 -0.10576757792E+02 -0.81273522668E+00 -0.38763265627E+02  0.40227811710E+02  0.17770000000E+01 0. -1.
         15    1    1    2    0    0  0.10666800510E+02 -0.50017102502E+01 -0.30525331389E+01  0.12299326246E+02  0.17770000000E+01 0.  1.
</event>
<event>
 6    1  0.1226227E-002  0.1827561E+03  0.7546771E-02  0.1068251E+00
        -11   -1    0    0    0    0  0.00000000000E+00  0.00000000000E+00  0.18250000000E+03  0.18250000000E+03  0.00000000000E+00 0. -1.
         11   -1    0    0    0    0 -0.00000000000E+00 -0.00000000000E+00 -0.18250000000E+03  0.18250000000E+03  0.00000000000E+00 0.  1.
        -11    1    1    2    0    0  0.68579203361E+00  0.22513260983E+01  0.13990701508E+03  0.13992680819E+03  0.00000000000E+00 0. -1.
         11    1    1    2    0    0 -0.11163256278E+01 -0.30855635751E+01 -0.18221440067E+03  0.18224394282E+03  0.00000000000E+00 0.  1.
        -15    1    1    2    0    0  0.18308813580E-01  0.19156873406E+01  0.37298723555E+02  0.37390141763E+02  0.17770000000E+01 0.  1.
         15    1    1    2    0    0  0.41222478065E+00 -0.10814498638E+01  0.50086620297E+01  0.54391072250E+01  0.17770000000E+01 0.  1.
</event>
<event>
 6    1  0.1226227E-002  0.1844398E+03  0.7546771E-02  0.1066921E+00
        -11   -1    0    0    0    0  0.00000000000E+00  0.00000000000E+00  0.18250000000E+03  0.18250000000E+03  0.00000000000E+00 0. -1.
         11   -1    0    0    0    0 -0.00000000000E+00 -0.00000000000E+00 -0.18250000000E+03  0.18250000000E+03  0.00000000000E+00 0.  1.
        -11    1    1    2    0    0 -0.10908205388E+01  0.29685892403E+00  0.56774149202E+02  0.56785403338E+02  0.00000000000E+00 0. -1.
         11    1    1    2    0    0 -0.15934767478E+02  0.12520691762E+02 -0.17941932482E+03  0.18056018015E+03  0.00000000000E+00 0.  1.
        -15    1    1    2    0    0 -0.19784130809E+01 -0.45689948019E+01  0.80357591391E+02  0.80531298605E+02  0.17770000000E+01 0. -1.
         15    1    1    2    0    0  0.19004001097E+02 -0.82485558836E+01  0.42287584231E+02  0.47123117904E+02  0.17770000000E+01 0.  1.
</event>
<event>
 6    1  0.1226227E-002  0.1867242E+03  0.7546771E-02  0.1065141E+00
        -11   -1    0    0    0    0  0.00000000000E+00  0.00000000000E+00  0.18250000000E+03  0.18250000000E+03  0.00000000000E+00 0. -1.
         11   -1    0    0    0    0 -0.00000000000E+00 -0.00000000000E+00 -0.18250000000E+03  0.18250000000E+03  0.00000000000E+00 0.  1.
        -11    1    1    2    0    0  0.26531027589E+01 -0.18094609102E+01  0.16436415503E+03  0.16439552476E+03  0.00000000000E+00 0. -1.
         11    1    1    2    0    0  0.28429965038E+01 -0.45160605232E+01 -0.17819590696E+03  0.17827579390E+03  0.00000000000E+00 0.  1.
        -15    1    1    2    0    0 -0.73507898063E+01  0.11183132900E+01  0.35343715668E+00  0.76529329158E+01  0.17770000000E+01 0.  1.
         15    1    1    2    0    0  0.18546905436E+01  0.52072081434E+01  0.13478314773E+02  0.14675748424E+02  0.17770000000E+01 0. -1.
</event>
<event>
 6    1  0.1226227E-002  0.1842164E+03  0.7546771E-02  0.1067097E+00
        -11   -1    0    0    0    0  0.00000000000E+00  0.00000000000E+00  0.18250000000E+03  0.18250000000E+03  0.00000000000E+00 0.  1.
         11   -1    0    0    0    0 -0.00000000000E+00 -0.00000000000E+00 -0.18250000000E+03  0.18250000000E+03  0.00000000000E+00 0.  1.
        -11    1    1    2    0    0  0.12832411093E+01  0.37440596266E+01  0.17494682791E+03  0.17499159205E+03  0.00000000000E+00 0.  1.
         11    1    1    2    0    0 -0.24533625218E+01 -0.12145502742E+01 -0.18076283043E+03  0.18078355839E+03  0.00000000000E+00 0.  1.
        -15    1    1    2    0    0  0.18650276226E+01 -0.23796046403E+01  0.63357886422E+01  0.72416015491E+01  0.17770000000E+01 0.  1.
         15    1    1    2    0    0 -0.69490621011E+00 -0.14990471211E+00 -0.51978613008E+00  0.19832480139E+01  0.17770000000E+01 0. -1.
</event>
<event>
 6    1  0.1226227E-002  0.2080138E+03  0.7546771E-02  0.1049785E+00
        -11   -1    0    0    0    0  0.00000000000E+00  0.00000000000E+00  0.18250000000E+03  0.18250000000E+03  0.00000000000E+00 0. -1.
         11   -1    0    0    0    0 -0.00000000000E+00 -0.00000000000E+00 -0.18250000000E+03  0.18250000000E+03  0.00000000000E+00 0. -1.
        -11    1    1    2    0    0 -0.69672590478E+01 -0.80153301010E+01  0.15662652907E+03  0.15698617081E+03  0.00000000000E+00 0. -1.
         11    1    1    2    0    0  0.24381253840E+01 -0.54796939054E+00 -0.14412599675E+03  0.14414765924E+03  0.00000000000E+00 0. -1.
        -15    1    1    2    0    0  0.21400442571E+02  0.36071406404E+01 -0.31257507576E+02  0.38094355418E+02  0.17770000000E+01 0. -1.
         15    1    1    2    0    0 -0.16871308907E+02  0.49561588512E+01  0.18756975254E+02  0.25771814536E+02  0.17770000000E+01 0.  1.
</event>
<event>
 6    1  0.1226227E-002  0.1835933E+03  0.7546771E-02  0.1067588E+00
        -11   -1    0    0    0    0  0.00000000000E+00  0.00000000000E+00  0.18250000000E+03  0.18250000000E+03  0.00000000000E+00 0.  1.
         11   -1    0    0    0    0 -0.00000000000E+00 -0.00000000000E+00 -0.18250000000E+03  0.18250000000E+03  0.00000000000E+00 0.  1.
        -11    1    1    2    0    0  0.46843962329E+00 -0.84779975388E+01  0.10945370284E+03  0.10978255300E+03  0.00000000000E+00 0.  1.
         11    1    1    2    0    0 -0.35009028909E+01  0.28932375252E+01 -0.18134980959E+03  0.18140667183E+03  0.00000000000E+00 0.  1.
        -15    1    1    2    0    0  0.23747420185E+01  0.74591893034E+01  0.70187056493E+02  0.70644600168E+02  0.17770000000E+01 0.  1.
         15    1    1    2    0    0  0.65772124909E+00 -0.18744292897E+01  0.17090502622E+01  0.31661750113E+01  0.17770000000E+01 0. -1.
</event>
<event>
 6    1  0.1226227E-002  0.1916865E+03  0.7546771E-02  0.1061369E+00
        -11   -1    0    0    0    0  0.00000000000E+00  0.00000000000E+00  0.18250000000E+03  0.18250000000E+03  0.00000000000E+00 0. -1.
         11   -1    0    0    0    0 -0.00000000000E+00 -0.00000000000E+00 -0.18250000000E+03  0.18250000000E+03  0.00000000000E+00 0. -1.
        -11    1    1    2    0    0  0.26966366424E+01 -0.14537639884E+01  0.17328640782E+03  0.17331348595E+03  0.00000000000E+00 0. -1.
         11    1    1    2    0    0 -0.11611868345E+02  0.55737544434E+01 -0.16181233289E+03  0.16232416117E+03  0.00000000000E+00 0. -1.
        -15    1    1    2    0    0  0.11570527043E+02 -0.20422635476E+01 -0.18138957001E+02  0.21684727957E+02  0.17770000000E+01 0.  1.
         15    1    1    2    0    0 -0.26552953408E+01 -0.20777269074E+01  0.66648820685E+01  0.76776249215E+01  0.17770000000E+01 0. -1.
</event>
<event>
 6    1  0.1226227E-002  0.1826509E+03  0.7546771E-02  0.1068335E+00
        -11   -1    0    0    0    0  0.00000000000E+00  0.00000000000E+00  0.18250000000E+03  0.18250000000E+03  0.00000000000E+00 0.  1.
         11   -1    0    0    0    0 -0.00000000000E+00 -0.00000000000E+00 -0.18250000000E+03  0.18250000000E+03  0.00000000000E+00 0. -1.
        -11    1    1    2    0    0 -0.24537470909E+01  0.42101409508E+00  0.10243845642E+03  0.10246870489E+03  0.00000000000E+00 0.  1.
         11    1    1    2    0    0  0.25950117482E+01 -0.14820401823E+00 -0.18233059151E+03  0.18234911750E+03  0.00000000000E+00 0. -1.
        -15    1    1    2    0    0 -0.12930926450E+01  0.62289276626E+00  0.10222161553E+02  0.10474273235E+02  0.17770000000E+01 0. -1.
         15    1    1    2    0    0  0.11518279877E+01 -0.89570284310E+00  0.69669973540E+02  0.69707904382E+02  0.17770000000E+01 0.  1.
</event>
<event>
 6    1  0.1226227E-002  0.1829759E+03  0.7546771E-02  0.1068077E+00
        -11   -1    0    0    0    0  0.00000000000E+00  0.00000000000E+00  0.18250000000E+03  0.18250000000E+03  0.00000000000E+00 0.  1.
         11   -1    0    0    0    0 -0.00000000000E+00 -0.00000000000E+00 -0.18250000000E+03  0.18250000000E+03  0.00000000000E+00 0.  1.
        -11    1    1    2    0    0 -0.14070377775E+01 -0.18759472405E+01  0.75129057805E+02  0.75165645477E+02  0.00000000000E+00 0.  1.
         11    1    1    2    0    0  0.29944737543E+01  0.11425925915E+01 -0.18199592398E+03  0.18202414328E+03  0.00000000000E+00 0.  1.
        -15    1    1    2    0    0  0.59164212750E+01  0.15757684539E+01  0.54570930355E+02  0.54942071818E+02  0.17770000000E+01 0. -1.
         15    1    1    2    0    0 -0.75038572519E+01 -0.84241380492E+00  0.52295935817E+02  0.52868139429E+02  0.17770000000E+01 0.  1.
</event>
<event>
 6    1  0.1226227E-002  0.1958600E+03  0.7546771E-02  0.1058291E+00
        -11   -1    0    0    0    0  0.00000000000E+00  0.00000000000E+00  0.18250000000E+03  0.18250000000E+03  0.00000000000E+00 0. -1.
         11   -1    0    0    0    0 -0.00000000000E+00 -0.00000000000E+00 -0.18250000000E+03  0.18250000000E+03  0.00000000000E+00 0. -1.
        -11    1    1    2    0    0  0.82661992091E+00 -0.28151698961E+01  0.16005734315E+03  0.16008423276E+03  0.00000000000E+00 0. -1.
         11    1    1    2    0    0  0.48940590320E+01 -0.55014374680E+01 -0.16897969720E+03  0.16914004758E+03  0.00000000000E+00 0. -1.
        -15    1    1    2    0    0  0.40402829091E+01 -0.46983129742E+01 -0.92793109696E+01  0.11298733197E+02  0.17770000000E+01 0.  1.
         15    1    1    2    0    0 -0.97609618620E+01  0.13014920338E+02  0.18201665020E+02  0.24476986464E+02  0.17770000000E+01 0. -1.
</event>
<event>
 6    1  0.1226227E-002  0.1872968E+03  0.7546771E-02  0.1064699E+00
        -11   -1    0    0    0    0  0.00000000000E+00  0.00000000000E+00  0.18250000000E+03  0.18250000000E+03  0.00000000000E+00 0. -1.
         11   -1    0    0    0    0 -0.00000000000E+00 -0.00000000000E+00 -0.18250000000E+03  0.18250000000E+03  0.00000000000E+00 0.  1.
        -11    1    1    2    0    0 -0.60441544334E+00 -0.48072254618E+01  0.17763718256E+03  0.17770324522E+03  0.00000000000E+00 0. -1.
         11    1    1    2    0    0  0.10928206484E+01  0.58988739315E+01 -0.17551006830E+03  0.17561257087E+03  0.00000000000E+00 0.  1.
        -15    1    1    2    0    0  0.72494624965E+00 -0.50405142508E+01  0.18284555797E+01  0.56950250030E+01  0.17770000000E+01 0. -1.
         15    1    1    2    0    0 -0.12133514547E+01  0.39488657811E+01 -0.39555698342E+01  0.59891589078E+01  0.17770000000E+01 0.  1.
</event>
<event>
 6    1  0.1226227E-002  0.1842039E+03  0.7546771E-02  0.1067107E+00
        -11   -1    0    0    0    0  0.00000000000E+00  0.00000000000E+00  0.18250000000E+03  0.18250000000E+03  0.00000000000E+00 0.  1.
         11   -1    0    0    0    0 -0.00000000000E+00 -0.00000000000E+00 -0.18250000000E+03  0.18250000000E+03  0.00000000000E+00 0.  1.
        -11    1    1    2    0    0  0.27332942826E+01 -0.77591805876E+00  0.18077373890E+03  0.18079606639E+03  0.00000000000E+00 0.  1.
         11    1    1    2    0    0 -0.25941254885E+01  0.31090221018E+01 -0.17133824404E+03  0.17138608280E+03  0.00000000000E+00 0.  1.
        -15    1    1    2    0    0 -0.23171873410E+01 -0.35308146183E+01 -0.24555133916E+01  0.51983924494E+01  0.17770000000E+01 0.  1.
         15    1    1    2    0    0  0.21780185470E+01  0.11977105752E+01 -0.69799814653E+01  0.76194583580E+01  0.17770000000E+01 0.  1.
</event>
<event>
 6    1  0.1226227E-002  0.1932949E+03  0.7546771E-02  0.1060173E+00
        -11   -1    0    0    0    0  0.00000000000E+00  0.00000000000E+00  0.18250000000E+03  0.18250000000E+03  0.00000000000E+00 0. -1.
         11   -1    0    0    0    0 -0.00000000000E+00 -0.00000000000E+00 -0.18250000000E+03  0.18250000000E+03  0.00000000000E+00 0.  1.
        -11    1    1    2    0    0 -0.30136045552E+01  0.46614130860E+01  0.11531627583E+03  0.11544979019E+03  0.00000000000E+00 0. -1.
         11    1    1    2    0    0  0.13680159571E+02  0.11668107054E+02 -0.17076105677E+03  0.17170506689E+03  0.00000000000E+00 0.  1.
        -15    1    1    2    0    0 -0.17064884003E+02 -0.55205248016E+01 -0.27957829405E+01  0.18238985481E+02  0.17770000000E+01 0. -1.
         15    1    1    2    0    0  0.63983289870E+01 -0.10808995339E+02  0.58240563882E+02  0.59606157436E+02  0.17770000000E+01 0.  1.
</event>
<event>
 6    1  0.1226227E-002  0.1895628E+03  0.7546771E-02  0.1062968E+00
        -11   -1    0    0    0    0  0.00000000000E+00  0.00000000000E+00  0.18250000000E+03  0.18250000000E+03  0.00000000000E+00 0.  1.
         11   -1    0    0    0    0 -0.00000000000E+00 -0.00000000000E+00 -0.18250000000E+03  0.18250000000E+03  0.00000000000E+00 0. -1.
        -11    1    1    2    0    0 -0.11595414242E+02 -0.18296434172E+01  0.16717007481E+03  0.16758172674E+03  0.00000000000E+00 0.  1.
         11    1    1    2    0    0  0.21320634399E+01  0.11538937587E+01 -0.17542047603E+03  0.17543722689E+03  0.00000000000E+00 0. -1.
        -15    1    1    2    0    0  0.10164606806E+02  0.78317548631E+01  0.48693632577E+01  0.13839221195E+02  0.17770000000E+01 0. -1.
         15    1    1    2    0    0 -0.70125600381E+00 -0.71560052046E+01  0.33810379685E+01  0.81418251772E+01  0.17770000000E+01 0.  1.
</event>
<event>
 6    1  0.1226227E-002  0.1868143E+03  0.7546771E-02  0.1065072E+00
        -11   -1    0    0    0    0  0.00000000000E+00  0.00000000000E+00  0.18250000000E+03  0.18250000000E+03  0.00000000000E+00 0. -1.
         11   -1    0    0    0    0 -0.00000000000E+00 -0.00000000000E+00 -0.18250000000E+03  0.18250000000E+03  0.00000000000E+00 0.  1.
        -11    1    1    2    0    0  0.48281819127E+01 -0.66290039850E+00  0.17811901241E+03  0.17818567102E+03  0.00000000000E+00 0. -1.
         11    1    1    2    0    0 -0.20605352854E+01  0.17432863728E+01 -0.15506244027E+03  0.15508592856E+03  0.00000000000E+00 0.  1.
        -15    1    1    2    0    0  0.21470686470E+01  0.15502505231E+01 -0.25271797657E+02  0.25472233240E+02  0.17770000000E+01 0. -1.
         15    1    1    2    0    0 -0.49147152742E+01 -0.26306364974E+01  0.22152255237E+01  0.62561671756E+01  0.17770000000E+01 0.  1.
</event>
<event>
 6    1  0.1226227E-002  0.1829073E+03  0.7546771E-02  0.1068131E+00
        -11   -1    0    0    0    0  0.00000000000E+00  0.00000000000E+00  0.18250000000E+03  0.18250000000E+03  0.00000000000E+00 0.  1.
         11   -1    0    0    0    0 -0.00000000000E+00 -0.00000000000E+00 -0.18250000000E+03  0.18250000000E+03  0.00000000000E+00 0. -1.
        -11    1    1    2    0    0  0.13887028604E+00  0.13892520112E+01  0.94495236673E+02  0.94505550419E+02  0.00000000000E+00 0.  1.
         11    1    1    2    0    0  0.15669525295E+01  0.33808947639E+01 -0.18205454317E+03  0.18209267553E+03  0.00000000000E+00 0. -1.
        -15    1    1    2    0    0  0.27534724611E+01  0.19322246246E+01  0.33912308943E+02  0.34125027903E+02  0.17770000000E+01 0.  1.
         15    1    1    2    0    0 -0.44592952766E+01 -0.67023713998E+01  0.53646997559E+02  0.54276746152E+02  0.17770000000E+01 0.  1.
</event>
<event>
 6    1  0.1226227E-002  0.1880647E+03  0.7546771E-02  0.1064110E+00
        -11   -1    0    0    0    0  0.00000000000E+00  0.00000000000E+00  0.18250000000E+03  0.18250000000E+03  0.00000000000E+00 0. -1.
         11   -1    0    0    0    0 -0.00000000000E+00 -0.00000000000E+00 -0.18250000000E+03  0.18250000000E+03  0.00000000000E+00 0. -1.
        -11    1    1    2    0    0  0.50725800344E+01 -0.38997385469E+01  0.37182648943E+02  0.37729145383E+02  0.00000000000E+00 0. -1.
         11    1    1    2    0    0  0.21862391447E+01 -0.21474799587E+01 -0.17690879482E+03  0.17693533564E+03  0.00000000000E+00 0. -1.
        -15    1    1    2    0    0 -0.15717197245E+01  0.61387415574E+01  0.14325762856E+03  0.14340871773E+03  0.17770000000E+01 0. -1.
         15    1    1    2    0    0 -0.56870994546E+01 -0.91523051786E-01 -0.35314826789E+01  0.69268012521E+01  0.17770000000E+01 0.  1.
</event>
<event>
 6    1  0.1226227E-002  0.1868021E+03  0.7546771E-02  0.1065081E+00
        -11   -1    0    0    0    0  0.00000000000E+00  0.00000000000E+00  0.18250000000E+03  0.18250000000E+03  0.00000000000E+00 0. -1.
         11   -1    0    0    0    0 -0.00000000000E+00 -0.00000000000E+00 -0.18250000000E+03  0.18250000000E+03  0.00000000000E+00 0. -1.
        -11    1    1    2    0    0 -0.70043182660E+01  0.15279966283E+02  0.17740338542E+03  0.17819792087E+03  0.00000000000E+00 0. -1.
         11    1    1    2    0    0  0.21560610342E+01  0.69901791224E+00 -0.15189527472E+03  0.15191218420E+03  0.00000000000E+00 0. -1.
        -15    1    1    2    0    0 -0.15222734468E+01  0.28959250064E+01 -0.30132267241E+01  0.47896724711E+01  0.17770000000E+01 0.  1.
         15    1    1    2    0    0  0.63705306786E+01 -0.18874909201E+02 -0.22494883975E+02  0.30100222466E+02  0.17770000000E+01 0. -1.
</event>
<event>
 6    1  0.1226227E-002  0.2122038E+03  0.7546771E-02  0.1046997E+00
        -11   -1    0    0    0    0  0.00000000000E+00  0.00000000000E+00  0.18250000000E+03  0.18250000000E+03  0.00000000000E+00 0. -1.
         11   -1    0    0    0    0 -0.00000000000E+00 -0.00000000000E+00 -0.18250000000E+03  0.18250000000E+03  0.00000000000E+00 0.  1.
        -11    1    1    2    0    0  0.21721660188E+02  0.28892138805E+00  0.15124408226E+03  0.15279622513E+03  0.00000000000E+00 0. -1.
         11    1    1    2    0    0  0.29267535890E+01  0.97068036923E+00 -0.13415110894E+03  0.13418654231E+03  0.00000000000E+00 0.  1.
        -15    1    1    2    0    0 -0.73238328511E+01  0.52905958797E+01  0.27872517571E+02  0.29354112100E+02  0.17770000000E+01 0. -1.
         15    1    1    2    0    0 -0.17324580926E+02 -0.65501976370E+01 -0.44965490883E+02  0.48663120457E+02  0.17770000000E+01 0.  1.
</event>
<event>
 6    1  0.1226227E-002  0.1856197E+03  0.7546771E-02  0.1065998E+00
        -11   -1    0    0    0    0  0.00000000000E+00  0.00000000000E+00  0.18250000000E+03  0.18250000000E+03  0.00000000000E+00 0.  1.
         11   -1    0    0    0    0 -0.00000000000E+00 -0.00000000000E+00 -0.18250000000E+03  0.18250000000E+03  0.00000000000E+00 0. -1.
        -11    1    1    2    0    0  0.53456912936E+00 -0.39374035935E+01  0.17933632983E+03  0.17938034482E+03  0.00000000000E+00 0.  1.
         11    1    1    2    0    0  0.13734754836E+01 -0.81132263145E+01 -0.15754592340E+03  0.15776066954E+03  0.00000000000E+00 0. -1.
        -15    1    1    2    0    0 -0.58100918568E+01  0.19441128262E+01 -0.81001627484E+01  0.10310533818E+02  0.17770000000E+01 0.  1.
         15    1    1    2    0    0  0.39020472438E+01  0.10106517082E+02 -0.13690243681E+02  0.17548451819E+02  0.17770000000E+01 0. -1.
</event>
<event>
 6    1  0.1226227E-002  0.1860907E+03  0.7546771E-02  0.1065632E+00
        -11   -1    0    0    0    0  0.00000000000E+00  0.00000000000E+00  0.18250000000E+03  0.18250000000E+03  0.00000000000E+00 0. -1.
         11   -1    0    0    0    0 -0.00000000000E+00 -0.00000000000E+00 -0.18250000000E+03  0.18250000000E+03  0.00000000000E+00 0.  1.
        -11    1    1    2    0    0 -0.86955101832E-01  0.31918768450E+01  0.17888079858E+03  0.17890929473E+03  0.00000000000E+00 0. -1.
         11    1    1    2    0    0 -0.14705886213E+01  0.17584656747E+01 -0.13831949323E+03  0.13833848719E+03  0.00000000000E+00 0.  1.
        -15    1    1    2    0    0  0.37607795975E+01  0.13557568959E+00 -0.41627356286E+02  0.41834870196E+02  0.17770000000E+01 0. -1.
         15    1    1    2    0    0 -0.22032358744E+01 -0.50859182093E+01  0.10660509333E+01  0.59173478808E+01  0.17770000000E+01 0.  1.
</event>
<event>
 6    1  0.1226227E-002  0.1837402E+03  0.7546771E-02  0.1067472E+00
        -11   -1    0    0    0    0  0.00000000000E+00  0.00000000000E+00  0.18250000000E+03  0.18250000000E+03  0.00000000000E+00 0. -1.
         11   -1    0    0    0    0 -0.00000000000E+00 -0.00000000000E+00 -0.18250000000E+03  0.18250000000E+03  0.00000000000E+00 0. -1.
        -11    1    1    2    0    0  0.25367359241E+01 -0.17144221964E+01  0.18123395916E+03  0.18125981966E+03  0.00000000000E+00 0. -1.
         11    1    1    2    0    0  0.12695264189E+01  0.32777859726E+01 -0.17388261195E+03  0.17391813683E+03  0.00000000000E+00 0. -1.
        -15    1    1    2    0    0 -0.18567464131E+01 -0.22576258714E+01 -0.24325376192E+01  0.41975409572E+01  0.17770000000E+01 0. -1.
         15    1    1    2    0    0 -0.19495159298E+01  0.69426209525E+00 -0.49188095868E+01  0.56245025530E+01  0.17770000000E+01 0.  1.
</event>
<event>
 6    1  0.1226227E-002  0.1854911E+03  0.7546771E-02  0.1066099E+00
        -11   -1    0    0    0    0  0.00000000000E+00  0.00000000000E+00  0.18250000000E+03  0.18250000000E+03  0.00000000000E+00 0. -1.
         11   -1    0    0    0    0 -0.00000000000E+00 -0.00000000000E+00 -0.18250000000E+03  0.18250000000E+03  0.00000000000E+00 0.  1.
        -11    1    1    2    0    0 -0.23534099696E+01  0.13440977728E+01  0.17948848720E+03  0.17950894734E+03  0.00000000000E+00 0. -1.
         11    1    1    2    0    0  0.65031088269E+01 -0.71249638127E+01 -0.10045531664E+03  0.10091742255E+03  0.00000000000E+00 0.  1.
        -15    1    1    2    0    0  0.19138916748E+01 -0.81316692223E+01 -0.73132782220E+01  0.11244055898E+02  0.17770000000E+01 0. -1.
         15    1    1    2    0    0 -0.60635905321E+01  0.13912535262E+02 -0.71719892341E+02  0.73329574211E+02  0.17770000000E+01 0.  1.
</event>
<event>
 6    1  0.1226227E-002  0.1864215E+03  0.7546771E-02  0.1065375E+00
        -11   -1    0    0    0    0  0.00000000000E+00  0.00000000000E+00  0.18250000000E+03  0.18250000000E+03  0.00000000000E+00 0. -1.
         11   -1    0    0    0    0 -0.00000000000E+00 -0.00000000000E+00 -0.18250000000E+03  0.18250000000E+03  0.00000000000E+00 0. -1.
        -11    1    1    2    0    0  0.51229914321E+00  0.83907066969E+01  0.17838051040E+03  0.17857847826E+03  0.00000000000E+00 0. -1.
         11    1    1    2    0    0  0.20380177328E+01 -0.79450774786E+00 -0.13368746420E+03  0.13370535832E+03  0.00000000000E+00 0. -1.
        -15    1    1    2    0    0 -0.51548139435E+01 -0.17038111165E+02 -0.26403362129E+02  0.31893018038E+02  0.17770000000E+01 0. -1.
         15    1    1    2    0    0  0.26044970676E+01  0.94419122154E+01 -0.18289684068E+02  0.20823145381E+02  0.17770000000E+01 0.  1.
</event>
<event>
 6    1  0.1226227E-002  0.1835459E+03  0.7546771E-02  0.1067625E+00
        -11   -1    0    0    0    0  0.00000000000E+00  0.00000000000E+00  0.18250000000E+03  0.18250000000E+03  0.00000000000E+00 0.  1.
         11   -1    0    0    0    0 -0.00000000000E+00 -0.00000000000E+00 -0.18250000000E+03  0.18250000000E+03  0.00000000000E+00 0. -1.
        -11    1    1    2    0    0  0.48070418352E+01 -0.78169178561E+00  0.18138870381E+03  0.18145407288E+03  0.00000000000E+00 0.  1.
         11    1    1    2    0    0  0.24173653756E+01 -0.37207129846E+00 -0.15363976925E+03  0.15365923594E+03  0.00000000000E+00 0. -1.
        -15    1    1    2    0    0 -0.53051145295E+01  0.12057924120E+01 -0.73244770249E+01  0.92953681046E+01  0.17770000000E+01 0. -1.
         15    1    1    2    0    0 -0.19192926813E+01 -0.52029327954E-01 -0.20424457538E+02  0.20591323080E+02  0.17770000000E+01 0. -1.
</event>
<event>
 6    1  0.1226227E-002  0.1874928E+03  0.7546771E-02  0.1064549E+00
        -11   -1    0    0    0    0  0.00000000000E+00  0.00000000000E+00  0.18250000000E+03  0.18250000000E+03  0.00000000000E+00 0. -1.
         11   -1    0    0    0    0 -0.00000000000E+00 -0.00000000000E+00 -0.18250000000E+03  0.18250000000E+03  0.00000000000E+00 0.  1.
        -11    1    1    2    0    0  0.44322131252E+01 -0.38290199779E+01  0.17741050446E+03  0.17750716323E+03  0.00000000000E+00 0. -1.
         11    1    1    2    0    0  0.15271059756E+01  0.17244476781E+01 -0.16622113396E+03  0.16623709317E+03  0.00000000000E+00 0.  1.
        -15    1    1    2    0    0  0.31344612097E+01  0.55207336927E+01 -0.36385443315E+00  0.66025348639E+01  0.17770000000E+01 0.  1.
         15    1    1    2    0    0 -0.90937803105E+01 -0.34161613929E+01 -0.10825516066E+02  0.14653208730E+02  0.17770000000E+01 0. -1.
</event>
<event>
 6    1  0.1226227E-002  0.1848948E+03  0.7546771E-02  0.1066564E+00
        -11   -1    0    0    0    0  0.00000000000E+00  0.00000000000E+00  0.18250000000E+03  0.18250000000E+03  0.00000000000E+00 0.  1.
         11   -1    0    0    0    0 -0.00000000000E+00 -0.00000000000E+00 -0.18250000000E+03  0.18250000000E+03  0.00000000000E+00 0.  1.
        -11    1    1    2    0    0 -0.29977160966E+01 -0.20898845350E+01  0.17127903549E+03  0.17131801399E+03  0.00000000000E+00 0.  1.
         11    1    1    2    0    0  0.23052047923E+00  0.38163100720E+01 -0.18006464568E+03  0.18010523031E+03  0.00000000000E+00 0.  1.
        -15    1    1    2    0    0  0.11984494995E+00 -0.34023061135E+01 -0.25122235961E+00  0.38484920912E+01  0.17770000000E+01 0. -1.
         15    1    1    2    0    0  0.26473506674E+01  0.16758805765E+01  0.90368325464E+01  0.97282636033E+01  0.17770000000E+01 0. -1.
</event>
<event>
 6    1  0.1226227E-002  0.1851265E+03  0.7546771E-02  0.1066383E+00
        -11   -1    0    0    0    0  0.00000000000E+00  0.00000000000E+00  0.18250000000E+03  0.18250000000E+03  0.00000000000E+00 0. -1.
         11   -1    0    0    0    0 -0.00000000000E+00 -0.00000000000E+00 -0.18250000000E+03  0.18250000000E+03  0.00000000000E+00 0. -1.
        -11    1    1    2    0    0 -0.41961336569E+00  0.26120330402E+01  0.12694271563E+03  0.12697027937E+03  0.00000000000E+00 0. -1.
         11    1    1    2    0    0  0.29898431804E+01 -0.14620075962E+00 -0.17984862118E+03  0.17987353078E+03  0.00000000000E+00 0. -1.
        -15    1    1    2    0    0 -0.43329709730E+01 -0.10394268470E+01  0.54602503797E+02  0.54812828749E+02  0.17770000000E+01 0. -1.
         15    1    1    2    0    0  0.17627411583E+01 -0.14264054336E+01 -0.16965982446E+01  0.33433611016E+01  0.17770000000E+01 0.  1.
</event>
<event>
 6    1  0.1226227E-002  0.1831036E+03  0.7546771E-02  0.1067975E+00
        -11   -1    0    0    0    0  0.00000000000E+00  0.00000000000E+00  0.18250000000E+03  0.18250000000E+03  0.00000000000E+00 0. -1.
         11   -1    0    0    0    0 -0.00000000000E+00 -0.00000000000E+00 -0.18250000000E+03  0.18250000000E+03  0.00000000000E+00 0.  1.
        -11    1    1    2    0    0 -0.19490370860E+01  0.13113727341E+01  0.93793262739E+02  0.93822676253E+02  0.00000000000E+00 0. -1.
         11    1    1    2    0    0 -0.44572407257E+01  0.30848384158E+01 -0.18181556662E+03  0.18189635369E+03  0.00000000000E+00 0.  1.
        -15    1    1    2    0    0  0.31695420282E+01  0.61868247807E+00  0.61346159875E+01  0.71568154225E+01  0.17770000000E+01 0.  1.
         15    1    1    2    0    0  0.32367357835E+01 -0.50148936280E+01  0.81887687891E+02  0.82124154631E+02  0.17770000000E+01 0. -1.
</event>
<event>
 6    1  0.1226227E-002  0.1827932E+03  0.7546771E-02  0.1068222E+00
        -11   -1    0    0    0    0  0.00000000000E+00  0.00000000000E+00  0.18250000000E+03  0.18250000000E+03  0.00000000000E+00 0.  1.
         11   -1    0    0    0    0 -0.00000000000E+00 -0.00000000000E+00 -0.18250000000E+03  0.18250000000E+03  0.00000000000E+00 0.  1.
        -11    1    1    2    0    0  0.33980670884E+01  0.15254182230E+01  0.18216874257E+03  0.18220681801E+03  0.00000000000E+00 0.  1.
         11    1    1    2    0    0 -0.86964700652E+00 -0.16358189425E+01 -0.93022305701E+02  0.93040752079E+02  0.00000000000E+00 0.  1.
        -15    1    1    2    0    0 -0.23499570671E+01 -0.10895908559E+01 -0.85197245566E+02  0.85255134082E+02  0.17770000000E+01 0.  1.
         15    1    1    2    0    0 -0.17846301472E+00  0.11999915754E+01 -0.39491913012E+01  0.44972958277E+01  0.17770000000E+01 0. -1.
</event>
<event>
 6    1  0.1422047E-002  0.1826180E+03  0.7546771E-02  0.1068361E+00
        -11   -1    0    0    0    0  0.00000000000E+00  0.00000000000E+00  0.18250000000E+03  0.18250000000E+03  0.00000000000E+00 0. -1.
         11   -1    0    0    0    0 -0.00000000000E+00 -0.00000000000E+00 -0.18250000000E+03  0.18250000000E+03  0.00000000000E+00 0.  1.
        -11    1    1    2    0    0 -0.22271794233E+01  0.14639098922E+01  0.18236252694E+03  0.18238200184E+03  0.00000000000E+00 0. -1.
         11    1    1    2    0    0  0.16145077440E+01  0.66011666450E+00 -0.10441555557E+03  0.10443012321E+03  0.00000000000E+00 0.  1.
        -15    1    1    2    0    0 -0.69553244752E+00 -0.15019020931E+01 -0.64585581673E+02  0.64631219734E+02  0.17770000000E+01 0.  1.
         15    1    1    2    0    0  0.13082041268E+01 -0.62212446360E+00 -0.13361389702E+02  0.13556655216E+02  0.17770000000E+01 0. -1.
</event>
<event>
 6    1  0.1226227E-002  0.1760045E+03  0.7546771E-02  0.1073746E+00
        -11   -1    0    0    0    0  0.00000000000E+00  0.00000000000E+00  0.18250000000E+03  0.18250000000E+03  0.00000000000E+00 0.  1.
         11   -1    0    0    0    0 -0.00000000000E+00 -0.00000000000E+00 -0.18250000000E+03  0.18250000000E+03  0.00000000000E+00 0. -1.
        -11    1    1    2    0    0  0.14387180873E+01 -0.24741911296E+01  0.17624840889E+03  0.17627164596E+03  0.00000000000E+00 0.  1.
         11    1    1    2    0    0 -0.32094898210E+01  0.16498678186E+01 -0.17570604276E+03  0.17574309759E+03  0.00000000000E+00 0. -1.
        -15    1    1    2    0    0  0.22308491934E+01 -0.49184376767E+01  0.25247828762E+01  0.62209303866E+01  0.17770000000E+01 0. -1.
         15    1    1    2    0    0 -0.46007745961E+00  0.57427609877E+01 -0.30671490120E+01  0.67643260635E+01  0.17770000000E+01 0.  1.
</event>
<event>
 6    1  0.1226227E-002  0.1922449E+03  0.7546771E-02  0.1060952E+00
        -11   -1    0    0    0    0  0.00000000000E+00  0.00000000000E+00  0.18250000000E+03  0.18250000000E+03  0.00000000000E+00 0. -1.
         11   -1    0    0    0    0 -0.00000000000E+00 -0.00000000000E+00 -0.18250000000E+03  0.18250000000E+03  0.00000000000E+00 0.  1.
        -11    1    1    2    0    0  0.46254967922E+01  0.77229601720E+00  0.17269142168E+03  0.17275508323E+03  0.00000000000E+00 0. -1.
         11    1    1    2    0    0  0.19697648804E+01  0.27233142982E+01 -0.16465015571E+03  0.16468445643E+03  0.00000000000E+00 0.  1.
        -15    1    1    2    0    0 -0.55242375803E+00 -0.24600026669E+01  0.89197534044E+01  0.94380355438E+01  0.17770000000E+01 0. -1.
         15    1    1    2    0    0 -0.60428379145E+01 -0.10356076485E+01 -0.16961019376E+02  0.18122424798E+02  0.17770000000E+01 0.  1.
</event>
<event>
 6    1  0.1226227E-002  0.1843998E+03  0.7546771E-02  0.1066953E+00
        -11   -1    0    0    0    0  0.00000000000E+00  0.00000000000E+00  0.18250000000E+03  0.18250000000E+03  0.00000000000E+00 0. -1.
         11   -1    0    0    0    0 -0.00000000000E+00 -0.00000000000E+00 -0.18250000000E+03  0.18250000000E+03  0.00000000000E+00 0.  1.
        -11    1    1    2    0    0  0.24043586302E+01  0.33292732979E+01  0.11064765253E+03  0.11072383669E+03  0.00000000000E+00 0. -1.
         11    1    1    2    0    0 -0.97917194018E+00  0.11131799539E+02 -0.18025411292E+03  0.18060016878E+03  0.00000000000E+00 0.  1.
        -15    1    1    2    0    0 -0.90429684357E+01 -0.88189849609E+01  0.52604410239E+02  0.54128841476E+02  0.17770000000E+01 0. -1.
         15    1    1    2    0    0  0.76177817458E+01 -0.56420878757E+01  0.17002050147E+02  0.19547153054E+02  0.17770000000E+01 0.  1.
</event>
<event>
 6    1  0.1226227E-002  0.1835680E+03  0.7546771E-02  0.1067608E+00
        -11   -1    0    0    0    0  0.00000000000E+00  0.00000000000E+00  0.18250000000E+03  0.18250000000E+03  0.00000000000E+00 0. -1.
         11   -1    0    0    0    0 -0.00000000000E+00 -0.00000000000E+00 -0.18250000000E+03  0.18250000000E+03  0.00000000000E+00 0.  1.
        -11    1    1    2    0    0  0.54664182074E+01  0.46276672344E+01  0.18129057616E+03  0.18143199838E+03  0.00000000000E+00 0. -1.
         11    1    1    2    0    0  0.13955209435E+01  0.16161070509E+01 -0.15368407294E+03  0.15369890551E+03  0.00000000000E+00 0.  1.
        -15    1    1    2    0    0 -0.22836328940E+01 -0.43604444474E+01 -0.19621779640E+02  0.20307644379E+02  0.17770000000E+01 0.  1.
         15    1    1    2    0    0 -0.45783062569E+01 -0.18833298379E+01 -0.79847235810E+01  0.95614517269E+01  0.17770000000E+01 0. -1.
</event>
<event>
 6    1  0.1226227E-002  0.1855227E+03  0.7546771E-02  0.1066074E+00
        -11   -1    0    0    0    0  0.00000000000E+00  0.00000000000E+00  0.18250000000E+03  0.18250000000E+03  0.00000000000E+00 0. -1.
         11   -1    0    0    0    0 -0.00000000000E+00 -0.00000000000E+00 -0.18250000000E+03  0.18250000000E+03  0.00000000000E+00 0.  1.
        -11    1    1    2    0    0  0.29086076300E+01 -0.13803354120E+01  0.17944838550E+03  0.17947726425E+03  0.00000000000E+00 0. -1.
         11    1    1    2    0    0  0.13391777693E+01 -0.20766625639E+01 -0.17214183005E+03  0.17215956430E+03  0.00000000000E+00 0.  1.
        -15    1    1    2    0    0 -0.30604948313E+01  0.57083421579E+01 -0.16582029714E+01  0.69180318660E+01  0.17770000000E+01 0. -1.
         15    1    1    2    0    0 -0.11872905680E+01 -0.22513441820E+01 -0.56483524777E+01  0.64451395820E+01  0.17770000000E+01 0.  1.
</event>
<event>
 6    1  0.1226227E-002  0.1828277E+03  0.7546771E-02  0.1068194E+00
        -11   -1    0    0    0    0  0.00000000000E+00  0.00000000000E+00  0.18250000000E+03  0.18250000000E+03  0.00000000000E+00 0. -1.
         11   -1    0    0    0    0 -0.00000000000E+00 -0.00000000000E+00 -0.18250000000E+03  0.18250000000E+03  0.00000000000E+00 0. -1.
        -11    1    1    2    0    0  0.80313700874E+00 -0.24199864327E+01  0.12025422727E+03  0.12028125597E+03  0.00000000000E+00 0. -1.
         11    1    1    2    0    0  0.33783537524E+01  0.17949965426E+01 -0.18213216391E+03  0.18217233714E+03  0.00000000000E+00 0. -1.
        -15    1    1    2    0    0 -0.14281443816E+01  0.76134158900E+00  0.53431434158E+02  0.53485466461E+02  0.17770000000E+01 0. -1.
         15    1    1    2    0    0 -0.27533463796E+01 -0.13635169884E+00  0.84465024913E+01  0.90609404262E+01  0.17770000000E+01 0.  1.
</event>
<event>
 6    1  0.1226227E-002  0.1890832E+03  0.7546771E-02  0.1063332E+00
        -11   -1    0    0    0    0  0.00000000000E+00  0.00000000000E+00  0.18250000000E+03  0.18250000000E+03  0.00000000000E+00 0. -1.
         11   -1    0    0    0    0 -0.00000000000E+00 -0.00000000000E+00 -0.18250000000E+03  0.18250000000E+03  0.00000000000E+00 0.  1.
        -11    1    1    2    0    0 -0.67467982893E+01  0.24114036647E+01  0.15993983997E+03  0.16010023911E+03  0.00000000000E+00 0. -1.
         11    1    1    2    0    0 -0.29160493463E+01 -0.10480703321E+02 -0.17558011251E+03  0.17591681100E+03  0.00000000000E+00 0.  1.
        -15    1    1    2    0    0  0.30291852697E+01  0.63804809639E+01 -0.38579061464E+01  0.82418244075E+01  0.17770000000E+01 0.  1.
         15    1    1    2    0    0  0.66336623658E+01  0.16888186929E+01  0.19498178686E+02  0.20741125476E+02  0.17770000000E+01 0. -1.
</event>
<event>
 6    1  0.1226227E-002  0.1842547E+03  0.7546771E-02  0.1067067E+00
        -11   -1    0    0    0    0  0.00000000000E+00  0.00000000000E+00  0.18250000000E+03  0.18250000000E+03  0.00000000000E+00 0.  1.
         11   -1    0    0    0    0 -0.00000000000E+00 -0.00000000000E+00 -0.18250000000E+03  0.18250000000E+03  0.00000000000E+00 0.  1.
        -11    1    1    2    0    0 -0.55606456505E+00  0.24054252903E+01  0.18072844556E+03  0.18074530785E+03  0.00000000000E+00 0.  1.
         11    1    1    2    0    0  0.48156288212E+00  0.32743847096E+01 -0.17297313416E+03  0.17300479369E+03  0.00000000000E+00 0.  1.
        -15    1    1    2    0    0  0.12443861418E+01 -0.43929421217E+01 -0.71890296659E+01  0.86997881521E+01  0.17770000000E+01 0. -1.
         15    1    1    2    0    0 -0.11698844589E+01 -0.12868678783E+01 -0.56628173267E+00  0.25501103082E+01  0.17770000000E+01 0.  1.
</event>
<event>
 6    1  0.1226227E-002  0.1827684E+03  0.7546771E-02  0.1068241E+00
        -11   -1    0    0    0    0  0.00000000000E+00  0.00000000000E+00  0.18250000000E+03  0.18250000000E+03  0.00000000000E+00 0. -1.
         11   -1    0    0    0    0 -0.00000000000E+00 -0.00000000000E+00 -0.18250000000E+03  0.18250000000E+03  0.00000000000E+00 0.  1.
        -11    1    1    2    0    0  0.10522683911E+01  0.12244604507E+01  0.10191536451E+03  0.10192815164E+03  0.00000000000E+00 0. -1.
         11    1    1    2    0    0  0.39961949769E+01 -0.27327707048E+01 -0.18216724906E+03  0.18223156763E+03  0.00000000000E+00 0.  1.
        -15    1    1    2    0    0 -0.17852681817E+01  0.40191669804E+01  0.28254698527E+02  0.28650071615E+02  0.17770000000E+01 0.  1.
         15    1    1    2    0    0 -0.32631951863E+01 -0.25108567263E+01  0.51997186023E+02  0.52190209117E+02  0.17770000000E+01 0. -1.
</event>
<event>
 6    1  0.1226227E-002  0.1900311E+03  0.7546771E-02  0.1062613E+00
        -11   -1    0    0    0    0  0.00000000000E+00  0.00000000000E+00  0.18250000000E+03  0.18250000000E+03  0.00000000000E+00 0. -1.
         11   -1    0    0    0    0 -0.00000000000E+00 -0.00000000000E+00 -0.18250000000E+03  0.18250000000E+03  0.00000000000E+00 0.  1.
        -11    1    1    2    0    0  0.22118238290E+01 -0.31850973406E+01  0.16539746359E+03  0.16544291455E+03  0.00000000000E+00 0. -1.
         11    1    1    2    0    0 -0.39388089345E+01 -0.51257361007E+00 -0.17492382434E+03  0.17496891515E+03  0.00000000000E+00 0.  1.
        -15    1    1    2    0    0 -0.67543373377E+01 -0.42057292847E+01  0.99359964049E+01  0.12852664519E+02  0.17770000000E+01 0. -1.
         15    1    1    2    0    0  0.84813224432E+01  0.79034002353E+01 -0.40963566122E+00  0.11735505785E+02  0.17770000000E+01 0.  1.
</event>
<event>
 6    1  0.1226227E-002  0.1834121E+03  0.7546771E-02  0.1067731E+00
        -11   -1    0    0    0    0  0.00000000000E+00  0.00000000000E+00  0.18250000000E+03  0.18250000000E+03  0.00000000000E+00 0.  1.
         11   -1    0    0    0    0 -0.00000000000E+00 -0.00000000000E+00 -0.18250000000E+03  0.18250000000E+03  0.00000000000E+00 0. -1.
        -11    1    1    2    0    0  0.58238296917E+01  0.10870264663E+01  0.14992490548E+03  0.15004191381E+03  0.00000000000E+00 0.  1.
         11    1    1    2    0    0 -0.10433021095E-01  0.62151306483E+01 -0.18148152440E+03  0.18158791715E+03  0.00000000000E+00 0. -1.
        -15    1    1    2    0    0 -0.24868054564E+01 -0.51380236840E+01  0.23100619066E+02  0.23861680975E+02  0.17770000000E+01 0.  1.
         15    1    1    2    0    0 -0.33265912142E+01 -0.21641334306E+01  0.84559998549E+01  0.95084880585E+01  0.17770000000E+01 0. -1.
</event>
<event>
 6    1  0.1226227E-002  0.1830975E+03  0.7546771E-02  0.1067980E+00
        -11   -1    0    0    0    0  0.00000000000E+00  0.00000000000E+00  0.18250000000E+03  0.18250000000E+03  0.00000000000E+00 0. -1.
         11   -1    0    0    0    0 -0.00000000000E+00 -0.00000000000E+00 -0.18250000000E+03  0.18250000000E+03  0.00000000000E+00 0. -1.
        -11    1    1    2    0    0  0.18678286154E+01 -0.24385309948E+01  0.14057482396E+03  0.14060837937E+03  0.00000000000E+00 0. -1.
         11    1    1    2    0    0 -0.14068466232E+01 -0.35791869851E+01 -0.18186181284E+03  0.18190247048E+03  0.00000000000E+00 0. -1.
        -15    1    1    2    0    0  0.17294896505E+01 -0.44803661214E+00  0.60638060038E+01  0.65665320763E+01  0.17770000000E+01 0.  1.
         15    1    1    2    0    0 -0.21904716427E+01  0.64657545920E+01  0.35223182874E+02  0.35922618073E+02  0.17770000000E+01 0.  1.
</event>
<event>
 6    1  0.1226227E-002  0.1835476E+03  0.7546771E-02  0.1067624E+00
        -11   -1    0    0    0    0  0.00000000000E+00  0.00000000000E+00  0.18250000000E+03  0.18250000000E+03  0.00000000000E+00 0.  1.
         11   -1    0    0    0    0 -0.00000000000E+00 -0.00000000000E+00 -0.18250000000E+03  0.18250000000E+03  0.00000000000E+00 0.  1.
        -11    1    1    2    0    0  0.69603858175E+01 -0.37526002867E+01  0.18128003364E+03  0.18145241684E+03  0.00000000000E+00 0.  1.
         11    1    1    2    0    0  0.13832885443E+01 -0.21286805333E+01 -0.11292273900E+03  0.11295127158E+03  0.00000000000E+00 0.  1.
        -15    1    1    2    0    0  0.36286717950E+01  0.28508936037E+01 -0.14776827735E+02  0.15582272628E+02  0.17770000000E+01 0.  1.
         15    1    1    2    0    0 -0.11972346157E+02  0.30303872163E+01 -0.53580466903E+02  0.55014038951E+02  0.17770000000E+01 0. -1.
</event>
<event>
 6    1  0.1226227E-002  0.1918472E+03  0.7546771E-02  0.1061249E+00
        -11   -1    0    0    0    0  0.00000000000E+00  0.00000000000E+00  0.18250000000E+03  0.18250000000E+03  0.00000000000E+00 0.  1.
         11   -1    0    0    0    0 -0.00000000000E+00 -0.00000000000E+00 -0.18250000000E+03  0.18250000000E+03  0.00000000000E+00 0. -1.
        -11    1    1    2    0    0  0.22601988980E+01  0.92496207666E+00  0.16238051453E+03  0.16239887793E+03  0.00000000000E+00 0.  1.
         11    1    1    2    0    0  0.21026984593E+01 -0.66371696596E+01 -0.17301276055E+03  0.17315278997E+03  0.00000000000E+00 0. -1.
        -15    1    1    2    0    0 -0.96855474193E+00  0.56663743350E+01 -0.82333120542E+01  0.10197600344E+02  0.17770000000E+01 0.  1.
         15    1    1    2    0    0 -0.33943426153E+01  0.45833247902E-01  0.18865558076E+02  0.19250731752E+02  0.17770000000E+01 0. -1.
</event>
<event>
 6    1  0.1226227E-002  0.1879336E+03  0.7546771E-02  0.1064210E+00
        -11   -1    0    0    0    0  0.00000000000E+00  0.00000000000E+00  0.18250000000E+03  0.18250000000E+03  0.00000000000E+00 0.  1.
         11   -1    0    0    0    0 -0.00000000000E+00 -0.00000000000E+00 -0.18250000000E+03  0.18250000000E+03  0.00000000000E+00 0.  1.
        -11    1    1    2    0    0  0.74685077286E+01 -0.20750283214E+01  0.17689664011E+03  0.17706638765E+03  0.00000000000E+00 0.  1.
         11    1    1    2    0    0  0.20740029065E+01 -0.11206217257E+01 -0.10169319915E+03  0.10172051924E+03  0.00000000000E+00 0.  1.
        -15    1    1    2    0    0 -0.30379750454E+01 -0.48514257441E+01  0.34140078756E+01  0.68977389702E+01  0.17770000000E+01 0. -1.
         15    1    1    2    0    0 -0.65045355897E+01  0.80470757912E+01 -0.78617448843E+02  0.79315354148E+02  0.17770000000E+01 0.  1.
</event>
<event>
 6    1  0.1541293E-002  0.1827537E+03  0.7546771E-02  0.1068253E+00
        -11   -1    0    0    0    0  0.00000000000E+00  0.00000000000E+00  0.18250000000E+03  0.18250000000E+03  0.00000000000E+00 0. -1.
         11   -1    0    0    0    0 -0.00000000000E+00 -0.00000000000E+00 -0.18250000000E+03  0.18250000000E+03  0.00000000000E+00 0.  1.
        -11    1    1    2    0    0  0.23553768141E+01 -0.25307406666E+01  0.18221346404E+03  0.18224625902E+03  0.00000000000E+00 0. -1.
         11    1    1    2    0    0 -0.20871933420E+01  0.53360516982E+00 -0.93255537180E+02  0.93280417694E+02  0.00000000000E+00 0.  1.
        -15    1    1    2    0    0  0.13592679930E+01 -0.17745132050E+01 -0.67158678843E+02  0.67219360155E+02  0.17770000000E+01 0. -1.
         15    1    1    2    0    0 -0.16274514651E+01  0.37716487018E+01 -0.21799248016E+02  0.22253963136E+02  0.17770000000E+01 0.  1.
</event>
<event>
 6    1  0.1226227E-002  0.1832835E+03  0.7546771E-02  0.1067833E+00
        -11   -1    0    0    0    0  0.00000000000E+00  0.00000000000E+00  0.18250000000E+03  0.18250000000E+03  0.00000000000E+00 0. -1.
         11   -1    0    0    0    0 -0.00000000000E+00 -0.00000000000E+00 -0.18250000000E+03  0.18250000000E+03  0.00000000000E+00 0. -1.
        -11    1    1    2    0    0 -0.17966391299E+01 -0.70775853658E+01  0.82621298026E+02  0.82943348222E+02  0.00000000000E+00 0. -1.
         11    1    1    2    0    0 -0.18562716678E+01  0.24722602061E+01 -0.18169016348E+03  0.18171646409E+03  0.00000000000E+00 0. -1.
        -15    1    1    2    0    0  0.62750199614E+00  0.39113716894E+01  0.94193818163E+02  0.94293826395E+02  0.17770000000E+01 0.  1.
         15    1    1    2    0    0  0.30254088016E+01  0.69395347025E+00  0.48750472911E+01  0.60463612963E+01  0.17770000000E+01 0. -1.
</event>
<event>
 6    1  0.1226227E-002  0.1838536E+03  0.7546771E-02  0.1067382E+00
        -11   -1    0    0    0    0  0.00000000000E+00  0.00000000000E+00  0.18250000000E+03  0.18250000000E+03  0.00000000000E+00 0.  1.
         11   -1    0    0    0    0 -0.00000000000E+00 -0.00000000000E+00 -0.18250000000E+03  0.18250000000E+03  0.00000000000E+00 0.  1.
        -11    1    1    2    0    0  0.11810237632E+01  0.33496235095E+01  0.18111155543E+03  0.18114637811E+03  0.00000000000E+00 0.  1.
         11    1    1    2    0    0 -0.18512374255E+01 -0.18323978942E+01 -0.17038898224E+03  0.17040889071E+03  0.00000000000E+00 0.  1.
        -15    1    1    2    0    0 -0.30549761331E+01 -0.15775593967E+01 -0.63104449960E+01  0.74027709590E+01  0.17770000000E+01 0.  1.
         15    1    1    2    0    0  0.37251897954E+01  0.60333781417E-01 -0.44121281861E+01  0.60419602206E+01  0.17770000000E+01 0. -1.
</event>
<event>
 6    1  0.1226227E-002  0.1925405E+03  0.7546771E-02  0.1060732E+00
        -11   -1    0    0    0    0  0.00000000000E+00  0.00000000000E+00  0.18250000000E+03  0.18250000000E+03  0.00000000000E+00 0. -1.
         11   -1    0    0    0    0 -0.00000000000E+00 -0.00000000000E+00 -0.18250000000E+03  0.18250000000E+03  0.00000000000E+00 0. -1.
        -11    1    1    2    0    0 -0.93985678427E+00 -0.23852469746E+01  0.17005964018E+03  0.17007896387E+03  0.00000000000E+00 0. -1.
         11    1    1    2    0    0  0.22615207466E+01  0.49776984126E+01 -0.17237281524E+03  0.17245950072E+03  0.00000000000E+00 0. -1.
        -15    1    1    2    0    0 -0.69641158772E+00 -0.23137686558E+01  0.12112785867E+02  0.12478614705E+02  0.17770000000E+01 0. -1.
         15    1    1    2    0    0 -0.62525237461E+00 -0.27868278218E+00 -0.97996108113E+01  0.99829206988E+01  0.17770000000E+01 0.  1.
</event>
<event>
 6    1  0.1226227E-002  0.1733930E+03  0.7546771E-02  0.1075944E+00
        -11   -1    0    0    0    0  0.00000000000E+00  0.00000000000E+00  0.18250000000E+03  0.18250000000E+03  0.00000000000E+00 0.  1.
         11   -1    0    0    0    0 -0.00000000000E+00 -0.00000000000E+00 -0.18250000000E+03  0.18250000000E+03  0.00000000000E+00 0.  1.
        -11    1    1    2    0    0 -0.14807986225E+01  0.31455459296E+01  0.17342606004E+03  0.17346090488E+03  0.00000000000E+00 0.  1.
         11    1    1    2    0    0  0.55649557688E+01  0.18817452630E+00 -0.17327569615E+03  0.17336513784E+03  0.00000000000E+00 0.  1.
        -15    1    1    2    0    0 -0.65328059405E+00 -0.35524641877E+01  0.81088378748E+01  0.90530524145E+01  0.17770000000E+01 0. -1.
         15    1    1    2    0    0 -0.34308765523E+01  0.21874373186E+00 -0.82592017640E+01  0.91209048627E+01  0.17770000000E+01 0.  1.
</event>
<event>
 6    1  0.1226227E-002  0.1753747E+03  0.7546771E-02  0.1074272E+00
        -11   -1    0    0    0    0  0.00000000000E+00  0.00000000000E+00  0.18250000000E+03  0.18250000000E+03  0.00000000000E+00 0.  1.
         11   -1    0    0    0    0 -0.00000000000E+00 -0.00000000000E+00 -0.18250000000E+03  0.18250000000E+03  0.00000000000E+00 0. -1.
        -11    1    1    2    0    0 -0.65255399034E+01 -0.18047552196E+01  0.17373355422E+03  0.17386542979E+03  0.00000000000E+00 0.  1.
         11    1    1    2    0    0 -0.46219435732E+01  0.24823427608E+00 -0.17701935394E+03  0.17707985671E+03  0.00000000000E+00 0. -1.
        -15    1    1    2    0    0  0.95801596266E+00 -0.15212673256E+01 -0.57684886657E+00  0.25927846952E+01  0.17770000000E+01 0. -1.
         15    1    1    2    0    0  0.10189467514E+02  0.30777882692E+01  0.38626485889E+01  0.11461928807E+02  0.17770000000E+01 0.  1.
</event>
<event>
 6    1  0.1226227E-002  0.1833574E+03  0.7546771E-02  0.1067774E+00
        -11   -1    0    0    0    0  0.00000000000E+00  0.00000000000E+00  0.18250000000E+03  0.18250000000E+03  0.00000000000E+00 0.  1.
         11   -1    0    0    0    0 -0.00000000000E+00 -0.00000000000E+00 -0.18250000000E+03  0.18250000000E+03  0.00000000000E+00 0. -1.
        -11    1    1    2    0    0 -0.37727957626E+01  0.38961707939E+01  0.18156163208E+03  0.18164261718E+03  0.00000000000E+00 0.  1.
         11    1    1    2    0    0 -0.43090810735E+01  0.14355643743E+01 -0.14071896844E+03  0.14079224802E+03  0.00000000000E+00 0. -1.
        -15    1    1    2    0    0  0.16584564787E+01  0.11169719699E+01 -0.78135865960E+01  0.82588115831E+01  0.17770000000E+01 0.  1.
         15    1    1    2    0    0  0.64234203574E+01 -0.64487071380E+01 -0.33029077042E+02  0.34306323209E+02  0.17770000000E+01 0.  1.
</event>
<event>
 6    1  0.1226227E-002  0.1841360E+03  0.7546771E-02  0.1067160E+00
        -11   -1    0    0    0    0  0.00000000000E+00  0.00000000000E+00  0.18250000000E+03  0.18250000000E+03  0.00000000000E+00 0.  1.
         11   -1    0    0    0    0 -0.00000000000E+00 -0.00000000000E+00 -0.18250000000E+03  0.18250000000E+03  0.00000000000E+00 0. -1.
        -11    1    1    2    0    0  0.48946411696E+01 -0.11552897310E+01  0.12358022620E+03  0.12368251499E+03  0.00000000000E+00 0.  1.
         11    1    1    2    0    0  0.23660046975E+01 -0.20409579900E+01 -0.18083704912E+03  0.18086404237E+03  0.00000000000E+00 0. -1.
        -15    1    1    2    0    0 -0.45307412141E+00  0.18226723378E+01  0.50614908352E+02  0.50680904561E+02  0.17770000000E+01 0. -1.
         15    1    1    2    0    0 -0.68075717457E+01  0.13735753832E+01  0.66419145669E+01  0.97725380797E+01  0.17770000000E+01 0.  1.
</event>
<event>
 6    1  0.1226227E-002  0.2058935E+03  0.7546771E-02  0.1051222E+00
        -11   -1    0    0    0    0  0.00000000000E+00  0.00000000000E+00  0.18250000000E+03  0.18250000000E+03  0.00000000000E+00 0. -1.
         11   -1    0    0    0    0 -0.00000000000E+00 -0.00000000000E+00 -0.18250000000E+03  0.18250000000E+03  0.00000000000E+00 0. -1.
        -11    1    1    2    0    0  0.98521167962E+01  0.21885551972E+01  0.15878605979E+03  0.15910646361E+03  0.00000000000E+00 0. -1.
         11    1    1    2    0    0 -0.14286647661E+01  0.13379410714E+01 -0.14309100352E+03  0.14310439008E+03  0.00000000000E+00 0. -1.
        -15    1    1    2    0    0  0.31513456703E+01 -0.51610143077E+01 -0.37477866571E+02  0.38004147931E+02  0.17770000000E+01 0. -1.
         15    1    1    2    0    0 -0.11574797700E+02  0.16345180391E+01  0.21782810303E+02  0.24784998381E+02  0.17770000000E+01 0. -1.
</event>
<event>
 6    1  0.1226227E-002  0.1851426E+03  0.7546771E-02  0.1066371E+00
        -11   -1    0    0    0    0  0.00000000000E+00  0.00000000000E+00  0.18250000000E+03  0.18250000000E+03  0.00000000000E+00 0. -1.
         11   -1    0    0    0    0 -0.00000000000E+00 -0.00000000000E+00 -0.18250000000E+03  0.18250000000E+03  0.00000000000E+00 0. -1.
        -11    1    1    2    0    0 -0.74780225738E+01 -0.15256079702E+01  0.17969544209E+03  0.17985744413E+03  0.00000000000E+00 0. -1.
         11    1    1    2    0    0  0.21520183254E+01 -0.23599989934E+01 -0.13911458239E+03  0.13915124079E+03  0.00000000000E+00 0. -1.
        -15    1    1    2    0    0  0.66306782109E+01  0.27232360530E+01 -0.42315349340E+02  0.42954958118E+02  0.17770000000E+01 0. -1.
         15    1    1    2    0    0 -0.13046739626E+01  0.11623709106E+01  0.17344896466E+01  0.30363569646E+01  0.17770000000E+01 0. -1.
</event>
<event>
 6    1  0.1226227E-002  0.1834991E+03  0.7546771E-02  0.1067662E+00
        -11   -1    0    0    0    0  0.00000000000E+00  0.00000000000E+00  0.18250000000E+03  0.18250000000E+03  0.00000000000E+00 0. -1.
         11   -1    0    0    0    0 -0.00000000000E+00 -0.00000000000E+00 -0.18250000000E+03  0.18250000000E+03  0.00000000000E+00 0.  1.
        -11    1    1    2    0    0  0.46645911710E+01 -0.41571482224E+01  0.18139329396E+03  0.18150087434E+03  0.00000000000E+00 0. -1.
         11    1    1    2    0    0 -0.62844830946E+01 -0.90719416057E+00 -0.14205818823E+03  0.14220002311E+03  0.00000000000E+00 0.  1.
        -15    1    1    2    0    0  0.54429343986E+01  0.21422974010E+01 -0.30289963714E+02  0.30900721736E+02  0.17770000000E+01 0. -1.
         15    1    1    2    0    0 -0.38230424749E+01  0.29220449820E+01 -0.90451420109E+01  0.10398380818E+02  0.17770000000E+01 0.  1.
</event>
<event>
 6    1  0.1226227E-002  0.1826500E+03  0.7546771E-02  0.1068335E+00
        -11   -1    0    0    0    0  0.00000000000E+00  0.00000000000E+00  0.18250000000E+03  0.18250000000E+03  0.00000000000E+00 0. -1.
         11   -1    0    0    0    0 -0.00000000000E+00 -0.00000000000E+00 -0.18250000000E+03  0.18250000000E+03  0.00000000000E+00 0. -1.
        -11    1    1    2    0    0 -0.37790902970E+01 -0.19010791650E+00  0.18231070773E+03  0.18234997071E+03  0.00000000000E+00 0. -1.
         11    1    1    2    0    0  0.84718609836E+00  0.10125216113E+01 -0.91278683459E+02  0.91288230228E+02  0.00000000000E+00 0. -1.
        -15    1    1    2    0    0  0.16324098432E+01 -0.15124019529E+01 -0.13578102954E+02  0.13873526242E+02  0.17770000000E+01 0.  1.
         15    1    1    2    0    0  0.12994943554E+01  0.68998825810E+00 -0.77453921314E+02  0.77488272825E+02  0.17770000000E+01 0. -1.
</event>
<event>
 6    1  0.1226227E-002  0.1832539E+03  0.7546771E-02  0.1067856E+00
        -11   -1    0    0    0    0  0.00000000000E+00  0.00000000000E+00  0.18250000000E+03  0.18250000000E+03  0.00000000000E+00 0. -1.
         11   -1    0    0    0    0 -0.00000000000E+00 -0.00000000000E+00 -0.18250000000E+03  0.18250000000E+03  0.00000000000E+00 0. -1.
        -11    1    1    2    0    0 -0.11152129335E+02  0.67057966566E+01  0.18127959814E+03  0.18174606020E+03  0.00000000000E+00 0. -1.
         11    1    1    2    0    0 -0.87182794230E+00 -0.10357619161E+01 -0.30521823663E+02  0.30551834747E+02  0.00000000000E+00 0. -1.
        -15    1    1    2    0    0  0.90460336503E+01 -0.12682795993E+02 -0.11721766187E+03  0.11826166759E+03  0.17770000000E+01 0. -1.
         15    1    1    2    0    0  0.29779236269E+01  0.70127612523E+01 -0.33540112606E+02  0.34440437456E+02  0.17770000000E+01 0. -1.
</event>
<event>
 6    1  0.1226227E-002  0.2064202E+03  0.7546771E-02  0.1050863E+00
        -11   -1    0    0    0    0  0.00000000000E+00  0.00000000000E+00  0.18250000000E+03  0.18250000000E+03  0.00000000000E+00 0. -1.
         11   -1    0    0    0    0 -0.00000000000E+00 -0.00000000000E+00 -0.18250000000E+03  0.18250000000E+03  0.00000000000E+00 0.  1.
        -11    1    1    2    0    0  0.11889878689E+01  0.22115175768E+01  0.14838324562E+03  0.14840448808E+03  0.00000000000E+00 0. -1.
         11    1    1    2    0    0 -0.14573869546E+02 -0.74353357533E+01 -0.15773354846E+03  0.15857980389E+03  0.00000000000E+00 0.  1.
        -15    1    1    2    0    0  0.89087271115E+01  0.10137925522E+02 -0.22026480787E+02  0.25893368601E+02  0.17770000000E+01 0. -1.
         15    1    1    2    0    0  0.44761545656E+01 -0.49141073457E+01  0.31376783624E+02  0.32122339428E+02  0.17770000000E+01 0. -1.
</event>
<event>
 6    1  0.1226227E-002  0.1828464E+03  0.7546771E-02  0.1068179E+00
        -11   -1    0    0    0    0  0.00000000000E+00  0.00000000000E+00  0.18250000000E+03  0.18250000000E+03  0.00000000000E+00 0. -1.
         11   -1    0    0    0    0 -0.00000000000E+00 -0.00000000000E+00 -0.18250000000E+03  0.18250000000E+03  0.00000000000E+00 0. -1.
        -11    1    1    2    0    0 -0.11475876382E+01 -0.18011164718E+01  0.12861655437E+03  0.12863428406E+03  0.00000000000E+00 0. -1.
         11    1    1    2    0    0  0.43352794641E+01  0.16257131022E+01 -0.18209474922E+03  0.18215360355E+03  0.00000000000E+00 0. -1.
        -15    1    1    2    0    0 -0.36541823020E+01 -0.90969490842E-01  0.11575278297E+02  0.12268093593E+02  0.17770000000E+01 0.  1.
         15    1    1    2    0    0  0.46649047618E+00  0.26637286045E+00  0.41902916559E+02  0.41944018799E+02  0.17770000000E+01 0. -1.
</event>
<event>
 6    1  0.1226227E-002  0.1920280E+03  0.7546771E-02  0.1061114E+00
        -11   -1    0    0    0    0  0.00000000000E+00  0.00000000000E+00  0.18250000000E+03  0.18250000000E+03  0.00000000000E+00 0. -1.
         11   -1    0    0    0    0 -0.00000000000E+00 -0.00000000000E+00 -0.18250000000E+03  0.18250000000E+03  0.00000000000E+00 0.  1.
        -11    1    1    2    0    0  0.57494332712E+01  0.18849369195E+02  0.17184577725E+03  0.17297203780E+03  0.00000000000E+00 0. -1.
         11    1    1    2    0    0  0.13507214896E+01  0.21385694543E+01 -0.47807500025E+02  0.47874366695E+02  0.00000000000E+00 0.  1.
        -15    1    1    2    0    0 -0.87857490309E+01 -0.14892744961E+02  0.23979638345E+01  0.17546828718E+02  0.17770000000E+01 0. -1.
         15    1    1    2    0    0  0.16855942701E+01 -0.60951936876E+01 -0.12643624106E+03  0.12660676679E+03  0.17770000000E+01 0.  1.
</event>
<event>
 6    1  0.1226227E-002  0.1849487E+03  0.7546771E-02  0.1066522E+00
        -11   -1    0    0    0    0  0.00000000000E+00  0.00000000000E+00  0.18250000000E+03  0.18250000000E+03  0.00000000000E+00 0.  1.
         11   -1    0    0    0    0 -0.00000000000E+00 -0.00000000000E+00 -0.18250000000E+03  0.18250000000E+03  0.00000000000E+00 0.  1.
        -11    1    1    2    0    0  0.65574748164E+00 -0.34486281226E+01  0.17580798597E+03  0.17584302935E+03  0.00000000000E+00 0.  1.
         11    1    1    2    0    0  0.34245009360E+01 -0.17889928538E+01 -0.18000980530E+03  0.18005126410E+03  0.00000000000E+00 0.  1.
        -15    1    1    2    0    0 -0.32868041638E+00  0.25684766627E+01  0.17458993454E+01  0.35931875414E+01  0.17770000000E+01 0.  1.
         15    1    1    2    0    0 -0.37515680013E+01  0.26691443136E+01  0.24559199798E+01  0.55125190052E+01  0.17770000000E+01 0. -1.
</event>
<event>
 6    1  0.1226227E-002  0.1974676E+03  0.7546771E-02  0.1057128E+00
        -11   -1    0    0    0    0  0.00000000000E+00  0.00000000000E+00  0.18250000000E+03  0.18250000000E+03  0.00000000000E+00 0. -1.
         11   -1    0    0    0    0 -0.00000000000E+00 -0.00000000000E+00 -0.18250000000E+03  0.18250000000E+03  0.00000000000E+00 0. -1.
        -11    1    1    2    0    0 -0.89844284757E+01 -0.14600404573E+01  0.16728493043E+03  0.16753238380E+03  0.00000000000E+00 0. -1.
         11    1    1    2    0    0  0.15192233975E+01  0.27964052823E+01 -0.14943816882E+03  0.14947205165E+03  0.00000000000E+00 0. -1.
        -15    1    1    2    0    0 -0.24967924003E+01 -0.29958271721E+01 -0.31012690889E+02  0.31307406119E+02  0.17770000000E+01 0. -1.
         15    1    1    2    0    0  0.99619974785E+01  0.16594623471E+01  0.13165929285E+02  0.16688158436E+02  0.17770000000E+01 0.  1.
</event>
<event>
 6    1  0.1226227E-002  0.1861558E+03  0.7546771E-02  0.1065581E+00
        -11   -1    0    0    0    0  0.00000000000E+00  0.00000000000E+00  0.18250000000E+03  0.18250000000E+03  0.00000000000E+00 0. -1.
         11   -1    0    0    0    0 -0.00000000000E+00 -0.00000000000E+00 -0.18250000000E+03  0.18250000000E+03  0.00000000000E+00 0. -1.
        -11    1    1    2    0    0 -0.52458538807E+01 -0.53410174334E+01  0.12274126699E+03  0.12296936233E+03  0.00000000000E+00 0. -1.
         11    1    1    2    0    0  0.10988532148E+02 -0.43107726860E+01 -0.17845426485E+03  0.17884422060E+03  0.00000000000E+00 0. -1.
        -15    1    1    2    0    0 -0.15024769232E+02  0.12602109074E+02  0.40542253067E+02  0.45070931390E+02  0.17770000000E+01 0.  1.
         15    1    1    2    0    0  0.92820909639E+01 -0.29503189548E+01  0.15170744798E+02  0.18115485677E+02  0.17770000000E+01 0. -1.
</event>
<event>
 6    1  0.1226227E-002  0.1829860E+03  0.7546771E-02  0.1068069E+00
        -11   -1    0    0    0    0  0.00000000000E+00  0.00000000000E+00  0.18250000000E+03  0.18250000000E+03  0.00000000000E+00 0.  1.
         11   -1    0    0    0    0 -0.00000000000E+00 -0.00000000000E+00 -0.18250000000E+03  0.18250000000E+03  0.00000000000E+00 0.  1.
        -11    1    1    2    0    0  0.32579948685E+00  0.39531789755E+00  0.23503863255E+02  0.23509445111E+02  0.00000000000E+00 0.  1.
         11    1    1    2    0    0 -0.37506353470E+01 -0.36891933247E+01 -0.18193795973E+03  0.18201400661E+03  0.00000000000E+00 0.  1.
        -15    1    1    2    0    0  0.17801580832E+01  0.30592847748E+01  0.71559728951E+01  0.81788668659E+01  0.17770000000E+01 0. -1.
         15    1    1    2    0    0  0.16446777769E+01  0.23459065239E+00  0.15127812358E+03  0.15129768141E+03  0.17770000000E+01 0.  1.
</event>
<event>
 6    1  0.1226227E-002  0.1838682E+03  0.7546771E-02  0.1067371E+00
        -11   -1    0    0    0    0  0.00000000000E+00  0.00000000000E+00  0.18250000000E+03  0.18250000000E+03  0.00000000000E+00 0.  1.
         11   -1    0    0    0    0 -0.00000000000E+00 -0.00000000000E+00 -0.18250000000E+03  0.18250000000E+03  0.00000000000E+00 0. -1.
        -11    1    1    2    0    0 -0.22670539136E+01  0.23705700356E+01  0.18110207784E+03  0.18113178003E+03  0.00000000000E+00 0.  1.
         11    1    1    2    0    0  0.39701447899E+00  0.22196356549E+01 -0.15726509472E+03  0.15728125896E+03  0.00000000000E+00 0. -1.
        -15    1    1    2    0    0 -0.17180014309E+01 -0.63311461337E+01 -0.18392395986E+02  0.19607980502E+02  0.17770000000E+01 0.  1.
         15    1    1    2    0    0  0.35880408655E+01  0.17409404433E+01 -0.54445871417E+01  0.69789805146E+01  0.17770000000E+01 0. -1.
</event>
<event>
 6    1  0.1226227E-002  0.1849311E+03  0.7546771E-02  0.1066536E+00
        -11   -1    0    0    0    0  0.00000000000E+00  0.00000000000E+00  0.18250000000E+03  0.18250000000E+03  0.00000000000E+00 0. -1.
         11   -1    0    0    0    0 -0.00000000000E+00 -0.00000000000E+00 -0.18250000000E+03  0.18250000000E+03  0.00000000000E+00 0. -1.
        -11    1    1    2    0    0 -0.24235424848E+00 -0.28421602446E+01  0.17686079370E+03  0.17688379507E+03  0.00000000000E+00 0. -1.
         11    1    1    2    0    0  0.25456241396E+01  0.32129524064E+01 -0.18002227534E+03  0.18006893925E+03  0.00000000000E+00 0. -1.
        -15    1    1    2    0    0  0.26275939999E-01  0.16938123159E+01  0.36819373890E+01  0.44253906634E+01  0.17770000000E+01 0. -1.
         15    1    1    2    0    0 -0.23295458311E+01 -0.20646044778E+01 -0.52045575219E+00  0.36218750142E+01  0.17770000000E+01 0. -1.
</event>
<event>
 6    1  0.1226227E-002  0.1834925E+03  0.7546771E-02  0.1067668E+00
        -11   -1    0    0    0    0  0.00000000000E+00  0.00000000000E+00  0.18250000000E+03  0.18250000000E+03  0.00000000000E+00 0. -1.
         11   -1    0    0    0    0 -0.00000000000E+00 -0.00000000000E+00 -0.18250000000E+03  0.18250000000E+03  0.00000000000E+00 0. -1.
        -11    1    1    2    0    0  0.54779489350E+01  0.20409326556E+01  0.18141335730E+03  0.18150751923E+03  0.00000000000E+00 0. -1.
         11    1    1    2    0    0  0.39398102102E+01  0.16591384652E+00 -0.14139963852E+03  0.14145461253E+03  0.00000000000E+00 0. -1.
        -15    1    1    2    0    0 -0.94053810596E+01 -0.30272612116E+01 -0.25703919121E+02  0.27594830866E+02  0.17770000000E+01 0. -1.
         15    1    1    2    0    0 -0.12378085541E-01  0.82041470948E+00 -0.14309799657E+02  0.14443037379E+02  0.17770000000E+01 0.  1.
</event>
<event>
 6    1  0.1226227E-002  0.1880072E+03  0.7546771E-02  0.1064154E+00
        -11   -1    0    0    0    0  0.00000000000E+00  0.00000000000E+00  0.18250000000E+03  0.18250000000E+03  0.00000000000E+00 0.  1.
         11   -1    0    0    0    0 -0.00000000000E+00 -0.00000000000E+00 -0.18250000000E+03  0.18250000000E+03  0.00000000000E+00 0.  1.
        -11    1    1    2    0    0 -0.14008233865E+00 -0.46906928293E+01  0.17693053640E+03  0.17699275955E+03  0.00000000000E+00 0.  1.
         11    1    1    2    0    0 -0.73712742751E+01 -0.67498480549E+01 -0.10716636481E+03  0.10763143537E+03  0.00000000000E+00 0.  1.
        -15    1    1    2    0    0  0.18486242267E+02  0.17932486389E+02 -0.55189914784E+02  0.60929464499E+02  0.17770000000E+01 0.  1.
         15    1    1    2    0    0 -0.10974885653E+02 -0.64919455049E+01 -0.14574256805E+02  0.19446340580E+02  0.17770000000E+01 0. -1.
</event>
<event>
 6    1  0.1226227E-002  0.1874921E+03  0.7546771E-02  0.1064549E+00
        -11   -1    0    0    0    0  0.00000000000E+00  0.00000000000E+00  0.18250000000E+03  0.18250000000E+03  0.00000000000E+00 0.  1.
         11   -1    0    0    0    0 -0.00000000000E+00 -0.00000000000E+00 -0.18250000000E+03  0.18250000000E+03  0.00000000000E+00 0.  1.
        -11    1    1    2    0    0 -0.21875756532E+01 -0.12142597216E+01  0.17749024232E+03  0.17750787598E+03  0.00000000000E+00 0.  1.
         11    1    1    2    0    0  0.11428995463E+01  0.22372533215E+01 -0.15062198936E+03  0.15064293943E+03  0.00000000000E+00 0.  1.
        -15    1    1    2    0    0 -0.10510078717E+01  0.61256580456E+01 -0.28325085950E+02  0.29053339345E+02  0.17770000000E+01 0.  1.
         15    1    1    2    0    0  0.20956839785E+01 -0.71486516455E+01  0.14568329894E+01  0.77958452425E+01  0.17770000000E+01 0. -1.
</event>
<event>
 6    1  0.1226227E-002  0.1484563E+03  0.7546771E-02  0.1099332E+00
        -11   -1    0    0    0    0  0.00000000000E+00  0.00000000000E+00  0.18250000000E+03  0.18250000000E+03  0.00000000000E+00 0.  1.
         11   -1    0    0    0    0 -0.00000000000E+00 -0.00000000000E+00 -0.18250000000E+03  0.18250000000E+03  0.00000000000E+00 0.  1.
        -11    1    1    2    0    0  0.16756812094E+01  0.10268617689E+02  0.14500163650E+03  0.14537443725E+03  0.00000000000E+00 0.  1.
         11    1    1    2    0    0  0.28233655462E+01  0.26873185452E+01 -0.15188434120E+03  0.15193434825E+03  0.00000000000E+00 0.  1.
        -15    1    1    2    0    0 -0.78628278242E+01  0.16084081624E+02  0.26795403857E+02  0.32274961502E+02  0.17770000000E+01 0.  1.
         15    1    1    2    0    0  0.33637810686E+01 -0.29040017857E+02 -0.19912699155E+02  0.35416253004E+02  0.17770000000E+01 0. -1.
</event>
<event>
 6    1  0.1226227E-002  0.1848846E+03  0.7546771E-02  0.1066572E+00
        -11   -1    0    0    0    0  0.00000000000E+00  0.00000000000E+00  0.18250000000E+03  0.18250000000E+03  0.00000000000E+00 0.  1.
         11   -1    0    0    0    0 -0.00000000000E+00 -0.00000000000E+00 -0.18250000000E+03  0.18250000000E+03  0.00000000000E+00 0.  1.
        -11    1    1    2    0    0  0.92287993425E+00 -0.20473320641E+01  0.15268057070E+03  0.15269708559E+03  0.00000000000E+00 0.  1.
         11    1    1    2    0    0  0.77495360313E+01  0.55757436830E+01 -0.17986217694E+03  0.18011537114E+03  0.00000000000E+00 0.  1.
        -15    1    1    2    0    0  0.16661478427E+01  0.19051824239E+00  0.16769635628E+02  0.16946703335E+02  0.17770000000E+01 0. -1.
         15    1    1    2    0    0 -0.10338563808E+02 -0.37189298612E+01  0.10411970612E+02  0.15240839936E+02  0.17770000000E+01 0.  1.
</event>
<event>
 6    1  0.1226227E-002  0.1847029E+03  0.7546771E-02  0.1066715E+00
        -11   -1    0    0    0    0  0.00000000000E+00  0.00000000000E+00  0.18250000000E+03  0.18250000000E+03  0.00000000000E+00 0.  1.
         11   -1    0    0    0    0 -0.00000000000E+00 -0.00000000000E+00 -0.18250000000E+03  0.18250000000E+03  0.00000000000E+00 0. -1.
        -11    1    1    2    0    0  0.44175352542E+01  0.27799461265E+01  0.18022152587E+03  0.18029709123E+03  0.00000000000E+00 0.  1.
         11    1    1    2    0    0  0.71955051492E+00 -0.55359291381E+00 -0.14103850753E+02  0.14133040158E+02  0.00000000000E+00 0. -1.
        -15    1    1    2    0    0  0.10106540992E+01  0.26360095210E+01 -0.16101546942E+03  0.16105002045E+03  0.17770000000E+01 0. -1.
         15    1    1    2    0    0 -0.61477398683E+01 -0.48623627336E+01 -0.51022057056E+01  0.95198481555E+01  0.17770000000E+01 0. -1.
</event>
<event>
 6    1  0.1226227E-002  0.1843949E+03  0.7546771E-02  0.1066956E+00
        -11   -1    0    0    0    0  0.00000000000E+00  0.00000000000E+00  0.18250000000E+03  0.18250000000E+03  0.00000000000E+00 0.  1.
         11   -1    0    0    0    0 -0.00000000000E+00 -0.00000000000E+00 -0.18250000000E+03  0.18250000000E+03  0.00000000000E+00 0.  1.
        -11    1    1    2    0    0  0.75299402580E+01  0.23487146361E+01  0.18043278988E+03  0.18060511656E+03  0.00000000000E+00 0.  1.
         11    1    1    2    0    0  0.26588770654E+01  0.76991455796E+00 -0.71790077854E+02  0.71843424709E+02  0.00000000000E+00 0.  1.
        -15    1    1    2    0    0 -0.40855434318E+01  0.36535637518E+00 -0.10365747975E+03  0.10375382396E+03  0.17770000000E+01 0.  1.
         15    1    1    2    0    0 -0.61032738916E+01 -0.34839855692E+01 -0.49852322828E+01  0.87976347706E+01  0.17770000000E+01 0. -1.
</event>
<event>
 6    1  0.1226227E-002  0.1863738E+03  0.7546771E-02  0.1065412E+00
        -11   -1    0    0    0    0  0.00000000000E+00  0.00000000000E+00  0.18250000000E+03  0.18250000000E+03  0.00000000000E+00 0.  1.
         11   -1    0    0    0    0 -0.00000000000E+00 -0.00000000000E+00 -0.18250000000E+03  0.18250000000E+03  0.00000000000E+00 0.  1.
        -11    1    1    2    0    0  0.45356845869E+01 -0.40895710649E+01  0.17852172043E+03  0.17862615063E+03  0.00000000000E+00 0.  1.
         11    1    1    2    0    0 -0.57813143716E+01  0.25264623238E+00 -0.14430321075E+03  0.14441919560E+03  0.00000000000E+00 0.  1.
        -15    1    1    2    0    0  0.74316491131E+01 -0.76000187884E+01 -0.11827782723E+02  0.16001370793E+02  0.17770000000E+01 0. -1.
         15    1    1    2    0    0 -0.61860193283E+01  0.11436943621E+02 -0.22390726954E+02  0.25953282972E+02  0.17770000000E+01 0.  1.
</event>
<event>
 6    1  0.1226227E-002  0.1844807E+03  0.7546771E-02  0.1066889E+00
        -11   -1    0    0    0    0  0.00000000000E+00  0.00000000000E+00  0.18250000000E+03  0.18250000000E+03  0.00000000000E+00 0.  1.
         11   -1    0    0    0    0 -0.00000000000E+00 -0.00000000000E+00 -0.18250000000E+03  0.18250000000E+03  0.00000000000E+00 0.  1.
        -11    1    1    2    0    0  0.89810886853E+00 -0.11451229126E+02  0.18015352519E+03  0.18051933383E+03  0.00000000000E+00 0.  1.
         11    1    1    2    0    0  0.51086226724E+01 -0.11826211370E+01 -0.11159814121E+03  0.11172126807E+03  0.00000000000E+00 0.  1.
        -15    1    1    2    0    0 -0.65471171326E+01  0.26377177321E+01 -0.56596664168E+02  0.57062793671E+02  0.17770000000E+01 0. -1.
         15    1    1    2    0    0  0.54038559167E+00  0.99961325314E+01 -0.11958719809E+02  0.15696604430E+02  0.17770000000E+01 0.  1.
</event>
<event>
 6    1  0.1226227E-002  0.1670117E+03  0.7546771E-02  0.1081499E+00
        -11   -1    0    0    0    0  0.00000000000E+00  0.00000000000E+00  0.18250000000E+03  0.18250000000E+03  0.00000000000E+00 0. -1.
         11   -1    0    0    0    0 -0.00000000000E+00 -0.00000000000E+00 -0.18250000000E+03  0.18250000000E+03  0.00000000000E+00 0. -1.
        -11    1    1    2    0    0  0.14785751495E+02  0.99337281027E+01  0.16619275844E+03  0.16714463903E+03  0.00000000000E+00 0. -1.
         11    1    1    2    0    0  0.86114721657E+00  0.77448520756E+01 -0.16753359343E+03  0.16771472576E+03  0.00000000000E+00 0. -1.
        -15    1    1    2    0    0 -0.72324398437E+01 -0.89493393509E+01  0.98264927889E+01  0.15235371687E+02  0.17770000000E+01 0. -1.
         15    1    1    2    0    0 -0.84144588679E+01 -0.87292408273E+01 -0.84856577967E+01  0.14905263523E+02  0.17770000000E+01 0.  1.
</event>
<event>
 6    1  0.1226227E-002  0.1765591E+03  0.7546771E-02  0.1073285E+00
        -11   -1    0    0    0    0  0.00000000000E+00  0.00000000000E+00  0.18250000000E+03  0.18250000000E+03  0.00000000000E+00 0.  1.
         11   -1    0    0    0    0 -0.00000000000E+00 -0.00000000000E+00 -0.18250000000E+03  0.18250000000E+03  0.00000000000E+00 0. -1.
        -11    1    1    2    0    0 -0.11631182073E+01  0.33801720375E+01  0.17805091549E+03  0.17808679601E+03  0.00000000000E+00 0.  1.
         11    1    1    2    0    0 -0.32724235567E+01  0.24790844184E+01 -0.17507227246E+03  0.17512040200E+03  0.00000000000E+00 0. -1.
        -15    1    1    2    0    0 -0.17774754040E+01 -0.13768621412E+01 -0.26782913715E+01  0.39225172833E+01  0.17770000000E+01 0.  1.
         15    1    1    2    0    0  0.62130171680E+01 -0.44823943147E+01 -0.30035166349E+00  0.78702846990E+01  0.17770000000E+01 0. -1.
</event>
<event>
 6    1  0.1226227E-002  0.1835770E+03  0.7546771E-02  0.1067601E+00
        -11   -1    0    0    0    0  0.00000000000E+00  0.00000000000E+00  0.18250000000E+03  0.18250000000E+03  0.00000000000E+00 0. -1.
         11   -1    0    0    0    0 -0.00000000000E+00 -0.00000000000E+00 -0.18250000000E+03  0.18250000000E+03  0.00000000000E+00 0.  1.
        -11    1    1    2    0    0 -0.70558959638E+00 -0.33386156716E+01  0.18139091263E+03  0.18142300680E+03  0.00000000000E+00 0. -1.
         11    1    1    2    0    0  0.25560715603E+00  0.22281388609E+01 -0.12928512244E+03  0.12930457386E+03  0.00000000000E+00 0.  1.
        -15    1    1    2    0    0 -0.11158696450E+01  0.21275583340E+01 -0.51548771282E+02  0.51635309810E+02  0.17770000000E+01 0.  1.
         15    1    1    2    0    0  0.15658520854E+01 -0.10170815233E+01 -0.55701891207E+00  0.26371095250E+01  0.17770000000E+01 0.  1.
</event>
<event>
 6    1  0.1226227E-002  0.1826056E+03  0.7546771E-02  0.1068371E+00
        -11   -1    0    0    0    0  0.00000000000E+00  0.00000000000E+00  0.18250000000E+03  0.18250000000E+03  0.00000000000E+00 0.  1.
         11   -1    0    0    0    0 -0.00000000000E+00 -0.00000000000E+00 -0.18250000000E+03  0.18250000000E+03  0.00000000000E+00 0.  1.
        -11    1    1    2    0    0  0.33671422168E+01 -0.10608036965E+01  0.18236022449E+03  0.18239439254E+03  0.00000000000E+00 0.  1.
         11    1    1    2    0    0 -0.10371622109E+01  0.13057913589E+01 -0.12152844209E+03  0.12153988248E+03  0.00000000000E+00 0.  1.
        -15    1    1    2    0    0 -0.66906536038E+00 -0.15772002014E+01 -0.34537616479E+02  0.34625711400E+02  0.17770000000E+01 0.  1.
         15    1    1    2    0    0 -0.16609146456E+01  0.13322125389E+01 -0.26294165921E+02  0.26440013582E+02  0.17770000000E+01 0. -1.
</event>
<event>
 6    1  0.1226227E-002  0.1825937E+03  0.7546771E-02  0.1068380E+00
        -11   -1    0    0    0    0  0.00000000000E+00  0.00000000000E+00  0.18250000000E+03  0.18250000000E+03  0.00000000000E+00 0. -1.
         11   -1    0    0    0    0 -0.00000000000E+00 -0.00000000000E+00 -0.18250000000E+03  0.18250000000E+03  0.00000000000E+00 0.  1.
        -11    1    1    2    0    0  0.18879732691E+01 -0.19148005000E+01  0.18238645347E+03  0.18240627542E+03  0.00000000000E+00 0. -1.
         11    1    1    2    0    0 -0.21082605912E+01  0.42332904264E+00 -0.10494839634E+03  0.10497042376E+03  0.00000000000E+00 0.  1.
        -15    1    1    2    0    0  0.43213616840E+00 -0.81812086629E+00 -0.47699993362E+02  0.47742048125E+02  0.17770000000E+01 0.  1.
         15    1    1    2    0    0 -0.21184884632E+00  0.23095923236E+01 -0.29738063768E+02  0.29881252690E+02  0.17770000000E+01 0. -1.
</event>
<event>
 6    1  0.1226227E-002  0.1847838E+03  0.7546771E-02  0.1066651E+00
        -11   -1    0    0    0    0  0.00000000000E+00  0.00000000000E+00  0.18250000000E+03  0.18250000000E+03  0.00000000000E+00 0.  1.
         11   -1    0    0    0    0 -0.00000000000E+00 -0.00000000000E+00 -0.18250000000E+03  0.18250000000E+03  0.00000000000E+00 0.  1.
        -11    1    1    2    0    0 -0.48283681188E+01  0.21691658697E+01  0.11650770105E+03  0.11662788185E+03  0.00000000000E+00 0.  1.
         11    1    1    2    0    0 -0.16436941758E+01  0.24510252739E+01 -0.18019207857E+03  0.18021624354E+03  0.00000000000E+00 0.  1.
        -15    1    1    2    0    0  0.10457932883E+02 -0.45096143350E+01  0.62607274623E+02  0.63659512615E+02  0.17770000000E+01 0.  1.
         15    1    1    2    0    0 -0.39858705879E+01 -0.11057680869E+00  0.10771028973E+01  0.44963619989E+01  0.17770000000E+01 0. -1.
</event>
<event>
 6    1  0.1226227E-002  0.1764156E+03  0.7546771E-02  0.1073404E+00
        -11   -1    0    0    0    0  0.00000000000E+00  0.00000000000E+00  0.18250000000E+03  0.18250000000E+03  0.00000000000E+00 0. -1.
         11   -1    0    0    0    0 -0.00000000000E+00 -0.00000000000E+00 -0.18250000000E+03  0.18250000000E+03  0.00000000000E+00 0. -1.
        -11    1    1    2    0    0 -0.16356977764E+01  0.35067680480E+00  0.12473629575E+02  0.12585305567E+02  0.00000000000E+00 0. -1.
         11    1    1    2    0    0  0.20094845656E+01 -0.35963234069E+01 -0.18207290824E+03  0.18211950879E+03  0.00000000000E+00 0. -1.
        -15    1    1    2    0    0 -0.15892702065E+01 -0.54835835588E+01  0.87777307754E+02  0.87980730583E+02  0.17770000000E+01 0. -1.
         15    1    1    2    0    0  0.12154834174E+01  0.87292301610E+01  0.81821970907E+02  0.82314455056E+02  0.17770000000E+01 0.  1.
</event>
<event>
 6    1  0.1226227E-002  0.1836146E+03  0.7546771E-02  0.1067571E+00
        -11   -1    0    0    0    0  0.00000000000E+00  0.00000000000E+00  0.18250000000E+03  0.18250000000E+03  0.00000000000E+00 0. -1.
         11   -1    0    0    0    0 -0.00000000000E+00 -0.00000000000E+00 -0.18250000000E+03  0.18250000000E+03  0.00000000000E+00 0. -1.
        -11    1    1    2    0    0  0.11471757249E+01  0.20124555028E+01  0.15182814777E+03  0.15184581800E+03  0.00000000000E+00 0. -1.
         11    1    1    2    0    0 -0.78232167051E+01  0.13263221136E+01 -0.18121175842E+03  0.18138539974E+03  0.00000000000E+00 0. -1.
        -15    1    1    2    0    0 -0.71887913499E+00  0.49174028698E+00  0.14392161647E+02  0.14527582097E+02  0.17770000000E+01 0. -1.
         15    1    1    2    0    0  0.73949201151E+01 -0.38305179034E+01  0.14991448997E+02  0.17241200160E+02  0.17770000000E+01 0.  1.
</event>
<event>
 6    1  0.1226227E-002  0.1831962E+03  0.7546771E-02  0.1067902E+00
        -11   -1    0    0    0    0  0.00000000000E+00  0.00000000000E+00  0.18250000000E+03  0.18250000000E+03  0.00000000000E+00 0. -1.
         11   -1    0    0    0    0 -0.00000000000E+00 -0.00000000000E+00 -0.18250000000E+03  0.18250000000E+03  0.00000000000E+00 0. -1.
        -11    1    1    2    0    0  0.19379703413E+01 -0.56894780114E+01  0.18170440993E+03  0.18180379115E+03  0.00000000000E+00 0. -1.
         11    1    1    2    0    0  0.45622943245E+00 -0.19752739750E+01 -0.14424095837E+03  0.14425520415E+03  0.00000000000E+00 0. -1.
        -15    1    1    2    0    0 -0.34603992689E+01  0.73703913352E+01 -0.32556901682E+02  0.33606645290E+02  0.17770000000E+01 0. -1.
         15    1    1    2    0    0  0.10661994952E+01  0.29436065120E+00 -0.49065498832E+01  0.53343594098E+01  0.17770000000E+01 0. -1.
</event>
<event>
 6    1  0.1226227E-002  0.1841124E+03  0.7546771E-02  0.1067179E+00
        -11   -1    0    0    0    0  0.00000000000E+00  0.00000000000E+00  0.18250000000E+03  0.18250000000E+03  0.00000000000E+00 0. -1.
         11   -1    0    0    0    0 -0.00000000000E+00 -0.00000000000E+00 -0.18250000000E+03  0.18250000000E+03  0.00000000000E+00 0. -1.
        -11    1    1    2    0    0  0.15430481356E+01 -0.29969243223E+01  0.18085623153E+03  0.18088764202E+03  0.00000000000E+00 0. -1.
         11    1    1    2    0    0  0.36540547122E+01  0.34588783763E+01 -0.17163226247E+03  0.17170599720E+03  0.00000000000E+00 0. -1.
        -15    1    1    2    0    0 -0.68469269548E+00  0.30045496549E+00  0.32992638295E-01  0.19281843241E+01  0.17770000000E+01 0.  1.
         15    1    1    2    0    0 -0.45124101523E+01 -0.76240901945E+00 -0.92569616994E+01  0.10478176454E+02  0.17770000000E+01 0. -1.
</event>
<event>
 6    1  0.1226227E-002  0.1827017E+03  0.7546771E-02  0.1068294E+00
        -11   -1    0    0    0    0  0.00000000000E+00  0.00000000000E+00  0.18250000000E+03  0.18250000000E+03  0.00000000000E+00 0. -1.
         11   -1    0    0    0    0 -0.00000000000E+00 -0.00000000000E+00 -0.18250000000E+03  0.18250000000E+03  0.00000000000E+00 0.  1.
        -11    1    1    2    0    0 -0.37314362656E+01  0.42087130664E+01  0.18221153554E+03  0.18229832848E+03  0.00000000000E+00 0. -1.
         11    1    1    2    0    0  0.15623883123E+01  0.78136288443E+00 -0.11424824527E+03  0.11426159955E+03  0.00000000000E+00 0.  1.
        -15    1    1    2    0    0  0.32300385986E+01 -0.34311745134E+01 -0.33136899760E+02  0.33517427745E+02  0.17770000000E+01 0. -1.
         15    1    1    2    0    0 -0.10609906453E+01 -0.15589014374E+01 -0.34826390508E+02  0.34922644225E+02  0.17770000000E+01 0. -1.
</event>
<event>
 6    1  0.1226227E-002  0.1836192E+03  0.7546771E-02  0.1067567E+00
        -11   -1    0    0    0    0  0.00000000000E+00  0.00000000000E+00  0.18250000000E+03  0.18250000000E+03  0.00000000000E+00 0.  1.
         11   -1    0    0    0    0 -0.00000000000E+00 -0.00000000000E+00 -0.18250000000E+03  0.18250000000E+03  0.00000000000E+00 0.  1.
        -11    1    1    2    0    0 -0.28961773836E+01 -0.11751074714E+01  0.18135388427E+03  0.18138081503E+03  0.00000000000E+00 0.  1.
         11    1    1    2    0    0  0.37883987516E+01  0.25317482655E+01 -0.17348127796E+03  0.17354110613E+03  0.00000000000E+00 0.  1.
        -15    1    1    2    0    0 -0.14018280192E+01  0.87085612434E+00 -0.63713018734E+01  0.68172376185E+01  0.17770000000E+01 0.  1.
         15    1    1    2    0    0  0.50960665129E+00 -0.22274969184E+01 -0.15013044401E+01  0.32608412231E+01  0.17770000000E+01 0. -1.
</event>
<event>
 6    1  0.1226227E-002  0.1828338E+03  0.7546771E-02  0.1068189E+00
        -11   -1    0    0    0    0  0.00000000000E+00  0.00000000000E+00  0.18250000000E+03  0.18250000000E+03  0.00000000000E+00 0. -1.
         11   -1    0    0    0    0 -0.00000000000E+00 -0.00000000000E+00 -0.18250000000E+03  0.18250000000E+03  0.00000000000E+00 0.  1.
        -11    1    1    2    0    0  0.49241285819E+01  0.20736562428E+00  0.10219774313E+03  0.10231651257E+03  0.00000000000E+00 0. -1.
         11    1    1    2    0    0 -0.86104438870E+00  0.32674143172E+01 -0.18213490652E+03  0.18216624706E+03  0.00000000000E+00 0.  1.
        -15    1    1    2    0    0 -0.13115915902E+01 -0.26266552030E+01  0.11615760611E+02  0.12112110205E+02  0.17770000000E+01 0.  1.
         15    1    1    2    0    0 -0.27514926030E+01 -0.84812473844E+00  0.68321402778E+02  0.68405130171E+02  0.17770000000E+01 0. -1.
</event>
<event>
 6    1  0.1226227E-002  0.1995024E+03  0.7546771E-02  0.1055673E+00
        -11   -1    0    0    0    0  0.00000000000E+00  0.00000000000E+00  0.18250000000E+03  0.18250000000E+03  0.00000000000E+00 0. -1.
         11   -1    0    0    0    0 -0.00000000000E+00 -0.00000000000E+00 -0.18250000000E+03  0.18250000000E+03  0.00000000000E+00 0. -1.
        -11    1    1    2    0    0  0.39687445800E+01  0.26923751386E+01  0.44516411285E+02  0.44773995702E+02  0.00000000000E+00 0. -1.
         11    1    1    2    0    0  0.14180752716E+02 -0.12441768899E+02 -0.16441884564E+03  0.16549757751E+03  0.00000000000E+00 0. -1.
        -15    1    1    2    0    0  0.40068695539E+01  0.19113804846E+02  0.12784079003E+03  0.12933606560E+03  0.17770000000E+01 0. -1.
         15    1    1    2    0    0 -0.22156366850E+02 -0.93644110858E+01 -0.79383556808E+01  0.25392361192E+02  0.17770000000E+01 0.  1.
</event>
<event>
 6    1  0.1226227E-002  0.1845257E+03  0.7546771E-02  0.1066854E+00
        -11   -1    0    0    0    0  0.00000000000E+00  0.00000000000E+00  0.18250000000E+03  0.18250000000E+03  0.00000000000E+00 0.  1.
         11   -1    0    0    0    0 -0.00000000000E+00 -0.00000000000E+00 -0.18250000000E+03  0.18250000000E+03  0.00000000000E+00 0. -1.
        -11    1    1    2    0    0 -0.16988007726E+01 -0.30583600806E+01  0.16200773233E+03  0.16204550233E+03  0.00000000000E+00 0.  1.
         11    1    1    2    0    0  0.34741217011E+01  0.97044434672E+01 -0.18017969747E+03  0.18047428937E+03  0.00000000000E+00 0. -1.
        -15    1    1    2    0    0  0.17280885146E+01 -0.45584453424E+01  0.17147268691E+02  0.17915140704E+02  0.17770000000E+01 0.  1.
         15    1    1    2    0    0 -0.35034094431E+01 -0.20876380441E+01  0.10246964519E+01  0.45650675951E+01  0.17770000000E+01 0. -1.
</event>
<event>
 6    1  0.1226227E-002  0.1854949E+03  0.7546771E-02  0.1066096E+00
        -11   -1    0    0    0    0  0.00000000000E+00  0.00000000000E+00  0.18250000000E+03  0.18250000000E+03  0.00000000000E+00 0.  1.
         11   -1    0    0    0    0 -0.00000000000E+00 -0.00000000000E+00 -0.18250000000E+03  0.18250000000E+03  0.00000000000E+00 0. -1.
        -11    1    1    2    0    0  0.21350084250E+01 -0.51530649443E+01  0.15682586826E+03  0.15692503081E+03  0.00000000000E+00 0.  1.
         11    1    1    2    0    0  0.28515525613E+01 -0.30649481493E+01 -0.17945630248E+03  0.17950512460E+03  0.00000000000E+00 0. -1.
        -15    1    1    2    0    0 -0.85470501639E+01  0.95910340324E+01  0.14790031286E+02  0.19670860549E+02  0.17770000000E+01 0.  1.
         15    1    1    2    0    0  0.35604891776E+01 -0.13730209388E+01  0.78404029353E+01  0.88989840359E+01  0.17770000000E+01 0. -1.
</event>
<event>
 6    1  0.1226227E-002  0.1843312E+03  0.7546771E-02  0.1067006E+00
        -11   -1    0    0    0    0  0.00000000000E+00  0.00000000000E+00  0.18250000000E+03  0.18250000000E+03  0.00000000000E+00 0.  1.
         11   -1    0    0    0    0 -0.00000000000E+00 -0.00000000000E+00 -0.18250000000E+03  0.18250000000E+03  0.00000000000E+00 0.  1.
        -11    1    1    2    0    0  0.37617910439E+00 -0.27674037124E+01  0.17349998786E+03  0.17352246489E+03  0.00000000000E+00 0.  1.
         11    1    1    2    0    0  0.22693373897E+01  0.21772018656E+01 -0.18064142774E+03  0.18066880062E+03  0.00000000000E+00 0.  1.
        -15    1    1    2    0    0  0.19044298843E+01  0.76652203476E+00  0.44925195566E+01  0.52492733002E+01  0.17770000000E+01 0.  1.
         15    1    1    2    0    0 -0.45499463783E+01 -0.17632018795E+00  0.26489203221E+01  0.55594611904E+01  0.17770000000E+01 0. -1.
</event>
<event>
 6    1  0.1226227E-002  0.1835179E+03  0.7546771E-02  0.1067647E+00
        -11   -1    0    0    0    0  0.00000000000E+00  0.00000000000E+00  0.18250000000E+03  0.18250000000E+03  0.00000000000E+00 0.  1.
         11   -1    0    0    0    0 -0.00000000000E+00 -0.00000000000E+00 -0.18250000000E+03  0.18250000000E+03  0.00000000000E+00 0. -1.
        -11    1    1    2    0    0  0.44580739188E+00  0.35207715839E+01  0.14203366740E+03  0.14207799707E+03  0.00000000000E+00 0.  1.
         11    1    1    2    0    0  0.14284823435E+01 -0.37257661880E+01 -0.18143819509E+03  0.18148206670E+03  0.00000000000E+00 0. -1.
        -15    1    1    2    0    0 -0.24135763479E+01  0.10835485701E+01  0.15755370541E+01  0.35552038338E+01  0.17770000000E+01 0. -1.
         15    1    1    2    0    0  0.53928661254E+00 -0.87855396602E+00  0.37828990639E+02  0.37884732398E+02  0.17770000000E+01 0.  1.
</event>
<event>
 6    1  0.1226227E-002  0.1825699E+03  0.7546771E-02  0.1068399E+00
        -11   -1    0    0    0    0  0.00000000000E+00  0.00000000000E+00  0.18250000000E+03  0.18250000000E+03  0.00000000000E+00 0.  1.
         11   -1    0    0    0    0 -0.00000000000E+00 -0.00000000000E+00 -0.18250000000E+03  0.18250000000E+03  0.00000000000E+00 0. -1.
        -11    1    1    2    0    0 -0.18217406148E+01  0.47221996281E+01  0.18235988565E+03  0.18243011211E+03  0.00000000000E+00 0.  1.
         11    1    1    2    0    0  0.29557979405E+00 -0.52951885498E+00 -0.20910622028E+02  0.20919413740E+02  0.00000000000E+00 0. -1.
        -15    1    1    2    0    0 -0.25405776212E+00 -0.45541367744E+01 -0.72581377976E+02  0.72746263581E+02  0.17770000000E+01 0.  1.
         15    1    1    2    0    0  0.17802185829E+01  0.36145600126E+00 -0.88867885649E+02  0.88904210571E+02  0.17770000000E+01 0. -1.
</event>
<event>
 6    1  0.1226227E-002  0.1832613E+03  0.7546771E-02  0.1067850E+00
        -11   -1    0    0    0    0  0.00000000000E+00  0.00000000000E+00  0.18250000000E+03  0.18250000000E+03  0.00000000000E+00 0. -1.
         11   -1    0    0    0    0 -0.00000000000E+00 -0.00000000000E+00 -0.18250000000E+03  0.18250000000E+03  0.00000000000E+00 0. -1.
        -11    1    1    2    0    0 -0.24577787647E+01  0.12480206729E+01  0.18171776178E+03  0.18173866726E+03  0.00000000000E+00 0. -1.
         11    1    1    2    0    0  0.61474287590E+00  0.23614359749E+01 -0.15864267460E+03  0.15866143984E+03  0.00000000000E+00 0. -1.
        -15    1    1    2    0    0  0.46882399356E+00 -0.28596833713E+01 -0.21473680025E+02  0.21741072828E+02  0.17770000000E+01 0. -1.
         15    1    1    2    0    0  0.13742118953E+01 -0.74977327642E+00 -0.16014071531E+01  0.28588200659E+01  0.17770000000E+01 0.  1.
</event>
<event>
 6    1  0.1226227E-002  0.1780419E+03  0.7546771E-02  0.1072060E+00
        -11   -1    0    0    0    0  0.00000000000E+00  0.00000000000E+00  0.18250000000E+03  0.18250000000E+03  0.00000000000E+00 0.  1.
         11   -1    0    0    0    0 -0.00000000000E+00 -0.00000000000E+00 -0.18250000000E+03  0.18250000000E+03  0.00000000000E+00 0. -1.
        -11    1    1    2    0    0 -0.77232936979E+01 -0.14153274753E+01  0.17850847687E+03  0.17868108107E+03  0.00000000000E+00 0.  1.
         11    1    1    2    0    0  0.42365116430E+01 -0.10204288506E+01 -0.17737639903E+03  0.17742991923E+03  0.00000000000E+00 0. -1.
        -15    1    1    2    0    0 -0.18872412280E+01  0.38703015546E+00 -0.11678435627E+01  0.28693308246E+01  0.17770000000E+01 0.  1.
         15    1    1    2    0    0  0.53740232829E+01  0.20487261704E+01  0.35765716813E-01  0.60196688741E+01  0.17770000000E+01 0.  1.
</event>
<event>
 6    1  0.1226227E-002  0.2069400E+03  0.7546771E-02  0.1050510E+00
        -11   -1    0    0    0    0  0.00000000000E+00  0.00000000000E+00  0.18250000000E+03  0.18250000000E+03  0.00000000000E+00 0. -1.
         11   -1    0    0    0    0 -0.00000000000E+00 -0.00000000000E+00 -0.18250000000E+03  0.18250000000E+03  0.00000000000E+00 0. -1.
        -11    1    1    2    0    0 -0.84999710361E+01  0.41514475428E+01  0.15118274712E+03  0.15147840457E+03  0.00000000000E+00 0. -1.
         11    1    1    2    0    0  0.42429612109E+01  0.25439828177E+00 -0.15800280365E+03  0.15805996773E+03  0.00000000000E+00 0. -1.
        -15    1    1    2    0    0 -0.46339087547E+01 -0.13640885102E+01 -0.23299000019E+02  0.23860741370E+02  0.17770000000E+01 0.  1.
         15    1    1    2    0    0  0.88909185799E+01 -0.30417573143E+01  0.30119056542E+02  0.31600886328E+02  0.17770000000E+01 0.  1.
</event>
<event>
 6    1  0.1226227E-002  0.1864933E+03  0.7546771E-02  0.1065320E+00
        -11   -1    0    0    0    0  0.00000000000E+00  0.00000000000E+00  0.18250000000E+03  0.18250000000E+03  0.00000000000E+00 0. -1.
         11   -1    0    0    0    0 -0.00000000000E+00 -0.00000000000E+00 -0.18250000000E+03  0.18250000000E+03  0.00000000000E+00 0.  1.
        -11    1    1    2    0    0 -0.25136744332E+01  0.10046454046E+01  0.16145000301E+03  0.16147269535E+03  0.00000000000E+00 0. -1.
         11    1    1    2    0    0 -0.25629557046E+01 -0.31933815536E+01 -0.17845973944E+03  0.17850670864E+03  0.00000000000E+00 0.  1.
        -15    1    1    2    0    0 -0.17878364811E+01  0.58455459832E+01  0.14906509146E+00  0.63676303698E+01  0.17770000000E+01 0.  1.
         15    1    1    2    0    0  0.68644666189E+01 -0.36568098342E+01  0.16860671337E+02  0.18652965637E+02  0.17770000000E+01 0. -1.
</event>
<event>
 6    1  0.1226227E-002  0.1931540E+03  0.7546771E-02  0.1060277E+00
        -11   -1    0    0    0    0  0.00000000000E+00  0.00000000000E+00  0.18250000000E+03  0.18250000000E+03  0.00000000000E+00 0. -1.
         11   -1    0    0    0    0 -0.00000000000E+00 -0.00000000000E+00 -0.18250000000E+03  0.18250000000E+03  0.00000000000E+00 0.  1.
        -11    1    1    2    0    0 -0.11287501545E+01  0.92734935526E+01  0.15679908963E+03  0.15707713478E+03  0.00000000000E+00 0. -1.
         11    1    1    2    0    0 -0.25890959242E+01 -0.23243876123E+01 -0.17181077857E+03  0.17184600615E+03  0.00000000000E+00 0.  1.
        -15    1    1    2    0    0 -0.38176497306E+00  0.12591859341E+02  0.66746286989E+01  0.14366943427E+02  0.17770000000E+01 0.  1.
         15    1    1    2    0    0  0.40996110517E+01 -0.19540965281E+02  0.83370602408E+01  0.21709915646E+02  0.17770000000E+01 0. -1.
</event>
<event>
 6    1  0.1226227E-002  0.1832338E+03  0.7546771E-02  0.1067872E+00
        -11   -1    0    0    0    0  0.00000000000E+00  0.00000000000E+00  0.18250000000E+03  0.18250000000E+03  0.00000000000E+00 0.  1.
         11   -1    0    0    0    0 -0.00000000000E+00 -0.00000000000E+00 -0.18250000000E+03  0.18250000000E+03  0.00000000000E+00 0.  1.
        -11    1    1    2    0    0 -0.31217496007E+01  0.18838179393E+01  0.12016857671E+03  0.12022387832E+03  0.00000000000E+00 0.  1.
         11    1    1    2    0    0 -0.28233741004E+01  0.15644684521E+01 -0.18173755670E+03  0.18176621940E+03  0.00000000000E+00 0.  1.
        -15    1    1    2    0    0  0.10454187434E+01 -0.16667222734E+00  0.13349595435E+01  0.24618135517E+01  0.17770000000E+01 0. -1.
         15    1    1    2    0    0  0.48997049577E+01 -0.32816141640E+01  0.60234020443E+02  0.60548088722E+02  0.17770000000E+01 0.  1.
</event>
<event>
 6    1  0.1226227E-002  0.1844914E+03  0.7546771E-02  0.1066881E+00
        -11   -1    0    0    0    0  0.00000000000E+00  0.00000000000E+00  0.18250000000E+03  0.18250000000E+03  0.00000000000E+00 0. -1.
         11   -1    0    0    0    0 -0.00000000000E+00 -0.00000000000E+00 -0.18250000000E+03  0.18250000000E+03  0.00000000000E+00 0.  1.
        -11    1    1    2    0    0  0.75344053763E+01  0.11325215814E-01  0.18035130624E+03  0.18050861768E+03  0.00000000000E+00 0. -1.
         11    1    1    2    0    0 -0.24261508240E+01 -0.12583696129E+02 -0.99322543591E+02  0.10014590996E+03  0.00000000000E+00 0.  1.
        -15    1    1    2    0    0 -0.11767956153E+02  0.45078014820E+01 -0.47734940506E+02  0.49402300962E+02  0.17770000000E+01 0.  1.
         15    1    1    2    0    0  0.66597016004E+01  0.80645694313E+01 -0.33293822146E+02  0.34943171401E+02  0.17770000000E+01 0. -1.
</event>
<event>
 6    1  0.1226227E-002  0.1838181E+03  0.7546771E-02  0.1067410E+00
        -11   -1    0    0    0    0  0.00000000000E+00  0.00000000000E+00  0.18250000000E+03  0.18250000000E+03  0.00000000000E+00 0. -1.
         11   -1    0    0    0    0 -0.00000000000E+00 -0.00000000000E+00 -0.18250000000E+03  0.18250000000E+03  0.00000000000E+00 0. -1.
        -11    1    1    2    0    0 -0.38007801640E+01 -0.14108794810E+01  0.15442318972E+03  0.15447639961E+03  0.00000000000E+00 0. -1.
         11    1    1    2    0    0  0.18627688347E+01 -0.22392002746E+01 -0.18115851878E+03  0.18118193302E+03  0.00000000000E+00 0. -1.
        -15    1    1    2    0    0  0.38915994660E+01  0.23723443162E+01  0.37342847201E+01  0.61542810571E+01  0.17770000000E+01 0.  1.
         15    1    1    2    0    0 -0.19535881368E+01  0.12777354394E+01  0.23001044338E+02  0.23187386315E+02  0.17770000000E+01 0. -1.
</event>
<event>
 6    1  0.1226227E-002  0.1769284E+03  0.7546771E-02  0.1072978E+00
        -11   -1    0    0    0    0  0.00000000000E+00  0.00000000000E+00  0.18250000000E+03  0.18250000000E+03  0.00000000000E+00 0. -1.
         11   -1    0    0    0    0 -0.00000000000E+00 -0.00000000000E+00 -0.18250000000E+03  0.18250000000E+03  0.00000000000E+00 0. -1.
        -11    1    1    2    0    0  0.12640970311E+01 -0.24412005945E+01  0.17675378264E+03  0.17677515967E+03  0.00000000000E+00 0. -1.
         11    1    1    2    0    0  0.30359118237E+01 -0.96057253678E+00 -0.17709556228E+03  0.17712418706E+03  0.00000000000E+00 0. -1.
        -15    1    1    2    0    0 -0.11488506757E+01  0.46677025427E+01  0.34398731556E+01  0.61723383923E+01  0.17770000000E+01 0.  1.
         15    1    1    2    0    0 -0.31511581791E+01 -0.12659294114E+01 -0.30980935087E+01  0.49283148776E+01  0.17770000000E+01 0. -1.
</event>
<event>
 6    1  0.1226227E-002  0.1896986E+03  0.7546771E-02  0.1062865E+00
        -11   -1    0    0    0    0  0.00000000000E+00  0.00000000000E+00  0.18250000000E+03  0.18250000000E+03  0.00000000000E+00 0.  1.
         11   -1    0    0    0    0 -0.00000000000E+00 -0.00000000000E+00 -0.18250000000E+03  0.18250000000E+03  0.00000000000E+00 0. -1.
        -11    1    1    2    0    0  0.76076460725E+01 -0.56502626443E+01  0.17504507314E+03  0.17530139583E+03  0.00000000000E+00 0.  1.
         11    1    1    2    0    0  0.34718573122E+01  0.20790141895E-01 -0.15153815320E+03  0.15157792089E+03  0.00000000000E+00 0. -1.
        -15    1    1    2    0    0 -0.73411692723E+01  0.91933912376E+01  0.19739996157E+01  0.12060912578E+02  0.17770000000E+01 0. -1.
         15    1    1    2    0    0 -0.37383341124E+01 -0.35639187352E+01 -0.25480919560E+02  0.26059770707E+02  0.17770000000E+01 0. -1.
</event>
<event>
 6    1  0.1226227E-002  0.1927977E+03  0.7546771E-02  0.1060541E+00
        -11   -1    0    0    0    0  0.00000000000E+00  0.00000000000E+00  0.18250000000E+03  0.18250000000E+03  0.00000000000E+00 0. -1.
         11   -1    0    0    0    0 -0.00000000000E+00 -0.00000000000E+00 -0.18250000000E+03  0.18250000000E+03  0.00000000000E+00 0.  1.
        -11    1    1    2    0    0 -0.10971096268E+02 -0.92142875609E+01  0.17160530283E+03  0.17220234612E+03  0.00000000000E+00 0. -1.
         11    1    1    2    0    0 -0.23589246638E+01  0.28714251448E+00 -0.15100196315E+03  0.15102066034E+03  0.00000000000E+00 0.  1.
        -15    1    1    2    0    0  0.14522517541E+02  0.20159186160E+02 -0.14159826700E+02  0.28652307473E+02  0.17770000000E+01 0.  1.
         15    1    1    2    0    0 -0.11924966093E+01 -0.11232041113E+02 -0.64435129865E+01  0.13124686067E+02  0.17770000000E+01 0. -1.
</event>
<event>
 6    1  0.1226227E-002  0.1868753E+03  0.7546771E-02  0.1065024E+00
        -11   -1    0    0    0    0  0.00000000000E+00  0.00000000000E+00  0.18250000000E+03  0.18250000000E+03  0.00000000000E+00 0. -1.
         11   -1    0    0    0    0 -0.00000000000E+00 -0.00000000000E+00 -0.18250000000E+03  0.18250000000E+03  0.00000000000E+00 0.  1.
        -11    1    1    2    0    0  0.58612696707E+01  0.59838988927E+01  0.17792765770E+03  0.17812471166E+03  0.00000000000E+00 0. -1.
         11    1    1    2    0    0 -0.71958301258E+01  0.18074157259E+01 -0.15193439365E+03  0.15211543871E+03  0.00000000000E+00 0.  1.
        -15    1    1    2    0    0  0.63124720487E+01  0.38700788103E+01 -0.18304681211E+02  0.19825334716E+02  0.17770000000E+01 0.  1.
         15    1    1    2    0    0 -0.49779115937E+01 -0.11661393429E+02 -0.76885828434E+01  0.14934514913E+02  0.17770000000E+01 0. -1.
</event>
<event>
 6    1  0.1226227E-002  0.1840076E+03  0.7546771E-02  0.1067261E+00
        -11   -1    0    0    0    0  0.00000000000E+00  0.00000000000E+00  0.18250000000E+03  0.18250000000E+03  0.00000000000E+00 0.  1.
         11   -1    0    0    0    0 -0.00000000000E+00 -0.00000000000E+00 -0.18250000000E+03  0.18250000000E+03  0.00000000000E+00 0.  1.
        -11    1    1    2    0    0 -0.26628743908E+01  0.43724775658E+01  0.18091997506E+03  0.18099239441E+03  0.00000000000E+00 0.  1.
         11    1    1    2    0    0  0.20094675034E+01  0.21516250163E+01 -0.17005895194E+03  0.17008443369E+03  0.00000000000E+00 0.  1.
        -15    1    1    2    0    0  0.12889570652E+01 -0.58149271311E+01 -0.59072285559E+01  0.85748391278E+01  0.17770000000E+01 0. -1.
         15    1    1    2    0    0 -0.63555017777E+00 -0.70917545107E+00 -0.49537945626E+01  0.53483327699E+01  0.17770000000E+01 0.  1.
</event>
<event>
 6    1  0.1226227E-002  0.1862548E+03  0.7546771E-02  0.1065505E+00
        -11   -1    0    0    0    0  0.00000000000E+00  0.00000000000E+00  0.18250000000E+03  0.18250000000E+03  0.00000000000E+00 0. -1.
         11   -1    0    0    0    0 -0.00000000000E+00 -0.00000000000E+00 -0.18250000000E+03  0.18250000000E+03  0.00000000000E+00 0.  1.
        -11    1    1    2    0    0 -0.41280518540E+00  0.33783372137E+01  0.15428887232E+03  0.15432640633E+03  0.00000000000E+00 0. -1.
         11    1    1    2    0    0  0.56130780343E+00 -0.47535443731E+01 -0.17868114323E+03  0.17874524385E+03  0.00000000000E+00 0.  1.
        -15    1    1    2    0    0  0.25381699824E+00  0.33917480717E+01 -0.27050771605E+01  0.46950558564E+01  0.17770000000E+01 0. -1.
         15    1    1    2    0    0 -0.40231961627E+00 -0.20165409123E+01  0.27097348076E+02  0.27233293963E+02  0.17770000000E+01 0. -1.
</event>
<event>
 6    1  0.1226227E-002  0.1847079E+03  0.7546771E-02  0.1066711E+00
        -11   -1    0    0    0    0  0.00000000000E+00  0.00000000000E+00  0.18250000000E+03  0.18250000000E+03  0.00000000000E+00 0. -1.
         11   -1    0    0    0    0 -0.00000000000E+00 -0.00000000000E+00 -0.18250000000E+03  0.18250000000E+03  0.00000000000E+00 0. -1.
        -11    1    1    2    0    0  0.80463916068E-01  0.35445328756E+01  0.18025721868E+03  0.18029208268E+03  0.00000000000E+00 0. -1.
         11    1    1    2    0    0 -0.62286231071E+01 -0.24935834094E+01 -0.16872479829E+03  0.16885813946E+03  0.00000000000E+00 0. -1.
        -15    1    1    2    0    0  0.16316782296E+01 -0.20918929741E+01 -0.10231618503E+02  0.10718308460E+02  0.17770000000E+01 0.  1.
         15    1    1    2    0    0  0.45164809615E+01  0.10409435079E+01 -0.13008018888E+01  0.51314694012E+01  0.17770000000E+01 0. -1.
</event>
<event>
 6    1  0.1226227E-002  0.1829159E+03  0.7546771E-02  0.1068124E+00
        -11   -1    0    0    0    0  0.00000000000E+00  0.00000000000E+00  0.18250000000E+03  0.18250000000E+03  0.00000000000E+00 0. -1.
         11   -1    0    0    0    0 -0.00000000000E+00 -0.00000000000E+00 -0.18250000000E+03  0.18250000000E+03  0.00000000000E+00 0. -1.
        -11    1    1    2    0    0 -0.15599260684E+01  0.36532110536E+01  0.18204077639E+03  0.18208411130E+03  0.00000000000E+00 0. -1.
         11    1    1    2    0    0 -0.32325138357E+01  0.33459035381E+00 -0.70023767104E+02  0.70099137340E+02  0.00000000000E+00 0. -1.
        -15    1    1    2    0    0  0.40277194352E+01 -0.30480691676E+01 -0.10888968287E+03  0.10902125487E+03  0.17770000000E+01 0. -1.
         15    1    1    2    0    0  0.76472046887E+00 -0.93973223983E+00 -0.31273264159E+01  0.37954964879E+01  0.17770000000E+01 0. -1.
</event>
<event>
 6    1  0.1226227E-002  0.1672615E+03  0.7546771E-02  0.1081276E+00
        -11   -1    0    0    0    0  0.00000000000E+00  0.00000000000E+00  0.18250000000E+03  0.18250000000E+03  0.00000000000E+00 0.  1.
         11   -1    0    0    0    0 -0.00000000000E+00 -0.00000000000E+00 -0.18250000000E+03  0.18250000000E+03  0.00000000000E+00 0.  1.
        -11    1    1    2    0    0  0.13613003582E+02  0.47967353686E+01  0.16959773749E+03  0.17021079607E+03  0.00000000000E+00 0.  1.
         11    1    1    2    0    0 -0.36533465586E+01 -0.10103652511E+02 -0.16419503986E+03  0.16454616935E+03  0.00000000000E+00 0.  1.
        -15    1    1    2    0    0 -0.16643034381E+02 -0.48190810283E+01 -0.20989186677E+01  0.17543583555E+02  0.17770000000E+01 0.  1.
         15    1    1    2    0    0  0.66833773579E+01  0.10125998171E+02 -0.33037789676E+01  0.12699451025E+02  0.17770000000E+01 0. -1.
</event>
<event>
 6    1  0.1226227E-002  0.1834780E+03  0.7546771E-02  0.1067679E+00
        -11   -1    0    0    0    0  0.00000000000E+00  0.00000000000E+00  0.18250000000E+03  0.18250000000E+03  0.00000000000E+00 0. -1.
         11   -1    0    0    0    0 -0.00000000000E+00 -0.00000000000E+00 -0.18250000000E+03  0.18250000000E+03  0.00000000000E+00 0.  1.
        -11    1    1    2    0    0 -0.15779460443E+01  0.19627725408E+01  0.18150451966E+03  0.18152199053E+03  0.00000000000E+00 0. -1.
         11    1    1    2    0    0 -0.16150475138E+01 -0.17850926931E+01 -0.16533893537E+03  0.16535645885E+03  0.00000000000E+00 0.  1.
        -15    1    1    2    0    0  0.10290686969E+01  0.11495089316E+01 -0.86012821381E+00  0.25055743276E+01  0.17770000000E+01 0.  1.
         15    1    1    2    0    0  0.21639248612E+01 -0.13271887793E+01 -0.15305456073E+02  0.15615976289E+02  0.17770000000E+01 0.  1.
</event>
<event>
 6    1  0.1226227E-002  0.1853674E+03  0.7546771E-02  0.1066195E+00
        -11   -1    0    0    0    0  0.00000000000E+00  0.00000000000E+00  0.18250000000E+03  0.18250000000E+03  0.00000000000E+00 0. -1.
         11   -1    0    0    0    0 -0.00000000000E+00 -0.00000000000E+00 -0.18250000000E+03  0.18250000000E+03  0.00000000000E+00 0. -1.
        -11    1    1    2    0    0 -0.77901307532E+00  0.36142340552E+01  0.17959459070E+03  0.17963264336E+03  0.00000000000E+00 0. -1.
         11    1    1    2    0    0  0.43863583876E+01 -0.27121679109E+01 -0.16923937083E+03  0.16931792768E+03  0.00000000000E+00 0. -1.
        -15    1    1    2    0    0  0.13316892879E+01  0.37141079726E+00 -0.10407173316E+02  0.10647925985E+02  0.17770000000E+01 0.  1.
         15    1    1    2    0    0 -0.49390346001E+01 -0.12734769416E+01  0.51953440050E-01  0.54015029818E+01  0.17770000000E+01 0. -1.
</event>
<event>
 6    1  0.1226227E-002  0.1838845E+03  0.7546771E-02  0.1067358E+00
        -11   -1    0    0    0    0  0.00000000000E+00  0.00000000000E+00  0.18250000000E+03  0.18250000000E+03  0.00000000000E+00 0.  1.
         11   -1    0    0    0    0 -0.00000000000E+00 -0.00000000000E+00 -0.18250000000E+03  0.18250000000E+03  0.00000000000E+00 0.  1.
        -11    1    1    2    0    0  0.62461910043E+01 -0.20268752718E+01  0.18099644415E+03  0.18111553197E+03  0.00000000000E+00 0.  1.
         11    1    1    2    0    0  0.34729069918E+01 -0.15202669469E+01 -0.12456596042E+03  0.12462363656E+03  0.00000000000E+00 0.  1.
        -15    1    1    2    0    0 -0.32405458528E+01  0.43570285462E+01 -0.48502591906E+02  0.48837935929E+02  0.17770000000E+01 0.  1.
         15    1    1    2    0    0 -0.64785521433E+01 -0.80988632738E+00 -0.79278918230E+01  0.10422895543E+02  0.17770000000E+01 0. -1.
</event>
<event>
 6    1  0.1226227E-002  0.1846198E+03  0.7546771E-02  0.1066780E+00
        -11   -1    0    0    0    0  0.00000000000E+00  0.00000000000E+00  0.18250000000E+03  0.18250000000E+03  0.00000000000E+00 0. -1.
         11   -1    0    0    0    0 -0.00000000000E+00 -0.00000000000E+00 -0.18250000000E+03  0.18250000000E+03  0.00000000000E+00 0. -1.
        -11    1    1    2    0    0  0.13364012458E+02  0.63945341041E+01  0.17977072922E+03  0.18038015960E+03  0.00000000000E+00 0. -1.
         11    1    1    2    0    0  0.77593780880E+01 -0.12863258905E+01 -0.92460474226E+02  0.92794406495E+02  0.00000000000E+00 0. -1.
        -15    1    1    2    0    0 -0.27921799029E+00  0.41820926440E+01 -0.72815789038E+01  0.85876062964E+01  0.17770000000E+01 0. -1.
         15    1    1    2    0    0 -0.20844172556E+02 -0.92903008576E+01 -0.80028676086E+02  0.83237827606E+02  0.17770000000E+01 0.  1.
</event>
<event>
 6    1  0.1226227E-002  0.1833773E+03  0.7546771E-02  0.1067759E+00
        -11   -1    0    0    0    0  0.00000000000E+00  0.00000000000E+00  0.18250000000E+03  0.18250000000E+03  0.00000000000E+00 0. -1.
         11   -1    0    0    0    0 -0.00000000000E+00 -0.00000000000E+00 -0.18250000000E+03  0.18250000000E+03  0.00000000000E+00 0.  1.
        -11    1    1    2    0    0  0.21903102404E+01 -0.19994050997E+01  0.18159849206E+03  0.18162270617E+03  0.00000000000E+00 0. -1.
         11    1    1    2    0    0 -0.99308697778E+00  0.49207012251E+00 -0.73071609596E+02  0.73080014256E+02  0.00000000000E+00 0.  1.
        -15    1    1    2    0    0  0.18637344700E+01 -0.16441212110E+01 -0.19704736399E+01  0.36355379377E+01  0.17770000000E+01 0.  1.
         15    1    1    2    0    0 -0.30609577326E+01  0.31514561882E+01 -0.10655640882E+03  0.10666174163E+03  0.17770000000E+01 0.  1.
</event>
<event>
 6    1  0.1226227E-002  0.1731694E+03  0.7546771E-02  0.1076134E+00
        -11   -1    0    0    0    0  0.00000000000E+00  0.00000000000E+00  0.18250000000E+03  0.18250000000E+03  0.00000000000E+00 0. -1.
         11   -1    0    0    0    0 -0.00000000000E+00 -0.00000000000E+00 -0.18250000000E+03  0.18250000000E+03  0.00000000000E+00 0. -1.
        -11    1    1    2    0    0  0.97545860334E+00 -0.25533222942E+01  0.17521003448E+03  0.17523135323E+03  0.00000000000E+00 0. -1.
         11    1    1    2    0    0  0.99133366045E+01  0.23367454578E+01 -0.17100108938E+03  0.17130413652E+03  0.00000000000E+00 0. -1.
        -15    1    1    2    0    0 -0.42097156311E+01  0.63845870607E+01  0.87122823060E+00  0.78994572763E+01  0.17770000000E+01 0.  1.
         15    1    1    2    0    0 -0.66790795768E+01 -0.61680102244E+01 -0.50801733323E+01  0.10565052968E+02  0.17770000000E+01 0. -1.
</event>
<event>
 6    1  0.1226227E-002  0.1856434E+03  0.7546771E-02  0.1065980E+00
        -11   -1    0    0    0    0  0.00000000000E+00  0.00000000000E+00  0.18250000000E+03  0.18250000000E+03  0.00000000000E+00 0. -1.
         11   -1    0    0    0    0 -0.00000000000E+00 -0.00000000000E+00 -0.18250000000E+03  0.18250000000E+03  0.00000000000E+00 0. -1.
        -11    1    1    2    0    0  0.91085409654E+01  0.44514695648E+01  0.17906987730E+03  0.17935663372E+03  0.00000000000E+00 0. -1.
         11    1    1    2    0    0  0.25812059702E+01 -0.74614727762E+01 -0.48623531629E+02  0.49260369754E+02  0.00000000000E+00 0. -1.
        -15    1    1    2    0    0 -0.64070083451E+01 -0.12129622133E+02 -0.17579850922E+02  0.22369317747E+02  0.17770000000E+01 0.  1.
         15    1    1    2    0    0 -0.52827385905E+01  0.15139625345E+02 -0.11286649475E+03  0.11401367878E+03  0.17770000000E+01 0. -1.
</event>
<event>
 6    1  0.1226227E-002  0.1836532E+03  0.7546771E-02  0.1067541E+00
        -11   -1    0    0    0    0  0.00000000000E+00  0.00000000000E+00  0.18250000000E+03  0.18250000000E+03  0.00000000000E+00 0.  1.
         11   -1    0    0    0    0 -0.00000000000E+00 -0.00000000000E+00 -0.18250000000E+03  0.18250000000E+03  0.00000000000E+00 0.  1.
        -11    1    1    2    0    0  0.93459397586E+00  0.26016107861E+01  0.18132576562E+03  0.18134683654E+03  0.00000000000E+00 0.  1.
         11    1    1    2    0    0 -0.13243531109E+01  0.24038454925E+01 -0.54029900805E+02  0.54099561600E+02  0.00000000000E+00 0.  1.
        -15    1    1    2    0    0  0.93808903747E+00 -0.63433225639E+01 -0.87845878580E+01  0.11020184437E+02  0.17770000000E+01 0. -1.
         15    1    1    2    0    0 -0.54832990241E+00  0.13378662853E+01 -0.11851127696E+03  0.11853341743E+03  0.17770000000E+01 0.  1.
</event>
<event>
 6    1  0.1226227E-002  0.1836254E+03  0.7546771E-02  0.1067562E+00
        -11   -1    0    0    0    0  0.00000000000E+00  0.00000000000E+00  0.18250000000E+03  0.18250000000E+03  0.00000000000E+00 0.  1.
         11   -1    0    0    0    0 -0.00000000000E+00 -0.00000000000E+00 -0.18250000000E+03  0.18250000000E+03  0.00000000000E+00 0. -1.
        -11    1    1    2    0    0 -0.41021950257E+01  0.53509274119E+01  0.18124922145E+03  0.18137458671E+03  0.00000000000E+00 0.  1.
         11    1    1    2    0    0  0.18727184522E+01 -0.23302709977E+01 -0.14534365515E+03  0.14537439710E+03  0.00000000000E+00 0. -1.
        -15    1    1    2    0    0 -0.20818143636E+01  0.39079812501E+01 -0.11271936849E+02  0.12240120825E+02  0.17770000000E+01 0.  1.
         15    1    1    2    0    0  0.43112909371E+01 -0.69286376644E+01 -0.24633629445E+02  0.26010895372E+02  0.17770000000E+01 0. -1.
</event>
<event>
 6    1  0.1226227E-002  0.1829771E+03  0.7546771E-02  0.1068076E+00
        -11   -1    0    0    0    0  0.00000000000E+00  0.00000000000E+00  0.18250000000E+03  0.18250000000E+03  0.00000000000E+00 0.  1.
         11   -1    0    0    0    0 -0.00000000000E+00 -0.00000000000E+00 -0.18250000000E+03  0.18250000000E+03  0.00000000000E+00 0. -1.
        -11    1    1    2    0    0  0.39051423992E+01  0.33715155717E+01  0.18194972662E+03  0.18202285645E+03  0.00000000000E+00 0.  1.
         11    1    1    2    0    0  0.23180907776E+01 -0.24605936971E+01 -0.14096087884E+03  0.14100140931E+03  0.00000000000E+00 0. -1.
        -15    1    1    2    0    0 -0.63268859727E+00 -0.83191459158E-02 -0.22005239666E+02  0.22085938192E+02  0.17770000000E+01 0.  1.
         15    1    1    2    0    0 -0.55905445795E+01 -0.90260272871E+00 -0.18983608117E+02  0.19889796040E+02  0.17770000000E+01 0. -1.
</event>
<event>
 6    1  0.1226227E-002  0.1588442E+03  0.7546771E-02  0.1089018E+00
        -11   -1    0    0    0    0  0.00000000000E+00  0.00000000000E+00  0.18250000000E+03  0.18250000000E+03  0.00000000000E+00 0. -1.
         11   -1    0    0    0    0 -0.00000000000E+00 -0.00000000000E+00 -0.18250000000E+03  0.18250000000E+03  0.00000000000E+00 0.  1.
        -11    1    1    2    0    0  0.25990876619E+01  0.76765890827E+00  0.15584704732E+03  0.15587060889E+03  0.00000000000E+00 0. -1.
         11    1    1    2    0    0  0.16317494767E+02 -0.46987144523E+01 -0.16156632447E+03  0.16245619642E+03  0.00000000000E+00 0.  1.
        -15    1    1    2    0    0 -0.30808260680E+02 -0.40850062531E+01 -0.83146848044E-02  0.31128668465E+02  0.17770000000E+01 0. -1.
         15    1    1    2    0    0  0.11891678251E+02  0.80160617972E+01  0.57275918316E+01  0.15544526225E+02  0.17770000000E+01 0.  1.
</event>
<event>
 6    1  0.1226227E-002  0.1861848E+03  0.7546771E-02  0.1065559E+00
        -11   -1    0    0    0    0  0.00000000000E+00  0.00000000000E+00  0.18250000000E+03  0.18250000000E+03  0.00000000000E+00 0.  1.
         11   -1    0    0    0    0 -0.00000000000E+00 -0.00000000000E+00 -0.18250000000E+03  0.18250000000E+03  0.00000000000E+00 0.  1.
        -11    1    1    2    0    0  0.41600956070E+01 -0.34219137779E+01  0.17873403538E+03  0.17881518754E+03  0.00000000000E+00 0.  1.
         11    1    1    2    0    0  0.20461310154E-01 -0.15645152185E+01 -0.44555087627E+02  0.44582552192E+02  0.00000000000E+00 0.  1.
        -15    1    1    2    0    0 -0.14686103566E+01  0.20215270713E+01  0.30372247603E+01  0.43157677560E+01  0.17770000000E+01 0. -1.
         15    1    1    2    0    0 -0.27119465606E+01  0.29649019251E+01 -0.13721617252E+03  0.13728649251E+03  0.17770000000E+01 0.  1.
</event>
<event>
 6    1  0.1226227E-002  0.1830907E+03  0.7546771E-02  0.1067986E+00
        -11   -1    0    0    0    0  0.00000000000E+00  0.00000000000E+00  0.18250000000E+03  0.18250000000E+03  0.00000000000E+00 0.  1.
         11   -1    0    0    0    0 -0.00000000000E+00 -0.00000000000E+00 -0.18250000000E+03  0.18250000000E+03  0.00000000000E+00 0. -1.
        -11    1    1    2    0    0  0.67484296301E+00  0.26189351294E+01  0.14146118032E+03  0.14148703041E+03  0.00000000000E+00 0.  1.
         11    1    1    2    0    0  0.27823721987E+00 -0.36192178441E+01 -0.18187308896E+03  0.18190930883E+03  0.00000000000E+00 0. -1.
        -15    1    1    2    0    0  0.17239749565E+01  0.30448883486E+01  0.33351145650E+02  0.33581245955E+02  0.17770000000E+01 0. -1.
         15    1    1    2    0    0 -0.26770551394E+01 -0.20446056338E+01  0.70607629820E+01  0.80224148051E+01  0.17770000000E+01 0.  1.
</event>
<event>
 6    1  0.1226227E-002  0.1843654E+03  0.7546771E-02  0.1066980E+00
        -11   -1    0    0    0    0  0.00000000000E+00  0.00000000000E+00  0.18250000000E+03  0.18250000000E+03  0.00000000000E+00 0. -1.
         11   -1    0    0    0    0 -0.00000000000E+00 -0.00000000000E+00 -0.18250000000E+03  0.18250000000E+03  0.00000000000E+00 0.  1.
        -11    1    1    2    0    0 -0.85342432263E+00  0.44773080362E+01  0.15020568008E+03  0.15027481808E+03  0.00000000000E+00 0. -1.
         11    1    1    2    0    0 -0.28696274464E+01 -0.67965267485E+00 -0.18061054959E+03  0.18063462379E+03  0.00000000000E+00 0.  1.
        -15    1    1    2    0    0 -0.39227500249E+01  0.26579203331E+01  0.76908967110E+01  0.92065264609E+01  0.17770000000E+01 0.  1.
         15    1    1    2    0    0  0.76458017940E+01 -0.64555756944E+01  0.22713972803E+02  0.24884031669E+02  0.17770000000E+01 0.  1.
</event>
<event>
 6    1  0.1226227E-002  0.1827463E+03  0.7546771E-02  0.1068259E+00
        -11   -1    0    0    0    0  0.00000000000E+00  0.00000000000E+00  0.18250000000E+03  0.18250000000E+03  0.00000000000E+00 0.  1.
         11   -1    0    0    0    0 -0.00000000000E+00 -0.00000000000E+00 -0.18250000000E+03  0.18250000000E+03  0.00000000000E+00 0.  1.
        -11    1    1    2    0    0 -0.29703499512E+00 -0.43700028949E+01  0.18220107931E+03  0.18225372001E+03  0.00000000000E+00 0.  1.
         11    1    1    2    0    0  0.17138845454E+01  0.25680487220E+01 -0.13824227376E+03  0.13827674616E+03  0.00000000000E+00 0.  1.
        -15    1    1    2    0    0  0.55303398176E+00  0.25949072365E+00 -0.43058153213E+01  0.46979736698E+01  0.17770000000E+01 0.  1.
         15    1    1    2    0    0 -0.19698835320E+01  0.15424634493E+01 -0.39652990225E+02  0.39771560158E+02  0.17770000000E+01 0.  1.
</event>
<event>
 6    1  0.1226227E-002  0.1827057E+03  0.7546771E-02  0.1068291E+00
        -11   -1    0    0    0    0  0.00000000000E+00  0.00000000000E+00  0.18250000000E+03  0.18250000000E+03  0.00000000000E+00 0.  1.
         11   -1    0    0    0    0 -0.00000000000E+00 -0.00000000000E+00 -0.18250000000E+03  0.18250000000E+03  0.00000000000E+00 0.  1.
        -11    1    1    2    0    0  0.66362593133E+00  0.17596302483E+01  0.89049874205E+02  0.89069729953E+02  0.00000000000E+00 0.  1.
         11    1    1    2    0    0  0.40826275121E+01 -0.17116904174E+01 -0.18224051073E+03  0.18229427167E+03  0.00000000000E+00 0.  1.
        -15    1    1    2    0    0 -0.33903203758E+00 -0.26897397562E+01  0.49918585216E+02  0.50023719590E+02  0.17770000000E+01 0.  1.
         15    1    1    2    0    0 -0.44072214058E+01  0.26417999252E+01  0.43272051312E+02  0.43612278788E+02  0.17770000000E+01 0.  1.
</event>
<event>
 6    1  0.1226227E-002  0.1872395E+03  0.7546771E-02  0.1064744E+00
        -11   -1    0    0    0    0  0.00000000000E+00  0.00000000000E+00  0.18250000000E+03  0.18250000000E+03  0.00000000000E+00 0.  1.
         11   -1    0    0    0    0 -0.00000000000E+00 -0.00000000000E+00 -0.18250000000E+03  0.18250000000E+03  0.00000000000E+00 0.  1.
        -11    1    1    2    0    0 -0.13567219141E+01 -0.22121504616E+01  0.17472956698E+03  0.17474883657E+03  0.00000000000E+00 0.  1.
         11    1    1    2    0    0 -0.17293050257E+01  0.59117419934E+01 -0.17765379953E+03  0.17776054590E+03  0.00000000000E+00 0.  1.
        -15    1    1    2    0    0  0.77707219365E-02 -0.49495334934E+01 -0.25504729494E+01  0.58447055916E+01  0.17770000000E+01 0. -1.
         15    1    1    2    0    0  0.30782562178E+01  0.12499419616E+01  0.54747055019E+01  0.66459119451E+01  0.17770000000E+01 0. -1.
</event>
<event>
 6    1  0.1226227E-002  0.1892595E+03  0.7546771E-02  0.1063198E+00
        -11   -1    0    0    0    0  0.00000000000E+00  0.00000000000E+00  0.18250000000E+03  0.18250000000E+03  0.00000000000E+00 0.  1.
         11   -1    0    0    0    0 -0.00000000000E+00 -0.00000000000E+00 -0.18250000000E+03  0.18250000000E+03  0.00000000000E+00 0. -1.
        -11    1    1    2    0    0  0.56596247132E+00 -0.94974578677E+01  0.17548275695E+03  0.17574049052E+03  0.00000000000E+00 0.  1.
         11    1    1    2    0    0 -0.46955692434E+01  0.10670266122E+02 -0.15154171712E+03  0.15198945680E+03  0.00000000000E+00 0. -1.
        -15    1    1    2    0    0  0.13489920392E+02  0.25260858850E+01 -0.32844623732E+01  0.14223378086E+02  0.17770000000E+01 0.  1.
         15    1    1    2    0    0 -0.93603136204E+01 -0.36988941388E+01 -0.20656577457E+02  0.23046674601E+02  0.17770000000E+01 0. -1.
</event>
<event>
 6    1  0.1226227E-002  0.1827895E+03  0.7546771E-02  0.1068225E+00
        -11   -1    0    0    0    0  0.00000000000E+00  0.00000000000E+00  0.18250000000E+03  0.18250000000E+03  0.00000000000E+00 0.  1.
         11   -1    0    0    0    0 -0.00000000000E+00 -0.00000000000E+00 -0.18250000000E+03  0.18250000000E+03  0.00000000000E+00 0. -1.
        -11    1    1    2    0    0 -0.17231230911E+01  0.87550380829E+00  0.14147616226E+03  0.14148936408E+03  0.00000000000E+00 0.  1.
         11    1    1    2    0    0  0.19983582283E+01 -0.28217397525E+01 -0.18217771613E+03  0.18221052633E+03  0.00000000000E+00 0. -1.
        -15    1    1    2    0    0 -0.46632368204E+00  0.39281852909E+01  0.24943677320E+02  0.25317836889E+02  0.17770000000E+01 0.  1.
         15    1    1    2    0    0  0.19108854487E+00 -0.19819493467E+01  0.15757876556E+02  0.15982272698E+02  0.17770000000E+01 0.  1.
</event>
<event>
 6    1  0.1226227E-002  0.1866772E+03  0.7546771E-02  0.1065178E+00
        -11   -1    0    0    0    0  0.00000000000E+00  0.00000000000E+00  0.18250000000E+03  0.18250000000E+03  0.00000000000E+00 0. -1.
         11   -1    0    0    0    0 -0.00000000000E+00 -0.00000000000E+00 -0.18250000000E+03  0.18250000000E+03  0.00000000000E+00 0.  1.
        -11    1    1    2    0    0 -0.25518105236E+01  0.66686084332E+00  0.14485275372E+03  0.14487676384E+03  0.00000000000E+00 0. -1.
         11    1    1    2    0    0 -0.55947501801E+01 -0.25045268408E+00 -0.17823478740E+03  0.17832275064E+03  0.00000000000E+00 0.  1.
        -15    1    1    2    0    0  0.27059717896E+01 -0.11283916203E+01  0.35493424942E+02  0.35658610378E+02  0.17770000000E+01 0.  1.
         15    1    1    2    0    0  0.54405889141E+01  0.71198346102E+00 -0.21113912588E+01  0.61418751395E+01  0.17770000000E+01 0.  1.
</event>
<event>
 6    1  0.1226227E-002  0.1913057E+03  0.7546771E-02  0.1061654E+00
        -11   -1    0    0    0    0  0.00000000000E+00  0.00000000000E+00  0.18250000000E+03  0.18250000000E+03  0.00000000000E+00 0. -1.
         11   -1    0    0    0    0 -0.00000000000E+00 -0.00000000000E+00 -0.18250000000E+03  0.18250000000E+03  0.00000000000E+00 0. -1.
        -11    1    1    2    0    0  0.11432443096E+02  0.28893588036E+01  0.16489386874E+03  0.16531496332E+03  0.00000000000E+00 0. -1.
         11    1    1    2    0    0 -0.93574153416E+00  0.44208942553E+01 -0.17363553766E+03  0.17369432880E+03  0.00000000000E+00 0. -1.
        -15    1    1    2    0    0 -0.14123399686E+02  0.82286524348E+00  0.90792382596E+01  0.16903781301E+02  0.17770000000E+01 0.  1.
         15    1    1    2    0    0  0.36266981238E+01 -0.81331183024E+01 -0.33756933393E+00  0.90869265793E+01  0.17770000000E+01 0. -1.
</event>
<event>
 6    1  0.1226227E-002  0.1748772E+03  0.7546771E-02  0.1074690E+00
        -11   -1    0    0    0    0  0.00000000000E+00  0.00000000000E+00  0.18250000000E+03  0.18250000000E+03  0.00000000000E+00 0.  1.
         11   -1    0    0    0    0 -0.00000000000E+00 -0.00000000000E+00 -0.18250000000E+03  0.18250000000E+03  0.00000000000E+00 0. -1.
        -11    1    1    2    0    0  0.49624963232E+00  0.23243185447E+01  0.17414461083E+03  0.17416082855E+03  0.00000000000E+00 0.  1.
         11    1    1    2    0    0  0.10956927061E+01  0.28671972966E+01 -0.17561207642E+03  0.17563889873E+03  0.00000000000E+00 0. -1.
        -15    1    1    2    0    0  0.33508263497E+01  0.28499356898E+01 -0.17711652164E+01  0.50640819391E+01  0.17770000000E+01 0.  1.
         15    1    1    2    0    0 -0.49427686881E+01 -0.80414515311E+01  0.32386308110E+01  0.10136190782E+02  0.17770000000E+01 0. -1.
</event>
<event>
 6    1  0.1226227E-002  0.1627682E+03  0.7546771E-02  0.1085345E+00
        -11   -1    0    0    0    0  0.00000000000E+00  0.00000000000E+00  0.18250000000E+03  0.18250000000E+03  0.00000000000E+00 0.  1.
         11   -1    0    0    0    0 -0.00000000000E+00 -0.00000000000E+00 -0.18250000000E+03  0.18250000000E+03  0.00000000000E+00 0. -1.
        -11    1    1    2    0    0 -0.19595495335E+01  0.38672106955E+01  0.16665519395E+03  0.16671157376E+03  0.00000000000E+00 0.  1.
         11    1    1    2    0    0 -0.63097850214E+01  0.60999511727E+01 -0.15893180828E+03  0.15917393780E+03  0.00000000000E+00 0. -1.
        -15    1    1    2    0    0  0.98062477910E+01 -0.73903420813E+00  0.12947569827E+02  0.16355609457E+02  0.17770000000E+01 0.  1.
         15    1    1    2    0    0 -0.15369132361E+01 -0.92281276601E+01 -0.20670955499E+02  0.22758878985E+02  0.17770000000E+01 0. -1.
</event>
<event>
 6    1  0.1226227E-002  0.1456440E+03  0.7546771E-02  0.1102285E+00
        -11   -1    0    0    0    0  0.00000000000E+00  0.00000000000E+00  0.18250000000E+03  0.18250000000E+03  0.00000000000E+00 0.  1.
         11   -1    0    0    0    0 -0.00000000000E+00 -0.00000000000E+00 -0.18250000000E+03  0.18250000000E+03  0.00000000000E+00 0.  1.
        -11    1    1    2    0    0 -0.27740919879E+00  0.36303625621E+01  0.15912794969E+03  0.15916959779E+03  0.00000000000E+00 0.  1.
         11    1    1    2    0    0 -0.57588377456E+00 -0.11789899279E+01 -0.46503742107E+02  0.46522249401E+02  0.00000000000E+00 0.  1.
        -15    1    1    2    0    0 -0.14289990266E+02 -0.69422266877E+01 -0.13272387398E+03  0.13368314324E+03  0.17770000000E+01 0.  1.
         15    1    1    2    0    0  0.15143283240E+02  0.44908540535E+01  0.20099666398E+02  0.25625009575E+02  0.17770000000E+01 0. -1.
</event>
<event>
 6    1  0.1226227E-002  0.1753141E+03  0.7546771E-02  0.1074323E+00
        -11   -1    0    0    0    0  0.00000000000E+00  0.00000000000E+00  0.18250000000E+03  0.18250000000E+03  0.00000000000E+00 0.  1.
         11   -1    0    0    0    0 -0.00000000000E+00 -0.00000000000E+00 -0.18250000000E+03  0.18250000000E+03  0.00000000000E+00 0. -1.
        -11    1    1    2    0    0  0.43275664948E-01  0.23972582438E+01  0.17583061502E+03  0.17584696159E+03  0.00000000000E+00 0.  1.
         11    1    1    2    0    0 -0.91255491065E+01 -0.15859330235E+00 -0.17466962241E+03  0.17490791231E+03  0.00000000000E+00 0. -1.
        -15    1    1    2    0    0 -0.45580188706E+00 -0.39360723607E+01 -0.17137461263E+00  0.43459773638E+01  0.17770000000E+01 0. -1.
         15    1    1    2    0    0  0.95380753286E+01  0.16974074193E+01 -0.98961800211E+00  0.98991487367E+01  0.17770000000E+01 0.  1.
</event>
<event>
 6    1  0.1226227E-002  0.1869458E+03  0.7546771E-02  0.1064970E+00
        -11   -1    0    0    0    0  0.00000000000E+00  0.00000000000E+00  0.18250000000E+03  0.18250000000E+03  0.00000000000E+00 0. -1.
         11   -1    0    0    0    0 -0.00000000000E+00 -0.00000000000E+00 -0.18250000000E+03  0.18250000000E+03  0.00000000000E+00 0. -1.
        -11    1    1    2    0    0 -0.36841403940E+00  0.14137722618E+01  0.99889337827E+02  0.99900021484E+02  0.00000000000E+00 0. -1.
         11    1    1    2    0    0  0.39935327519E+01 -0.52276502859E+01 -0.17793265493E+03  0.17805422298E+03  0.00000000000E+00 0. -1.
        -15    1    1    2    0    0  0.54790242201E+01  0.16628348405E+02  0.18903736992E+02  0.25826937068E+02  0.17770000000E+01 0.  1.
         15    1    1    2    0    0 -0.91041429326E+01 -0.12814470381E+02  0.59139580111E+02  0.61218818466E+02  0.17770000000E+01 0. -1.
</event>
<event>
 6    1  0.1226227E-002  0.1830025E+03  0.7546771E-02  0.1068056E+00
        -11   -1    0    0    0    0  0.00000000000E+00  0.00000000000E+00  0.18250000000E+03  0.18250000000E+03  0.00000000000E+00 0.  1.
         11   -1    0    0    0    0 -0.00000000000E+00 -0.00000000000E+00 -0.18250000000E+03  0.18250000000E+03  0.00000000000E+00 0.  1.
        -11    1    1    2    0    0  0.48231798388E+00  0.32505012039E+00  0.36924131840E+02  0.36928712412E+02  0.00000000000E+00 0.  1.
         11    1    1    2    0    0  0.41509502990E+01  0.62452148556E+01 -0.18184295523E+03  0.18199750950E+03  0.00000000000E+00 0.  1.
        -15    1    1    2    0    0  0.21687560152E+01  0.68585634590E+00  0.99625019606E+02  0.99666825785E+02  0.17770000000E+01 0.  1.
         15    1    1    2    0    0 -0.68020242981E+01 -0.72561213219E+01  0.45293803788E+02  0.46406952300E+02  0.17770000000E+01 0. -1.
</event>
<event>
 6    1  0.1226227E-002  0.1830212E+03  0.7546771E-02  0.1068041E+00
        -11   -1    0    0    0    0  0.00000000000E+00  0.00000000000E+00  0.18250000000E+03  0.18250000000E+03  0.00000000000E+00 0. -1.
         11   -1    0    0    0    0 -0.00000000000E+00 -0.00000000000E+00 -0.18250000000E+03  0.18250000000E+03  0.00000000000E+00 0. -1.
        -11    1    1    2    0    0 -0.21711761863E+00 -0.22470336409E+01  0.80416530807E+02  0.80448211461E+02  0.00000000000E+00 0. -1.
         11    1    1    2    0    0 -0.52284734621E+01 -0.32583718927E+01 -0.18187453108E+03  0.18197884212E+03  0.00000000000E+00 0. -1.
        -15    1    1    2    0    0  0.77529808419E+01 -0.56581781716E+00  0.66121807988E+02  0.66600901513E+02  0.17770000000E+01 0. -1.
         15    1    1    2    0    0 -0.23073897612E+01  0.60712233507E+01  0.35336192288E+02  0.35972044909E+02  0.17770000000E+01 0.  1.
</event>
<event>
 6    1  0.1226227E-002  0.1844841E+03  0.7546771E-02  0.1066886E+00
        -11   -1    0    0    0    0  0.00000000000E+00  0.00000000000E+00  0.18250000000E+03  0.18250000000E+03  0.00000000000E+00 0.  1.
         11   -1    0    0    0    0 -0.00000000000E+00 -0.00000000000E+00 -0.18250000000E+03  0.18250000000E+03  0.00000000000E+00 0. -1.
        -11    1    1    2    0    0 -0.17590323739E+01 -0.57677759296E+00  0.41181682173E+02  0.41223267870E+02  0.00000000000E+00 0.  1.
         11    1    1    2    0    0 -0.62966189218E+01 -0.59411770846E+01 -0.18030815788E+03  0.18051586300E+03  0.00000000000E+00 0. -1.
        -15    1    1    2    0    0  0.67570542653E+01 -0.20538610847E+01  0.13113417536E+03  0.13133623188E+03  0.17770000000E+01 0.  1.
         15    1    1    2    0    0  0.12985970303E+01  0.85718157622E+01  0.79923003475E+01  0.11924637250E+02  0.17770000000E+01 0. -1.
</event>
<event>
 6    1  0.1226227E-002  0.1833475E+03  0.7546771E-02  0.1067782E+00
        -11   -1    0    0    0    0  0.00000000000E+00  0.00000000000E+00  0.18250000000E+03  0.18250000000E+03  0.00000000000E+00 0.  1.
         11   -1    0    0    0    0 -0.00000000000E+00 -0.00000000000E+00 -0.18250000000E+03  0.18250000000E+03  0.00000000000E+00 0. -1.
        -11    1    1    2    0    0  0.15289497896E+01  0.29400727508E+01  0.18162231015E+03  0.18165253992E+03  0.00000000000E+00 0.  1.
         11    1    1    2    0    0  0.11998578624E+01  0.28645327724E+01 -0.14835518162E+03  0.14838768521E+03  0.00000000000E+00 0. -1.
        -15    1    1    2    0    0 -0.97198002347E+00 -0.22525890744E+01 -0.26160209145E+01  0.40025238449E+01  0.17770000000E+01 0. -1.
         15    1    1    2    0    0 -0.17568276286E+01 -0.35520164488E+01 -0.30651107614E+02  0.30957251027E+02  0.17770000000E+01 0.  1.
</event>
<event>
 6    1  0.1226227E-002  0.1889290E+03  0.7546771E-02  0.1063449E+00
        -11   -1    0    0    0    0  0.00000000000E+00  0.00000000000E+00  0.18250000000E+03  0.18250000000E+03  0.00000000000E+00 0. -1.
         11   -1    0    0    0    0 -0.00000000000E+00 -0.00000000000E+00 -0.18250000000E+03  0.18250000000E+03  0.00000000000E+00 0.  1.
        -11    1    1    2    0    0 -0.18027864571E+01  0.43326439007E+01  0.10846835126E+03  0.10856981656E+03  0.00000000000E+00 0. -1.
         11    1    1    2    0    0 -0.19422467408E+01 -0.19002166128E+01 -0.17605005590E+03  0.17607102354E+03  0.00000000000E+00 0.  1.
        -15    1    1    2    0    0 -0.48243079229E+01  0.16887372411E+02  0.13364493931E+02  0.22141018967E+02  0.17770000000E+01 0.  1.
         15    1    1    2    0    0  0.85693411207E+01 -0.19319799699E+02  0.54217210716E+02  0.58218140939E+02  0.17770000000E+01 0. -1.
</event>
<event>
 6    1  0.1226227E-002  0.1840649E+03  0.7546771E-02  0.1067216E+00
        -11   -1    0    0    0    0  0.00000000000E+00  0.00000000000E+00  0.18250000000E+03  0.18250000000E+03  0.00000000000E+00 0.  1.
         11   -1    0    0    0    0 -0.00000000000E+00 -0.00000000000E+00 -0.18250000000E+03  0.18250000000E+03  0.00000000000E+00 0. -1.
        -11    1    1    2    0    0  0.21679702476E+01 -0.30056084762E+01  0.18089709708E+03  0.18093505329E+03  0.00000000000E+00 0.  1.
         11    1    1    2    0    0  0.23184594090E+01  0.51706317077E+01 -0.14551868236E+03  0.14562897240E+03  0.00000000000E+00 0. -1.
        -15    1    1    2    0    0 -0.69903112452E+01 -0.62641567773E+01 -0.26718024105E+02  0.28374542331E+02  0.17770000000E+01 0. -1.
         15    1    1    2    0    0  0.25038815887E+01  0.40991335458E+01 -0.86603906173E+01  0.10061431980E+02  0.17770000000E+01 0.  1.
</event>
<event>
 6    1  0.1226227E-002  0.1832356E+03  0.7546771E-02  0.1067871E+00
        -11   -1    0    0    0    0  0.00000000000E+00  0.00000000000E+00  0.18250000000E+03  0.18250000000E+03  0.00000000000E+00 0.  1.
         11   -1    0    0    0    0 -0.00000000000E+00 -0.00000000000E+00 -0.18250000000E+03  0.18250000000E+03  0.00000000000E+00 0.  1.
        -11    1    1    2    0    0 -0.58962460926E+01  0.35442766103E+01  0.18163413505E+03  0.18176437118E+03  0.00000000000E+00 0.  1.
         11    1    1    2    0    0  0.45063434886E+01  0.37602989439E+01 -0.23940913022E+02  0.24649833592E+02  0.00000000000E+00 0.  1.
        -15    1    1    2    0    0  0.34624367785E+01 -0.96144258318E+01 -0.14575184417E+03  0.14612044162E+03  0.17770000000E+01 0.  1.
         15    1    1    2    0    0 -0.20725341746E+01  0.23098502776E+01 -0.11941377865E+02  0.12465353606E+02  0.17770000000E+01 0. -1.
</event>
<event>
 6    1  0.1226227E-002  0.1842557E+03  0.7546771E-02  0.1067066E+00
        -11   -1    0    0    0    0  0.00000000000E+00  0.00000000000E+00  0.18250000000E+03  0.18250000000E+03  0.00000000000E+00 0. -1.
         11   -1    0    0    0    0 -0.00000000000E+00 -0.00000000000E+00 -0.18250000000E+03  0.18250000000E+03  0.00000000000E+00 0.  1.
        -11    1    1    2    0    0  0.29184182371E+01 -0.26576243046E+01  0.18070122422E+03  0.18074432928E+03  0.00000000000E+00 0. -1.
         11    1    1    2    0    0  0.27972462476E+01  0.71250150891E+00 -0.16013937990E+03  0.16016539339E+03  0.00000000000E+00 0.  1.
        -15    1    1    2    0    0 -0.32376778575E+01  0.17019560714E-01 -0.20119324144E+02  0.20455507342E+02  0.17770000000E+01 0. -1.
         15    1    1    2    0    0 -0.24779866272E+01  0.19281032350E+01 -0.44252017302E+00  0.36347699945E+01  0.17770000000E+01 0. -1.
</event>
<event>
 6    1  0.1226227E-002  0.1832943E+03  0.7546771E-02  0.1067824E+00
        -11   -1    0    0    0    0  0.00000000000E+00  0.00000000000E+00  0.18250000000E+03  0.18250000000E+03  0.00000000000E+00 0. -1.
         11   -1    0    0    0    0 -0.00000000000E+00 -0.00000000000E+00 -0.18250000000E+03  0.18250000000E+03  0.00000000000E+00 0. -1.
        -11    1    1    2    0    0 -0.23574397629E+01 -0.14036770220E+01  0.12313136925E+03  0.12316193375E+03  0.00000000000E+00 0. -1.
         11    1    1    2    0    0 -0.43695816475E+01  0.19920184485E+01 -0.18164227866E+03  0.18170574778E+03  0.00000000000E+00 0. -1.
        -15    1    1    2    0    0  0.70176539298E+01  0.54283265264E-01  0.15809922385E+02  0.17388553366E+02  0.17770000000E+01 0. -1.
         15    1    1    2    0    0 -0.29063251944E+00 -0.64262469181E+00  0.42700987016E+02  0.42743765100E+02  0.17770000000E+01 0. -1.
</event>
<event>
 6    1  0.1226227E-002  0.1827057E+03  0.7546771E-02  0.1068291E+00
        -11   -1    0    0    0    0  0.00000000000E+00  0.00000000000E+00  0.18250000000E+03  0.18250000000E+03  0.00000000000E+00 0.  1.
         11   -1    0    0    0    0 -0.00000000000E+00 -0.00000000000E+00 -0.18250000000E+03  0.18250000000E+03  0.00000000000E+00 0. -1.
        -11    1    1    2    0    0  0.93686712273E+00  0.66609272790E+00  0.81771859340E+02  0.81779938735E+02  0.00000000000E+00 0.  1.
         11    1    1    2    0    0 -0.34175037876E+01  0.18483385673E+00 -0.18226213522E+03  0.18229426604E+03  0.00000000000E+00 0. -1.
        -15    1    1    2    0    0  0.38445285872E+01 -0.68276706108E+00  0.22625626018E+02  0.23028748395E+02  0.17770000000E+01 0.  1.
         15    1    1    2    0    0 -0.13638919223E+01 -0.16815952355E+00  0.77864649859E+02  0.77897046834E+02  0.17770000000E+01 0.  1.
</event>
<event>
 6    1  0.1226227E-002  0.1894285E+03  0.7546771E-02  0.1063070E+00
        -11   -1    0    0    0    0  0.00000000000E+00  0.00000000000E+00  0.18250000000E+03  0.18250000000E+03  0.00000000000E+00 0. -1.
         11   -1    0    0    0    0 -0.00000000000E+00 -0.00000000000E+00 -0.18250000000E+03  0.18250000000E+03  0.00000000000E+00 0.  1.
        -11    1    1    2    0    0 -0.21777641840E+01 -0.19874353238E+01  0.13214750467E+03  0.13218039017E+03  0.00000000000E+00 0. -1.
         11    1    1    2    0    0 -0.33813405334E+01 -0.11160075600E+02 -0.17518383572E+03  0.17557151548E+03  0.00000000000E+00 0.  1.
        -15    1    1    2    0    0  0.11684176141E+02  0.14883694610E+02  0.64507481577E+01  0.20070232139E+02  0.17770000000E+01 0.  1.
         15    1    1    2    0    0 -0.61250714234E+01 -0.17361836860E+01  0.36585582895E+02  0.37177862210E+02  0.17770000000E+01 0. -1.
</event>
<event>
 6    1  0.1226227E-002  0.1877883E+03  0.7546771E-02  0.1064322E+00
        -11   -1    0    0    0    0  0.00000000000E+00  0.00000000000E+00  0.18250000000E+03  0.18250000000E+03  0.00000000000E+00 0.  1.
         11   -1    0    0    0    0 -0.00000000000E+00 -0.00000000000E+00 -0.18250000000E+03  0.18250000000E+03  0.00000000000E+00 0. -1.
        -11    1    1    2    0    0 -0.12949791952E+02 -0.12389622183E+01  0.17673354984E+03  0.17721168070E+03  0.00000000000E+00 0.  1.
         11    1    1    2    0    0  0.18096809160E+01  0.29163775665E+01 -0.16182458180E+03  0.16186097577E+03  0.00000000000E+00 0. -1.
        -15    1    1    2    0    0  0.11167373727E+02  0.11359945164E+01 -0.75763788038E+00  0.11390015964E+02  0.17770000000E+01 0.  1.
         15    1    1    2    0    0 -0.27262690849E-01 -0.28134098646E+01 -0.14151330164E+02  0.14537327565E+02  0.17770000000E+01 0.  1.
</event>
<event>
 6    1  0.1226227E-002  0.1846311E+03  0.7546771E-02  0.1066771E+00
        -11   -1    0    0    0    0  0.00000000000E+00  0.00000000000E+00  0.18250000000E+03  0.18250000000E+03  0.00000000000E+00 0.  1.
         11   -1    0    0    0    0 -0.00000000000E+00 -0.00000000000E+00 -0.18250000000E+03  0.18250000000E+03  0.00000000000E+00 0.  1.
        -11    1    1    2    0    0  0.29298924078E+01 -0.46796961616E+01  0.16345876257E+03  0.16355198222E+03  0.00000000000E+00 0.  1.
         11    1    1    2    0    0  0.32587916577E+01 -0.35158742552E+01 -0.18030521787E+03  0.18036893493E+03  0.00000000000E+00 0.  1.
        -15    1    1    2    0    0 -0.35785282681E+01  0.52865320877E+01  0.45068696172E+01  0.80139184440E+01  0.17770000000E+01 0.  1.
         15    1    1    2    0    0 -0.26101557973E+01  0.29090383291E+01  0.12339585684E+02  0.13065164413E+02  0.17770000000E+01 0.  1.
</event>
<event>
 6    1  0.1226227E-002  0.1811986E+03  0.7546771E-02  0.1069495E+00
        -11   -1    0    0    0    0  0.00000000000E+00  0.00000000000E+00  0.18250000000E+03  0.18250000000E+03  0.00000000000E+00 0.  1.
         11   -1    0    0    0    0 -0.00000000000E+00 -0.00000000000E+00 -0.18250000000E+03  0.18250000000E+03  0.00000000000E+00 0. -1.
        -11    1    1    2    0    0 -0.15443604152E+01 -0.21210706777E+01  0.26194355198E+01  0.37074832911E+01  0.00000000000E+00 0.  1.
         11    1    1    2    0    0  0.29457705081E+01  0.94410872322E+00 -0.18137218662E+03  0.18139856390E+03  0.00000000000E+00 0. -1.
        -15    1    1    2    0    0  0.52294599008E+01 -0.51466752852E+01  0.13216555721E+03  0.13238099470E+03  0.17770000000E+01 0.  1.
         15    1    1    2    0    0 -0.66308699938E+01  0.63236372397E+01  0.46587193893E+02  0.47512958112E+02  0.17770000000E+01 0. -1.
</event>
<event>
 6    1  0.1226227E-002  0.1843335E+03  0.7546771E-02  0.1067005E+00
        -11   -1    0    0    0    0  0.00000000000E+00  0.00000000000E+00  0.18250000000E+03  0.18250000000E+03  0.00000000000E+00 0. -1.
         11   -1    0    0    0    0 -0.00000000000E+00 -0.00000000000E+00 -0.18250000000E+03  0.18250000000E+03  0.00000000000E+00 0. -1.
        -11    1    1    2    0    0 -0.23902745775E+01  0.50399407824E+01  0.18058039578E+03  0.18066652638E+03  0.00000000000E+00 0. -1.
         11    1    1    2    0    0  0.10035412122E+01  0.23518179106E+01 -0.65755611284E+02  0.65805307976E+02  0.00000000000E+00 0. -1.
        -15    1    1    2    0    0  0.14313964011E+01 -0.15203956040E+02 -0.34085680451E+02  0.37392519516E+02  0.17770000000E+01 0.  1.
         15    1    1    2    0    0 -0.44663035840E-01  0.78121973470E+01 -0.80739104041E+02  0.81135646127E+02  0.17770000000E+01 0. -1.
</event>
<event>
 6    1  0.1226227E-002  0.1975428E+03  0.7546771E-02  0.1057074E+00
        -11   -1    0    0    0    0  0.00000000000E+00  0.00000000000E+00  0.18250000000E+03  0.18250000000E+03  0.00000000000E+00 0.  1.
         11   -1    0    0    0    0 -0.00000000000E+00 -0.00000000000E+00 -0.18250000000E+03  0.18250000000E+03  0.00000000000E+00 0. -1.
        -11    1    1    2    0    0  0.10006137434E+00 -0.10394281927E+02  0.13499428135E+03  0.13539389612E+03  0.00000000000E+00 0.  1.
         11    1    1    2    0    0 -0.50791967459E+01 -0.67588647166E+01 -0.16724360172E+03  0.16745716709E+03  0.00000000000E+00 0. -1.
        -15    1    1    2    0    0  0.25814055901E+02  0.15679018013E+02  0.10714332768E+02  0.32095977063E+02  0.17770000000E+01 0. -1.
         15    1    1    2    0    0 -0.20834920530E+02  0.14741286311E+01  0.21534987603E+02  0.30052959734E+02  0.17770000000E+01 0.  1.
</event>
<event>
 6    1  0.1226227E-002  0.1849189E+03  0.7546771E-02  0.1066545E+00
        -11   -1    0    0    0    0  0.00000000000E+00  0.00000000000E+00  0.18250000000E+03  0.18250000000E+03  0.00000000000E+00 0.  1.
         11   -1    0    0    0    0 -0.00000000000E+00 -0.00000000000E+00 -0.18250000000E+03  0.18250000000E+03  0.00000000000E+00 0.  1.
        -11    1    1    2    0    0 -0.23264401908E+00  0.10312828883E+02  0.17978538808E+03  0.18008107710E+03  0.00000000000E+00 0.  1.
         11    1    1    2    0    0 -0.71711294444E+01 -0.73770856446E+01 -0.68578345254E+02  0.69345770801E+02  0.00000000000E+00 0.  1.
        -15    1    1    2    0    0  0.63815123107E+01 -0.12702290300E+02 -0.25186401501E+02  0.28975583304E+02  0.17770000000E+01 0. -1.
         15    1    1    2    0    0  0.10222611528E+01  0.97665470612E+01 -0.86020641322E+02  0.86597568798E+02  0.17770000000E+01 0.  1.
</event>
<event>
 6    1  0.1226227E-002  0.1842013E+03  0.7546771E-02  0.1067109E+00
        -11   -1    0    0    0    0  0.00000000000E+00  0.00000000000E+00  0.18250000000E+03  0.18250000000E+03  0.00000000000E+00 0. -1.
         11   -1    0    0    0    0 -0.00000000000E+00 -0.00000000000E+00 -0.18250000000E+03  0.18250000000E+03  0.00000000000E+00 0. -1.
        -11    1    1    2    0    0 -0.25055280830E+01 -0.11812826393E+01  0.13857495294E+03  0.13860263592E+03  0.00000000000E+00 0. -1.
         11    1    1    2    0    0 -0.24841665492E+01 -0.17210503446E+01 -0.18077347714E+03  0.18079873654E+03  0.00000000000E+00 0. -1.
        -15    1    1    2    0    0 -0.11569505531E+01  0.24463155706E+01  0.37519329481E+02  0.37658741458E+02  0.17770000000E+01 0.  1.
         15    1    1    2    0    0  0.61466451853E+01  0.45601741329E+00  0.46791947125E+01  0.79398860869E+01  0.17770000000E+01 0. -1.
</event>
<event>
 6    1  0.1226227E-002  0.1839731E+03  0.7546771E-02  0.1067288E+00
        -11   -1    0    0    0    0  0.00000000000E+00  0.00000000000E+00  0.18250000000E+03  0.18250000000E+03  0.00000000000E+00 0.  1.
         11   -1    0    0    0    0 -0.00000000000E+00 -0.00000000000E+00 -0.18250000000E+03  0.18250000000E+03  0.00000000000E+00 0.  1.
        -11    1    1    2    0    0  0.44256449278E+01  0.60265619501E+00  0.18097174882E+03  0.18102685823E+03  0.00000000000E+00 0.  1.
         11    1    1    2    0    0  0.77840722913E+00 -0.33704492564E+01 -0.15606397880E+03  0.15610231044E+03  0.00000000000E+00 0.  1.
        -15    1    1    2    0    0 -0.50297960655E+01 -0.10426462307E+01 -0.45670875172E+01  0.70994349784E+01  0.17770000000E+01 0. -1.
         15    1    1    2    0    0 -0.17425609146E+00  0.38104392921E+01 -0.20340682508E+02  0.20771396358E+02  0.17770000000E+01 0. -1.
</event>
<event>
 6    1  0.1226227E-002  0.1890644E+03  0.7546771E-02  0.1063346E+00
        -11   -1    0    0    0    0  0.00000000000E+00  0.00000000000E+00  0.18250000000E+03  0.18250000000E+03  0.00000000000E+00 0.  1.
         11   -1    0    0    0    0 -0.00000000000E+00 -0.00000000000E+00 -0.18250000000E+03  0.18250000000E+03  0.00000000000E+00 0. -1.
        -11    1    1    2    0    0 -0.74941055383E-01 -0.17340348387E+01  0.95246103391E+02  0.95261916337E+02  0.00000000000E+00 0.  1.
         11    1    1    2    0    0  0.38745721855E+01  0.52143286095E+01 -0.17581563031E+03  0.17593560582E+03  0.00000000000E+00 0. -1.
        -15    1    1    2    0    0  0.30198040212E+01  0.39731007430E+01  0.83074781780E+02  0.83243509312E+02  0.17770000000E+01 0.  1.
         15    1    1    2    0    0 -0.68194351513E+01 -0.74533945138E+01 -0.25052548587E+01  0.10558968532E+02  0.17770000000E+01 0. -1.
</event>
<event>
 6    1  0.1226227E-002  0.1832336E+03  0.7546771E-02  0.1067872E+00
        -11   -1    0    0    0    0  0.00000000000E+00  0.00000000000E+00  0.18250000000E+03  0.18250000000E+03  0.00000000000E+00 0.  1.
         11   -1    0    0    0    0 -0.00000000000E+00 -0.00000000000E+00 -0.18250000000E+03  0.18250000000E+03  0.00000000000E+00 0. -1.
        -11    1    1    2    0    0 -0.84394252046E+01 -0.30404248378E+01  0.18154493160E+03  0.18176641679E+03  0.00000000000E+00 0.  1.
         11    1    1    2    0    0  0.31381298887E+01  0.22814356504E+01 -0.91985341729E+02  0.92067127146E+02  0.00000000000E+00 0. -1.
        -15    1    1    2    0    0  0.57346425769E+01 -0.56776452187E+01 -0.26641234096E+02  0.27893276320E+02  0.17770000000E+01 0.  1.
         15    1    1    2    0    0 -0.43334726104E+00  0.64366344061E+01 -0.62918355779E+02  0.63273179747E+02  0.17770000000E+01 0. -1.
</event>
<event>
 6    1  0.1226227E-002  0.1847688E+03  0.7546771E-02  0.1066663E+00
        -11   -1    0    0    0    0  0.00000000000E+00  0.00000000000E+00  0.18250000000E+03  0.18250000000E+03  0.00000000000E+00 0.  1.
         11   -1    0    0    0    0 -0.00000000000E+00 -0.00000000000E+00 -0.18250000000E+03  0.18250000000E+03  0.00000000000E+00 0. -1.
        -11    1    1    2    0    0  0.32837406485E+01 -0.20008107449E+01  0.15882234755E+03  0.15886889021E+03  0.00000000000E+00 0.  1.
         11    1    1    2    0    0  0.24919225937E+01  0.49486004052E+01 -0.18014596779E+03  0.18023115168E+03  0.00000000000E+00 0. -1.
        -15    1    1    2    0    0 -0.59908066588E+01 -0.35772686138E+01  0.35545937924E+01  0.80299116551E+01  0.17770000000E+01 0. -1.
         15    1    1    2    0    0  0.21514341664E+00  0.62947895357E+00  0.17769026446E+02  0.17870046455E+02  0.17770000000E+01 0.  1.
</event>
<event>
 6    1  0.1226227E-002  0.1828204E+03  0.7546771E-02  0.1068200E+00
        -11   -1    0    0    0    0  0.00000000000E+00  0.00000000000E+00  0.18250000000E+03  0.18250000000E+03  0.00000000000E+00 0.  1.
         11   -1    0    0    0    0 -0.00000000000E+00 -0.00000000000E+00 -0.18250000000E+03  0.18250000000E+03  0.00000000000E+00 0. -1.
        -11    1    1    2    0    0 -0.27836364053E+01 -0.13192138191E+01  0.18215358927E+03  0.18217963399E+03  0.00000000000E+00 0.  1.
         11    1    1    2    0    0  0.12438083365E+01 -0.19779225774E+01 -0.15083526771E+03  0.15085336331E+03  0.00000000000E+00 0. -1.
        -15    1    1    2    0    0  0.25681792268E+00  0.37544295714E+01 -0.19663790281E+02  0.20099355066E+02  0.17770000000E+01 0. -1.
         15    1    1    2    0    0  0.12830101460E+01 -0.45729317494E+00 -0.11654531281E+02  0.11867647638E+02  0.17770000000E+01 0.  1.
</event>
<event>
 6    1  0.1226227E-002  0.1788583E+03  0.7546771E-02  0.1071391E+00
        -11   -1    0    0    0    0  0.00000000000E+00  0.00000000000E+00  0.18250000000E+03  0.18250000000E+03  0.00000000000E+00 0. -1.
         11   -1    0    0    0    0 -0.00000000000E+00 -0.00000000000E+00 -0.18250000000E+03  0.18250000000E+03  0.00000000000E+00 0.  1.
        -11    1    1    2    0    0  0.76543803817E+00  0.30695698941E+01  0.17836179124E+03  0.17838984480E+03  0.00000000000E+00 0. -1.
         11    1    1    2    0    0  0.24269734295E+01 -0.50335362388E+01 -0.17926046827E+03  0.17934754577E+03  0.00000000000E+00 0.  1.
        -15    1    1    2    0    0 -0.25842050407E+01  0.41162680867E+00 -0.17896648650E+01  0.36343062132E+01  0.17770000000E+01 0. -1.
         15    1    1    2    0    0 -0.60820642692E+00  0.15523395361E+01  0.26883418982E+01  0.36283032198E+01  0.17770000000E+01 0.  1.
</event>
<event>
 6    1  0.1226227E-002  0.1881693E+03  0.7546771E-02  0.1064030E+00
        -11   -1    0    0    0    0  0.00000000000E+00  0.00000000000E+00  0.18250000000E+03  0.18250000000E+03  0.00000000000E+00 0. -1.
         11   -1    0    0    0    0 -0.00000000000E+00 -0.00000000000E+00 -0.18250000000E+03  0.18250000000E+03  0.00000000000E+00 0. -1.
        -11    1    1    2    0    0 -0.14760275361E+01 -0.34820226575E+01  0.11363143573E+03  0.11369435485E+03  0.00000000000E+00 0. -1.
         11    1    1    2    0    0 -0.70312298909E+01  0.41371832988E+00 -0.17669039634E+03  0.17683072560E+03  0.00000000000E+00 0. -1.
        -15    1    1    2    0    0 -0.58841423123E+01 -0.10404658266E+02  0.48288309899E+02  0.49777491362E+02  0.17770000000E+01 0.  1.
         15    1    1    2    0    0  0.14391399739E+02  0.13472962594E+02  0.14770650711E+02  0.24697428185E+02  0.17770000000E+01 0. -1.
</event>
<event>
 6    1  0.1226227E-002  0.1842264E+03  0.7546771E-02  0.1067089E+00
        -11   -1    0    0    0    0  0.00000000000E+00  0.00000000000E+00  0.18250000000E+03  0.18250000000E+03  0.00000000000E+00 0.  1.
         11   -1    0    0    0    0 -0.00000000000E+00 -0.00000000000E+00 -0.18250000000E+03  0.18250000000E+03  0.00000000000E+00 0. -1.
        -11    1    1    2    0    0 -0.71740656658E+01 -0.29928557947E+01  0.18060640039E+03  0.18077360500E+03  0.00000000000E+00 0.  1.
         11    1    1    2    0    0  0.10527636266E+01  0.24806081930E+01 -0.15856294552E+03  0.15858584243E+03  0.00000000000E+00 0. -1.
        -15    1    1    2    0    0  0.10305843635E+01 -0.66737392991E+00 -0.19401496017E+02  0.19521354174E+02  0.17770000000E+01 0. -1.
         15    1    1    2    0    0  0.50907176757E+01  0.11796215316E+01 -0.26419588481E+01  0.61191983925E+01  0.17770000000E+01 0.  1.
</event>
<event>
 6    1  0.1226227E-002  0.1873363E+03  0.7546771E-02  0.1064669E+00
        -11   -1    0    0    0    0  0.00000000000E+00  0.00000000000E+00  0.18250000000E+03  0.18250000000E+03  0.00000000000E+00 0.  1.
         11   -1    0    0    0    0 -0.00000000000E+00 -0.00000000000E+00 -0.18250000000E+03  0.18250000000E+03  0.00000000000E+00 0.  1.
        -11    1    1    2    0    0  0.14837165851E+01  0.39339998882E+01  0.14518664914E+03  0.14524751584E+03  0.00000000000E+00 0.  1.
         11    1    1    2    0    0 -0.40340361751E+00  0.31746515554E+01 -0.17763490275E+03  0.17766372681E+03  0.00000000000E+00 0.  1.
        -15    1    1    2    0    0 -0.33591606673E+00 -0.24602526765E+01 -0.41466257967E+01  0.51495550617E+01  0.17770000000E+01 0. -1.
         15    1    1    2    0    0 -0.74439690090E+00 -0.46483987670E+01  0.36594879407E+02  0.36939202287E+02  0.17770000000E+01 0.  1.
</event>
<event>
 6    1  0.1226227E-002  0.1825678E+03  0.7546771E-02  0.1068401E+00
        -11   -1    0    0    0    0  0.00000000000E+00  0.00000000000E+00  0.18250000000E+03  0.18250000000E+03  0.00000000000E+00 0.  1.
         11   -1    0    0    0    0 -0.00000000000E+00 -0.00000000000E+00 -0.18250000000E+03  0.18250000000E+03  0.00000000000E+00 0.  1.
        -11    1    1    2    0    0  0.51751066459E-01  0.12779489215E+01  0.18475840587E+02  0.18520057155E+02  0.00000000000E+00 0.  1.
         11    1    1    2    0    0  0.28000031538E+01 -0.20759123813E+01 -0.18239892512E+03  0.18243222663E+03  0.00000000000E+00 0.  1.
        -15    1    1    2    0    0 -0.32793751809E+01  0.11614621241E+01  0.72124639310E+02  0.72230358026E+02  0.17770000000E+01 0.  1.
         15    1    1    2    0    0  0.42762096062E+00 -0.36349866430E+00  0.91798445220E+02  0.91817358188E+02  0.17770000000E+01 0.  1.
</event>
<event>
 6    1  0.1226227E-002  0.1828025E+03  0.7546771E-02  0.1068214E+00
        -11   -1    0    0    0    0  0.00000000000E+00  0.00000000000E+00  0.18250000000E+03  0.18250000000E+03  0.00000000000E+00 0.  1.
         11   -1    0    0    0    0 -0.00000000000E+00 -0.00000000000E+00 -0.18250000000E+03  0.18250000000E+03  0.00000000000E+00 0.  1.
        -11    1    1    2    0    0 -0.45623474340E+01 -0.19383057918E+01  0.18213008097E+03  0.18219752588E+03  0.00000000000E+00 0.  1.
         11    1    1    2    0    0 -0.28119901789E+01  0.42356909166E+00 -0.57693799712E+02  0.57763840114E+02  0.00000000000E+00 0.  1.
        -15    1    1    2    0    0  0.25335560846E+01  0.96774580387E+00 -0.10611995172E+02  0.11096288069E+02  0.17770000000E+01 0. -1.
         15    1    1    2    0    0  0.48407815283E+01  0.54699089625E+00 -0.11382428609E+03  0.11394234593E+03  0.17770000000E+01 0.  1.
</event>
<event>
 6    1  0.1226227E-002  0.1838577E+03  0.7546771E-02  0.1067379E+00
        -11   -1    0    0    0    0  0.00000000000E+00  0.00000000000E+00  0.18250000000E+03  0.18250000000E+03  0.00000000000E+00 0. -1.
         11   -1    0    0    0    0 -0.00000000000E+00 -0.00000000000E+00 -0.18250000000E+03  0.18250000000E+03  0.00000000000E+00 0.  1.
        -11    1    1    2    0    0 -0.51401884017E+01 -0.15491754036E+01  0.16291153920E+03  0.16299997266E+03  0.00000000000E+00 0. -1.
         11    1    1    2    0    0  0.21600480223E+01  0.14235629323E+01 -0.18112383423E+03  0.18114230777E+03  0.00000000000E+00 0.  1.
        -15    1    1    2    0    0  0.41998441763E+01  0.31245328281E+01  0.14916342724E+02  0.15907746721E+02  0.17770000000E+01 0. -1.
         15    1    1    2    0    0 -0.12197037968E+01 -0.29989203567E+01  0.32959523035E+01  0.49499728529E+01  0.17770000000E+01 0.  1.
</event>
<event>
 6    1  0.1226227E-002  0.1828945E+03  0.7546771E-02  0.1068141E+00
        -11   -1    0    0    0    0  0.00000000000E+00  0.00000000000E+00  0.18250000000E+03  0.18250000000E+03  0.00000000000E+00 0. -1.
         11   -1    0    0    0    0 -0.00000000000E+00 -0.00000000000E+00 -0.18250000000E+03  0.18250000000E+03  0.00000000000E+00 0.  1.
        -11    1    1    2    0    0 -0.28258982425E+01  0.16293481470E+01  0.15589015034E+03  0.15592427473E+03  0.00000000000E+00 0. -1.
         11    1    1    2    0    0  0.37868469405E+01  0.24754954674E+01 -0.18204928612E+03  0.18210549378E+03  0.00000000000E+00 0.  1.
        -15    1    1    2    0    0 -0.66418439116E+00 -0.35817667567E+01  0.22457774341E+02  0.22820594895E+02  0.17770000000E+01 0. -1.
         15    1    1    2    0    0 -0.29676430682E+00 -0.52307685772E+00  0.37013614331E+01  0.41496365999E+01  0.17770000000E+01 0. -1.
</event>
<event>
 6    1  0.1226227E-002  0.1827115E+03  0.7546771E-02  0.1068287E+00
        -11   -1    0    0    0    0  0.00000000000E+00  0.00000000000E+00  0.18250000000E+03  0.18250000000E+03  0.00000000000E+00 0.  1.
         11   -1    0    0    0    0 -0.00000000000E+00 -0.00000000000E+00 -0.18250000000E+03  0.18250000000E+03  0.00000000000E+00 0. -1.
        -11    1    1    2    0    0 -0.16755497965E+01 -0.27189696285E+01  0.18226049004E+03  0.18228847054E+03  0.00000000000E+00 0.  1.
         11    1    1    2    0    0  0.54713535896E+00 -0.21733443285E+01 -0.13303172112E+03  0.13305059792E+03  0.00000000000E+00 0. -1.
        -15    1    1    2    0    0 -0.26635461555E+00  0.17164112034E+01 -0.24670988992E+02  0.24795814950E+02  0.17770000000E+01 0. -1.
         15    1    1    2    0    0  0.13947690531E+01  0.31759027536E+01 -0.24557779929E+02  0.24865116591E+02  0.17770000000E+01 0.  1.
</event>
<event>
 6    1  0.1226227E-002  0.1847147E+03  0.7546771E-02  0.1066705E+00
        -11   -1    0    0    0    0  0.00000000000E+00  0.00000000000E+00  0.18250000000E+03  0.18250000000E+03  0.00000000000E+00 0. -1.
         11   -1    0    0    0    0 -0.00000000000E+00 -0.00000000000E+00 -0.18250000000E+03  0.18250000000E+03  0.00000000000E+00 0. -1.
        -11    1    1    2    0    0  0.46905504606E+01  0.70625188280E+01  0.18008582210E+03  0.18028528437E+03  0.00000000000E+00 0. -1.
         11    1    1    2    0    0  0.12322511316E+01  0.30594779558E+01 -0.13116645354E+03  0.13120791662E+03  0.00000000000E+00 0. -1.
        -15    1    1    2    0    0 -0.72900448841E+01 -0.87610308960E+01 -0.12560965274E+02  0.17053914342E+02  0.17770000000E+01 0. -1.
         15    1    1    2    0    0  0.13672432919E+01 -0.13609658877E+01 -0.36358403287E+02  0.36452884672E+02  0.17770000000E+01 0.  1.
</event>
<event>
 6    1  0.1226227E-002  0.1578378E+03  0.7546771E-02  0.1089979E+00
        -11   -1    0    0    0    0  0.00000000000E+00  0.00000000000E+00  0.18250000000E+03  0.18250000000E+03  0.00000000000E+00 0. -1.
         11   -1    0    0    0    0 -0.00000000000E+00 -0.00000000000E+00 -0.18250000000E+03  0.18250000000E+03  0.00000000000E+00 0.  1.
        -11    1    1    2    0    0 -0.43620295872E+01  0.23543226119E+01  0.28706584784E+02  0.29131394526E+02  0.00000000000E+00 0. -1.
         11    1    1    2    0    0  0.25057907461E+01 -0.69144891766E+00 -0.16287943322E+03  0.16290017451E+03  0.00000000000E+00 0.  1.
        -15    1    1    2    0    0  0.12366457842E+01  0.51418019223E+01  0.15287565901E+03  0.15297742404E+03  0.17770000000E+01 0. -1.
         15    1    1    2    0    0  0.61959305683E+00 -0.68046756166E+01 -0.18702810568E+02  0.19991006927E+02  0.17770000000E+01 0.  1.
</event>
<event>
 6    1  0.1226227E-002  0.1921149E+03  0.7546771E-02  0.1061049E+00
        -11   -1    0    0    0    0  0.00000000000E+00  0.00000000000E+00  0.18250000000E+03  0.18250000000E+03  0.00000000000E+00 0.  1.
         11   -1    0    0    0    0 -0.00000000000E+00 -0.00000000000E+00 -0.18250000000E+03  0.18250000000E+03  0.00000000000E+00 0.  1.
        -11    1    1    2    0    0  0.35669869978E+01  0.32475282323E+00  0.17284799513E+03  0.17288510139E+03  0.00000000000E+00 0.  1.
         11    1    1    2    0    0 -0.26137390163E+01  0.17416888039E+01 -0.16900434419E+03  0.16903352764E+03  0.00000000000E+00 0.  1.
        -15    1    1    2    0    0  0.88948346888E+01 -0.71291591717E+01 -0.16572333358E+01  0.11655348385E+02  0.17770000000E+01 0.  1.
         15    1    1    2    0    0 -0.98480826704E+01  0.50627175446E+01 -0.21864176057E+01  0.11426022587E+02  0.17770000000E+01 0. -1.
</event>
<event>
 6    1  0.1226227E-002  0.1870352E+03  0.7546771E-02  0.1064901E+00
        -11   -1    0    0    0    0  0.00000000000E+00  0.00000000000E+00  0.18250000000E+03  0.18250000000E+03  0.00000000000E+00 0.  1.
         11   -1    0    0    0    0 -0.00000000000E+00 -0.00000000000E+00 -0.18250000000E+03  0.18250000000E+03  0.00000000000E+00 0.  1.
        -11    1    1    2    0    0  0.34836114355E+01 -0.18847558586E+00  0.15493670495E+03  0.15497597753E+03  0.00000000000E+00 0.  1.
         11    1    1    2    0    0  0.49819299569E+01  0.10588785028E+02 -0.17757966547E+03  0.17796482681E+03  0.00000000000E+00 0.  1.
        -15    1    1    2    0    0 -0.70266824763E+01 -0.46276154714E+01  0.19593686665E-01  0.85992560426E+01  0.17770000000E+01 0. -1.
         15    1    1    2    0    0 -0.14388589162E+01 -0.57726939706E+01  0.22623366835E+02  0.23459939612E+02  0.17770000000E+01 0.  1.
</event>
<event>
 6    1  0.1540665E-002  0.1831270E+03  0.7546771E-02  0.1067957E+00
        -11   -1    0    0    0    0  0.00000000000E+00  0.00000000000E+00  0.18250000000E+03  0.18250000000E+03  0.00000000000E+00 0. -1.
         11   -1    0    0    0    0 -0.00000000000E+00 -0.00000000000E+00 -0.18250000000E+03  0.18250000000E+03  0.00000000000E+00 0. -1.
        -11    1    1    2    0    0 -0.23650983708E+01  0.27486314090E+01  0.18183682559E+03  0.18187297712E+03  0.00000000000E+00 0. -1.
         11    1    1    2    0    0 -0.18546512171E+01  0.36488902804E-01 -0.26724347685E+02  0.26788650988E+02  0.00000000000E+00 0. -1.
        -15    1    1    2    0    0  0.94796054204E+00 -0.29053874863E+01 -0.47067560878E+01  0.58865259283E+01  0.17770000000E+01 0.  1.
         15    1    1    2    0    0  0.32717890459E+01  0.12026717452E+00 -0.15040572182E+03  0.15045184596E+03  0.17770000000E+01 0. -1.
</event>
<event>
 6    1  0.1226227E-002  0.1832076E+03  0.7546771E-02  0.1067893E+00
        -11   -1    0    0    0    0  0.00000000000E+00  0.00000000000E+00  0.18250000000E+03  0.18250000000E+03  0.00000000000E+00 0. -1.
         11   -1    0    0    0    0 -0.00000000000E+00 -0.00000000000E+00 -0.18250000000E+03  0.18250000000E+03  0.00000000000E+00 0. -1.
        -11    1    1    2    0    0 -0.27790435728E+01  0.21874265560E+01  0.18175800609E+03  0.18179241100E+03  0.00000000000E+00 0. -1.
         11    1    1    2    0    0 -0.26657628854E+01  0.12234061038E+01 -0.15788433944E+03  0.15791158176E+03  0.00000000000E+00 0. -1.
        -15    1    1    2    0    0  0.54702423562E+00 -0.12415226087E+01 -0.34836968057E+01  0.41393823617E+01  0.17770000000E+01 0.  1.
         15    1    1    2    0    0  0.48977822226E+01 -0.21693100511E+01 -0.20389969850E+02  0.21156624879E+02  0.17770000000E+01 0. -1.
</event>
<event>
 6    1  0.1226227E-002  0.1867764E+03  0.7546771E-02  0.1065101E+00
        -11   -1    0    0    0    0  0.00000000000E+00  0.00000000000E+00  0.18250000000E+03  0.18250000000E+03  0.00000000000E+00 0. -1.
         11   -1    0    0    0    0 -0.00000000000E+00 -0.00000000000E+00 -0.18250000000E+03  0.18250000000E+03  0.00000000000E+00 0.  1.
        -11    1    1    2    0    0 -0.43283968752E+01 -0.23819153863E+01  0.17815508497E+03  0.17822357543E+03  0.00000000000E+00 0. -1.
         11    1    1    2    0    0  0.14018703791E+01  0.73278415894E+01 -0.16825488557E+03  0.16842021559E+03  0.00000000000E+00 0.  1.
        -15    1    1    2    0    0 -0.39133535947E+01 -0.30887996950E+01  0.84728092516E+00  0.53600964430E+01  0.17770000000E+01 0. -1.
         15    1    1    2    0    0  0.68398800907E+01 -0.18571265082E+01 -0.10747480328E+02  0.12996112532E+02  0.17770000000E+01 0.  1.
</event>
<event>
 6    1  0.1226227E-002  0.1885360E+03  0.7546771E-02  0.1063749E+00
        -11   -1    0    0    0    0  0.00000000000E+00  0.00000000000E+00  0.18250000000E+03  0.18250000000E+03  0.00000000000E+00 0.  1.
         11   -1    0    0    0    0 -0.00000000000E+00 -0.00000000000E+00 -0.18250000000E+03  0.18250000000E+03  0.00000000000E+00 0.  1.
        -11    1    1    2    0    0  0.16455138328E+01  0.48681033416E+00 -0.10061769158E+02  0.10207051419E+02  0.00000000000E+00 0.  1.
         11    1    1    2    0    0  0.17594830656E+01 -0.51764697375E+01 -0.16616699476E+03  0.16625691495E+03  0.00000000000E+00 0.  1.
        -15    1    1    2    0    0 -0.62214773694E+00  0.30730797753E+02  0.43847259331E+02  0.53577130178E+02  0.17770000000E+01 0. -1.
         15    1    1    2    0    0 -0.27828491614E+01 -0.26041138349E+02  0.13238150459E+03  0.13495890346E+03  0.17770000000E+01 0.  1.
</event>
<event>
 6    1  0.1226227E-002  0.1893211E+03  0.7546771E-02  0.1063151E+00
        -11   -1    0    0    0    0  0.00000000000E+00  0.00000000000E+00  0.18250000000E+03  0.18250000000E+03  0.00000000000E+00 0. -1.
         11   -1    0    0    0    0 -0.00000000000E+00 -0.00000000000E+00 -0.18250000000E+03  0.18250000000E+03  0.00000000000E+00 0.  1.
        -11    1    1    2    0    0  0.39335834286E+01  0.87372011166E+01  0.17541736947E+03  0.17567886974E+03  0.00000000000E+00 0. -1.
         11    1    1    2    0    0 -0.55763731989E+01  0.10823219096E+02 -0.73721513399E+02  0.74720141511E+02  0.00000000000E+00 0.  1.
        -15    1    1    2    0    0  0.52212016295E+01 -0.13088671564E+02 -0.10525129693E+03  0.10620530827E+03  0.17770000000E+01 0.  1.
         15    1    1    2    0    0 -0.35784118592E+01 -0.64717486489E+01  0.35554408563E+01  0.83956804782E+01  0.17770000000E+01 0. -1.
</event>
<event>
 6    1  0.1226227E-002  0.1908555E+03  0.7546771E-02  0.1061992E+00
        -11   -1    0    0    0    0  0.00000000000E+00  0.00000000000E+00  0.18250000000E+03  0.18250000000E+03  0.00000000000E+00 0. -1.
         11   -1    0    0    0    0 -0.00000000000E+00 -0.00000000000E+00 -0.18250000000E+03  0.18250000000E+03  0.00000000000E+00 0.  1.
        -11    1    1    2    0    0 -0.25054396478E+01  0.23546951598E+01  0.16803694663E+03  0.16807211919E+03  0.00000000000E+00 0. -1.
         11    1    1    2    0    0  0.82721500314E+00 -0.39818509542E+01 -0.17409703526E+03  0.17414452937E+03  0.00000000000E+00 0.  1.
        -15    1    1    2    0    0 -0.47794297813E+00 -0.41258179775E+01  0.12750894704E+02  0.13527521881E+02  0.17770000000E+01 0.  1.
         15    1    1    2    0    0  0.21561676228E+01  0.57529737719E+01 -0.66908060698E+01  0.92558295631E+01  0.17770000000E+01 0. -1.
</event>
<event>
 6    1  0.1226227E-002  0.1844889E+03  0.7546771E-02  0.1066883E+00
        -11   -1    0    0    0    0  0.00000000000E+00  0.00000000000E+00  0.18250000000E+03  0.18250000000E+03  0.00000000000E+00 0. -1.
         11   -1    0    0    0    0 -0.00000000000E+00 -0.00000000000E+00 -0.18250000000E+03  0.18250000000E+03  0.00000000000E+00 0. -1.
        -11    1    1    2    0    0 -0.27933057258E+01  0.85787064130E+00  0.17524844831E+03  0.17527280774E+03  0.00000000000E+00 0. -1.
         11    1    1    2    0    0  0.60054477132E+01  0.40191358556E+01 -0.18036638989E+03  0.18051108957E+03  0.00000000000E+00 0. -1.
        -15    1    1    2    0    0 -0.26862199673E+01 -0.43871297172E+01  0.25462948109E+01  0.60086630070E+01  0.17770000000E+01 0.  1.
         15    1    1    2    0    0 -0.52592202003E+00 -0.48987677966E+00  0.25716467649E+01  0.32074396820E+01  0.17770000000E+01 0. -1.
</event>
<event>
 6    1  0.1226227E-002  0.1875434E+03  0.7546771E-02  0.1064510E+00
        -11   -1    0    0    0    0  0.00000000000E+00  0.00000000000E+00  0.18250000000E+03  0.18250000000E+03  0.00000000000E+00 0.  1.
         11   -1    0    0    0    0 -0.00000000000E+00 -0.00000000000E+00 -0.18250000000E+03  0.18250000000E+03  0.00000000000E+00 0. -1.
        -11    1    1    2    0    0 -0.30862447009E+01 -0.42599875639E+01  0.17737862297E+03  0.17745660959E+03  0.00000000000E+00 0.  1.
         11    1    1    2    0    0 -0.20132111672E+01 -0.27315457982E+01 -0.17202135573E+03  0.17205482030E+03  0.00000000000E+00 0. -1.
        -15    1    1    2    0    0 -0.46863672913E-01  0.38212895597E+01 -0.76909704526E+01  0.87700174233E+01  0.17770000000E+01 0.  1.
         15    1    1    2    0    0  0.51463195410E+01  0.31702438024E+01  0.23337032144E+01  0.67185526922E+01  0.17770000000E+01 0. -1.
</event>
<event>
 6    1  0.1226227E-002  0.1866906E+03  0.7546771E-02  0.1065167E+00
        -11   -1    0    0    0    0  0.00000000000E+00  0.00000000000E+00  0.18250000000E+03  0.18250000000E+03  0.00000000000E+00 0.  1.
         11   -1    0    0    0    0 -0.00000000000E+00 -0.00000000000E+00 -0.18250000000E+03  0.18250000000E+03  0.00000000000E+00 0. -1.
        -11    1    1    2    0    0 -0.52906468006E+01  0.11276368745E+01  0.15453583148E+03  0.15463048121E+03  0.00000000000E+00 0.  1.
         11    1    1    2    0    0 -0.35973609387E+01 -0.44787311054E+01 -0.17821683700E+03  0.17830939692E+03  0.00000000000E+00 0. -1.
        -15    1    1    2    0    0  0.65773594541E+01  0.64541677457E+01  0.15361887205E+01  0.95097604315E+01  0.17770000000E+01 0. -1.
         15    1    1    2    0    0  0.23106482852E+01 -0.31030735148E+01  0.22144816801E+02  0.22550361436E+02  0.17770000000E+01 0.  1.
</event>
<event>
 6    1  0.1226227E-002  0.1851904E+03  0.7546771E-02  0.1066333E+00
        -11   -1    0    0    0    0  0.00000000000E+00  0.00000000000E+00  0.18250000000E+03  0.18250000000E+03  0.00000000000E+00 0.  1.
         11   -1    0    0    0    0 -0.00000000000E+00 -0.00000000000E+00 -0.18250000000E+03  0.18250000000E+03  0.00000000000E+00 0. -1.
        -11    1    1    2    0    0  0.25611356192E+01  0.13150283989E+01  0.17978650665E+03  0.17980955673E+03  0.00000000000E+00 0.  1.
         11    1    1    2    0    0 -0.47767021480E+00  0.23350742640E+01 -0.17283258140E+03  0.17284901485E+03  0.00000000000E+00 0. -1.
        -15    1    1    2    0    0 -0.37426080655E+01  0.63940527557E-01 -0.62404900188E-01  0.41440109670E+01  0.17770000000E+01 0. -1.
         15    1    1    2    0    0  0.16591426611E+01 -0.37140431904E+01 -0.68915203491E+01  0.81974174538E+01  0.17770000000E+01 0. -1.
</event>
<event>
 6    1  0.1226227E-002  0.1771377E+03  0.7546771E-02  0.1072805E+00
        -11   -1    0    0    0    0  0.00000000000E+00  0.00000000000E+00  0.18250000000E+03  0.18250000000E+03  0.00000000000E+00 0.  1.
         11   -1    0    0    0    0 -0.00000000000E+00 -0.00000000000E+00 -0.18250000000E+03  0.18250000000E+03  0.00000000000E+00 0.  1.
        -11    1    1    2    0    0  0.16536147256E+00 -0.45494754096E+01  0.17863771341E+03  0.17869571266E+03  0.00000000000E+00 0.  1.
         11    1    1    2    0    0  0.18577684804E+01 -0.22846728081E+01 -0.17563935572E+03  0.17566403819E+03  0.00000000000E+00 0.  1.
        -15    1    1    2    0    0 -0.36725026123E+01  0.64656019004E+01 -0.29285733191E+01  0.81869135855E+01  0.17770000000E+01 0. -1.
         15    1    1    2    0    0  0.16493726594E+01  0.36854631736E+00 -0.69784361584E-01  0.24533355691E+01  0.17770000000E+01 0.  1.
</event>
<event>
 6    1  0.1226227E-002  0.1843028E+03  0.7546771E-02  0.1067029E+00
        -11   -1    0    0    0    0  0.00000000000E+00  0.00000000000E+00  0.18250000000E+03  0.18250000000E+03  0.00000000000E+00 0. -1.
         11   -1    0    0    0    0 -0.00000000000E+00 -0.00000000000E+00 -0.18250000000E+03  0.18250000000E+03  0.00000000000E+00 0. -1.
        -11    1    1    2    0    0  0.90997765374E+01 -0.17681953028E+02  0.17959966021E+03  0.18069724775E+03  0.00000000000E+00 0. -1.
         11    1    1    2    0    0  0.85337148139E+00 -0.29359033490E+00 -0.28794333007E+02  0.28808471870E+02  0.00000000000E+00 0. -1.
        -15    1    1    2    0    0 -0.61697298455E+00  0.98361103120E+01 -0.13483210981E+03  0.13520349584E+03  0.17770000000E+01 0. -1.
         15    1    1    2    0    0 -0.93361750342E+01  0.81394330511E+01 -0.15973217391E+02  0.20290784546E+02  0.17770000000E+01 0.  1.
</event>
<event>
 6    1  0.1226227E-002  0.1911842E+03  0.7546771E-02  0.1061745E+00
        -11   -1    0    0    0    0  0.00000000000E+00  0.00000000000E+00  0.18250000000E+03  0.18250000000E+03  0.00000000000E+00 0.  1.
         11   -1    0    0    0    0 -0.00000000000E+00 -0.00000000000E+00 -0.18250000000E+03  0.18250000000E+03  0.00000000000E+00 0. -1.
        -11    1    1    2    0    0  0.95566684660E+01 -0.38073629195E+01  0.17351112748E+03  0.17381581426E+03  0.00000000000E+00 0.  1.
         11    1    1    2    0    0 -0.47853371241E+01  0.96993709950E+00 -0.16660921876E+03  0.16668074875E+03  0.00000000000E+00 0. -1.
        -15    1    1    2    0    0  0.82941622573E+01  0.43927867543E+01 -0.58120952241E+01  0.11181586780E+02  0.17770000000E+01 0.  1.
         15    1    1    2    0    0 -0.13065493599E+02 -0.15553609343E+01 -0.10898135024E+01  0.13321850213E+02  0.17770000000E+01 0. -1.
</event>
<event>
 6    1  0.1226227E-002  0.1866744E+03  0.7546771E-02  0.1065180E+00
        -11   -1    0    0    0    0  0.00000000000E+00  0.00000000000E+00  0.18250000000E+03  0.18250000000E+03  0.00000000000E+00 0. -1.
         11   -1    0    0    0    0 -0.00000000000E+00 -0.00000000000E+00 -0.18250000000E+03  0.18250000000E+03  0.00000000000E+00 0.  1.
        -11    1    1    2    0    0  0.17280707839E+01  0.21834535323E+01  0.17830380949E+03  0.17832555110E+03  0.00000000000E+00 0. -1.
         11    1    1    2    0    0  0.14136306608E+01  0.34199370705E+01 -0.17395787652E+03  0.17399723309E+03  0.00000000000E+00 0.  1.
        -15    1    1    2    0    0 -0.48523102561E+01 -0.45120410415E+01  0.76057859019E+00  0.69021473451E+01  0.17770000000E+01 0.  1.
         15    1    1    2    0    0  0.17106088114E+01 -0.10913495613E+01 -0.51065115644E+01  0.57750684609E+01  0.17770000000E+01 0. -1.
</event>
<event>
 6    1  0.1226227E-002  0.1841517E+03  0.7546771E-02  0.1067148E+00
        -11   -1    0    0    0    0  0.00000000000E+00  0.00000000000E+00  0.18250000000E+03  0.18250000000E+03  0.00000000000E+00 0.  1.
         11   -1    0    0    0    0 -0.00000000000E+00 -0.00000000000E+00 -0.18250000000E+03  0.18250000000E+03  0.00000000000E+00 0. -1.
        -11    1    1    2    0    0 -0.29641939856E+01 -0.41268300231E+00  0.18082356430E+03  0.18084832916E+03  0.00000000000E+00 0.  1.
         11    1    1    2    0    0  0.22671674054E+01  0.20399679074E+01 -0.17265910781E+03  0.17268604179E+03  0.00000000000E+00 0. -1.
        -15    1    1    2    0    0  0.18831927048E+01  0.91920647812E+00 -0.10722798730E+00  0.27496512787E+01  0.17770000000E+01 0.  1.
         15    1    1    2    0    0 -0.11861661246E+01 -0.25464913833E+01 -0.80572285011E+01  0.87159777741E+01  0.17770000000E+01 0. -1.
</event>
<event>
 6    1  0.1226227E-002  0.1927560E+03  0.7546771E-02  0.1060572E+00
        -11   -1    0    0    0    0  0.00000000000E+00  0.00000000000E+00  0.18250000000E+03  0.18250000000E+03  0.00000000000E+00 0. -1.
         11   -1    0    0    0    0 -0.00000000000E+00 -0.00000000000E+00 -0.18250000000E+03  0.18250000000E+03  0.00000000000E+00 0.  1.
        -11    1    1    2    0    0 -0.17795055752E+01  0.19666386923E+01  0.17222360372E+03  0.17224402453E+03  0.00000000000E+00 0. -1.
         11    1    1    2    0    0 -0.10843127998E+02 -0.57017200346E+01 -0.13640532718E+03  0.13695435852E+03  0.00000000000E+00 0.  1.
        -15    1    1    2    0    0  0.10204565310E+02  0.15230143951E+02 -0.39316502683E+02  0.43416996098E+02  0.17770000000E+01 0. -1.
         15    1    1    2    0    0  0.24180682637E+01 -0.11495062608E+02  0.34982261431E+01  0.12384620852E+02  0.17770000000E+01 0.  1.
</event>
<event>
 6    1  0.1226227E-002  0.1829233E+03  0.7546771E-02  0.1068118E+00
        -11   -1    0    0    0    0  0.00000000000E+00  0.00000000000E+00  0.18250000000E+03  0.18250000000E+03  0.00000000000E+00 0.  1.
         11   -1    0    0    0    0 -0.00000000000E+00 -0.00000000000E+00 -0.18250000000E+03  0.18250000000E+03  0.00000000000E+00 0. -1.
        -11    1    1    2    0    0  0.10287456456E+01  0.23884862218E+01  0.12750888460E+03  0.12753540228E+03  0.00000000000E+00 0.  1.
         11    1    1    2    0    0  0.55282571782E+00  0.53485094378E+01 -0.18199724385E+03  0.18207665676E+03  0.00000000000E+00 0. -1.
        -15    1    1    2    0    0  0.69738685433E+00 -0.45884676059E+00  0.15244206553E+02  0.15370115523E+02  0.17770000000E+01 0.  1.
         15    1    1    2    0    0 -0.22789582177E+01 -0.72781488991E+01  0.39244152701E+02  0.40017825430E+02  0.17770000000E+01 0.  1.
</event>
<event>
 6    1  0.1226227E-002  0.1826244E+03  0.7546771E-02  0.1068356E+00
        -11   -1    0    0    0    0  0.00000000000E+00  0.00000000000E+00  0.18250000000E+03  0.18250000000E+03  0.00000000000E+00 0.  1.
         11   -1    0    0    0    0 -0.00000000000E+00 -0.00000000000E+00 -0.18250000000E+03  0.18250000000E+03  0.00000000000E+00 0.  1.
        -11    1    1    2    0    0  0.99421837379E+00 -0.10978742713E+01  0.72299094800E+02  0.72314264893E+02  0.00000000000E+00 0.  1.
         11    1    1    2    0    0  0.25805252200E-01 -0.40585279597E+01 -0.18233039585E+03  0.18237556187E+03  0.00000000000E+00 0.  1.
        -15    1    1    2    0    0 -0.10704349615E+01  0.90325845387E-01  0.48725881136E+02  0.48770105713E+02  0.17770000000E+01 0. -1.
         15    1    1    2    0    0  0.50411335474E-01  0.50660763856E+01  0.61305419915E+02  0.61540067527E+02  0.17770000000E+01 0.  1.
</event>
<event>
 6    1  0.1226227E-002  0.1771160E+03  0.7546771E-02  0.1072823E+00
        -11   -1    0    0    0    0  0.00000000000E+00  0.00000000000E+00  0.18250000000E+03  0.18250000000E+03  0.00000000000E+00 0.  1.
         11   -1    0    0    0    0 -0.00000000000E+00 -0.00000000000E+00 -0.18250000000E+03  0.18250000000E+03  0.00000000000E+00 0.  1.
        -11    1    1    2    0    0  0.19551890241E+01 -0.20773407959E+01  0.17867567289E+03  0.17869844485E+03  0.00000000000E+00 0.  1.
         11    1    1    2    0    0  0.15422511946E+01  0.79963256648E+01 -0.17542622827E+03  0.17561515119E+03  0.00000000000E+00 0.  1.
        -15    1    1    2    0    0 -0.25378245882E+01 -0.58204800323E+01 -0.47854450999E+01  0.81471930903E+01  0.17770000000E+01 0.  1.
         15    1    1    2    0    0 -0.95961563043E+00 -0.98504836663E-01  0.15360004741E+01  0.25392108651E+01  0.17770000000E+01 0. -1.
</event>
<event>
 6    1  0.1226227E-002  0.1838469E+03  0.7546771E-02  0.1067388E+00
        -11   -1    0    0    0    0  0.00000000000E+00  0.00000000000E+00  0.18250000000E+03  0.18250000000E+03  0.00000000000E+00 0. -1.
         11   -1    0    0    0    0 -0.00000000000E+00 -0.00000000000E+00 -0.18250000000E+03  0.18250000000E+03  0.00000000000E+00 0.  1.
        -11    1    1    2    0    0  0.17697798731E+01 -0.23445876240E+01  0.16167428977E+03  0.16170097459E+03  0.00000000000E+00 0. -1.
         11    1    1    2    0    0  0.25828991571E+01 -0.18762948939E+00 -0.18113461233E+03  0.18115312406E+03  0.00000000000E+00 0.  1.
        -15    1    1    2    0    0  0.40997776775E+00 -0.10330230492E+01  0.44514172587E+00  0.21426848920E+01  0.17770000000E+01 0.  1.
         15    1    1    2    0    0 -0.47626567980E+01  0.35652401626E+01  0.19015180839E+02  0.20003216454E+02  0.17770000000E+01 0.  1.
</event>
<event>
 6    1  0.1226227E-002  0.1828851E+03  0.7546771E-02  0.1068149E+00
        -11   -1    0    0    0    0  0.00000000000E+00  0.00000000000E+00  0.18250000000E+03  0.18250000000E+03  0.00000000000E+00 0. -1.
         11   -1    0    0    0    0 -0.00000000000E+00 -0.00000000000E+00 -0.18250000000E+03  0.18250000000E+03  0.00000000000E+00 0.  1.
        -11    1    1    2    0    0  0.45003800926E+00 -0.39988539289E+01  0.87683482422E+02  0.87775773746E+02  0.00000000000E+00 0. -1.
         11    1    1    2    0    0  0.28472665255E+01 -0.39915370526E+01 -0.18204887601E+03  0.18211488833E+03  0.00000000000E+00 0.  1.
        -15    1    1    2    0    0 -0.42839456522E+01  0.30827252386E+01  0.67141462699E+02  0.67372020362E+02  0.17770000000E+01 0. -1.
         15    1    1    2    0    0  0.98664111749E+00  0.49076657429E+01  0.27223930887E+02  0.27737317565E+02  0.17770000000E+01 0.  1.
</event>
<event>
 6    1  0.1226227E-002  0.1838109E+03  0.7546771E-02  0.1067416E+00
        -11   -1    0    0    0    0  0.00000000000E+00  0.00000000000E+00  0.18250000000E+03  0.18250000000E+03  0.00000000000E+00 0. -1.
         11   -1    0    0    0    0 -0.00000000000E+00 -0.00000000000E+00 -0.18250000000E+03  0.18250000000E+03  0.00000000000E+00 0.  1.
        -11    1    1    2    0    0  0.20915474926E+01 -0.25294659871E+01  0.18115935091E+03  0.18118908132E+03  0.00000000000E+00 0. -1.
         11    1    1    2    0    0 -0.11177032860E+01  0.20929182774E+01 -0.17150544819E+03  0.17152185961E+03  0.00000000000E+00 0.  1.
        -15    1    1    2    0    0  0.83951473035E+00 -0.20978091478E+01 -0.76671363102E+01  0.81883024127E+01  0.17770000000E+01 0. -1.
         15    1    1    2    0    0 -0.18133589370E+01  0.25343568575E+01 -0.19867664127E+01  0.41007566490E+01  0.17770000000E+01 0. -1.
</event>
<event>
 6    1  0.1226227E-002  0.1846085E+03  0.7546771E-02  0.1066789E+00
        -11   -1    0    0    0    0  0.00000000000E+00  0.00000000000E+00  0.18250000000E+03  0.18250000000E+03  0.00000000000E+00 0. -1.
         11   -1    0    0    0    0 -0.00000000000E+00 -0.00000000000E+00 -0.18250000000E+03  0.18250000000E+03  0.00000000000E+00 0. -1.
        -11    1    1    2    0    0 -0.12586264305E+01 -0.27741116554E+01  0.18036580461E+03  0.18039152782E+03  0.00000000000E+00 0. -1.
         11    1    1    2    0    0 -0.26852125436E+01 -0.44968679422E+01 -0.15737776256E+03  0.15746489239E+03  0.00000000000E+00 0. -1.
        -15    1    1    2    0    0  0.17937754040E+01  0.11928133515E+01  0.39742249118E+00  0.28206572866E+01  0.17770000000E+01 0. -1.
         15    1    1    2    0    0  0.21500635701E+01  0.60781662460E+01 -0.23385464542E+02  0.24322922504E+02  0.17770000000E+01 0.  1.
</event>
<event>
 6    1  0.1226227E-002  0.1833245E+03  0.7546771E-02  0.1067800E+00
        -11   -1    0    0    0    0  0.00000000000E+00  0.00000000000E+00  0.18250000000E+03  0.18250000000E+03  0.00000000000E+00 0.  1.
         11   -1    0    0    0    0 -0.00000000000E+00 -0.00000000000E+00 -0.18250000000E+03  0.18250000000E+03  0.00000000000E+00 0. -1.
        -11    1    1    2    0    0  0.46220825210E+01  0.11230337414E+01  0.18161323242E+03  0.18167551030E+03  0.00000000000E+00 0.  1.
         11    1    1    2    0    0  0.17921164515E+00  0.71917631158E+00 -0.43343927528E+02  0.43350263954E+02  0.00000000000E+00 0. -1.
        -15    1    1    2    0    0 -0.76774616037E+01 -0.38604039602E+01 -0.22688324212E+02  0.24326198222E+02  0.17770000000E+01 0. -1.
         15    1    1    2    0    0  0.28761674376E+01  0.20181939072E+01 -0.11558098068E+03  0.11564802752E+03  0.17770000000E+01 0. -1.
</event>
<event>
 6    1  0.1226227E-002  0.1876183E+03  0.7546771E-02  0.1064452E+00
        -11   -1    0    0    0    0  0.00000000000E+00  0.00000000000E+00  0.18250000000E+03  0.18250000000E+03  0.00000000000E+00 0. -1.
         11   -1    0    0    0    0 -0.00000000000E+00 -0.00000000000E+00 -0.18250000000E+03  0.18250000000E+03  0.00000000000E+00 0.  1.
        -11    1    1    2    0    0  0.10925821546E+02  0.11059814201E+02  0.10641124846E+03  0.10754090786E+03  0.00000000000E+00 0. -1.
         11    1    1    2    0    0  0.23624845443E+01 -0.25960765258E+01 -0.17734698338E+03  0.17738171682E+03  0.00000000000E+00 0.  1.
        -15    1    1    2    0    0 -0.86947991808E+01 -0.31284710741E+01  0.72110525988E+02  0.72721884954E+02  0.17770000000E+01 0. -1.
         15    1    1    2    0    0 -0.45935069093E+01 -0.53352666012E+01 -0.11747910596E+01  0.73554903620E+01  0.17770000000E+01 0.  1.
</event>
<event>
 6    1  0.1226227E-002  0.1867184E+03  0.7546771E-02  0.1065146E+00
        -11   -1    0    0    0    0  0.00000000000E+00  0.00000000000E+00  0.18250000000E+03  0.18250000000E+03  0.00000000000E+00 0.  1.
         11   -1    0    0    0    0 -0.00000000000E+00 -0.00000000000E+00 -0.18250000000E+03  0.18250000000E+03  0.00000000000E+00 0. -1.
        -11    1    1    2    0    0  0.77622627396E+01 -0.45894871736E+01  0.11939049401E+03  0.11973055656E+03  0.00000000000E+00 0.  1.
         11    1    1    2    0    0 -0.44181898397E+01  0.27755193955E+01 -0.17820524808E+03  0.17828161530E+03  0.00000000000E+00 0. -1.
        -15    1    1    2    0    0 -0.13564041962E+02  0.35151572817E+00  0.53535677663E+02  0.55256975211E+02  0.17770000000E+01 0. -1.
         15    1    1    2    0    0  0.10219969062E+02  0.14624520499E+01  0.52790764147E+01  0.11730852928E+02  0.17770000000E+01 0.  1.
</event>
<event>
 6    1  0.1226227E-002  0.1828426E+03  0.7546771E-02  0.1068182E+00
        -11   -1    0    0    0    0  0.00000000000E+00  0.00000000000E+00  0.18250000000E+03  0.18250000000E+03  0.00000000000E+00 0. -1.
         11   -1    0    0    0    0 -0.00000000000E+00 -0.00000000000E+00 -0.18250000000E+03  0.18250000000E+03  0.00000000000E+00 0. -1.
        -11    1    1    2    0    0 -0.32883209873E+01 -0.20874131036E+01  0.12982127924E+03  0.12987969391E+03  0.00000000000E+00 0. -1.
         11    1    1    2    0    0 -0.24519726227E+01 -0.12561554014E+01 -0.18213652720E+03  0.18215736229E+03  0.00000000000E+00 0. -1.
        -15    1    1    2    0    0  0.44594950276E+01  0.25983751917E+01  0.27264051205E+02  0.27805123029E+02  0.17770000000E+01 0.  1.
         15    1    1    2    0    0  0.12807985823E+01  0.74519331324E+00  0.25051196756E+02  0.25157820772E+02  0.17770000000E+01 0. -1.
</event>
<event>
 6    1  0.1226227E-002  0.1870948E+03  0.7546771E-02  0.1064855E+00
        -11   -1    0    0    0    0  0.00000000000E+00  0.00000000000E+00  0.18250000000E+03  0.18250000000E+03  0.00000000000E+00 0. -1.
         11   -1    0    0    0    0 -0.00000000000E+00 -0.00000000000E+00 -0.18250000000E+03  0.18250000000E+03  0.00000000000E+00 0.  1.
        -11    1    1    2    0    0  0.69255974957E+01 -0.36451454920E+01  0.14897279719E+03  0.14917823330E+03  0.00000000000E+00 0. -1.
         11    1    1    2    0    0 -0.15077817019E+00 -0.43096932029E+01 -0.17785291520E+03  0.17790518720E+03  0.00000000000E+00 0.  1.
        -15    1    1    2    0    0  0.47072654584E+01 -0.12285874134E+01 -0.30560099258E+00  0.51883423263E+01  0.17770000000E+01 0.  1.
         15    1    1    2    0    0 -0.11482084784E+02  0.91834261083E+01  0.29185718997E+02  0.32728237173E+02  0.17770000000E+01 0. -1.
</event>
<event>
 6    1  0.1226227E-002  0.1846396E+03  0.7546771E-02  0.1066764E+00
        -11   -1    0    0    0    0  0.00000000000E+00  0.00000000000E+00  0.18250000000E+03  0.18250000000E+03  0.00000000000E+00 0.  1.
         11   -1    0    0    0    0 -0.00000000000E+00 -0.00000000000E+00 -0.18250000000E+03  0.18250000000E+03  0.00000000000E+00 0.  1.
        -11    1    1    2    0    0  0.41818011306E+01 -0.24381547883E+01  0.18029539769E+03  0.18036036839E+03  0.00000000000E+00 0.  1.
         11    1    1    2    0    0  0.18942174832E+01  0.10830380825E+01 -0.11969359973E+03  0.11971348649E+03  0.00000000000E+00 0.  1.
        -15    1    1    2    0    0 -0.47935655664E+01  0.11651789361E+02 -0.35211235561E+02  0.37439702254E+02  0.17770000000E+01 0.  1.
         15    1    1    2    0    0 -0.12824530473E+01 -0.10296672655E+02 -0.25390562392E+02  0.27486442861E+02  0.17770000000E+01 0.  1.
</event>
<event>
 6    1  0.1226227E-002  0.1835797E+03  0.7546771E-02  0.1067599E+00
        -11   -1    0    0    0    0  0.00000000000E+00  0.00000000000E+00  0.18250000000E+03  0.18250000000E+03  0.00000000000E+00 0.  1.
         11   -1    0    0    0    0 -0.00000000000E+00 -0.00000000000E+00 -0.18250000000E+03  0.18250000000E+03  0.00000000000E+00 0. -1.
        -11    1    1    2    0    0  0.74438899008E+00  0.56700594213E+01  0.12179346747E+03  0.12192765235E+03  0.00000000000E+00 0.  1.
         11    1    1    2    0    0  0.87978464842E+00 -0.12689512346E+02 -0.18097382135E+03  0.18142029037E+03  0.00000000000E+00 0. -1.
        -15    1    1    2    0    0  0.58835134769E+01  0.12226707328E+01  0.36030249166E+02  0.36571125749E+02  0.17770000000E+01 0.  1.
         15    1    1    2    0    0 -0.75076871154E+01  0.57967821923E+01  0.23150104713E+02  0.25080931538E+02  0.17770000000E+01 0. -1.
</event>
<event>
 6    1  0.1226227E-002  0.1826784E+03  0.7546771E-02  0.1068313E+00
        -11   -1    0    0    0    0  0.00000000000E+00  0.00000000000E+00  0.18250000000E+03  0.18250000000E+03  0.00000000000E+00 0.  1.
         11   -1    0    0    0    0 -0.00000000000E+00 -0.00000000000E+00 -0.18250000000E+03  0.18250000000E+03  0.00000000000E+00 0.  1.
        -11    1    1    2    0    0 -0.16736050938E+01 -0.11216398889E+00  0.41410202836E+02  0.41444160429E+02  0.00000000000E+00 0.  1.
         11    1    1    2    0    0 -0.24873884932E+01  0.69713909826E+00 -0.18230331571E+03  0.18232161699E+03  0.00000000000E+00 0.  1.
        -15    1    1    2    0    0  0.11168370534E+01  0.15938441223E+01  0.12525796359E+02  0.12800037793E+02  0.17770000000E+01 0. -1.
         15    1    1    2    0    0  0.30441565336E+01 -0.21788192316E+01  0.12836731652E+03  0.12843418478E+03  0.17770000000E+01 0.  1.
</event>
<event>
 6    1  0.1226227E-002  0.1842895E+03  0.7546771E-02  0.1067039E+00
        -11   -1    0    0    0    0  0.00000000000E+00  0.00000000000E+00  0.18250000000E+03  0.18250000000E+03  0.00000000000E+00 0.  1.
         11   -1    0    0    0    0 -0.00000000000E+00 -0.00000000000E+00 -0.18250000000E+03  0.18250000000E+03  0.00000000000E+00 0. -1.
        -11    1    1    2    0    0  0.14978998968E+01  0.39848944229E+01  0.18066032102E+03  0.18071047196E+03  0.00000000000E+00 0.  1.
         11    1    1    2    0    0 -0.24289930312E+01  0.25420237304E+01 -0.14881354878E+03  0.14885507782E+03  0.00000000000E+00 0. -1.
        -15    1    1    2    0    0 -0.21832692244E+01 -0.56279306091E+01 -0.31012968577E+02  0.31644939823E+02  0.17770000000E+01 0. -1.
         15    1    1    2    0    0  0.31143623587E+01 -0.89898754431E+00 -0.83380366019E+00  0.37895103971E+01  0.17770000000E+01 0.  1.
</event>
<event>
 6    1  0.1226227E-002  0.1899241E+03  0.7546771E-02  0.1062694E+00
        -11   -1    0    0    0    0  0.00000000000E+00  0.00000000000E+00  0.18250000000E+03  0.18250000000E+03  0.00000000000E+00 0.  1.
         11   -1    0    0    0    0 -0.00000000000E+00 -0.00000000000E+00 -0.18250000000E+03  0.18250000000E+03  0.00000000000E+00 0. -1.
        -11    1    1    2    0    0  0.24318377314E+01  0.40116943747E+01  0.17501306602E+03  0.17507592868E+03  0.00000000000E+00 0.  1.
         11    1    1    2    0    0 -0.72605638680E+00 -0.23175208442E+01 -0.15870121460E+03  0.15871979579E+03  0.00000000000E+00 0. -1.
        -15    1    1    2    0    0  0.35117219410E+01  0.59412522537E+01 -0.19891703742E+02  0.21129795931E+02  0.17770000000E+01 0. -1.
         15    1    1    2    0    0 -0.52175032856E+01 -0.76354257842E+01  0.35798523226E+01  0.10074479594E+02  0.17770000000E+01 0. -1.
</event>
<event>
 6    1  0.1226227E-002  0.1867703E+03  0.7546771E-02  0.1065106E+00
        -11   -1    0    0    0    0  0.00000000000E+00  0.00000000000E+00  0.18250000000E+03  0.18250000000E+03  0.00000000000E+00 0.  1.
         11   -1    0    0    0    0 -0.00000000000E+00 -0.00000000000E+00 -0.18250000000E+03  0.18250000000E+03  0.00000000000E+00 0.  1.
        -11    1    1    2    0    0 -0.30216572819E+01 -0.26470945327E+01  0.16438607101E+03  0.16443514790E+03  0.00000000000E+00 0.  1.
         11    1    1    2    0    0  0.20002395859E+01 -0.68307554884E+01 -0.17808751273E+03  0.17822968992E+03  0.00000000000E+00 0.  1.
        -15    1    1    2    0    0  0.20911231363E+01 -0.15982093592E+01 -0.14184202834E+01  0.34780330975E+01  0.17770000000E+01 0.  1.
         15    1    1    2    0    0 -0.10697054403E+01  0.11076059380E+02  0.15119862001E+02  0.18857129078E+02  0.17770000000E+01 0. -1.
</event>
<event>
 6    1  0.1226227E-002  0.1841663E+03  0.7546771E-02  0.1067136E+00
        -11   -1    0    0    0    0  0.00000000000E+00  0.00000000000E+00  0.18250000000E+03  0.18250000000E+03  0.00000000000E+00 0.  1.
         11   -1    0    0    0    0 -0.00000000000E+00 -0.00000000000E+00 -0.18250000000E+03  0.18250000000E+03  0.00000000000E+00 0.  1.
        -11    1    1    2    0    0  0.33425165283E+01 -0.16777654650E+01  0.17004003558E+03  0.17008116008E+03  0.00000000000E+00 0.  1.
         11    1    1    2    0    0 -0.18421632721E+01 -0.21936772962E+01 -0.18081096486E+03  0.18083365505E+03  0.00000000000E+00 0.  1.
        -15    1    1    2    0    0  0.37037728411E+00  0.91944592919E+00 -0.54732792847E+00  0.21070968204E+01  0.17770000000E+01 0. -1.
         15    1    1    2    0    0 -0.18707305403E+01  0.29519968320E+01  0.11318257206E+02  0.11978088045E+02  0.17770000000E+01 0.  1.
</event>
<event>
 6    1  0.1226227E-002  0.1786525E+03  0.7546771E-02  0.1071559E+00
        -11   -1    0    0    0    0  0.00000000000E+00  0.00000000000E+00  0.18250000000E+03  0.18250000000E+03  0.00000000000E+00 0.  1.
         11   -1    0    0    0    0 -0.00000000000E+00 -0.00000000000E+00 -0.18250000000E+03  0.18250000000E+03  0.00000000000E+00 0. -1.
        -11    1    1    2    0    0 -0.21179870814E+01  0.11412697653E+01  0.17805460311E+03  0.17807085684E+03  0.00000000000E+00 0.  1.
         11    1    1    2    0    0 -0.12906940431E+01 -0.23962786864E+01 -0.17923394708E+03  0.17925461174E+03  0.00000000000E+00 0. -1.
        -15    1    1    2    0    0  0.21148518750E+01  0.53543157606E+00  0.34373927883E+01  0.44421485350E+01  0.17770000000E+01 0.  1.
         15    1    1    2    0    0  0.12938292495E+01  0.71957734500E+00 -0.22580488164E+01  0.32323828887E+01  0.17770000000E+01 0.  1.
</event>
<event>
 6    1  0.1226227E-002  0.1855615E+03  0.7546771E-02  0.1066044E+00
        -11   -1    0    0    0    0  0.00000000000E+00  0.00000000000E+00  0.18250000000E+03  0.18250000000E+03  0.00000000000E+00 0.  1.
         11   -1    0    0    0    0 -0.00000000000E+00 -0.00000000000E+00 -0.18250000000E+03  0.18250000000E+03  0.00000000000E+00 0.  1.
        -11    1    1    2    0    0 -0.44919761700E+01 -0.32676109780E+01  0.17935250504E+03  0.17943850255E+03  0.00000000000E+00 0.  1.
         11    1    1    2    0    0  0.56750323933E+01  0.89429469680E+00 -0.16371995293E+03  0.16382072135E+03  0.00000000000E+00 0.  1.
        -15    1    1    2    0    0  0.38592691085E+00 -0.15993789697E+01 -0.16796673648E+02  0.16970354366E+02  0.17770000000E+01 0.  1.
         15    1    1    2    0    0 -0.15689831342E+01  0.39726952510E+01  0.11641215309E+01  0.47704217393E+01  0.17770000000E+01 0. -1.
</event>
<event>
 6    1  0.1226227E-002  0.1869450E+03  0.7546771E-02  0.1064971E+00
        -11   -1    0    0    0    0  0.00000000000E+00  0.00000000000E+00  0.18250000000E+03  0.18250000000E+03  0.00000000000E+00 0. -1.
         11   -1    0    0    0    0 -0.00000000000E+00 -0.00000000000E+00 -0.18250000000E+03  0.18250000000E+03  0.00000000000E+00 0.  1.
        -11    1    1    2    0    0 -0.21881073305E+01 -0.81430494241E+00  0.16495091683E+03  0.16496743881E+03  0.00000000000E+00 0. -1.
         11    1    1    2    0    0 -0.17108748902E+01 -0.20202793227E+01 -0.17803533922E+03  0.17805502136E+03  0.00000000000E+00 0.  1.
        -15    1    1    2    0    0  0.81215760149E+00  0.29166643414E+01 -0.35341225259E+01  0.49813935679E+01  0.17770000000E+01 0. -1.
         15    1    1    2    0    0  0.30868246192E+01 -0.82080076294E-01  0.16618544918E+02  0.16996146256E+02  0.17770000000E+01 0.  1.
</event>
<event>
 6    1  0.1226227E-002  0.1832272E+03  0.7546771E-02  0.1067877E+00
        -11   -1    0    0    0    0  0.00000000000E+00  0.00000000000E+00  0.18250000000E+03  0.18250000000E+03  0.00000000000E+00 0. -1.
         11   -1    0    0    0    0 -0.00000000000E+00 -0.00000000000E+00 -0.18250000000E+03  0.18250000000E+03  0.00000000000E+00 0.  1.
        -11    1    1    2    0    0  0.18071745998E+00 -0.21486380292E+01  0.14673788758E+03  0.14675372893E+03  0.00000000000E+00 0. -1.
         11    1    1    2    0    0  0.54266735218E+01  0.23380823006E+01 -0.18167677891E+03  0.18177284563E+03  0.00000000000E+00 0.  1.
        -15    1    1    2    0    0 -0.61973205436E+01  0.83245639198E+00  0.14108096638E+02  0.15533701597E+02  0.17770000000E+01 0. -1.
         15    1    1    2    0    0  0.58992956186E+00 -0.10219006633E+01  0.20830794690E+02  0.20939723835E+02  0.17770000000E+01 0.  1.
</event>
<event>
 6    1  0.1226227E-002  0.2054054E+03  0.7546771E-02  0.1051556E+00
        -11   -1    0    0    0    0  0.00000000000E+00  0.00000000000E+00  0.18250000000E+03  0.18250000000E+03  0.00000000000E+00 0.  1.
         11   -1    0    0    0    0 -0.00000000000E+00 -0.00000000000E+00 -0.18250000000E+03  0.18250000000E+03  0.00000000000E+00 0.  1.
        -11    1    1    2    0    0  0.13190502202E+01 -0.24722398812E+01  0.14500244296E+03  0.14502951537E+03  0.00000000000E+00 0.  1.
         11    1    1    2    0    0  0.49436797800E+01  0.89781180275E+01 -0.15926516991E+03  0.15959461432E+03  0.00000000000E+00 0.  1.
        -15    1    1    2    0    0  0.10127857689E+02 -0.13626824380E+01 -0.19705903783E+02  0.22269054261E+02  0.17770000000E+01 0. -1.
         15    1    1    2    0    0 -0.16390587689E+02 -0.51431957082E+01  0.33968630728E+02  0.38106816049E+02  0.17770000000E+01 0.  1.
</event>
<event>
 6    1  0.1226227E-002  0.1829896E+03  0.7546771E-02  0.1068066E+00
        -11   -1    0    0    0    0  0.00000000000E+00  0.00000000000E+00  0.18250000000E+03  0.18250000000E+03  0.00000000000E+00 0. -1.
         11   -1    0    0    0    0 -0.00000000000E+00 -0.00000000000E+00 -0.18250000000E+03  0.18250000000E+03  0.00000000000E+00 0.  1.
        -11    1    1    2    0    0 -0.31179975044E+01 -0.15383552226E+01  0.82465080503E+02  0.82538342288E+02  0.00000000000E+00 0. -1.
         11    1    1    2    0    0  0.18489181680E+01  0.16190052568E+01 -0.18199380576E+03  0.18201039808E+03  0.00000000000E+00 0.  1.
        -15    1    1    2    0    0  0.32757842580E+01 -0.17323717592E-01  0.95725226441E+02  0.95797744070E+02  0.17770000000E+01 0. -1.
         15    1    1    2    0    0 -0.20067049217E+01 -0.63326316565E-01  0.38034988108E+01  0.46535155602E+01  0.17770000000E+01 0. -1.
</event>
<event>
 6    1  0.1226227E-002  0.1834677E+03  0.7546771E-02  0.1067687E+00
        -11   -1    0    0    0    0  0.00000000000E+00  0.00000000000E+00  0.18250000000E+03  0.18250000000E+03  0.00000000000E+00 0. -1.
         11   -1    0    0    0    0 -0.00000000000E+00 -0.00000000000E+00 -0.18250000000E+03  0.18250000000E+03  0.00000000000E+00 0.  1.
        -11    1    1    2    0    0  0.19604497621E+01 -0.16451617731E+01  0.65579397365E+02  0.65629317224E+02  0.00000000000E+00 0. -1.
         11    1    1    2    0    0  0.31443924859E+01  0.21016913660E+01 -0.18149292273E+03  0.18153232581E+03  0.00000000000E+00 0.  1.
        -15    1    1    2    0    0 -0.78320282559E+01  0.25790243761E+01  0.11053805382E+03  0.11085942046E+03  0.17770000000E+01 0. -1.
         15    1    1    2    0    0  0.27271860079E+01 -0.30355539691E+01  0.53754715465E+01  0.69789365069E+01  0.17770000000E+01 0.  1.
</event>
<event>
 6    1  0.1226227E-002  0.1966478E+03  0.7546771E-02  0.1057720E+00
        -11   -1    0    0    0    0  0.00000000000E+00  0.00000000000E+00  0.18250000000E+03  0.18250000000E+03  0.00000000000E+00 0. -1.
         11   -1    0    0    0    0 -0.00000000000E+00 -0.00000000000E+00 -0.18250000000E+03  0.18250000000E+03  0.00000000000E+00 0. -1.
        -11    1    1    2    0    0 -0.40848619731E+01  0.39296777778E+01  0.11227486802E+03  0.11241785647E+03  0.00000000000E+00 0. -1.
         11    1    1    2    0    0  0.28897376624E+02  0.47960687764E+00 -0.16585283377E+03  0.16835216325E+03  0.00000000000E+00 0. -1.
        -15    1    1    2    0    0  0.63512570321E+00  0.17189242951E+02  0.47111803927E+02  0.50185189609E+02  0.17770000000E+01 0. -1.
         15    1    1    2    0    0 -0.25447640355E+02 -0.21598527606E+02  0.64661618284E+01  0.34044790676E+02  0.17770000000E+01 0.  1.
</event>
<event>
 6    1  0.1226227E-002  0.1847764E+03  0.7546771E-02  0.1066657E+00
        -11   -1    0    0    0    0  0.00000000000E+00  0.00000000000E+00  0.18250000000E+03  0.18250000000E+03  0.00000000000E+00 0.  1.
         11   -1    0    0    0    0 -0.00000000000E+00 -0.00000000000E+00 -0.18250000000E+03  0.18250000000E+03  0.00000000000E+00 0.  1.
        -11    1    1    2    0    0  0.46048638028E+01  0.41007899772E+00  0.16905654224E+03  0.16911974281E+03  0.00000000000E+00 0.  1.
         11    1    1    2    0    0 -0.48954119748E+01 -0.98514565870E+00 -0.18015445533E+03  0.18022364814E+03  0.00000000000E+00 0.  1.
        -15    1    1    2    0    0  0.37943198713E+01 -0.15279309537E+01  0.10170091231E+02  0.11104950289E+02  0.17770000000E+01 0.  1.
         15    1    1    2    0    0 -0.35037716994E+01  0.21029976147E+01  0.92782186643E+00  0.45516587641E+01  0.17770000000E+01 0. -1.
</event>
<event>
 6    1  0.1226227E-002  0.1857787E+03  0.7546771E-02  0.1065874E+00
        -11   -1    0    0    0    0  0.00000000000E+00  0.00000000000E+00  0.18250000000E+03  0.18250000000E+03  0.00000000000E+00 0. -1.
         11   -1    0    0    0    0 -0.00000000000E+00 -0.00000000000E+00 -0.18250000000E+03  0.18250000000E+03  0.00000000000E+00 0.  1.
        -11    1    1    2    0    0 -0.30762467678E+01  0.10565810336E+01  0.17453981745E+03  0.17457012211E+03  0.00000000000E+00 0. -1.
         11    1    1    2    0    0  0.35436789668E+01  0.22293120621E+01 -0.17917236903E+03  0.17922127473E+03  0.00000000000E+00 0.  1.
        -15    1    1    2    0    0 -0.43678861961E+01 -0.24426255308E+01  0.74822429931E+00  0.53630604983E+01  0.17770000000E+01 0.  1.
         15    1    1    2    0    0  0.39004539972E+01 -0.84326756492E+00  0.38843272833E+01  0.58455426621E+01  0.17770000000E+01 0.  1.
</event>
<event>
 6    1  0.1226227E-002  0.1828856E+03  0.7546771E-02  0.1068148E+00
        -11   -1    0    0    0    0  0.00000000000E+00  0.00000000000E+00  0.18250000000E+03  0.18250000000E+03  0.00000000000E+00 0.  1.
         11   -1    0    0    0    0 -0.00000000000E+00 -0.00000000000E+00 -0.18250000000E+03  0.18250000000E+03  0.00000000000E+00 0.  1.
        -11    1    1    2    0    0  0.77650220738E+00  0.14747706376E+01  0.49414352016E+02  0.49442452299E+02  0.00000000000E+00 0.  1.
         11    1    1    2    0    0  0.44476432893E+00  0.28899545663E+01 -0.18209090346E+03  0.18211437828E+03  0.00000000000E+00 0.  1.
        -15    1    1    2    0    0 -0.18428709574E+00 -0.23021016587E+01  0.54234005526E+01  0.61566741294E+01  0.17770000000E+01 0. -1.
         15    1    1    2    0    0 -0.10369794406E+01 -0.20626235451E+01  0.12725315089E+03  0.12728649529E+03  0.17770000000E+01 0.  1.
</event>
<event>
 6    1  0.1226227E-002  0.1829704E+03  0.7546771E-02  0.1068081E+00
        -11   -1    0    0    0    0  0.00000000000E+00  0.00000000000E+00  0.18250000000E+03  0.18250000000E+03  0.00000000000E+00 0. -1.
         11   -1    0    0    0    0 -0.00000000000E+00 -0.00000000000E+00 -0.18250000000E+03  0.18250000000E+03  0.00000000000E+00 0.  1.
        -11    1    1    2    0    0  0.19746312607E+01 -0.49769927195E+00  0.10796790898E+03  0.10798711147E+03  0.00000000000E+00 0. -1.
         11    1    1    2    0    0  0.16969281845E+01 -0.60149253483E+01 -0.18192231238E+03  0.18202963119E+03  0.00000000000E+00 0.  1.
        -15    1    1    2    0    0  0.10595500839E+01  0.18652051590E+01  0.49639222928E+02  0.49717319101E+02  0.17770000000E+01 0. -1.
         15    1    1    2    0    0 -0.47311095290E+01  0.46474194613E+01  0.24315180464E+02  0.25265938237E+02  0.17770000000E+01 0.  1.
</event>
<event>
 6    1  0.1226227E-002  0.1847604E+03  0.7546771E-02  0.1066670E+00
        -11   -1    0    0    0    0  0.00000000000E+00  0.00000000000E+00  0.18250000000E+03  0.18250000000E+03  0.00000000000E+00 0. -1.
         11   -1    0    0    0    0 -0.00000000000E+00 -0.00000000000E+00 -0.18250000000E+03  0.18250000000E+03  0.00000000000E+00 0. -1.
        -11    1    1    2    0    0 -0.20739002089E+01  0.16183022126E+01  0.10179262082E+03  0.10182660565E+03  0.00000000000E+00 0. -1.
         11    1    1    2    0    0  0.11673639191E+02  0.29876960459E+01 -0.17983639936E+03  0.18023964801E+03  0.00000000000E+00 0. -1.
        -15    1    1    2    0    0 -0.93772038031E+01  0.10689332307E+01  0.76055669499E+02  0.76659618844E+02  0.17770000000E+01 0.  1.
         15    1    1    2    0    0 -0.22253517946E+00 -0.56749314893E+01  0.19881090389E+01  0.62741274983E+01  0.17770000000E+01 0. -1.
</event>
<event>
 6    1  0.1226227E-002  0.1854709E+03  0.7546771E-02  0.1066114E+00
        -11   -1    0    0    0    0  0.00000000000E+00  0.00000000000E+00  0.18250000000E+03  0.18250000000E+03  0.00000000000E+00 0.  1.
         11   -1    0    0    0    0 -0.00000000000E+00 -0.00000000000E+00 -0.18250000000E+03  0.18250000000E+03  0.00000000000E+00 0.  1.
        -11    1    1    2    0    0  0.44745067430E+00  0.28347598771E+01  0.14004995087E+03  0.14007935185E+03  0.00000000000E+00 0.  1.
         11    1    1    2    0    0 -0.26067085408E+01  0.15964744868E+02 -0.17879885175E+03  0.17952909902E+03  0.00000000000E+00 0.  1.
        -15    1    1    2    0    0 -0.16607144203E+01  0.14126161806E+01  0.67179852722E+01  0.72830290386E+01  0.17770000000E+01 0.  1.
         15    1    1    2    0    0  0.38199722868E+01 -0.20212120926E+02  0.32030915602E+02  0.38108520096E+02  0.17770000000E+01 0. -1.
</event>
<event>
 6    1  0.1226227E-002  0.1707754E+03  0.7546771E-02  0.1078191E+00
        -11   -1    0    0    0    0  0.00000000000E+00  0.00000000000E+00  0.18250000000E+03  0.18250000000E+03  0.00000000000E+00 0.  1.
         11   -1    0    0    0    0 -0.00000000000E+00 -0.00000000000E+00 -0.18250000000E+03  0.18250000000E+03  0.00000000000E+00 0. -1.
        -11    1    1    2    0    0 -0.60706012015E+01 -0.13874990613E+01  0.17565942597E+03  0.17576976783E+03  0.00000000000E+00 0.  1.
         11    1    1    2    0    0 -0.11751506667E+02  0.26340743191E+01 -0.16594929483E+03  0.16638571066E+03  0.00000000000E+00 0. -1.
        -15    1    1    2    0    0  0.12210568846E+02  0.33651631197E+01 -0.82666031889E+01  0.15228813862E+02  0.17770000000E+01 0.  1.
         15    1    1    2    0    0  0.56115390224E+01 -0.46117383776E+01 -0.14435279494E+01  0.76157076496E+01  0.17770000000E+01 0. -1.
</event>
<event>
 6    1  0.1226227E-002  0.1892922E+03  0.7546771E-02  0.1063173E+00
        -11   -1    0    0    0    0  0.00000000000E+00  0.00000000000E+00  0.18250000000E+03  0.18250000000E+03  0.00000000000E+00 0.  1.
         11   -1    0    0    0    0 -0.00000000000E+00 -0.00000000000E+00 -0.18250000000E+03  0.18250000000E+03  0.00000000000E+00 0.  1.
        -11    1    1    2    0    0 -0.33236578143E+01 -0.44494534832E+01  0.17562001091E+03  0.17570780452E+03  0.00000000000E+00 0.  1.
         11    1    1    2    0    0  0.20976632344E+01 -0.18669349696E+01 -0.15237011246E+03  0.15239598685E+03  0.00000000000E+00 0.  1.
        -15    1    1    2    0    0  0.83915295865E+01 -0.83028875589E+01 -0.70711510522E+01  0.13874963669E+02  0.17770000000E+01 0.  1.
         15    1    1    2    0    0 -0.71655350066E+01  0.14619276012E+02 -0.16178747394E+02  0.23021244955E+02  0.17770000000E+01 0. -1.
</event>
<event>
 6    1  0.1226227E-002  0.1870740E+03  0.7546771E-02  0.1064871E+00
        -11   -1    0    0    0    0  0.00000000000E+00  0.00000000000E+00  0.18250000000E+03  0.18250000000E+03  0.00000000000E+00 0.  1.
         11   -1    0    0    0    0 -0.00000000000E+00 -0.00000000000E+00 -0.18250000000E+03  0.18250000000E+03  0.00000000000E+00 0.  1.
        -11    1    1    2    0    0  0.49576888852E+00  0.40203280925E+01  0.17787992967E+03  0.17792604701E+03  0.00000000000E+00 0.  1.
         11    1    1    2    0    0 -0.36014497722E+01 -0.24324423978E+01 -0.16790747760E+03  0.16796371111E+03  0.00000000000E+00 0.  1.
        -15    1    1    2    0    0 -0.41390041137E+01 -0.60766234176E+00  0.20035069394E+01  0.49671297176E+01  0.17770000000E+01 0.  1.
         15    1    1    2    0    0  0.72446849973E+01 -0.98022335300E+00 -0.11975959009E+02  0.14143112165E+02  0.17770000000E+01 0. -1.
</event>
<event>
 6    1  0.1226227E-002  0.1862075E+03  0.7546771E-02  0.1065541E+00
        -11   -1    0    0    0    0  0.00000000000E+00  0.00000000000E+00  0.18250000000E+03  0.18250000000E+03  0.00000000000E+00 0. -1.
         11   -1    0    0    0    0 -0.00000000000E+00 -0.00000000000E+00 -0.18250000000E+03  0.18250000000E+03  0.00000000000E+00 0. -1.
        -11    1    1    2    0    0  0.38937962912E+01  0.52170543297E+01  0.11189568840E+03  0.11208489813E+03  0.00000000000E+00 0. -1.
         11    1    1    2    0    0 -0.63778772009E+01  0.38123468769E+01 -0.17863798696E+03  0.17879245423E+03  0.00000000000E+00 0. -1.
        -15    1    1    2    0    0  0.34928296922E+01 -0.39555428691E+01 -0.14158989338E+01  0.57453178710E+01  0.17770000000E+01 0.  1.
         15    1    1    2    0    0 -0.10087487825E+01 -0.50738583375E+01  0.68158197488E+02  0.68377329769E+02  0.17770000000E+01 0. -1.
</event>
<event>
 6    1  0.1226227E-002  0.1872054E+03  0.7546771E-02  0.1064770E+00
        -11   -1    0    0    0    0  0.00000000000E+00  0.00000000000E+00  0.18250000000E+03  0.18250000000E+03  0.00000000000E+00 0. -1.
         11   -1    0    0    0    0 -0.00000000000E+00 -0.00000000000E+00 -0.18250000000E+03  0.18250000000E+03  0.00000000000E+00 0.  1.
        -11    1    1    2    0    0  0.33244277867E+01 -0.60685737455E+00  0.16725314514E+03  0.16728728181E+03  0.00000000000E+00 0. -1.
         11    1    1    2    0    0  0.37100613549E+01  0.12152374942E+01 -0.17775170166E+03  0.17779456910E+03  0.00000000000E+00 0.  1.
        -15    1    1    2    0    0  0.20305194414E+01 -0.29983926806E+01 -0.17455125396E+01  0.43952145448E+01  0.17770000000E+01 0. -1.
         15    1    1    2    0    0 -0.90650085831E+01  0.23900125609E+01  0.12244069059E+02  0.15522934541E+02  0.17770000000E+01 0.  1.
</event>
<event>
 6    1  0.1226227E-002  0.1877377E+03  0.7546771E-02  0.1064360E+00
        -11   -1    0    0    0    0  0.00000000000E+00  0.00000000000E+00  0.18250000000E+03  0.18250000000E+03  0.00000000000E+00 0. -1.
         11   -1    0    0    0    0 -0.00000000000E+00 -0.00000000000E+00 -0.18250000000E+03  0.18250000000E+03  0.00000000000E+00 0.  1.
        -11    1    1    2    0    0  0.26505022626E-01 -0.31570803961E+01  0.17723417506E+03  0.17726229342E+03  0.00000000000E+00 0. -1.
         11    1    1    2    0    0  0.16845144806E+02 -0.90152573323E+01 -0.14480622196E+03  0.14606120528E+03  0.00000000000E+00 0.  1.
        -15    1    1    2    0    0 -0.17809853346E+02  0.10820007114E+02 -0.33108002465E+02  0.39160707175E+02  0.17770000000E+01 0. -1.
         15    1    1    2    0    0  0.93820351784E+00  0.13523306140E+01  0.68004936497E+00  0.25157941230E+01  0.17770000000E+01 0.  1.
</event>
<event>
 6    1  0.1226227E-002  0.1849559E+03  0.7546771E-02  0.1066517E+00
        -11   -1    0    0    0    0  0.00000000000E+00  0.00000000000E+00  0.18250000000E+03  0.18250000000E+03  0.00000000000E+00 0.  1.
         11   -1    0    0    0    0 -0.00000000000E+00 -0.00000000000E+00 -0.18250000000E+03  0.18250000000E+03  0.00000000000E+00 0. -1.
        -11    1    1    2    0    0 -0.17301754173E+01 -0.47627746294E+01  0.17997275040E+03  0.18004407353E+03  0.00000000000E+00 0.  1.
         11    1    1    2    0    0  0.12589322393E+01  0.47704144501E+01 -0.16865972621E+03  0.16873187313E+03  0.00000000000E+00 0. -1.
        -15    1    1    2    0    0  0.23608901822E+01 -0.50363262004E+01 -0.45267067978E+01  0.73883142517E+01  0.17770000000E+01 0. -1.
         15    1    1    2    0    0 -0.18896470042E+01  0.50286863797E+01 -0.67863173851E+01  0.88357390838E+01  0.17770000000E+01 0.  1.
</event>
<event>
 6    1  0.1226227E-002  0.1880363E+03  0.7546771E-02  0.1064131E+00
        -11   -1    0    0    0    0  0.00000000000E+00  0.00000000000E+00  0.18250000000E+03  0.18250000000E+03  0.00000000000E+00 0.  1.
         11   -1    0    0    0    0 -0.00000000000E+00 -0.00000000000E+00 -0.18250000000E+03  0.18250000000E+03  0.00000000000E+00 0. -1.
        -11    1    1    2    0    0  0.36029583211E+01 -0.10428666496E+00  0.17042387170E+03  0.17046198471E+03  0.00000000000E+00 0.  1.
         11    1    1    2    0    0 -0.35836444841E+01 -0.59398270669E+01 -0.17682765106E+03  0.17696367490E+03  0.00000000000E+00 0. -1.
        -15    1    1    2    0    0  0.53969482499E+01  0.35004900021E+01  0.86634058490E+01  0.10935849787E+02  0.17770000000E+01 0. -1.
         15    1    1    2    0    0 -0.54162620868E+01  0.25436237297E+01 -0.22596264902E+01  0.66384906076E+01  0.17770000000E+01 0.  1.
</event>
<event>
 6    1  0.1226227E-002  0.1842061E+03  0.7546771E-02  0.1067105E+00
        -11   -1    0    0    0    0  0.00000000000E+00  0.00000000000E+00  0.18250000000E+03  0.18250000000E+03  0.00000000000E+00 0. -1.
         11   -1    0    0    0    0 -0.00000000000E+00 -0.00000000000E+00 -0.18250000000E+03  0.18250000000E+03  0.00000000000E+00 0.  1.
        -11    1    1    2    0    0  0.81703817690E+00 -0.38753712564E+01  0.15229116232E+03  0.15234265383E+03  0.00000000000E+00 0. -1.
         11    1    1    2    0    0  0.20561137352E+01 -0.69732770947E+01 -0.18064769939E+03  0.18079393102E+03  0.00000000000E+00 0.  1.
        -15    1    1    2    0    0 -0.70891428535E+00  0.30997994857E+01  0.19212993581E+02  0.19555259335E+02  0.17770000000E+01 0. -1.
         15    1    1    2    0    0 -0.21642376267E+01  0.77488488654E+01  0.91435434888E+01  0.12308155824E+02  0.17770000000E+01 0. -1.
</event>
<event>
 6    1  0.1226227E-002  0.1898504E+03  0.7546771E-02  0.1062750E+00
        -11   -1    0    0    0    0  0.00000000000E+00  0.00000000000E+00  0.18250000000E+03  0.18250000000E+03  0.00000000000E+00 0. -1.
         11   -1    0    0    0    0 -0.00000000000E+00 -0.00000000000E+00 -0.18250000000E+03  0.18250000000E+03  0.00000000000E+00 0.  1.
        -11    1    1    2    0    0 -0.26618469902E+01 -0.14063485503E+01  0.17512368643E+03  0.17514956121E+03  0.00000000000E+00 0. -1.
         11    1    1    2    0    0  0.20629055477E+01  0.25151749800E+01 -0.17336485444E+03  0.17339537030E+03  0.00000000000E+00 0.  1.
        -15    1    1    2    0    0  0.10403508139E+01 -0.35448504394E+00  0.70878737610E+01  0.73894298098E+01  0.17770000000E+01 0.  1.
         15    1    1    2    0    0 -0.44140937145E+00 -0.75434138577E+00 -0.88467057441E+01  0.90656386803E+01  0.17770000000E+01 0. -1.
</event>
<event>
 6    1  0.1226227E-002  0.1666828E+03  0.7546771E-02  0.1081792E+00
        -11   -1    0    0    0    0  0.00000000000E+00  0.00000000000E+00  0.18250000000E+03  0.18250000000E+03  0.00000000000E+00 0. -1.
         11   -1    0    0    0    0 -0.00000000000E+00 -0.00000000000E+00 -0.18250000000E+03  0.18250000000E+03  0.00000000000E+00 0.  1.
        -11    1    1    2    0    0  0.15254186361E+02 -0.16308784980E+01  0.16507887656E+03  0.16579018503E+03  0.00000000000E+00 0. -1.
         11    1    1    2    0    0  0.14483559101E+01 -0.51867494663E+01 -0.16798954373E+03  0.16807583677E+03  0.00000000000E+00 0.  1.
        -15    1    1    2    0    0 -0.22695587503E+02  0.80578764805E+01  0.45029134251E+01  0.24565280861E+02  0.17770000000E+01 0. -1.
         15    1    1    2    0    0  0.59930452324E+01 -0.12402485161E+01 -0.15922462538E+01  0.65686973344E+01  0.17770000000E+01 0.  1.
</event>
<event>
 6    1  0.1226227E-002  0.1858012E+03  0.7546771E-02  0.1065857E+00
        -11   -1    0    0    0    0  0.00000000000E+00  0.00000000000E+00  0.18250000000E+03  0.18250000000E+03  0.00000000000E+00 0. -1.
         11   -1    0    0    0    0 -0.00000000000E+00 -0.00000000000E+00 -0.18250000000E+03  0.18250000000E+03  0.00000000000E+00 0. -1.
        -11    1    1    2    0    0  0.53125628479E+01 -0.35631297137E+01  0.17908459201E+03  0.17919880110E+03  0.00000000000E+00 0. -1.
         11    1    1    2    0    0 -0.26369259499E+01  0.10519186732E+01 -0.16504083182E+03  0.16506524795E+03  0.00000000000E+00 0. -1.
        -15    1    1    2    0    0  0.10360095162E+01 -0.46994945474E+01 -0.10544850864E+02  0.11726473189E+02  0.17770000000E+01 0. -1.
         15    1    1    2    0    0 -0.37116464142E+01  0.72107055878E+01 -0.34989093274E+01  0.90094777684E+01  0.17770000000E+01 0.  1.
</event>
<event>
 6    1  0.1226227E-002  0.1886184E+03  0.7546771E-02  0.1063686E+00
        -11   -1    0    0    0    0  0.00000000000E+00  0.00000000000E+00  0.18250000000E+03  0.18250000000E+03  0.00000000000E+00 0. -1.
         11   -1    0    0    0    0 -0.00000000000E+00 -0.00000000000E+00 -0.18250000000E+03  0.18250000000E+03  0.00000000000E+00 0. -1.
        -11    1    1    2    0    0 -0.49357540617E+01  0.55670538275E+01  0.17622460032E+03  0.17638158496E+03  0.00000000000E+00 0. -1.
         11    1    1    2    0    0 -0.34244860458E+01  0.19949877718E+01 -0.16354004293E+03  0.16358805801E+03  0.00000000000E+00 0. -1.
        -15    1    1    2    0    0  0.25253134293E+01 -0.12841144026E+02 -0.98658440762E+01  0.16485290296E+02  0.17770000000E+01 0.  1.
         15    1    1    2    0    0  0.58349266782E+01  0.52791024268E+01 -0.28187133075E+01  0.85450667337E+01  0.17770000000E+01 0. -1.
</event>
<event>
 6    1  0.1226227E-002  0.1847851E+03  0.7546771E-02  0.1066650E+00
        -11   -1    0    0    0    0  0.00000000000E+00  0.00000000000E+00  0.18250000000E+03  0.18250000000E+03  0.00000000000E+00 0. -1.
         11   -1    0    0    0    0 -0.00000000000E+00 -0.00000000000E+00 -0.18250000000E+03  0.18250000000E+03  0.00000000000E+00 0.  1.
        -11    1    1    2    0    0  0.20899771215E+01 -0.73491946603E+01  0.12008265810E+03  0.12032548958E+03  0.00000000000E+00 0. -1.
         11    1    1    2    0    0 -0.37692122020E+01  0.64302145989E+01 -0.18006068606E+03  0.18021488642E+03  0.00000000000E+00 0.  1.
        -15    1    1    2    0    0 -0.85205275090E+01 -0.27992102943E+01  0.44745621066E+02  0.45670157662E+02  0.17770000000E+01 0. -1.
         15    1    1    2    0    0  0.10199762590E+02  0.37181903558E+01  0.15232406898E+02  0.18789466339E+02  0.17770000000E+01 0.  1.
</event>
<event>
 6    1  0.1226227E-002  0.1837554E+03  0.7546771E-02  0.1067460E+00
        -11   -1    0    0    0    0  0.00000000000E+00  0.00000000000E+00  0.18250000000E+03  0.18250000000E+03  0.00000000000E+00 0. -1.
         11   -1    0    0    0    0 -0.00000000000E+00 -0.00000000000E+00 -0.18250000000E+03  0.18250000000E+03  0.00000000000E+00 0.  1.
        -11    1    1    2    0    0 -0.14352275604E+00  0.66632917679E+01  0.18112200508E+03  0.18124458828E+03  0.00000000000E+00 0. -1.
         11    1    1    2    0    0 -0.40287318576E+00 -0.19099740525E+01 -0.13665071348E+03  0.13666465455E+03  0.00000000000E+00 0.  1.
        -15    1    1    2    0    0 -0.40651783278E+01 -0.73577576770E+01 -0.16893491436E+02  0.18952837644E+02  0.17770000000E+01 0. -1.
         15    1    1    2    0    0  0.46115742696E+01  0.26044399615E+01 -0.27577800161E+02  0.28137919530E+02  0.17770000000E+01 0.  1.
</event>
<event>
 6    1  0.1226227E-002  0.1132158E+03  0.7546771E-02  0.1142740E+00
        -11   -1    0    0    0    0  0.00000000000E+00  0.00000000000E+00  0.18250000000E+03  0.18250000000E+03  0.00000000000E+00 0.  1.
         11   -1    0    0    0    0 -0.00000000000E+00 -0.00000000000E+00 -0.18250000000E+03  0.18250000000E+03  0.00000000000E+00 0.  1.
        -11    1    1    2    0    0 -0.97730329774E+00 -0.20151181405E+00  0.56675104855E+02  0.56683888708E+02  0.00000000000E+00 0.  1.
         11    1    1    2    0    0  0.31671920587E+02  0.22723199565E+02 -0.99528514567E+02  0.10688956714E+03  0.00000000000E+00 0.  1.
        -15    1    1    2    0    0  0.40077985357E+00 -0.26827917359E+02 -0.74882690156E+02  0.79564268288E+02  0.17770000000E+01 0.  1.
         15    1    1    2    0    0 -0.31095397143E+02  0.43062296079E+01  0.11773609987E+03  0.12186227586E+03  0.17770000000E+01 0. -1.
</event>
<event>
 6    1  0.1226227E-002  0.1837330E+03  0.7546771E-02  0.1067478E+00
        -11   -1    0    0    0    0  0.00000000000E+00  0.00000000000E+00  0.18250000000E+03  0.18250000000E+03  0.00000000000E+00 0.  1.
         11   -1    0    0    0    0 -0.00000000000E+00 -0.00000000000E+00 -0.18250000000E+03  0.18250000000E+03  0.00000000000E+00 0. -1.
        -11    1    1    2    0    0  0.45187943478E+00  0.40099470858E+01  0.59571889363E+02  0.59708407054E+02  0.00000000000E+00 0.  1.
         11    1    1    2    0    0  0.47859240108E+01  0.50698711469E+01 -0.18113287739E+03  0.18126700729E+03  0.00000000000E+00 0. -1.
        -15    1    1    2    0    0  0.38087989838E+01  0.54577064012E+00  0.85071686970E+02  0.85177194532E+02  0.17770000000E+01 0.  1.
         15    1    1    2    0    0 -0.90466024294E+01 -0.96255888728E+01  0.36489301053E+02  0.38847391123E+02  0.17770000000E+01 0. -1.
</event>
<event>
 6    1  0.1226227E-002  0.1825348E+03  0.7546771E-02  0.1068427E+00
        -11   -1    0    0    0    0  0.00000000000E+00  0.00000000000E+00  0.18250000000E+03  0.18250000000E+03  0.00000000000E+00 0.  1.
         11   -1    0    0    0    0 -0.00000000000E+00 -0.00000000000E+00 -0.18250000000E+03  0.18250000000E+03  0.00000000000E+00 0.  1.
        -11    1    1    2    0    0  0.24900863513E+00  0.74703434960E+00  0.24414314829E+02  0.24427010341E+02  0.00000000000E+00 0.  1.
         11    1    1    2    0    0 -0.23487517115E+01  0.10023364615E+01 -0.18244730490E+03  0.18246517580E+03  0.00000000000E+00 0.  1.
        -15    1    1    2    0    0  0.11248540371E+01  0.48977306739E-01  0.58020727373E+02  0.58058851429E+02  0.17770000000E+01 0.  1.
         15    1    1    2    0    0  0.97488903926E+00 -0.17983481179E+01  0.10001226270E+03  0.10004896243E+03  0.17770000000E+01 0. -1.
</event>
<event>
 6    1  0.1226227E-002  0.1893134E+03  0.7546771E-02  0.1063157E+00
        -11   -1    0    0    0    0  0.00000000000E+00  0.00000000000E+00  0.18250000000E+03  0.18250000000E+03  0.00000000000E+00 0.  1.
         11   -1    0    0    0    0 -0.00000000000E+00 -0.00000000000E+00 -0.18250000000E+03  0.18250000000E+03  0.00000000000E+00 0. -1.
        -11    1    1    2    0    0  0.47835749221E+01 -0.33530861028E+00  0.17562115340E+03  0.17568660889E+03  0.00000000000E+00 0.  1.
         11    1    1    2    0    0  0.33312507701E+01 -0.12397478429E+01 -0.12494733005E+03  0.12499787795E+03  0.00000000000E+00 0. -1.
        -15    1    1    2    0    0 -0.21877600057E+01 -0.16299027876E+02 -0.96721185194E+01  0.19161216276E+02  0.17770000000E+01 0.  1.
         15    1    1    2    0    0 -0.59270656865E+01  0.17874084329E+02 -0.41001704835E+02  0.45154296879E+02  0.17770000000E+01 0. -1.
</event>
<event>
 6    1  0.1226227E-002  0.1931624E+03  0.7546771E-02  0.1060271E+00
        -11   -1    0    0    0    0  0.00000000000E+00  0.00000000000E+00  0.18250000000E+03  0.18250000000E+03  0.00000000000E+00 0.  1.
         11   -1    0    0    0    0 -0.00000000000E+00 -0.00000000000E+00 -0.18250000000E+03  0.18250000000E+03  0.00000000000E+00 0. -1.
        -11    1    1    2    0    0 -0.68604196434E+01 -0.79980578440E+01  0.15392090688E+03  0.15428117144E+03  0.00000000000E+00 0.  1.
         11    1    1    2    0    0 -0.17520146591E+01 -0.11351698774E+02 -0.17145329535E+03  0.17183760679E+03  0.00000000000E+00 0. -1.
        -15    1    1    2    0    0 -0.26640402214E+01  0.78768097265E+01  0.20709956021E+02  0.22387524409E+02  0.17770000000E+01 0.  1.
         15    1    1    2    0    0  0.11276474524E+02  0.11472946892E+02 -0.31775675503E+01  0.16493697360E+02  0.17770000000E+01 0. -1.
</event>
<event>
 6    1  0.1226227E-002  0.1677665E+03  0.7546771E-02  0.1080828E+00
        -11   -1    0    0    0    0  0.00000000000E+00  0.00000000000E+00  0.18250000000E+03  0.18250000000E+03  0.00000000000E+00 0. -1.
         11   -1    0    0    0    0 -0.00000000000E+00 -0.00000000000E+00 -0.18250000000E+03  0.18250000000E+03  0.00000000000E+00 0. -1.
        -11    1    1    2    0    0 -0.63553447192E+00 -0.10196779344E+02  0.16932562997E+03  0.16963356736E+03  0.00000000000E+00 0. -1.
         11    1    1    2    0    0  0.66190454666E+01 -0.33783551030E+01 -0.16607673156E+03  0.16624291206E+03  0.00000000000E+00 0. -1.
        -15    1    1    2    0    0  0.26320557106E+01  0.73646750601E-02 -0.10814471092E+02  0.11271126186E+02  0.17770000000E+01 0.  1.
         15    1    1    2    0    0 -0.86155667053E+01  0.13567769772E+02  0.75655726849E+01  0.17852394386E+02  0.17770000000E+01 0. -1.
</event>
<event>
 6    1  0.1226227E-002  0.1781176E+03  0.7546771E-02  0.1071998E+00
        -11   -1    0    0    0    0  0.00000000000E+00  0.00000000000E+00  0.18250000000E+03  0.18250000000E+03  0.00000000000E+00 0.  1.
         11   -1    0    0    0    0 -0.00000000000E+00 -0.00000000000E+00 -0.18250000000E+03  0.18250000000E+03  0.00000000000E+00 0.  1.
        -11    1    1    2    0    0  0.30284038645E+01  0.71563104006E+00  0.17683355664E+03  0.17686093438E+03  0.00000000000E+00 0.  1.
         11    1    1    2    0    0  0.32611253217E+01  0.75960523393E+00 -0.17941095917E+03  0.17944220297E+03  0.00000000000E+00 0.  1.
        -15    1    1    2    0    0 -0.51775885741E+01 -0.51010627214E+00  0.38093263650E+00  0.55109409836E+01  0.17770000000E+01 0.  1.
         15    1    1    2    0    0 -0.11119406121E+01 -0.96513000184E+00  0.21964698926E+01  0.31859216617E+01  0.17770000000E+01 0. -1.
</event>
<event>
 6    1  0.1226227E-002  0.1835469E+03  0.7546771E-02  0.1067624E+00
        -11   -1    0    0    0    0  0.00000000000E+00  0.00000000000E+00  0.18250000000E+03  0.18250000000E+03  0.00000000000E+00 0. -1.
         11   -1    0    0    0    0 -0.00000000000E+00 -0.00000000000E+00 -0.18250000000E+03  0.18250000000E+03  0.00000000000E+00 0.  1.
        -11    1    1    2    0    0  0.20378165728E+01  0.15361036673E+01  0.18143512889E+03  0.18145307467E+03  0.00000000000E+00 0. -1.
         11    1    1    2    0    0 -0.37474156321E+01 -0.18314260595E+01 -0.14738525046E+03  0.14744425827E+03  0.00000000000E+00 0.  1.
        -15    1    1    2    0    0 -0.48160513631E+00  0.29278341684E+01 -0.30978240694E+02  0.31170711925E+02  0.17770000000E+01 0.  1.
         15    1    1    2    0    0  0.21912041956E+01 -0.26325117762E+01 -0.30716377396E+01  0.49319551379E+01  0.17770000000E+01 0. -1.
</event>
<event>
 6    1  0.1226227E-002  0.1830091E+03  0.7546771E-02  0.1068050E+00
        -11   -1    0    0    0    0  0.00000000000E+00  0.00000000000E+00  0.18250000000E+03  0.18250000000E+03  0.00000000000E+00 0.  1.
         11   -1    0    0    0    0 -0.00000000000E+00 -0.00000000000E+00 -0.18250000000E+03  0.18250000000E+03  0.00000000000E+00 0.  1.
        -11    1    1    2    0    0  0.11799550396E+01  0.18305475804E+01  0.10547585069E+03  0.10549833306E+03  0.00000000000E+00 0.  1.
         11    1    1    2    0    0  0.26185665332E+01  0.16019251452E+01 -0.18196502334E+03  0.18199091399E+03  0.00000000000E+00 0.  1.
        -15    1    1    2    0    0 -0.14895680028E+01 -0.56094645981E+00  0.26787180449E+01  0.35870228783E+01  0.17770000000E+01 0. -1.
         15    1    1    2    0    0 -0.23089535700E+01 -0.28715262658E+01  0.73810454606E+02  0.73923730073E+02  0.17770000000E+01 0.  1.
</event>
<event>
 6    1  0.1226227E-002  0.1831585E+03  0.7546771E-02  0.1067932E+00
        -11   -1    0    0    0    0  0.00000000000E+00  0.00000000000E+00  0.18250000000E+03  0.18250000000E+03  0.00000000000E+00 0.  1.
         11   -1    0    0    0    0 -0.00000000000E+00 -0.00000000000E+00 -0.18250000000E+03  0.18250000000E+03  0.00000000000E+00 0.  1.
        -11    1    1    2    0    0  0.20521541344E+01  0.41520005721E+01  0.16244582257E+03  0.16251183254E+03  0.00000000000E+00 0.  1.
         11    1    1    2    0    0  0.19750335090E+01 -0.16456151534E+01 -0.18182328480E+03  0.18184145760E+03  0.00000000000E+00 0.  1.
        -15    1    1    2    0    0 -0.16402997631E+01 -0.76790240924E+00  0.14214462385E+02  0.14439145657E+02  0.17770000000E+01 0. -1.
         15    1    1    2    0    0 -0.23868878803E+01 -0.17384830095E+01  0.51629998447E+01  0.62075642022E+01  0.17770000000E+01 0.  1.
</event>
<event>
 6    1  0.1226227E-002  0.1829361E+03  0.7546771E-02  0.1068108E+00
        -11   -1    0    0    0    0  0.00000000000E+00  0.00000000000E+00  0.18250000000E+03  0.18250000000E+03  0.00000000000E+00 0. -1.
         11   -1    0    0    0    0 -0.00000000000E+00 -0.00000000000E+00 -0.18250000000E+03  0.18250000000E+03  0.00000000000E+00 0. -1.
        -11    1    1    2    0    0  0.53775634282E+01 -0.34127337240E+01  0.18195246015E+03  0.18206389728E+03  0.00000000000E+00 0. -1.
         11    1    1    2    0    0 -0.42076510903E+00  0.14136478921E+01 -0.28820412190E+02  0.28858128880E+02  0.00000000000E+00 0. -1.
        -15    1    1    2    0    0 -0.79692968524E+00 -0.21523587158E+01 -0.47344768685E+01  0.55534444432E+01  0.17770000000E+01 0.  1.
         15    1    1    2    0    0 -0.41598686339E+01  0.41514445478E+01 -0.14839757109E+03  0.14852452940E+03  0.17770000000E+01 0.  1.
</event>
<event>
 6    1  0.1226227E-002  0.1859791E+03  0.7546771E-02  0.1065719E+00
        -11   -1    0    0    0    0  0.00000000000E+00  0.00000000000E+00  0.18250000000E+03  0.18250000000E+03  0.00000000000E+00 0.  1.
         11   -1    0    0    0    0 -0.00000000000E+00 -0.00000000000E+00 -0.18250000000E+03  0.18250000000E+03  0.00000000000E+00 0.  1.
        -11    1    1    2    0    0  0.18801947595E+01 -0.75152804322E+01  0.17885324292E+03  0.17902094033E+03  0.00000000000E+00 0.  1.
         11    1    1    2    0    0  0.11664968687E+01  0.27725084869E+01 -0.16426768378E+03  0.16429522042E+03  0.00000000000E+00 0.  1.
        -15    1    1    2    0    0  0.27721020359E+01  0.83387455723E+01 -0.85815422493E+01  0.12410472344E+02  0.17770000000E+01 0. -1.
         15    1    1    2    0    0 -0.58187936640E+01 -0.35959736269E+01 -0.60040168906E+01  0.92733669103E+01  0.17770000000E+01 0.  1.
</event>
<event>
 6    1  0.1226227E-002  0.1874203E+03  0.7546771E-02  0.1064604E+00
        -11   -1    0    0    0    0  0.00000000000E+00  0.00000000000E+00  0.18250000000E+03  0.18250000000E+03  0.00000000000E+00 0. -1.
         11   -1    0    0    0    0 -0.00000000000E+00 -0.00000000000E+00 -0.18250000000E+03  0.18250000000E+03  0.00000000000E+00 0. -1.
        -11    1    1    2    0    0  0.25421526486E+01  0.60154591152E+00  0.17460671808E+03  0.17462625918E+03  0.00000000000E+00 0. -1.
         11    1    1    2    0    0 -0.23806853642E+01 -0.78678117351E+00 -0.17756197890E+03  0.17757968081E+03  0.00000000000E+00 0. -1.
        -15    1    1    2    0    0  0.11968530302E+01  0.32461277008E+01 -0.35492434926E+01  0.52654212173E+01  0.17770000000E+01 0.  1.
         15    1    1    2    0    0 -0.13583203146E+01 -0.30608924388E+01  0.65045043115E+01  0.75286387838E+01  0.17770000000E+01 0.  1.
</event>
<event>
 6    1  0.1226227E-002  0.1721505E+03  0.7546771E-02  0.1077005E+00
        -11   -1    0    0    0    0  0.00000000000E+00  0.00000000000E+00  0.18250000000E+03  0.18250000000E+03  0.00000000000E+00 0.  1.
         11   -1    0    0    0    0 -0.00000000000E+00 -0.00000000000E+00 -0.18250000000E+03  0.18250000000E+03  0.00000000000E+00 0. -1.
        -11    1    1    2    0    0 -0.57531782839E+01 -0.55087902465E+01  0.17410453366E+03  0.17428664456E+03  0.00000000000E+00 0.  1.
         11    1    1    2    0    0 -0.36733609216E+01  0.57668965021E+01 -0.17003005123E+03  0.17016747338E+03  0.00000000000E+00 0. -1.
        -15    1    1    2    0    0  0.28089372859E+01  0.43284546367E+01  0.56101148931E+01  0.78266701944E+01  0.17770000000E+01 0.  1.
         15    1    1    2    0    0  0.66176019197E+01 -0.45865608923E+01 -0.96845973245E+01  0.12719211859E+02  0.17770000000E+01 0. -1.
</event>
<event>
 6    1  0.1226227E-002  0.1830102E+03  0.7546771E-02  0.1068049E+00
        -11   -1    0    0    0    0  0.00000000000E+00  0.00000000000E+00  0.18250000000E+03  0.18250000000E+03  0.00000000000E+00 0.  1.
         11   -1    0    0    0    0 -0.00000000000E+00 -0.00000000000E+00 -0.18250000000E+03  0.18250000000E+03  0.00000000000E+00 0. -1.
        -11    1    1    2    0    0 -0.28123713234E+01 -0.31182306207E+00  0.18196783402E+03  0.18198983291E+03  0.00000000000E+00 0.  1.
         11    1    1    2    0    0 -0.39652231524E+01 -0.66897681119E+00 -0.12477023074E+03  0.12483501514E+03  0.00000000000E+00 0. -1.
        -15    1    1    2    0    0  0.12592317027E+01 -0.22613127118E+00 -0.33449838816E+01  0.39979302147E+01  0.17770000000E+01 0.  1.
         15    1    1    2    0    0  0.55183627731E+01  0.12069311444E+01 -0.53852619393E+02  0.54177221736E+02  0.17770000000E+01 0. -1.
</event>
<event>
 6    1  0.1226227E-002  0.1825942E+03  0.7546771E-02  0.1068380E+00
        -11   -1    0    0    0    0  0.00000000000E+00  0.00000000000E+00  0.18250000000E+03  0.18250000000E+03  0.00000000000E+00 0.  1.
         11   -1    0    0    0    0 -0.00000000000E+00 -0.00000000000E+00 -0.18250000000E+03  0.18250000000E+03  0.00000000000E+00 0.  1.
        -11    1    1    2    0    0  0.95113011652E+00 -0.87648041131E+00  0.93152131915E+02  0.93161110700E+02  0.00000000000E+00 0.  1.
         11    1    1    2    0    0  0.36508526843E+01  0.21299077408E+01 -0.18235679497E+03  0.18240577267E+03  0.00000000000E+00 0.  1.
        -15    1    1    2    0    0 -0.21675160532E+01 -0.48189866563E+00  0.59033891192E+02  0.59102355202E+02  0.17770000000E+01 0.  1.
         15    1    1    2    0    0 -0.24344667476E+01 -0.77152866389E+00  0.30170771864E+02  0.30330761426E+02  0.17770000000E+01 0. -1.
</event>
<event>
 6    1  0.1226227E-002  0.1864048E+03  0.7546771E-02  0.1065388E+00
        -11   -1    0    0    0    0  0.00000000000E+00  0.00000000000E+00  0.18250000000E+03  0.18250000000E+03  0.00000000000E+00 0. -1.
         11   -1    0    0    0    0 -0.00000000000E+00 -0.00000000000E+00 -0.18250000000E+03  0.18250000000E+03  0.00000000000E+00 0.  1.
        -11    1    1    2    0    0  0.75803807600E+00 -0.37016219277E+01  0.17855525905E+03  0.17859523275E+03  0.00000000000E+00 0. -1.
         11    1    1    2    0    0 -0.62361520768E+00 -0.20330373448E+01 -0.14061321243E+03  0.14062929157E+03  0.00000000000E+00 0.  1.
        -15    1    1    2    0    0  0.21038329325E+00  0.73592759550E+01 -0.41098547148E+02  0.41790567242E+02  0.17770000000E+01 0. -1.
         15    1    1    2    0    0 -0.34480616158E+00 -0.16246166825E+01  0.31565005287E+01  0.39849084358E+01  0.17770000000E+01 0.  1.
</event>
<event>
 6    1  0.1226227E-002  0.1864875E+03  0.7546771E-02  0.1065324E+00
        -11   -1    0    0    0    0  0.00000000000E+00  0.00000000000E+00  0.18250000000E+03  0.18250000000E+03  0.00000000000E+00 0.  1.
         11   -1    0    0    0    0 -0.00000000000E+00 -0.00000000000E+00 -0.18250000000E+03  0.18250000000E+03  0.00000000000E+00 0. -1.
        -11    1    1    2    0    0 -0.27253333149E+01  0.81033147227E-01  0.17849166959E+03  0.17851249290E+03  0.00000000000E+00 0.  1.
         11    1    1    2    0    0 -0.16894354205E+01 -0.18052860687E+01 -0.16637694363E+03  0.16639531430E+03  0.00000000000E+00 0. -1.
        -15    1    1    2    0    0  0.50104478523E+01 -0.36380379810E+01  0.29036083077E+00  0.64484065043E+01  0.17770000000E+01 0.  1.
         15    1    1    2    0    0 -0.59567911695E+00  0.53622909025E+01 -0.12405086788E+02  0.13643786299E+02  0.17770000000E+01 0. -1.
</event>
<event>
 6    1  0.1226227E-002  0.1835131E+03  0.7546771E-02  0.1067651E+00
        -11   -1    0    0    0    0  0.00000000000E+00  0.00000000000E+00  0.18250000000E+03  0.18250000000E+03  0.00000000000E+00 0. -1.
         11   -1    0    0    0    0 -0.00000000000E+00 -0.00000000000E+00 -0.18250000000E+03  0.18250000000E+03  0.00000000000E+00 0.  1.
        -11    1    1    2    0    0  0.39223177947E+01  0.30949172905E+01  0.18141807794E+03  0.18148686480E+03  0.00000000000E+00 0. -1.
         11    1    1    2    0    0  0.21428132459E+01  0.15868477617E+01 -0.14430336479E+03  0.14432799737E+03  0.00000000000E+00 0.  1.
        -15    1    1    2    0    0  0.20932540906E+01 -0.27944433793E+01 -0.95685054750E+01  0.10339470611E+02  0.17770000000E+01 0.  1.
         15    1    1    2    0    0 -0.81583851313E+01 -0.18873216728E+01 -0.27546207681E+02  0.28845667225E+02  0.17770000000E+01 0. -1.
</event>
<event>
 6    1  0.1226227E-002  0.1847308E+03  0.7546771E-02  0.1066693E+00
        -11   -1    0    0    0    0  0.00000000000E+00  0.00000000000E+00  0.18250000000E+03  0.18250000000E+03  0.00000000000E+00 0. -1.
         11   -1    0    0    0    0 -0.00000000000E+00 -0.00000000000E+00 -0.18250000000E+03  0.18250000000E+03  0.00000000000E+00 0.  1.
        -11    1    1    2    0    0  0.12334959525E+01 -0.57893043613E+01  0.18017199363E+03  0.18026920105E+03  0.00000000000E+00 0. -1.
         11    1    1    2    0    0  0.49837749919E+01 -0.40419335356E+00 -0.16437523453E+03  0.16445126668E+03  0.00000000000E+00 0.  1.
        -15    1    1    2    0    0  0.47818136136E+00 -0.84032323502E+00 -0.51705980869E+00  0.20880326624E+01  0.17770000000E+01 0.  1.
         15    1    1    2    0    0 -0.66954523057E+01  0.70338209499E+01 -0.15279699290E+02  0.18191499612E+02  0.17770000000E+01 0.  1.
</event>
<event>
 6    1  0.1226227E-002  0.1838265E+03  0.7546771E-02  0.1067404E+00
        -11   -1    0    0    0    0  0.00000000000E+00  0.00000000000E+00  0.18250000000E+03  0.18250000000E+03  0.00000000000E+00 0. -1.
         11   -1    0    0    0    0 -0.00000000000E+00 -0.00000000000E+00 -0.18250000000E+03  0.18250000000E+03  0.00000000000E+00 0. -1.
        -11    1    1    2    0    0 -0.84526338112E+01  0.76989419426E+01  0.18081235886E+03  0.18117347996E+03  0.00000000000E+00 0. -1.
         11    1    1    2    0    0  0.15594954801E+01 -0.13847938399E+00 -0.10545396711E+03  0.10546558861E+03  0.00000000000E+00 0. -1.
        -15    1    1    2    0    0 -0.47370786842E+01 -0.20325645560E+01 -0.45100909474E+02  0.45429296687E+02  0.17770000000E+01 0. -1.
         15    1    1    2    0    0  0.11630217015E+02 -0.55278980026E+01 -0.30257482273E+02  0.32931634740E+02  0.17770000000E+01 0.  1.
</event>
<event>
 6    1  0.1226227E-002  0.1900889E+03  0.7546771E-02  0.1062570E+00
        -11   -1    0    0    0    0  0.00000000000E+00  0.00000000000E+00  0.18250000000E+03  0.18250000000E+03  0.00000000000E+00 0.  1.
         11   -1    0    0    0    0 -0.00000000000E+00 -0.00000000000E+00 -0.18250000000E+03  0.18250000000E+03  0.00000000000E+00 0.  1.
        -11    1    1    2    0    0  0.73026366840E+01  0.24035054781E+01  0.16336555245E+03  0.16354635143E+03  0.00000000000E+00 0.  1.
         11    1    1    2    0    0  0.54659502970E+01 -0.77049880251E+00 -0.17482397542E+03  0.17491109931E+03  0.00000000000E+00 0.  1.
        -15    1    1    2    0    0 -0.10294930358E+02  0.73386208856E+01  0.11326386980E+02  0.17067094615E+02  0.17770000000E+01 0.  1.
         15    1    1    2    0    0 -0.24736566230E+01 -0.89716275612E+01  0.13203599184E+00  0.94754546428E+01  0.17770000000E+01 0. -1.
</event>
<event>
 6    1  0.1226227E-002  0.1826489E+03  0.7546771E-02  0.1068336E+00
        -11   -1    0    0    0    0  0.00000000000E+00  0.00000000000E+00  0.18250000000E+03  0.18250000000E+03  0.00000000000E+00 0. -1.
         11   -1    0    0    0    0 -0.00000000000E+00 -0.00000000000E+00 -0.18250000000E+03  0.18250000000E+03  0.00000000000E+00 0.  1.
        -11    1    1    2    0    0  0.55256305208E+00 -0.14741147006E+01  0.64810789646E+02  0.64829906637E+02  0.00000000000E+00 0. -1.
         11    1    1    2    0    0  0.85207665498E+00 -0.24923456128E+01 -0.18233210653E+03  0.18235113077E+03  0.00000000000E+00 0.  1.
        -15    1    1    2    0    0 -0.87422612146E+00  0.24346307830E+01  0.10613359174E+03  0.10617998269E+03  0.17770000000E+01 0. -1.
         15    1    1    2    0    0 -0.53041358561E+00  0.15318295305E+01  0.11387725145E+02  0.11638979907E+02  0.17770000000E+01 0.  1.
</event>
<event>
 6    1  0.1226227E-002  0.2071844E+03  0.7546771E-02  0.1050345E+00
        -11   -1    0    0    0    0  0.00000000000E+00  0.00000000000E+00  0.18250000000E+03  0.18250000000E+03  0.00000000000E+00 0. -1.
         11   -1    0    0    0    0 -0.00000000000E+00 -0.00000000000E+00 -0.18250000000E+03  0.18250000000E+03  0.00000000000E+00 0. -1.
        -11    1    1    2    0    0 -0.24003337408E+01 -0.15190123501E+01  0.15778998765E+03  0.15781555438E+03  0.00000000000E+00 0. -1.
         11    1    1    2    0    0 -0.47547145680E+01  0.53725681288E+01 -0.13466025203E+03  0.13485123387E+03  0.00000000000E+00 0. -1.
        -15    1    1    2    0    0  0.54624893446E+01 -0.58113997034E+01 -0.47279417575E+02  0.47980331508E+02  0.17770000000E+01 0.  1.
         15    1    1    2    0    0  0.16925589641E+01  0.19578439247E+01  0.24149681956E+02  0.24352880246E+02  0.17770000000E+01 0.  1.
</event>
<event>
 6    1  0.1226227E-002  0.1844059E+03  0.7546771E-02  0.1066948E+00
        -11   -1    0    0    0    0  0.00000000000E+00  0.00000000000E+00  0.18250000000E+03  0.18250000000E+03  0.00000000000E+00 0.  1.
         11   -1    0    0    0    0 -0.00000000000E+00 -0.00000000000E+00 -0.18250000000E+03  0.18250000000E+03  0.00000000000E+00 0. -1.
        -11    1    1    2    0    0 -0.52662598194E+01  0.28170650191E+01  0.86712130966E+02  0.86917564419E+02  0.00000000000E+00 0.  1.
         11    1    1    2    0    0  0.37965788343E+01  0.16815789602E+02 -0.17976946130E+03  0.18059414167E+03  0.00000000000E+00 0. -1.
        -15    1    1    2    0    0  0.94913516026E+01 -0.14970456236E+02  0.75254171189E+02  0.77334004975E+02  0.17770000000E+01 0.  1.
         15    1    1    2    0    0 -0.80216706175E+01 -0.46623983851E+01  0.17803159140E+02  0.20154288937E+02  0.17770000000E+01 0. -1.
</event>
<event>
 6    1  0.1226227E-002  0.1888032E+03  0.7546771E-02  0.1063545E+00
        -11   -1    0    0    0    0  0.00000000000E+00  0.00000000000E+00  0.18250000000E+03  0.18250000000E+03  0.00000000000E+00 0.  1.
         11   -1    0    0    0    0 -0.00000000000E+00 -0.00000000000E+00 -0.18250000000E+03  0.18250000000E+03  0.00000000000E+00 0. -1.
        -11    1    1    2    0    0 -0.71583457878E+00  0.50275753759E+01  0.16286122681E+03  0.16294038214E+03  0.00000000000E+00 0.  1.
         11    1    1    2    0    0  0.26173294759E+01 -0.10003393138E+01 -0.17617448324E+03  0.17619676398E+03  0.00000000000E+00 0. -1.
        -15    1    1    2    0    0 -0.46568570499E+01 -0.11136862943E+01  0.18429347978E+02  0.19123943386E+02  0.17770000000E+01 0.  1.
         15    1    1    2    0    0  0.27553621527E+01 -0.29135497678E+01 -0.51160915517E+01  0.67389104911E+01  0.17770000000E+01 0. -1.
</event>
<event>
 6    1  0.1226227E-002  0.1856386E+03  0.7546771E-02  0.1065984E+00
        -11   -1    0    0    0    0  0.00000000000E+00  0.00000000000E+00  0.18250000000E+03  0.18250000000E+03  0.00000000000E+00 0. -1.
         11   -1    0    0    0    0 -0.00000000000E+00 -0.00000000000E+00 -0.18250000000E+03  0.18250000000E+03  0.00000000000E+00 0.  1.
        -11    1    1    2    0    0 -0.68677861604E+01 -0.30597559463E+01  0.82405627598E+02  0.82747906639E+02  0.00000000000E+00 0. -1.
         11    1    1    2    0    0  0.67057513338E+00  0.42237395560E+01 -0.17931035874E+03  0.17936135146E+03  0.00000000000E+00 0.  1.
        -15    1    1    2    0    0  0.35897046306E+01 -0.19583940794E-01 -0.16113698358E+01  0.43174766488E+01  0.17770000000E+01 0.  1.
         15    1    1    2    0    0  0.26075063965E+01 -0.11443996689E+01  0.98516100980E+02  0.98573265248E+02  0.17770000000E+01 0. -1.
</event>
<event>
 6    1  0.1226227E-002  0.1826555E+03  0.7546771E-02  0.1068331E+00
        -11   -1    0    0    0    0  0.00000000000E+00  0.00000000000E+00  0.18250000000E+03  0.18250000000E+03  0.00000000000E+00 0.  1.
         11   -1    0    0    0    0 -0.00000000000E+00 -0.00000000000E+00 -0.18250000000E+03  0.18250000000E+03  0.00000000000E+00 0.  1.
        -11    1    1    2    0    0  0.16001953174E+01 -0.55884096387E+00  0.38726760199E+02  0.38763834740E+02  0.00000000000E+00 0.  1.
         11    1    1    2    0    0 -0.28369462670E+01  0.30494815818E+01 -0.18229692814E+03  0.18234450256E+03  0.00000000000E+00 0.  1.
        -15    1    1    2    0    0  0.15760672273E+01 -0.31981267080E+01  0.25822973201E+02  0.26128445730E+02  0.17770000000E+01 0.  1.
         15    1    1    2    0    0 -0.33931627764E+00  0.70748609004E+00  0.11774719475E+03  0.11776321697E+03  0.17770000000E+01 0.  1.
</event>
<event>
 6    1  0.1226227E-002  0.1873289E+03  0.7546771E-02  0.1064675E+00
        -11   -1    0    0    0    0  0.00000000000E+00  0.00000000000E+00  0.18250000000E+03  0.18250000000E+03  0.00000000000E+00 0. -1.
         11   -1    0    0    0    0 -0.00000000000E+00 -0.00000000000E+00 -0.18250000000E+03  0.18250000000E+03  0.00000000000E+00 0.  1.
        -11    1    1    2    0    0 -0.24691905027E+01  0.17273490593E+01  0.17764554888E+03  0.17767110534E+03  0.00000000000E+00 0. -1.
         11    1    1    2    0    0 -0.75883741302E+01 -0.69618200787E+01 -0.14111845206E+03  0.14149370258E+03  0.00000000000E+00 0.  1.
        -15    1    1    2    0    0  0.55584511461E+01  0.33248914755E+00  0.23889922602E+01  0.63144232670E+01  0.17770000000E+01 0. -1.
         15    1    1    2    0    0  0.44991134868E+01  0.49019818719E+01 -0.38916089085E+02  0.39520768807E+02  0.17770000000E+01 0. -1.
</event>
<event>
 6    1  0.1226227E-002  0.1834420E+03  0.7546771E-02  0.1067707E+00
        -11   -1    0    0    0    0  0.00000000000E+00  0.00000000000E+00  0.18250000000E+03  0.18250000000E+03  0.00000000000E+00 0. -1.
         11   -1    0    0    0    0 -0.00000000000E+00 -0.00000000000E+00 -0.18250000000E+03  0.18250000000E+03  0.00000000000E+00 0. -1.
        -11    1    1    2    0    0 -0.55882981810E+01  0.54860441649E-01  0.18147193499E+03  0.18155796671E+03  0.00000000000E+00 0. -1.
         11    1    1    2    0    0 -0.28761895199E+01 -0.53533495180E+00 -0.12226112999E+03  0.12229612814E+03  0.00000000000E+00 0. -1.
        -15    1    1    2    0    0  0.26716537527E+01  0.77406923722E+00 -0.25754829605E+01  0.41866165860E+01  0.17770000000E+01 0.  1.
         15    1    1    2    0    0  0.57928339483E+01 -0.29359472707E+00 -0.56635322036E+02  0.56959288567E+02  0.17770000000E+01 0. -1.
</event>
<event>
 6    1  0.1948283E-002  0.1880341E+03  0.7546771E-02  0.1064133E+00
        -11   -1    0    0    0    0  0.00000000000E+00  0.00000000000E+00  0.18250000000E+03  0.18250000000E+03  0.00000000000E+00 0.  1.
         11   -1    0    0    0    0 -0.00000000000E+00 -0.00000000000E+00 -0.18250000000E+03  0.18250000000E+03  0.00000000000E+00 0. -1.
        -11    1    1    2    0    0 -0.43063379845E+01  0.39536841887E+01  0.17686926665E+03  0.17696585448E+03  0.00000000000E+00 0.  1.
         11    1    1    2    0    0 -0.34981551419E+00 -0.15125737639E+01 -0.14665743137E+02  0.14747687007E+02  0.00000000000E+00 0. -1.
        -15    1    1    2    0    0  0.25315649034E+01 -0.31899534300E+01  0.46364812571E+01  0.64217841129E+01  0.17770000000E+01 0. -1.
         15    1    1    2    0    0  0.21245885953E+01  0.74884300518E+00 -0.16684000477E+03  0.16686467440E+03  0.17770000000E+01 0. -1.
</event>
<event>
 6    1  0.1226227E-002  0.1826105E+03  0.7546771E-02  0.1068367E+00
        -11   -1    0    0    0    0  0.00000000000E+00  0.00000000000E+00  0.18250000000E+03  0.18250000000E+03  0.00000000000E+00 0.  1.
         11   -1    0    0    0    0 -0.00000000000E+00 -0.00000000000E+00 -0.18250000000E+03  0.18250000000E+03  0.00000000000E+00 0. -1.
        -11    1    1    2    0    0 -0.16256260901E+01  0.37821673457E+00  0.10800941038E+03  0.10802230529E+03  0.00000000000E+00 0.  1.
         11    1    1    2    0    0  0.23626193720E+00 -0.31611112107E+01 -0.18236198989E+03  0.18238953863E+03  0.00000000000E+00 0. -1.
        -15    1    1    2    0    0  0.67126190690E+00 -0.52237617427E+00  0.18367420469E+02  0.18472772751E+02  0.17770000000E+01 0. -1.
         15    1    1    2    0    0  0.71810224597E+00  0.33052706504E+01  0.55985159041E+02  0.56115383335E+02  0.17770000000E+01 0.  1.
</event>
<event>
 6    1  0.1226227E-002  0.1935337E+03  0.7546771E-02  0.1059996E+00
        -11   -1    0    0    0    0  0.00000000000E+00  0.00000000000E+00  0.18250000000E+03  0.18250000000E+03  0.00000000000E+00 0. -1.
         11   -1    0    0    0    0 -0.00000000000E+00 -0.00000000000E+00 -0.18250000000E+03  0.18250000000E+03  0.00000000000E+00 0. -1.
        -11    1    1    2    0    0  0.96274419572E+00  0.25981664619E+01  0.17144392243E+03  0.17146631122E+03  0.00000000000E+00 0. -1.
         11    1    1    2    0    0 -0.27203286503E+01 -0.25289247255E+00 -0.11393146376E+03  0.11396421621E+03  0.00000000000E+00 0. -1.
        -15    1    1    2    0    0  0.37139530062E+01  0.93673056372E+00 -0.68070630916E+02  0.68201462106E+02  0.17770000000E+01 0. -1.
         15    1    1    2    0    0 -0.19563685516E+01 -0.32820045531E+01  0.10558172241E+02  0.11368010462E+02  0.17770000000E+01 0. -1.
</event>
<event>
 6    1  0.1226227E-002  0.1827545E+03  0.7546771E-02  0.1068252E+00
        -11   -1    0    0    0    0  0.00000000000E+00  0.00000000000E+00  0.18250000000E+03  0.18250000000E+03  0.00000000000E+00 0. -1.
         11   -1    0    0    0    0 -0.00000000000E+00 -0.00000000000E+00 -0.18250000000E+03  0.18250000000E+03  0.00000000000E+00 0.  1.
        -11    1    1    2    0    0 -0.81454952826E+01  0.84392378199E+01  0.18186766500E+03  0.18224548664E+03  0.00000000000E+00 0. -1.
         11    1    1    2    0    0  0.70214212453E+00  0.46431265703E+00 -0.13294791832E+02  0.13321414327E+02  0.00000000000E+00 0.  1.
        -15    1    1    2    0    0 -0.19676960446E+01 -0.55431087346E+01 -0.89637299495E+02  0.89847654794E+02  0.17770000000E+01 0. -1.
         15    1    1    2    0    0  0.94110492026E+01 -0.33604417422E+01 -0.78935573669E+02  0.79585444242E+02  0.17770000000E+01 0.  1.
</event>
<event>
 6    1  0.1226227E-002  0.1827221E+03  0.7546771E-02  0.1068278E+00
        -11   -1    0    0    0    0  0.00000000000E+00  0.00000000000E+00  0.18250000000E+03  0.18250000000E+03  0.00000000000E+00 0. -1.
         11   -1    0    0    0    0 -0.00000000000E+00 -0.00000000000E+00 -0.18250000000E+03  0.18250000000E+03  0.00000000000E+00 0.  1.
        -11    1    1    2    0    0  0.20494266769E+01  0.27852070838E+01  0.18224513259E+03  0.18227793580E+03  0.00000000000E+00 0. -1.
         11    1    1    2    0    0  0.90888094742E+00  0.12080148013E+01 -0.64907683151E+02  0.64925285493E+02  0.00000000000E+00 0.  1.
        -15    1    1    2    0    0 -0.33491435171E+01 -0.63374127408E+01 -0.78830517497E+02  0.79175676697E+02  0.17770000000E+01 0.  1.
         15    1    1    2    0    0  0.39083589280E+00  0.23441908557E+01 -0.38506931942E+02  0.38621102005E+02  0.17770000000E+01 0.  1.
</event>
<event>
 6    1  0.1226227E-002  0.1832244E+03  0.7546771E-02  0.1067880E+00
        -11   -1    0    0    0    0  0.00000000000E+00  0.00000000000E+00  0.18250000000E+03  0.18250000000E+03  0.00000000000E+00 0.  1.
         11   -1    0    0    0    0 -0.00000000000E+00 -0.00000000000E+00 -0.18250000000E+03  0.18250000000E+03  0.00000000000E+00 0.  1.
        -11    1    1    2    0    0  0.18585300390E+01 -0.47880666660E+01  0.18170302371E+03  0.18177559941E+03  0.00000000000E+00 0.  1.
         11    1    1    2    0    0  0.25636835364E+01  0.12899783585E+01 -0.10134390376E+03  0.10138453209E+03  0.00000000000E+00 0.  1.
        -15    1    1    2    0    0 -0.19457032604E+01 -0.20619209111E+01 -0.66666276184E+02  0.66750186428E+02  0.17770000000E+01 0.  1.
         15    1    1    2    0    0 -0.24765103150E+01  0.55600092187E+01 -0.13692843761E+02  0.15089682075E+02  0.17770000000E+01 0.  1.
</event>
<event>
 6    1  0.1226227E-002  0.1625154E+03  0.7546771E-02  0.1085578E+00
        -11   -1    0    0    0    0  0.00000000000E+00  0.00000000000E+00  0.18250000000E+03  0.18250000000E+03  0.00000000000E+00 0.  1.
         11   -1    0    0    0    0 -0.00000000000E+00 -0.00000000000E+00 -0.18250000000E+03  0.18250000000E+03  0.00000000000E+00 0. -1.
        -11    1    1    2    0    0 -0.16990164757E+01 -0.20462292235E+01  0.16406270059E+03  0.16408425712E+03  0.00000000000E+00 0.  1.
         11    1    1    2    0    0 -0.13223481067E+01 -0.37902821982E+01 -0.16097751980E+03  0.16102756511E+03  0.00000000000E+00 0. -1.
        -15    1    1    2    0    0  0.22918655185E+01  0.56512309508E+01 -0.20964177896E+02  0.21905331375E+02  0.17770000000E+01 0.  1.
         15    1    1    2    0    0  0.72949906389E+00  0.18528047096E+00  0.17878997111E+02  0.17982846394E+02  0.17770000000E+01 0.  1.
</event>
<event>
 6    1  0.1226227E-002  0.1856609E+03  0.7546771E-02  0.1065966E+00
        -11   -1    0    0    0    0  0.00000000000E+00  0.00000000000E+00  0.18250000000E+03  0.18250000000E+03  0.00000000000E+00 0. -1.
         11   -1    0    0    0    0 -0.00000000000E+00 -0.00000000000E+00 -0.18250000000E+03  0.18250000000E+03  0.00000000000E+00 0. -1.
        -11    1    1    2    0    0 -0.29401033235E+01 -0.37151287323E+00  0.17355274172E+03  0.17357804120E+03  0.00000000000E+00 0. -1.
         11    1    1    2    0    0 -0.23723083333E+00 -0.35846849238E+01 -0.17930315835E+03  0.17933914474E+03  0.00000000000E+00 0. -1.
        -15    1    1    2    0    0  0.17880355930E+00  0.61428859038E+01  0.26211685816E+01  0.69134124478E+01  0.17770000000E+01 0.  1.
         15    1    1    2    0    0  0.29985305975E+01 -0.21866881068E+01  0.31292480465E+01  0.51694016053E+01  0.17770000000E+01 0. -1.
</event>
<event>
 6    1  0.1226227E-002  0.1837064E+03  0.7546771E-02  0.1067499E+00
        -11   -1    0    0    0    0  0.00000000000E+00  0.00000000000E+00  0.18250000000E+03  0.18250000000E+03  0.00000000000E+00 0. -1.
         11   -1    0    0    0    0 -0.00000000000E+00 -0.00000000000E+00 -0.18250000000E+03  0.18250000000E+03  0.00000000000E+00 0.  1.
        -11    1    1    2    0    0 -0.36906365636E+01  0.42186620094E+01  0.18120689005E+03  0.18129356003E+03  0.00000000000E+00 0. -1.
         11    1    1    2    0    0  0.23682128631E+01 -0.49436649106E+00 -0.14425575150E+03  0.14427603637E+03  0.00000000000E+00 0.  1.
        -15    1    1    2    0    0 -0.23572810315E+01  0.21804068538E+00 -0.31229828851E+02  0.31369798448E+02  0.17770000000E+01 0.  1.
         15    1    1    2    0    0  0.36797047320E+01 -0.39423362037E+01 -0.57213097048E+01  0.80606051508E+01  0.17770000000E+01 0.  1.
</event>
<event>
 6    1  0.1226227E-002  0.1847997E+03  0.7546771E-02  0.1066639E+00
        -11   -1    0    0    0    0  0.00000000000E+00  0.00000000000E+00  0.18250000000E+03  0.18250000000E+03  0.00000000000E+00 0.  1.
         11   -1    0    0    0    0 -0.00000000000E+00 -0.00000000000E+00 -0.18250000000E+03  0.18250000000E+03  0.00000000000E+00 0.  1.
        -11    1    1    2    0    0  0.22961165834E+01  0.30957097433E+01  0.18015909341E+03  0.18020031773E+03  0.00000000000E+00 0.  1.
         11    1    1    2    0    0 -0.22000348347E+01  0.16274261825E+01 -0.17412242985E+03  0.17414393256E+03  0.00000000000E+00 0.  1.
        -15    1    1    2    0    0 -0.20876282242E+00  0.52101077888E+00  0.64979164874E+00  0.19735734936E+01  0.17770000000E+01 0.  1.
         15    1    1    2    0    0  0.11268107373E+00 -0.52441467047E+01 -0.66864552083E+01  0.86821762213E+01  0.17770000000E+01 0. -1.
</event>
<event>
 6    1  0.1226227E-002  0.1837365E+03  0.7546771E-02  0.1067475E+00
        -11   -1    0    0    0    0  0.00000000000E+00  0.00000000000E+00  0.18250000000E+03  0.18250000000E+03  0.00000000000E+00 0.  1.
         11   -1    0    0    0    0 -0.00000000000E+00 -0.00000000000E+00 -0.18250000000E+03  0.18250000000E+03  0.00000000000E+00 0. -1.
        -11    1    1    2    0    0  0.22119626875E+01 -0.17306765025E+01  0.18124175194E+03  0.18126351168E+03  0.00000000000E+00 0.  1.
         11    1    1    2    0    0  0.87529569924E+00  0.35626819612E+01 -0.12901793148E+03  0.12907007975E+03  0.00000000000E+00 0. -1.
        -15    1    1    2    0    0 -0.59927764248E+00 -0.35895912004E+01 -0.50637946633E+02  0.50799642389E+02  0.17770000000E+01 0.  1.
         15    1    1    2    0    0 -0.24879807443E+01  0.17575857418E+01 -0.15858738343E+01  0.38667661737E+01  0.17770000000E+01 0. -1.
</event>
<event>
 6    1  0.1226227E-002  0.1904242E+03  0.7546771E-02  0.1062316E+00
        -11   -1    0    0    0    0  0.00000000000E+00  0.00000000000E+00  0.18250000000E+03  0.18250000000E+03  0.00000000000E+00 0.  1.
         11   -1    0    0    0    0 -0.00000000000E+00 -0.00000000000E+00 -0.18250000000E+03  0.18250000000E+03  0.00000000000E+00 0.  1.
        -11    1    1    2    0    0  0.18211057112E+01 -0.71355346050E+01  0.17442043550E+03  0.17457583052E+03  0.00000000000E+00 0.  1.
         11    1    1    2    0    0 -0.11167301450E+02  0.12135741929E+02 -0.16140674392E+03  0.16224710116E+03  0.00000000000E+00 0.  1.
        -15    1    1    2    0    0  0.47574325828E+01  0.87944885480E+01 -0.36398094944E+01  0.10788055235E+02  0.17770000000E+01 0. -1.
         15    1    1    2    0    0  0.45887631559E+01 -0.13794695872E+02 -0.93738820930E+01  0.17389013083E+02  0.17770000000E+01 0.  1.
</event>
<event>
 6    1  0.1226227E-002  0.1877464E+03  0.7546771E-02  0.1064354E+00
        -11   -1    0    0    0    0  0.00000000000E+00  0.00000000000E+00  0.18250000000E+03  0.18250000000E+03  0.00000000000E+00 0. -1.
         11   -1    0    0    0    0 -0.00000000000E+00 -0.00000000000E+00 -0.18250000000E+03  0.18250000000E+03  0.00000000000E+00 0.  1.
        -11    1    1    2    0    0 -0.22200213510E+01 -0.28376586612E+01  0.16165748796E+03  0.16169763206E+03  0.00000000000E+00 0. -1.
         11    1    1    2    0    0  0.15091131833E+02  0.10386373644E+02 -0.17630432103E+03  0.17725358285E+03  0.00000000000E+00 0.  1.
        -15    1    1    2    0    0 -0.14538368351E+02 -0.85865680996E+01  0.77543715280E+01  0.18664975565E+02  0.17770000000E+01 0. -1.
         15    1    1    2    0    0  0.16672578697E+01  0.10378531164E+01  0.68924615467E+01  0.73838095227E+01  0.17770000000E+01 0.  1.
</event>
<event>
 6    1  0.1226227E-002  0.1840221E+03  0.7546771E-02  0.1067250E+00
        -11   -1    0    0    0    0  0.00000000000E+00  0.00000000000E+00  0.18250000000E+03  0.18250000000E+03  0.00000000000E+00 0. -1.
         11   -1    0    0    0    0 -0.00000000000E+00 -0.00000000000E+00 -0.18250000000E+03  0.18250000000E+03  0.00000000000E+00 0.  1.
        -11    1    1    2    0    0 -0.20168949616E+01  0.23400941764E+01  0.14318731231E+03  0.14322063508E+03  0.00000000000E+00 0. -1.
         11    1    1    2    0    0 -0.20227595906E+01 -0.17668722497E+01 -0.18095801942E+03  0.18097794944E+03  0.00000000000E+00 0.  1.
        -15    1    1    2    0    0 -0.15320165751E+01  0.17570255231E+01  0.46450350897E+00  0.29677779541E+01  0.17770000000E+01 0. -1.
         15    1    1    2    0    0  0.55716711272E+01 -0.23302474497E+01  0.37306203601E+02  0.37833637526E+02  0.17770000000E+01 0.  1.
</event>
<event>
 6    1  0.1226227E-002  0.1826453E+03  0.7546771E-02  0.1068339E+00
        -11   -1    0    0    0    0  0.00000000000E+00  0.00000000000E+00  0.18250000000E+03  0.18250000000E+03  0.00000000000E+00 0.  1.
         11   -1    0    0    0    0 -0.00000000000E+00 -0.00000000000E+00 -0.18250000000E+03  0.18250000000E+03  0.00000000000E+00 0.  1.
        -11    1    1    2    0    0  0.84848874461E+00 -0.41631551301E+00  0.12809269717E+02  0.12844089787E+02  0.00000000000E+00 0.  1.
         11    1    1    2    0    0  0.10385613438E+01 -0.55549431515E+01 -0.18226714211E+03  0.18235472875E+03  0.00000000000E+00 0.  1.
        -15    1    1    2    0    0 -0.73041110917E-01  0.64839854721E+01  0.73115273483E+02  0.73423758744E+02  0.17770000000E+01 0.  1.
         15    1    1    2    0    0 -0.18140089775E+01 -0.51272680758E+00  0.96342598909E+02  0.96377422724E+02  0.17770000000E+01 0.  1.
</event>
<event>
 6    1  0.1226227E-002  0.1833082E+03  0.7546771E-02  0.1067813E+00
        -11   -1    0    0    0    0  0.00000000000E+00  0.00000000000E+00  0.18250000000E+03  0.18250000000E+03  0.00000000000E+00 0. -1.
         11   -1    0    0    0    0 -0.00000000000E+00 -0.00000000000E+00 -0.18250000000E+03  0.18250000000E+03  0.00000000000E+00 0. -1.
        -11    1    1    2    0    0  0.89544652245E+00  0.13628003123E+01  0.11977968585E+03  0.11979078509E+03  0.00000000000E+00 0. -1.
         11    1    1    2    0    0 -0.75869987172E+01  0.55907025335E+01 -0.18144720248E+03  0.18169178791E+03  0.00000000000E+00 0. -1.
        -15    1    1    2    0    0  0.71304519072E+01 -0.56208850615E+01  0.59990896678E+02  0.60700107961E+02  0.17770000000E+01 0. -1.
         15    1    1    2    0    0 -0.43889971245E+00 -0.13326177842E+01  0.16766199522E+01  0.28173190413E+01  0.17770000000E+01 0. -1.
</event>
<event>
 6    1  0.1226227E-002  0.1830294E+03  0.7546771E-02  0.1068034E+00
        -11   -1    0    0    0    0  0.00000000000E+00  0.00000000000E+00  0.18250000000E+03  0.18250000000E+03  0.00000000000E+00 0. -1.
         11   -1    0    0    0    0 -0.00000000000E+00 -0.00000000000E+00 -0.18250000000E+03  0.18250000000E+03  0.00000000000E+00 0. -1.
        -11    1    1    2    0    0 -0.29311855585E+01  0.41770003109E+01  0.18189907985E+03  0.18197064168E+03  0.00000000000E+00 0. -1.
         11    1    1    2    0    0  0.16679217020E+01 -0.12950418832E+01 -0.13413547581E+03  0.13415209639E+03  0.00000000000E+00 0. -1.
        -15    1    1    2    0    0 -0.19627575685E+01 -0.23664939469E+01 -0.41042689992E+02  0.41196029440E+02  0.17770000000E+01 0.  1.
         15    1    1    2    0    0  0.32260214250E+01 -0.51546448085E+00 -0.67209140564E+01  0.76812324935E+01  0.17770000000E+01 0. -1.
</event>
<event>
 6    1  0.1226227E-002  0.1870321E+03  0.7546771E-02  0.1064903E+00
        -11   -1    0    0    0    0  0.00000000000E+00  0.00000000000E+00  0.18250000000E+03  0.18250000000E+03  0.00000000000E+00 0. -1.
         11   -1    0    0    0    0 -0.00000000000E+00 -0.00000000000E+00 -0.18250000000E+03  0.18250000000E+03  0.00000000000E+00 0. -1.
        -11    1    1    2    0    0 -0.38874329338E+01  0.44979641141E+01  0.17442607934E+03  0.17452736453E+03  0.00000000000E+00 0. -1.
         11    1    1    2    0    0  0.20332939677E+01 -0.49755521186E+01 -0.17788676129E+03  0.17796794724E+03  0.00000000000E+00 0. -1.
        -15    1    1    2    0    0  0.60196169953E+01 -0.22936305395E+01  0.15304115137E+01  0.68553933675E+01  0.17770000000E+01 0. -1.
         15    1    1    2    0    0 -0.41654780292E+01  0.27712185440E+01  0.19302704395E+01  0.56492948587E+01  0.17770000000E+01 0.  1.
</event>
<event>
 6    1  0.1226227E-002  0.1829313E+03  0.7546771E-02  0.1068112E+00
        -11   -1    0    0    0    0  0.00000000000E+00  0.00000000000E+00  0.18250000000E+03  0.18250000000E+03  0.00000000000E+00 0. -1.
         11   -1    0    0    0    0 -0.00000000000E+00 -0.00000000000E+00 -0.18250000000E+03  0.18250000000E+03  0.00000000000E+00 0.  1.
        -11    1    1    2    0    0  0.25131413669E+01  0.32087952447E+01  0.18202311670E+03  0.18206874322E+03  0.00000000000E+00 0. -1.
         11    1    1    2    0    0  0.26913221955E+01 -0.41690225983E+01 -0.13142557186E+03  0.13151921876E+03  0.00000000000E+00 0.  1.
        -15    1    1    2    0    0 -0.51980010708E+01  0.26543853647E+01 -0.42920457543E+02  0.43351913239E+02  0.17770000000E+01 0. -1.
         15    1    1    2    0    0 -0.64624915769E-02 -0.16941580111E+01 -0.76770872913E+01  0.80601247763E+01  0.17770000000E+01 0.  1.
</event>
<event>
 6    1  0.1226227E-002  0.1828586E+03  0.7546771E-02  0.1068170E+00
        -11   -1    0    0    0    0  0.00000000000E+00  0.00000000000E+00  0.18250000000E+03  0.18250000000E+03  0.00000000000E+00 0.  1.
         11   -1    0    0    0    0 -0.00000000000E+00 -0.00000000000E+00 -0.18250000000E+03  0.18250000000E+03  0.00000000000E+00 0.  1.
        -11    1    1    2    0    0  0.69697420447E+01 -0.38355019240E+01  0.10009028020E+03  0.10040593892E+03  0.00000000000E+00 0.  1.
         11    1    1    2    0    0 -0.62526663601E+01  0.11718196338E+00 -0.18203399337E+03  0.18214138550E+03  0.00000000000E+00 0.  1.
        -15    1    1    2    0    0 -0.31087318099E+01  0.41939723761E+01  0.65705462698E+02  0.65936478334E+02  0.17770000000E+01 0.  1.
         15    1    1    2    0    0  0.23916561254E+01 -0.47565241554E+00  0.16238250471E+02  0.16516197250E+02  0.17770000000E+01 0. -1.
</event>
<event>
 6    1  0.1226227E-002  0.1856697E+03  0.7546771E-02  0.1065959E+00
        -11   -1    0    0    0    0  0.00000000000E+00  0.00000000000E+00  0.18250000000E+03  0.18250000000E+03  0.00000000000E+00 0.  1.
         11   -1    0    0    0    0 -0.00000000000E+00 -0.00000000000E+00 -0.18250000000E+03  0.18250000000E+03  0.00000000000E+00 0. -1.
        -11    1    1    2    0    0  0.69178243084E+00  0.42797252827E+01  0.16891151400E+03  0.16896713933E+03  0.00000000000E+00 0.  1.
         11    1    1    2    0    0 -0.19065447041E+01 -0.35256706416E+01 -0.17928552500E+03  0.17933032298E+03  0.00000000000E+00 0. -1.
        -15    1    1    2    0    0  0.32468374247E+01 -0.25786838029E+01  0.12172056785E+02  0.12981073099E+02  0.17770000000E+01 0.  1.
         15    1    1    2    0    0 -0.20320751514E+01  0.18246291617E+01 -0.17980457866E+01  0.37214645839E+01  0.17770000000E+01 0. -1.
</event>
<event>
 6    1  0.1226227E-002  0.1851106E+03  0.7546771E-02  0.1066396E+00
        -11   -1    0    0    0    0  0.00000000000E+00  0.00000000000E+00  0.18250000000E+03  0.18250000000E+03  0.00000000000E+00 0.  1.
         11   -1    0    0    0    0 -0.00000000000E+00 -0.00000000000E+00 -0.18250000000E+03  0.18250000000E+03  0.00000000000E+00 0.  1.
        -11    1    1    2    0    0 -0.88884667907E+00  0.24207250729E+01  0.12417381776E+03  0.12420059168E+03  0.00000000000E+00 0.  1.
         11    1    1    2    0    0  0.57019583038E+00  0.24543668920E+01 -0.17987173453E+03  0.17988938247E+03  0.00000000000E+00 0.  1.
        -15    1    1    2    0    0 -0.15308667247E+01 -0.88200054578E+01  0.55452191265E+02  0.56198214333E+02  0.17770000000E+01 0. -1.
         15    1    1    2    0    0  0.18495175734E+01  0.39449134929E+01  0.24572551177E+00  0.47118115145E+01  0.17770000000E+01 0.  1.
</event>
<event>
 6    1  0.1226227E-002  0.1900311E+03  0.7546771E-02  0.1062613E+00
        -11   -1    0    0    0    0  0.00000000000E+00  0.00000000000E+00  0.18250000000E+03  0.18250000000E+03  0.00000000000E+00 0.  1.
         11   -1    0    0    0    0 -0.00000000000E+00 -0.00000000000E+00 -0.18250000000E+03  0.18250000000E+03  0.00000000000E+00 0. -1.
        -11    1    1    2    0    0  0.61082686148E+00  0.24151502173E+01  0.17495116095E+03  0.17496889660E+03  0.00000000000E+00 0.  1.
         11    1    1    2    0    0 -0.38344695019E+01  0.21281792563E+02 -0.13856754152E+03  0.14024471973E+03  0.00000000000E+00 0. -1.
        -15    1    1    2    0    0  0.54699030588E+01  0.72733713714E+00  0.88925686622E-01  0.57978009246E+01  0.17770000000E+01 0.  1.
         15    1    1    2    0    0 -0.22462604183E+01 -0.24424279917E+02 -0.36472545116E+02  0.43988582741E+02  0.17770000000E+01 0. -1.
</event>
<event>
 6    1  0.1616417E-002  0.1877814E+03  0.7546771E-02  0.1064327E+00
        -11   -1    0    0    0    0  0.00000000000E+00  0.00000000000E+00  0.18250000000E+03  0.18250000000E+03  0.00000000000E+00 0. -1.
         11   -1    0    0    0    0 -0.00000000000E+00 -0.00000000000E+00 -0.18250000000E+03  0.18250000000E+03  0.00000000000E+00 0. -1.
        -11    1    1    2    0    0 -0.37804087200E+01 -0.21369301647E+01  0.17716534893E+03  0.17721856230E+03  0.00000000000E+00 0. -1.
         11    1    1    2    0    0 -0.12676842291E+02  0.80560414269E+01 -0.12428192335E+03  0.12518625565E+03  0.00000000000E+00 0. -1.
        -15    1    1    2    0    0  0.13665945159E+02 -0.91662144996E+01 -0.55045389649E+02  0.57479824251E+02  0.17770000000E+01 0.  1.
         15    1    1    2    0    0  0.27913058519E+01  0.32471032374E+01  0.21619640620E+01  0.51153577977E+01  0.17770000000E+01 0. -1.
</event>
<event>
 6    1  0.1226227E-002  0.1889626E+03  0.7546771E-02  0.1063424E+00
        -11   -1    0    0    0    0  0.00000000000E+00  0.00000000000E+00  0.18250000000E+03  0.18250000000E+03  0.00000000000E+00 0.  1.
         11   -1    0    0    0    0 -0.00000000000E+00 -0.00000000000E+00 -0.18250000000E+03  0.18250000000E+03  0.00000000000E+00 0. -1.
        -11    1    1    2    0    0  0.95121363334E+00  0.34684167413E+01  0.17600069119E+03  0.17603743358E+03  0.00000000000E+00 0.  1.
         11    1    1    2    0    0 -0.24823546113E+01  0.77209286421E+00 -0.15741237865E+03  0.15743384377E+03  0.00000000000E+00 0. -1.
        -15    1    1    2    0    0  0.77486067238E+00 -0.18662519487E+01 -0.24619137466E+02  0.24765761930E+02  0.17770000000E+01 0. -1.
         15    1    1    2    0    0  0.75628030563E+00 -0.23742576569E+01  0.60308249268E+01  0.67629607140E+01  0.17770000000E+01 0. -1.
</event>
<event>
 6    1  0.1226227E-002  0.1887113E+03  0.7546771E-02  0.1063615E+00
        -11   -1    0    0    0    0  0.00000000000E+00  0.00000000000E+00  0.18250000000E+03  0.18250000000E+03  0.00000000000E+00 0.  1.
         11   -1    0    0    0    0 -0.00000000000E+00 -0.00000000000E+00 -0.18250000000E+03  0.18250000000E+03  0.00000000000E+00 0. -1.
        -11    1    1    2    0    0  0.77760238362E+00 -0.42970288405E+01  0.17623459306E+03  0.17628868629E+03  0.00000000000E+00 0.  1.
         11    1    1    2    0    0 -0.24565574450E+00 -0.74079152834E+01 -0.12288315793E+03  0.12310649072E+03  0.00000000000E+00 0. -1.
        -15    1    1    2    0    0  0.66750659028E+01  0.17775375932E+02 -0.52641780951E+02  0.55989600150E+02  0.17770000000E+01 0.  1.
         15    1    1    2    0    0 -0.72070125419E+01 -0.60704318080E+01 -0.70965418383E+00  0.96152228355E+01  0.17770000000E+01 0. -1.
</event>
<event>
 6    1  0.1226227E-002  0.1826301E+03  0.7546771E-02  0.1068351E+00
        -11   -1    0    0    0    0  0.00000000000E+00  0.00000000000E+00  0.18250000000E+03  0.18250000000E+03  0.00000000000E+00 0.  1.
         11   -1    0    0    0    0 -0.00000000000E+00 -0.00000000000E+00 -0.18250000000E+03  0.18250000000E+03  0.00000000000E+00 0.  1.
        -11    1    1    2    0    0  0.70822605462E+00  0.34814986982E+01  0.18233528551E+03  0.18236989543E+03  0.00000000000E+00 0.  1.
         11    1    1    2    0    0  0.29731865168E+01  0.48798478064E+00 -0.50238500324E+02  0.50328767937E+02  0.00000000000E+00 0.  1.
        -15    1    1    2    0    0 -0.78200086907E+00 -0.24723992998E+01 -0.85042664541E+02  0.85100745031E+02  0.17770000000E+01 0.  1.
         15    1    1    2    0    0 -0.28994117024E+01 -0.14970841790E+01 -0.47054120643E+02  0.47200591604E+02  0.17770000000E+01 0. -1.
</event>
<event>
 6    1  0.1226227E-002  0.1830493E+03  0.7546771E-02  0.1068018E+00
        -11   -1    0    0    0    0  0.00000000000E+00  0.00000000000E+00  0.18250000000E+03  0.18250000000E+03  0.00000000000E+00 0.  1.
         11   -1    0    0    0    0 -0.00000000000E+00 -0.00000000000E+00 -0.18250000000E+03  0.18250000000E+03  0.00000000000E+00 0. -1.
        -11    1    1    2    0    0  0.10811655491E+01  0.16822434158E+00  0.75048131268E+02  0.75056107181E+02  0.00000000000E+00 0.  1.
         11    1    1    2    0    0 -0.28331481395E+01 -0.14831749569E+01 -0.18192264236E+03  0.18195074701E+03  0.00000000000E+00 0. -1.
        -15    1    1    2    0    0 -0.56579908079E+01 -0.11721463137E+01  0.24716383524E+02  0.25444923472E+02  0.17770000000E+01 0. -1.
         15    1    1    2    0    0  0.74099733983E+01  0.24870969291E+01  0.82158127564E+02  0.82548222335E+02  0.17770000000E+01 0.  1.
</event>
<event>
 6    1  0.1226227E-002  0.1893457E+03  0.7546771E-02  0.1063133E+00
        -11   -1    0    0    0    0  0.00000000000E+00  0.00000000000E+00  0.18250000000E+03  0.18250000000E+03  0.00000000000E+00 0.  1.
         11   -1    0    0    0    0 -0.00000000000E+00 -0.00000000000E+00 -0.18250000000E+03  0.18250000000E+03  0.00000000000E+00 0. -1.
        -11    1    1    2    0    0 -0.42799779042E+01  0.16840283121E+01  0.17559404813E+03  0.17565427379E+03  0.00000000000E+00 0.  1.
         11    1    1    2    0    0  0.17892569907E+01 -0.15175312146E+02 -0.12222980112E+03  0.12318123161E+03  0.00000000000E+00 0. -1.
        -15    1    1    2    0    0 -0.80245046963E+00  0.88208872656E+01  0.29728742837E+01  0.95103990145E+01  0.17770000000E+01 0.  1.
         15    1    1    2    0    0  0.32931713831E+01  0.46703965680E+01 -0.56337121296E+02  0.56654095587E+02  0.17770000000E+01 0. -1.
</event>
<event>
 6    1  0.1226227E-002  0.1688048E+03  0.7546771E-02  0.1079911E+00
        -11   -1    0    0    0    0  0.00000000000E+00  0.00000000000E+00  0.18250000000E+03  0.18250000000E+03  0.00000000000E+00 0.  1.
         11   -1    0    0    0    0 -0.00000000000E+00 -0.00000000000E+00 -0.18250000000E+03  0.18250000000E+03  0.00000000000E+00 0. -1.
        -11    1    1    2    0    0 -0.59805644955E+00 -0.40952116288E+01  0.17158166876E+03  0.17163157485E+03  0.00000000000E+00 0.  1.
         11    1    1    2    0    0  0.87229549134E+01 -0.63595231308E+01 -0.16593403948E+03  0.16628481270E+03  0.00000000000E+00 0. -1.
        -15    1    1    2    0    0 -0.38024773850E+01  0.52101466934E+00  0.83109226989E+01  0.93252053949E+01  0.17770000000E+01 0.  1.
         15    1    1    2    0    0 -0.43224210789E+01  0.99337200903E+01 -0.13958551985E+02  0.17758407060E+02  0.17770000000E+01 0. -1.
</event>
<event>
 6    1  0.1226227E-002  0.1891446E+03  0.7546771E-02  0.1063285E+00
        -11   -1    0    0    0    0  0.00000000000E+00  0.00000000000E+00  0.18250000000E+03  0.18250000000E+03  0.00000000000E+00 0.  1.
         11   -1    0    0    0    0 -0.00000000000E+00 -0.00000000000E+00 -0.18250000000E+03  0.18250000000E+03  0.00000000000E+00 0.  1.
        -11    1    1    2    0    0  0.61564703034E+01  0.91475150292E+00  0.12025431421E+03  0.12041527720E+03  0.00000000000E+00 0.  1.
         11    1    1    2    0    0  0.99007172095E+01 -0.20622484205E+01 -0.17556435191E+03  0.17585539153E+03  0.00000000000E+00 0.  1.
        -15    1    1    2    0    0 -0.82675056670E+00 -0.16958479534E+02  0.23328622546E+02  0.28907713564E+02  0.17770000000E+01 0.  1.
         15    1    1    2    0    0 -0.15230436946E+02  0.18105976451E+02  0.31981415146E+02  0.39821617704E+02  0.17770000000E+01 0. -1.
</event>
<event>
 6    1  0.1226227E-002  0.1876816E+03  0.7546771E-02  0.1064403E+00
        -11   -1    0    0    0    0  0.00000000000E+00  0.00000000000E+00  0.18250000000E+03  0.18250000000E+03  0.00000000000E+00 0.  1.
         11   -1    0    0    0    0 -0.00000000000E+00 -0.00000000000E+00 -0.18250000000E+03  0.18250000000E+03  0.00000000000E+00 0. -1.
        -11    1    1    2    0    0 -0.57948417718E-01 -0.73404838449E+01  0.16813626661E+03  0.16829643553E+03  0.00000000000E+00 0.  1.
         11    1    1    2    0    0  0.29153945159E+01  0.45504608204E+01 -0.17723602009E+03  0.17731839452E+03  0.00000000000E+00 0. -1.
        -15    1    1    2    0    0  0.46506346874E+01  0.61255349370E+01  0.73784920295E+01  0.10805112442E+02  0.17770000000E+01 0.  1.
         15    1    1    2    0    0 -0.75080807856E+01 -0.33355119125E+01  0.17212614476E+01  0.85800575040E+01  0.17770000000E+01 0. -1.
</event>
<event>
 6    1  0.1226227E-002  0.1710730E+03  0.7546771E-02  0.1077933E+00
        -11   -1    0    0    0    0  0.00000000000E+00  0.00000000000E+00  0.18250000000E+03  0.18250000000E+03  0.00000000000E+00 0. -1.
         11   -1    0    0    0    0 -0.00000000000E+00 -0.00000000000E+00 -0.18250000000E+03  0.18250000000E+03  0.00000000000E+00 0.  1.
        -11    1    1    2    0    0 -0.24632233729E+00 -0.58656647209E+01  0.17299581160E+03  0.17309540008E+03  0.00000000000E+00 0. -1.
         11    1    1    2    0    0 -0.42304991076E+01 -0.20735297276E+01 -0.16912816838E+03  0.16919377644E+03  0.00000000000E+00 0.  1.
        -15    1    1    2    0    0 -0.18328654573E+01  0.50989889424E+00 -0.10480439299E+02  0.10798922612E+02  0.17770000000E+01 0. -1.
         15    1    1    2    0    0  0.63096869022E+01  0.74292955542E+01  0.66127960726E+01  0.11911900862E+02  0.17770000000E+01 0.  1.
</event>
<event>
 6    1  0.1226227E-002  0.1834444E+03  0.7546771E-02  0.1067706E+00
        -11   -1    0    0    0    0  0.00000000000E+00  0.00000000000E+00  0.18250000000E+03  0.18250000000E+03  0.00000000000E+00 0. -1.
         11   -1    0    0    0    0 -0.00000000000E+00 -0.00000000000E+00 -0.18250000000E+03  0.18250000000E+03  0.00000000000E+00 0.  1.
        -11    1    1    2    0    0  0.30954573556E+01  0.30144194382E+01  0.16255816032E+03  0.16261557142E+03  0.00000000000E+00 0. -1.
         11    1    1    2    0    0 -0.24539315624E+01 -0.81318338122E+00 -0.18153723881E+03  0.18155564470E+03  0.00000000000E+00 0.  1.
        -15    1    1    2    0    0  0.17577564299E+01  0.16677924742E+01  0.11564423408E+02  0.11948424882E+02  0.17770000000E+01 0.  1.
         15    1    1    2    0    0 -0.23992822231E+01 -0.38690285312E+01  0.74146550862E+01  0.88803590022E+01  0.17770000000E+01 0. -1.
</event>
<event>
 6    1  0.1226227E-002  0.1832574E+03  0.7546771E-02  0.1067854E+00
        -11   -1    0    0    0    0  0.00000000000E+00  0.00000000000E+00  0.18250000000E+03  0.18250000000E+03  0.00000000000E+00 0.  1.
         11   -1    0    0    0    0 -0.00000000000E+00 -0.00000000000E+00 -0.18250000000E+03  0.18250000000E+03  0.00000000000E+00 0.  1.
        -11    1    1    2    0    0 -0.20112860579E+01  0.33981805980E+01  0.18169971040E+03  0.18174261378E+03  0.00000000000E+00 0.  1.
         11    1    1    2    0    0 -0.26675598733E+01  0.47856980712E-01 -0.14627692817E+03  0.14630125727E+03  0.00000000000E+00 0.  1.
        -15    1    1    2    0    0  0.19970167770E+01 -0.24617192823E+01 -0.42054443303E+01  0.55580238257E+01  0.17770000000E+01 0. -1.
         15    1    1    2    0    0  0.26818291542E+01 -0.98431829639E+00 -0.31217337907E+02  0.31398105120E+02  0.17770000000E+01 0.  1.
</event>
<event>
 6    1  0.1226227E-002  0.1825882E+03  0.7546771E-02  0.1068385E+00
        -11   -1    0    0    0    0  0.00000000000E+00  0.00000000000E+00  0.18250000000E+03  0.18250000000E+03  0.00000000000E+00 0. -1.
         11   -1    0    0    0    0 -0.00000000000E+00 -0.00000000000E+00 -0.18250000000E+03  0.18250000000E+03  0.00000000000E+00 0.  1.
        -11    1    1    2    0    0  0.13676540386E+01  0.84925639795E+00  0.10754334133E+03  0.10755539028E+03  0.00000000000E+00 0. -1.
         11    1    1    2    0    0 -0.20455685136E+01  0.20344114530E+01 -0.18238901902E+03  0.18241183471E+03  0.00000000000E+00 0.  1.
        -15    1    1    2    0    0  0.16270592955E+01 -0.16927610930E+01  0.39325945406E+02  0.39436030139E+02  0.17770000000E+01 0. -1.
         15    1    1    2    0    0 -0.94914482050E+00 -0.11909067579E+01  0.35519732292E+02  0.35596744878E+02  0.17770000000E+01 0. -1.
</event>
<event>
 6    1  0.1226227E-002  0.1828531E+03  0.7546771E-02  0.1068174E+00
        -11   -1    0    0    0    0  0.00000000000E+00  0.00000000000E+00  0.18250000000E+03  0.18250000000E+03  0.00000000000E+00 0.  1.
         11   -1    0    0    0    0 -0.00000000000E+00 -0.00000000000E+00 -0.18250000000E+03  0.18250000000E+03  0.00000000000E+00 0. -1.
        -11    1    1    2    0    0 -0.16489755609E+01  0.27723604535E+01  0.18211833044E+03  0.18214689507E+03  0.00000000000E+00 0.  1.
         11    1    1    2    0    0 -0.84373016250E+00 -0.51962259978E+00 -0.52827230030E+02  0.52836522604E+02  0.00000000000E+00 0. -1.
        -15    1    1    2    0    0 -0.48345107419E+01 -0.31247409967E+01 -0.65162573646E+02  0.65440470915E+02  0.17770000000E+01 0. -1.
         15    1    1    2    0    0  0.73272164653E+01  0.87200314299E+00 -0.64128526763E+02  0.64576111407E+02  0.17770000000E+01 0.  1.
</event>
<event>
 6    1  0.1226227E-002  0.1837261E+03  0.7546771E-02  0.1067483E+00
        -11   -1    0    0    0    0  0.00000000000E+00  0.00000000000E+00  0.18250000000E+03  0.18250000000E+03  0.00000000000E+00 0.  1.
         11   -1    0    0    0    0 -0.00000000000E+00 -0.00000000000E+00 -0.18250000000E+03  0.18250000000E+03  0.00000000000E+00 0. -1.
        -11    1    1    2    0    0 -0.63694765769E+01  0.75384039715E+01  0.18100501696E+03  0.18127386445E+03  0.00000000000E+00 0.  1.
         11    1    1    2    0    0  0.37408267718E+01 -0.15264069777E+00 -0.97645703755E+02  0.97717452617E+02  0.00000000000E+00 0. -1.
        -15    1    1    2    0    0  0.97486696881E+01 -0.69932297915E+01 -0.33856313164E+02  0.35963168571E+02  0.17770000000E+01 0. -1.
         15    1    1    2    0    0 -0.71200198831E+01 -0.39253348224E+00 -0.49503000043E+02  0.50045514364E+02  0.17770000000E+01 0.  1.
</event>
<event>
 6    1  0.1425779E-002  0.1855922E+03  0.7546771E-02  0.1066020E+00
        -11   -1    0    0    0    0  0.00000000000E+00  0.00000000000E+00  0.18250000000E+03  0.18250000000E+03  0.00000000000E+00 0.  1.
         11   -1    0    0    0    0 -0.00000000000E+00 -0.00000000000E+00 -0.18250000000E+03  0.18250000000E+03  0.00000000000E+00 0. -1.
        -11    1    1    2    0    0  0.25123083870E+01  0.66241897066E-01  0.17939024216E+03  0.17940784560E+03  0.00000000000E+00 0.  1.
         11    1    1    2    0    0 -0.50464107987E+01  0.66800952631E+01 -0.10489997617E+03  0.10523352572E+03  0.00000000000E+00 0. -1.
        -15    1    1    2    0    0  0.15813978881E+01  0.78394371501E+00  0.21633947183E+01  0.33095910225E+01  0.17770000000E+01 0.  1.
         15    1    1    2    0    0  0.95270452361E+00 -0.75302808752E+01 -0.76653660708E+02  0.77049037664E+02  0.17770000000E+01 0. -1.
</event>
<event>
 6    1  0.1226227E-002  0.1838857E+03  0.7546771E-02  0.1067357E+00
        -11   -1    0    0    0    0  0.00000000000E+00  0.00000000000E+00  0.18250000000E+03  0.18250000000E+03  0.00000000000E+00 0. -1.
         11   -1    0    0    0    0 -0.00000000000E+00 -0.00000000000E+00 -0.18250000000E+03  0.18250000000E+03  0.00000000000E+00 0.  1.
        -11    1    1    2    0    0 -0.20262237246E+01 -0.27883709531E+01  0.18108147571E+03  0.18111427730E+03  0.00000000000E+00 0. -1.
         11    1    1    2    0    0  0.28288264904E+01 -0.26073093700E+00 -0.13299673290E+03  0.13302706943E+03  0.00000000000E+00 0.  1.
        -15    1    1    2    0    0 -0.96925981657E+00 -0.21482247459E+01 -0.43776551248E+02  0.43875944461E+02  0.17770000000E+01 0. -1.
         15    1    1    2    0    0  0.16665705074E+00  0.51973266360E+01 -0.43081915693E+01  0.69827088105E+01  0.17770000000E+01 0. -1.
</event>
<event>
 6    1  0.1226227E-002  0.1637619E+03  0.7546771E-02  0.1084433E+00
        -11   -1    0    0    0    0  0.00000000000E+00  0.00000000000E+00  0.18250000000E+03  0.18250000000E+03  0.00000000000E+00 0.  1.
         11   -1    0    0    0    0 -0.00000000000E+00 -0.00000000000E+00 -0.18250000000E+03  0.18250000000E+03  0.00000000000E+00 0.  1.
        -11    1    1    2    0    0  0.17026647717E+01 -0.23109655649E+01  0.16880691240E+03  0.16883131612E+03  0.00000000000E+00 0.  1.
         11    1    1    2    0    0  0.22451023709E+02 -0.29480621147E+01 -0.15818326465E+03  0.15979575949E+03  0.00000000000E+00 0.  1.
        -15    1    1    2    0    0 -0.25043935843E+02  0.87529844091E+01 -0.14920293797E+02  0.30489118626E+02  0.17770000000E+01 0.  1.
         15    1    1    2    0    0  0.89024736183E+00 -0.34939567295E+01  0.42966460506E+01  0.58838057647E+01  0.17770000000E+01 0. -1.
</event>
<event>
 6    1  0.1226227E-002  0.1829479E+03  0.7546771E-02  0.1068099E+00
        -11   -1    0    0    0    0  0.00000000000E+00  0.00000000000E+00  0.18250000000E+03  0.18250000000E+03  0.00000000000E+00 0. -1.
         11   -1    0    0    0    0 -0.00000000000E+00 -0.00000000000E+00 -0.18250000000E+03  0.18250000000E+03  0.00000000000E+00 0. -1.
        -11    1    1    2    0    0  0.18167256096E+01 -0.42614035362E+00  0.12534110063E+03  0.12535499030E+03  0.00000000000E+00 0. -1.
         11    1    1    2    0    0 -0.71843135914E+01  0.68794876606E+00 -0.18190899788E+03  0.18205211107E+03  0.00000000000E+00 0. -1.
        -15    1    1    2    0    0 -0.11275888115E+01  0.26701986582E+01  0.14930389609E+02  0.15312598744E+02  0.17770000000E+01 0.  1.
         15    1    1    2    0    0  0.64951767934E+01 -0.29320070707E+01  0.41637507640E+02  0.42280299886E+02  0.17770000000E+01 0. -1.
</event>
<event>
 6    1  0.1226227E-002  0.1828672E+03  0.7546771E-02  0.1068163E+00
        -11   -1    0    0    0    0  0.00000000000E+00  0.00000000000E+00  0.18250000000E+03  0.18250000000E+03  0.00000000000E+00 0. -1.
         11   -1    0    0    0    0 -0.00000000000E+00 -0.00000000000E+00 -0.18250000000E+03  0.18250000000E+03  0.00000000000E+00 0.  1.
        -11    1    1    2    0    0  0.88703405702E+00  0.25002852979E+01  0.13289021200E+03  0.13291669083E+03  0.00000000000E+00 0. -1.
         11    1    1    2    0    0  0.37347840129E+01 -0.27141840020E+01 -0.18207426358E+03  0.18213278909E+03  0.00000000000E+00 0.  1.
        -15    1    1    2    0    0  0.98308381711E+00 -0.15447874224E+01  0.16333202826E+02  0.16531305620E+02  0.17770000000E+01 0.  1.
         15    1    1    2    0    0 -0.56049018870E+01  0.17586861264E+01  0.32850848747E+02  0.33419214450E+02  0.17770000000E+01 0.  1.
</event>
<event>
 6    1  0.1226227E-002  0.1841896E+03  0.7546771E-02  0.1067118E+00
        -11   -1    0    0    0    0  0.00000000000E+00  0.00000000000E+00  0.18250000000E+03  0.18250000000E+03  0.00000000000E+00 0. -1.
         11   -1    0    0    0    0 -0.00000000000E+00 -0.00000000000E+00 -0.18250000000E+03  0.18250000000E+03  0.00000000000E+00 0.  1.
        -11    1    1    2    0    0 -0.36432258175E+01 -0.28061630339E+01  0.18075188928E+03  0.18081037891E+03  0.00000000000E+00 0. -1.
         11    1    1    2    0    0 -0.25813562643E+01 -0.54885785015E+01 -0.15773151035E+03  0.15784808282E+03  0.00000000000E+00 0.  1.
        -15    1    1    2    0    0  0.34704416636E+01  0.59631539293E+01 -0.20225026251E+02  0.21443241033E+02  0.17770000000E+01 0.  1.
         15    1    1    2    0    0  0.27541404182E+01  0.23315876062E+01 -0.27953526793E+01  0.48982972357E+01  0.17770000000E+01 0. -1.
</event>
<event>
 6    1  0.1226227E-002  0.1615093E+03  0.7546771E-02  0.1086511E+00
        -11   -1    0    0    0    0  0.00000000000E+00  0.00000000000E+00  0.18250000000E+03  0.18250000000E+03  0.00000000000E+00 0.  1.
         11   -1    0    0    0    0 -0.00000000000E+00 -0.00000000000E+00 -0.18250000000E+03  0.18250000000E+03  0.00000000000E+00 0.  1.
        -11    1    1    2    0    0  0.36465278820E+01 -0.12915961916E+01  0.15979772161E+03  0.15984454078E+03  0.00000000000E+00 0.  1.
         11    1    1    2    0    0  0.43396574059E+01 -0.27911706276E+01 -0.16323532441E+03  0.16331685276E+03  0.00000000000E+00 0.  1.
        -15    1    1    2    0    0 -0.10448508453E+02 -0.27062465802E+01  0.20494431476E+02  0.23230896452E+02  0.17770000000E+01 0. -1.
         15    1    1    2    0    0  0.24623231648E+01  0.67890133994E+01 -0.17056828678E+02  0.18607710011E+02  0.17770000000E+01 0.  1.
</event>
<event>
 6    1  0.1226227E-002  0.1836413E+03  0.7546771E-02  0.1067550E+00
        -11   -1    0    0    0    0  0.00000000000E+00  0.00000000000E+00  0.18250000000E+03  0.18250000000E+03  0.00000000000E+00 0.  1.
         11   -1    0    0    0    0 -0.00000000000E+00 -0.00000000000E+00 -0.18250000000E+03  0.18250000000E+03  0.00000000000E+00 0. -1.
        -11    1    1    2    0    0 -0.22441927918E+01 -0.14609621888E+01  0.17684721946E+03  0.17686749233E+03  0.00000000000E+00 0.  1.
         11    1    1    2    0    0  0.53936269247E+00  0.26502952888E+01 -0.18133850651E+03  0.18135867478E+03  0.00000000000E+00 0. -1.
        -15    1    1    2    0    0  0.16235547146E+01 -0.20386977882E+00  0.77389344606E+00  0.25365592569E+01  0.17770000000E+01 0. -1.
         15    1    1    2    0    0  0.81275384745E-01 -0.98546332117E+00  0.37173935970E+01  0.42372736283E+01  0.17770000000E+01 0.  1.
</event>
<event>
 6    1  0.1226227E-002  0.1711084E+03  0.7546771E-02  0.1077902E+00
        -11   -1    0    0    0    0  0.00000000000E+00  0.00000000000E+00  0.18250000000E+03  0.18250000000E+03  0.00000000000E+00 0. -1.
         11   -1    0    0    0    0 -0.00000000000E+00 -0.00000000000E+00 -0.18250000000E+03  0.18250000000E+03  0.00000000000E+00 0. -1.
        -11    1    1    2    0    0  0.59067610320E+01 -0.26465343486E+01  0.17078259530E+03  0.17090520422E+03  0.00000000000E+00 0. -1.
         11    1    1    2    0    0 -0.20903835674E+01 -0.29842708552E+01 -0.17134084088E+03  0.17137957676E+03  0.00000000000E+00 0. -1.
        -15    1    1    2    0    0 -0.60718797735E+01 -0.47766006865E-03 -0.91537724664E+01  0.11127308910E+02  0.17770000000E+01 0. -1.
         15    1    1    2    0    0  0.22555023090E+01  0.56312828639E+01  0.97120180444E+01  0.11587910116E+02  0.17770000000E+01 0. -1.
</event>
<event>
 6    1  0.1226227E-002  0.1836474E+03  0.7546771E-02  0.1067545E+00
        -11   -1    0    0    0    0  0.00000000000E+00  0.00000000000E+00  0.18250000000E+03  0.18250000000E+03  0.00000000000E+00 0.  1.
         11   -1    0    0    0    0 -0.00000000000E+00 -0.00000000000E+00 -0.18250000000E+03  0.18250000000E+03  0.00000000000E+00 0. -1.
        -11    1    1    2    0    0  0.22251843925E+01 -0.10781258228E+01  0.18133571937E+03  0.18135257627E+03  0.00000000000E+00 0.  1.
         11    1    1    2    0    0 -0.72254205872E+01  0.37145351850E+01 -0.14697358648E+03  0.14719796057E+03  0.00000000000E+00 0. -1.
        -15    1    1    2    0    0  0.79924323035E+01 -0.23561372609E+01 -0.26768901389E+02  0.28092030320E+02  0.17770000000E+01 0. -1.
         15    1    1    2    0    0 -0.29921961088E+01 -0.28027210131E+00 -0.75932314999E+01  0.83574328364E+01  0.17770000000E+01 0. -1.
</event>
<event>
 6    1  0.1226227E-002  0.1847931E+03  0.7546771E-02  0.1066644E+00
        -11   -1    0    0    0    0  0.00000000000E+00  0.00000000000E+00  0.18250000000E+03  0.18250000000E+03  0.00000000000E+00 0. -1.
         11   -1    0    0    0    0 -0.00000000000E+00 -0.00000000000E+00 -0.18250000000E+03  0.18250000000E+03  0.00000000000E+00 0.  1.
        -11    1    1    2    0    0 -0.10156230038E+00  0.22309366004E+01  0.16051191409E+03  0.16052744923E+03  0.00000000000E+00 0. -1.
         11    1    1    2    0    0  0.14135251978E+01  0.20480955041E+01 -0.18018971473E+03  0.18020689788E+03  0.00000000000E+00 0.  1.
        -15    1    1    2    0    0  0.15560400224E+01  0.96484029643E+00  0.17463142124E+02  0.17648547793E+02  0.17770000000E+01 0. -1.
         15    1    1    2    0    0 -0.28680029199E+01 -0.52438724009E+01  0.22146585143E+01  0.66171050952E+01  0.17770000000E+01 0. -1.
</event>
<event>
 6    1  0.1226227E-002  0.1866137E+03  0.7546771E-02  0.1065227E+00
        -11   -1    0    0    0    0  0.00000000000E+00  0.00000000000E+00  0.18250000000E+03  0.18250000000E+03  0.00000000000E+00 0. -1.
         11   -1    0    0    0    0 -0.00000000000E+00 -0.00000000000E+00 -0.18250000000E+03  0.18250000000E+03  0.00000000000E+00 0. -1.
        -11    1    1    2    0    0  0.47942682492E+01  0.18708472321E+00  0.17832175569E+03  0.17838629028E+03  0.00000000000E+00 0. -1.
         11    1    1    2    0    0 -0.52571589788E+01 -0.64370145291E+01 -0.14817067255E+03  0.14840357503E+03  0.00000000000E+00 0. -1.
        -15    1    1    2    0    0 -0.19319257209E+01  0.54118057475E+01 -0.33272962394E+02  0.33812242368E+02  0.17770000000E+01 0. -1.
         15    1    1    2    0    0  0.23948164505E+01  0.83812405841E+00  0.31218792602E+01  0.43978923229E+01  0.17770000000E+01 0. -1.
</event>
<event>
 6    1  0.1226227E-002  0.1865579E+03  0.7546771E-02  0.1065270E+00
        -11   -1    0    0    0    0  0.00000000000E+00  0.00000000000E+00  0.18250000000E+03  0.18250000000E+03  0.00000000000E+00 0. -1.
         11   -1    0    0    0    0 -0.00000000000E+00 -0.00000000000E+00 -0.18250000000E+03  0.18250000000E+03  0.00000000000E+00 0. -1.
        -11    1    1    2    0    0 -0.40371990366E+01 -0.80446937180E+00  0.15658154707E+03  0.15663565057E+03  0.00000000000E+00 0. -1.
         11    1    1    2    0    0  0.53845802253E+01  0.69739967328E+01 -0.17822445415E+03  0.17844210935E+03  0.00000000000E+00 0. -1.
        -15    1    1    2    0    0  0.27322413367E+01  0.44955833041E+00 -0.27314168972E+01  0.42761679902E+01  0.17770000000E+01 0. -1.
         15    1    1    2    0    0 -0.40796225255E+01 -0.66190856915E+01  0.24374323976E+02  0.25646072090E+02  0.17770000000E+01 0.  1.
</event>
<event>
 6    1  0.1226227E-002  0.1849464E+03  0.7546771E-02  0.1066524E+00
        -11   -1    0    0    0    0  0.00000000000E+00  0.00000000000E+00  0.18250000000E+03  0.18250000000E+03  0.00000000000E+00 0.  1.
         11   -1    0    0    0    0 -0.00000000000E+00 -0.00000000000E+00 -0.18250000000E+03  0.18250000000E+03  0.00000000000E+00 0. -1.
        -11    1    1    2    0    0  0.39524946742E+00 -0.41104717048E+01  0.18000627058E+03  0.18005362992E+03  0.00000000000E+00 0.  1.
         11    1    1    2    0    0  0.17906186847E+01 -0.12179105505E+01 -0.15312391966E+03  0.15313923205E+03  0.00000000000E+00 0. -1.
        -15    1    1    2    0    0  0.17547922508E+01 -0.43271967296E+01 -0.15419044345E+02  0.16208287538E+02  0.17770000000E+01 0.  1.
         15    1    1    2    0    0 -0.39406604029E+01  0.96555789850E+01 -0.11463306574E+02  0.15598850488E+02  0.17770000000E+01 0.  1.
</event>
<event>
 6    1  0.1226227E-002  0.1827509E+03  0.7546771E-02  0.1068255E+00
        -11   -1    0    0    0    0  0.00000000000E+00  0.00000000000E+00  0.18250000000E+03  0.18250000000E+03  0.00000000000E+00 0.  1.
         11   -1    0    0    0    0 -0.00000000000E+00 -0.00000000000E+00 -0.18250000000E+03  0.18250000000E+03  0.00000000000E+00 0.  1.
        -11    1    1    2    0    0  0.29003928688E+01 -0.31573627184E+01  0.77943180299E+02  0.78061005459E+02  0.00000000000E+00 0.  1.
         11    1    1    2    0    0 -0.11321757956E+01  0.27999209694E+01 -0.18222410427E+03  0.18224913047E+03  0.00000000000E+00 0.  1.
        -15    1    1    2    0    0 -0.15863888103E+01  0.39437550336E+01  0.74256503647E+02  0.74399300374E+02  0.17770000000E+01 0.  1.
         15    1    1    2    0    0 -0.18182826290E+00 -0.35863132846E+01  0.30024420323E+02  0.30290563699E+02  0.17770000000E+01 0. -1.
</event>
<event>
 6    1  0.1226227E-002  0.1850996E+03  0.7546771E-02  0.1066404E+00
        -11   -1    0    0    0    0  0.00000000000E+00  0.00000000000E+00  0.18250000000E+03  0.18250000000E+03  0.00000000000E+00 0. -1.
         11   -1    0    0    0    0 -0.00000000000E+00 -0.00000000000E+00 -0.18250000000E+03  0.18250000000E+03  0.00000000000E+00 0. -1.
        -11    1    1    2    0    0 -0.38998381852E+00  0.46704917911E+01  0.17983934359E+03  0.17990040323E+03  0.00000000000E+00 0. -1.
         11    1    1    2    0    0  0.38766730420E+01 -0.67912815222E+01 -0.13801386371E+03  0.13823522227E+03  0.00000000000E+00 0. -1.
        -15    1    1    2    0    0 -0.23187847774E+01  0.19979633983E+01 -0.43810259797E+02  0.43952988671E+02  0.17770000000E+01 0. -1.
         15    1    1    2    0    0 -0.11679044461E+01  0.12282633280E+00  0.19847799226E+01  0.29113858289E+01  0.17770000000E+01 0. -1.
</event>
<event>
 6    1  0.1226227E-002  0.1860886E+03  0.7546771E-02  0.1065634E+00
        -11   -1    0    0    0    0  0.00000000000E+00  0.00000000000E+00  0.18250000000E+03  0.18250000000E+03  0.00000000000E+00 0.  1.
         11   -1    0    0    0    0 -0.00000000000E+00 -0.00000000000E+00 -0.18250000000E+03  0.18250000000E+03  0.00000000000E+00 0. -1.
        -11    1    1    2    0    0 -0.37855745646E+01 -0.48615972482E+00  0.16029595906E+03  0.16034139021E+03  0.00000000000E+00 0.  1.
         11    1    1    2    0    0 -0.51137952263E+01  0.32516768100E+01 -0.17880872175E+03  0.17891138387E+03  0.00000000000E+00 0. -1.
        -15    1    1    2    0    0  0.15152902225E+01  0.45727476057E+01  0.12685691559E+02  0.13685416489E+02  0.17770000000E+01 0.  1.
         15    1    1    2    0    0  0.73840795683E+01 -0.73382646909E+01  0.58270711331E+01  0.12061809430E+02  0.17770000000E+01 0. -1.
</event>
<event>
 6    1  0.1226227E-002  0.1836253E+03  0.7546771E-02  0.1067563E+00
        -11   -1    0    0    0    0  0.00000000000E+00  0.00000000000E+00  0.18250000000E+03  0.18250000000E+03  0.00000000000E+00 0.  1.
         11   -1    0    0    0    0 -0.00000000000E+00 -0.00000000000E+00 -0.18250000000E+03  0.18250000000E+03  0.00000000000E+00 0.  1.
        -11    1    1    2    0    0  0.89689222975E+01  0.33980243060E+01  0.18112090355E+03  0.18137466702E+03  0.00000000000E+00 0.  1.
         11    1    1    2    0    0 -0.20360068344E+01  0.36759759339E+01 -0.12348169608E+03  0.12355317637E+03  0.00000000000E+00 0.  1.
        -15    1    1    2    0    0  0.34803294140E+01 -0.12174558056E+01 -0.80208879455E+01  0.90048466895E+01  0.17770000000E+01 0.  1.
         15    1    1    2    0    0 -0.10413244877E+02 -0.58565444344E+01 -0.49618319520E+02  0.51067309921E+02  0.17770000000E+01 0.  1.
</event>
<event>
 6    1  0.1226227E-002  0.1862737E+03  0.7546771E-02  0.1065490E+00
        -11   -1    0    0    0    0  0.00000000000E+00  0.00000000000E+00  0.18250000000E+03  0.18250000000E+03  0.00000000000E+00 0. -1.
         11   -1    0    0    0    0 -0.00000000000E+00 -0.00000000000E+00 -0.18250000000E+03  0.18250000000E+03  0.00000000000E+00 0.  1.
        -11    1    1    2    0    0 -0.22502562102E+01 -0.12382980497E+01  0.17870784466E+03  0.17872630130E+03  0.00000000000E+00 0. -1.
         11    1    1    2    0    0  0.20033580647E+01 -0.24555033379E+01 -0.17067202462E+03  0.17070144384E+03  0.00000000000E+00 0.  1.
        -15    1    1    2    0    0  0.52003699945E+01  0.47377655247E+01 -0.20626951412E+01  0.75433885285E+01  0.17770000000E+01 0.  1.
         15    1    1    2    0    0 -0.49534718490E+01 -0.10439641371E+01 -0.59731248933E+01  0.80288663253E+01  0.17770000000E+01 0. -1.
</event>
<event>
 6    1  0.1382629E-002  0.1966248E+03  0.7546771E-02  0.1057736E+00
        -11   -1    0    0    0    0  0.00000000000E+00  0.00000000000E+00  0.18250000000E+03  0.18250000000E+03  0.00000000000E+00 0.  1.
         11   -1    0    0    0    0 -0.00000000000E+00 -0.00000000000E+00 -0.18250000000E+03  0.18250000000E+03  0.00000000000E+00 0. -1.
        -11    1    1    2    0    0 -0.52414615510E+01  0.69191645795E+01  0.15398142979E+03  0.15422590080E+03  0.00000000000E+00 0.  1.
         11    1    1    2    0    0  0.99662049645E+01  0.24513119431E+01 -0.16806210172E+03  0.16837518880E+03  0.00000000000E+00 0. -1.
        -15    1    1    2    0    0 -0.10027552574E+02 -0.37195571123E+01 -0.11384753749E+02  0.15721236041E+02  0.17770000000E+01 0.  1.
         15    1    1    2    0    0  0.53028091605E+01 -0.56509194103E+01  0.25465425671E+02  0.26677674351E+02  0.17770000000E+01 0.  1.
</event>
<event>
 6    1  0.1226227E-002  0.1870860E+03  0.7546771E-02  0.1064862E+00
        -11   -1    0    0    0    0  0.00000000000E+00  0.00000000000E+00  0.18250000000E+03  0.18250000000E+03  0.00000000000E+00 0. -1.
         11   -1    0    0    0    0 -0.00000000000E+00 -0.00000000000E+00 -0.18250000000E+03  0.18250000000E+03  0.00000000000E+00 0. -1.
        -11    1    1    2    0    0  0.70057802554E+01  0.33717441396E+01  0.17774405638E+03  0.17791402191E+03  0.00000000000E+00 0. -1.
         11    1    1    2    0    0 -0.11117157568E+02 -0.12383026015E+01 -0.10112221764E+03  0.10173901654E+03  0.00000000000E+00 0. -1.
        -15    1    1    2    0    0  0.59940984733E+00  0.11209065195E+01 -0.79469550835E+02  0.79499578380E+02  0.17770000000E+01 0. -1.
         15    1    1    2    0    0  0.35119674650E+01 -0.32543480577E+01  0.28477120961E+01  0.58473831701E+01  0.17770000000E+01 0.  1.
</event>
<event>
 6    1  0.1226227E-002  0.1826854E+03  0.7546771E-02  0.1068307E+00
        -11   -1    0    0    0    0  0.00000000000E+00  0.00000000000E+00  0.18250000000E+03  0.18250000000E+03  0.00000000000E+00 0. -1.
         11   -1    0    0    0    0 -0.00000000000E+00 -0.00000000000E+00 -0.18250000000E+03  0.18250000000E+03  0.00000000000E+00 0.  1.
        -11    1    1    2    0    0 -0.18361482908E+01  0.10129368273E+01  0.37605071971E+02  0.37663495848E+02  0.00000000000E+00 0. -1.
         11    1    1    2    0    0 -0.41195500642E+01 -0.49735277897E+01 -0.18220021693E+03  0.18231463386E+03  0.00000000000E+00 0.  1.
        -15    1    1    2    0    0  0.35193961472E+01  0.37494711179E+01  0.13015709418E+03  0.13027076255E+03  0.17770000000E+01 0. -1.
         15    1    1    2    0    0  0.24363022079E+01  0.21111984445E+00  0.14438050781E+02  0.14751107734E+02  0.17770000000E+01 0.  1.
</event>
<event>
 6    1  0.1226227E-002  0.1850429E+03  0.7546771E-02  0.1066449E+00
        -11   -1    0    0    0    0  0.00000000000E+00  0.00000000000E+00  0.18250000000E+03  0.18250000000E+03  0.00000000000E+00 0.  1.
         11   -1    0    0    0    0 -0.00000000000E+00 -0.00000000000E+00 -0.18250000000E+03  0.18250000000E+03  0.00000000000E+00 0.  1.
        -11    1    1    2    0    0  0.26276526928E+01  0.49744615138E+00  0.17993724271E+03  0.17995711524E+03  0.00000000000E+00 0.  1.
         11    1    1    2    0    0 -0.11361576470E+01  0.18726513381E+01 -0.15008241839E+03  0.15009840102E+03  0.00000000000E+00 0.  1.
        -15    1    1    2    0    0 -0.36606107772E+01 -0.33291478078E+01 -0.32626846971E+00  0.52675873512E+01  0.17770000000E+01 0.  1.
         15    1    1    2    0    0  0.21691157314E+01  0.95905031829E+00 -0.29528555843E+02  0.29676896397E+02  0.17770000000E+01 0.  1.
</event>
<event>
 6    1  0.1226227E-002  0.1827622E+03  0.7546771E-02  0.1068246E+00
        -11   -1    0    0    0    0  0.00000000000E+00  0.00000000000E+00  0.18250000000E+03  0.18250000000E+03  0.00000000000E+00 0.  1.
         11   -1    0    0    0    0 -0.00000000000E+00 -0.00000000000E+00 -0.18250000000E+03  0.18250000000E+03  0.00000000000E+00 0. -1.
        -11    1    1    2    0    0 -0.26498767651E+01 -0.45919527361E+00  0.56496503797E+02  0.56560477795E+02  0.00000000000E+00 0.  1.
         11    1    1    2    0    0  0.14658667765E+00  0.25251589610E+01 -0.18222028752E+03  0.18223784212E+03  0.00000000000E+00 0. -1.
        -15    1    1    2    0    0  0.13146241143E+01  0.33164270200E+01  0.81894122337E+02  0.81991047847E+02  0.17770000000E+01 0.  1.
         15    1    1    2    0    0  0.11886659732E+01 -0.53823907074E+01  0.43829661388E+02  0.44210632239E+02  0.17770000000E+01 0.  1.
</event>
<event>
 6    1  0.1226227E-002  0.1905911E+03  0.7546771E-02  0.1062191E+00
        -11   -1    0    0    0    0  0.00000000000E+00  0.00000000000E+00  0.18250000000E+03  0.18250000000E+03  0.00000000000E+00 0.  1.
         11   -1    0    0    0    0 -0.00000000000E+00 -0.00000000000E+00 -0.18250000000E+03  0.18250000000E+03  0.00000000000E+00 0. -1.
        -11    1    1    2    0    0  0.38416671055E+01  0.68811588504E+00  0.74702204542E+02  0.74804085938E+02  0.00000000000E+00 0.  1.
         11    1    1    2    0    0  0.70258117804E+01 -0.77728412243E+01 -0.17409386557E+03  0.17440886767E+03  0.00000000000E+00 0. -1.
        -15    1    1    2    0    0 -0.10963004018E+02  0.15056480796E+02  0.28793251221E+01  0.18929693955E+02  0.17770000000E+01 0.  1.
         15    1    1    2    0    0  0.95525132113E-01 -0.79717554571E+01  0.96512335907E+02  0.96857352438E+02  0.17770000000E+01 0. -1.
</event>
<event>
 6    1  0.1226227E-002  0.1699876E+03  0.7546771E-02  0.1078875E+00
        -11   -1    0    0    0    0  0.00000000000E+00  0.00000000000E+00  0.18250000000E+03  0.18250000000E+03  0.00000000000E+00 0.  1.
         11   -1    0    0    0    0 -0.00000000000E+00 -0.00000000000E+00 -0.18250000000E+03  0.18250000000E+03  0.00000000000E+00 0. -1.
        -11    1    1    2    0    0  0.24847962818E+01  0.16738285555E+01  0.14685581567E+02  0.14988069274E+02  0.00000000000E+00 0.  1.
         11    1    1    2    0    0 -0.46891011855E+01  0.12737979616E+02 -0.17608664364E+03  0.17660903109E+03  0.00000000000E+00 0. -1.
        -15    1    1    2    0    0  0.98211970884E+01 -0.88706237597E+01  0.16311913851E+03  0.16366476394E+03  0.17770000000E+01 0.  1.
         15    1    1    2    0    0 -0.76168921846E+01 -0.55411844120E+01 -0.17180764383E+01  0.97381356988E+01  0.17770000000E+01 0. -1.
</event>
<event>
 6    1  0.1226227E-002  0.1851553E+03  0.7546771E-02  0.1066361E+00
        -11   -1    0    0    0    0  0.00000000000E+00  0.00000000000E+00  0.18250000000E+03  0.18250000000E+03  0.00000000000E+00 0.  1.
         11   -1    0    0    0    0 -0.00000000000E+00 -0.00000000000E+00 -0.18250000000E+03  0.18250000000E+03  0.00000000000E+00 0. -1.
        -11    1    1    2    0    0 -0.26217655876E+01 -0.15340695639E+01  0.16877174526E+03  0.16879907885E+03  0.00000000000E+00 0.  1.
         11    1    1    2    0    0 -0.57632386218E+01  0.15470877819E+01 -0.17974572117E+03  0.17984474604E+03  0.00000000000E+00 0. -1.
        -15    1    1    2    0    0  0.21813089663E+01  0.26813767281E+01  0.73265631998E+00  0.39550479450E+01  0.17770000000E+01 0. -1.
         15    1    1    2    0    0  0.62036952432E+01 -0.26943949461E+01  0.10241319593E+02  0.12401127158E+02  0.17770000000E+01 0.  1.
</event>
<event>
 6    1  0.1226227E-002  0.1830916E+03  0.7546771E-02  0.1067985E+00
        -11   -1    0    0    0    0  0.00000000000E+00  0.00000000000E+00  0.18250000000E+03  0.18250000000E+03  0.00000000000E+00 0.  1.
         11   -1    0    0    0    0 -0.00000000000E+00 -0.00000000000E+00 -0.18250000000E+03  0.18250000000E+03  0.00000000000E+00 0. -1.
        -11    1    1    2    0    0 -0.87565743841E+01  0.12215463244E+01  0.18169340051E+03  0.18190838782E+03  0.00000000000E+00 0.  1.
         11    1    1    2    0    0  0.16883510325E+01 -0.19874076438E+01 -0.75719910436E+02  0.75764801555E+02  0.00000000000E+00 0. -1.
        -15    1    1    2    0    0  0.52515463040E+01 -0.61534704684E+01 -0.34774868849E+02  0.35747631667E+02  0.17770000000E+01 0. -1.
         15    1    1    2    0    0  0.18166770476E+01  0.69193317878E+01 -0.71198621222E+02  0.71579178961E+02  0.17770000000E+01 0.  1.
</event>
<event>
 6    1  0.1226227E-002  0.1845490E+03  0.7546771E-02  0.1066835E+00
        -11   -1    0    0    0    0  0.00000000000E+00  0.00000000000E+00  0.18250000000E+03  0.18250000000E+03  0.00000000000E+00 0. -1.
         11   -1    0    0    0    0 -0.00000000000E+00 -0.00000000000E+00 -0.18250000000E+03  0.18250000000E+03  0.00000000000E+00 0. -1.
        -11    1    1    2    0    0  0.33348933165E+01  0.61623607431E+01  0.18031492072E+03  0.18045100952E+03  0.00000000000E+00 0. -1.
         11    1    1    2    0    0  0.27687703220E+01 -0.16569421591E+01 -0.15749789834E+03  0.15753094784E+03  0.00000000000E+00 0. -1.
        -15    1    1    2    0    0 -0.30603416017E+00 -0.52348334124E+01 -0.30335586700E+01  0.63132673765E+01  0.17770000000E+01 0.  1.
         15    1    1    2    0    0 -0.57976294784E+01  0.72941482839E+00 -0.19783463710E+02  0.20704775269E+02  0.17770000000E+01 0. -1.
</event>
<event>
 6    1  0.1226227E-002  0.1836845E+03  0.7546771E-02  0.1067516E+00
        -11   -1    0    0    0    0  0.00000000000E+00  0.00000000000E+00  0.18250000000E+03  0.18250000000E+03  0.00000000000E+00 0.  1.
         11   -1    0    0    0    0 -0.00000000000E+00 -0.00000000000E+00 -0.18250000000E+03  0.18250000000E+03  0.00000000000E+00 0.  1.
        -11    1    1    2    0    0 -0.12076214410E+01  0.15789884065E+01  0.14418671929E+03  0.14420042154E+03  0.00000000000E+00 0.  1.
         11    1    1    2    0    0  0.35683801151E+01  0.25201879517E+01 -0.18126291125E+03  0.18131554726E+03  0.00000000000E+00 0.  1.
        -15    1    1    2    0    0 -0.12823716793E+01  0.33392985771E+00  0.33106793724E+02  0.33180920812E+02  0.17770000000E+01 0.  1.
         15    1    1    2    0    0 -0.10783869948E+01 -0.44331062159E+01  0.39693982357E+01  0.63031103898E+01  0.17770000000E+01 0. -1.
</event>
<event>
 6    1  0.1226227E-002  0.1860787E+03  0.7546771E-02  0.1065641E+00
        -11   -1    0    0    0    0  0.00000000000E+00  0.00000000000E+00  0.18250000000E+03  0.18250000000E+03  0.00000000000E+00 0.  1.
         11   -1    0    0    0    0 -0.00000000000E+00 -0.00000000000E+00 -0.18250000000E+03  0.18250000000E+03  0.00000000000E+00 0.  1.
        -11    1    1    2    0    0 -0.22893651875E+01 -0.10887414809E+01  0.17774546646E+03  0.17776354350E+03  0.00000000000E+00 0.  1.
         11    1    1    2    0    0  0.37108733196E+01  0.17162791525E+00 -0.17888271798E+03  0.17892128668E+03  0.00000000000E+00 0.  1.
        -15    1    1    2    0    0 -0.28250280593E+01  0.12500744822E+01  0.35214667501E+01  0.50101823139E+01  0.17770000000E+01 0.  1.
         15    1    1    2    0    0  0.14035199272E+01 -0.33296091650E+00 -0.23842152288E+01  0.33049875061E+01  0.17770000000E+01 0. -1.
</event>
<event>
 6    1  0.1226227E-002  0.1831113E+03  0.7546771E-02  0.1067969E+00
        -11   -1    0    0    0    0  0.00000000000E+00  0.00000000000E+00  0.18250000000E+03  0.18250000000E+03  0.00000000000E+00 0. -1.
         11   -1    0    0    0    0 -0.00000000000E+00 -0.00000000000E+00 -0.18250000000E+03  0.18250000000E+03  0.00000000000E+00 0.  1.
        -11    1    1    2    0    0  0.91946554139E+00  0.30070728232E+01  0.89338110417E+02  0.89393433074E+02  0.00000000000E+00 0. -1.
         11    1    1    2    0    0  0.76468710400E+00 -0.26019017320E+01 -0.18186844373E+03  0.18188866228E+03  0.00000000000E+00 0.  1.
        -15    1    1    2    0    0 -0.35687361482E+01 -0.34337839733E+01  0.85299172972E+02  0.85461297608E+02  0.17770000000E+01 0.  1.
         15    1    1    2    0    0  0.18845835028E+01  0.30286128820E+01  0.72311603419E+01  0.82566070428E+01  0.17770000000E+01 0. -1.
</event>
<event>
 6    1  0.1226227E-002  0.1836500E+03  0.7546771E-02  0.1067543E+00
        -11   -1    0    0    0    0  0.00000000000E+00  0.00000000000E+00  0.18250000000E+03  0.18250000000E+03  0.00000000000E+00 0.  1.
         11   -1    0    0    0    0 -0.00000000000E+00 -0.00000000000E+00 -0.18250000000E+03  0.18250000000E+03  0.00000000000E+00 0. -1.
        -11    1    1    2    0    0 -0.44108497949E+01 -0.24743305616E+01  0.11233649045E+03  0.11245027788E+03  0.00000000000E+00 0.  1.
         11    1    1    2    0    0  0.19705024652E+01 -0.40282901613E+01 -0.18129455325E+03  0.18135000700E+03  0.00000000000E+00 0. -1.
        -15    1    1    2    0    0  0.47799751367E+01  0.58779766102E+01  0.67339701076E+02  0.67787844348E+02  0.17770000000E+01 0.  1.
         15    1    1    2    0    0 -0.23396278070E+01  0.62464411259E+00  0.16183617152E+01  0.34118707748E+01  0.17770000000E+01 0. -1.
</event>
<event>
 6    1  0.1226227E-002  0.1523462E+03  0.7546771E-02  0.1095364E+00
        -11   -1    0    0    0    0  0.00000000000E+00  0.00000000000E+00  0.18250000000E+03  0.18250000000E+03  0.00000000000E+00 0.  1.
         11   -1    0    0    0    0 -0.00000000000E+00 -0.00000000000E+00 -0.18250000000E+03  0.18250000000E+03  0.00000000000E+00 0.  1.
        -11    1    1    2    0    0  0.25581642912E+01  0.72138375188E+01  0.15360282924E+03  0.15379340950E+03  0.00000000000E+00 0.  1.
         11    1    1    2    0    0  0.22431862068E+01 -0.14978908528E+01 -0.15097761660E+03  0.15100170951E+03  0.00000000000E+00 0.  1.
        -15    1    1    2    0    0 -0.29120548034E+02  0.99389175459E+01 -0.45919922731E+01  0.31161394735E+02  0.17770000000E+01 0. -1.
         15    1    1    2    0    0  0.24319197536E+02 -0.15654864212E+02  0.19667796342E+01  0.29043486248E+02  0.17770000000E+01 0.  1.
</event>
<event>
 6    1  0.1226227E-002  0.1832941E+03  0.7546771E-02  0.1067824E+00
        -11   -1    0    0    0    0  0.00000000000E+00  0.00000000000E+00  0.18250000000E+03  0.18250000000E+03  0.00000000000E+00 0.  1.
         11   -1    0    0    0    0 -0.00000000000E+00 -0.00000000000E+00 -0.18250000000E+03  0.18250000000E+03  0.00000000000E+00 0. -1.
        -11    1    1    2    0    0 -0.44083319778E+00  0.40267448070E+01  0.13689390394E+03  0.13695382413E+03  0.00000000000E+00 0.  1.
         11    1    1    2    0    0 -0.49165712671E+01  0.50693998142E+01 -0.18156862231E+03  0.18170590550E+03  0.00000000000E+00 0. -1.
        -15    1    1    2    0    0  0.11726941154E+01 -0.31087689801E+01  0.24922863694E+02  0.25206081008E+02  0.17770000000E+01 0. -1.
         15    1    1    2    0    0  0.41847103495E+01 -0.59873756411E+01  0.19751854679E+02  0.21134189363E+02  0.17770000000E+01 0.  1.
</event>
<event>
 6    1  0.1226227E-002  0.1839594E+03  0.7546771E-02  0.1067299E+00
        -11   -1    0    0    0    0  0.00000000000E+00  0.00000000000E+00  0.18250000000E+03  0.18250000000E+03  0.00000000000E+00 0.  1.
         11   -1    0    0    0    0 -0.00000000000E+00 -0.00000000000E+00 -0.18250000000E+03  0.18250000000E+03  0.00000000000E+00 0.  1.
        -11    1    1    2    0    0  0.38256532198E+01  0.72609364439E+00  0.13641517380E+03  0.13647073854E+03  0.00000000000E+00 0.  1.
         11    1    1    2    0    0  0.93149205662E+01 -0.32473410166E+01 -0.18077160456E+03  0.18104056447E+03  0.00000000000E+00 0.  1.
        -15    1    1    2    0    0 -0.64918661244E+00  0.19117077223E+01  0.18686820657E+02  0.18879382006E+02  0.17770000000E+01 0.  1.
         15    1    1    2    0    0 -0.12491387174E+02  0.60953964985E+00  0.25669610099E+02  0.28609314982E+02  0.17770000000E+01 0.  1.
</event>
<event>
 6    1  0.1226227E-002  0.1830891E+03  0.7546771E-02  0.1067987E+00
        -11   -1    0    0    0    0  0.00000000000E+00  0.00000000000E+00  0.18250000000E+03  0.18250000000E+03  0.00000000000E+00 0. -1.
         11   -1    0    0    0    0 -0.00000000000E+00 -0.00000000000E+00 -0.18250000000E+03  0.18250000000E+03  0.00000000000E+00 0.  1.
        -11    1    1    2    0    0 -0.29409897989E+01  0.48102796014E+01  0.18182349580E+03  0.18191088982E+03  0.00000000000E+00 0. -1.
         11    1    1    2    0    0  0.17027385455E+01 -0.80977192215E+00 -0.10687740635E+03  0.10689403649E+03  0.00000000000E+00 0.  1.
        -15    1    1    2    0    0 -0.97283723246E+00  0.32963402459E+01 -0.47412245570E+02  0.47569854217E+02  0.17770000000E+01 0. -1.
         15    1    1    2    0    0  0.22110884858E+01 -0.72968479251E+01 -0.27533843877E+02  0.28625219468E+02  0.17770000000E+01 0. -1.
</event>
<event>
 6    1  0.1226227E-002  0.1853843E+03  0.7546771E-02  0.1066182E+00
        -11   -1    0    0    0    0  0.00000000000E+00  0.00000000000E+00  0.18250000000E+03  0.18250000000E+03  0.00000000000E+00 0. -1.
         11   -1    0    0    0    0 -0.00000000000E+00 -0.00000000000E+00 -0.18250000000E+03  0.18250000000E+03  0.00000000000E+00 0.  1.
        -11    1    1    2    0    0 -0.32630701842E+00  0.22273566010E+01  0.15512446593E+03  0.15514079903E+03  0.00000000000E+00 0. -1.
         11    1    1    2    0    0 -0.20467183806E+01 -0.14064346588E+01 -0.17959858165E+03  0.17961574999E+03  0.00000000000E+00 0.  1.
        -15    1    1    2    0    0  0.60278532279E+00  0.14788707274E+01 -0.22629114965E+01  0.32907303467E+01  0.17770000000E+01 0.  1.
         15    1    1    2    0    0  0.17702400762E+01 -0.22997926696E+01  0.26737027217E+02  0.26952720635E+02  0.17770000000E+01 0. -1.
</event>
<event>
 6    1  0.1226227E-002  0.1846267E+03  0.7546771E-02  0.1066774E+00
        -11   -1    0    0    0    0  0.00000000000E+00  0.00000000000E+00  0.18250000000E+03  0.18250000000E+03  0.00000000000E+00 0.  1.
         11   -1    0    0    0    0 -0.00000000000E+00 -0.00000000000E+00 -0.18250000000E+03  0.18250000000E+03  0.00000000000E+00 0.  1.
        -11    1    1    2    0    0  0.23918602335E+01 -0.10386737090E+01  0.18035442995E+03  0.18037328029E+03  0.00000000000E+00 0.  1.
         11    1    1    2    0    0  0.17888298544E+01  0.25330108309E+01 -0.17197892461E+03  0.17200687942E+03  0.00000000000E+00 0.  1.
        -15    1    1    2    0    0 -0.61757911540E+00 -0.20991034210E+01  0.50975807475E+00  0.28644757689E+01  0.17770000000E+01 0. -1.
         15    1    1    2    0    0 -0.35631109725E+01  0.60476629907E+00 -0.88852634153E+01  0.97553645262E+01  0.17770000000E+01 0.  1.
</event>
<event>
 6    1  0.1226227E-002  0.1859628E+03  0.7546771E-02  0.1065731E+00
        -11   -1    0    0    0    0  0.00000000000E+00  0.00000000000E+00  0.18250000000E+03  0.18250000000E+03  0.00000000000E+00 0. -1.
         11   -1    0    0    0    0 -0.00000000000E+00 -0.00000000000E+00 -0.18250000000E+03  0.18250000000E+03  0.00000000000E+00 0.  1.
        -11    1    1    2    0    0 -0.21649711253E+00 -0.45318846452E+01  0.15298936571E+03  0.15305662635E+03  0.00000000000E+00 0. -1.
         11    1    1    2    0    0  0.23704828907E+01 -0.71571808063E+01 -0.17887834415E+03  0.17903716494E+03  0.00000000000E+00 0.  1.
        -15    1    1    2    0    0 -0.28593913231E+01  0.79153571495E+01  0.22490174053E+01  0.88907145850E+01  0.17770000000E+01 0. -1.
         15    1    1    2    0    0  0.70540554491E+00  0.37737083020E+01  0.23639961033E+02  0.24015494123E+02  0.17770000000E+01 0. -1.
</event>
<event>
 6    1  0.1226227E-002  0.1862535E+03  0.7546771E-02  0.1065506E+00
        -11   -1    0    0    0    0  0.00000000000E+00  0.00000000000E+00  0.18250000000E+03  0.18250000000E+03  0.00000000000E+00 0. -1.
         11   -1    0    0    0    0 -0.00000000000E+00 -0.00000000000E+00 -0.18250000000E+03  0.18250000000E+03  0.00000000000E+00 0. -1.
        -11    1    1    2    0    0 -0.24175294735E+01  0.46456024271E+01  0.16955799408E+03  0.16963884999E+03  0.00000000000E+00 0. -1.
         11    1    1    2    0    0  0.33079197451E+01 -0.15441207654E+01 -0.17870917170E+03  0.17874645365E+03  0.00000000000E+00 0. -1.
        -15    1    1    2    0    0 -0.35955655389E+01  0.21029034185E+01 -0.11099536612E+01  0.46626194851E+01  0.17770000000E+01 0. -1.
         15    1    1    2    0    0  0.27051752674E+01 -0.52043850802E+01  0.10261131285E+02  0.11952076872E+02  0.17770000000E+01 0.  1.
</event>
<event>
 6    1  0.1226227E-002  0.1859330E+03  0.7546771E-02  0.1065754E+00
        -11   -1    0    0    0    0  0.00000000000E+00  0.00000000000E+00  0.18250000000E+03  0.18250000000E+03  0.00000000000E+00 0.  1.
         11   -1    0    0    0    0 -0.00000000000E+00 -0.00000000000E+00 -0.18250000000E+03  0.18250000000E+03  0.00000000000E+00 0. -1.
        -11    1    1    2    0    0 -0.27042658332E+01  0.50824624035E+01  0.16308064305E+03  0.16318223131E+03  0.00000000000E+00 0.  1.
         11    1    1    2    0    0  0.22559205855E+00  0.30338161188E+01 -0.17904112600E+03  0.17906696996E+03  0.00000000000E+00 0. -1.
        -15    1    1    2    0    0  0.10565592023E+01 -0.36029624539E+01 -0.16195509039E+01  0.44585120750E+01  0.17770000000E+01 0. -1.
         15    1    1    2    0    0  0.14221145724E+01 -0.45133160683E+01  0.17580033850E+02  0.18292286652E+02  0.17770000000E+01 0. -1.
</event>
<event>
 6    1  0.1226227E-002  0.1833674E+03  0.7546771E-02  0.1067766E+00
        -11   -1    0    0    0    0  0.00000000000E+00  0.00000000000E+00  0.18250000000E+03  0.18250000000E+03  0.00000000000E+00 0. -1.
         11   -1    0    0    0    0 -0.00000000000E+00 -0.00000000000E+00 -0.18250000000E+03  0.18250000000E+03  0.00000000000E+00 0.  1.
        -11    1    1    2    0    0  0.24006740390E+01 -0.33107386377E+00  0.14516917429E+03  0.14518940048E+03  0.00000000000E+00 0. -1.
         11    1    1    2    0    0  0.32112884755E+01 -0.22782031265E+01 -0.18158990814E+03  0.18163258882E+03  0.00000000000E+00 0.  1.
        -15    1    1    2    0    0 -0.52559530355E+01  0.16393524948E+01  0.91213877557E+01  0.10801387064E+02  0.17770000000E+01 0.  1.
         15    1    1    2    0    0 -0.35600947906E+00  0.96992449547E+00  0.27299346087E+02  0.27376623642E+02  0.17770000000E+01 0.  1.
</event>
<event>
 6    1  0.1226227E-002  0.1837514E+03  0.7546771E-02  0.1067463E+00
        -11   -1    0    0    0    0  0.00000000000E+00  0.00000000000E+00  0.18250000000E+03  0.18250000000E+03  0.00000000000E+00 0.  1.
         11   -1    0    0    0    0 -0.00000000000E+00 -0.00000000000E+00 -0.18250000000E+03  0.18250000000E+03  0.00000000000E+00 0.  1.
        -11    1    1    2    0    0  0.56373864708E+01  0.84058321304E+01  0.18096577947E+03  0.18124859028E+03  0.00000000000E+00 0.  1.
         11    1    1    2    0    0 -0.58401064086E+01 -0.29150295447E+01 -0.13580387524E+03  0.13596064420E+03  0.00000000000E+00 0.  1.
        -15    1    1    2    0    0 -0.52778016487E+00  0.12012426303E+01 -0.36986578997E+02  0.37052480222E+02  0.17770000000E+01 0.  1.
         15    1    1    2    0    0  0.73050010273E+00 -0.66920452160E+01 -0.81753252309E+01  0.10738285301E+02  0.17770000000E+01 0. -1.
</event>
<event>
 6    1  0.1226227E-002  0.1858322E+03  0.7546771E-02  0.1065833E+00
        -11   -1    0    0    0    0  0.00000000000E+00  0.00000000000E+00  0.18250000000E+03  0.18250000000E+03  0.00000000000E+00 0. -1.
         11   -1    0    0    0    0 -0.00000000000E+00 -0.00000000000E+00 -0.18250000000E+03  0.18250000000E+03  0.00000000000E+00 0.  1.
        -11    1    1    2    0    0  0.24459218775E+01 -0.27088673216E+01  0.17913063792E+03  0.17916781502E+03  0.00000000000E+00 0. -1.
         11    1    1    2    0    0 -0.27107005144E+01 -0.29251033684E+01 -0.16197856278E+03  0.16202764865E+03  0.00000000000E+00 0.  1.
        -15    1    1    2    0    0 -0.57921844911E+01 -0.80507288411E+00 -0.11878467385E+02  0.13358639898E+02  0.17770000000E+01 0. -1.
         15    1    1    2    0    0  0.60569631279E+01  0.64390435741E+01 -0.52736077530E+01  0.10445896429E+02  0.17770000000E+01 0.  1.
</event>
<event>
 6    1  0.1226227E-002  0.2014794E+03  0.7546771E-02  0.1054277E+00
        -11   -1    0    0    0    0  0.00000000000E+00  0.00000000000E+00  0.18250000000E+03  0.18250000000E+03  0.00000000000E+00 0. -1.
         11   -1    0    0    0    0 -0.00000000000E+00 -0.00000000000E+00 -0.18250000000E+03  0.18250000000E+03  0.00000000000E+00 0.  1.
        -11    1    1    2    0    0 -0.11524090313E+01  0.30237668491E+01  0.13233859200E+03  0.13237814830E+03  0.00000000000E+00 0. -1.
         11    1    1    2    0    0  0.15277199513E+00 -0.91662045391E+01 -0.16326338487E+03  0.16352056594E+03  0.00000000000E+00 0.  1.
        -15    1    1    2    0    0  0.69956950783E+01 -0.17864960103E+01  0.48373169986E+02  0.48941318138E+02  0.17770000000E+01 0. -1.
         15    1    1    2    0    0 -0.59960580420E+01  0.79289337003E+01 -0.17448377118E+02  0.20159967627E+02  0.17770000000E+01 0. -1.
</event>
<event>
 6    1  0.1226227E-002  0.1866355E+03  0.7546771E-02  0.1065210E+00
        -11   -1    0    0    0    0  0.00000000000E+00  0.00000000000E+00  0.18250000000E+03  0.18250000000E+03  0.00000000000E+00 0. -1.
         11   -1    0    0    0    0 -0.00000000000E+00 -0.00000000000E+00 -0.18250000000E+03  0.18250000000E+03  0.00000000000E+00 0.  1.
        -11    1    1    2    0    0  0.42610880473E+01  0.54466425000E+00  0.17831279218E+03  0.17836452951E+03  0.00000000000E+00 0. -1.
         11    1    1    2    0    0  0.30928605106E+01  0.48967824567E+01 -0.85648842204E+02  0.85844443241E+02  0.00000000000E+00 0.  1.
        -15    1    1    2    0    0 -0.43674715604E+01  0.55765165947E+01 -0.88047468376E+02  0.88349797745E+02  0.17770000000E+01 0.  1.
         15    1    1    2    0    0 -0.29864769975E+01 -0.11017963301E+02 -0.46164816045E+01  0.12441229504E+02  0.17770000000E+01 0. -1.
</event>
<event>
 6    1  0.1226227E-002  0.1829255E+03  0.7546771E-02  0.1068117E+00
        -11   -1    0    0    0    0  0.00000000000E+00  0.00000000000E+00  0.18250000000E+03  0.18250000000E+03  0.00000000000E+00 0.  1.
         11   -1    0    0    0    0 -0.00000000000E+00 -0.00000000000E+00 -0.18250000000E+03  0.18250000000E+03  0.00000000000E+00 0.  1.
        -11    1    1    2    0    0 -0.35541228312E+01 -0.33300853675E+01  0.18200936563E+03  0.18207451891E+03  0.00000000000E+00 0.  1.
         11    1    1    2    0    0  0.18197869966E+01 -0.81226058740E+00 -0.12434481036E+03  0.12436077861E+03  0.00000000000E+00 0.  1.
        -15    1    1    2    0    0  0.12689182749E+01  0.33250235542E+01 -0.55374894700E+02  0.55517588450E+02  0.17770000000E+01 0. -1.
         15    1    1    2    0    0  0.46541755973E+00  0.81732240063E+00 -0.22896605696E+01  0.30471140339E+01  0.17770000000E+01 0.  1.
</event>
<event>
 6    1  0.1226227E-002  0.1877163E+03  0.7546771E-02  0.1064377E+00
        -11   -1    0    0    0    0  0.00000000000E+00  0.00000000000E+00  0.18250000000E+03  0.18250000000E+03  0.00000000000E+00 0. -1.
         11   -1    0    0    0    0 -0.00000000000E+00 -0.00000000000E+00 -0.18250000000E+03  0.18250000000E+03  0.00000000000E+00 0.  1.
        -11    1    1    2    0    0  0.25822547304E+01 -0.48168631144E+00  0.17115032846E+03  0.17117048517E+03  0.00000000000E+00 0. -1.
         11    1    1    2    0    0 -0.67317937805E+00 -0.24170719119E+01 -0.17726597249E+03  0.17728372855E+03  0.00000000000E+00 0.  1.
        -15    1    1    2    0    0  0.52155316257E+01  0.19043992361E+01 -0.13958267124E+01  0.59945448368E+01  0.17770000000E+01 0.  1.
         15    1    1    2    0    0 -0.71246069780E+01  0.99435898720E+00  0.75114707419E+01  0.10551241448E+02  0.17770000000E+01 0.  1.
</event>
<event>
 6    1  0.1226227E-002  0.1839720E+03  0.7546771E-02  0.1067289E+00
        -11   -1    0    0    0    0  0.00000000000E+00  0.00000000000E+00  0.18250000000E+03  0.18250000000E+03  0.00000000000E+00 0. -1.
         11   -1    0    0    0    0 -0.00000000000E+00 -0.00000000000E+00 -0.18250000000E+03  0.18250000000E+03  0.00000000000E+00 0.  1.
        -11    1    1    2    0    0  0.22761309247E+01  0.25768118771E+01  0.16734462969E+03  0.16737994449E+03  0.00000000000E+00 0. -1.
         11    1    1    2    0    0 -0.11643184876E+01  0.29537898977E+01 -0.18100017215E+03  0.18102801671E+03  0.00000000000E+00 0.  1.
        -15    1    1    2    0    0  0.26050351716E+01 -0.11415718891E+01  0.57352109136E+01  0.66437766253E+01  0.17770000000E+01 0. -1.
         15    1    1    2    0    0 -0.37168476088E+01 -0.43890298857E+01  0.79203315487E+01  0.99482621762E+01  0.17770000000E+01 0.  1.
</event>
<event>
 6    1  0.1226227E-002  0.1844314E+03  0.7546771E-02  0.1066928E+00
        -11   -1    0    0    0    0  0.00000000000E+00  0.00000000000E+00  0.18250000000E+03  0.18250000000E+03  0.00000000000E+00 0. -1.
         11   -1    0    0    0    0 -0.00000000000E+00 -0.00000000000E+00 -0.18250000000E+03  0.18250000000E+03  0.00000000000E+00 0.  1.
        -11    1    1    2    0    0  0.19366776851E+01  0.41303106071E+00  0.10504297379E+03  0.10506163742E+03  0.00000000000E+00 0. -1.
         11    1    1    2    0    0 -0.11548507278E+02  0.97536644415E+00 -0.18019624095E+03  0.18056855932E+03  0.00000000000E+00 0.  1.
        -15    1    1    2    0    0  0.14891460799E+02 -0.29649792194E+01  0.69900120808E+02  0.71552297829E+02  0.17770000000E+01 0. -1.
         15    1    1    2    0    0 -0.52796312070E+01  0.15765817145E+01  0.52531463539E+01  0.78175054334E+01  0.17770000000E+01 0.  1.
</event>
<event>
 6    1  0.1226227E-002  0.1895508E+03  0.7546771E-02  0.1062977E+00
        -11   -1    0    0    0    0  0.00000000000E+00  0.00000000000E+00  0.18250000000E+03  0.18250000000E+03  0.00000000000E+00 0.  1.
         11   -1    0    0    0    0 -0.00000000000E+00 -0.00000000000E+00 -0.18250000000E+03  0.18250000000E+03  0.00000000000E+00 0. -1.
        -11    1    1    2    0    0 -0.33500009573E+01  0.79915078531E+00  0.17541539899E+03  0.17544920447E+03  0.00000000000E+00 0.  1.
         11    1    1    2    0    0  0.47304533803E+01 -0.36536227428E+01 -0.17206949548E+03  0.17217327732E+03  0.00000000000E+00 0. -1.
        -15    1    1    2    0    0  0.24238314654E+01 -0.23929020912E+01  0.52254177612E+01  0.64856502503E+01  0.17770000000E+01 0. -1.
         15    1    1    2    0    0 -0.38042838884E+01  0.52473740487E+01 -0.85713212662E+01  0.10891867955E+02  0.17770000000E+01 0.  1.
</event>
<event>
 6    1  0.1226227E-002  0.1826805E+03  0.7546771E-02  0.1068311E+00
        -11   -1    0    0    0    0  0.00000000000E+00  0.00000000000E+00  0.18250000000E+03  0.18250000000E+03  0.00000000000E+00 0.  1.
         11   -1    0    0    0    0 -0.00000000000E+00 -0.00000000000E+00 -0.18250000000E+03  0.18250000000E+03  0.00000000000E+00 0.  1.
        -11    1    1    2    0    0  0.12495933830E+01  0.51421084432E-01  0.61857107003E+02  0.61869748783E+02  0.00000000000E+00 0.  1.
         11    1    1    2    0    0  0.19051867252E+01  0.16723297129E+01 -0.18230189768E+03  0.18231952259E+03  0.00000000000E+00 0.  1.
        -15    1    1    2    0    0 -0.39090013975E+01 -0.27354446921E+01  0.38285450310E+02  0.38622485472E+02  0.17770000000E+01 0.  1.
         15    1    1    2    0    0  0.75422128923E+00  0.10116938948E+01  0.82159340362E+02  0.82188243150E+02  0.17770000000E+01 0.  1.
</event>
<event>
 6    1  0.1226227E-002  0.1925867E+03  0.7546771E-02  0.1060698E+00
        -11   -1    0    0    0    0  0.00000000000E+00  0.00000000000E+00  0.18250000000E+03  0.18250000000E+03  0.00000000000E+00 0. -1.
         11   -1    0    0    0    0 -0.00000000000E+00 -0.00000000000E+00 -0.18250000000E+03  0.18250000000E+03  0.00000000000E+00 0.  1.
        -11    1    1    2    0    0 -0.58187719837E+01  0.94551433199E-01  0.16866805460E+03  0.16876842030E+03  0.00000000000E+00 0. -1.
         11    1    1    2    0    0  0.37120886591E+01 -0.51463899272E+01 -0.17229651168E+03  0.17241331987E+03  0.00000000000E+00 0.  1.
        -15    1    1    2    0    0  0.11249272466E+01  0.13281781940E+02  0.64100378457E+01  0.14896895885E+02  0.17770000000E+01 0. -1.
         15    1    1    2    0    0  0.98175607797E+00 -0.82299434464E+01 -0.27815807697E+01  0.89213639487E+01  0.17770000000E+01 0.  1.
</event>
<event>
 6    1  0.1226227E-002  0.1876054E+03  0.7546771E-02  0.1064462E+00
        -11   -1    0    0    0    0  0.00000000000E+00  0.00000000000E+00  0.18250000000E+03  0.18250000000E+03  0.00000000000E+00 0.  1.
         11   -1    0    0    0    0 -0.00000000000E+00 -0.00000000000E+00 -0.18250000000E+03  0.18250000000E+03  0.00000000000E+00 0.  1.
        -11    1    1    2    0    0 -0.32340840477E+01  0.10453898312E+02  0.17705682032E+03  0.17739464736E+03  0.00000000000E+00 0.  1.
         11    1    1    2    0    0 -0.26117779686E+01  0.43640126399E+00 -0.16845601495E+03  0.16847682572E+03  0.00000000000E+00 0.  1.
        -15    1    1    2    0    0  0.87968398512E+01 -0.63997203289E+01 -0.36562457771E+01  0.11613211177E+02  0.17770000000E+01 0.  1.
         15    1    1    2    0    0 -0.29509778349E+01 -0.44905792470E+01 -0.49445595933E+01  0.75153157437E+01  0.17770000000E+01 0. -1.
</event>
<event>
 6    1  0.1226227E-002  0.1845763E+03  0.7546771E-02  0.1066814E+00
        -11   -1    0    0    0    0  0.00000000000E+00  0.00000000000E+00  0.18250000000E+03  0.18250000000E+03  0.00000000000E+00 0. -1.
         11   -1    0    0    0    0 -0.00000000000E+00 -0.00000000000E+00 -0.18250000000E+03  0.18250000000E+03  0.00000000000E+00 0. -1.
        -11    1    1    2    0    0  0.46954637516E+01  0.10782550777E+02  0.67771022832E+02  0.68783881229E+02  0.00000000000E+00 0. -1.
         11    1    1    2    0    0 -0.79686462004E+01  0.20559155316E+01 -0.18023595600E+03  0.18042373998E+03  0.00000000000E+00 0. -1.
        -15    1    1    2    0    0  0.66784945787E+01 -0.87954148733E+01  0.18199592343E+02  0.21362221399E+02  0.17770000000E+01 0.  1.
         15    1    1    2    0    0 -0.34053121299E+01 -0.40430514355E+01  0.94265340827E+02  0.94430157396E+02  0.17770000000E+01 0. -1.
</event>
<event>
 6    1  0.1226227E-002  0.1860739E+03  0.7546771E-02  0.1065645E+00
        -11   -1    0    0    0    0  0.00000000000E+00  0.00000000000E+00  0.18250000000E+03  0.18250000000E+03  0.00000000000E+00 0. -1.
         11   -1    0    0    0    0 -0.00000000000E+00 -0.00000000000E+00 -0.18250000000E+03  0.18250000000E+03  0.00000000000E+00 0. -1.
        -11    1    1    2    0    0 -0.16528741873E+01 -0.11339677267E+02  0.17855873876E+03  0.17892608380E+03  0.00000000000E+00 0. -1.
         11    1    1    2    0    0  0.20120322363E+01  0.24008449987E+01 -0.16765335205E+03  0.16768261324E+03  0.00000000000E+00 0. -1.
        -15    1    1    2    0    0 -0.43052237238E+00 -0.25750676312E+01 -0.23935226971E+01  0.39627014422E+01  0.17770000000E+01 0. -1.
         15    1    1    2    0    0  0.71364323373E-01  0.11513899899E+02 -0.85118640220E+01  0.14428601522E+02  0.17770000000E+01 0.  1.
</event>
<event>
 6    1  0.1226227E-002  0.1837567E+03  0.7546771E-02  0.1067459E+00
        -11   -1    0    0    0    0  0.00000000000E+00  0.00000000000E+00  0.18250000000E+03  0.18250000000E+03  0.00000000000E+00 0. -1.
         11   -1    0    0    0    0 -0.00000000000E+00 -0.00000000000E+00 -0.18250000000E+03  0.18250000000E+03  0.00000000000E+00 0. -1.
        -11    1    1    2    0    0  0.37101388025E+00  0.36472004439E+00  0.31911769276E+02  0.31916009938E+02  0.00000000000E+00 0. -1.
         11    1    1    2    0    0 -0.31850379707E+01 -0.10295611520E+02 -0.18092256028E+03  0.18124325340E+03  0.00000000000E+00 0. -1.
        -15    1    1    2    0    0 -0.29261069507E+01  0.56842479050E+00  0.12816659097E+03  0.12821356395E+03  0.17770000000E+01 0. -1.
         15    1    1    2    0    0  0.57401310411E+01  0.93624666856E+01  0.20844200030E+02  0.23627172719E+02  0.17770000000E+01 0.  1.
</event>
<event>
 6    1  0.1226227E-002  0.1696812E+03  0.7546771E-02  0.1079143E+00
        -11   -1    0    0    0    0  0.00000000000E+00  0.00000000000E+00  0.18250000000E+03  0.18250000000E+03  0.00000000000E+00 0.  1.
         11   -1    0    0    0    0 -0.00000000000E+00 -0.00000000000E+00 -0.18250000000E+03  0.18250000000E+03  0.00000000000E+00 0. -1.
        -11    1    1    2    0    0 -0.38679174135E+01  0.11924222978E+02  0.17200909511E+03  0.17246529123E+03  0.00000000000E+00 0.  1.
         11    1    1    2    0    0  0.17544950831E+01  0.18710193000E+01 -0.16719837820E+03  0.16721805117E+03  0.00000000000E+00 0. -1.
        -15    1    1    2    0    0  0.25627229830E+01 -0.61247131695E+01 -0.12523582004E+02  0.14285569492E+02  0.17770000000E+01 0.  1.
         15    1    1    2    0    0 -0.44930065266E+00 -0.76705291083E+01  0.77128650930E+01  0.11031088107E+02  0.17770000000E+01 0. -1.
</event>
<event>
 6    1  0.1226227E-002  0.1734407E+03  0.7546771E-02  0.1075904E+00
        -11   -1    0    0    0    0  0.00000000000E+00  0.00000000000E+00  0.18250000000E+03  0.18250000000E+03  0.00000000000E+00 0. -1.
         11   -1    0    0    0    0 -0.00000000000E+00 -0.00000000000E+00 -0.18250000000E+03  0.18250000000E+03  0.00000000000E+00 0. -1.
        -11    1    1    2    0    0 -0.30581973085E+01 -0.25561055508E+00  0.17916196052E+03  0.17918824182E+03  0.00000000000E+00 0. -1.
         11    1    1    2    0    0  0.80916985244E+00 -0.10489061680E+01 -0.23427276449E+02  0.23464702040E+02  0.00000000000E+00 0. -1.
        -15    1    1    2    0    0 -0.13261546784E+02  0.12245061997E+02 -0.12405315103E+03  0.12537205500E+03  0.17770000000E+01 0. -1.
         15    1    1    2    0    0  0.15510574240E+02 -0.10940545274E+02 -0.31681533045E+02  0.36975001139E+02  0.17770000000E+01 0.  1.
</event>
<event>
 6    1  0.1226227E-002  0.1926381E+03  0.7546771E-02  0.1060660E+00
        -11   -1    0    0    0    0  0.00000000000E+00  0.00000000000E+00  0.18250000000E+03  0.18250000000E+03  0.00000000000E+00 0. -1.
         11   -1    0    0    0    0 -0.00000000000E+00 -0.00000000000E+00 -0.18250000000E+03  0.18250000000E+03  0.00000000000E+00 0. -1.
        -11    1    1    2    0    0  0.99043852730E+00 -0.37033979535E+01  0.15125150118E+03  0.15130007513E+03  0.00000000000E+00 0. -1.
         11    1    1    2    0    0 -0.50624393302E+00 -0.23473168188E+01 -0.17234513414E+03  0.17236186191E+03  0.00000000000E+00 0. -1.
        -15    1    1    2    0    0  0.38589657073E+01 -0.17703402707E+01  0.28941790417E+02  0.29305471888E+02  0.17770000000E+01 0. -1.
         15    1    1    2    0    0 -0.43431603016E+01  0.78210550429E+01 -0.78481574571E+01  0.12032591070E+02  0.17770000000E+01 0.  1.
</event>
<event>
 6    1  0.1226227E-002  0.1833524E+03  0.7546771E-02  0.1067778E+00
        -11   -1    0    0    0    0  0.00000000000E+00  0.00000000000E+00  0.18250000000E+03  0.18250000000E+03  0.00000000000E+00 0. -1.
         11   -1    0    0    0    0 -0.00000000000E+00 -0.00000000000E+00 -0.18250000000E+03  0.18250000000E+03  0.00000000000E+00 0. -1.
        -11    1    1    2    0    0 -0.50297039275E+01  0.92721221887E+01  0.18134104456E+03  0.18164758356E+03  0.00000000000E+00 0. -1.
         11    1    1    2    0    0  0.12589951908E+01  0.17453297466E+01 -0.68483886896E+02  0.68517691214E+02  0.00000000000E+00 0. -1.
        -15    1    1    2    0    0  0.30521939794E+01 -0.13091863282E+02 -0.46998547911E+02  0.48915580412E+02  0.17770000000E+01 0. -1.
         15    1    1    2    0    0  0.71851475732E+00  0.20744113465E+01 -0.65858609751E+02  0.65919144815E+02  0.17770000000E+01 0. -1.
</event>
<event>
 6    1  0.1226227E-002  0.1839330E+03  0.7546771E-02  0.1067320E+00
        -11   -1    0    0    0    0  0.00000000000E+00  0.00000000000E+00  0.18250000000E+03  0.18250000000E+03  0.00000000000E+00 0. -1.
         11   -1    0    0    0    0 -0.00000000000E+00 -0.00000000000E+00 -0.18250000000E+03  0.18250000000E+03  0.00000000000E+00 0.  1.
        -11    1    1    2    0    0 -0.34400095412E+01 -0.13640577506E-01  0.18103427178E+03  0.18106695283E+03  0.00000000000E+00 0. -1.
         11    1    1    2    0    0 -0.17521914539E+01 -0.14464716812E+01 -0.15767899334E+03  0.15769536263E+03  0.00000000000E+00 0.  1.
        -15    1    1    2    0    0  0.84088660213E+00 -0.86998832538E+00  0.14909837461E+00  0.21549777932E+01  0.17770000000E+01 0. -1.
         15    1    1    2    0    0  0.43513143930E+01  0.23301005841E+01 -0.23504376810E+02  0.24082706740E+02  0.17770000000E+01 0.  1.
</event>
<event>
 6    1  0.1226227E-002  0.1503467E+03  0.7546771E-02  0.1097387E+00
        -11   -1    0    0    0    0  0.00000000000E+00  0.00000000000E+00  0.18250000000E+03  0.18250000000E+03  0.00000000000E+00 0. -1.
         11   -1    0    0    0    0 -0.00000000000E+00 -0.00000000000E+00 -0.18250000000E+03  0.18250000000E+03  0.00000000000E+00 0. -1.
        -11    1    1    2    0    0  0.27404313642E+02 -0.18013020104E+02  0.15718946289E+03  0.16057394727E+03  0.00000000000E+00 0. -1.
         11    1    1    2    0    0 -0.12106026815E+01  0.35936743440E+01 -0.14193640934E+03  0.14198705699E+03  0.00000000000E+00 0. -1.
        -15    1    1    2    0    0 -0.18908874455E+02  0.32627831372E+02 -0.36880994686E+00  0.37754664123E+02  0.17770000000E+01 0. -1.
         15    1    1    2    0    0 -0.72848365053E+01 -0.18208485612E+02 -0.14884243596E+02  0.24684331622E+02  0.17770000000E+01 0.  1.
</event>
<event>
 6    1  0.1226227E-002  0.1876053E+03  0.7546771E-02  0.1064462E+00
        -11   -1    0    0    0    0  0.00000000000E+00  0.00000000000E+00  0.18250000000E+03  0.18250000000E+03  0.00000000000E+00 0.  1.
         11   -1    0    0    0    0 -0.00000000000E+00 -0.00000000000E+00 -0.18250000000E+03  0.18250000000E+03  0.00000000000E+00 0.  1.
        -11    1    1    2    0    0 -0.10381479696E+02 -0.80709642140E+01  0.17690663561E+03  0.17739468230E+03  0.00000000000E+00 0.  1.
         11    1    1    2    0    0 -0.75615675518E+00 -0.13159758146E+01 -0.11074776798E+03  0.11075816755E+03  0.00000000000E+00 0.  1.
        -15    1    1    2    0    0  0.68103023563E+01 -0.61925800165E+01 -0.70384832541E+00  0.94011380646E+01  0.17770000000E+01 0.  1.
         15    1    1    2    0    0  0.43273340953E+01  0.15579520045E+02 -0.65455019308E+02  0.67446012090E+02  0.17770000000E+01 0. -1.
</event>
<event>
 6    1  0.1226227E-002  0.1859279E+03  0.7546771E-02  0.1065758E+00
        -11   -1    0    0    0    0  0.00000000000E+00  0.00000000000E+00  0.18250000000E+03  0.18250000000E+03  0.00000000000E+00 0. -1.
         11   -1    0    0    0    0 -0.00000000000E+00 -0.00000000000E+00 -0.18250000000E+03  0.18250000000E+03  0.00000000000E+00 0.  1.
        -11    1    1    2    0    0 -0.12343431982E+02  0.43672308274E+01  0.17859275774E+03  0.17907206967E+03  0.00000000000E+00 0. -1.
         11    1    1    2    0    0 -0.20716170920E+01  0.21173213313E+00 -0.14667681513E+03  0.14669159664E+03  0.00000000000E+00 0.  1.
        -15    1    1    2    0    0  0.16358231137E+02  0.87641878471E+00 -0.20393102077E+02  0.26218241305E+02  0.17770000000E+01 0.  1.
         15    1    1    2    0    0 -0.19431820635E+01 -0.54553817453E+01 -0.11522840528E+02  0.13018092386E+02  0.17770000000E+01 0. -1.
</event>
<event>
 6    1  0.1226227E-002  0.1849629E+03  0.7546771E-02  0.1066511E+00
        -11   -1    0    0    0    0  0.00000000000E+00  0.00000000000E+00  0.18250000000E+03  0.18250000000E+03  0.00000000000E+00 0.  1.
         11   -1    0    0    0    0 -0.00000000000E+00 -0.00000000000E+00 -0.18250000000E+03  0.18250000000E+03  0.00000000000E+00 0. -1.
        -11    1    1    2    0    0  0.30669490910E+00  0.53349088667E+01  0.15295957383E+03  0.15305288806E+03  0.00000000000E+00 0.  1.
         11    1    1    2    0    0 -0.30883171587E+01 -0.14969463279E+01 -0.18000434669E+03  0.18003706112E+03  0.00000000000E+00 0. -1.
        -15    1    1    2    0    0  0.47608629320E+01 -0.43459965806E+01  0.23807800181E+01  0.70978408428E+01  0.17770000000E+01 0. -1.
         15    1    1    2    0    0 -0.19792406824E+01  0.50803404179E+00  0.24663992837E+02  0.24812209977E+02  0.17770000000E+01 0.  1.
</event>
<event>
 6    1  0.1226227E-002  0.1829511E+03  0.7546771E-02  0.1068096E+00
        -11   -1    0    0    0    0  0.00000000000E+00  0.00000000000E+00  0.18250000000E+03  0.18250000000E+03  0.00000000000E+00 0. -1.
         11   -1    0    0    0    0 -0.00000000000E+00 -0.00000000000E+00 -0.18250000000E+03  0.18250000000E+03  0.00000000000E+00 0. -1.
        -11    1    1    2    0    0  0.29771950497E+00  0.10129344704E+01  0.20551253060E+02  0.20578354538E+02  0.00000000000E+00 0. -1.
         11    1    1    2    0    0  0.39600777508E+01  0.90419259727E+01 -0.18178112023E+03  0.18204893385E+03  0.00000000000E+00 0. -1.
        -15    1    1    2    0    0 -0.26856314101E+01  0.39069667820E+01  0.44245089748E+02  0.44533837711E+02  0.17770000000E+01 0. -1.
         15    1    1    2    0    0 -0.15721658456E+01 -0.13961827225E+02  0.11698477743E+03  0.11783887390E+03  0.17770000000E+01 0.  1.
</event>
<event>
 6    1  0.1226227E-002  0.1836027E+03  0.7546771E-02  0.1067580E+00
        -11   -1    0    0    0    0  0.00000000000E+00  0.00000000000E+00  0.18250000000E+03  0.18250000000E+03  0.00000000000E+00 0.  1.
         11   -1    0    0    0    0 -0.00000000000E+00 -0.00000000000E+00 -0.18250000000E+03  0.18250000000E+03  0.00000000000E+00 0. -1.
        -11    1    1    2    0    0  0.20407850592E+01 -0.85028518826E+00  0.15588109750E+03  0.15589677465E+03  0.00000000000E+00 0.  1.
         11    1    1    2    0    0  0.32479265246E+01  0.20029048265E+01 -0.18135716829E+03  0.18139730743E+03  0.00000000000E+00 0. -1.
        -15    1    1    2    0    0  0.12209084765E+01 -0.23036734098E+01  0.36154681234E+01  0.47986318298E+01  0.17770000000E+01 0. -1.
         15    1    1    2    0    0 -0.65096200603E+01  0.11510537716E+01  0.21860602665E+02  0.22907286090E+02  0.17770000000E+01 0.  1.
</event>
<event>
 6    1  0.1226227E-002  0.1837798E+03  0.7546771E-02  0.1067441E+00
        -11   -1    0    0    0    0  0.00000000000E+00  0.00000000000E+00  0.18250000000E+03  0.18250000000E+03  0.00000000000E+00 0.  1.
         11   -1    0    0    0    0 -0.00000000000E+00 -0.00000000000E+00 -0.18250000000E+03  0.18250000000E+03  0.00000000000E+00 0. -1.
        -11    1    1    2    0    0 -0.18530332662E+01  0.22707502606E+01  0.18119649084E+03  0.18122019295E+03  0.00000000000E+00 0.  1.
         11    1    1    2    0    0 -0.15410320085E+01  0.20908347572E+01 -0.56363772061E+02  0.56423587005E+02  0.00000000000E+00 0. -1.
        -15    1    1    2    0    0 -0.43086538110E+01 -0.58946495480E+01 -0.11498168907E+02  0.13735974963E+02  0.17770000000E+01 0.  1.
         15    1    1    2    0    0  0.77027190857E+01  0.15330645303E+01 -0.11333454987E+03  0.11362024508E+03  0.17770000000E+01 0. -1.
</event>
<event>
 6    1  0.1226227E-002  0.1834835E+03  0.7546771E-02  0.1067675E+00
        -11   -1    0    0    0    0  0.00000000000E+00  0.00000000000E+00  0.18250000000E+03  0.18250000000E+03  0.00000000000E+00 0.  1.
         11   -1    0    0    0    0 -0.00000000000E+00 -0.00000000000E+00 -0.18250000000E+03  0.18250000000E+03  0.00000000000E+00 0.  1.
        -11    1    1    2    0    0  0.44624960767E+00 -0.25268562544E+01  0.18149841253E+03  0.18151654991E+03  0.00000000000E+00 0.  1.
         11    1    1    2    0    0 -0.21578005790E+01  0.16970495339E+01 -0.14037406547E+03  0.14040090576E+03  0.00000000000E+00 0.  1.
        -15    1    1    2    0    0 -0.99443269610E+00  0.62126996512E+01 -0.22227100862E+02  0.23168691700E+02  0.17770000000E+01 0. -1.
         15    1    1    2    0    0  0.27059836674E+01 -0.53828929307E+01 -0.18897246194E+02  0.19913852631E+02  0.17770000000E+01 0. -1.
</event>
<event>
 6    1  0.1226227E-002  0.1860076E+03  0.7546771E-02  0.1065697E+00
        -11   -1    0    0    0    0  0.00000000000E+00  0.00000000000E+00  0.18250000000E+03  0.18250000000E+03  0.00000000000E+00 0. -1.
         11   -1    0    0    0    0 -0.00000000000E+00 -0.00000000000E+00 -0.18250000000E+03  0.18250000000E+03  0.00000000000E+00 0. -1.
        -11    1    1    2    0    0 -0.90883788142E+00 -0.49696563374E+01  0.17892109169E+03  0.17899240353E+03  0.00000000000E+00 0. -1.
         11    1    1    2    0    0  0.62995342979E+01 -0.21799936395E+01 -0.15986623897E+03  0.16000515887E+03  0.00000000000E+00 0. -1.
        -15    1    1    2    0    0 -0.43409283319E+01  0.22416580383E+01 -0.19938686635E+02  0.20605281927E+02  0.17770000000E+01 0. -1.
         15    1    1    2    0    0 -0.10497680846E+01  0.49079919386E+01  0.88383390889E+00  0.53971556657E+01  0.17770000000E+01 0.  1.
</event>
<event>
 6    1  0.1226227E-002  0.1835428E+03  0.7546771E-02  0.1067628E+00
        -11   -1    0    0    0    0  0.00000000000E+00  0.00000000000E+00  0.18250000000E+03  0.18250000000E+03  0.00000000000E+00 0.  1.
         11   -1    0    0    0    0 -0.00000000000E+00 -0.00000000000E+00 -0.18250000000E+03  0.18250000000E+03  0.00000000000E+00 0.  1.
        -11    1    1    2    0    0 -0.22144901418E+01  0.20094403374E+01  0.15336283817E+03  0.15339198789E+03  0.00000000000E+00 0.  1.
         11    1    1    2    0    0  0.18978801041E+01  0.24631184729E+01 -0.18143054931E+03  0.18145719364E+03  0.00000000000E+00 0.  1.
        -15    1    1    2    0    0 -0.19097810116E+01  0.40561527163E+00  0.16000051786E+01  0.30869941419E+01  0.17770000000E+01 0. -1.
         15    1    1    2    0    0  0.22263910493E+01 -0.48781740819E+01  0.26467705963E+02  0.27063824331E+02  0.17770000000E+01 0.  1.
</event>
<event>
 6    1  0.1226227E-002  0.1826973E+03  0.7546771E-02  0.1068298E+00
        -11   -1    0    0    0    0  0.00000000000E+00  0.00000000000E+00  0.18250000000E+03  0.18250000000E+03  0.00000000000E+00 0. -1.
         11   -1    0    0    0    0 -0.00000000000E+00 -0.00000000000E+00 -0.18250000000E+03  0.18250000000E+03  0.00000000000E+00 0.  1.
        -11    1    1    2    0    0  0.15566426788E+01 -0.32894541744E+01  0.18226633512E+03  0.18230266197E+03  0.00000000000E+00 0. -1.
         11    1    1    2    0    0 -0.67348191581E+00 -0.30541140044E+01 -0.47022908513E+02  0.47126798271E+02  0.00000000000E+00 0.  1.
        -15    1    1    2    0    0  0.54435376752E+00  0.65991180653E+01 -0.85577771831E+02  0.85851950710E+02  0.17770000000E+01 0.  1.
         15    1    1    2    0    0 -0.14275145305E+01 -0.25554988643E+00 -0.49665654774E+02  0.49718589045E+02  0.17770000000E+01 0. -1.
</event>
<event>
 6    1  0.1226227E-002  0.1969147E+03  0.7546771E-02  0.1057527E+00
        -11   -1    0    0    0    0  0.00000000000E+00  0.00000000000E+00  0.18250000000E+03  0.18250000000E+03  0.00000000000E+00 0.  1.
         11   -1    0    0    0    0 -0.00000000000E+00 -0.00000000000E+00 -0.18250000000E+03  0.18250000000E+03  0.00000000000E+00 0.  1.
        -11    1    1    2    0    0  0.28493391458E+01 -0.96594721352E+00  0.15792275533E+03  0.15795141164E+03  0.00000000000E+00 0.  1.
         11    1    1    2    0    0  0.18534714353E+01  0.10232386980E+02 -0.16776327207E+03  0.16808525383E+03  0.00000000000E+00 0.  1.
        -15    1    1    2    0    0  0.41337850743E+00  0.44438320571E+01  0.20317846332E+02  0.20878005980E+02  0.17770000000E+01 0.  1.
         15    1    1    2    0    0 -0.51161890886E+01 -0.13710271823E+02 -0.10477329597E+02  0.18085328550E+02  0.17770000000E+01 0.  1.
</event>
<event>
 6    1  0.1226227E-002  0.1880531E+03  0.7546771E-02  0.1064118E+00
        -11   -1    0    0    0    0  0.00000000000E+00  0.00000000000E+00  0.18250000000E+03  0.18250000000E+03  0.00000000000E+00 0. -1.
         11   -1    0    0    0    0 -0.00000000000E+00 -0.00000000000E+00 -0.18250000000E+03  0.18250000000E+03  0.00000000000E+00 0. -1.
        -11    1    1    2    0    0 -0.90173545749E+01  0.29776226210E+00  0.15180475711E+03  0.15207263273E+03  0.00000000000E+00 0. -1.
         11    1    1    2    0    0 -0.13455906730E+01  0.30195175417E+01 -0.17691599325E+03  0.17694687555E+03  0.00000000000E+00 0. -1.
        -15    1    1    2    0    0  0.81286401267E+00  0.69002947843E+01 -0.12223506076E-01  0.71716591126E+01  0.17770000000E+01 0.  1.
         15    1    1    2    0    0  0.95500812352E+01 -0.10217574588E+02  0.25123459650E+02  0.28808832601E+02  0.17770000000E+01 0.  1.
</event>
<event>
 6    1  0.1226227E-002  0.1873169E+03  0.7546771E-02  0.1064684E+00
        -11   -1    0    0    0    0  0.00000000000E+00  0.00000000000E+00  0.18250000000E+03  0.18250000000E+03  0.00000000000E+00 0. -1.
         11   -1    0    0    0    0 -0.00000000000E+00 -0.00000000000E+00 -0.18250000000E+03  0.18250000000E+03  0.00000000000E+00 0. -1.
        -11    1    1    2    0    0  0.64756917479E+01 -0.41211595935E+01  0.17751726327E+03  0.17768313735E+03  0.00000000000E+00 0. -1.
         11    1    1    2    0    0 -0.68410695924E+00 -0.22145914220E+01 -0.17051324272E+03  0.17052899566E+03  0.00000000000E+00 0. -1.
        -15    1    1    2    0    0 -0.35579585228E+01 -0.88391893957E+00 -0.79834732619E+01  0.89629211681E+01  0.17770000000E+01 0. -1.
         15    1    1    2    0    0 -0.22336262659E+01  0.72196699550E+01  0.97945271539E+00  0.78249458258E+01  0.17770000000E+01 0.  1.
</event>
<event>
 6    1  0.1226227E-002  0.1831186E+03  0.7546771E-02  0.1067963E+00
        -11   -1    0    0    0    0  0.00000000000E+00  0.00000000000E+00  0.18250000000E+03  0.18250000000E+03  0.00000000000E+00 0.  1.
         11   -1    0    0    0    0 -0.00000000000E+00 -0.00000000000E+00 -0.18250000000E+03  0.18250000000E+03  0.00000000000E+00 0. -1.
        -11    1    1    2    0    0 -0.38178096227E+01  0.37889000135E+01  0.18180184078E+03  0.18188139197E+03  0.00000000000E+00 0.  1.
         11    1    1    2    0    0 -0.29456448121E+01 -0.45995079121E+01 -0.11395945427E+03  0.11409026914E+03  0.00000000000E+00 0. -1.
        -15    1    1    2    0    0  0.11173812243E+01  0.13297345910E+01 -0.52749051982E+02  0.52807546325E+02  0.17770000000E+01 0. -1.
         15    1    1    2    0    0  0.56460732105E+01 -0.51912669252E+00 -0.15093334529E+02  0.16220792564E+02  0.17770000000E+01 0.  1.
</event>
<event>
 6    1  0.1226227E-002  0.1940900E+03  0.7546771E-02  0.1059586E+00
        -11   -1    0    0    0    0  0.00000000000E+00  0.00000000000E+00  0.18250000000E+03  0.18250000000E+03  0.00000000000E+00 0. -1.
         11   -1    0    0    0    0 -0.00000000000E+00 -0.00000000000E+00 -0.18250000000E+03  0.18250000000E+03  0.00000000000E+00 0. -1.
        -11    1    1    2    0    0  0.64932027112E+01  0.96109763973E+01  0.12840198905E+03  0.12892479723E+03  0.00000000000E+00 0. -1.
         11    1    1    2    0    0  0.59252029030E+01 -0.69599719136E+01 -0.17066538046E+03  0.17090998019E+03  0.00000000000E+00 0. -1.
        -15    1    1    2    0    0 -0.39889125787E+01 -0.60835106539E+01  0.51520660624E+02  0.52062046882E+02  0.17770000000E+01 0. -1.
         15    1    1    2    0    0 -0.84294930355E+01  0.34325061702E+01 -0.92572692046E+01  0.13103175706E+02  0.17770000000E+01 0.  1.
</event>
<event>
 6    1  0.1226227E-002  0.1761346E+03  0.7546771E-02  0.1073638E+00
        -11   -1    0    0    0    0  0.00000000000E+00  0.00000000000E+00  0.18250000000E+03  0.18250000000E+03  0.00000000000E+00 0. -1.
         11   -1    0    0    0    0 -0.00000000000E+00 -0.00000000000E+00 -0.18250000000E+03  0.18250000000E+03  0.00000000000E+00 0.  1.
        -11    1    1    2    0    0 -0.62094171157E+00  0.68832642916E+01  0.18178058543E+03  0.18191191862E+03  0.00000000000E+00 0. -1.
         11    1    1    2    0    0  0.45728937096E+00  0.72738161660E+00 -0.13509077897E+02  0.13536372602E+02  0.00000000000E+00 0.  1.
        -15    1    1    2    0    0  0.77122199704E+00 -0.12767095531E+02 -0.73821782879E+02  0.74942690558E+02  0.17770000000E+01 0. -1.
         15    1    1    2    0    0 -0.60756965642E+00  0.51564496223E+01 -0.94449724651E+02  0.94609018224E+02  0.17770000000E+01 0.  1.
</event>
<event>
 6    1  0.1226227E-002  0.1740677E+03  0.7546771E-02  0.1075372E+00
        -11   -1    0    0    0    0  0.00000000000E+00  0.00000000000E+00  0.18250000000E+03  0.18250000000E+03  0.00000000000E+00 0. -1.
         11   -1    0    0    0    0 -0.00000000000E+00 -0.00000000000E+00 -0.18250000000E+03  0.18250000000E+03  0.00000000000E+00 0.  1.
        -11    1    1    2    0    0  0.45209763435E+01 -0.92973362429E+01  0.17249150098E+03  0.17280103471E+03  0.00000000000E+00 0. -1.
         11    1    1    2    0    0  0.30762029953E+01 -0.21153619835E+01 -0.17557817026E+03  0.17561785687E+03  0.00000000000E+00 0.  1.
        -15    1    1    2    0    0 -0.23842341532E+01 -0.45342356672E+00  0.16219990177E+01  0.34174223095E+01  0.17770000000E+01 0.  1.
         15    1    1    2    0    0 -0.52129451856E+01  0.11866121793E+02  0.14646702617E+01  0.13163686106E+02  0.17770000000E+01 0. -1.
</event>
<event>
 6    1  0.1226227E-002  0.1877243E+03  0.7546771E-02  0.1064371E+00
        -11   -1    0    0    0    0  0.00000000000E+00  0.00000000000E+00  0.18250000000E+03  0.18250000000E+03  0.00000000000E+00 0.  1.
         11   -1    0    0    0    0 -0.00000000000E+00 -0.00000000000E+00 -0.18250000000E+03  0.18250000000E+03  0.00000000000E+00 0.  1.
        -11    1    1    2    0    0 -0.29215875082E+01 -0.11329355251E+01  0.17724801753E+03  0.17727571446E+03  0.00000000000E+00 0.  1.
         11    1    1    2    0    0 -0.65361070896E+01 -0.89562835317E+01 -0.14088704923E+03  0.14132266751E+03  0.00000000000E+00 0.  1.
        -15    1    1    2    0    0  0.11307439650E+01  0.91084017030E+00  0.37421575159E+01  0.43897247755E+01  0.17770000000E+01 0. -1.
         15    1    1    2    0    0  0.83269506329E+01  0.91783788865E+01 -0.40103125820E+02  0.42011893261E+02  0.17770000000E+01 0. -1.
</event>
<event>
 6    1  0.1226227E-002  0.1839600E+03  0.7546771E-02  0.1067299E+00
        -11   -1    0    0    0    0  0.00000000000E+00  0.00000000000E+00  0.18250000000E+03  0.18250000000E+03  0.00000000000E+00 0. -1.
         11   -1    0    0    0    0 -0.00000000000E+00 -0.00000000000E+00 -0.18250000000E+03  0.18250000000E+03  0.00000000000E+00 0. -1.
        -11    1    1    2    0    0 -0.17794423756E+01  0.63057012837E+01  0.18092137413E+03  0.18103997322E+03  0.00000000000E+00 0. -1.
         11    1    1    2    0    0  0.24954635370E+01 -0.65164723043E+00 -0.13247053540E+03  0.13249564042E+03  0.00000000000E+00 0. -1.
        -15    1    1    2    0    0 -0.12980594250E+01 -0.79658295823E+01 -0.10335640806E+02  0.13233389553E+02  0.17770000000E+01 0. -1.
         15    1    1    2    0    0  0.58203826363E+00  0.23117755291E+01 -0.38115197929E+02  0.38230996807E+02  0.17770000000E+01 0.  1.
</event>
<event>
 6    1  0.1226227E-002  0.1828418E+03  0.7546771E-02  0.1068183E+00
        -11   -1    0    0    0    0  0.00000000000E+00  0.00000000000E+00  0.18250000000E+03  0.18250000000E+03  0.00000000000E+00 0. -1.
         11   -1    0    0    0    0 -0.00000000000E+00 -0.00000000000E+00 -0.18250000000E+03  0.18250000000E+03  0.00000000000E+00 0. -1.
        -11    1    1    2    0    0 -0.35219646324E+00 -0.63772247382E+00  0.23831287481E+02  0.23842420081E+02  0.00000000000E+00 0. -1.
         11    1    1    2    0    0  0.16709844397E+01  0.12654348208E+02 -0.18171040535E+03  0.18215816240E+03  0.00000000000E+00 0. -1.
        -15    1    1    2    0    0 -0.12772243910E-01  0.55740594748E+00  0.84334183869E+02  0.84354745939E+02  0.17770000000E+01 0. -1.
         15    1    1    2    0    0 -0.13060157326E+01 -0.12574031682E+02  0.73544933997E+02  0.74644671581E+02  0.17770000000E+01 0. -1.
</event>
<event>
 6    1  0.1226227E-002  0.1865120E+03  0.7546771E-02  0.1065305E+00
        -11   -1    0    0    0    0  0.00000000000E+00  0.00000000000E+00  0.18250000000E+03  0.18250000000E+03  0.00000000000E+00 0.  1.
         11   -1    0    0    0    0 -0.00000000000E+00 -0.00000000000E+00 -0.18250000000E+03  0.18250000000E+03  0.00000000000E+00 0. -1.
        -11    1    1    2    0    0  0.17042013303E+01 -0.69063930018E+01  0.16994605603E+03  0.17009486920E+03  0.00000000000E+00 0.  1.
         11    1    1    2    0    0  0.24004196879E+01 -0.88449050562E+00 -0.17846967848E+03  0.17848801214E+03  0.00000000000E+00 0. -1.
        -15    1    1    2    0    0 -0.73592507846E+01  0.50541615304E+01  0.72458762507E+01  0.11634585189E+02  0.17770000000E+01 0. -1.
         15    1    1    2    0    0  0.32546297664E+01  0.27367219771E+01  0.12777461978E+01  0.47825334753E+01  0.17770000000E+01 0.  1.
</event>
<event>
 6    1  0.1226227E-002  0.1825854E+03  0.7546771E-02  0.1068387E+00
        -11   -1    0    0    0    0  0.00000000000E+00  0.00000000000E+00  0.18250000000E+03  0.18250000000E+03  0.00000000000E+00 0. -1.
         11   -1    0    0    0    0 -0.00000000000E+00 -0.00000000000E+00 -0.18250000000E+03  0.18250000000E+03  0.00000000000E+00 0. -1.
        -11    1    1    2    0    0  0.29636110109E+01 -0.14586527583E+01  0.18238464547E+03  0.18241455413E+03  0.00000000000E+00 0. -1.
         11    1    1    2    0    0 -0.12883595882E+00  0.13941993541E+01 -0.97273503753E+02  0.97283579924E+02  0.00000000000E+00 0. -1.
        -15    1    1    2    0    0 -0.47435190318E+00 -0.51750633581E+00 -0.14344858516E+02  0.14471541638E+02  0.17770000000E+01 0. -1.
         15    1    1    2    0    0 -0.23604231489E+01  0.58195973992E+00 -0.70766283197E+02  0.70830324304E+02  0.17770000000E+01 0. -1.
</event>
<event>
 6    1  0.1226227E-002  0.1835370E+03  0.7546771E-02  0.1067632E+00
        -11   -1    0    0    0    0  0.00000000000E+00  0.00000000000E+00  0.18250000000E+03  0.18250000000E+03  0.00000000000E+00 0. -1.
         11   -1    0    0    0    0 -0.00000000000E+00 -0.00000000000E+00 -0.18250000000E+03  0.18250000000E+03  0.00000000000E+00 0. -1.
        -11    1    1    2    0    0 -0.71575058541E+01  0.88532542415E+00  0.18131958499E+03  0.18146295928E+03  0.00000000000E+00 0. -1.
         11    1    1    2    0    0 -0.19801281153E+01  0.22409830941E+01 -0.11869259350E+03  0.11873026010E+03  0.00000000000E+00 0. -1.
        -15    1    1    2    0    0 -0.89385306074E+00  0.18332775712E+01 -0.32616893995E+02  0.32728876895E+02  0.17770000000E+01 0.  1.
         15    1    1    2    0    0  0.10031487030E+02 -0.49595860895E+01 -0.30010097494E+02  0.32077903716E+02  0.17770000000E+01 0. -1.
</event>
<event>
 6    1  0.1226227E-002  0.1826437E+03  0.7546771E-02  0.1068340E+00
        -11   -1    0    0    0    0  0.00000000000E+00  0.00000000000E+00  0.18250000000E+03  0.18250000000E+03  0.00000000000E+00 0. -1.
         11   -1    0    0    0    0 -0.00000000000E+00 -0.00000000000E+00 -0.18250000000E+03  0.18250000000E+03  0.00000000000E+00 0.  1.
        -11    1    1    2    0    0  0.33843689815E+00 -0.23559745558E+01  0.78102510985E+02  0.78138770005E+02  0.00000000000E+00 0. -1.
         11    1    1    2    0    0 -0.41779807849E+01  0.44495507529E+00 -0.18230790344E+03  0.18235631376E+03  0.00000000000E+00 0.  1.
        -15    1    1    2    0    0  0.84652476799E+00  0.48809137504E+00  0.78474272428E+02  0.78500471333E+02  0.17770000000E+01 0. -1.
         15    1    1    2    0    0  0.29930191187E+01  0.14229281055E+01  0.25731120031E+02  0.26004444906E+02  0.17770000000E+01 0.  1.
</event>
<event>
 6    1  0.1226227E-002  0.1639518E+03  0.7546771E-02  0.1084260E+00
        -11   -1    0    0    0    0  0.00000000000E+00  0.00000000000E+00  0.18250000000E+03  0.18250000000E+03  0.00000000000E+00 0. -1.
         11   -1    0    0    0    0 -0.00000000000E+00 -0.00000000000E+00 -0.18250000000E+03  0.18250000000E+03  0.00000000000E+00 0.  1.
        -11    1    1    2    0    0  0.17930858344E+02 -0.41202478391E+01  0.15792891947E+03  0.15899696767E+03  0.00000000000E+00 0. -1.
         11    1    1    2    0    0  0.47401622202E+01 -0.30556296589E+01 -0.16989166629E+03  0.16998524726E+03  0.00000000000E+00 0.  1.
        -15    1    1    2    0    0  0.41230601276E+01  0.37139423638E+01  0.58590762057E+01  0.82631407879E+01  0.17770000000E+01 0. -1.
         15    1    1    2    0    0 -0.26794080691E+02  0.34619351343E+01  0.61036706155E+01  0.27754644277E+02  0.17770000000E+01 0.  1.
</event>
<event>
 6    1  0.1226227E-002  0.1825903E+03  0.7546771E-02  0.1068383E+00
        -11   -1    0    0    0    0  0.00000000000E+00  0.00000000000E+00  0.18250000000E+03  0.18250000000E+03  0.00000000000E+00 0.  1.
         11   -1    0    0    0    0 -0.00000000000E+00 -0.00000000000E+00 -0.18250000000E+03  0.18250000000E+03  0.00000000000E+00 0. -1.
        -11    1    1    2    0    0 -0.25394129737E+00 -0.77553752404E+00  0.28838823901E+02  0.28850367564E+02  0.00000000000E+00 0.  1.
         11    1    1    2    0    0  0.19130326612E+01  0.33616679205E+01 -0.18236864438E+03  0.18240965697E+03  0.00000000000E+00 0. -1.
        -15    1    1    2    0    0 -0.39722183357E+01 -0.26742464353E+01  0.10133516982E+03  0.10146380873E+03  0.17770000000E+01 0. -1.
         15    1    1    2    0    0  0.23131269719E+01  0.88116038818E-01  0.52194650662E+02  0.52276166726E+02  0.17770000000E+01 0.  1.
</event>
<event>
 6    1  0.1226227E-002  0.1854019E+03  0.7546771E-02  0.1066168E+00
        -11   -1    0    0    0    0  0.00000000000E+00  0.00000000000E+00  0.18250000000E+03  0.18250000000E+03  0.00000000000E+00 0. -1.
         11   -1    0    0    0    0 -0.00000000000E+00 -0.00000000000E+00 -0.18250000000E+03  0.18250000000E+03  0.00000000000E+00 0.  1.
        -11    1    1    2    0    0  0.11627959881E+01 -0.28165756106E+01  0.17395504604E+03  0.17398173248E+03  0.00000000000E+00 0. -1.
         11    1    1    2    0    0  0.28864759275E+01  0.10167421716E+01 -0.17957197969E+03  0.17959805510E+03  0.00000000000E+00 0.  1.
        -15    1    1    2    0    0 -0.26813042701E+01  0.49740684154E+01  0.42883939860E+01  0.73129201533E+01  0.17770000000E+01 0.  1.
         15    1    1    2    0    0 -0.13679676455E+01 -0.31742349764E+01  0.13285396592E+01  0.41072922699E+01  0.17770000000E+01 0. -1.
</event>
<event>
 6    1  0.1226227E-002  0.1728683E+03  0.7546771E-02  0.1076391E+00
        -11   -1    0    0    0    0  0.00000000000E+00  0.00000000000E+00  0.18250000000E+03  0.18250000000E+03  0.00000000000E+00 0. -1.
         11   -1    0    0    0    0 -0.00000000000E+00 -0.00000000000E+00 -0.18250000000E+03  0.18250000000E+03  0.00000000000E+00 0.  1.
        -11    1    1    2    0    0 -0.15415729398E+01  0.54415387954E+01  0.17600291077E+03  0.17609375738E+03  0.00000000000E+00 0. -1.
         11    1    1    2    0    0  0.11247101319E+02  0.67019656123E+01 -0.16954766034E+03  0.17005241179E+03  0.00000000000E+00 0.  1.
        -15    1    1    2    0    0 -0.10526107642E+02 -0.88550542175E+01 -0.54029729858E+01  0.14884917647E+02  0.17770000000E+01 0. -1.
         15    1    1    2    0    0  0.82057926217E+00 -0.32884501902E+01 -0.10522774436E+01  0.39689131758E+01  0.17770000000E+01 0.  1.
</event>
<event>
 6    1  0.1226227E-002  0.1830593E+03  0.7546771E-02  0.1068011E+00
        -11   -1    0    0    0    0  0.00000000000E+00  0.00000000000E+00  0.18250000000E+03  0.18250000000E+03  0.00000000000E+00 0.  1.
         11   -1    0    0    0    0 -0.00000000000E+00 -0.00000000000E+00 -0.18250000000E+03  0.18250000000E+03  0.00000000000E+00 0. -1.
        -11    1    1    2    0    0  0.30080757610E+01  0.20461316056E+01  0.13458472953E+03  0.13463389097E+03  0.00000000000E+00 0.  1.
         11    1    1    2    0    0  0.29809182846E+01 -0.15131073513E+01 -0.18191002623E+03  0.18194074039E+03  0.00000000000E+00 0. -1.
        -15    1    1    2    0    0  0.15945524922E+01 -0.51674470124E+00  0.97594270120E+01  0.10060505322E+02  0.17770000000E+01 0. -1.
         15    1    1    2    0    0 -0.75835465378E+01 -0.16279553083E-01  0.37565869688E+02  0.38364863319E+02  0.17770000000E+01 0. -1.
</event>
<event>
 6    1  0.1226227E-002  0.1829084E+03  0.7546771E-02  0.1068130E+00
        -11   -1    0    0    0    0  0.00000000000E+00  0.00000000000E+00  0.18250000000E+03  0.18250000000E+03  0.00000000000E+00 0.  1.
         11   -1    0    0    0    0 -0.00000000000E+00 -0.00000000000E+00 -0.18250000000E+03  0.18250000000E+03  0.00000000000E+00 0. -1.
        -11    1    1    2    0    0 -0.66450844762E+01 -0.36150020162E+01  0.93369308190E+02  0.93675253398E+02  0.00000000000E+00 0.  1.
         11    1    1    2    0    0  0.48155841016E+01  0.39557702194E+01 -0.18198495316E+03  0.18209162843E+03  0.00000000000E+00 0. -1.
        -15    1    1    2    0    0  0.62331626274E+00  0.27552609682E+01  0.75839957478E+02  0.75913351036E+02  0.17770000000E+01 0.  1.
         15    1    1    2    0    0  0.12061841118E+01 -0.30960291714E+01  0.12775687490E+02  0.13319767137E+02  0.17770000000E+01 0. -1.
</event>
<event>
 6    1  0.1226227E-002  0.1832570E+03  0.7546771E-02  0.1067854E+00
        -11   -1    0    0    0    0  0.00000000000E+00  0.00000000000E+00  0.18250000000E+03  0.18250000000E+03  0.00000000000E+00 0.  1.
         11   -1    0    0    0    0 -0.00000000000E+00 -0.00000000000E+00 -0.18250000000E+03  0.18250000000E+03  0.00000000000E+00 0.  1.
        -11    1    1    2    0    0  0.21437141980E+01 -0.13660710229E+01  0.16201776100E+03  0.16203770098E+03  0.00000000000E+00 0.  1.
         11    1    1    2    0    0 -0.23429011463E+01  0.37572881690E+01 -0.18168909511E+03  0.18174304301E+03  0.00000000000E+00 0.  1.
        -15    1    1    2    0    0  0.16775006985E+01 -0.43425065327E+00  0.17001827745E+02  0.17182038817E+02  0.17770000000E+01 0.  1.
         15    1    1    2    0    0 -0.14783137502E+01 -0.19569664928E+01  0.26695063694E+01  0.40372171919E+01  0.17770000000E+01 0. -1.
</event>
<event>
 6    1  0.1226227E-002  0.1658947E+03  0.7546771E-02  0.1082499E+00
        -11   -1    0    0    0    0  0.00000000000E+00  0.00000000000E+00  0.18250000000E+03  0.18250000000E+03  0.00000000000E+00 0. -1.
         11   -1    0    0    0    0 -0.00000000000E+00 -0.00000000000E+00 -0.18250000000E+03  0.18250000000E+03  0.00000000000E+00 0.  1.
        -11    1    1    2    0    0 -0.28055689270E+01 -0.74750879439E+00  0.16261917233E+03  0.16264508968E+03  0.00000000000E+00 0. -1.
         11    1    1    2    0    0 -0.53135107922E+01 -0.13271745154E+02 -0.16899715163E+03  0.16960073666E+03  0.00000000000E+00 0.  1.
        -15    1    1    2    0    0  0.60650378998E+01  0.17332476653E+02  0.14570789034E+02  0.23508829272E+02  0.17770000000E+01 0. -1.
         15    1    1    2    0    0  0.20540418195E+01 -0.33132227052E+01 -0.81928097324E+01  0.92453443852E+01  0.17770000000E+01 0.  1.
</event>
<event>
 6    1  0.1226227E-002  0.1833974E+03  0.7546771E-02  0.1067743E+00
        -11   -1    0    0    0    0  0.00000000000E+00  0.00000000000E+00  0.18250000000E+03  0.18250000000E+03  0.00000000000E+00 0.  1.
         11   -1    0    0    0    0 -0.00000000000E+00 -0.00000000000E+00 -0.18250000000E+03  0.18250000000E+03  0.00000000000E+00 0.  1.
        -11    1    1    2    0    0  0.42485267744E+01 -0.11535140537E+01  0.14467706378E+03  0.14474402702E+03  0.00000000000E+00 0.  1.
         11    1    1    2    0    0  0.11500847579E+01  0.26012709815E+01 -0.18158032527E+03  0.18160259864E+03  0.00000000000E+00 0.  1.
        -15    1    1    2    0    0 -0.51079030343E+01 -0.29825067048E+01  0.10785167878E+02  0.12428338376E+02  0.17770000000E+01 0.  1.
         15    1    1    2    0    0 -0.29070849800E+00  0.15347497770E+01  0.26118093613E+02  0.26225035963E+02  0.17770000000E+01 0. -1.
</event>
<event>
 6    1  0.1226227E-002  0.1871757E+03  0.7546771E-02  0.1064793E+00
        -11   -1    0    0    0    0  0.00000000000E+00  0.00000000000E+00  0.18250000000E+03  0.18250000000E+03  0.00000000000E+00 0. -1.
         11   -1    0    0    0    0 -0.00000000000E+00 -0.00000000000E+00 -0.18250000000E+03  0.18250000000E+03  0.00000000000E+00 0. -1.
        -11    1    1    2    0    0  0.25091685588E+00 -0.15952961645E+02  0.17710705671E+03  0.17782426573E+03  0.00000000000E+00 0. -1.
         11    1    1    2    0    0  0.99993305066E+00 -0.29550378764E+00 -0.66603524433E+02  0.66611685578E+02  0.00000000000E+00 0. -1.
        -15    1    1    2    0    0  0.84213559677E+00  0.60097264719E+01 -0.10975519222E+03  0.10993719094E+03  0.17770000000E+01 0. -1.
         15    1    1    2    0    0 -0.20929855033E+01  0.10238738961E+02 -0.74834006166E+00  0.10626857752E+02  0.17770000000E+01 0.  1.
</event>
<event>
 6    1  0.1226227E-002  0.1825750E+03  0.7546771E-02  0.1068395E+00
        -11   -1    0    0    0    0  0.00000000000E+00  0.00000000000E+00  0.18250000000E+03  0.18250000000E+03  0.00000000000E+00 0. -1.
         11   -1    0    0    0    0 -0.00000000000E+00 -0.00000000000E+00 -0.18250000000E+03  0.18250000000E+03  0.00000000000E+00 0.  1.
        -11    1    1    2    0    0  0.90851150415E+00  0.15094477596E+00  0.56335447304E+02  0.56342974721E+02  0.00000000000E+00 0. -1.
         11    1    1    2    0    0  0.48553917765E+00  0.26200310140E+01 -0.18240557618E+03  0.18242503811E+03  0.00000000000E+00 0.  1.
        -15    1    1    2    0    0 -0.24208045546E+00 -0.36738594972E+01  0.80549470159E+02  0.80653150704E+02  0.17770000000E+01 0. -1.
         15    1    1    2    0    0 -0.11519702263E+01  0.90288370728E+00  0.45520658713E+02  0.45578836460E+02  0.17770000000E+01 0. -1.
</event>
<event>
 6    1  0.1226227E-002  0.1850928E+03  0.7546771E-02  0.1066409E+00
        -11   -1    0    0    0    0  0.00000000000E+00  0.00000000000E+00  0.18250000000E+03  0.18250000000E+03  0.00000000000E+00 0. -1.
         11   -1    0    0    0    0 -0.00000000000E+00 -0.00000000000E+00 -0.18250000000E+03  0.18250000000E+03  0.00000000000E+00 0. -1.
        -11    1    1    2    0    0  0.57671905629E+00 -0.29154256452E+01  0.17216798577E+03  0.17219363413E+03  0.00000000000E+00 0. -1.
         11    1    1    2    0    0 -0.12221644945E+01 -0.22632926416E+01 -0.17988879396E+03  0.17990718266E+03  0.00000000000E+00 0. -1.
        -15    1    1    2    0    0 -0.29584584876E+01  0.34441294986E+01  0.68960052056E+01  0.84455385513E+01  0.17770000000E+01 0.  1.
         15    1    1    2    0    0  0.36039039259E+01  0.17345887882E+01  0.82480298536E+00  0.44536446575E+01  0.17770000000E+01 0.  1.
</event>
<event>
 6    1  0.1226227E-002  0.1828880E+03  0.7546771E-02  0.1068146E+00
        -11   -1    0    0    0    0  0.00000000000E+00  0.00000000000E+00  0.18250000000E+03  0.18250000000E+03  0.00000000000E+00 0.  1.
         11   -1    0    0    0    0 -0.00000000000E+00 -0.00000000000E+00 -0.18250000000E+03  0.18250000000E+03  0.00000000000E+00 0.  1.
        -11    1    1    2    0    0 -0.53239249011E+01  0.58012805666E+00  0.18203326389E+03  0.18211202565E+03  0.00000000000E+00 0.  1.
         11    1    1    2    0    0 -0.10177006821E+01  0.12945817018E+01 -0.10495305262E+03  0.10496597025E+03  0.00000000000E+00 0.  1.
        -15    1    1    2    0    0  0.46712466842E+01 -0.93603030157E+00 -0.16056740923E+02  0.16842605391E+02  0.17770000000E+01 0. -1.
         15    1    1    2    0    0  0.16703788990E+01 -0.93867945690E+00 -0.61023470342E+02  0.61079398706E+02  0.17770000000E+01 0.  1.
</event>
<event>
 6    1  0.1226227E-002  0.1955908E+03  0.7546771E-02  0.1058487E+00
        -11   -1    0    0    0    0  0.00000000000E+00  0.00000000000E+00  0.18250000000E+03  0.18250000000E+03  0.00000000000E+00 0. -1.
         11   -1    0    0    0    0 -0.00000000000E+00 -0.00000000000E+00 -0.18250000000E+03  0.18250000000E+03  0.00000000000E+00 0.  1.
        -11    1    1    2    0    0 -0.16372561019E+02 -0.46379809737E+01  0.14848023697E+03  0.14945217427E+03  0.00000000000E+00 0. -1.
         11    1    1    2    0    0 -0.35855665315E+01  0.28485998533E+01 -0.16934731801E+03  0.16940922326E+03  0.00000000000E+00 0.  1.
        -15    1    1    2    0    0  0.23693314740E+02 -0.98480177993E+01  0.52881652200E+01  0.26257932865E+02  0.17770000000E+01 0.  1.
         15    1    1    2    0    0 -0.37351871892E+01  0.11637398920E+02  0.15578915820E+02  0.19880669608E+02  0.17770000000E+01 0. -1.
</event>
<event>
 6    1  0.1226227E-002  0.1705545E+03  0.7546771E-02  0.1078382E+00
        -11   -1    0    0    0    0  0.00000000000E+00  0.00000000000E+00  0.18250000000E+03  0.18250000000E+03  0.00000000000E+00 0. -1.
         11   -1    0    0    0    0 -0.00000000000E+00 -0.00000000000E+00 -0.18250000000E+03  0.18250000000E+03  0.00000000000E+00 0.  1.
        -11    1    1    2    0    0  0.21623899586E+01 -0.44233063765E+01  0.16773009560E+03  0.16780234366E+03  0.00000000000E+00 0. -1.
         11    1    1    2    0    0  0.16020854537E+02  0.51786337731E+01 -0.17301544395E+03  0.17383276409E+03  0.00000000000E+00 0.  1.
        -15    1    1    2    0    0 -0.10035474455E+02  0.13494741779E+01 -0.37004966933E+01  0.10926263445E+02  0.17770000000E+01 0. -1.
         15    1    1    2    0    0 -0.81477700403E+01 -0.21048015745E+01  0.89858450415E+01  0.12438628799E+02  0.17770000000E+01 0.  1.
</event>
<event>
 6    1  0.1226227E-002  0.1866197E+03  0.7546771E-02  0.1065222E+00
        -11   -1    0    0    0    0  0.00000000000E+00  0.00000000000E+00  0.18250000000E+03  0.18250000000E+03  0.00000000000E+00 0.  1.
         11   -1    0    0    0    0 -0.00000000000E+00 -0.00000000000E+00 -0.18250000000E+03  0.18250000000E+03  0.00000000000E+00 0.  1.
        -11    1    1    2    0    0 -0.25689003185E+01  0.17442133815E+01  0.17835332235E+03  0.17838034960E+03  0.00000000000E+00 0.  1.
         11    1    1    2    0    0 -0.31626349267E+01  0.17396737230E+01 -0.14745498857E+03  0.14749916060E+03  0.00000000000E+00 0.  1.
        -15    1    1    2    0    0  0.30129320994E+01 -0.78440662266E+00 -0.33804432610E+02  0.33993976623E+02  0.17770000000E+01 0.  1.
         15    1    1    2    0    0  0.27186031457E+01 -0.26994804819E+01  0.29060988252E+01  0.51265131735E+01  0.17770000000E+01 0. -1.
</event>
<event>
 6    1  0.1226227E-002  0.1827442E+03  0.7546771E-02  0.1068261E+00
        -11   -1    0    0    0    0  0.00000000000E+00  0.00000000000E+00  0.18250000000E+03  0.18250000000E+03  0.00000000000E+00 0. -1.
         11   -1    0    0    0    0 -0.00000000000E+00 -0.00000000000E+00 -0.18250000000E+03  0.18250000000E+03  0.00000000000E+00 0. -1.
        -11    1    1    2    0    0 -0.82261303375E+00 -0.52625041285E+01  0.18217799825E+03  0.18225584679E+03  0.00000000000E+00 0. -1.
         11    1    1    2    0    0  0.10940310505E+01 -0.62090747098E+00 -0.21183864344E+02  0.21221181366E+02  0.00000000000E+00 0. -1.
        -15    1    1    2    0    0 -0.48650191809E+01  0.54768596385E+01 -0.11910748939E+03  0.11934578401E+03  0.17770000000E+01 0. -1.
         15    1    1    2    0    0  0.45936011642E+01  0.40655196099E+00 -0.41886644511E+02  0.42177187834E+02  0.17770000000E+01 0.  1.
</event>
<event>
 6    1  0.1226227E-002  0.1838365E+03  0.7546771E-02  0.1067396E+00
        -11   -1    0    0    0    0  0.00000000000E+00  0.00000000000E+00  0.18250000000E+03  0.18250000000E+03  0.00000000000E+00 0.  1.
         11   -1    0    0    0    0 -0.00000000000E+00 -0.00000000000E+00 -0.18250000000E+03  0.18250000000E+03  0.00000000000E+00 0. -1.
        -11    1    1    2    0    0 -0.15908610108E+01 -0.20306243933E+01  0.18114511308E+03  0.18116347940E+03  0.00000000000E+00 0.  1.
         11    1    1    2    0    0  0.30236444745E+01  0.34908769106E+01 -0.17451689704E+03  0.17457799403E+03  0.00000000000E+00 0. -1.
        -15    1    1    2    0    0 -0.26668496802E+01 -0.23823451036E+01 -0.32836898787E+01  0.51699133097E+01  0.17770000000E+01 0. -1.
         15    1    1    2    0    0  0.12340662165E+01  0.92209258631E+00 -0.33445261616E+01  0.40886132625E+01  0.17770000000E+01 0. -1.
</event>
<event>
 6    1  0.1226227E-002  0.1826831E+03  0.7546771E-02  0.1068309E+00
        -11   -1    0    0    0    0  0.00000000000E+00  0.00000000000E+00  0.18250000000E+03  0.18250000000E+03  0.00000000000E+00 0. -1.
         11   -1    0    0    0    0 -0.00000000000E+00 -0.00000000000E+00 -0.18250000000E+03  0.18250000000E+03  0.00000000000E+00 0.  1.
        -11    1    1    2    0    0  0.24747570851E+01 -0.29215548824E-01  0.57001432005E+02  0.57055135850E+02  0.00000000000E+00 0. -1.
         11    1    1    2    0    0  0.28036177981E+01 -0.14486697256E+01 -0.18228960976E+03  0.18231692391E+03  0.00000000000E+00 0.  1.
        -15    1    1    2    0    0  0.10347434705E+01 -0.30844493117E+00  0.17010721465E+02  0.17137333692E+02  0.17770000000E+01 0. -1.
         15    1    1    2    0    0 -0.63131183537E+01  0.17863302056E+01  0.10827745629E+03  0.10849060655E+03  0.17770000000E+01 0. -1.
</event>
<event>
 6    1  0.1226227E-002  0.1865832E+03  0.7546771E-02  0.1065250E+00
        -11   -1    0    0    0    0  0.00000000000E+00  0.00000000000E+00  0.18250000000E+03  0.18250000000E+03  0.00000000000E+00 0.  1.
         11   -1    0    0    0    0 -0.00000000000E+00 -0.00000000000E+00 -0.18250000000E+03  0.18250000000E+03  0.00000000000E+00 0. -1.
        -11    1    1    2    0    0 -0.18348083863E+01  0.22108023331E+01  0.15079503447E+03  0.15082240082E+03  0.00000000000E+00 0.  1.
         11    1    1    2    0    0 -0.46657834318E+01 -0.24392222463E+01 -0.17833911104E+03  0.17841680937E+03  0.00000000000E+00 0. -1.
        -15    1    1    2    0    0 -0.20009534552E+01 -0.54850768845E+01  0.24020693443E+02  0.24783892463E+02  0.17770000000E+01 0. -1.
         15    1    1    2    0    0  0.85015452732E+01  0.57134967977E+01  0.35233831247E+01  0.10976897345E+02  0.17770000000E+01 0. -1.
</event>
<event>
 6    1  0.1226227E-002  0.1864389E+03  0.7546771E-02  0.1065362E+00
        -11   -1    0    0    0    0  0.00000000000E+00  0.00000000000E+00  0.18250000000E+03  0.18250000000E+03  0.00000000000E+00 0. -1.
         11   -1    0    0    0    0 -0.00000000000E+00 -0.00000000000E+00 -0.18250000000E+03  0.18250000000E+03  0.00000000000E+00 0.  1.
        -11    1    1    2    0    0 -0.14982566751E+01  0.28357476132E+01  0.17205756257E+03  0.17208745183E+03  0.00000000000E+00 0. -1.
         11    1    1    2    0    0  0.87576601130E+01  0.34519399762E+01 -0.17831275699E+03  0.17856105904E+03  0.00000000000E+00 0.  1.
        -15    1    1    2    0    0 -0.82984829682E+01 -0.50036479263E+01  0.30134850783E+01  0.10302433376E+02  0.17770000000E+01 0. -1.
         15    1    1    2    0    0  0.10390795302E+01 -0.12840396631E+01  0.32417093355E+01  0.40490557593E+01  0.17770000000E+01 0.  1.
</event>
<event>
 6    1  0.1226227E-002  0.1829377E+03  0.7546771E-02  0.1068107E+00
        -11   -1    0    0    0    0  0.00000000000E+00  0.00000000000E+00  0.18250000000E+03  0.18250000000E+03  0.00000000000E+00 0. -1.
         11   -1    0    0    0    0 -0.00000000000E+00 -0.00000000000E+00 -0.18250000000E+03  0.18250000000E+03  0.00000000000E+00 0. -1.
        -11    1    1    2    0    0 -0.22513534588E+01 -0.24388632003E+01  0.18203206451E+03  0.18206232217E+03  0.00000000000E+00 0. -1.
         11    1    1    2    0    0 -0.94450407673E+00 -0.25813964339E+01 -0.11457517584E+03  0.11460814375E+03  0.00000000000E+00 0. -1.
        -15    1    1    2    0    0  0.10276548654E+01 -0.31155452121E+00 -0.33568252099E+01  0.39470425931E+01  0.17770000000E+01 0.  1.
         15    1    1    2    0    0  0.21682026701E+01  0.53318141554E+01 -0.64100063456E+02  0.64382491479E+02  0.17770000000E+01 0. -1.
</event>
<event>
 6    1  0.1226227E-002  0.1841843E+03  0.7546771E-02  0.1067122E+00
        -11   -1    0    0    0    0  0.00000000000E+00  0.00000000000E+00  0.18250000000E+03  0.18250000000E+03  0.00000000000E+00 0. -1.
         11   -1    0    0    0    0 -0.00000000000E+00 -0.00000000000E+00 -0.18250000000E+03  0.18250000000E+03  0.00000000000E+00 0. -1.
        -11    1    1    2    0    0 -0.39383986372E+01  0.42174416827E+01  0.18072359403E+03  0.18081569412E+03  0.00000000000E+00 0. -1.
         11    1    1    2    0    0 -0.26378901309E+01 -0.17297338834E+01 -0.16568344001E+03  0.16571346577E+03  0.00000000000E+00 0. -1.
        -15    1    1    2    0    0  0.26856842664E+01  0.47051430464E+00 -0.12028923222E+02  0.12461420729E+02  0.17770000000E+01 0.  1.
         15    1    1    2    0    0  0.38906045017E+01 -0.29582221040E+01 -0.30112307961E+01  0.60094193823E+01  0.17770000000E+01 0. -1.
</event>
<event>
 6    1  0.1226227E-002  0.1837720E+03  0.7546771E-02  0.1067447E+00
        -11   -1    0    0    0    0  0.00000000000E+00  0.00000000000E+00  0.18250000000E+03  0.18250000000E+03  0.00000000000E+00 0. -1.
         11   -1    0    0    0    0 -0.00000000000E+00 -0.00000000000E+00 -0.18250000000E+03  0.18250000000E+03  0.00000000000E+00 0. -1.
        -11    1    1    2    0    0  0.25093186947E+01 -0.54118573184E+01  0.11730232139E+03  0.11745390365E+03  0.00000000000E+00 0. -1.
         11    1    1    2    0    0 -0.34076269517E+01 -0.30969954299E+01 -0.18116947717E+03  0.18122798558E+03  0.00000000000E+00 0. -1.
        -15    1    1    2    0    0 -0.32304369754E+01  0.74820703777E+01  0.59101200689E+02  0.59686906036E+02  0.17770000000E+01 0. -1.
         15    1    1    2    0    0  0.41287452324E+01  0.10267823706E+01  0.47659550890E+01  0.66312047277E+01  0.17770000000E+01 0.  1.
</event>
<event>
 6    1  0.1226227E-002  0.1830719E+03  0.7546771E-02  0.1068001E+00
        -11   -1    0    0    0    0  0.00000000000E+00  0.00000000000E+00  0.18250000000E+03  0.18250000000E+03  0.00000000000E+00 0.  1.
         11   -1    0    0    0    0 -0.00000000000E+00 -0.00000000000E+00 -0.18250000000E+03  0.18250000000E+03  0.00000000000E+00 0. -1.
        -11    1    1    2    0    0  0.15991221808E+01 -0.24599229176E+00  0.11106866414E+03  0.11108044769E+03  0.00000000000E+00 0.  1.
         11    1    1    2    0    0  0.27273638952E+01 -0.36665163401E+01 -0.18187073692E+03  0.18192813638E+03  0.00000000000E+00 0. -1.
        -15    1    1    2    0    0 -0.10917563398E+01 -0.27308315843E+01  0.76818570576E+01  0.84153449068E+01  0.17770000000E+01 0. -1.
         15    1    1    2    0    0 -0.32347297361E+01  0.66433402162E+01  0.63120215724E+02  0.63576071031E+02  0.17770000000E+01 0.  1.
</event>
<event>
 6    1  0.1226227E-002  0.1908856E+03  0.7546771E-02  0.1061969E+00
        -11   -1    0    0    0    0  0.00000000000E+00  0.00000000000E+00  0.18250000000E+03  0.18250000000E+03  0.00000000000E+00 0. -1.
         11   -1    0    0    0    0 -0.00000000000E+00 -0.00000000000E+00 -0.18250000000E+03  0.18250000000E+03  0.00000000000E+00 0. -1.
        -11    1    1    2    0    0  0.52909012735E+01 -0.57194765726E+01  0.17393993953E+03  0.17411435499E+03  0.00000000000E+00 0. -1.
         11    1    1    2    0    0 -0.39301122831E+01 -0.16677229231E+01 -0.13870723914E+03  0.13877292702E+03  0.00000000000E+00 0. -1.
        -15    1    1    2    0    0  0.53839233323E+01  0.38575823616E+01 -0.41519021517E+02  0.42081521465E+02  0.17770000000E+01 0. -1.
         15    1    1    2    0    0 -0.67447123227E+01  0.35296171340E+01  0.62863211259E+01  0.10031196525E+02  0.17770000000E+01 0. -1.
</event>
<event>
 6    1  0.1226227E-002  0.1868663E+03  0.7546771E-02  0.1065031E+00
        -11   -1    0    0    0    0  0.00000000000E+00  0.00000000000E+00  0.18250000000E+03  0.18250000000E+03  0.00000000000E+00 0. -1.
         11   -1    0    0    0    0 -0.00000000000E+00 -0.00000000000E+00 -0.18250000000E+03  0.18250000000E+03  0.00000000000E+00 0. -1.
        -11    1    1    2    0    0 -0.42666335785E+01  0.27350430377E+01  0.17806160205E+03  0.17813371030E+03  0.00000000000E+00 0. -1.
         11    1    1    2    0    0  0.56810146847E+01  0.10177885025E+01 -0.16932495046E+03  0.16942328255E+03  0.00000000000E+00 0. -1.
        -15    1    1    2    0    0  0.16289350377E+01 -0.54775982946E+00  0.35153428385E+01  0.42975381860E+01  0.17770000000E+01 0. -1.
         15    1    1    2    0    0 -0.30433161439E+01 -0.32050717107E+01 -0.12251994426E+02  0.13145468963E+02  0.17770000000E+01 0.  1.
</event>
<event>
 6    1  0.1226227E-002  0.1932443E+03  0.7546771E-02  0.1060210E+00
        -11   -1    0    0    0    0  0.00000000000E+00  0.00000000000E+00  0.18250000000E+03  0.18250000000E+03  0.00000000000E+00 0. -1.
         11   -1    0    0    0    0 -0.00000000000E+00 -0.00000000000E+00 -0.18250000000E+03  0.18250000000E+03  0.00000000000E+00 0. -1.
        -11    1    1    2    0    0 -0.31002183761E+01 -0.82826904204E+01  0.15666680047E+03  0.15691622186E+03  0.00000000000E+00 0. -1.
         11    1    1    2    0    0 -0.25493977234E+01 -0.15718685933E+01 -0.17172957971E+03  0.17175569495E+03  0.00000000000E+00 0. -1.
        -15    1    1    2    0    0 -0.81816821331E+01  0.48451591591E+01  0.18715029150E+02  0.21067167225E+02  0.17770000000E+01 0. -1.
         15    1    1    2    0    0  0.13831298233E+02  0.50093998546E+01 -0.36522499104E+01  0.15260915966E+02  0.17770000000E+01 0.  1.
</event>
<event>
 6    1  0.1226227E-002  0.1846989E+03  0.7546771E-02  0.1066718E+00
        -11   -1    0    0    0    0  0.00000000000E+00  0.00000000000E+00  0.18250000000E+03  0.18250000000E+03  0.00000000000E+00 0.  1.
         11   -1    0    0    0    0 -0.00000000000E+00 -0.00000000000E+00 -0.18250000000E+03  0.18250000000E+03  0.00000000000E+00 0. -1.
        -11    1    1    2    0    0 -0.56475349951E+00  0.30154103159E+01  0.18027494961E+03  0.18030105131E+03  0.00000000000E+00 0.  1.
         11    1    1    2    0    0 -0.21540190227E+01  0.28617182570E+01 -0.17265359478E+03  0.17269074388E+03  0.00000000000E+00 0. -1.
        -15    1    1    2    0    0  0.43353272200E+01 -0.37881914327E+01 -0.56741162344E+01  0.82763990042E+01  0.17770000000E+01 0. -1.
         15    1    1    2    0    0 -0.16165546977E+01 -0.20889371403E+01 -0.19472385930E+01  0.37318058102E+01  0.17770000000E+01 0.  1.
</event>
<event>
 6    1  0.1226227E-002  0.1836489E+03  0.7546771E-02  0.1067544E+00
        -11   -1    0    0    0    0  0.00000000000E+00  0.00000000000E+00  0.18250000000E+03  0.18250000000E+03  0.00000000000E+00 0.  1.
         11   -1    0    0    0    0 -0.00000000000E+00 -0.00000000000E+00 -0.18250000000E+03  0.18250000000E+03  0.00000000000E+00 0. -1.
        -11    1    1    2    0    0  0.51083533851E+00  0.31039362918E+01  0.14478555584E+03  0.14481972432E+03  0.00000000000E+00 0.  1.
         11    1    1    2    0    0 -0.57585332110E+01 -0.39715301874E+01 -0.18121612168E+03  0.18135108633E+03  0.00000000000E+00 0. -1.
        -15    1    1    2    0    0  0.83570167063E+01  0.31149537371E+01  0.22406381710E+02  0.24181528805E+02  0.17770000000E+01 0. -1.
         15    1    1    2    0    0 -0.31093188338E+01 -0.22473598415E+01  0.14024184128E+02  0.14647660541E+02  0.17770000000E+01 0.  1.
</event>
<event>
 6    1  0.1226227E-002  0.1870266E+03  0.7546771E-02  0.1064908E+00
        -11   -1    0    0    0    0  0.00000000000E+00  0.00000000000E+00  0.18250000000E+03  0.18250000000E+03  0.00000000000E+00 0. -1.
         11   -1    0    0    0    0 -0.00000000000E+00 -0.00000000000E+00 -0.18250000000E+03  0.18250000000E+03  0.00000000000E+00 0. -1.
        -11    1    1    2    0    0 -0.44506984939E+01  0.88578601292E+01  0.17769710467E+03  0.17797340085E+03  0.00000000000E+00 0. -1.
         11    1    1    2    0    0 -0.18152075575E+01  0.17910565528E+01 -0.16357471843E+03  0.16359459457E+03  0.00000000000E+00 0. -1.
        -15    1    1    2    0    0  0.35705285152E+01  0.24877157137E+01 -0.61126504302E+01  0.77110069142E+01  0.17770000000E+01 0.  1.
         15    1    1    2    0    0  0.26953775362E+01 -0.13136632396E+02 -0.80097358060E+01  0.15720997661E+02  0.17770000000E+01 0. -1.
</event>
<event>
 6    1  0.1226227E-002  0.1897865E+03  0.7546771E-02  0.1062798E+00
        -11   -1    0    0    0    0  0.00000000000E+00  0.00000000000E+00  0.18250000000E+03  0.18250000000E+03  0.00000000000E+00 0. -1.
         11   -1    0    0    0    0 -0.00000000000E+00 -0.00000000000E+00 -0.18250000000E+03  0.18250000000E+03  0.00000000000E+00 0.  1.
        -11    1    1    2    0    0 -0.58960223902E+01  0.75116649802E+00  0.17511269372E+03  0.17521353496E+03  0.00000000000E+00 0. -1.
         11    1    1    2    0    0 -0.44923797413E+01  0.31754580793E+01 -0.16516293245E+03  0.16525452873E+03  0.00000000000E+00 0.  1.
        -15    1    1    2    0    0  0.91426399734E+01  0.10644370838E+01 -0.14615354043E+02  0.17363386617E+02  0.17770000000E+01 0.  1.
         15    1    1    2    0    0  0.12457621582E+01 -0.49910616612E+01  0.46655927688E+01  0.71685496961E+01  0.17770000000E+01 0. -1.
</event>
<event>
 6    1  0.1226227E-002  0.1724269E+03  0.7546771E-02  0.1076768E+00
        -11   -1    0    0    0    0  0.00000000000E+00  0.00000000000E+00  0.18250000000E+03  0.18250000000E+03  0.00000000000E+00 0. -1.
         11   -1    0    0    0    0 -0.00000000000E+00 -0.00000000000E+00 -0.18250000000E+03  0.18250000000E+03  0.00000000000E+00 0. -1.
        -11    1    1    2    0    0  0.11809479768E+02  0.33365583810E+01  0.17160840009E+03  0.17204661989E+03  0.00000000000E+00 0. -1.
         11    1    1    2    0    0 -0.71607453850E+01  0.31403923692E+01 -0.17272429542E+03  0.17290118729E+03  0.00000000000E+00 0. -1.
        -15    1    1    2    0    0  0.41362465551E+01  0.10600052401E+01  0.58184363037E+01  0.74326359183E+01  0.17770000000E+01 0.  1.
         15    1    1    2    0    0 -0.87849809377E+01 -0.75369559904E+01 -0.47025409793E+01  0.12619556899E+02  0.17770000000E+01 0. -1.
</event>
<event>
 6    1  0.1226227E-002  0.1837358E+03  0.7546771E-02  0.1067475E+00
        -11   -1    0    0    0    0  0.00000000000E+00  0.00000000000E+00  0.18250000000E+03  0.18250000000E+03  0.00000000000E+00 0.  1.
         11   -1    0    0    0    0 -0.00000000000E+00 -0.00000000000E+00 -0.18250000000E+03  0.18250000000E+03  0.00000000000E+00 0. -1.
        -11    1    1    2    0    0  0.69762420633E+01  0.17161844040E+01  0.18112173768E+03  0.18126416387E+03  0.00000000000E+00 0.  1.
         11    1    1    2    0    0  0.11709136696E+01 -0.44274098636E+01 -0.59528770865E+02  0.59704669479E+02  0.00000000000E+00 0. -1.
        -15    1    1    2    0    0 -0.71470025923E+01 -0.98869543256E+00 -0.10529644242E+02  0.12887525037E+02  0.17770000000E+01 0.  1.
         15    1    1    2    0    0 -0.10001531406E+01  0.36999208922E+01 -0.11106332257E+03  0.11114364161E+03  0.17770000000E+01 0. -1.
</event>
<event>
 6    1  0.1226227E-002  0.1829683E+03  0.7546771E-02  0.1068083E+00
        -11   -1    0    0    0    0  0.00000000000E+00  0.00000000000E+00  0.18250000000E+03  0.18250000000E+03  0.00000000000E+00 0.  1.
         11   -1    0    0    0    0 -0.00000000000E+00 -0.00000000000E+00 -0.18250000000E+03  0.18250000000E+03  0.00000000000E+00 0. -1.
        -11    1    1    2    0    0 -0.18149635385E+01 -0.14019176445E+01  0.98724904008E+02  0.98751537391E+02  0.00000000000E+00 0.  1.
         11    1    1    2    0    0 -0.82597931437E+00  0.23995174902E+01 -0.18201400977E+03  0.18203169965E+03  0.00000000000E+00 0. -1.
        -15    1    1    2    0    0  0.61771250878E+00  0.27486197265E+01  0.71189960029E+02  0.71267837185E+02  0.17770000000E+01 0.  1.
         15    1    1    2    0    0  0.20232303440E+01 -0.37462195722E+01  0.12099145734E+02  0.12948925770E+02  0.17770000000E+01 0.  1.
</event>
<event>
 6    1  0.1226227E-002  0.1877123E+03  0.7546771E-02  0.1064380E+00
        -11   -1    0    0    0    0  0.00000000000E+00  0.00000000000E+00  0.18250000000E+03  0.18250000000E+03  0.00000000000E+00 0.  1.
         11   -1    0    0    0    0 -0.00000000000E+00 -0.00000000000E+00 -0.18250000000E+03  0.18250000000E+03  0.00000000000E+00 0.  1.
        -11    1    1    2    0    0  0.33832898899E+01  0.30677524292E+00  0.16259537799E+03  0.16263086332E+03  0.00000000000E+00 0.  1.
         11    1    1    2    0    0 -0.46344723522E+01 -0.45848047522E+00 -0.17722654431E+03  0.17728772250E+03  0.00000000000E+00 0.  1.
        -15    1    1    2    0    0  0.71360708606E+01 -0.16292956028E+01  0.16728763980E+02  0.18346318017E+02  0.17770000000E+01 0.  1.
         15    1    1    2    0    0 -0.58848883982E+01  0.17810008351E+01 -0.20975976539E+01  0.67350961650E+01  0.17770000000E+01 0.  1.
</event>
<event>
 6    1  0.1226227E-002  0.1860418E+03  0.7546771E-02  0.1065670E+00
        -11   -1    0    0    0    0  0.00000000000E+00  0.00000000000E+00  0.18250000000E+03  0.18250000000E+03  0.00000000000E+00 0. -1.
         11   -1    0    0    0    0 -0.00000000000E+00 -0.00000000000E+00 -0.18250000000E+03  0.18250000000E+03  0.00000000000E+00 0.  1.
        -11    1    1    2    0    0 -0.21773735634E+01  0.13184669431E+01  0.17059367179E+03  0.17061266121E+03  0.00000000000E+00 0. -1.
         11    1    1    2    0    0  0.12482788273E+01 -0.29452914270E+01 -0.17892962599E+03  0.17895821859E+03  0.00000000000E+00 0.  1.
        -15    1    1    2    0    0 -0.78692778740E+00  0.31537163527E+01 -0.23290596534E+01  0.43757776503E+01  0.17770000000E+01 0. -1.
         15    1    1    2    0    0  0.17160225236E+01 -0.15268918689E+01  0.10665013856E+02  0.11053342554E+02  0.17770000000E+01 0. -1.
</event>
<event>
 6    1  0.1226227E-002  0.1837081E+03  0.7546771E-02  0.1067497E+00
        -11   -1    0    0    0    0  0.00000000000E+00  0.00000000000E+00  0.18250000000E+03  0.18250000000E+03  0.00000000000E+00 0. -1.
         11   -1    0    0    0    0 -0.00000000000E+00 -0.00000000000E+00 -0.18250000000E+03  0.18250000000E+03  0.00000000000E+00 0. -1.
        -11    1    1    2    0    0 -0.16344795755E+01  0.17078659414E+01  0.16753090949E+03  0.16754758716E+03  0.00000000000E+00 0. -1.
         11    1    1    2    0    0  0.94036386305E+00  0.33779034925E+01 -0.18125801238E+03  0.18129192361E+03  0.00000000000E+00 0. -1.
        -15    1    1    2    0    0 -0.19352356201E+01 -0.14563325556E+00  0.48360737701E+01  0.55056048224E+01  0.17770000000E+01 0. -1.
         15    1    1    2    0    0  0.26293513325E+01 -0.49401361783E+01  0.88910291217E+01  0.10654884407E+02  0.17770000000E+01 0.  1.
</event>
<event>
 6    1  0.1226227E-002  0.1831435E+03  0.7546771E-02  0.1067944E+00
        -11   -1    0    0    0    0  0.00000000000E+00  0.00000000000E+00  0.18250000000E+03  0.18250000000E+03  0.00000000000E+00 0.  1.
         11   -1    0    0    0    0 -0.00000000000E+00 -0.00000000000E+00 -0.18250000000E+03  0.18250000000E+03  0.00000000000E+00 0. -1.
        -11    1    1    2    0    0 -0.59387102275E+01 -0.31556009379E+01  0.18173207467E+03  0.18185646279E+03  0.00000000000E+00 0.  1.
         11    1    1    2    0    0 -0.51931019304E+00  0.99196974790E+00 -0.37450798078E+02  0.37467532128E+02  0.00000000000E+00 0. -1.
        -15    1    1    2    0    0  0.45960812525E+01 -0.21877555924E+01 -0.13499594665E+03  0.13510356612E+03  0.17770000000E+01 0. -1.
         15    1    1    2    0    0  0.18619391681E+01  0.43513867824E+01 -0.92853299411E+01  0.10572438958E+02  0.17770000000E+01 0.  1.
</event>
<event>
 6    1  0.1226227E-002  0.1843306E+03  0.7546771E-02  0.1067007E+00
        -11   -1    0    0    0    0  0.00000000000E+00  0.00000000000E+00  0.18250000000E+03  0.18250000000E+03  0.00000000000E+00 0. -1.
         11   -1    0    0    0    0 -0.00000000000E+00 -0.00000000000E+00 -0.18250000000E+03  0.18250000000E+03  0.00000000000E+00 0.  1.
        -11    1    1    2    0    0  0.47391755000E+01  0.62574919184E+01  0.18049881009E+03  0.18066941200E+03  0.00000000000E+00 0. -1.
         11    1    1    2    0    0 -0.11555317321E+01 -0.21874046890E+01 -0.17355180561E+03  0.17356943632E+03  0.00000000000E+00 0.  1.
        -15    1    1    2    0    0 -0.70695439203E+00  0.82542865933E+00 -0.28796159721E+01  0.35540166194E+01  0.17770000000E+01 0. -1.
         15    1    1    2    0    0 -0.28766893759E+01 -0.48955158887E+01 -0.40673884986E+01  0.72071350605E+01  0.17770000000E+01 0.  1.
</event>
<event>
 6    1  0.1226227E-002  0.1829721E+03  0.7546771E-02  0.1068080E+00
        -11   -1    0    0    0    0  0.00000000000E+00  0.00000000000E+00  0.18250000000E+03  0.18250000000E+03  0.00000000000E+00 0.  1.
         11   -1    0    0    0    0 -0.00000000000E+00 -0.00000000000E+00 -0.18250000000E+03  0.18250000000E+03  0.00000000000E+00 0.  1.
        -11    1    1    2    0    0  0.36739291741E+01 -0.14052821960E+01  0.18198535447E+03  0.18202785999E+03  0.00000000000E+00 0.  1.
         11    1    1    2    0    0  0.15701130501E+01 -0.28278635939E+01 -0.13942150842E+03  0.13945902293E+03  0.00000000000E+00 0.  1.
        -15    1    1    2    0    0 -0.18820080311E+01  0.17911964471E+01 -0.71517500155E+01  0.78138080489E+01  0.17770000000E+01 0. -1.
         15    1    1    2    0    0 -0.33620341930E+01  0.24419493428E+01 -0.35412096035E+02  0.35699309028E+02  0.17770000000E+01 0.  1.
</event>
<event>
 6    1  0.1226227E-002  0.1401438E+03  0.7546771E-02  0.1108278E+00
        -11   -1    0    0    0    0  0.00000000000E+00  0.00000000000E+00  0.18250000000E+03  0.18250000000E+03  0.00000000000E+00 0. -1.
         11   -1    0    0    0    0 -0.00000000000E+00 -0.00000000000E+00 -0.18250000000E+03  0.18250000000E+03  0.00000000000E+00 0. -1.
        -11    1    1    2    0    0 -0.61178576514E+01 -0.59154455266E+01  0.11907226594E+03  0.11937598248E+03  0.00000000000E+00 0. -1.
         11    1    1    2    0    0  0.19277621547E+01 -0.95328908484E+01 -0.12532092339E+03  0.12569775700E+03  0.00000000000E+00 0. -1.
        -15    1    1    2    0    0  0.25856896885E+02  0.27951387291E+02  0.53936202253E+02  0.66046429203E+02  0.17770000000E+01 0.  1.
         15    1    1    2    0    0 -0.21666801388E+02 -0.12503050916E+02 -0.47687544798E+02  0.53879831314E+02  0.17770000000E+01 0. -1.
</event>
<event>
 6    1  0.1827367E-002  0.1854668E+03  0.7546771E-02  0.1066117E+00
        -11   -1    0    0    0    0  0.00000000000E+00  0.00000000000E+00  0.18250000000E+03  0.18250000000E+03  0.00000000000E+00 0. -1.
         11   -1    0    0    0    0 -0.00000000000E+00 -0.00000000000E+00 -0.18250000000E+03  0.18250000000E+03  0.00000000000E+00 0. -1.
        -11    1    1    2    0    0 -0.27345561387E+01  0.27091701396E-01  0.17951239665E+03  0.17953322557E+03  0.00000000000E+00 0. -1.
         11    1    1    2    0    0  0.12426824703E+01  0.72895437007E+01 -0.12815355805E+03  0.12836672523E+03  0.00000000000E+00 0. -1.
        -15    1    1    2    0    0 -0.20810209503E+01 -0.68520317532E+01 -0.52426576092E+02  0.52943220501E+02  0.17770000000E+01 0. -1.
         15    1    1    2    0    0  0.35728946187E+01 -0.46460364892E+00  0.10677374886E+01  0.41568287012E+01  0.17770000000E+01 0. -1.
</event>
<event>
 6    1  0.1226227E-002  0.1828006E+03  0.7546771E-02  0.1068216E+00
        -11   -1    0    0    0    0  0.00000000000E+00  0.00000000000E+00  0.18250000000E+03  0.18250000000E+03  0.00000000000E+00 0. -1.
         11   -1    0    0    0    0 -0.00000000000E+00 -0.00000000000E+00 -0.18250000000E+03  0.18250000000E+03  0.00000000000E+00 0.  1.
        -11    1    1    2    0    0  0.64987958836E+01  0.55336525352E+01  0.18199936304E+03  0.18219940671E+03  0.00000000000E+00 0. -1.
         11    1    1    2    0    0  0.10428110818E+01  0.14653755916E+01 -0.20555788782E+02  0.20634321724E+02  0.00000000000E+00 0.  1.
        -15    1    1    2    0    0 -0.40693422500E+01 -0.16071732268E+01 -0.12688150224E+03  0.12696935020E+03  0.17770000000E+01 0.  1.
         15    1    1    2    0    0 -0.34722647153E+01 -0.53918549000E+01 -0.34562072027E+02  0.35196921362E+02  0.17770000000E+01 0. -1.
</event>
<event>
 6    1  0.1226227E-002  0.1836954E+03  0.7546771E-02  0.1067507E+00
        -11   -1    0    0    0    0  0.00000000000E+00  0.00000000000E+00  0.18250000000E+03  0.18250000000E+03  0.00000000000E+00 0.  1.
         11   -1    0    0    0    0 -0.00000000000E+00 -0.00000000000E+00 -0.18250000000E+03  0.18250000000E+03  0.00000000000E+00 0.  1.
        -11    1    1    2    0    0 -0.36045215383E+01  0.12726300233E+01  0.17078860225E+03  0.17083137540E+03  0.00000000000E+00 0.  1.
         11    1    1    2    0    0  0.19082176883E+01  0.17377155294E+01 -0.18128627765E+03  0.18130464808E+03  0.00000000000E+00 0.  1.
        -15    1    1    2    0    0  0.13062766010E+01 -0.15512739766E+01  0.69059953177E+00  0.27834270642E+01  0.17770000000E+01 0. -1.
         15    1    1    2    0    0  0.39002724903E+00 -0.14590715761E+01  0.98070758742E+01  0.10080549455E+02  0.17770000000E+01 0.  1.
</event>
<event>
 6    1  0.1226227E-002  0.1838150E+03  0.7546771E-02  0.1067413E+00
        -11   -1    0    0    0    0  0.00000000000E+00  0.00000000000E+00  0.18250000000E+03  0.18250000000E+03  0.00000000000E+00 0.  1.
         11   -1    0    0    0    0 -0.00000000000E+00 -0.00000000000E+00 -0.18250000000E+03  0.18250000000E+03  0.00000000000E+00 0.  1.
        -11    1    1    2    0    0 -0.19861734675E+01  0.10489982336E+01  0.76456137327E+02  0.76489124831E+02  0.00000000000E+00 0.  1.
         11    1    1    2    0    0  0.12075520492E+02  0.17220429800E+01 -0.18077395849E+03  0.18118500958E+03  0.00000000000E+00 0.  1.
        -15    1    1    2    0    0 -0.74395961540E+01 -0.28825895133E+01  0.98316208903E+01  0.12785750333E+02  0.17770000000E+01 0. -1.
         15    1    1    2    0    0 -0.26497508707E+01  0.11154829971E+00  0.94486200272E+02  0.94540115261E+02  0.17770000000E+01 0.  1.
</event>
<event>
 6    1  0.1226227E-002  0.1836147E+03  0.7546771E-02  0.1067571E+00
        -11   -1    0    0    0    0  0.00000000000E+00  0.00000000000E+00  0.18250000000E+03  0.18250000000E+03  0.00000000000E+00 0. -1.
         11   -1    0    0    0    0 -0.00000000000E+00 -0.00000000000E+00 -0.18250000000E+03  0.18250000000E+03  0.00000000000E+00 0.  1.
        -11    1    1    2    0    0 -0.25629442122E+01 -0.24410007375E+01  0.18135072684E+03  0.18138526206E+03  0.00000000000E+00 0. -1.
         11    1    1    2    0    0 -0.24158635323E+01  0.52627910116E+00 -0.15224166817E+03  0.15226174468E+03  0.00000000000E+00 0.  1.
        -15    1    1    2    0    0  0.14575827334E+01  0.15719453016E+01 -0.98792624437E+00  0.29545366338E+01  0.17770000000E+01 0. -1.
         15    1    1    2    0    0  0.35212250111E+01  0.34277633472E+00 -0.28121132421E+02  0.28398456627E+02  0.17770000000E+01 0. -1.
</event>
<event>
 6    1  0.2851143E-002  0.2023402E+03  0.7546771E-02  0.1053675E+00
        -11   -1    0    0    0    0  0.00000000000E+00  0.00000000000E+00  0.18250000000E+03  0.18250000000E+03  0.00000000000E+00 0.  1.
         11   -1    0    0    0    0 -0.00000000000E+00 -0.00000000000E+00 -0.18250000000E+03  0.18250000000E+03  0.00000000000E+00 0.  1.
        -11    1    1    2    0    0 -0.37788742210E+01  0.47436336326E-01  0.16261587124E+03  0.16265977904E+03  0.00000000000E+00 0.  1.
         11    1    1    2    0    0  0.28992142532E+01  0.30726074270E+01 -0.41140416175E+02  0.41356743135E+02  0.00000000000E+00 0.  1.
        -15    1    1    2    0    0  0.38091867405E+01  0.14988465099E+01  0.19442582357E+02  0.19948137311E+02  0.17770000000E+01 0.  1.
         15    1    1    2    0    0 -0.29295267727E+01 -0.46188902732E+01 -0.14091803742E+03  0.14103534051E+03  0.17770000000E+01 0.  1.
</event>
<event>
 6    1  0.1226227E-002  0.1843854E+03  0.7546771E-02  0.1066964E+00
        -11   -1    0    0    0    0  0.00000000000E+00  0.00000000000E+00  0.18250000000E+03  0.18250000000E+03  0.00000000000E+00 0.  1.
         11   -1    0    0    0    0 -0.00000000000E+00 -0.00000000000E+00 -0.18250000000E+03  0.18250000000E+03  0.00000000000E+00 0.  1.
        -11    1    1    2    0    0 -0.31200481813E+01  0.11892883479E+01  0.18058368497E+03  0.18061455198E+03  0.00000000000E+00 0.  1.
         11    1    1    2    0    0 -0.24149743749E+01 -0.16400810008E+01 -0.17488832596E+03  0.17491268829E+03  0.00000000000E+00 0.  1.
        -15    1    1    2    0    0  0.42361753460E+01 -0.39661735892E+00 -0.18635139834E+01  0.49732182998E+01  0.17770000000E+01 0.  1.
         15    1    1    2    0    0  0.12988472103E+01  0.84741001180E+00 -0.38318450261E+01  0.44995414330E+01  0.17770000000E+01 0. -1.
</event>
<event>
 6    1  0.1226227E-002  0.1839153E+03  0.7546771E-02  0.1067334E+00
        -11   -1    0    0    0    0  0.00000000000E+00  0.00000000000E+00  0.18250000000E+03  0.18250000000E+03  0.00000000000E+00 0. -1.
         11   -1    0    0    0    0 -0.00000000000E+00 -0.00000000000E+00 -0.18250000000E+03  0.18250000000E+03  0.00000000000E+00 0. -1.
        -11    1    1    2    0    0 -0.33277626893E+01 -0.51284591557E+01  0.18098143938E+03  0.18108466665E+03  0.00000000000E+00 0. -1.
         11    1    1    2    0    0  0.47104345841E+01 -0.18949676727E+01 -0.15611639219E+03  0.15619893408E+03  0.00000000000E+00 0. -1.
        -15    1    1    2    0    0 -0.14849400407E+01  0.30369636377E+01 -0.22358280085E+02  0.22682120986E+02  0.17770000000E+01 0. -1.
         15    1    1    2    0    0  0.10226814588E+00  0.39864631907E+01 -0.25067670980E+01  0.50342782827E+01  0.17770000000E+01 0.  1.
</event>
<event>
 6    1  0.1226227E-002  0.1827811E+03  0.7546771E-02  0.1068231E+00
        -11   -1    0    0    0    0  0.00000000000E+00  0.00000000000E+00  0.18250000000E+03  0.18250000000E+03  0.00000000000E+00 0. -1.
         11   -1    0    0    0    0 -0.00000000000E+00 -0.00000000000E+00 -0.18250000000E+03  0.18250000000E+03  0.00000000000E+00 0. -1.
        -11    1    1    2    0    0  0.24837752869E+01  0.39679349570E+00  0.18220151806E+03  0.18221887874E+03  0.00000000000E+00 0. -1.
         11    1    1    2    0    0 -0.46959565422E+00  0.34458543413E+01 -0.13958278040E+03  0.13962609719E+03  0.00000000000E+00 0. -1.
        -15    1    1    2    0    0 -0.63955466721E+00  0.42688419843E+00 -0.10709880179E+02  0.10883497725E+02  0.17770000000E+01 0.  1.
         15    1    1    2    0    0 -0.13746249654E+01 -0.42695320354E+01 -0.31908857483E+02  0.32271526342E+02  0.17770000000E+01 0.  1.
</event>
<event>
 6    1  0.1226227E-002  0.1828592E+03  0.7546771E-02  0.1068169E+00
        -11   -1    0    0    0    0  0.00000000000E+00  0.00000000000E+00  0.18250000000E+03  0.18250000000E+03  0.00000000000E+00 0. -1.
         11   -1    0    0    0    0 -0.00000000000E+00 -0.00000000000E+00 -0.18250000000E+03  0.18250000000E+03  0.00000000000E+00 0.  1.
        -11    1    1    2    0    0 -0.40419787038E+01 -0.11308178562E+01  0.15973618334E+03  0.15979131582E+03  0.00000000000E+00 0. -1.
         11    1    1    2    0    0  0.23642148164E+01  0.24676305403E+01 -0.18210871152E+03  0.18214077392E+03  0.00000000000E+00 0.  1.
        -15    1    1    2    0    0 -0.10084208184E+01 -0.13853189490E+00  0.60386076647E+01  0.63764108369E+01  0.17770000000E+01 0.  1.
         15    1    1    2    0    0  0.26861847058E+01 -0.11982807892E+01  0.16333920507E+02  0.16691499431E+02  0.17770000000E+01 0. -1.
</event>
<event>
 6    1  0.1226227E-002  0.1835040E+03  0.7546771E-02  0.1067658E+00
        -11   -1    0    0    0    0  0.00000000000E+00  0.00000000000E+00  0.18250000000E+03  0.18250000000E+03  0.00000000000E+00 0. -1.
         11   -1    0    0    0    0 -0.00000000000E+00 -0.00000000000E+00 -0.18250000000E+03  0.18250000000E+03  0.00000000000E+00 0. -1.
        -11    1    1    2    0    0 -0.23634057905E+00  0.35285720297E+01  0.16294372623E+03  0.16298209901E+03  0.00000000000E+00 0. -1.
         11    1    1    2    0    0  0.66945528058E+00 -0.65993988555E+01 -0.18137469475E+03  0.18149595073E+03  0.00000000000E+00 0. -1.
        -15    1    1    2    0    0  0.72084006076E+00 -0.59927179640E+00  0.14816485020E+02  0.14952079936E+02  0.17770000000E+01 0. -1.
         15    1    1    2    0    0 -0.11539547623E+01  0.36700986221E+01  0.36144834979E+01  0.55698703258E+01  0.17770000000E+01 0.  1.
</event>
<event>
 6    1  0.1226227E-002  0.1900770E+03  0.7546771E-02  0.1062579E+00
        -11   -1    0    0    0    0  0.00000000000E+00  0.00000000000E+00  0.18250000000E+03  0.18250000000E+03  0.00000000000E+00 0.  1.
         11   -1    0    0    0    0 -0.00000000000E+00 -0.00000000000E+00 -0.18250000000E+03  0.18250000000E+03  0.00000000000E+00 0.  1.
        -11    1    1    2    0    0 -0.15130997457E+02  0.29045055763E+00  0.17426712867E+03  0.17492302187E+03  0.00000000000E+00 0.  1.
         11    1    1    2    0    0  0.49523050613E+01 -0.36901360024E+01 -0.15632427482E+03  0.15644622503E+03  0.00000000000E+00 0.  1.
        -15    1    1    2    0    0  0.11273873986E+02 -0.84095960500E+01 -0.30348236214E+01  0.14497911014E+02  0.17770000000E+01 0. -1.
         15    1    1    2    0    0 -0.10951815897E+01  0.11809281495E+02 -0.14908030223E+02  0.19132842085E+02  0.17770000000E+01 0.  1.
</event>
<event>
 6    1  0.1226227E-002  0.1830434E+03  0.7546771E-02  0.1068023E+00
        -11   -1    0    0    0    0  0.00000000000E+00  0.00000000000E+00  0.18250000000E+03  0.18250000000E+03  0.00000000000E+00 0. -1.
         11   -1    0    0    0    0 -0.00000000000E+00 -0.00000000000E+00 -0.18250000000E+03  0.18250000000E+03  0.00000000000E+00 0.  1.
        -11    1    1    2    0    0 -0.11370784869E+01 -0.23056285646E+01  0.12796268330E+03  0.12798850412E+03  0.00000000000E+00 0. -1.
         11    1    1    2    0    0  0.65566400814E+01  0.18880279793E+01 -0.18182867469E+03  0.18195664626E+03  0.00000000000E+00 0.  1.
        -15    1    1    2    0    0 -0.77497907717E+01 -0.11743640907E+01  0.37158213434E+02  0.38017482066E+02  0.17770000000E+01 0. -1.
         15    1    1    2    0    0  0.23302291772E+01  0.15919646760E+01  0.16707777959E+02  0.17037367545E+02  0.17770000000E+01 0. -1.
</event>
<event>
 6    1  0.1226227E-002  0.1825930E+03  0.7546771E-02  0.1068381E+00
        -11   -1    0    0    0    0  0.00000000000E+00  0.00000000000E+00  0.18250000000E+03  0.18250000000E+03  0.00000000000E+00 0. -1.
         11   -1    0    0    0    0 -0.00000000000E+00 -0.00000000000E+00 -0.18250000000E+03  0.18250000000E+03  0.00000000000E+00 0. -1.
        -11    1    1    2    0    0 -0.34800146539E+01 -0.18483660256E+01  0.18236440485E+03  0.18240697113E+03  0.00000000000E+00 0. -1.
         11    1    1    2    0    0  0.39097146493E+00 -0.75392717890E+00 -0.52812999552E+02  0.52819827589E+02  0.00000000000E+00 0. -1.
        -15    1    1    2    0    0 -0.11448844783E+01  0.11906944589E+01 -0.26809864190E+02  0.26919417911E+02  0.17770000000E+01 0. -1.
         15    1    1    2    0    0  0.42339276673E+01  0.14115987456E+01 -0.10274154111E+03  0.10285378337E+03  0.17770000000E+01 0.  1.
</event>
<event>
 6    1  0.2583450E-002  0.2096557E+03  0.7546771E-02  0.1048684E+00
        -11   -1    0    0    0    0  0.00000000000E+00  0.00000000000E+00  0.18250000000E+03  0.18250000000E+03  0.00000000000E+00 0. -1.
         11   -1    0    0    0    0 -0.00000000000E+00 -0.00000000000E+00 -0.18250000000E+03  0.18250000000E+03  0.00000000000E+00 0. -1.
        -11    1    1    2    0    0 -0.13356488667E+01  0.18962205377E+01  0.13779805080E+03  0.13781756932E+03  0.00000000000E+00 0. -1.
         11    1    1    2    0    0  0.43105682637E+01  0.85362800616E+01 -0.15504967022E+03  0.15534429282E+03  0.00000000000E+00 0. -1.
        -15    1    1    2    0    0 -0.16789125846E+01 -0.10523442053E+01  0.43652829215E+02  0.43733893072E+02  0.17770000000E+01 0. -1.
         15    1    1    2    0    0 -0.12960068125E+01 -0.93801563940E+01 -0.26401209794E+02  0.28104244790E+02  0.17770000000E+01 0.  1.
</event>
<event>
 6    1  0.1226227E-002  0.2221765E+03  0.7546771E-02  0.1040636E+00
        -11   -1    0    0    0    0  0.00000000000E+00  0.00000000000E+00  0.18250000000E+03  0.18250000000E+03  0.00000000000E+00 0.  1.
         11   -1    0    0    0    0 -0.00000000000E+00 -0.00000000000E+00 -0.18250000000E+03  0.18250000000E+03  0.00000000000E+00 0. -1.
        -11    1    1    2    0    0  0.34158551759E+01 -0.12118320814E+01  0.13323371952E+03  0.13328300950E+03  0.00000000000E+00 0.  1.
         11    1    1    2    0    0 -0.14108795864E+01  0.34597317636E+01 -0.14277464724E+03  0.14282352824E+03  0.00000000000E+00 0. -1.
        -15    1    1    2    0    0 -0.45920214873E+01  0.32016190267E+01  0.48790780868E+02  0.49143006140E+02  0.17770000000E+01 0. -1.
         15    1    1    2    0    0  0.25870458977E+01 -0.54495187089E+01 -0.39249853153E+02  0.39750456125E+02  0.17770000000E+01 0.  1.
</event>
<event>
 6    1  0.1226227E-002  0.1758389E+03  0.7546771E-02  0.1073884E+00
        -11   -1    0    0    0    0  0.00000000000E+00  0.00000000000E+00  0.18250000000E+03  0.18250000000E+03  0.00000000000E+00 0. -1.
         11   -1    0    0    0    0 -0.00000000000E+00 -0.00000000000E+00 -0.18250000000E+03  0.18250000000E+03  0.00000000000E+00 0. -1.
        -11    1    1    2    0    0 -0.23252578719E+01  0.67307978968E+01  0.17596159359E+03  0.17610562990E+03  0.00000000000E+00 0. -1.
         11    1    1    2    0    0 -0.22877731370E+01  0.80652332442E+00 -0.17566662994E+03  0.17568337787E+03  0.00000000000E+00 0. -1.
        -15    1    1    2    0    0  0.50347066529E+01 -0.25322147037E+01 -0.36207969885E+01  0.69302440230E+01  0.17770000000E+01 0. -1.
         15    1    1    2    0    0 -0.42167564403E+00 -0.50051065175E+01  0.33258333404E+01  0.62807482045E+01  0.17770000000E+01 0.  1.
</event>
<event>
 6    1  0.1226227E-002  0.1762624E+03  0.7546771E-02  0.1073531E+00
        -11   -1    0    0    0    0  0.00000000000E+00  0.00000000000E+00  0.18250000000E+03  0.18250000000E+03  0.00000000000E+00 0. -1.
         11   -1    0    0    0    0 -0.00000000000E+00 -0.00000000000E+00 -0.18250000000E+03  0.18250000000E+03  0.00000000000E+00 0.  1.
        -11    1    1    2    0    0 -0.11677903011E+01  0.27118643459E+01  0.17522268075E+03  0.17524755574E+03  0.00000000000E+00 0. -1.
         11    1    1    2    0    0  0.63878207890E+01 -0.11840306915E+01 -0.17720575951E+03  0.17732480759E+03  0.00000000000E+00 0.  1.
        -15    1    1    2    0    0 -0.64524064432E+01  0.21419931758E+01 -0.11755633705E+01  0.71247008296E+01  0.17770000000E+01 0. -1.
         15    1    1    2    0    0  0.12323759553E+01 -0.36698268302E+01  0.31586421325E+01  0.53029358454E+01  0.17770000000E+01 0. -1.
</event>
<event>
 6    1  0.1255115E-002  0.1253144E+03  0.7546771E-02  0.1126073E+00
        -11   -1    0    0    0    0  0.00000000000E+00  0.00000000000E+00  0.18250000000E+03  0.18250000000E+03  0.00000000000E+00 0. -1.
         11   -1    0    0    0    0 -0.00000000000E+00 -0.00000000000E+00 -0.18250000000E+03  0.18250000000E+03  0.00000000000E+00 0. -1.
        -11    1    1    2    0    0  0.30379537227E+01  0.47498006254E+01  0.68834523242E+02  0.69065051646E+02  0.00000000000E+00 0. -1.
         11    1    1    2    0    0  0.76357326502E+01 -0.18085860373E+02 -0.38088618959E+02  0.42850270159E+02  0.00000000000E+00 0. -1.
        -15    1    1    2    0    0  0.26035335225E+01 -0.97434670893E+01  0.10967428447E+03  0.11015135015E+03  0.17770000000E+01 0.  1.
         15    1    1    2    0    0 -0.13277219895E+02  0.23079526837E+02 -0.14042018875E+03  0.14293332804E+03  0.17770000000E+01 0. -1.
</event>
<event>
 6    1  0.1226227E-002  0.1828862E+03  0.7546771E-02  0.1068148E+00
        -11   -1    0    0    0    0  0.00000000000E+00  0.00000000000E+00  0.18250000000E+03  0.18250000000E+03  0.00000000000E+00 0.  1.
         11   -1    0    0    0    0 -0.00000000000E+00 -0.00000000000E+00 -0.18250000000E+03  0.18250000000E+03  0.00000000000E+00 0.  1.
        -11    1    1    2    0    0  0.76383323404E+00  0.24470265033E+01  0.18209572254E+03  0.18211376540E+03  0.00000000000E+00 0.  1.
         11    1    1    2    0    0  0.66688976612E+00 -0.19221704094E+01 -0.14178617923E+03  0.14180077610E+03  0.00000000000E+00 0.  1.
        -15    1    1    2    0    0  0.22601026122E+00 -0.18706860907E+01 -0.46887420313E+01  0.53565453348E+01  0.17770000000E+01 0. -1.
         15    1    1    2    0    0 -0.16567332614E+01  0.13458299968E+01 -0.35620801281E+02  0.35728913171E+02  0.17770000000E+01 0.  1.
</event>
<event>
 6    1  0.1226227E-002  0.1826606E+03  0.7546771E-02  0.1068327E+00
        -11   -1    0    0    0    0  0.00000000000E+00  0.00000000000E+00  0.18250000000E+03  0.18250000000E+03  0.00000000000E+00 0.  1.
         11   -1    0    0    0    0 -0.00000000000E+00 -0.00000000000E+00 -0.18250000000E+03  0.18250000000E+03  0.00000000000E+00 0. -1.
        -11    1    1    2    0    0  0.76966085382E+01  0.40582161133E+00  0.18217645231E+03  0.18233941497E+03  0.00000000000E+00 0.  1.
         11    1    1    2    0    0  0.42491955848E+00  0.43290846609E+00 -0.20167043886E+02  0.20176164786E+02  0.00000000000E+00 0. -1.
        -15    1    1    2    0    0  0.20754301668E+00  0.18479104278E+01 -0.16307160201E+02  0.16508756764E+02  0.17770000000E+01 0. -1.
         15    1    1    2    0    0 -0.83290711134E+01 -0.26866405052E+01 -0.14570224822E+03  0.14597566348E+03  0.17770000000E+01 0. -1.
</event>
<event>
 6    1  0.1226227E-002  0.1826438E+03  0.7546771E-02  0.1068340E+00
        -11   -1    0    0    0    0  0.00000000000E+00  0.00000000000E+00  0.18250000000E+03  0.18250000000E+03  0.00000000000E+00 0. -1.
         11   -1    0    0    0    0 -0.00000000000E+00 -0.00000000000E+00 -0.18250000000E+03  0.18250000000E+03  0.00000000000E+00 0. -1.
        -11    1    1    2    0    0  0.31537028195E+01  0.24278602669E+01  0.18231275464E+03  0.18235619225E+03  0.00000000000E+00 0. -1.
         11    1    1    2    0    0  0.13865473140E+01 -0.29546311372E+01 -0.94925706593E+02  0.94981798945E+02  0.00000000000E+00 0. -1.
        -15    1    1    2    0    0 -0.21893146528E+01  0.21700075669E+01 -0.43107303860E+02  0.43253894699E+02  0.17770000000E+01 0.  1.
         15    1    1    2    0    0 -0.23509354807E+01 -0.16432366965E+01 -0.44279744186E+02  0.44408114109E+02  0.17770000000E+01 0. -1.
</event>
<event>
 6    1  0.1226227E-002  0.1840288E+03  0.7546771E-02  0.1067244E+00
        -11   -1    0    0    0    0  0.00000000000E+00  0.00000000000E+00  0.18250000000E+03  0.18250000000E+03  0.00000000000E+00 0.  1.
         11   -1    0    0    0    0 -0.00000000000E+00 -0.00000000000E+00 -0.18250000000E+03  0.18250000000E+03  0.00000000000E+00 0. -1.
        -11    1    1    2    0    0  0.14305859698E+01 -0.21209176824E+01  0.18095308984E+03  0.18097117337E+03  0.00000000000E+00 0.  1.
         11    1    1    2    0    0 -0.21415238160E+01  0.28562378618E+01 -0.15991775468E+03  0.15995759588E+03  0.00000000000E+00 0. -1.
        -15    1    1    2    0    0 -0.23679592133E+00  0.53292827400E+00  0.85179317441E+00  0.20550828367E+01  0.17770000000E+01 0.  1.
         15    1    1    2    0    0  0.94773376757E+00 -0.12682484534E+01 -0.21887128330E+02  0.22016147914E+02  0.17770000000E+01 0. -1.
</event>
<event>
 6    1  0.1226227E-002  0.1828506E+03  0.7546771E-02  0.1068176E+00
        -11   -1    0    0    0    0  0.00000000000E+00  0.00000000000E+00  0.18250000000E+03  0.18250000000E+03  0.00000000000E+00 0. -1.
         11   -1    0    0    0    0 -0.00000000000E+00 -0.00000000000E+00 -0.18250000000E+03  0.18250000000E+03  0.00000000000E+00 0.  1.
        -11    1    1    2    0    0  0.28822978652E+00  0.59232413314E+01  0.18205287576E+03  0.18214943710E+03  0.00000000000E+00 0. -1.
         11    1    1    2    0    0  0.22320363729E+00  0.13128695515E+01 -0.66092211701E+02  0.66105626795E+02  0.00000000000E+00 0.  1.
        -15    1    1    2    0    0  0.93988703847E+00 -0.64401632014E+01 -0.29970086665E+02  0.30720073460E+02  0.17770000000E+01 0.  1.
         15    1    1    2    0    0 -0.14513204623E+01 -0.79594768145E+00 -0.85990577392E+02  0.86024862644E+02  0.17770000000E+01 0. -1.
</event>
<event>
 6    1  0.1226227E-002  0.1896928E+03  0.7546771E-02  0.1062869E+00
        -11   -1    0    0    0    0  0.00000000000E+00  0.00000000000E+00  0.18250000000E+03  0.18250000000E+03  0.00000000000E+00 0.  1.
         11   -1    0    0    0    0 -0.00000000000E+00 -0.00000000000E+00 -0.18250000000E+03  0.18250000000E+03  0.00000000000E+00 0.  1.
        -11    1    1    2    0    0  0.41109790742E+01  0.12793002714E+02  0.16504302919E+03  0.16558913778E+03  0.00000000000E+00 0.  1.
         11    1    1    2    0    0 -0.44749330802E+01 -0.54771789253E-02 -0.17525005839E+03  0.17530718189E+03  0.00000000000E+00 0.  1.
        -15    1    1    2    0    0 -0.15422497578E+01 -0.68009414324E+01 -0.41672940970E+01  0.83159730502E+01  0.17770000000E+01 0.  1.
         15    1    1    2    0    0  0.19062037637E+01 -0.59865841023E+01  0.14374323295E+02  0.15787707281E+02  0.17770000000E+01 0. -1.
</event>
<event>
 6    1  0.1226227E-002  0.1862943E+03  0.7546771E-02  0.1065474E+00
        -11   -1    0    0    0    0  0.00000000000E+00  0.00000000000E+00  0.18250000000E+03  0.18250000000E+03  0.00000000000E+00 0. -1.
         11   -1    0    0    0    0 -0.00000000000E+00 -0.00000000000E+00 -0.18250000000E+03  0.18250000000E+03  0.00000000000E+00 0.  1.
        -11    1    1    2    0    0 -0.12790220582E+01  0.34708929967E+01  0.13564917076E+03  0.13569959662E+03  0.00000000000E+00 0. -1.
         11    1    1    2    0    0 -0.66112074044E+00  0.56807386562E+01 -0.17861413278E+03  0.17870566947E+03  0.00000000000E+00 0.  1.
        -15    1    1    2    0    0  0.30053178341E+01 -0.63771073534E+01  0.45642292018E+02  0.46217702053E+02  0.17770000000E+01 0. -1.
         15    1    1    2    0    0 -0.10651750354E+01 -0.27745242995E+01 -0.26773300005E+01  0.43770318569E+01  0.17770000000E+01 0.  1.
</event>
<event>
 6    1  0.1226227E-002  0.1837092E+03  0.7546771E-02  0.1067496E+00
        -11   -1    0    0    0    0  0.00000000000E+00  0.00000000000E+00  0.18250000000E+03  0.18250000000E+03  0.00000000000E+00 0. -1.
         11   -1    0    0    0    0 -0.00000000000E+00 -0.00000000000E+00 -0.18250000000E+03  0.18250000000E+03  0.00000000000E+00 0.  1.
        -11    1    1    2    0    0 -0.31134879783E+01  0.14760777925E+01  0.18125802367E+03  0.18129077130E+03  0.00000000000E+00 0. -1.
         11    1    1    2    0    0 -0.21319020211E+01 -0.28166975438E+01 -0.16788978223E+03  0.16792694176E+03  0.00000000000E+00 0.  1.
        -15    1    1    2    0    0  0.34808152572E+01  0.13693383806E+00 -0.26849370083E+01  0.47435684320E+01  0.17770000000E+01 0.  1.
         15    1    1    2    0    0  0.17645747422E+01  0.12036859133E+01 -0.10683304428E+02  0.11038718508E+02  0.17770000000E+01 0. -1.
</event>
<event>
 6    1  0.1226227E-002  0.1841510E+03  0.7546771E-02  0.1067148E+00
        -11   -1    0    0    0    0  0.00000000000E+00  0.00000000000E+00  0.18250000000E+03  0.18250000000E+03  0.00000000000E+00 0. -1.
         11   -1    0    0    0    0 -0.00000000000E+00 -0.00000000000E+00 -0.18250000000E+03  0.18250000000E+03  0.00000000000E+00 0.  1.
        -11    1    1    2    0    0 -0.43451046464E+01 -0.17462721051E+00  0.16816853665E+03  0.16822475189E+03  0.00000000000E+00 0. -1.
         11    1    1    2    0    0  0.22919923360E+01 -0.30497952167E+01 -0.18080870956E+03  0.18084895337E+03  0.00000000000E+00 0.  1.
        -15    1    1    2    0    0  0.11947315828E+01 -0.26990035740E+01  0.44739224878E+01  0.56467437763E+01  0.17770000000E+01 0. -1.
         15    1    1    2    0    0  0.85838072763E+00  0.59234260013E+01  0.81662504298E+01  0.10279550970E+02  0.17770000000E+01 0. -1.
</event>
<event>
 6    1  0.1226227E-002  0.1669986E+03  0.7546771E-02  0.1081510E+00
        -11   -1    0    0    0    0  0.00000000000E+00  0.00000000000E+00  0.18250000000E+03  0.18250000000E+03  0.00000000000E+00 0. -1.
         11   -1    0    0    0    0 -0.00000000000E+00 -0.00000000000E+00 -0.18250000000E+03  0.18250000000E+03  0.00000000000E+00 0.  1.
        -11    1    1    2    0    0 -0.95927009475E+01 -0.89235944086E+00  0.16564816792E+03  0.16592809212E+03  0.00000000000E+00 0. -1.
         11    1    1    2    0    0  0.67910414925E+01 -0.25810696274E+01 -0.16794972883E+03  0.16810678623E+03  0.00000000000E+00 0.  1.
        -15    1    1    2    0    0  0.11063466006E+02  0.74015257408E+01 -0.91132457459E+01  0.16229351200E+02  0.17770000000E+01 0.  1.
         15    1    1    2    0    0 -0.82618065510E+01 -0.39280966725E+01  0.11414806649E+02  0.14735770451E+02  0.17770000000E+01 0. -1.
</event>
<event>
 6    1  0.1226227E-002  0.1858399E+03  0.7546771E-02  0.1065827E+00
        -11   -1    0    0    0    0  0.00000000000E+00  0.00000000000E+00  0.18250000000E+03  0.18250000000E+03  0.00000000000E+00 0. -1.
         11   -1    0    0    0    0 -0.00000000000E+00 -0.00000000000E+00 -0.18250000000E+03  0.18250000000E+03  0.00000000000E+00 0. -1.
        -11    1    1    2    0    0  0.81557830496E-01 -0.60811975202E+01  0.17905686852E+03  0.17916012330E+03  0.00000000000E+00 0. -1.
         11    1    1    2    0    0  0.74087514425E+00 -0.21658260086E+01 -0.15301107922E+03  0.15302820022E+03  0.00000000000E+00 0. -1.
        -15    1    1    2    0    0 -0.14080257882E+01 -0.19160765992E+01 -0.21184492895E+02  0.21391455172E+02  0.17770000000E+01 0. -1.
         15    1    1    2    0    0  0.58559281345E+00  0.10163100128E+02 -0.48612964089E+01  0.11420221317E+02  0.17770000000E+01 0.  1.
</event>
<event>
 6    1  0.1226227E-002  0.1859269E+03  0.7546771E-02  0.1065759E+00
        -11   -1    0    0    0    0  0.00000000000E+00  0.00000000000E+00  0.18250000000E+03  0.18250000000E+03  0.00000000000E+00 0.  1.
         11   -1    0    0    0    0 -0.00000000000E+00 -0.00000000000E+00 -0.18250000000E+03  0.18250000000E+03  0.00000000000E+00 0.  1.
        -11    1    1    2    0    0 -0.17148600454E-01  0.51318922076E+01  0.17899954420E+03  0.17907309523E+03  0.00000000000E+00 0.  1.
         11    1    1    2    0    0  0.22543562047E+01  0.19105482708E+01 -0.17146045869E+03  0.17148592132E+03  0.00000000000E+00 0.  1.
        -15    1    1    2    0    0 -0.12247743084E+01 -0.61587793433E+01  0.55648088189E-01  0.65262133597E+01  0.17770000000E+01 0. -1.
         15    1    1    2    0    0 -0.10124332959E+01 -0.88366113506E+00 -0.75947335951E+01  0.79147700889E+01  0.17770000000E+01 0.  1.
</event>
<event>
 6    1  0.1226227E-002  0.1830643E+03  0.7546771E-02  0.1068007E+00
        -11   -1    0    0    0    0  0.00000000000E+00  0.00000000000E+00  0.18250000000E+03  0.18250000000E+03  0.00000000000E+00 0.  1.
         11   -1    0    0    0    0 -0.00000000000E+00 -0.00000000000E+00 -0.18250000000E+03  0.18250000000E+03  0.00000000000E+00 0. -1.
        -11    1    1    2    0    0 -0.33893048167E+01 -0.36858860690E+00  0.18190374568E+03  0.18193569176E+03  0.00000000000E+00 0.  1.
         11    1    1    2    0    0 -0.18545776199E+01  0.64778377795E+00 -0.10108259757E+03  0.10110168452E+03  0.00000000000E+00 0. -1.
        -15    1    1    2    0    0 -0.10846901024E+01  0.20111614124E+01 -0.58717604317E+02  0.58788911442E+02  0.17770000000E+01 0. -1.
         15    1    1    2    0    0  0.63285725389E+01 -0.22903565834E+01 -0.22103543788E+02  0.23173712276E+02  0.17770000000E+01 0.  1.
</event>
<event>
 6    1  0.1226227E-002  0.1878749E+03  0.7546771E-02  0.1064255E+00
        -11   -1    0    0    0    0  0.00000000000E+00  0.00000000000E+00  0.18250000000E+03  0.18250000000E+03  0.00000000000E+00 0.  1.
         11   -1    0    0    0    0 -0.00000000000E+00 -0.00000000000E+00 -0.18250000000E+03  0.18250000000E+03  0.00000000000E+00 0. -1.
        -11    1    1    2    0    0  0.66276547753E+01 -0.46400751879E+01  0.17125855183E+03  0.17144954850E+03  0.00000000000E+00 0.  1.
         11    1    1    2    0    0 -0.80066078521E+01 -0.16730452646E+01 -0.17693612482E+03  0.17712508890E+03  0.00000000000E+00 0. -1.
        -15    1    1    2    0    0  0.55438273240E+01  0.35967166771E+01 -0.19798971701E+01  0.71237710559E+01  0.17770000000E+01 0.  1.
         15    1    1    2    0    0 -0.41648742472E+01  0.27164037754E+01  0.76574701621E+01  0.93015915439E+01  0.17770000000E+01 0. -1.
</event>
<event>
 6    1  0.1226227E-002  0.1865283E+03  0.7546771E-02  0.1065293E+00
        -11   -1    0    0    0    0  0.00000000000E+00  0.00000000000E+00  0.18250000000E+03  0.18250000000E+03  0.00000000000E+00 0.  1.
         11   -1    0    0    0    0 -0.00000000000E+00 -0.00000000000E+00 -0.18250000000E+03  0.18250000000E+03  0.00000000000E+00 0. -1.
        -11    1    1    2    0    0 -0.17626221987E+01  0.39650818788E+01  0.17001208077E+03  0.17006744638E+03  0.00000000000E+00 0.  1.
         11    1    1    2    0    0 -0.24899073850E+01  0.76195171290E+00 -0.17845272500E+03  0.17847172121E+03  0.00000000000E+00 0. -1.
        -15    1    1    2    0    0  0.10654127763E+01  0.92416270064E+00 -0.26506775298E+01  0.34889828673E+01  0.17770000000E+01 0.  1.
         15    1    1    2    0    0  0.31871168074E+01 -0.56511962923E+01  0.11091321768E+02  0.12971849546E+02  0.17770000000E+01 0.  1.
</event>
<event>
 6    1  0.1226227E-002  0.1887363E+03  0.7546771E-02  0.1063596E+00
        -11   -1    0    0    0    0  0.00000000000E+00  0.00000000000E+00  0.18250000000E+03  0.18250000000E+03  0.00000000000E+00 0. -1.
         11   -1    0    0    0    0 -0.00000000000E+00 -0.00000000000E+00 -0.18250000000E+03  0.18250000000E+03  0.00000000000E+00 0. -1.
        -11    1    1    2    0    0 -0.94605005222E+01 -0.14621574746E+01  0.17600354649E+03  0.17626368699E+03  0.00000000000E+00 0. -1.
         11    1    1    2    0    0 -0.15002251245E+01  0.25165560187E+00 -0.77980276361E+02  0.77995112073E+02  0.00000000000E+00 0. -1.
        -15    1    1    2    0    0  0.11031996662E+01 -0.11277536256E+02 -0.93367242664E+02  0.94069121422E+02  0.17770000000E+01 0. -1.
         15    1    1    2    0    0  0.98575259805E+01  0.12488038129E+02 -0.46560274605E+01  0.16672079519E+02  0.17770000000E+01 0.  1.
</event>
<event>
 6    1  0.1226227E-002  0.1859133E+03  0.7546771E-02  0.1065770E+00
        -11   -1    0    0    0    0  0.00000000000E+00  0.00000000000E+00  0.18250000000E+03  0.18250000000E+03  0.00000000000E+00 0.  1.
         11   -1    0    0    0    0 -0.00000000000E+00 -0.00000000000E+00 -0.18250000000E+03  0.18250000000E+03  0.00000000000E+00 0.  1.
        -11    1    1    2    0    0  0.12400334286E+01 -0.34967790997E+01  0.17904822718E+03  0.17908666282E+03  0.00000000000E+00 0.  1.
         11    1    1    2    0    0  0.11118119217E+02 -0.30571566408E+01 -0.36406262686E+02  0.38188672986E+02  0.00000000000E+00 0.  1.
        -15    1    1    2    0    0 -0.24546338351E+02  0.46595041765E+01 -0.79059754081E+02  0.82932720623E+02  0.17770000000E+01 0. -1.
         15    1    1    2    0    0  0.12188185705E+02  0.18944315640E+01 -0.63582210408E+02  0.64791943567E+02  0.17770000000E+01 0.  1.
</event>
<event>
 6    1  0.1226227E-002  0.1850506E+03  0.7546771E-02  0.1066442E+00
        -11   -1    0    0    0    0  0.00000000000E+00  0.00000000000E+00  0.18250000000E+03  0.18250000000E+03  0.00000000000E+00 0. -1.
         11   -1    0    0    0    0 -0.00000000000E+00 -0.00000000000E+00 -0.18250000000E+03  0.18250000000E+03  0.00000000000E+00 0. -1.
        -11    1    1    2    0    0 -0.37669985219E+01  0.77594287318E+00  0.17990825096E+03  0.17994935713E+03  0.00000000000E+00 0. -1.
         11    1    1    2    0    0  0.41781471883E+01 -0.13554625768E+01 -0.15976411892E+03  0.15982449089E+03  0.00000000000E+00 0. -1.
        -15    1    1    2    0    0 -0.54825630010E+01  0.54192345593E+01 -0.95877621520E+01  0.12430185532E+02  0.17770000000E+01 0.  1.
         15    1    1    2    0    0  0.50714143346E+01 -0.48397148556E+01 -0.10556369889E+02  0.12795966453E+02  0.17770000000E+01 0. -1.
</event>
<event>
 6    1  0.1226227E-002  0.1841313E+03  0.7546771E-02  0.1067164E+00
        -11   -1    0    0    0    0  0.00000000000E+00  0.00000000000E+00  0.18250000000E+03  0.18250000000E+03  0.00000000000E+00 0. -1.
         11   -1    0    0    0    0 -0.00000000000E+00 -0.00000000000E+00 -0.18250000000E+03  0.18250000000E+03  0.00000000000E+00 0. -1.
        -11    1    1    2    0    0  0.26309879396E+01  0.24975566821E+01  0.12553480889E+03  0.12558721325E+03  0.00000000000E+00 0. -1.
         11    1    1    2    0    0  0.40942053206E+01  0.38843575854E+01 -0.18078058507E+03  0.18086865590E+03  0.00000000000E+00 0. -1.
        -15    1    1    2    0    0  0.11173547882E+01 -0.31483766114E+01  0.44849879744E+02  0.45009223489E+02  0.17770000000E+01 0.  1.
         15    1    1    2    0    0 -0.78425480484E+01 -0.32335376561E+01  0.10395896431E+02  0.13534907361E+02  0.17770000000E+01 0. -1.
</event>
<event>
 6    1  0.1596469E-002  0.1605134E+03  0.7546771E-02  0.1087442E+00
        -11   -1    0    0    0    0  0.00000000000E+00  0.00000000000E+00  0.18250000000E+03  0.18250000000E+03  0.00000000000E+00 0. -1.
         11   -1    0    0    0    0 -0.00000000000E+00 -0.00000000000E+00 -0.18250000000E+03  0.18250000000E+03  0.00000000000E+00 0.  1.
        -11    1    1    2    0    0 -0.68678385319E-01 -0.73797715984E+01  0.16382266355E+03  0.16398881315E+03  0.00000000000E+00 0. -1.
         11    1    1    2    0    0 -0.11461375752E+02 -0.76405818022E+01 -0.15706403925E+03  0.15766690854E+03  0.00000000000E+00 0.  1.
        -15    1    1    2    0    0  0.35870433630E+00  0.98325350042E+00  0.14969657442E+02  0.15111049903E+02  0.17770000000E+01 0. -1.
         15    1    1    2    0    0  0.11171349801E+02  0.14037099900E+02 -0.21728281740E+02  0.28233228408E+02  0.17770000000E+01 0. -1.
</event>
<event>
 6    1  0.1226227E-002  0.1833550E+03  0.7546771E-02  0.1067776E+00
        -11   -1    0    0    0    0  0.00000000000E+00  0.00000000000E+00  0.18250000000E+03  0.18250000000E+03  0.00000000000E+00 0.  1.
         11   -1    0    0    0    0 -0.00000000000E+00 -0.00000000000E+00 -0.18250000000E+03  0.18250000000E+03  0.00000000000E+00 0. -1.
        -11    1    1    2    0    0 -0.30885829563E+00 -0.14074701594E+01  0.13097150925E+02  0.13176180328E+02  0.00000000000E+00 0.  1.
         11    1    1    2    0    0  0.89868276373E+00 -0.26080036658E+01 -0.18162406626E+03  0.18164501303E+03  0.00000000000E+00 0. -1.
        -15    1    1    2    0    0 -0.66805519802E+01  0.25441092031E+01  0.17189506886E+02  0.18701313922E+02  0.17770000000E+01 0. -1.
         15    1    1    2    0    0  0.60907275121E+01  0.14713646220E+01  0.15133740845E+03  0.15147749272E+03  0.17770000000E+01 0.  1.
</event>
<event>
 6    1  0.1226227E-002  0.1540756E+03  0.7546771E-02  0.1093642E+00
        -11   -1    0    0    0    0  0.00000000000E+00  0.00000000000E+00  0.18250000000E+03  0.18250000000E+03  0.00000000000E+00 0. -1.
         11   -1    0    0    0    0 -0.00000000000E+00 -0.00000000000E+00 -0.18250000000E+03  0.18250000000E+03  0.00000000000E+00 0.  1.
        -11    1    1    2    0    0 -0.20324702019E+01  0.12870632368E+01  0.15374591321E+03  0.15376473359E+03  0.00000000000E+00 0. -1.
         11    1    1    2    0    0 -0.14788190789E+01  0.44171085485E+01 -0.15438959519E+03  0.15445984869E+03  0.00000000000E+00 0.  1.
        -15    1    1    2    0    0 -0.50816761862E+00 -0.17776113406E+02 -0.23442010348E+02  0.29477686821E+02  0.17770000000E+01 0.  1.
         15    1    1    2    0    0  0.40194568993E+01  0.12071941621E+02  0.24085692326E+02  0.27297730896E+02  0.17770000000E+01 0. -1.
</event>
<event>
 6    1  0.1226227E-002  0.1841293E+03  0.7546771E-02  0.1067165E+00
        -11   -1    0    0    0    0  0.00000000000E+00  0.00000000000E+00  0.18250000000E+03  0.18250000000E+03  0.00000000000E+00 0.  1.
         11   -1    0    0    0    0 -0.00000000000E+00 -0.00000000000E+00 -0.18250000000E+03  0.18250000000E+03  0.00000000000E+00 0.  1.
        -11    1    1    2    0    0  0.18411577279E+01  0.24482858427E+01  0.18084474298E+03  0.18087068593E+03  0.00000000000E+00 0.  1.
         11    1    1    2    0    0  0.17213658206E+01 -0.15706684778E+01 -0.16886799829E+03  0.16888407547E+03  0.00000000000E+00 0.  1.
        -15    1    1    2    0    0 -0.12225176477E+01 -0.24688476153E-01  0.65019295609E+00  0.22529178413E+01  0.17770000000E+01 0.  1.
         15    1    1    2    0    0 -0.23400059009E+01 -0.85292888875E+00 -0.12626937646E+02  0.12992320756E+02  0.17770000000E+01 0. -1.
</event>
<event>
 6    1  0.1226227E-002  0.1833659E+03  0.7546771E-02  0.1067768E+00
        -11   -1    0    0    0    0  0.00000000000E+00  0.00000000000E+00  0.18250000000E+03  0.18250000000E+03  0.00000000000E+00 0.  1.
         11   -1    0    0    0    0 -0.00000000000E+00 -0.00000000000E+00 -0.18250000000E+03  0.18250000000E+03  0.00000000000E+00 0. -1.
        -11    1    1    2    0    0 -0.78203332347E+00 -0.22132105172E+01  0.16867579153E+03  0.16869212348E+03  0.00000000000E+00 0.  1.
         11    1    1    2    0    0  0.26203829455E+01  0.13691490492E+00 -0.18161516923E+03  0.18163412358E+03  0.00000000000E+00 0. -1.
        -15    1    1    2    0    0 -0.36038440688E+01  0.17514350168E+01  0.86052182926E+01  0.96572629432E+01  0.17770000000E+01 0.  1.
         15    1    1    2    0    0  0.17654944468E+01  0.32486059542E+00  0.43341594103E+01  0.50164899922E+01  0.17770000000E+01 0.  1.
</event>
<event>
 6    1  0.1226227E-002  0.1837679E+03  0.7546771E-02  0.1067450E+00
        -11   -1    0    0    0    0  0.00000000000E+00  0.00000000000E+00  0.18250000000E+03  0.18250000000E+03  0.00000000000E+00 0.  1.
         11   -1    0    0    0    0 -0.00000000000E+00 -0.00000000000E+00 -0.18250000000E+03  0.18250000000E+03  0.00000000000E+00 0.  1.
        -11    1    1    2    0    0  0.25110956135E+01 -0.10038390521E+01  0.18121194791E+03  0.18123212563E+03  0.00000000000E+00 0.  1.
         11    1    1    2    0    0  0.14630540687E+01  0.40708853979E+01 -0.16939728426E+03  0.16945250824E+03  0.00000000000E+00 0.  1.
        -15    1    1    2    0    0 -0.14092620200E+01 -0.76770560378E+00 -0.95081612301E+01  0.98050114897E+01  0.17770000000E+01 0. -1.
         15    1    1    2    0    0 -0.25648876622E+01 -0.22993407420E+01 -0.23065024236E+01  0.45103546421E+01  0.17770000000E+01 0.  1.
</event>
<event>
 6    1  0.1226227E-002  0.1125383E+03  0.7546771E-02  0.1143741E+00
        -11   -1    0    0    0    0  0.00000000000E+00  0.00000000000E+00  0.18250000000E+03  0.18250000000E+03  0.00000000000E+00 0.  1.
         11   -1    0    0    0    0 -0.00000000000E+00 -0.00000000000E+00 -0.18250000000E+03  0.18250000000E+03  0.00000000000E+00 0.  1.
        -11    1    1    2    0    0  0.11941825960E+01  0.73483888406E+01  0.52166587097E+02  0.52695139245E+02  0.00000000000E+00 0.  1.
         11    1    1    2    0    0  0.78642009470E+01 -0.29331989037E+01 -0.84305312467E+02  0.84722104686E+02  0.00000000000E+00 0.  1.
        -15    1    1    2    0    0 -0.14002218318E+02 -0.92536299587E+01 -0.96893798596E+02  0.98352720962E+02  0.17770000000E+01 0. -1.
         15    1    1    2    0    0  0.49438347752E+01  0.48384400218E+01  0.12903252396E+03  0.12923003511E+03  0.17770000000E+01 0.  1.
</event>
<event>
 6    1  0.1226227E-002  0.1835338E+03  0.7546771E-02  0.1067635E+00
        -11   -1    0    0    0    0  0.00000000000E+00  0.00000000000E+00  0.18250000000E+03  0.18250000000E+03  0.00000000000E+00 0.  1.
         11   -1    0    0    0    0 -0.00000000000E+00 -0.00000000000E+00 -0.18250000000E+03  0.18250000000E+03  0.00000000000E+00 0. -1.
        -11    1    1    2    0    0  0.90631846855E+00  0.27218653778E+01  0.18144348656E+03  0.18146616428E+03  0.00000000000E+00 0.  1.
         11    1    1    2    0    0  0.12865615546E+01 -0.65890356289E+00 -0.52920054091E+02  0.52939791458E+02  0.00000000000E+00 0. -1.
        -15    1    1    2    0    0 -0.18243423666E+01  0.11788217571E+00 -0.12757801308E+03  0.12760348456E+03  0.17770000000E+01 0. -1.
         15    1    1    2    0    0 -0.36853765647E+00 -0.21808439906E+01 -0.94541938195E+00  0.29905597007E+01  0.17770000000E+01 0.  1.
</event>
<event>
 6    1  0.1226227E-002  0.1829161E+03  0.7546771E-02  0.1068124E+00
        -11   -1    0    0    0    0  0.00000000000E+00  0.00000000000E+00  0.18250000000E+03  0.18250000000E+03  0.00000000000E+00 0.  1.
         11   -1    0    0    0    0 -0.00000000000E+00 -0.00000000000E+00 -0.18250000000E+03  0.18250000000E+03  0.00000000000E+00 0.  1.
        -11    1    1    2    0    0  0.26418784043E+00  0.51402247244E+01  0.92298408438E+02  0.92441808213E+02  0.00000000000E+00 0.  1.
         11    1    1    2    0    0 -0.40463550476E+01 -0.15304734812E+01 -0.18203254686E+03  0.18208394617E+03  0.00000000000E+00 0.  1.
        -15    1    1    2    0    0  0.53503479479E+01 -0.16681618266E+01  0.81096479274E+02  0.81309320909E+02  0.17770000000E+01 0.  1.
         15    1    1    2    0    0 -0.15681807407E+01 -0.19415894165E+01  0.86376591472E+01  0.91649247046E+01  0.17770000000E+01 0.  1.
</event>
<event>
 6    1  0.1226227E-002  0.1838305E+03  0.7546771E-02  0.1067401E+00
        -11   -1    0    0    0    0  0.00000000000E+00  0.00000000000E+00  0.18250000000E+03  0.18250000000E+03  0.00000000000E+00 0. -1.
         11   -1    0    0    0    0 -0.00000000000E+00 -0.00000000000E+00 -0.18250000000E+03  0.18250000000E+03  0.00000000000E+00 0. -1.
        -11    1    1    2    0    0 -0.32955330334E+01 -0.43329057043E+01  0.17075963283E+03  0.17084638368E+03  0.00000000000E+00 0. -1.
         11    1    1    2    0    0 -0.18860382748E+01  0.17162228852E+01 -0.18115151646E+03  0.18116946342E+03  0.00000000000E+00 0. -1.
        -15    1    1    2    0    0  0.11824686888E+01 -0.11150663848E+00  0.53970908033E+01  0.58049103413E+01  0.17770000000E+01 0. -1.
         15    1    1    2    0    0  0.39991026195E+01  0.27281894576E+01  0.49947928196E+01  0.71792425637E+01  0.17770000000E+01 0.  1.
</event>
<event>
 6    1  0.1226227E-002  0.1852727E+03  0.7546771E-02  0.1066269E+00
        -11   -1    0    0    0    0  0.00000000000E+00  0.00000000000E+00  0.18250000000E+03  0.18250000000E+03  0.00000000000E+00 0. -1.
         11   -1    0    0    0    0 -0.00000000000E+00 -0.00000000000E+00 -0.18250000000E+03  0.18250000000E+03  0.00000000000E+00 0.  1.
        -11    1    1    2    0    0  0.20884051019E+01  0.13881629514E+01  0.17440121335E+03  0.17441924106E+03  0.00000000000E+00 0. -1.
         11    1    1    2    0    0  0.22809571564E+01  0.37280200784E+01 -0.17967420301E+03  0.17972734941E+03  0.00000000000E+00 0.  1.
        -15    1    1    2    0    0 -0.18842437782E+01 -0.25229501270E+01 -0.67822878043E+00  0.36787736051E+01  0.17770000000E+01 0.  1.
         15    1    1    2    0    0 -0.24851184801E+01 -0.25932329029E+01  0.59512184392E+01  0.71746359253E+01  0.17770000000E+01 0. -1.
</event>
<event>
 6    1  0.1226227E-002  0.1848730E+03  0.7546771E-02  0.1066581E+00
        -11   -1    0    0    0    0  0.00000000000E+00  0.00000000000E+00  0.18250000000E+03  0.18250000000E+03  0.00000000000E+00 0.  1.
         11   -1    0    0    0    0 -0.00000000000E+00 -0.00000000000E+00 -0.18250000000E+03  0.18250000000E+03  0.00000000000E+00 0. -1.
        -11    1    1    2    0    0 -0.59163425915E+01  0.73998659039E+01  0.17987763871E+03  0.18012697198E+03  0.00000000000E+00 0.  1.
         11    1    1    2    0    0 -0.20604515858E+01 -0.42175685310E+01 -0.13371165296E+03  0.13379401886E+03  0.00000000000E+00 0. -1.
        -15    1    1    2    0    0 -0.14802759230E+01 -0.71058771129E+01 -0.59793607922E+01  0.95705376461E+01  0.17770000000E+01 0.  1.
         15    1    1    2    0    0  0.94570701003E+01  0.39235797400E+01 -0.40186624962E+02  0.41508471518E+02  0.17770000000E+01 0. -1.
</event>
<event>
 6    1  0.1226227E-002  0.1899229E+03  0.7546771E-02  0.1062695E+00
        -11   -1    0    0    0    0  0.00000000000E+00  0.00000000000E+00  0.18250000000E+03  0.18250000000E+03  0.00000000000E+00 0.  1.
         11   -1    0    0    0    0 -0.00000000000E+00 -0.00000000000E+00 -0.18250000000E+03  0.18250000000E+03  0.00000000000E+00 0. -1.
        -11    1    1    2    0    0  0.44246868152E+01 -0.29755029718E+00  0.65327736227E+02  0.65478084197E+02  0.00000000000E+00 0.  1.
         11    1    1    2    0    0 -0.50935566765E+01  0.97386515186E+01 -0.17473184478E+03  0.17507713510E+03  0.00000000000E+00 0. -1.
        -15    1    1    2    0    0  0.15042405467E+01 -0.43680611949E+01 -0.66351860303E+01  0.82780505484E+01  0.17770000000E+01 0.  1.
         15    1    1    2    0    0 -0.83537068535E+00 -0.50730400266E+01  0.11603929458E+03  0.11616673016E+03  0.17770000000E+01 0. -1.
</event>
<event>
 6    1  0.1226227E-002  0.1884640E+03  0.7546771E-02  0.1063804E+00
        -11   -1    0    0    0    0  0.00000000000E+00  0.00000000000E+00  0.18250000000E+03  0.18250000000E+03  0.00000000000E+00 0.  1.
         11   -1    0    0    0    0 -0.00000000000E+00 -0.00000000000E+00 -0.18250000000E+03  0.18250000000E+03  0.00000000000E+00 0. -1.
        -11    1    1    2    0    0  0.64105880919E+01  0.94991908087E+01  0.16524922953E+03  0.16564612319E+03  0.00000000000E+00 0.  1.
         11    1    1    2    0    0 -0.29598318625E+01  0.34174116520E+00 -0.17651082926E+03  0.17653597435E+03  0.00000000000E+00 0. -1.
        -15    1    1    2    0    0 -0.52003977984E+01 -0.81033928787E+01  0.15053894294E+02  0.17957911233E+02  0.17770000000E+01 0. -1.
         15    1    1    2    0    0  0.17496415691E+01 -0.17375390952E+01 -0.37922945640E+01  0.48599912332E+01  0.17770000000E+01 0. -1.
</event>
<event>
 6    1  0.1226227E-002  0.1836262E+03  0.7546771E-02  0.1067562E+00
        -11   -1    0    0    0    0  0.00000000000E+00  0.00000000000E+00  0.18250000000E+03  0.18250000000E+03  0.00000000000E+00 0. -1.
         11   -1    0    0    0    0 -0.00000000000E+00 -0.00000000000E+00 -0.18250000000E+03  0.18250000000E+03  0.00000000000E+00 0.  1.
        -11    1    1    2    0    0  0.40224313460E+00 -0.15207356444E+01  0.10709626798E+03  0.10710781975E+03  0.00000000000E+00 0. -1.
         11    1    1    2    0    0  0.36969020014E+01  0.17817514327E+01 -0.18132739136E+03  0.18137382551E+03  0.00000000000E+00 0.  1.
        -15    1    1    2    0    0 -0.14791971469E+01  0.15108859309E+01  0.63650610448E+00  0.28343728613E+01  0.17770000000E+01 0.  1.
         15    1    1    2    0    0 -0.26199479891E+01 -0.17719017192E+01  0.73594617277E+02  0.73683981871E+02  0.17770000000E+01 0. -1.
</event>
<event>
 6    1  0.1226227E-002  0.1867800E+03  0.7546771E-02  0.1065098E+00
        -11   -1    0    0    0    0  0.00000000000E+00  0.00000000000E+00  0.18250000000E+03  0.18250000000E+03  0.00000000000E+00 0. -1.
         11   -1    0    0    0    0 -0.00000000000E+00 -0.00000000000E+00 -0.18250000000E+03  0.18250000000E+03  0.00000000000E+00 0. -1.
        -11    1    1    2    0    0  0.69237462274E+01 -0.15726598749E+01  0.17317757835E+03  0.17332306588E+03  0.00000000000E+00 0. -1.
         11    1    1    2    0    0 -0.14418769720E+01  0.68583162026E+01 -0.17808214311E+03  0.17821999103E+03  0.00000000000E+00 0. -1.
        -15    1    1    2    0    0 -0.84582126837E+00 -0.42982679559E+01 -0.17977987697E+01  0.50577001152E+01  0.17770000000E+01 0.  1.
         15    1    1    2    0    0 -0.46360479870E+01 -0.98738837183E+00  0.67023635255E+01  0.83992429756E+01  0.17770000000E+01 0. -1.
</event>
<event>
 6    1  0.1226227E-002  0.1873751E+03  0.7546771E-02  0.1064639E+00
        -11   -1    0    0    0    0  0.00000000000E+00  0.00000000000E+00  0.18250000000E+03  0.18250000000E+03  0.00000000000E+00 0.  1.
         11   -1    0    0    0    0 -0.00000000000E+00 -0.00000000000E+00 -0.18250000000E+03  0.18250000000E+03  0.00000000000E+00 0. -1.
        -11    1    1    2    0    0  0.24801884396E+01 -0.79287468705E+01  0.17743047733E+03  0.17762485932E+03  0.00000000000E+00 0.  1.
         11    1    1    2    0    0  0.28998421065E+01  0.11092941209E+01 -0.12049049327E+03  0.12053048821E+03  0.00000000000E+00 0. -1.
        -15    1    1    2    0    0 -0.14857288750E+02 -0.23135818148E+01 -0.10204554302E+02  0.18258760837E+02  0.17770000000E+01 0. -1.
         15    1    1    2    0    0  0.94772582041E+01  0.91330345644E+01 -0.46735429752E+02  0.48585891641E+02  0.17770000000E+01 0.  1.
</event>
<event>
 6    1  0.1226227E-002  0.1832314E+03  0.7546771E-02  0.1067874E+00
        -11   -1    0    0    0    0  0.00000000000E+00  0.00000000000E+00  0.18250000000E+03  0.18250000000E+03  0.00000000000E+00 0. -1.
         11   -1    0    0    0    0 -0.00000000000E+00 -0.00000000000E+00 -0.18250000000E+03  0.18250000000E+03  0.00000000000E+00 0.  1.
        -11    1    1    2    0    0 -0.10239994735E+01 -0.26405412611E+01  0.15490879122E+03  0.15493467859E+03  0.00000000000E+00 0. -1.
         11    1    1    2    0    0 -0.45294351153E+01  0.37643771247E+01 -0.18167319539E+03  0.18176863382E+03  0.00000000000E+00 0.  1.
        -15    1    1    2    0    0  0.76108746343E-01  0.95886040038E+00  0.13936284096E+02  0.14082007996E+02  0.17770000000E+01 0. -1.
         15    1    1    2    0    0  0.54773258424E+01 -0.20826962640E+01  0.12828120076E+02  0.14214679588E+02  0.17770000000E+01 0. -1.
</event>
<event>
 6    1  0.1226227E-002  0.1889319E+03  0.7546771E-02  0.1063447E+00
        -11   -1    0    0    0    0  0.00000000000E+00  0.00000000000E+00  0.18250000000E+03  0.18250000000E+03  0.00000000000E+00 0.  1.
         11   -1    0    0    0    0 -0.00000000000E+00 -0.00000000000E+00 -0.18250000000E+03  0.18250000000E+03  0.00000000000E+00 0. -1.
        -11    1    1    2    0    0 -0.34071602150E+01  0.84282915893E+01  0.17036208842E+03  0.17060447242E+03  0.00000000000E+00 0.  1.
         11    1    1    2    0    0  0.41689607429E+01  0.24505451261E+00 -0.17601858828E+03  0.17606812235E+03  0.00000000000E+00 0. -1.
        -15    1    1    2    0    0  0.25585814727E+01 -0.11889812132E+02  0.52263978258E+01  0.13356157191E+02  0.17770000000E+01 0. -1.
         15    1    1    2    0    0 -0.33203820006E+01  0.32164660297E+01  0.43010203959E+00  0.49712480439E+01  0.17770000000E+01 0. -1.
</event>
<event>
 6    1  0.1226227E-002  0.1761131E+03  0.7546771E-02  0.1073656E+00
        -11   -1    0    0    0    0  0.00000000000E+00  0.00000000000E+00  0.18250000000E+03  0.18250000000E+03  0.00000000000E+00 0.  1.
         11   -1    0    0    0    0 -0.00000000000E+00 -0.00000000000E+00 -0.18250000000E+03  0.18250000000E+03  0.00000000000E+00 0.  1.
        -11    1    1    2    0    0 -0.11559752321E+01  0.40822350656E+01  0.17676066305E+03  0.17681157463E+03  0.00000000000E+00 0.  1.
         11    1    1    2    0    0  0.41970538038E+01 -0.14909524356E+01 -0.17538342187E+03  0.17543996941E+03  0.00000000000E+00 0.  1.
        -15    1    1    2    0    0 -0.75813724187E-01 -0.35168989742E+01  0.44285844698E+01  0.59282725580E+01  0.17770000000E+01 0.  1.
         15    1    1    2    0    0 -0.29652648475E+01  0.92561634422E+00 -0.58058256443E+01  0.68201834025E+01  0.17770000000E+01 0. -1.
</event>
<event>
 6    1  0.1226227E-002  0.1830883E+03  0.7546771E-02  0.1067987E+00
        -11   -1    0    0    0    0  0.00000000000E+00  0.00000000000E+00  0.18250000000E+03  0.18250000000E+03  0.00000000000E+00 0.  1.
         11   -1    0    0    0    0 -0.00000000000E+00 -0.00000000000E+00 -0.18250000000E+03  0.18250000000E+03  0.00000000000E+00 0. -1.
        -11    1    1    2    0    0 -0.98841977974E+00  0.28105906489E+01  0.18188726679E+03  0.18191166596E+03  0.00000000000E+00 0.  1.
         11    1    1    2    0    0  0.11800298433E+01 -0.37178819343E+01 -0.25059694903E+02  0.25361455501E+02  0.00000000000E+00 0. -1.
        -15    1    1    2    0    0  0.25110609146E+01  0.90388941204E+00 -0.15121495981E+03  0.15124894790E+03  0.17770000000E+01 0. -1.
         15    1    1    2    0    0 -0.27026709782E+01  0.34018733796E-02 -0.56126120762E+01  0.64779306346E+01  0.17770000000E+01 0.  1.
</event>
<event>
 6    1  0.1226227E-002  0.1835569E+03  0.7546771E-02  0.1067617E+00
        -11   -1    0    0    0    0  0.00000000000E+00  0.00000000000E+00  0.18250000000E+03  0.18250000000E+03  0.00000000000E+00 0.  1.
         11   -1    0    0    0    0 -0.00000000000E+00 -0.00000000000E+00 -0.18250000000E+03  0.18250000000E+03  0.00000000000E+00 0.  1.
        -11    1    1    2    0    0  0.18890504988E+01  0.43201204293E+01  0.18138185809E+03  0.18144313268E+03  0.00000000000E+00 0.  1.
         11    1    1    2    0    0  0.26836491184E+01 -0.41117508069E+01 -0.12381872866E+03  0.12391604430E+03  0.00000000000E+00 0.  1.
        -15    1    1    2    0    0 -0.70730599895E+01 -0.56023593767E+01 -0.29516406286E+02  0.30915862874E+02  0.17770000000E+01 0. -1.
         15    1    1    2    0    0  0.25003603722E+01  0.53939897543E+01 -0.28046723146E+02  0.28724960151E+02  0.17770000000E+01 0.  1.
</event>
<event>
 6    1  0.1226227E-002  0.1849026E+03  0.7546771E-02  0.1066558E+00
        -11   -1    0    0    0    0  0.00000000000E+00  0.00000000000E+00  0.18250000000E+03  0.18250000000E+03  0.00000000000E+00 0.  1.
         11   -1    0    0    0    0 -0.00000000000E+00 -0.00000000000E+00 -0.18250000000E+03  0.18250000000E+03  0.00000000000E+00 0.  1.
        -11    1    1    2    0    0  0.18001405895E+01  0.22507096250E+01  0.18007433544E+03  0.18009739721E+03  0.00000000000E+00 0.  1.
         11    1    1    2    0    0  0.57264283887E+01  0.28345267022E+01 -0.15872156327E+03  0.15885012172E+03  0.00000000000E+00 0.  1.
        -15    1    1    2    0    0 -0.95073241037E+01 -0.42826639165E+01 -0.10710861064E+02  0.15053594108E+02  0.17770000000E+01 0. -1.
         15    1    1    2    0    0  0.19807551255E+01 -0.80257241071E+00 -0.10641911107E+02  0.10998886960E+02  0.17770000000E+01 0.  1.
</event>
<event>
 6    1  0.1226227E-002  0.1861085E+03  0.7546771E-02  0.1065618E+00
        -11   -1    0    0    0    0  0.00000000000E+00  0.00000000000E+00  0.18250000000E+03  0.18250000000E+03  0.00000000000E+00 0.  1.
         11   -1    0    0    0    0 -0.00000000000E+00 -0.00000000000E+00 -0.18250000000E+03  0.18250000000E+03  0.00000000000E+00 0. -1.
        -11    1    1    2    0    0  0.10158828207E+02  0.14020594412E+01  0.17859730795E+03  0.17889149216E+03  0.00000000000E+00 0.  1.
         11    1    1    2    0    0 -0.26074908747E+01 -0.25429790318E+01 -0.13860025135E+03  0.13864809925E+03  0.00000000000E+00 0. -1.
        -15    1    1    2    0    0 -0.85756538438E+00  0.27053363614E+01 -0.40217709707E+02  0.40356860214E+02  0.17770000000E+01 0.  1.
         15    1    1    2    0    0 -0.66937719479E+01 -0.15644167708E+01  0.22065310887E+00  0.71035483751E+01  0.17770000000E+01 0. -1.
</event>
<event>
 6    1  0.1694981E-002  0.1973944E+03  0.7546771E-02  0.1057181E+00
        -11   -1    0    0    0    0  0.00000000000E+00  0.00000000000E+00  0.18250000000E+03  0.18250000000E+03  0.00000000000E+00 0. -1.
         11   -1    0    0    0    0 -0.00000000000E+00 -0.00000000000E+00 -0.18250000000E+03  0.18250000000E+03  0.00000000000E+00 0.  1.
        -11    1    1    2    0    0 -0.35643132557E+01 -0.47430243833E+01  0.16750060160E+03  0.16760564473E+03  0.00000000000E+00 0. -1.
         11    1    1    2    0    0  0.89160123725E+01 -0.11673475611E+01 -0.84085430431E+02  0.84564872067E+02  0.00000000000E+00 0.  1.
        -15    1    1    2    0    0 -0.72985981830E+01  0.51852450741E+01 -0.97780867887E+02  0.98205968024E+02  0.17770000000E+01 0. -1.
         15    1    1    2    0    0  0.19468990661E+01  0.72512687039E+00  0.14365696721E+02  0.14623515180E+02  0.17770000000E+01 0.  1.
</event>
<event>
 6    1  0.1226227E-002  0.1868796E+03  0.7546771E-02  0.1065021E+00
        -11   -1    0    0    0    0  0.00000000000E+00  0.00000000000E+00  0.18250000000E+03  0.18250000000E+03  0.00000000000E+00 0.  1.
         11   -1    0    0    0    0 -0.00000000000E+00 -0.00000000000E+00 -0.18250000000E+03  0.18250000000E+03  0.00000000000E+00 0. -1.
        -11    1    1    2    0    0 -0.11909811890E+01  0.29106356263E+01  0.13502823388E+03  0.13506485176E+03  0.00000000000E+00 0.  1.
         11    1    1    2    0    0 -0.54599030911E+00  0.24842313778E+01 -0.17810228192E+03  0.17812044334E+03  0.00000000000E+00 0. -1.
        -15    1    1    2    0    0 -0.10105435688E+02  0.64033996681E-01  0.34772191034E+02  0.36254474608E+02  0.17770000000E+01 0.  1.
         15    1    1    2    0    0  0.11842407186E+02 -0.54589010008E+01  0.83018570024E+01  0.15560230293E+02  0.17770000000E+01 0. -1.
</event>
<event>
 6    1  0.1226227E-002  0.1913308E+03  0.7546771E-02  0.1061635E+00
        -11   -1    0    0    0    0  0.00000000000E+00  0.00000000000E+00  0.18250000000E+03  0.18250000000E+03  0.00000000000E+00 0. -1.
         11   -1    0    0    0    0 -0.00000000000E+00 -0.00000000000E+00 -0.18250000000E+03  0.18250000000E+03  0.00000000000E+00 0.  1.
        -11    1    1    2    0    0 -0.22361069523E+01  0.39943274540E+01  0.17360890417E+03  0.17366924435E+03  0.00000000000E+00 0. -1.
         11    1    1    2    0    0 -0.41338538362E+01 -0.16479011533E+02 -0.16164910649E+03  0.16253947274E+03  0.00000000000E+00 0.  1.
        -15    1    1    2    0    0  0.11965793787E+02 -0.29996517168E+00 -0.49613318725E+01  0.13078331048E+02  0.17770000000E+01 0. -1.
         15    1    1    2    0    0 -0.55958329980E+01  0.12784649251E+02 -0.69984658088E+01  0.15712951858E+02  0.17770000000E+01 0.  1.
</event>
<event>
 6    1  0.1226227E-002  0.1835411E+03  0.7546771E-02  0.1067629E+00
        -11   -1    0    0    0    0  0.00000000000E+00  0.00000000000E+00  0.18250000000E+03  0.18250000000E+03  0.00000000000E+00 0. -1.
         11   -1    0    0    0    0 -0.00000000000E+00 -0.00000000000E+00 -0.18250000000E+03  0.18250000000E+03  0.00000000000E+00 0.  1.
        -11    1    1    2    0    0 -0.31108480584E+01  0.18691715874E+01  0.18142259002E+03  0.18145888611E+03  0.00000000000E+00 0. -1.
         11    1    1    2    0    0  0.23985469374E+01  0.30015507000E+01 -0.15446461676E+03  0.15451239486E+03  0.00000000000E+00 0.  1.
        -15    1    1    2    0    0  0.45679093084E+00 -0.51907459903E+00 -0.22384109634E+02  0.22465177264E+02  0.17770000000E+01 0.  1.
         15    1    1    2    0    0  0.25551019010E+00 -0.43516476884E+01 -0.45738636298E+01  0.65635417699E+01  0.17770000000E+01 0. -1.
</event>
<event>
 6    1  0.1226227E-002  0.1602107E+03  0.7546771E-02  0.1087726E+00
        -11   -1    0    0    0    0  0.00000000000E+00  0.00000000000E+00  0.18250000000E+03  0.18250000000E+03  0.00000000000E+00 0.  1.
         11   -1    0    0    0    0 -0.00000000000E+00 -0.00000000000E+00 -0.18250000000E+03  0.18250000000E+03  0.00000000000E+00 0.  1.
        -11    1    1    2    0    0 -0.47335417624E+01  0.81407457990E+01  0.15872316092E+03  0.15900226405E+03  0.00000000000E+00 0.  1.
         11    1    1    2    0    0  0.11907923654E+02 -0.53482428060E+01 -0.16099137340E+03  0.16151973457E+03  0.00000000000E+00 0.  1.
        -15    1    1    2    0    0 -0.19217580414E+02 -0.48758130327E+01 -0.13792703348E+02  0.24217459493E+02  0.17770000000E+01 0.  1.
         15    1    1    2    0    0  0.12043198522E+02  0.20833100397E+01  0.16060915826E+02  0.20260541887E+02  0.17770000000E+01 0. -1.
</event>
<event>
 6    1  0.1226227E-002  0.1837412E+03  0.7546771E-02  0.1067471E+00
        -11   -1    0    0    0    0  0.00000000000E+00  0.00000000000E+00  0.18250000000E+03  0.18250000000E+03  0.00000000000E+00 0.  1.
         11   -1    0    0    0    0 -0.00000000000E+00 -0.00000000000E+00 -0.18250000000E+03  0.18250000000E+03  0.00000000000E+00 0.  1.
        -11    1    1    2    0    0 -0.13480952484E+01  0.42895778743E+01  0.16192418741E+03  0.16198660534E+03  0.00000000000E+00 0.  1.
         11    1    1    2    0    0 -0.15370803961E+01 -0.38867137940E+01 -0.18121062432E+03  0.18125881917E+03  0.00000000000E+00 0.  1.
        -15    1    1    2    0    0  0.34813500755E+01  0.27555129608E+01  0.46717374623E+01  0.66854700614E+01  0.17770000000E+01 0.  1.
         15    1    1    2    0    0 -0.59617443097E+00 -0.31583770411E+01  0.14614699449E+02  0.15069105430E+02  0.17770000000E+01 0. -1.
</event>
<event>
 6    1  0.1226227E-002  0.1847702E+03  0.7546771E-02  0.1066662E+00
        -11   -1    0    0    0    0  0.00000000000E+00  0.00000000000E+00  0.18250000000E+03  0.18250000000E+03  0.00000000000E+00 0.  1.
         11   -1    0    0    0    0 -0.00000000000E+00 -0.00000000000E+00 -0.18250000000E+03  0.18250000000E+03  0.00000000000E+00 0. -1.
        -11    1    1    2    0    0 -0.24609858939E+01 -0.32043410518E+01  0.18018455487E+03  0.18022984788E+03  0.00000000000E+00 0.  1.
         11    1    1    2    0    0 -0.85805096075E+00  0.46738149395E-01 -0.36152709155E+02  0.36162920445E+02  0.00000000000E+00 0. -1.
        -15    1    1    2    0    0  0.32461845979E+01  0.34421615714E+00 -0.14507238140E+03  0.14511998406E+03  0.17770000000E+01 0. -1.
         15    1    1    2    0    0  0.72852256816E-01  0.28133867452E+01  0.10405356789E+01  0.34872476151E+01  0.17770000000E+01 0.  1.
</event>
<event>
 6    1  0.1226227E-002  0.1995058E+03  0.7546771E-02  0.1055670E+00
        -11   -1    0    0    0    0  0.00000000000E+00  0.00000000000E+00  0.18250000000E+03  0.18250000000E+03  0.00000000000E+00 0. -1.
         11   -1    0    0    0    0 -0.00000000000E+00 -0.00000000000E+00 -0.18250000000E+03  0.18250000000E+03  0.00000000000E+00 0. -1.
        -11    1    1    2    0    0 -0.26872106869E+02  0.23672355540E+02  0.11323788549E+03  0.11876577476E+03  0.00000000000E+00 0. -1.
         11    1    1    2    0    0  0.10067755998E+02 -0.70112402798E+01 -0.16503885015E+03  0.16549422727E+03  0.00000000000E+00 0. -1.
        -15    1    1    2    0    0  0.23658174813E+02 -0.29809610524E+02  0.53533334920E+02  0.65706147290E+02  0.17770000000E+01 0. -1.
         15    1    1    2    0    0 -0.68538239417E+01  0.13148495264E+02 -0.17323702586E+01  0.15033850673E+02  0.17770000000E+01 0.  1.
</event>
<event>
 6    1  0.1226227E-002  0.1847452E+03  0.7546771E-02  0.1066682E+00
        -11   -1    0    0    0    0  0.00000000000E+00  0.00000000000E+00  0.18250000000E+03  0.18250000000E+03  0.00000000000E+00 0. -1.
         11   -1    0    0    0    0 -0.00000000000E+00 -0.00000000000E+00 -0.18250000000E+03  0.18250000000E+03  0.00000000000E+00 0.  1.
        -11    1    1    2    0    0  0.99376669647E+01 -0.21620822316E+01  0.17996769180E+03  0.18025482494E+03  0.00000000000E+00 0. -1.
         11    1    1    2    0    0 -0.43482214873E+01 -0.19889546388E+01 -0.14157162091E+03  0.14165234491E+03  0.00000000000E+00 0.  1.
        -15    1    1    2    0    0  0.51951711069E+01  0.25920158291E+01 -0.25032967271E+02  0.25758795164E+02  0.17770000000E+01 0. -1.
         15    1    1    2    0    0 -0.10784616584E+02  0.15590210413E+01 -0.13363103614E+02  0.17334034980E+02  0.17770000000E+01 0. -1.
</event>
<event>
 6    1  0.1226227E-002  0.1827941E+03  0.7546771E-02  0.1068221E+00
        -11   -1    0    0    0    0  0.00000000000E+00  0.00000000000E+00  0.18250000000E+03  0.18250000000E+03  0.00000000000E+00 0. -1.
         11   -1    0    0    0    0 -0.00000000000E+00 -0.00000000000E+00 -0.18250000000E+03  0.18250000000E+03  0.00000000000E+00 0.  1.
        -11    1    1    2    0    0 -0.23412224169E+01 -0.21323131326E+00  0.32653359533E+02  0.32737878349E+02  0.00000000000E+00 0. -1.
         11    1    1    2    0    0  0.12262077357E+01  0.35884318707E+01 -0.18216641829E+03  0.18220588459E+03  0.00000000000E+00 0.  1.
        -15    1    1    2    0    0 -0.12547930872E+01 -0.25792031633E+01  0.10923268140E+02  0.11432511120E+02  0.17770000000E+01 0. -1.
         15    1    1    2    0    0  0.23698077683E+01 -0.79599739421E+00  0.13858979062E+03  0.13862372594E+03  0.17770000000E+01 0.  1.
</event>
<event>
 6    1  0.1226227E-002  0.1834385E+03  0.7546771E-02  0.1067710E+00
        -11   -1    0    0    0    0  0.00000000000E+00  0.00000000000E+00  0.18250000000E+03  0.18250000000E+03  0.00000000000E+00 0. -1.
         11   -1    0    0    0    0 -0.00000000000E+00 -0.00000000000E+00 -0.18250000000E+03  0.18250000000E+03  0.00000000000E+00 0. -1.
        -11    1    1    2    0    0 -0.27796403116E+01  0.17086941179E+00  0.18154015287E+03  0.18156151217E+03  0.00000000000E+00 0. -1.
         11    1    1    2    0    0 -0.22699255942E+01  0.41592720334E+00 -0.16669556156E+03  0.16671153470E+03  0.00000000000E+00 0. -1.
        -15    1    1    2    0    0  0.85716287218E+00 -0.99757810882E+00 -0.92059241263E+01  0.94676638244E+01  0.17770000000E+01 0. -1.
         15    1    1    2    0    0  0.41924030336E+01  0.41078149369E+00 -0.56386671867E+01  0.72592893092E+01  0.17770000000E+01 0. -1.
</event>
<event>
 6    1  0.1226227E-002  0.1837162E+03  0.7546771E-02  0.1067491E+00
        -11   -1    0    0    0    0  0.00000000000E+00  0.00000000000E+00  0.18250000000E+03  0.18250000000E+03  0.00000000000E+00 0.  1.
         11   -1    0    0    0    0 -0.00000000000E+00 -0.00000000000E+00 -0.18250000000E+03  0.18250000000E+03  0.00000000000E+00 0.  1.
        -11    1    1    2    0    0 -0.41180935711E+01 -0.24603793735E+01  0.13478717405E+03  0.13487251184E+03  0.00000000000E+00 0.  1.
         11    1    1    2    0    0 -0.63381162295E+00 -0.32571611088E+01 -0.18125343732E+03  0.18128380886E+03  0.00000000000E+00 0.  1.
        -15    1    1    2    0    0  0.21313389079E+01  0.36964029244E+01  0.44232521715E+02  0.44473359513E+02  0.17770000000E+01 0.  1.
         15    1    1    2    0    0  0.26205662862E+01  0.20211375579E+01  0.22337415526E+01  0.43703197837E+01  0.17770000000E+01 0. -1.
</event>
<event>
 6    1  0.1226227E-002  0.1829469E+03  0.7546771E-02  0.1068100E+00
        -11   -1    0    0    0    0  0.00000000000E+00  0.00000000000E+00  0.18250000000E+03  0.18250000000E+03  0.00000000000E+00 0.  1.
         11   -1    0    0    0    0 -0.00000000000E+00 -0.00000000000E+00 -0.18250000000E+03  0.18250000000E+03  0.00000000000E+00 0.  1.
        -11    1    1    2    0    0 -0.27584122756E+01 -0.15813390938E+01  0.29955556332E+02  0.30123824903E+02  0.00000000000E+00 0.  1.
         11    1    1    2    0    0 -0.22458463556E+01  0.10339787490E+01 -0.18203633864E+03  0.18205312830E+03  0.00000000000E+00 0.  1.
        -15    1    1    2    0    0  0.33631721806E+01 -0.43284647362E+01  0.12821752916E+03  0.12834694795E+03  0.17770000000E+01 0.  1.
         15    1    1    2    0    0  0.16410864506E+01  0.48758250811E+01  0.23863253150E+02  0.24476098849E+02  0.17770000000E+01 0. -1.
</event>
<event>
 6    1  0.1226227E-002  0.1839665E+03  0.7546771E-02  0.1067293E+00
        -11   -1    0    0    0    0  0.00000000000E+00  0.00000000000E+00  0.18250000000E+03  0.18250000000E+03  0.00000000000E+00 0. -1.
         11   -1    0    0    0    0 -0.00000000000E+00 -0.00000000000E+00 -0.18250000000E+03  0.18250000000E+03  0.00000000000E+00 0. -1.
        -11    1    1    2    0    0 -0.18128915776E+00 -0.25522043969E+01  0.18101542426E+03  0.18103350638E+03  0.00000000000E+00 0. -1.
         11    1    1    2    0    0  0.14034148834E+01 -0.21267580471E+01 -0.16662943755E+03  0.16664891878E+03  0.00000000000E+00 0. -1.
        -15    1    1    2    0    0  0.99864744478E+00  0.49728788997E+01 -0.44477450054E+01  0.69761727260E+01  0.17770000000E+01 0. -1.
         15    1    1    2    0    0 -0.22207731705E+01 -0.29391645568E+00 -0.99382417071E+01  0.10341402109E+02  0.17770000000E+01 0. -1.
</event>
<event>
 6    1  0.1226227E-002  0.1827906E+03  0.7546771E-02  0.1068224E+00
        -11   -1    0    0    0    0  0.00000000000E+00  0.00000000000E+00  0.18250000000E+03  0.18250000000E+03  0.00000000000E+00 0.  1.
         11   -1    0    0    0    0 -0.00000000000E+00 -0.00000000000E+00 -0.18250000000E+03  0.18250000000E+03  0.00000000000E+00 0.  1.
        -11    1    1    2    0    0  0.23331802780E+01 -0.27836356038E+01  0.18217316967E+03  0.18220937436E+03  0.00000000000E+00 0.  1.
         11    1    1    2    0    0  0.57319186568E+00  0.10701675073E+01 -0.10440776580E+02  0.10511119017E+02  0.00000000000E+00 0.  1.
        -15    1    1    2    0    0 -0.43972203643E+01  0.29002246238E+01 -0.16446899158E+03  0.16456291736E+03  0.17770000000E+01 0.  1.
         15    1    1    2    0    0  0.14908482206E+01 -0.11867565273E+01 -0.72634015099E+01  0.77165892703E+01  0.17770000000E+01 0.  1.
</event>
<event>
 6    1  0.1226227E-002  0.2268536E+03  0.7546771E-02  0.1037776E+00
        -11   -1    0    0    0    0  0.00000000000E+00  0.00000000000E+00  0.18250000000E+03  0.18250000000E+03  0.00000000000E+00 0. -1.
         11   -1    0    0    0    0 -0.00000000000E+00 -0.00000000000E+00 -0.18250000000E+03  0.18250000000E+03  0.00000000000E+00 0. -1.
        -11    1    1    2    0    0  0.46520168089E+01 -0.42381584240E+00  0.13806739660E+03  0.13814639657E+03  0.00000000000E+00 0. -1.
         11    1    1    2    0    0 -0.55028726599E+01  0.25023669925E+02 -0.10912492340E+03  0.11209243762E+03  0.00000000000E+00 0. -1.
        -15    1    1    2    0    0  0.83431779204E+00 -0.35801870677E+02 -0.66487966155E+02  0.75539906027E+02  0.17770000000E+01 0. -1.
         15    1    1    2    0    0  0.16538058901E-01  0.11202016595E+02  0.37545492951E+02  0.39221259786E+02  0.17770000000E+01 0.  1.
</event>
<event>
 6    1  0.1226227E-002  0.1857239E+03  0.7546771E-02  0.1065917E+00
        -11   -1    0    0    0    0  0.00000000000E+00  0.00000000000E+00  0.18250000000E+03  0.18250000000E+03  0.00000000000E+00 0. -1.
         11   -1    0    0    0    0 -0.00000000000E+00 -0.00000000000E+00 -0.18250000000E+03  0.18250000000E+03  0.00000000000E+00 0. -1.
        -11    1    1    2    0    0 -0.18751882810E+01  0.17603675633E+01  0.14351238258E+03  0.14353542830E+03  0.00000000000E+00 0. -1.
         11    1    1    2    0    0  0.17879162549E+01  0.20546112444E+01 -0.17925539914E+03  0.17927608930E+03  0.00000000000E+00 0. -1.
        -15    1    1    2    0    0  0.23678367657E+01 -0.37261525676E+01  0.38137610432E+02  0.38433395925E+02  0.17770000000E+01 0. -1.
         15    1    1    2    0    0 -0.22805647396E+01 -0.88826240046E-01 -0.23945938685E+01  0.37550864740E+01  0.17770000000E+01 0.  1.
</event>
<event>
 6    1  0.1226227E-002  0.1877228E+03  0.7546771E-02  0.1064372E+00
        -11   -1    0    0    0    0  0.00000000000E+00  0.00000000000E+00  0.18250000000E+03  0.18250000000E+03  0.00000000000E+00 0. -1.
         11   -1    0    0    0    0 -0.00000000000E+00 -0.00000000000E+00 -0.18250000000E+03  0.18250000000E+03  0.00000000000E+00 0. -1.
        -11    1    1    2    0    0  0.31945201982E+01  0.11410535493E+01  0.16395578568E+03  0.16399087359E+03  0.00000000000E+00 0. -1.
         11    1    1    2    0    0  0.25910633338E+01  0.10164883859E+02 -0.17696660839E+03  0.17727723756E+03  0.00000000000E+00 0. -1.
        -15    1    1    2    0    0 -0.34736356113E+01 -0.12200697785E+02  0.28493228190E+01  0.13122482248E+02  0.17770000000E+01 0. -1.
         15    1    1    2    0    0 -0.23119479207E+01  0.89476037729E+00  0.10161499889E+02  0.10609406596E+02  0.17770000000E+01 0. -1.
</event>
<event>
 6    1  0.1226227E-002  0.1835127E+03  0.7546771E-02  0.1067652E+00
        -11   -1    0    0    0    0  0.00000000000E+00  0.00000000000E+00  0.18250000000E+03  0.18250000000E+03  0.00000000000E+00 0. -1.
         11   -1    0    0    0    0 -0.00000000000E+00 -0.00000000000E+00 -0.18250000000E+03  0.18250000000E+03  0.00000000000E+00 0.  1.
        -11    1    1    2    0    0  0.33155340040E+01 -0.28466664797E+01  0.16449462302E+03  0.16455265807E+03  0.00000000000E+00 0. -1.
         11    1    1    2    0    0 -0.26189050255E+01  0.46341186477E+01 -0.18140927053E+03  0.18148734709E+03  0.00000000000E+00 0.  1.
        -15    1    1    2    0    0  0.28088155102E+01 -0.29740778081E+01  0.87002785104E+01  0.97768685446E+01  0.17770000000E+01 0.  1.
         15    1    1    2    0    0 -0.35054444887E+01  0.11866256401E+01  0.82143689993E+01  0.91831262939E+01  0.17770000000E+01 0.  1.
</event>
<event>
 6    1  0.1226227E-002  0.1920969E+03  0.7546771E-02  0.1061062E+00
        -11   -1    0    0    0    0  0.00000000000E+00  0.00000000000E+00  0.18250000000E+03  0.18250000000E+03  0.00000000000E+00 0.  1.
         11   -1    0    0    0    0 -0.00000000000E+00 -0.00000000000E+00 -0.18250000000E+03  0.18250000000E+03  0.00000000000E+00 0. -1.
        -11    1    1    2    0    0  0.47153217017E+00  0.40616377102E+01  0.17285475721E+03  0.17290311256E+03  0.00000000000E+00 0.  1.
         11    1    1    2    0    0 -0.56619989063E+00  0.26625641122E+01 -0.16424409009E+03  0.16426664591E+03  0.00000000000E+00 0. -1.
        -15    1    1    2    0    0  0.46293285288E+01 -0.86787644625E-01 -0.16010328097E+02  0.16760863626E+02  0.17770000000E+01 0.  1.
         15    1    1    2    0    0 -0.45346608083E+01 -0.66374141778E+01  0.73996609759E+01  0.11069377904E+02  0.17770000000E+01 0.  1.
</event>
<event>
 6    1  0.1226227E-002  0.1832200E+03  0.7546771E-02  0.1067883E+00
        -11   -1    0    0    0    0  0.00000000000E+00  0.00000000000E+00  0.18250000000E+03  0.18250000000E+03  0.00000000000E+00 0. -1.
         11   -1    0    0    0    0 -0.00000000000E+00 -0.00000000000E+00 -0.18250000000E+03  0.18250000000E+03  0.00000000000E+00 0.  1.
        -11    1    1    2    0    0  0.22168378864E+01 -0.47254422784E+01  0.18170508071E+03  0.18178003336E+03  0.00000000000E+00 0. -1.
         11    1    1    2    0    0 -0.53674103350E+00 -0.42268563984E+00 -0.50150149882E+02  0.50154803232E+02  0.00000000000E+00 0.  1.
        -15    1    1    2    0    0  0.38225593470E+01  0.14118390799E+01 -0.68236234918E+01  0.81440049181E+01  0.17770000000E+01 0. -1.
         15    1    1    2    0    0 -0.55026561999E+01  0.37362888384E+01 -0.12473130733E+03  0.12492115849E+03  0.17770000000E+01 0.  1.
</event>
<event>
 6    1  0.1226227E-002  0.1839163E+03  0.7546771E-02  0.1067333E+00
        -11   -1    0    0    0    0  0.00000000000E+00  0.00000000000E+00  0.18250000000E+03  0.18250000000E+03  0.00000000000E+00 0.  1.
         11   -1    0    0    0    0 -0.00000000000E+00 -0.00000000000E+00 -0.18250000000E+03  0.18250000000E+03  0.00000000000E+00 0. -1.
        -11    1    1    2    0    0  0.73067417777E+01  0.22906693817E+01  0.22377162214E+02  0.23651068272E+02  0.00000000000E+00 0.  1.
         11    1    1    2    0    0 -0.39568745358E+01 -0.58732343013E+00 -0.18103947565E+03  0.18108366450E+03  0.00000000000E+00 0. -1.
        -15    1    1    2    0    0  0.27320772171E+01  0.28781185863E+00  0.29318573789E+01  0.43932446183E+01  0.17770000000E+01 0.  1.
         15    1    1    2    0    0 -0.60819444589E+01 -0.19911578102E+01  0.15573045606E+03  0.15587202261E+03  0.17770000000E+01 0.  1.
</event>
<event>
 6    1  0.1226227E-002  0.1830575E+03  0.7546771E-02  0.1068012E+00
        -11   -1    0    0    0    0  0.00000000000E+00  0.00000000000E+00  0.18250000000E+03  0.18250000000E+03  0.00000000000E+00 0. -1.
         11   -1    0    0    0    0 -0.00000000000E+00 -0.00000000000E+00 -0.18250000000E+03  0.18250000000E+03  0.00000000000E+00 0. -1.
        -11    1    1    2    0    0  0.22361970370E+01  0.28300311967E+01  0.18190678690E+03  0.18194254251E+03  0.00000000000E+00 0. -1.
         11    1    1    2    0    0  0.12749419947E+01  0.67790141194E+00 -0.63065587078E+02  0.63082115540E+02  0.00000000000E+00 0. -1.
        -15    1    1    2    0    0 -0.72348692410E-01  0.27594397273E+01 -0.55744547703E+01  0.64693134820E+01  0.17770000000E+01 0.  1.
         15    1    1    2    0    0 -0.34387903393E+01 -0.62673723359E+01 -0.11326674505E+03  0.11350602847E+03  0.17770000000E+01 0. -1.
</event>
<event>
 6    1  0.1226227E-002  0.1856042E+03  0.7546771E-02  0.1066010E+00
        -11   -1    0    0    0    0  0.00000000000E+00  0.00000000000E+00  0.18250000000E+03  0.18250000000E+03  0.00000000000E+00 0.  1.
         11   -1    0    0    0    0 -0.00000000000E+00 -0.00000000000E+00 -0.18250000000E+03  0.18250000000E+03  0.00000000000E+00 0. -1.
        -11    1    1    2    0    0  0.45205928287E+01  0.61549393417E+01  0.16090818624E+03  0.16108930268E+03  0.00000000000E+00 0.  1.
         11    1    1    2    0    0  0.44033480067E+01 -0.85739275871E+00 -0.17933966903E+03  0.17939576774E+03  0.00000000000E+00 0. -1.
        -15    1    1    2    0    0 -0.68118796661E+01 -0.60284086565E+01  0.19399664014E+02  0.21499956009E+02  0.17770000000E+01 0. -1.
         15    1    1    2    0    0 -0.21120611693E+01  0.73086207354E+00 -0.96818122911E+00  0.30149735730E+01  0.17770000000E+01 0.  1.
</event>
<event>
 6    1  0.1226227E-002  0.1861561E+03  0.7546771E-02  0.1065581E+00
        -11   -1    0    0    0    0  0.00000000000E+00  0.00000000000E+00  0.18250000000E+03  0.18250000000E+03  0.00000000000E+00 0.  1.
         11   -1    0    0    0    0 -0.00000000000E+00 -0.00000000000E+00 -0.18250000000E+03  0.18250000000E+03  0.00000000000E+00 0. -1.
        -11    1    1    2    0    0  0.32188608169E+01  0.10088769490E+02  0.49266573746E+02  0.50391860686E+02  0.00000000000E+00 0.  1.
         11    1    1    2    0    0 -0.15993301822E+02  0.33687695718E+01 -0.17809553714E+03  0.17884393940E+03  0.00000000000E+00 0. -1.
        -15    1    1    2    0    0  0.10930463635E+02 -0.12192019818E+01  0.67072820697E+01  0.13004108985E+02  0.17770000000E+01 0. -1.
         15    1    1    2    0    0  0.18439773701E+01 -0.12238337080E+02  0.12212168132E+03  0.12276009093E+03  0.17770000000E+01 0.  1.
</event>
<event>
 6    1  0.1226227E-002  0.2125612E+03  0.7546771E-02  0.1046763E+00
        -11   -1    0    0    0    0  0.00000000000E+00  0.00000000000E+00  0.18250000000E+03  0.18250000000E+03  0.00000000000E+00 0. -1.
         11   -1    0    0    0    0 -0.00000000000E+00 -0.00000000000E+00 -0.18250000000E+03  0.18250000000E+03  0.00000000000E+00 0. -1.
        -11    1    1    2    0    0 -0.60816369369E+01 -0.93601585266E+00  0.13528286790E+03  0.13542273362E+03  0.00000000000E+00 0. -1.
         11    1    1    2    0    0 -0.12572754653E+02 -0.12519625101E+02 -0.15140265531E+03  0.15243877199E+03  0.00000000000E+00 0. -1.
        -15    1    1    2    0    0  0.14045082079E+02  0.80071135361E+01 -0.28015565095E+02  0.32394564580E+02  0.17770000000E+01 0. -1.
         15    1    1    2    0    0  0.46093095108E+01  0.54485274175E+01  0.44135352498E+02  0.44743929804E+02  0.17770000000E+01 0.  1.
</event>
<event>
 6    1  0.1226227E-002  0.2003766E+03  0.7546771E-02  0.1055053E+00
        -11   -1    0    0    0    0  0.00000000000E+00  0.00000000000E+00  0.18250000000E+03  0.18250000000E+03  0.00000000000E+00 0.  1.
         11   -1    0    0    0    0 -0.00000000000E+00 -0.00000000000E+00 -0.18250000000E+03  0.18250000000E+03  0.00000000000E+00 0. -1.
        -11    1    1    2    0    0  0.29856586938E+01  0.52434978968E+01  0.16139383873E+03  0.16150659308E+03  0.00000000000E+00 0.  1.
         11    1    1    2    0    0 -0.14263299112E+01 -0.73884937707E+01 -0.16445134661E+03  0.16462341771E+03  0.00000000000E+00 0. -1.
        -15    1    1    2    0    0 -0.17773782921E+00  0.20338791826E+02  0.16122913986E+01  0.20480606832E+02  0.17770000000E+01 0.  1.
         15    1    1    2    0    0 -0.13815909534E+01 -0.18193795952E+02  0.14452164824E+01  0.18389382382E+02  0.17770000000E+01 0. -1.
</event>
<event>
 6    1  0.1226227E-002  0.1859592E+03  0.7546771E-02  0.1065734E+00
        -11   -1    0    0    0    0  0.00000000000E+00  0.00000000000E+00  0.18250000000E+03  0.18250000000E+03  0.00000000000E+00 0.  1.
         11   -1    0    0    0    0 -0.00000000000E+00 -0.00000000000E+00 -0.18250000000E+03  0.18250000000E+03  0.00000000000E+00 0.  1.
        -11    1    1    2    0    0  0.19283301360E+01 -0.27695386451E+01  0.16461713856E+03  0.16465172671E+03  0.00000000000E+00 0.  1.
         11    1    1    2    0    0  0.34196373719E+01  0.72180828692E+01 -0.17886256466E+03  0.17904081009E+03  0.00000000000E+00 0.  1.
        -15    1    1    2    0    0  0.99454568583E+00  0.21993731421E+01  0.11001908292E+02  0.11402897807E+02  0.17770000000E+01 0. -1.
         15    1    1    2    0    0 -0.63425131937E+01 -0.66479173661E+01  0.32435178126E+01  0.99045653978E+01  0.17770000000E+01 0.  1.
</event>
<event>
 6    1  0.1226227E-002  0.1847128E+03  0.7546771E-02  0.1066707E+00
        -11   -1    0    0    0    0  0.00000000000E+00  0.00000000000E+00  0.18250000000E+03  0.18250000000E+03  0.00000000000E+00 0.  1.
         11   -1    0    0    0    0 -0.00000000000E+00 -0.00000000000E+00 -0.18250000000E+03  0.18250000000E+03  0.00000000000E+00 0. -1.
        -11    1    1    2    0    0 -0.37144795755E+01  0.18377188566E+01  0.18023958342E+03  0.18028722085E+03  0.00000000000E+00 0.  1.
         11    1    1    2    0    0 -0.24821283443E+01  0.31812814799E+01 -0.15301245617E+03  0.15306565015E+03  0.00000000000E+00 0. -1.
        -15    1    1    2    0    0  0.41106770497E+01 -0.45973044995E+01 -0.26983489580E+01  0.69621613431E+01  0.17770000000E+01 0. -1.
         15    1    1    2    0    0  0.20859308701E+01 -0.42169583706E+00 -0.24528778292E+02  0.24684967661E+02  0.17770000000E+01 0.  1.
</event>
<event>
 6    1  0.1226227E-002  0.2051548E+03  0.7546771E-02  0.1051728E+00
        -11   -1    0    0    0    0  0.00000000000E+00  0.00000000000E+00  0.18250000000E+03  0.18250000000E+03  0.00000000000E+00 0.  1.
         11   -1    0    0    0    0 -0.00000000000E+00 -0.00000000000E+00 -0.18250000000E+03  0.18250000000E+03  0.00000000000E+00 0.  1.
        -11    1    1    2    0    0  0.57379500649E+01  0.27679825506E+00  0.10718139250E+03  0.10733522994E+03  0.00000000000E+00 0.  1.
         11    1    1    2    0    0  0.89007176956E+00  0.31484326943E+01 -0.15981174654E+03  0.15984523511E+03  0.00000000000E+00 0.  1.
        -15    1    1    2    0    0  0.83814544844E+00 -0.45024001053E+01 -0.22124868787E+02  0.22663663480E+02  0.17770000000E+01 0.  1.
         15    1    1    2    0    0 -0.74661672829E+01  0.10771691560E+01  0.74755222823E+02  0.75155871465E+02  0.17770000000E+01 0. -1.
</event>
<event>
 6    1  0.1226227E-002  0.1762681E+03  0.7546771E-02  0.1073527E+00
        -11   -1    0    0    0    0  0.00000000000E+00  0.00000000000E+00  0.18250000000E+03  0.18250000000E+03  0.00000000000E+00 0.  1.
         11   -1    0    0    0    0 -0.00000000000E+00 -0.00000000000E+00 -0.18250000000E+03  0.18250000000E+03  0.00000000000E+00 0. -1.
        -11    1    1    2    0    0 -0.12338004509E+00  0.34162365020E+01  0.17619275436E+03  0.17622591349E+03  0.00000000000E+00 0.  1.
         11    1    1    2    0    0 -0.23335327618E+01 -0.79332740549E+00 -0.17631133735E+03  0.17632856383E+03  0.00000000000E+00 0. -1.
        -15    1    1    2    0    0 -0.33880538249E+00 -0.84745783872E+00 -0.54062199919E+01  0.57634987183E+01  0.17770000000E+01 0.  1.
         15    1    1    2    0    0  0.27957181894E+01 -0.17754512578E+01  0.55248029770E+01  0.66820239672E+01  0.17770000000E+01 0. -1.
</event>
<event>
 6    1  0.1226227E-002  0.1849158E+03  0.7546771E-02  0.1066548E+00
        -11   -1    0    0    0    0  0.00000000000E+00  0.00000000000E+00  0.18250000000E+03  0.18250000000E+03  0.00000000000E+00 0.  1.
         11   -1    0    0    0    0 -0.00000000000E+00 -0.00000000000E+00 -0.18250000000E+03  0.18250000000E+03  0.00000000000E+00 0.  1.
        -11    1    1    2    0    0 -0.74281211939E+00 -0.17613306533E+01  0.88051297838E+02  0.88072044978E+02  0.00000000000E+00 0.  1.
         11    1    1    2    0    0 -0.49607742492E+01 -0.90821838020E+01 -0.17978659569E+03  0.18008418957E+03  0.00000000000E+00 0.  1.
        -15    1    1    2    0    0 -0.25149180876E+01  0.94022485027E+01  0.85992713854E+02  0.86559988764E+02  0.17770000000E+01 0. -1.
         15    1    1    2    0    0  0.82185044562E+01  0.14412659525E+01  0.57425839959E+01  0.10283776689E+02  0.17770000000E+01 0.  1.
</event>
<event>
 6    1  0.1226227E-002  0.1888324E+03  0.7546771E-02  0.1063523E+00
        -11   -1    0    0    0    0  0.00000000000E+00  0.00000000000E+00  0.18250000000E+03  0.18250000000E+03  0.00000000000E+00 0.  1.
         11   -1    0    0    0    0 -0.00000000000E+00 -0.00000000000E+00 -0.18250000000E+03  0.18250000000E+03  0.00000000000E+00 0.  1.
        -11    1    1    2    0    0 -0.81107396782E+01 -0.68877784823E+00  0.16951973822E+03  0.16971505578E+03  0.00000000000E+00 0.  1.
         11    1    1    2    0    0  0.47621833699E+01 -0.15379815460E+00 -0.17610318223E+03  0.17616762710E+03  0.00000000000E+00 0.  1.
        -15    1    1    2    0    0  0.21678143136E+01  0.20554609597E+01 -0.56535688816E+01  0.66366338421E+01  0.17770000000E+01 0.  1.
         15    1    1    2    0    0  0.11807419947E+01 -0.12128849568E+01  0.12237012894E+02  0.12480683280E+02  0.17770000000E+01 0. -1.
</event>
<event>
 6    1  0.1226227E-002  0.1961177E+03  0.7546771E-02  0.1058104E+00
        -11   -1    0    0    0    0  0.00000000000E+00  0.00000000000E+00  0.18250000000E+03  0.18250000000E+03  0.00000000000E+00 0. -1.
         11   -1    0    0    0    0 -0.00000000000E+00 -0.00000000000E+00 -0.18250000000E+03  0.18250000000E+03  0.00000000000E+00 0.  1.
        -11    1    1    2    0    0  0.16622819868E+01 -0.17217384546E+01  0.16886530523E+03  0.16888226336E+03  0.00000000000E+00 0. -1.
         11    1    1    2    0    0  0.65345965093E+00  0.10605789211E+02 -0.15575545412E+03  0.15611749186E+03  0.00000000000E+00 0.  1.
        -15    1    1    2    0    0 -0.95003128646E+01 -0.17941730162E+02  0.24588019298E+01  0.20527178609E+02  0.17770000000E+01 0.  1.
         15    1    1    2    0    0  0.71845712269E+01  0.90576794051E+01 -0.15568653038E+02  0.19473066177E+02  0.17770000000E+01 0. -1.
</event>
<event>
 6    1  0.1226227E-002  0.1397126E+03  0.7546771E-02  0.1108760E+00
        -11   -1    0    0    0    0  0.00000000000E+00  0.00000000000E+00  0.18250000000E+03  0.18250000000E+03  0.00000000000E+00 0. -1.
         11   -1    0    0    0    0 -0.00000000000E+00 -0.00000000000E+00 -0.18250000000E+03  0.18250000000E+03  0.00000000000E+00 0.  1.
        -11    1    1    2    0    0 -0.13802557118E+02  0.30883264896E+00  0.14614843253E+03  0.14679908137E+03  0.00000000000E+00 0. -1.
         11    1    1    2    0    0  0.16896384884E+02  0.37429579920E+02 -0.12931776470E+03  0.13568178044E+03  0.00000000000E+00 0.  1.
        -15    1    1    2    0    0 -0.17682595070E+02 -0.30531315326E+02 -0.40499256682E+02  0.53741817095E+02  0.17770000000E+01 0.  1.
         15    1    1    2    0    0  0.14588767304E+02 -0.72070972429E+01  0.23668588858E+02  0.28777321099E+02  0.17770000000E+01 0. -1.
</event>
<event>
 6    1  0.1226227E-002  0.1825670E+03  0.7546771E-02  0.1068402E+00
        -11   -1    0    0    0    0  0.00000000000E+00  0.00000000000E+00  0.18250000000E+03  0.18250000000E+03  0.00000000000E+00 0.  1.
         11   -1    0    0    0    0 -0.00000000000E+00 -0.00000000000E+00 -0.18250000000E+03  0.18250000000E+03  0.00000000000E+00 0. -1.
        -11    1    1    2    0    0 -0.98527403374E+00 -0.55862884762E-01  0.33012508726E+02  0.33027255683E+02  0.00000000000E+00 0.  1.
         11    1    1    2    0    0  0.57657775367E+00  0.31667274296E+01 -0.18240462584E+03  0.18243302369E+03  0.00000000000E+00 0. -1.
        -15    1    1    2    0    0 -0.73738631484E-01 -0.38614244056E+01  0.12270671894E+03  0.12278034304E+03  0.17770000000E+01 0.  1.
         15    1    1    2    0    0  0.48243491156E+00  0.75055986079E+00  0.26685398183E+02  0.26759377585E+02  0.17770000000E+01 0.  1.
</event>
<event>
 6    1  0.1226227E-002  0.1841803E+03  0.7546771E-02  0.1067125E+00
        -11   -1    0    0    0    0  0.00000000000E+00  0.00000000000E+00  0.18250000000E+03  0.18250000000E+03  0.00000000000E+00 0. -1.
         11   -1    0    0    0    0 -0.00000000000E+00 -0.00000000000E+00 -0.18250000000E+03  0.18250000000E+03  0.00000000000E+00 0.  1.
        -11    1    1    2    0    0  0.35354057841E+01  0.34290344368E+01  0.17699187368E+03  0.17706038722E+03  0.00000000000E+00 0. -1.
         11    1    1    2    0    0 -0.39257656109E+01  0.20069261653E+00 -0.18077695375E+03  0.18081968621E+03  0.00000000000E+00 0.  1.
        -15    1    1    2    0    0 -0.51163964726E+00 -0.31013141565E+01  0.11820325269E+01  0.37993229029E+01  0.17770000000E+01 0.  1.
         15    1    1    2    0    0  0.90199947408E+00 -0.52841289685E+00  0.26030475409E+01  0.33206036712E+01  0.17770000000E+01 0. -1.
</event>
<event>
 6    1  0.1226227E-002  0.1826266E+03  0.7546771E-02  0.1068354E+00
        -11   -1    0    0    0    0  0.00000000000E+00  0.00000000000E+00  0.18250000000E+03  0.18250000000E+03  0.00000000000E+00 0. -1.
         11   -1    0    0    0    0 -0.00000000000E+00 -0.00000000000E+00 -0.18250000000E+03  0.18250000000E+03  0.00000000000E+00 0.  1.
        -11    1    1    2    0    0 -0.25512124028E+01  0.58611888211E+00  0.38152463959E+02  0.38242159016E+02  0.00000000000E+00 0. -1.
         11    1    1    2    0    0  0.29972698431E+01  0.12121301675E+01 -0.18234473764E+03  0.18237339782E+03  0.00000000000E+00 0.  1.
        -15    1    1    2    0    0 -0.15735500848E+00  0.15898792226E+01  0.99229920541E+02  0.99258688971E+02  0.17770000000E+01 0. -1.
         15    1    1    2    0    0 -0.28870243177E+00 -0.33881282721E+01  0.44962353144E+02  0.45125754193E+02  0.17770000000E+01 0.  1.
</event>
<event>
 6    1  0.1226227E-002  0.1828966E+03  0.7546771E-02  0.1068140E+00
        -11   -1    0    0    0    0  0.00000000000E+00  0.00000000000E+00  0.18250000000E+03  0.18250000000E+03  0.00000000000E+00 0. -1.
         11   -1    0    0    0    0 -0.00000000000E+00 -0.00000000000E+00 -0.18250000000E+03  0.18250000000E+03  0.00000000000E+00 0. -1.
        -11    1    1    2    0    0  0.51181680651E+01 -0.10050229431E+01  0.18202872223E+03  0.18210343608E+03  0.00000000000E+00 0. -1.
         11    1    1    2    0    0 -0.16478622526E+01 -0.29208011902E+01 -0.11406177263E+03  0.11411106215E+03  0.00000000000E+00 0. -1.
        -15    1    1    2    0    0 -0.23980313337E+01  0.59919560889E+01 -0.31623753907E+02  0.32324505135E+02  0.17770000000E+01 0. -1.
         15    1    1    2    0    0 -0.10722744788E+01 -0.20661319557E+01 -0.36343195694E+02  0.36460996641E+02  0.17770000000E+01 0.  1.
</event>
<event>
 6    1  0.1226227E-002  0.1826027E+03  0.7546771E-02  0.1068373E+00
        -11   -1    0    0    0    0  0.00000000000E+00  0.00000000000E+00  0.18250000000E+03  0.18250000000E+03  0.00000000000E+00 0. -1.
         11   -1    0    0    0    0 -0.00000000000E+00 -0.00000000000E+00 -0.18250000000E+03  0.18250000000E+03  0.00000000000E+00 0.  1.
        -11    1    1    2    0    0  0.52926063588E+00 -0.45081444306E+00  0.11521438561E+02  0.11542395636E+02  0.00000000000E+00 0. -1.
         11    1    1    2    0    0  0.31872435158E+01 -0.57566560989E+01 -0.18227858353E+03  0.18239731255E+03  0.00000000000E+00 0.  1.
        -15    1    1    2    0    0  0.39194385799E+00  0.10063644638E+01  0.14057611987E+02  0.14210579622E+02  0.17770000000E+01 0.  1.
         15    1    1    2    0    0 -0.41084480097E+01  0.52011060782E+01  0.15669953298E+03  0.15684971219E+03  0.17770000000E+01 0. -1.
</event>
<event>
 6    1  0.1226227E-002  0.1830019E+03  0.7546771E-02  0.1068056E+00
        -11   -1    0    0    0    0  0.00000000000E+00  0.00000000000E+00  0.18250000000E+03  0.18250000000E+03  0.00000000000E+00 0.  1.
         11   -1    0    0    0    0 -0.00000000000E+00 -0.00000000000E+00 -0.18250000000E+03  0.18250000000E+03  0.00000000000E+00 0.  1.
        -11    1    1    2    0    0  0.15013272414E+01  0.37828615980E+01  0.13236547547E+03  0.13242802997E+03  0.00000000000E+00 0.  1.
         11    1    1    2    0    0  0.55535662372E+00  0.32094422176E+01 -0.18196892913E+03  0.18199807721E+03  0.00000000000E+00 0.  1.
        -15    1    1    2    0    0 -0.31673988859E+01 -0.61247906199E+01  0.43148086089E+02  0.43731688030E+02  0.17770000000E+01 0. -1.
         15    1    1    2    0    0  0.11107150208E+01 -0.86751319572E+00  0.64553675666E+01  0.68422047925E+01  0.17770000000E+01 0. -1.
</event>
<event>
 6    1  0.1226227E-002  0.1835173E+03  0.7546771E-02  0.1067648E+00
        -11   -1    0    0    0    0  0.00000000000E+00  0.00000000000E+00  0.18250000000E+03  0.18250000000E+03  0.00000000000E+00 0. -1.
         11   -1    0    0    0    0 -0.00000000000E+00 -0.00000000000E+00 -0.18250000000E+03  0.18250000000E+03  0.00000000000E+00 0.  1.
        -11    1    1    2    0    0  0.24989059268E+01  0.13739039333E+01  0.18146033484E+03  0.18148274095E+03  0.00000000000E+00 0. -1.
         11    1    1    2    0    0 -0.72202489494E+01  0.40642055864E+01 -0.66025822060E+02  0.66543661912E+02  0.00000000000E+00 0.  1.
        -15    1    1    2    0    0  0.10233084111E+02 -0.72946409359E+01 -0.84384803305E+02  0.85333935539E+02  0.17770000000E+01 0.  1.
         15    1    1    2    0    0 -0.55117410885E+01  0.18565314162E+01 -0.31049709474E+02  0.31639661600E+02  0.17770000000E+01 0. -1.
</event>
<event>
 6    1  0.1226227E-002  0.1838184E+03  0.7546771E-02  0.1067410E+00
        -11   -1    0    0    0    0  0.00000000000E+00  0.00000000000E+00  0.18250000000E+03  0.18250000000E+03  0.00000000000E+00 0.  1.
         11   -1    0    0    0    0 -0.00000000000E+00 -0.00000000000E+00 -0.18250000000E+03  0.18250000000E+03  0.00000000000E+00 0. -1.
        -11    1    1    2    0    0  0.26660845058E+01  0.23281539659E+01  0.18114704343E+03  0.18118162062E+03  0.00000000000E+00 0.  1.
         11    1    1    2    0    0  0.43690086578E+01 -0.26438029406E+00 -0.11018391903E+03  0.11027082183E+03  0.00000000000E+00 0. -1.
        -15    1    1    2    0    0 -0.25935723041E+01 -0.80263419411E+00 -0.97965097176E+00  0.33894371173E+01  0.17770000000E+01 0.  1.
         15    1    1    2    0    0 -0.44415208596E+01 -0.12611394777E+01 -0.69983473428E+02  0.70158120431E+02  0.17770000000E+01 0. -1.
</event>
<event>
 6    1  0.1226227E-002  0.1825745E+03  0.7546771E-02  0.1068396E+00
        -11   -1    0    0    0    0  0.00000000000E+00  0.00000000000E+00  0.18250000000E+03  0.18250000000E+03  0.00000000000E+00 0.  1.
         11   -1    0    0    0    0 -0.00000000000E+00 -0.00000000000E+00 -0.18250000000E+03  0.18250000000E+03  0.00000000000E+00 0.  1.
        -11    1    1    2    0    0  0.20375167571E+00  0.43066218389E+01  0.18237454864E+03  0.18242550397E+03  0.00000000000E+00 0.  1.
         11    1    1    2    0    0  0.58160520105E+00  0.27674121464E+00 -0.22095223539E+02  0.22104609328E+02  0.00000000000E+00 0.  1.
        -15    1    1    2    0    0  0.76715099083E+00 -0.50532798272E+01 -0.11201081664E+03  0.11214145055E+03  0.17770000000E+01 0.  1.
         15    1    1    2    0    0 -0.15525078676E+01  0.46991677367E+00 -0.48268508464E+02  0.48328436151E+02  0.17770000000E+01 0.  1.
</event>
<event>
 6    1  0.1226227E-002  0.1868319E+03  0.7546771E-02  0.1065058E+00
        -11   -1    0    0    0    0  0.00000000000E+00  0.00000000000E+00  0.18250000000E+03  0.18250000000E+03  0.00000000000E+00 0. -1.
         11   -1    0    0    0    0 -0.00000000000E+00 -0.00000000000E+00 -0.18250000000E+03  0.18250000000E+03  0.00000000000E+00 0. -1.
        -11    1    1    2    0    0  0.11593593784E+00  0.82212610108E+01  0.16470206351E+03  0.16490716267E+03  0.00000000000E+00 0. -1.
         11    1    1    2    0    0  0.26976624458E+01 -0.12420458944E+01 -0.17814330033E+03  0.17816805413E+03  0.00000000000E+00 0. -1.
        -15    1    1    2    0    0 -0.63498643243E+00  0.31459140319E+01 -0.12382475212E+01  0.38718172464E+01  0.17770000000E+01 0. -1.
         15    1    1    2    0    0 -0.21786119512E+01 -0.10125129148E+02  0.14679484341E+02  0.18052965956E+02  0.17770000000E+01 0. -1.
</event>
<event>
 6    1  0.1226227E-002  0.1970941E+03  0.7546771E-02  0.1057397E+00
        -11   -1    0    0    0    0  0.00000000000E+00  0.00000000000E+00  0.18250000000E+03  0.18250000000E+03  0.00000000000E+00 0. -1.
         11   -1    0    0    0    0 -0.00000000000E+00 -0.00000000000E+00 -0.18250000000E+03  0.18250000000E+03  0.00000000000E+00 0. -1.
        -11    1    1    2    0    0  0.28091283055E+01 -0.29656034903E+01  0.16785618174E+03  0.16790587767E+03  0.00000000000E+00 0. -1.
         11    1    1    2    0    0  0.86920146480E+01  0.87981619603E+00 -0.15387542357E+03  0.15412323373E+03  0.00000000000E+00 0. -1.
        -15    1    1    2    0    0  0.13009946220E+02  0.73144228108E+01 -0.84533269066E+01  0.17244591804E+02  0.17770000000E+01 0.  1.
         15    1    1    2    0    0 -0.24511089174E+02 -0.52286355165E+01 -0.55274312649E+01  0.25726296804E+02  0.17770000000E+01 0. -1.
</event>
<event>
 6    1  0.1226227E-002  0.1891735E+03  0.7546771E-02  0.1063263E+00
        -11   -1    0    0    0    0  0.00000000000E+00  0.00000000000E+00  0.18250000000E+03  0.18250000000E+03  0.00000000000E+00 0.  1.
         11   -1    0    0    0    0 -0.00000000000E+00 -0.00000000000E+00 -0.18250000000E+03  0.18250000000E+03  0.00000000000E+00 0.  1.
        -11    1    1    2    0    0  0.12422398193E+01  0.29969277699E+01  0.16234714744E+03  0.16237955850E+03  0.00000000000E+00 0.  1.
         11    1    1    2    0    0  0.43907556917E+01  0.29565839480E+01 -0.17574675891E+03  0.17582645816E+03  0.00000000000E+00 0.  1.
        -15    1    1    2    0    0 -0.98005782827E+00  0.53763344885E+01  0.13221544691E+02  0.14416395489E+02  0.17770000000E+01 0.  1.
         15    1    1    2    0    0 -0.46529376826E+01 -0.11329846206E+02  0.17806677379E+00  0.12377587847E+02  0.17770000000E+01 0. -1.
</event>
<event>
 6    1  0.1226227E-002  0.1871482E+03  0.7546771E-02  0.1064814E+00
        -11   -1    0    0    0    0  0.00000000000E+00  0.00000000000E+00  0.18250000000E+03  0.18250000000E+03  0.00000000000E+00 0.  1.
         11   -1    0    0    0    0 -0.00000000000E+00 -0.00000000000E+00 -0.18250000000E+03  0.18250000000E+03  0.00000000000E+00 0.  1.
        -11    1    1    2    0    0 -0.17111145028E+01 -0.19765225968E+01  0.17020209485E+03  0.17022217143E+03  0.00000000000E+00 0.  1.
         11    1    1    2    0    0  0.25729383655E+01  0.17075514521E+01 -0.17782503704E+03  0.17785184717E+03  0.00000000000E+00 0.  1.
        -15    1    1    2    0    0 -0.46237959116E+01  0.46269751932E+00 -0.27949102831E+01  0.57063850306E+01  0.17770000000E+01 0.  1.
         15    1    1    2    0    0  0.37619720490E+01 -0.19372637463E+00  0.10417852473E+02  0.11219596372E+02  0.17770000000E+01 0.  1.
</event>
<event>
 6    1  0.1226227E-002  0.1838036E+03  0.7546771E-02  0.1067422E+00
        -11   -1    0    0    0    0  0.00000000000E+00  0.00000000000E+00  0.18250000000E+03  0.18250000000E+03  0.00000000000E+00 0. -1.
         11   -1    0    0    0    0 -0.00000000000E+00 -0.00000000000E+00 -0.18250000000E+03  0.18250000000E+03  0.00000000000E+00 0. -1.
        -11    1    1    2    0    0  0.25943412631E+00 -0.33211775482E+01  0.16092155267E+03  0.16095603014E+03  0.00000000000E+00 0. -1.
         11    1    1    2    0    0 -0.24938294550E+01  0.66973116268E+01 -0.18105538326E+03  0.18119637131E+03  0.00000000000E+00 0. -1.
        -15    1    1    2    0    0  0.31047707421E+01  0.24569113134E+01  0.57790120798E+01  0.72270826881E+01  0.17770000000E+01 0. -1.
         15    1    1    2    0    0 -0.87037541344E+00 -0.58330453919E+01  0.14354818519E+02  0.15620515857E+02  0.17770000000E+01 0.  1.
</event>
<event>
 6    1  0.1226227E-002  0.1838937E+03  0.7546771E-02  0.1067351E+00
        -11   -1    0    0    0    0  0.00000000000E+00  0.00000000000E+00  0.18250000000E+03  0.18250000000E+03  0.00000000000E+00 0.  1.
         11   -1    0    0    0    0 -0.00000000000E+00 -0.00000000000E+00 -0.18250000000E+03  0.18250000000E+03  0.00000000000E+00 0.  1.
        -11    1    1    2    0    0 -0.33143167949E+01 -0.39950415322E+01  0.15539816217E+03  0.15548483481E+03  0.00000000000E+00 0.  1.
         11    1    1    2    0    0  0.72392791156E+01  0.18882194361E+01 -0.18095165580E+03  0.18110625133E+03  0.00000000000E+00 0.  1.
        -15    1    1    2    0    0 -0.18711988000E+01 -0.23217008833E+00 -0.14429140922E-01  0.25909892125E+01  0.17770000000E+01 0.  1.
         15    1    1    2    0    0 -0.20537635207E+01  0.23389921844E+01  0.25567922772E+02  0.25817924644E+02  0.17770000000E+01 0. -1.
</event>
<event>
 6    1  0.1226227E-002  0.1828398E+03  0.7546771E-02  0.1068185E+00
        -11   -1    0    0    0    0  0.00000000000E+00  0.00000000000E+00  0.18250000000E+03  0.18250000000E+03  0.00000000000E+00 0. -1.
         11   -1    0    0    0    0 -0.00000000000E+00 -0.00000000000E+00 -0.18250000000E+03  0.18250000000E+03  0.00000000000E+00 0. -1.
        -11    1    1    2    0    0 -0.10780832222E+01 -0.43193752122E+01  0.18210580878E+03  0.18216021755E+03  0.00000000000E+00 0. -1.
         11    1    1    2    0    0 -0.42499780377E+01  0.17369579058E+01 -0.11124861049E+03  0.11134330996E+03  0.00000000000E+00 0. -1.
        -15    1    1    2    0    0  0.30370859740E+01  0.37053625532E+01 -0.24087874705E+02  0.24623911949E+02  0.17770000000E+01 0. -1.
         15    1    1    2    0    0  0.22909752860E+01 -0.11229452468E+01 -0.46769323585E+02  0.46872560538E+02  0.17770000000E+01 0.  1.
</event>
<event>
 6    1  0.1226227E-002  0.1802252E+03  0.7546771E-02  0.1070280E+00
        -11   -1    0    0    0    0  0.00000000000E+00  0.00000000000E+00  0.18250000000E+03  0.18250000000E+03  0.00000000000E+00 0.  1.
         11   -1    0    0    0    0 -0.00000000000E+00 -0.00000000000E+00 -0.18250000000E+03  0.18250000000E+03  0.00000000000E+00 0. -1.
        -11    1    1    2    0    0  0.34125194076E+01  0.19880627306E+01  0.17999259001E+03  0.18003591347E+03  0.00000000000E+00 0.  1.
         11    1    1    2    0    0 -0.31098546229E+01 -0.39444777114E-01 -0.18039334503E+03  0.18042015321E+03  0.00000000000E+00 0. -1.
        -15    1    1    2    0    0  0.44365663150E+00 -0.38259318412E+00  0.78856041165E+00  0.20304593751E+01  0.17770000000E+01 0.  1.
         15    1    1    2    0    0 -0.74632141621E+00 -0.15660247693E+01 -0.38780538691E+00  0.25134739411E+01  0.17770000000E+01 0. -1.
</event>
<event>
 6    1  0.1226227E-002  0.1850171E+03  0.7546771E-02  0.1066469E+00
        -11   -1    0    0    0    0  0.00000000000E+00  0.00000000000E+00  0.18250000000E+03  0.18250000000E+03  0.00000000000E+00 0. -1.
         11   -1    0    0    0    0 -0.00000000000E+00 -0.00000000000E+00 -0.18250000000E+03  0.18250000000E+03  0.00000000000E+00 0. -1.
        -11    1    1    2    0    0  0.20096953864E+00  0.41384321976E+01  0.17993516883E+03  0.17998286583E+03  0.00000000000E+00 0. -1.
         11    1    1    2    0    0  0.26630331320E+01 -0.35069355827E+01 -0.16909671025E+03  0.16915403560E+03  0.00000000000E+00 0. -1.
        -15    1    1    2    0    0  0.14086430504E+01 -0.41669479409E+01 -0.17248896000E+01  0.50478414711E+01  0.17770000000E+01 0.  1.
         15    1    1    2    0    0 -0.42726457210E+01  0.35354513259E+01 -0.91135689810E+01  0.10815257098E+02  0.17770000000E+01 0.  1.
</event>
<event>
 6    1  0.1226227E-002  0.1831572E+03  0.7546771E-02  0.1067933E+00
        -11   -1    0    0    0    0  0.00000000000E+00  0.00000000000E+00  0.18250000000E+03  0.18250000000E+03  0.00000000000E+00 0.  1.
         11   -1    0    0    0    0 -0.00000000000E+00 -0.00000000000E+00 -0.18250000000E+03  0.18250000000E+03  0.00000000000E+00 0. -1.
        -11    1    1    2    0    0 -0.11561482974E+01 -0.10197213138E+00  0.79731542406E+02  0.79739989539E+02  0.00000000000E+00 0.  1.
         11    1    1    2    0    0  0.38473620591E+01  0.41226035996E+00 -0.18180159594E+03  0.18184276846E+03  0.00000000000E+00 0. -1.
        -15    1    1    2    0    0 -0.41476654187E+00  0.40619337711E+01  0.91609794426E+02  0.91717956262E+02  0.17770000000E+01 0.  1.
         15    1    1    2    0    0 -0.22764472199E+01 -0.43722219996E+01  0.10460259111E+02  0.11699285740E+02  0.17770000000E+01 0. -1.
</event>
<event>
 6    1  0.1226227E-002  0.1841880E+03  0.7546771E-02  0.1067119E+00
        -11   -1    0    0    0    0  0.00000000000E+00  0.00000000000E+00  0.18250000000E+03  0.18250000000E+03  0.00000000000E+00 0. -1.
         11   -1    0    0    0    0 -0.00000000000E+00 -0.00000000000E+00 -0.18250000000E+03  0.18250000000E+03  0.00000000000E+00 0. -1.
        -11    1    1    2    0    0 -0.74300516087E+00  0.92150861020E+01  0.10249782808E+03  0.10291391854E+03  0.00000000000E+00 0. -1.
         11    1    1    2    0    0 -0.23761366061E+01 -0.19453281139E+01 -0.18078592617E+03  0.18081200576E+03  0.00000000000E+00 0. -1.
        -15    1    1    2    0    0  0.74847579926E+00 -0.85492553309E+01  0.77443980248E+02  0.77938294749E+02  0.17770000000E+01 0. -1.
         15    1    1    2    0    0  0.23706659677E+01  0.12794973428E+01  0.84411784259E+00  0.33357809450E+01  0.17770000000E+01 0. -1.
</event>
<event>
 6    1  0.1226227E-002  0.1842114E+03  0.7546771E-02  0.1067101E+00
        -11   -1    0    0    0    0  0.00000000000E+00  0.00000000000E+00  0.18250000000E+03  0.18250000000E+03  0.00000000000E+00 0. -1.
         11   -1    0    0    0    0 -0.00000000000E+00 -0.00000000000E+00 -0.18250000000E+03  0.18250000000E+03  0.00000000000E+00 0. -1.
        -11    1    1    2    0    0  0.38081048442E+01 -0.50079426238E+00  0.18074780541E+03  0.18078861031E+03  0.00000000000E+00 0. -1.
         11    1    1    2    0    0 -0.17954469859E+01  0.14155375109E+01 -0.12594079607E+03  0.12596154767E+03  0.00000000000E+00 0. -1.
        -15    1    1    2    0    0 -0.58258888314E+01 -0.48543225080E+01 -0.50390011518E+02  0.50988394930E+02  0.17770000000E+01 0. -1.
         15    1    1    2    0    0  0.38132309731E+01  0.39395792595E+01 -0.44169978202E+01  0.72614470968E+01  0.17770000000E+01 0.  1.
</event>
<event>
 6    1  0.1226227E-002  0.2113761E+03  0.7546771E-02  0.1047542E+00
        -11   -1    0    0    0    0  0.00000000000E+00  0.00000000000E+00  0.18250000000E+03  0.18250000000E+03  0.00000000000E+00 0.  1.
         11   -1    0    0    0    0 -0.00000000000E+00 -0.00000000000E+00 -0.18250000000E+03  0.18250000000E+03  0.00000000000E+00 0.  1.
        -11    1    1    2    0    0 -0.23787560218E+00  0.37029581841E+01  0.15357904412E+03  0.15362386298E+03  0.00000000000E+00 0.  1.
         11    1    1    2    0    0  0.65434764404E+00 -0.13291202413E+01 -0.74217626004E+02  0.74232410314E+02  0.00000000000E+00 0.  1.
        -15    1    1    2    0    0  0.22144618488E+01 -0.34333329119E+01  0.28693329035E+02  0.29037156821E+02  0.17770000000E+01 0. -1.
         15    1    1    2    0    0 -0.26309338907E+01  0.10594949691E+01 -0.10805474715E+03  0.10810656989E+03  0.17770000000E+01 0.  1.
</event>
<event>
 6    1  0.1226227E-002  0.1854198E+03  0.7546771E-02  0.1066154E+00
        -11   -1    0    0    0    0  0.00000000000E+00  0.00000000000E+00  0.18250000000E+03  0.18250000000E+03  0.00000000000E+00 0.  1.
         11   -1    0    0    0    0 -0.00000000000E+00 -0.00000000000E+00 -0.18250000000E+03  0.18250000000E+03  0.00000000000E+00 0.  1.
        -11    1    1    2    0    0 -0.35641834362E+01  0.13898338843E+02  0.17900606629E+03  0.17958017428E+03  0.00000000000E+00 0.  1.
         11    1    1    2    0    0  0.11746426634E+01  0.81566496677E+00 -0.78121856564E+02  0.78134944600E+02  0.00000000000E+00 0.  1.
        -15    1    1    2    0    0  0.19998955757E+01 -0.11236527265E+02 -0.73987578519E+01  0.13717086937E+02  0.17770000000E+01 0.  1.
         15    1    1    2    0    0  0.38964519706E+00 -0.34774765449E+01 -0.93485451875E+02  0.93567794181E+02  0.17770000000E+01 0. -1.
</event>
<event>
 6    1  0.1226227E-002  0.1848318E+03  0.7546771E-02  0.1066614E+00
        -11   -1    0    0    0    0  0.00000000000E+00  0.00000000000E+00  0.18250000000E+03  0.18250000000E+03  0.00000000000E+00 0.  1.
         11   -1    0    0    0    0 -0.00000000000E+00 -0.00000000000E+00 -0.18250000000E+03  0.18250000000E+03  0.00000000000E+00 0.  1.
        -11    1    1    2    0    0  0.30444242922E+01 -0.21243067821E+00  0.74754568436E+02  0.74816837330E+02  0.00000000000E+00 0.  1.
         11    1    1    2    0    0 -0.69498566314E+01  0.64304451040E+01 -0.17991921997E+03  0.18016819044E+03  0.00000000000E+00 0.  1.
        -15    1    1    2    0    0  0.80932022681E+01 -0.86250840775E+01  0.12842027487E+02  0.17548999894E+02  0.17770000000E+01 0. -1.
         15    1    1    2    0    0 -0.41877699289E+01  0.24070696517E+01  0.92322624044E+02  0.92465972339E+02  0.17770000000E+01 0.  1.
</event>
<event>
 6    1  0.1226227E-002  0.1828757E+03  0.7546771E-02  0.1068156E+00
        -11   -1    0    0    0    0  0.00000000000E+00  0.00000000000E+00  0.18250000000E+03  0.18250000000E+03  0.00000000000E+00 0.  1.
         11   -1    0    0    0    0 -0.00000000000E+00 -0.00000000000E+00 -0.18250000000E+03  0.18250000000E+03  0.00000000000E+00 0.  1.
        -11    1    1    2    0    0  0.21633356448E+01  0.17142754507E+01  0.18210338581E+03  0.18212430338E+03  0.00000000000E+00 0.  1.
         11    1    1    2    0    0 -0.22525878518E+01 -0.12831214905E+01 -0.96085641599E+02  0.96120606918E+02  0.00000000000E+00 0.  1.
        -15    1    1    2    0    0  0.32927649828E+01  0.23349739983E+01 -0.68631426864E+02  0.68772995334E+02  0.17770000000E+01 0.  1.
         15    1    1    2    0    0 -0.32035127759E+01 -0.27661279585E+01 -0.17386317342E+02  0.17982094364E+02  0.17770000000E+01 0.  1.
</event>
<event>
 6    1  0.1226227E-002  0.1735058E+03  0.7546771E-02  0.1075848E+00
        -11   -1    0    0    0    0  0.00000000000E+00  0.00000000000E+00  0.18250000000E+03  0.18250000000E+03  0.00000000000E+00 0.  1.
         11   -1    0    0    0    0 -0.00000000000E+00 -0.00000000000E+00 -0.18250000000E+03  0.18250000000E+03  0.00000000000E+00 0. -1.
        -11    1    1    2    0    0  0.42570423125E+01 -0.20505658306E+01  0.17383846245E+03  0.17390266892E+03  0.00000000000E+00 0.  1.
         11    1    1    2    0    0  0.39858103972E+01 -0.20212425002E+00 -0.17316886371E+03  0.17321484607E+03  0.00000000000E+00 0. -1.
        -15    1    1    2    0    0 -0.74474723785E+01  0.22757026875E+00 -0.73621342597E+01  0.10624282701E+02  0.17770000000E+01 0.  1.
         15    1    1    2    0    0 -0.79538033120E+00  0.20251198119E+01  0.66925355217E+01  0.72582023141E+01  0.17770000000E+01 0. -1.
</event>
<event>
 6    1  0.1226227E-002  0.1827026E+03  0.7546771E-02  0.1068294E+00
        -11   -1    0    0    0    0  0.00000000000E+00  0.00000000000E+00  0.18250000000E+03  0.18250000000E+03  0.00000000000E+00 0.  1.
         11   -1    0    0    0    0 -0.00000000000E+00 -0.00000000000E+00 -0.18250000000E+03  0.18250000000E+03  0.00000000000E+00 0. -1.
        -11    1    1    2    0    0 -0.33233453238E+01 -0.27460872015E+01  0.18224644210E+03  0.18229742532E+03  0.00000000000E+00 0.  1.
         11    1    1    2    0    0 -0.24622533362E+01  0.62569019361E+00 -0.63966744358E+02  0.64017173973E+02  0.00000000000E+00 0. -1.
        -15    1    1    2    0    0  0.38639509518E+01  0.14236972933E+01 -0.27343359156E+02  0.27708735985E+02  0.17770000000E+01 0. -1.
         15    1    1    2    0    0  0.19216477082E+01  0.69669971458E+00 -0.90936338586E+02  0.90976664727E+02  0.17770000000E+01 0.  1.
</event>
<event>
 6    1  0.1226227E-002  0.1905622E+03  0.7546771E-02  0.1062212E+00
        -11   -1    0    0    0    0  0.00000000000E+00  0.00000000000E+00  0.18250000000E+03  0.18250000000E+03  0.00000000000E+00 0. -1.
         11   -1    0    0    0    0 -0.00000000000E+00 -0.00000000000E+00 -0.18250000000E+03  0.18250000000E+03  0.00000000000E+00 0.  1.
        -11    1    1    2    0    0  0.32432481387E+01  0.48523119298E+01  0.16808763386E+03  0.16818893021E+03  0.00000000000E+00 0. -1.
         11    1    1    2    0    0  0.19216192085E+01  0.34605517564E+01 -0.17439288708E+03  0.17443780296E+03  0.00000000000E+00 0.  1.
        -15    1    1    2    0    0 -0.10365842892E+02 -0.75880076382E+01  0.94066332957E+01  0.16020956205E+02  0.17770000000E+01 0. -1.
         15    1    1    2    0    0  0.52009755446E+01 -0.72485604801E+00 -0.31013800738E+01  0.63523106244E+01  0.17770000000E+01 0.  1.
</event>
<event>
 6    1  0.1226227E-002  0.1831960E+03  0.7546771E-02  0.1067902E+00
        -11   -1    0    0    0    0  0.00000000000E+00  0.00000000000E+00  0.18250000000E+03  0.18250000000E+03  0.00000000000E+00 0. -1.
         11   -1    0    0    0    0 -0.00000000000E+00 -0.00000000000E+00 -0.18250000000E+03  0.18250000000E+03  0.00000000000E+00 0. -1.
        -11    1    1    2    0    0  0.76859104216E+00  0.24688350074E+00  0.56217454503E+02  0.56223250301E+02  0.00000000000E+00 0. -1.
         11    1    1    2    0    0  0.33461101571E+01 -0.95109711314E-04 -0.18177321149E+03  0.18180400674E+03  0.00000000000E+00 0. -1.
        -15    1    1    2    0    0 -0.34756434138E+01  0.87055656793E+01  0.73850388633E+02  0.74464116198E+02  0.17770000000E+01 0.  1.
         15    1    1    2    0    0 -0.63905778545E+00 -0.89523540703E+01  0.51705368353E+02  0.52508626756E+02  0.17770000000E+01 0. -1.
</event>
<event>
 6    1  0.1226227E-002  0.1828289E+03  0.7546771E-02  0.1068193E+00
        -11   -1    0    0    0    0  0.00000000000E+00  0.00000000000E+00  0.18250000000E+03  0.18250000000E+03  0.00000000000E+00 0. -1.
         11   -1    0    0    0    0 -0.00000000000E+00 -0.00000000000E+00 -0.18250000000E+03  0.18250000000E+03  0.00000000000E+00 0.  1.
        -11    1    1    2    0    0 -0.16132482875E+01  0.21396912297E+01  0.18215143105E+03  0.18217114119E+03  0.00000000000E+00 0. -1.
         11    1    1    2    0    0  0.22129770476E+01 -0.21587586111E+01 -0.16187652606E+03  0.16190604434E+03  0.00000000000E+00 0.  1.
        -15    1    1    2    0    0  0.49679007470E+00 -0.60336534866E+00 -0.34605173600E+01  0.39678406623E+01  0.17770000000E+01 0. -1.
         15    1    1    2    0    0 -0.10965188347E+01  0.62243273004E+00 -0.16814387637E+02  0.16954973803E+02  0.17770000000E+01 0.  1.
</event>
<event>
 6    1  0.1226227E-002  0.1895696E+03  0.7546771E-02  0.1062963E+00
        -11   -1    0    0    0    0  0.00000000000E+00  0.00000000000E+00  0.18250000000E+03  0.18250000000E+03  0.00000000000E+00 0.  1.
         11   -1    0    0    0    0 -0.00000000000E+00 -0.00000000000E+00 -0.18250000000E+03  0.18250000000E+03  0.00000000000E+00 0. -1.
        -11    1    1    2    0    0 -0.65421556515E+01 -0.77751379516E+01  0.16383303771E+03  0.16414785048E+03  0.00000000000E+00 0.  1.
         11    1    1    2    0    0 -0.14345967464E+01 -0.48345371887E+01 -0.17535789427E+03  0.17543039047E+03  0.00000000000E+00 0. -1.
        -15    1    1    2    0    0  0.92676541196E+01  0.15834470150E+02  0.77602492175E+01  0.19999976368E+02  0.17770000000E+01 0. -1.
         15    1    1    2    0    0 -0.12909017216E+01 -0.32247950094E+01  0.37646073361E+01  0.54217826867E+01  0.17770000000E+01 0. -1.
</event>
<event>
 6    1  0.1226227E-002  0.1819054E+03  0.7546771E-02  0.1068929E+00
        -11   -1    0    0    0    0  0.00000000000E+00  0.00000000000E+00  0.18250000000E+03  0.18250000000E+03  0.00000000000E+00 0. -1.
         11   -1    0    0    0    0 -0.00000000000E+00 -0.00000000000E+00 -0.18250000000E+03  0.18250000000E+03  0.00000000000E+00 0.  1.
        -11    1    1    2    0    0  0.44440591117E+00 -0.36060665686E+01  0.18015512703E+03  0.18019176176E+03  0.00000000000E+00 0. -1.
         11    1    1    2    0    0 -0.30803224182E+01 -0.74319932410E+00 -0.77091861323E+00  0.32611419692E+01  0.00000000000E+00 0.  1.
        -15    1    1    2    0    0 -0.26078655577E+01 -0.10612496843E+02 -0.97221452275E+02  0.97849857248E+02  0.17770000000E+01 0.  1.
         15    1    1    2    0    0  0.52437820647E+01  0.14961762736E+02 -0.82162756139E+02  0.83697239022E+02  0.17770000000E+01 0. -1.
</event>
<event>
 6    1  0.1226227E-002  0.1828804E+03  0.7546771E-02  0.1068152E+00
        -11   -1    0    0    0    0  0.00000000000E+00  0.00000000000E+00  0.18250000000E+03  0.18250000000E+03  0.00000000000E+00 0. -1.
         11   -1    0    0    0    0 -0.00000000000E+00 -0.00000000000E+00 -0.18250000000E+03  0.18250000000E+03  0.00000000000E+00 0.  1.
        -11    1    1    2    0    0  0.89367673119E+00 -0.11801731049E+01  0.50093231604E+02  0.50115100710E+02  0.00000000000E+00 0. -1.
         11    1    1    2    0    0 -0.48728970946E+01 -0.29083675016E+01 -0.18203111579E+03  0.18211955096E+03  0.00000000000E+00 0.  1.
        -15    1    1    2    0    0  0.24533148171E+01 -0.82116258456E+00  0.65874659043E+01  0.72969512554E+01  0.17770000000E+01 0.  1.
         15    1    1    2    0    0  0.15259055462E+01  0.49097031911E+01  0.12535041828E+03  0.12546839707E+03  0.17770000000E+01 0. -1.
</event>
<event>
 6    1  0.1226227E-002  0.1901710E+03  0.7546771E-02  0.1062508E+00
        -11   -1    0    0    0    0  0.00000000000E+00  0.00000000000E+00  0.18250000000E+03  0.18250000000E+03  0.00000000000E+00 0. -1.
         11   -1    0    0    0    0 -0.00000000000E+00 -0.00000000000E+00 -0.18250000000E+03  0.18250000000E+03  0.00000000000E+00 0.  1.
        -11    1    1    2    0    0 -0.51950087046E+01 -0.36044540674E+01  0.16545858236E+03  0.16557935463E+03  0.00000000000E+00 0. -1.
         11    1    1    2    0    0 -0.52012800495E+00 -0.30792016598E+01 -0.17480110403E+03  0.17482899641E+03  0.00000000000E+00 0.  1.
        -15    1    1    2    0    0 -0.27828885278E+01  0.11494482865E+01 -0.55063944023E+01  0.65225614780E+01  0.17770000000E+01 0.  1.
         15    1    1    2    0    0  0.84980252374E+01  0.55342074407E+01  0.14848916070E+02  0.18069087481E+02  0.17770000000E+01 0. -1.
</event>
<event>
 6    1  0.1226227E-002  0.1829947E+03  0.7546771E-02  0.1068062E+00
        -11   -1    0    0    0    0  0.00000000000E+00  0.00000000000E+00  0.18250000000E+03  0.18250000000E+03  0.00000000000E+00 0. -1.
         11   -1    0    0    0    0 -0.00000000000E+00 -0.00000000000E+00 -0.18250000000E+03  0.18250000000E+03  0.00000000000E+00 0.  1.
        -11    1    1    2    0    0 -0.46041741736E+01  0.57587604653E+01  0.10870170040E+03  0.10895146356E+03  0.00000000000E+00 0. -1.
         11    1    1    2    0    0  0.90970654441E+01 -0.75252823686E+01 -0.18162193290E+03  0.18200525538E+03  0.00000000000E+00 0.  1.
        -15    1    1    2    0    0 -0.14523798730E+00 -0.17322465840E+01  0.57415165287E+02  0.57468954281E+02  0.17770000000E+01 0. -1.
         15    1    1    2    0    0 -0.43476532832E+01  0.34987684873E+01  0.15505067215E+02  0.16574326784E+02  0.17770000000E+01 0.  1.
</event>
<event>
 6    1  0.1226227E-002  0.1917679E+03  0.7546771E-02  0.1061308E+00
        -11   -1    0    0    0    0  0.00000000000E+00  0.00000000000E+00  0.18250000000E+03  0.18250000000E+03  0.00000000000E+00 0.  1.
         11   -1    0    0    0    0 -0.00000000000E+00 -0.00000000000E+00 -0.18250000000E+03  0.18250000000E+03  0.00000000000E+00 0. -1.
        -11    1    1    2    0    0 -0.50980410432E+01  0.57983728584E+00  0.16739996558E+03  0.16747857985E+03  0.00000000000E+00 0.  1.
         11    1    1    2    0    0 -0.39614287398E+01 -0.51762190176E+00 -0.17318606887E+03  0.17323214281E+03  0.00000000000E+00 0. -1.
        -15    1    1    2    0    0  0.87454967231E+01  0.90088721382E+01 -0.11438635642E+01  0.12732228516E+02  0.17770000000E+01 0.  1.
         15    1    1    2    0    0  0.31397305984E+00 -0.90710875223E+01  0.69299668580E+01  0.11557048826E+02  0.17770000000E+01 0. -1.
</event>
<event>
 6    1  0.1226227E-002  0.1300674E+03  0.7546771E-02  0.1120085E+00
        -11   -1    0    0    0    0  0.00000000000E+00  0.00000000000E+00  0.18250000000E+03  0.18250000000E+03  0.00000000000E+00 0. -1.
         11   -1    0    0    0    0 -0.00000000000E+00 -0.00000000000E+00 -0.18250000000E+03  0.18250000000E+03  0.00000000000E+00 0. -1.
        -11    1    1    2    0    0  0.61069535734E+01  0.38012886432E+02  0.89133381628E+02  0.97092914970E+02  0.00000000000E+00 0. -1.
         11    1    1    2    0    0  0.23062568248E+02  0.17485010318E+02 -0.15865410970E+03  0.16127223619E+03  0.00000000000E+00 0. -1.
        -15    1    1    2    0    0 -0.17055186918E+02 -0.52620307304E+02  0.74754608435E+02  0.93011748467E+02  0.17770000000E+01 0. -1.
         15    1    1    2    0    0 -0.12114334903E+02 -0.28775894453E+01 -0.52338803605E+01  0.13623100374E+02  0.17770000000E+01 0.  1.
</event>
<event>
 6    1  0.1226227E-002  0.1691940E+03  0.7546771E-02  0.1079569E+00
        -11   -1    0    0    0    0  0.00000000000E+00  0.00000000000E+00  0.18250000000E+03  0.18250000000E+03  0.00000000000E+00 0.  1.
         11   -1    0    0    0    0 -0.00000000000E+00 -0.00000000000E+00 -0.18250000000E+03  0.18250000000E+03  0.00000000000E+00 0. -1.
        -11    1    1    2    0    0 -0.49313377373E+01  0.53172809890E+01  0.17125085464E+03  0.17140433712E+03  0.00000000000E+00 0.  1.
         11    1    1    2    0    0  0.10988260107E+02  0.47801384332E+01 -0.16678805524E+03  0.16721796241E+03  0.00000000000E+00 0. -1.
        -15    1    1    2    0    0  0.63761869176E+01 -0.92942243436E+01  0.29317555823E+01  0.11780971333E+02  0.17770000000E+01 0. -1.
         15    1    1    2    0    0 -0.12433109287E+02 -0.80319507867E+00 -0.73945549863E+01  0.14596729131E+02  0.17770000000E+01 0. -1.
</event>
<event>
 6    1  0.1226227E-002  0.1827209E+03  0.7546771E-02  0.1068279E+00
        -11   -1    0    0    0    0  0.00000000000E+00  0.00000000000E+00  0.18250000000E+03  0.18250000000E+03  0.00000000000E+00 0.  1.
         11   -1    0    0    0    0 -0.00000000000E+00 -0.00000000000E+00 -0.18250000000E+03  0.18250000000E+03  0.00000000000E+00 0.  1.
        -11    1    1    2    0    0  0.12271462082E+01 -0.38544989720E+01  0.18223419034E+03  0.18227908047E+03  0.00000000000E+00 0.  1.
         11    1    1    2    0    0 -0.21510420953E+01 -0.43167004105E+00 -0.28674239407E+02  0.28758048034E+02  0.00000000000E+00 0.  1.
        -15    1    1    2    0    0  0.24484591265E+01 -0.54806789734E+00 -0.15694534022E+02  0.15992856458E+02  0.17770000000E+01 0.  1.
         15    1    1    2    0    0 -0.15245632394E+01  0.48342369103E+01 -0.13786541691E+03  0.13797001503E+03  0.17770000000E+01 0.  1.
</event>
<event>
 6    1  0.1226227E-002  0.1962880E+03  0.7546771E-02  0.1057980E+00
        -11   -1    0    0    0    0  0.00000000000E+00  0.00000000000E+00  0.18250000000E+03  0.18250000000E+03  0.00000000000E+00 0.  1.
         11   -1    0    0    0    0 -0.00000000000E+00 -0.00000000000E+00 -0.18250000000E+03  0.18250000000E+03  0.00000000000E+00 0.  1.
        -11    1    1    2    0    0  0.58386723719E+01 -0.61728980015E+01  0.16193330389E+03  0.16215606579E+03  0.00000000000E+00 0.  1.
         11    1    1    2    0    0 -0.15559968197E+01 -0.28899930793E+01 -0.16868004782E+03  0.16871197858E+03  0.00000000000E+00 0.  1.
        -15    1    1    2    0    0 -0.36175212892E+00 -0.48834582385E+01 -0.10389507091E+02  0.11622332621E+02  0.17770000000E+01 0. -1.
         15    1    1    2    0    0 -0.39209234233E+01  0.13946349319E+02  0.17136251017E+02  0.22509623003E+02  0.17770000000E+01 0.  1.
</event>
<event>
 6    1  0.1226227E-002  0.2084646E+03  0.7546771E-02  0.1049481E+00
        -11   -1    0    0    0    0  0.00000000000E+00  0.00000000000E+00  0.18250000000E+03  0.18250000000E+03  0.00000000000E+00 0. -1.
         11   -1    0    0    0    0 -0.00000000000E+00 -0.00000000000E+00 -0.18250000000E+03  0.18250000000E+03  0.00000000000E+00 0. -1.
        -11    1    1    2    0    0 -0.18089818035E+02  0.14022953380E+02  0.15485298985E+03  0.15653540559E+03  0.00000000000E+00 0. -1.
         11    1    1    2    0    0  0.65172070040E+01 -0.11603245562E+02 -0.72142532611E+02  0.73359759448E+02  0.00000000000E+00 0. -1.
        -15    1    1    2    0    0  0.16170724794E+02 -0.12453441278E+02  0.21847567809E+02  0.29950867904E+02  0.17770000000E+01 0. -1.
         15    1    1    2    0    0 -0.45981137632E+01  0.10033733460E+02 -0.10455802505E+03  0.10515396706E+03  0.17770000000E+01 0.  1.
</event>
<event>
 6    1  0.1343138E-002  0.2012236E+03  0.7546771E-02  0.1054457E+00
        -11   -1    0    0    0    0  0.00000000000E+00  0.00000000000E+00  0.18250000000E+03  0.18250000000E+03  0.00000000000E+00 0. -1.
         11   -1    0    0    0    0 -0.00000000000E+00 -0.00000000000E+00 -0.18250000000E+03  0.18250000000E+03  0.00000000000E+00 0. -1.
        -11    1    1    2    0    0  0.20460900122E+02 -0.11171246433E+02  0.16210878504E+03  0.16377638220E+03  0.00000000000E+00 0. -1.
         11    1    1    2    0    0 -0.22944092596E+01  0.19694320063E+02 -0.11718262080E+03  0.11884821065E+03  0.00000000000E+00 0. -1.
        -15    1    1    2    0    0 -0.27318548139E+01 -0.11397170408E+02 -0.59627024465E+02  0.60793900184E+02  0.17770000000E+01 0.  1.
         15    1    1    2    0    0 -0.15434636049E+02  0.28740967772E+01  0.14700860230E+02  0.21581506962E+02  0.17770000000E+01 0. -1.
</event>
<event>
 6    1  0.1226227E-002  0.1891683E+03  0.7546771E-02  0.1063267E+00
        -11   -1    0    0    0    0  0.00000000000E+00  0.00000000000E+00  0.18250000000E+03  0.18250000000E+03  0.00000000000E+00 0.  1.
         11   -1    0    0    0    0 -0.00000000000E+00 -0.00000000000E+00 -0.18250000000E+03  0.18250000000E+03  0.00000000000E+00 0.  1.
        -11    1    1    2    0    0  0.20363332786E+01  0.79602956318E+01  0.17563957201E+03  0.17583165874E+03  0.00000000000E+00 0.  1.
         11    1    1    2    0    0  0.47477144308E+01  0.18892108642E+01 -0.16150268627E+03  0.16158350034E+03  0.00000000000E+00 0.  1.
        -15    1    1    2    0    0 -0.45541541696E+01 -0.43339008340E+01  0.45052633730E+01  0.79358769962E+01  0.17770000000E+01 0.  1.
         15    1    1    2    0    0 -0.22298935398E+01 -0.55156056621E+01 -0.18642149104E+02  0.19648963923E+02  0.17770000000E+01 0. -1.
</event>
<event>
 6    1  0.1226227E-002  0.1868801E+03  0.7546771E-02  0.1065021E+00
        -11   -1    0    0    0    0  0.00000000000E+00  0.00000000000E+00  0.18250000000E+03  0.18250000000E+03  0.00000000000E+00 0. -1.
         11   -1    0    0    0    0 -0.00000000000E+00 -0.00000000000E+00 -0.18250000000E+03  0.18250000000E+03  0.00000000000E+00 0.  1.
        -11    1    1    2    0    0 -0.23255937127E+01 -0.40746774785E+01  0.16850357870E+03  0.16856888034E+03  0.00000000000E+00 0. -1.
         11    1    1    2    0    0 -0.61401859053E+01 -0.48277744952E+01 -0.17794854775E+03  0.17811988922E+03  0.00000000000E+00 0.  1.
        -15    1    1    2    0    0  0.16283361999E+01 -0.15919382209E+01  0.27940894002E+01  0.40187573521E+01  0.17770000000E+01 0.  1.
         15    1    1    2    0    0  0.68374434181E+01  0.10494390195E+02  0.66508796471E+01  0.14292473094E+02  0.17770000000E+01 0. -1.
</event>
<event>
 6    1  0.1226227E-002  0.1889984E+03  0.7546771E-02  0.1063397E+00
        -11   -1    0    0    0    0  0.00000000000E+00  0.00000000000E+00  0.18250000000E+03  0.18250000000E+03  0.00000000000E+00 0.  1.
         11   -1    0    0    0    0 -0.00000000000E+00 -0.00000000000E+00 -0.18250000000E+03  0.18250000000E+03  0.00000000000E+00 0.  1.
        -11    1    1    2    0    0 -0.23771498789E+01 -0.18502674462E+01  0.16533530729E+03  0.16536274722E+03  0.00000000000E+00 0.  1.
         11    1    1    2    0    0 -0.50166345599E+01  0.49976662461E+01 -0.17585913348E+03  0.17600164237E+03  0.00000000000E+00 0.  1.
        -15    1    1    2    0    0  0.48149855180E+01 -0.45390720781E+01 -0.45187682503E+01  0.82075731108E+01  0.17770000000E+01 0.  1.
         15    1    1    2    0    0  0.25787989207E+01  0.13916732782E+01  0.15042594441E+02  0.15428037299E+02  0.17770000000E+01 0. -1.
</event>
<event>
 6    1  0.1226227E-002  0.2057868E+03  0.7546771E-02  0.1051295E+00
        -11   -1    0    0    0    0  0.00000000000E+00  0.00000000000E+00  0.18250000000E+03  0.18250000000E+03  0.00000000000E+00 0.  1.
         11   -1    0    0    0    0 -0.00000000000E+00 -0.00000000000E+00 -0.18250000000E+03  0.18250000000E+03  0.00000000000E+00 0. -1.
        -11    1    1    2    0    0  0.20669113269E+01 -0.57194410126E+01  0.15909705055E+03  0.15921323947E+03  0.00000000000E+00 0.  1.
         11    1    1    2    0    0 -0.48988635267E+01  0.32779570194E+01 -0.14707561901E+03  0.14719368727E+03  0.00000000000E+00 0. -1.
        -15    1    1    2    0    0 -0.60272918063E+01  0.75293327628E+01 -0.33411999673E+02  0.34821524227E+02  0.17770000000E+01 0. -1.
         15    1    1    2    0    0  0.88592440062E+01 -0.50878487696E+01  0.21390568127E+02  0.23771549029E+02  0.17770000000E+01 0.  1.
</event>
<event>
 6    1  0.1226227E-002  0.1828355E+03  0.7546771E-02  0.1068188E+00
        -11   -1    0    0    0    0  0.00000000000E+00  0.00000000000E+00  0.18250000000E+03  0.18250000000E+03  0.00000000000E+00 0. -1.
         11   -1    0    0    0    0 -0.00000000000E+00 -0.00000000000E+00 -0.18250000000E+03  0.18250000000E+03  0.00000000000E+00 0. -1.
        -11    1    1    2    0    0  0.31697963785E+00 -0.53285256176E+00  0.18178700018E+02  0.18189269977E+02  0.00000000000E+00 0. -1.
         11    1    1    2    0    0  0.48330997762E+01  0.27833886949E+01 -0.18207910574E+03  0.18216450492E+03  0.00000000000E+00 0. -1.
        -15    1    1    2    0    0  0.17363233882E+01  0.11232931490E+01  0.12093237509E+03  0.12096310876E+03  0.17770000000E+01 0. -1.
         15    1    1    2    0    0 -0.68864028022E+01 -0.33738292821E+01  0.42968030632E+02  0.43683116337E+02  0.17770000000E+01 0. -1.
</event>
<event>
 6    1  0.1226227E-002  0.1875985E+03  0.7546771E-02  0.1064467E+00
        -11   -1    0    0    0    0  0.00000000000E+00  0.00000000000E+00  0.18250000000E+03  0.18250000000E+03  0.00000000000E+00 0.  1.
         11   -1    0    0    0    0 -0.00000000000E+00 -0.00000000000E+00 -0.18250000000E+03  0.18250000000E+03  0.00000000000E+00 0. -1.
        -11    1    1    2    0    0 -0.94514908053E+00 -0.51828352879E+01  0.17520700518E+03  0.17528619385E+03  0.00000000000E+00 0.  1.
         11    1    1    2    0    0  0.13964877349E+01  0.24229159846E+01 -0.17737947845E+03  0.17740152219E+03  0.00000000000E+00 0. -1.
        -15    1    1    2    0    0  0.11490765592E+01  0.14246413209E+01  0.66169202836E+01  0.70916389411E+01  0.17770000000E+01 0. -1.
         15    1    1    2    0    0 -0.16004152136E+01  0.13352779824E+01 -0.44444470145E+01  0.52206450187E+01  0.17770000000E+01 0.  1.
</event>
<event>
 6    1  0.1226227E-002  0.1957348E+03  0.7546771E-02  0.1058382E+00
        -11   -1    0    0    0    0  0.00000000000E+00  0.00000000000E+00  0.18250000000E+03  0.18250000000E+03  0.00000000000E+00 0.  1.
         11   -1    0    0    0    0 -0.00000000000E+00 -0.00000000000E+00 -0.18250000000E+03  0.18250000000E+03  0.00000000000E+00 0. -1.
        -11    1    1    2    0    0  0.19659117688E+01  0.16897318625E+01  0.16924536869E+03  0.16926522037E+03  0.00000000000E+00 0.  1.
         11    1    1    2    0    0  0.31484543068E+01 -0.62433498168E+00 -0.11119534339E+03  0.11124166014E+03  0.00000000000E+00 0. -1.
        -15    1    1    2    0    0 -0.29284387780E+00  0.23176985611E+01 -0.70523698759E+02  0.70584752601E+02  0.17770000000E+01 0. -1.
         15    1    1    2    0    0 -0.48215221978E+01 -0.33830954419E+01  0.12473673454E+02  0.13908366889E+02  0.17770000000E+01 0.  1.
</event>
<event>
 6    1  0.1226227E-002  0.1866727E+03  0.7546771E-02  0.1065181E+00
        -11   -1    0    0    0    0  0.00000000000E+00  0.00000000000E+00  0.18250000000E+03  0.18250000000E+03  0.00000000000E+00 0. -1.
         11   -1    0    0    0    0 -0.00000000000E+00 -0.00000000000E+00 -0.18250000000E+03  0.18250000000E+03  0.00000000000E+00 0. -1.
        -11    1    1    2    0    0 -0.18561201822E+01  0.22986497246E+01  0.17830285660E+03  0.17832733286E+03  0.00000000000E+00 0. -1.
         11    1    1    2    0    0 -0.37375505544E+00 -0.22957422990E+01 -0.16038528408E+03  0.16040214922E+03  0.00000000000E+00 0. -1.
        -15    1    1    2    0    0  0.91443748454E+00  0.35615172966E+01 -0.20789672783E+02  0.21186996597E+02  0.17770000000E+01 0.  1.
         15    1    1    2    0    0  0.13154377531E+01 -0.35644247221E+01  0.28721002656E+01  0.50835213207E+01  0.17770000000E+01 0. -1.
</event>
<event>
 6    1  0.1226227E-002  0.1825746E+03  0.7546771E-02  0.1068395E+00
        -11   -1    0    0    0    0  0.00000000000E+00  0.00000000000E+00  0.18250000000E+03  0.18250000000E+03  0.00000000000E+00 0.  1.
         11   -1    0    0    0    0 -0.00000000000E+00 -0.00000000000E+00 -0.18250000000E+03  0.18250000000E+03  0.00000000000E+00 0.  1.
        -11    1    1    2    0    0  0.20969002184E+01  0.18123473956E+01  0.18240434275E+03  0.18242539804E+03  0.00000000000E+00 0.  1.
         11    1    1    2    0    0 -0.91701404746E+00 -0.20505790965E+00 -0.28765354052E+02  0.28780697650E+02  0.00000000000E+00 0.  1.
        -15    1    1    2    0    0 -0.50158250597E+00 -0.48744648278E+00 -0.13185668746E+02  0.13323242037E+02  0.17770000000E+01 0. -1.
         15    1    1    2    0    0 -0.67830366495E+00 -0.11198430032E+01 -0.14045331996E+03  0.14047066228E+03  0.17770000000E+01 0.  1.
</event>
<event>
 6    1  0.1226227E-002  0.1855443E+03  0.7546771E-02  0.1066057E+00
        -11   -1    0    0    0    0  0.00000000000E+00  0.00000000000E+00  0.18250000000E+03  0.18250000000E+03  0.00000000000E+00 0.  1.
         11   -1    0    0    0    0 -0.00000000000E+00 -0.00000000000E+00 -0.18250000000E+03  0.18250000000E+03  0.00000000000E+00 0. -1.
        -11    1    1    2    0    0  0.21250065475E+01  0.85703177161E+00  0.15755283945E+03  0.15756950014E+03  0.00000000000E+00 0.  1.
         11    1    1    2    0    0 -0.43745343078E+01 -0.15417824324E+01 -0.17939570205E+03  0.17945565345E+03  0.00000000000E+00 0. -1.
        -15    1    1    2    0    0  0.73814941324E+00 -0.61481183912E+01  0.19256390680E+02  0.20305431178E+02  0.17770000000E+01 0. -1.
         15    1    1    2    0    0  0.15113783471E+01  0.68328690521E+01  0.25864719171E+01  0.76694152299E+01  0.17770000000E+01 0.  1.
</event>
<event>
 6    1  0.1226227E-002  0.1875751E+03  0.7546771E-02  0.1064485E+00
        -11   -1    0    0    0    0  0.00000000000E+00  0.00000000000E+00  0.18250000000E+03  0.18250000000E+03  0.00000000000E+00 0. -1.
         11   -1    0    0    0    0 -0.00000000000E+00 -0.00000000000E+00 -0.18250000000E+03  0.18250000000E+03  0.00000000000E+00 0. -1.
        -11    1    1    2    0    0  0.20087245088E+01  0.93477439202E+00  0.12956087145E+03  0.12957981397E+03  0.00000000000E+00 0. -1.
         11    1    1    2    0    0  0.12297208648E+01 -0.20698532182E+01 -0.17740854216E+03  0.17742487801E+03  0.00000000000E+00 0. -1.
        -15    1    1    2    0    0 -0.71979096224E+01  0.29597858609E+01 -0.17517777729E+01  0.81729241793E+01  0.17770000000E+01 0. -1.
         15    1    1    2    0    0  0.39594642488E+01 -0.18247070347E+01  0.49599448485E+02  0.49822383845E+02  0.17770000000E+01 0.  1.
</event>
<event>
 6    1  0.1226227E-002  0.1877431E+03  0.7546771E-02  0.1064356E+00
        -11   -1    0    0    0    0  0.00000000000E+00  0.00000000000E+00  0.18250000000E+03  0.18250000000E+03  0.00000000000E+00 0. -1.
         11   -1    0    0    0    0 -0.00000000000E+00 -0.00000000000E+00 -0.18250000000E+03  0.18250000000E+03  0.00000000000E+00 0. -1.
        -11    1    1    2    0    0  0.54561558480E+01  0.16918323460E+01  0.17716478140E+03  0.17725685234E+03  0.00000000000E+00 0. -1.
         11    1    1    2    0    0  0.19203686107E+01  0.12260432125E+01 -0.13861169607E+03  0.13863041977E+03  0.00000000000E+00 0. -1.
        -15    1    1    2    0    0 -0.60617567426E+01 -0.60908907057E+01  0.14751041583E+01  0.88981742888E+01  0.17770000000E+01 0.  1.
         15    1    1    2    0    0 -0.13147677161E+01  0.31730151473E+01 -0.40028189484E+02  0.40214553605E+02  0.17770000000E+01 0.  1.
</event>
<event>
 6    1  0.1226227E-002  0.1870960E+03  0.7546771E-02  0.1064854E+00
        -11   -1    0    0    0    0  0.00000000000E+00  0.00000000000E+00  0.18250000000E+03  0.18250000000E+03  0.00000000000E+00 0.  1.
         11   -1    0    0    0    0 -0.00000000000E+00 -0.00000000000E+00 -0.18250000000E+03  0.18250000000E+03  0.00000000000E+00 0.  1.
        -11    1    1    2    0    0 -0.37518601386E+01 -0.18063662673E+01  0.17273574566E+03  0.17278592895E+03  0.00000000000E+00 0.  1.
         11    1    1    2    0    0  0.52351125295E+01  0.26105240056E+01 -0.17780779543E+03  0.17790400039E+03  0.00000000000E+00 0.  1.
        -15    1    1    2    0    0  0.52487373473E+01  0.18453557196E+01  0.30593081297E+01  0.65933054461E+01  0.17770000000E+01 0.  1.
         15    1    1    2    0    0 -0.67319897382E+01 -0.26495134579E+01  0.20127416393E+01  0.77167652100E+01  0.17770000000E+01 0.  1.
</event>
<event>
 6    1  0.1226227E-002  0.1832401E+03  0.7546771E-02  0.1067867E+00
        -11   -1    0    0    0    0  0.00000000000E+00  0.00000000000E+00  0.18250000000E+03  0.18250000000E+03  0.00000000000E+00 0. -1.
         11   -1    0    0    0    0 -0.00000000000E+00 -0.00000000000E+00 -0.18250000000E+03  0.18250000000E+03  0.00000000000E+00 0. -1.
        -11    1    1    2    0    0  0.11002698121E+01  0.13875421222E+01  0.10107904819E+03  0.10109455896E+03  0.00000000000E+00 0. -1.
         11    1    1    2    0    0 -0.52468886838E+01  0.11053956310E+02 -0.18134757266E+03  0.18175990180E+03  0.00000000000E+00 0. -1.
        -15    1    1    2    0    0  0.34986081339E+01 -0.12008458721E+02  0.42768717008E+02  0.44595562820E+02  0.17770000000E+01 0. -1.
         15    1    1    2    0    0  0.64801073785E+00 -0.43303971053E+00  0.37499807457E+02  0.37549976426E+02  0.17770000000E+01 0. -1.
</event>
<event>
 6    1  0.1226227E-002  0.1826314E+03  0.7546771E-02  0.1068350E+00
        -11   -1    0    0    0    0  0.00000000000E+00  0.00000000000E+00  0.18250000000E+03  0.18250000000E+03  0.00000000000E+00 0. -1.
         11   -1    0    0    0    0 -0.00000000000E+00 -0.00000000000E+00 -0.18250000000E+03  0.18250000000E+03  0.00000000000E+00 0.  1.
        -11    1    1    2    0    0 -0.23011916316E+00  0.76503837970E+00  0.28949325862E+02  0.28960347139E+02  0.00000000000E+00 0. -1.
         11    1    1    2    0    0 -0.26033250273E+01  0.41782171534E+01 -0.18230213741E+03  0.18236859407E+03  0.00000000000E+00 0.  1.
        -15    1    1    2    0    0  0.13559645664E+00 -0.22100746858E+01  0.15792195145E+02  0.16045372323E+02  0.17770000000E+01 0.  1.
         15    1    1    2    0    0  0.26978477338E+01 -0.27331808472E+01  0.13756061640E+03  0.13762568646E+03  0.17770000000E+01 0. -1.
</event>
<event>
 6    1  0.1226227E-002  0.1828031E+03  0.7546771E-02  0.1068214E+00
        -11   -1    0    0    0    0  0.00000000000E+00  0.00000000000E+00  0.18250000000E+03  0.18250000000E+03  0.00000000000E+00 0. -1.
         11   -1    0    0    0    0 -0.00000000000E+00 -0.00000000000E+00 -0.18250000000E+03  0.18250000000E+03  0.00000000000E+00 0.  1.
        -11    1    1    2    0    0 -0.40849950778E+01 -0.23859840664E+01  0.18213550689E+03  0.18219693460E+03  0.00000000000E+00 0. -1.
         11    1    1    2    0    0  0.33523961955E+01 -0.14986447251E+01 -0.13669850702E+03  0.13674782016E+03  0.00000000000E+00 0.  1.
        -15    1    1    2    0    0  0.14876723968E+01  0.15036396513E+01 -0.74661304969E+01  0.79608375789E+01  0.17770000000E+01 0. -1.
         15    1    1    2    0    0 -0.75507351455E+00  0.23809891401E+01 -0.37970869374E+02  0.38094407664E+02  0.17770000000E+01 0.  1.
</event>
<event>
 6    1  0.1226227E-002  0.2115365E+03  0.7546771E-02  0.1047437E+00
        -11   -1    0    0    0    0  0.00000000000E+00  0.00000000000E+00  0.18250000000E+03  0.18250000000E+03  0.00000000000E+00 0. -1.
         11   -1    0    0    0    0 -0.00000000000E+00 -0.00000000000E+00 -0.18250000000E+03  0.18250000000E+03  0.00000000000E+00 0.  1.
        -11    1    1    2    0    0  0.15791415943E+02  0.57596163104E+01  0.15254021754E+03  0.15346354605E+03  0.00000000000E+00 0. -1.
         11    1    1    2    0    0 -0.22725620379E+02 -0.68648554095E+01 -0.12753028800E+03  0.12972106390E+03  0.00000000000E+00 0.  1.
        -15    1    1    2    0    0  0.31715709698E+02 -0.95003661773E+01  0.12634256655E+02  0.35481338326E+02  0.17770000000E+01 0. -1.
         15    1    1    2    0    0 -0.24781505263E+02  0.10605605276E+02 -0.37644186193E+02  0.46334051727E+02  0.17770000000E+01 0.  1.
</event>
<event>
 6    1  0.1226227E-002  0.1877482E+03  0.7546771E-02  0.1064352E+00
        -11   -1    0    0    0    0  0.00000000000E+00  0.00000000000E+00  0.18250000000E+03  0.18250000000E+03  0.00000000000E+00 0.  1.
         11   -1    0    0    0    0 -0.00000000000E+00 -0.00000000000E+00 -0.18250000000E+03  0.18250000000E+03  0.00000000000E+00 0. -1.
        -11    1    1    2    0    0  0.50356027114E+01  0.95379498540E+00  0.17072181298E+03  0.17079872496E+03  0.00000000000E+00 0.  1.
         11    1    1    2    0    0 -0.23666063382E+01  0.54200689673E+00 -0.17723516850E+03  0.17725179703E+03  0.00000000000E+00 0. -1.
        -15    1    1    2    0    0 -0.47251554918E+01 -0.75290813763E+00  0.10727764743E+02  0.11880093874E+02  0.17770000000E+01 0. -1.
         15    1    1    2    0    0  0.20561591186E+01 -0.74289374450E+00 -0.42144092257E+01  0.50693841399E+01  0.17770000000E+01 0. -1.
</event>
<event>
 6    1  0.1226227E-002  0.1828745E+03  0.7546771E-02  0.1068157E+00
        -11   -1    0    0    0    0  0.00000000000E+00  0.00000000000E+00  0.18250000000E+03  0.18250000000E+03  0.00000000000E+00 0. -1.
         11   -1    0    0    0    0 -0.00000000000E+00 -0.00000000000E+00 -0.18250000000E+03  0.18250000000E+03  0.00000000000E+00 0.  1.
        -11    1    1    2    0    0  0.28627686881E+01  0.15999507686E+01  0.11396793968E+03  0.11401511550E+03  0.00000000000E+00 0. -1.
         11    1    1    2    0    0  0.66188983149E+01  0.42880193966E+00 -0.18200466799E+03  0.18212548657E+03  0.00000000000E+00 0.  1.
        -15    1    1    2    0    0 -0.33553307672E+01 -0.18264082578E+01  0.28980318490E+02  0.29284989336E+02  0.17770000000E+01 0.  1.
         15    1    1    2    0    0 -0.61263362358E+01 -0.20234445047E+00  0.39056409818E+02  0.39574408597E+02  0.17770000000E+01 0. -1.
</event>
<event>
 6    1  0.1226227E-002  0.1871663E+03  0.7546771E-02  0.1064800E+00
        -11   -1    0    0    0    0  0.00000000000E+00  0.00000000000E+00  0.18250000000E+03  0.18250000000E+03  0.00000000000E+00 0.  1.
         11   -1    0    0    0    0 -0.00000000000E+00 -0.00000000000E+00 -0.18250000000E+03  0.18250000000E+03  0.00000000000E+00 0.  1.
        -11    1    1    2    0    0 -0.15549499961E+01  0.26003459504E+01  0.17780784335E+03  0.17783365493E+03  0.00000000000E+00 0.  1.
         11    1    1    2    0    0 -0.13738116868E+01  0.19433253630E+01 -0.16908486789E+03  0.16910161567E+03  0.00000000000E+00 0.  1.
        -15    1    1    2    0    0  0.38705495724E+01 -0.57688777209E+01 -0.12029944946E+02  0.14004942290E+02  0.17770000000E+01 0.  1.
         15    1    1    2    0    0 -0.94178788950E+00  0.12252064075E+01  0.33069694855E+01  0.40597871063E+01  0.17770000000E+01 0. -1.
</event>
<event>
 6    1  0.1226227E-002  0.1848508E+03  0.7546771E-02  0.1066599E+00
        -11   -1    0    0    0    0  0.00000000000E+00  0.00000000000E+00  0.18250000000E+03  0.18250000000E+03  0.00000000000E+00 0.  1.
         11   -1    0    0    0    0 -0.00000000000E+00 -0.00000000000E+00 -0.18250000000E+03  0.18250000000E+03  0.00000000000E+00 0.  1.
        -11    1    1    2    0    0 -0.32382495583E+01 -0.96110607635E+00  0.17181244591E+02  0.17510144225E+02  0.00000000000E+00 0.  1.
         11    1    1    2    0    0 -0.45404706868E+01 -0.27968698713E+01 -0.18007026204E+03  0.18014920934E+03  0.00000000000E+00 0.  1.
        -15    1    1    2    0    0  0.12786538141E+00  0.54688143137E+01  0.17652689197E+01  0.60164925756E+01  0.17770000000E+01 0. -1.
         15    1    1    2    0    0  0.76508548637E+01 -0.17108383661E+01  0.16112374853E+03  0.16132415386E+03  0.17770000000E+01 0.  1.
</event>
<event>
 6    1  0.1226227E-002  0.1832675E+03  0.7546771E-02  0.1067846E+00
        -11   -1    0    0    0    0  0.00000000000E+00  0.00000000000E+00  0.18250000000E+03  0.18250000000E+03  0.00000000000E+00 0.  1.
         11   -1    0    0    0    0 -0.00000000000E+00 -0.00000000000E+00 -0.18250000000E+03  0.18250000000E+03  0.00000000000E+00 0. -1.
        -11    1    1    2    0    0 -0.54141975993E+01  0.17348767288E+01  0.18164358214E+03  0.18173253496E+03  0.00000000000E+00 0.  1.
         11    1    1    2    0    0  0.18369506172E+01 -0.12735516832E+01 -0.14587911947E+03  0.14589624334E+03  0.00000000000E+00 0. -1.
        -15    1    1    2    0    0 -0.11968095046E+01  0.76415087093E+00 -0.27447035336E+02  0.27541128468E+02  0.17770000000E+01 0. -1.
         15    1    1    2    0    0  0.47740564867E+01 -0.12254759166E+01 -0.83174273273E+01  0.98300932297E+01  0.17770000000E+01 0. -1.
</event>
<event>
 6    1  0.1226227E-002  0.1875286E+03  0.7546771E-02  0.1064521E+00
        -11   -1    0    0    0    0  0.00000000000E+00  0.00000000000E+00  0.18250000000E+03  0.18250000000E+03  0.00000000000E+00 0.  1.
         11   -1    0    0    0    0 -0.00000000000E+00 -0.00000000000E+00 -0.18250000000E+03  0.18250000000E+03  0.00000000000E+00 0. -1.
        -11    1    1    2    0    0  0.11423578287E+02  0.35607708795E+01  0.17706752224E+03  0.17747136294E+03  0.00000000000E+00 0.  1.
         11    1    1    2    0    0 -0.16608266315E+01 -0.82329122069E+01 -0.14739086212E+03  0.14762996113E+03  0.00000000000E+00 0. -1.
        -15    1    1    2    0    0 -0.13103442270E+02  0.42062817596E+01 -0.47268433567E+01  0.14659255871E+02  0.17770000000E+01 0.  1.
         15    1    1    2    0    0  0.33406906146E+01  0.46585956774E+00 -0.24949816770E+02  0.25239420056E+02  0.17770000000E+01 0. -1.
</event>
<event>
 6    1  0.1226227E-002  0.1841813E+03  0.7546771E-02  0.1067124E+00
        -11   -1    0    0    0    0  0.00000000000E+00  0.00000000000E+00  0.18250000000E+03  0.18250000000E+03  0.00000000000E+00 0.  1.
         11   -1    0    0    0    0 -0.00000000000E+00 -0.00000000000E+00 -0.18250000000E+03  0.18250000000E+03  0.00000000000E+00 0. -1.
        -11    1    1    2    0    0  0.29700910818E+01 -0.15710467184E+01  0.16337325345E+03  0.16340780144E+03  0.00000000000E+00 0.  1.
         11    1    1    2    0    0  0.28378305051E+01 -0.32071598978E+01 -0.18076801993E+03  0.18081873848E+03  0.00000000000E+00 0. -1.
        -15    1    1    2    0    0 -0.66140293440E+01  0.22179162913E+01  0.15365225449E+02  0.16967982170E+02  0.17770000000E+01 0. -1.
         15    1    1    2    0    0  0.80610775703E+00  0.25602903250E+01  0.20295410326E+01  0.38054779026E+01  0.17770000000E+01 0.  1.
</event>
<event>
 6    1  0.1226227E-002  0.1844246E+03  0.7546771E-02  0.1066933E+00
        -11   -1    0    0    0    0  0.00000000000E+00  0.00000000000E+00  0.18250000000E+03  0.18250000000E+03  0.00000000000E+00 0.  1.
         11   -1    0    0    0    0 -0.00000000000E+00 -0.00000000000E+00 -0.18250000000E+03  0.18250000000E+03  0.00000000000E+00 0.  1.
        -11    1    1    2    0    0 -0.16774028301E+01  0.23565996140E+01  0.16024077345E+03  0.16026687966E+03  0.00000000000E+00 0.  1.
         11    1    1    2    0    0 -0.14520603049E+01 -0.93313202173E+01 -0.18032830897E+03  0.18057541646E+03  0.00000000000E+00 0.  1.
        -15    1    1    2    0    0  0.22260037789E+00  0.68799947136E+01  0.50037025516E+01  0.86935980130E+01  0.17770000000E+01 0. -1.
         15    1    1    2    0    0  0.29068627571E+01  0.94725889681E-01  0.15083832967E+02  0.15464105860E+02  0.17770000000E+01 0. -1.
</event>
<event>
 6    1  0.1226227E-002  0.1832866E+03  0.7546771E-02  0.1067830E+00
        -11   -1    0    0    0    0  0.00000000000E+00  0.00000000000E+00  0.18250000000E+03  0.18250000000E+03  0.00000000000E+00 0. -1.
         11   -1    0    0    0    0 -0.00000000000E+00 -0.00000000000E+00 -0.18250000000E+03  0.18250000000E+03  0.00000000000E+00 0.  1.
        -11    1    1    2    0    0 -0.39726507748E+01 -0.35799124109E+00  0.18166958788E+03  0.18171337120E+03  0.00000000000E+00 0. -1.
         11    1    1    2    0    0  0.72496128490E+00  0.15396544139E+01 -0.11557177352E+03  0.11558430230E+03  0.00000000000E+00 0.  1.
        -15    1    1    2    0    0 -0.12665382563E+01 -0.25680388831E+01 -0.58407000876E+02  0.58504140222E+02  0.17770000000E+01 0.  1.
         15    1    1    2    0    0  0.45142277463E+01  0.13863757103E+01 -0.76908134847E+01  0.91981862784E+01  0.17770000000E+01 0. -1.
</event>
<event>
 6    1  0.1226227E-002  0.1835124E+03  0.7546771E-02  0.1067652E+00
        -11   -1    0    0    0    0  0.00000000000E+00  0.00000000000E+00  0.18250000000E+03  0.18250000000E+03  0.00000000000E+00 0.  1.
         11   -1    0    0    0    0 -0.00000000000E+00 -0.00000000000E+00 -0.18250000000E+03  0.18250000000E+03  0.00000000000E+00 0.  1.
        -11    1    1    2    0    0  0.11379627367E+01  0.52127185061E+01  0.72153012357E+02  0.72350014413E+02  0.00000000000E+00 0.  1.
         11    1    1    2    0    0  0.60580781398E+01 -0.56997293421E+00 -0.18138552316E+03  0.18148755658E+03  0.00000000000E+00 0.  1.
        -15    1    1    2    0    0 -0.10528404041E+02 -0.32203098781E+01  0.10378757789E+03  0.10438504079E+03  0.17770000000E+01 0.  1.
         15    1    1    2    0    0  0.33323631648E+01 -0.14224356937E+01  0.54449329136E+01  0.67773882136E+01  0.17770000000E+01 0. -1.
</event>
<event>
 6    1  0.1226227E-002  0.1826684E+03  0.7546771E-02  0.1068321E+00
        -11   -1    0    0    0    0  0.00000000000E+00  0.00000000000E+00  0.18250000000E+03  0.18250000000E+03  0.00000000000E+00 0.  1.
         11   -1    0    0    0    0 -0.00000000000E+00 -0.00000000000E+00 -0.18250000000E+03  0.18250000000E+03  0.00000000000E+00 0.  1.
        -11    1    1    2    0    0 -0.49680166353E+00  0.46246703355E+00  0.33464934601E+02  0.33471817033E+02  0.00000000000E+00 0.  1.
         11    1    1    2    0    0 -0.13689756117E+01  0.24532647881E+01 -0.18230992373E+03  0.18233156856E+03  0.00000000000E+00 0.  1.
        -15    1    1    2    0    0  0.14827202700E+01  0.20889263005E+00  0.12925497532E+03  0.12927586190E+03  0.17770000000E+01 0.  1.
         15    1    1    2    0    0  0.38305700522E+00 -0.31246244517E+01  0.19590013807E+02  0.19920752510E+02  0.17770000000E+01 0.  1.
</event>
<event>
 6    1  0.1226227E-002  0.1827369E+03  0.7546771E-02  0.1068266E+00
        -11   -1    0    0    0    0  0.00000000000E+00  0.00000000000E+00  0.18250000000E+03  0.18250000000E+03  0.00000000000E+00 0.  1.
         11   -1    0    0    0    0 -0.00000000000E+00 -0.00000000000E+00 -0.18250000000E+03  0.18250000000E+03  0.00000000000E+00 0.  1.
        -11    1    1    2    0    0  0.18554346491E+01 -0.39574166557E+01  0.18221064206E+03  0.18226305678E+03  0.00000000000E+00 0.  1.
         11    1    1    2    0    0  0.22504133126E+01  0.20589651395E+01 -0.12963474935E+03  0.12967062866E+03  0.00000000000E+00 0.  1.
        -15    1    1    2    0    0 -0.11269292845E+00  0.20516001497E+01 -0.15872243889E+02  0.16103031328E+02  0.17770000000E+01 0.  1.
         15    1    1    2    0    0 -0.39931550333E+01 -0.15314863351E+00 -0.36703648823E+02  0.36963283236E+02  0.17770000000E+01 0. -1.
</event>
<event>
 6    1  0.1226227E-002  0.1861106E+03  0.7546771E-02  0.1065617E+00
        -11   -1    0    0    0    0  0.00000000000E+00  0.00000000000E+00  0.18250000000E+03  0.18250000000E+03  0.00000000000E+00 0.  1.
         11   -1    0    0    0    0 -0.00000000000E+00 -0.00000000000E+00 -0.18250000000E+03  0.18250000000E+03  0.00000000000E+00 0. -1.
        -11    1    1    2    0    0 -0.55106200031E+01  0.10874078181E+02  0.17847353400E+03  0.17888939277E+03  0.00000000000E+00 0.  1.
         11    1    1    2    0    0  0.62312347108E+01  0.82656129758E+01 -0.12731066449E+03  0.12773078696E+03  0.00000000000E+00 0. -1.
        -15    1    1    2    0    0 -0.81242263463E+01 -0.13394591265E+02 -0.43090232154E+02  0.45884027340E+02  0.17770000000E+01 0. -1.
         15    1    1    2    0    0  0.74036116386E+01 -0.57450998926E+01 -0.80726373573E+01  0.12495792931E+02  0.17770000000E+01 0. -1.
</event>
<event>
 6    1  0.1226227E-002  0.1840066E+03  0.7546771E-02  0.1067262E+00
        -11   -1    0    0    0    0  0.00000000000E+00  0.00000000000E+00  0.18250000000E+03  0.18250000000E+03  0.00000000000E+00 0. -1.
         11   -1    0    0    0    0 -0.00000000000E+00 -0.00000000000E+00 -0.18250000000E+03  0.18250000000E+03  0.00000000000E+00 0. -1.
        -11    1    1    2    0    0 -0.16048417550E+01 -0.29833747136E+01  0.18096170242E+03  0.18099340812E+03  0.00000000000E+00 0. -1.
         11    1    1    2    0    0  0.51997256300E+01  0.38583885777E+00 -0.13806711657E+03  0.13816553368E+03  0.00000000000E+00 0. -1.
        -15    1    1    2    0    0 -0.91560738387E+01  0.39965627209E+01 -0.25862177170E+02  0.27781579125E+02  0.17770000000E+01 0. -1.
         15    1    1    2    0    0  0.55611899637E+01 -0.13990268651E+01 -0.17032408677E+02  0.18059479071E+02  0.17770000000E+01 0.  1.
</event>
<event>
 6    1  0.1226227E-002  0.1321612E+03  0.7546771E-02  0.1117536E+00
        -11   -1    0    0    0    0  0.00000000000E+00  0.00000000000E+00  0.18250000000E+03  0.18250000000E+03  0.00000000000E+00 0.  1.
         11   -1    0    0    0    0 -0.00000000000E+00 -0.00000000000E+00 -0.18250000000E+03  0.18250000000E+03  0.00000000000E+00 0.  1.
        -11    1    1    2    0    0 -0.13777313364E+02 -0.20350686964E+02  0.12890571430E+03  0.13122746665E+03  0.00000000000E+00 0.  1.
         11    1    1    2    0    0  0.97250728559E+01 -0.19708056615E+00 -0.13361159254E+03  0.13396519527E+03  0.00000000000E+00 0.  1.
        -15    1    1    2    0    0  0.23451151191E+01  0.49476165980E+02  0.32778264576E+02  0.59421906084E+02  0.17770000000E+01 0.  1.
         15    1    1    2    0    0  0.17071253884E+01 -0.28928398450E+02 -0.28072386333E+02  0.40385431995E+02  0.17770000000E+01 0. -1.
</event>
<event>
 6    1  0.1226227E-002  0.1826993E+03  0.7546771E-02  0.1068296E+00
        -11   -1    0    0    0    0  0.00000000000E+00  0.00000000000E+00  0.18250000000E+03  0.18250000000E+03  0.00000000000E+00 0. -1.
         11   -1    0    0    0    0 -0.00000000000E+00 -0.00000000000E+00 -0.18250000000E+03  0.18250000000E+03  0.00000000000E+00 0. -1.
        -11    1    1    2    0    0  0.10198203506E+01  0.30499192986E+00  0.46276635466E+02  0.46288876025E+02  0.00000000000E+00 0. -1.
         11    1    1    2    0    0  0.45157673467E+00 -0.26120957558E+01 -0.18228141992E+03  0.18230069395E+03  0.00000000000E+00 0. -1.
        -15    1    1    2    0    0  0.14602754646E+01 -0.58638440654E+00  0.10971298214E+03  0.10973865513E+03  0.17770000000E+01 0. -1.
         15    1    1    2    0    0 -0.29316725499E+01  0.28934882325E+01  0.26291802318E+02  0.26671774898E+02  0.17770000000E+01 0.  1.
</event>
<event>
 6    1  0.1226227E-002  0.1841235E+03  0.7546771E-02  0.1067170E+00
        -11   -1    0    0    0    0  0.00000000000E+00  0.00000000000E+00  0.18250000000E+03  0.18250000000E+03  0.00000000000E+00 0. -1.
         11   -1    0    0    0    0 -0.00000000000E+00 -0.00000000000E+00 -0.18250000000E+03  0.18250000000E+03  0.00000000000E+00 0. -1.
        -11    1    1    2    0    0  0.25887744107E+01  0.36052485511E+01  0.18082202062E+03  0.18087648469E+03  0.00000000000E+00 0. -1.
         11    1    1    2    0    0 -0.14582762783E+01 -0.29896918713E+01 -0.16821126586E+03  0.16824415232E+03  0.00000000000E+00 0. -1.
        -15    1    1    2    0    0 -0.43400971038E+01 -0.27190315581E+01 -0.70501842872E+01  0.88933909712E+01  0.17770000000E+01 0.  1.
         15    1    1    2    0    0  0.32095989713E+01  0.21034748782E+01 -0.55605704749E+01  0.69859720245E+01  0.17770000000E+01 0. -1.
</event>
<event>
 6    1  0.1226227E-002  0.1837678E+03  0.7546771E-02  0.1067450E+00
        -11   -1    0    0    0    0  0.00000000000E+00  0.00000000000E+00  0.18250000000E+03  0.18250000000E+03  0.00000000000E+00 0.  1.
         11   -1    0    0    0    0 -0.00000000000E+00 -0.00000000000E+00 -0.18250000000E+03  0.18250000000E+03  0.00000000000E+00 0.  1.
        -11    1    1    2    0    0 -0.14443495891E+01  0.11755540034E+01  0.12017606478E+03  0.12019049305E+03  0.00000000000E+00 0.  1.
         11    1    1    2    0    0 -0.44362800964E+01  0.27104633593E+01 -0.18115764155E+03  0.18123222198E+03  0.00000000000E+00 0.  1.
        -15    1    1    2    0    0  0.22370056821E+00 -0.69444156794E+01  0.51422380537E+02  0.51920072228E+02  0.17770000000E+01 0. -1.
         15    1    1    2    0    0  0.56569291173E+01  0.30583983168E+01  0.95591962285E+01  0.11657212739E+02  0.17770000000E+01 0.  1.
</event>
<event>
 6    1  0.1226227E-002  0.1777154E+03  0.7546771E-02  0.1072328E+00
        -11   -1    0    0    0    0  0.00000000000E+00  0.00000000000E+00  0.18250000000E+03  0.18250000000E+03  0.00000000000E+00 0. -1.
         11   -1    0    0    0    0 -0.00000000000E+00 -0.00000000000E+00 -0.18250000000E+03  0.18250000000E+03  0.00000000000E+00 0.  1.
        -11    1    1    2    0    0  0.35027132273E+02 -0.33863836197E+01  0.17729857421E+03  0.18075716308E+03  0.00000000000E+00 0. -1.
         11    1    1    2    0    0 -0.10825681224E+01  0.63810016659E+01 -0.85739926047E+01  0.10742554872E+02  0.00000000000E+00 0.  1.
        -15    1    1    2    0    0 -0.33429271194E+01 -0.83774186224E+01 -0.44146549252E+02  0.45093589836E+02  0.17770000000E+01 0. -1.
         15    1    1    2    0    0 -0.30601637031E+02  0.53828005762E+01 -0.12457803235E+03  0.12840669221E+03  0.17770000000E+01 0.  1.
</event>
<event>
 6    1  0.1226227E-002  0.1744671E+03  0.7546771E-02  0.1075035E+00
        -11   -1    0    0    0    0  0.00000000000E+00  0.00000000000E+00  0.18250000000E+03  0.18250000000E+03  0.00000000000E+00 0. -1.
         11   -1    0    0    0    0 -0.00000000000E+00 -0.00000000000E+00 -0.18250000000E+03  0.18250000000E+03  0.00000000000E+00 0. -1.
        -11    1    1    2    0    0  0.10167688760E+02 -0.39281353792E+01  0.17233915379E+03  0.17268351419E+03  0.00000000000E+00 0. -1.
         11    1    1    2    0    0  0.25648607156E+01  0.21116683659E+01 -0.17648093191E+03  0.17651220066E+03  0.00000000000E+00 0. -1.
        -15    1    1    2    0    0 -0.12332641570E+02  0.27942541272E+01  0.47891113546E+01  0.13638006482E+02  0.17770000000E+01 0. -1.
         15    1    1    2    0    0 -0.39990790574E+00 -0.97778711392E+00 -0.64733324176E+00  0.21662786753E+01  0.17770000000E+01 0. -1.
</event>
<event>
 6    1  0.1226227E-002  0.1829544E+03  0.7546771E-02  0.1068094E+00
        -11   -1    0    0    0    0  0.00000000000E+00  0.00000000000E+00  0.18250000000E+03  0.18250000000E+03  0.00000000000E+00 0. -1.
         11   -1    0    0    0    0 -0.00000000000E+00 -0.00000000000E+00 -0.18250000000E+03  0.18250000000E+03  0.00000000000E+00 0.  1.
        -11    1    1    2    0    0  0.20862467542E+01 -0.18432088529E+01  0.13674245694E+03  0.13677079138E+03  0.00000000000E+00 0. -1.
         11    1    1    2    0    0 -0.31152899270E+01 -0.41905747864E+00 -0.18201848931E+03  0.18204562915E+03  0.00000000000E+00 0.  1.
        -15    1    1    2    0    0  0.11200863877E+01 -0.25092676034E+01  0.95202888559E+01  0.10067007814E+02  0.17770000000E+01 0.  1.
         15    1    1    2    0    0 -0.91043214893E-01  0.47715339350E+01  0.35755743512E+02  0.36116571655E+02  0.17770000000E+01 0. -1.
</event>
<event>
 6    1  0.1226227E-002  0.1927966E+03  0.7546771E-02  0.1060542E+00
        -11   -1    0    0    0    0  0.00000000000E+00  0.00000000000E+00  0.18250000000E+03  0.18250000000E+03  0.00000000000E+00 0.  1.
         11   -1    0    0    0    0 -0.00000000000E+00 -0.00000000000E+00 -0.18250000000E+03  0.18250000000E+03  0.00000000000E+00 0. -1.
        -11    1    1    2    0    0  0.12678292042E+02 -0.14589086232E+02  0.17111524434E+03  0.17220338954E+03  0.00000000000E+00 0.  1.
         11    1    1    2    0    0  0.16232591519E+01  0.93155554920E+00 -0.13283443023E+03  0.13284761428E+03  0.00000000000E+00 0. -1.
        -15    1    1    2    0    0  0.43379987705E+01 -0.86418324029E+01 -0.26979258826E+02  0.28714763388E+02  0.17770000000E+01 0. -1.
         15    1    1    2    0    0 -0.18639549964E+02  0.22299363086E+02 -0.11301555281E+02  0.31234232785E+02  0.17770000000E+01 0.  1.
</event>
<event>
 6    1  0.1226227E-002  0.1906223E+03  0.7546771E-02  0.1062167E+00
        -11   -1    0    0    0    0  0.00000000000E+00  0.00000000000E+00  0.18250000000E+03  0.18250000000E+03  0.00000000000E+00 0.  1.
         11   -1    0    0    0    0 -0.00000000000E+00 -0.00000000000E+00 -0.18250000000E+03  0.18250000000E+03  0.00000000000E+00 0. -1.
        -11    1    1    2    0    0 -0.73399603676E+01  0.19205630945E+01  0.15951432251E+03  0.15969465447E+03  0.00000000000E+00 0.  1.
         11    1    1    2    0    0 -0.56104490017E+01  0.30675581158E+01 -0.17426043350E+03  0.17437770997E+03  0.00000000000E+00 0. -1.
        -15    1    1    2    0    0  0.94639509467E+01 -0.45131471943E+01 -0.43051188253E+01  0.11472865476E+02  0.17770000000E+01 0.  1.
         15    1    1    2    0    0  0.34864584225E+01 -0.47497401596E+00  0.19051229813E+02  0.19454770085E+02  0.17770000000E+01 0. -1.
</event>
<event>
 6    1  0.1226227E-002  0.1844541E+03  0.7546771E-02  0.1066910E+00
        -11   -1    0    0    0    0  0.00000000000E+00  0.00000000000E+00  0.18250000000E+03  0.18250000000E+03  0.00000000000E+00 0. -1.
         11   -1    0    0    0    0 -0.00000000000E+00 -0.00000000000E+00 -0.18250000000E+03  0.18250000000E+03  0.00000000000E+00 0. -1.
        -11    1    1    2    0    0 -0.52914834100E+01 -0.86725292603E+01  0.13224723008E+03  0.13263688184E+03  0.00000000000E+00 0. -1.
         11    1    1    2    0    0 -0.20379618861E+01  0.21172511230E+01 -0.18052200885E+03  0.18054592690E+03  0.00000000000E+00 0. -1.
        -15    1    1    2    0    0  0.78777562535E+01  0.11171692288E+02  0.33440824705E+02  0.36170599085E+02  0.17770000000E+01 0. -1.
         15    1    1    2    0    0 -0.54831095740E+00 -0.46164141509E+01  0.14833954060E+02  0.15646592172E+02  0.17770000000E+01 0.  1.
</event>
<event>
 6    1  0.1226227E-002  0.1848747E+03  0.7546771E-02  0.1066580E+00
        -11   -1    0    0    0    0  0.00000000000E+00  0.00000000000E+00  0.18250000000E+03  0.18250000000E+03  0.00000000000E+00 0.  1.
         11   -1    0    0    0    0 -0.00000000000E+00 -0.00000000000E+00 -0.18250000000E+03  0.18250000000E+03  0.00000000000E+00 0. -1.
        -11    1    1    2    0    0 -0.61295235545E+01  0.16443566160E+00  0.18002090931E+03  0.18012530607E+03  0.00000000000E+00 0.  1.
         11    1    1    2    0    0 -0.82519413124E+00  0.43994316486E+01 -0.16622480794E+03  0.16628506463E+03  0.00000000000E+00 0. -1.
        -15    1    1    2    0    0  0.29827078880E+01  0.41456915644E+00 -0.23743596156E+00  0.35046424592E+01  0.17770000000E+01 0.  1.
         15    1    1    2    0    0  0.39720097977E+01 -0.49784364666E+01 -0.13558665407E+02  0.15084986845E+02  0.17770000000E+01 0. -1.
</event>
<event>
 6    1  0.2135383E-002  0.1834610E+03  0.7546771E-02  0.1067692E+00
        -11   -1    0    0    0    0  0.00000000000E+00  0.00000000000E+00  0.18250000000E+03  0.18250000000E+03  0.00000000000E+00 0.  1.
         11   -1    0    0    0    0 -0.00000000000E+00 -0.00000000000E+00 -0.18250000000E+03  0.18250000000E+03  0.00000000000E+00 0.  1.
        -11    1    1    2    0    0  0.13146416280E+01 -0.20795887705E+01  0.18152234490E+03  0.18153901693E+03  0.00000000000E+00 0.  1.
         11    1    1    2    0    0  0.10276794462E+01  0.69196647199E+01 -0.11933326392E+03  0.11953813519E+03  0.00000000000E+00 0.  1.
        -15    1    1    2    0    0 -0.17240777986E+01 -0.70853613742E+01 -0.59418985057E+02  0.59891137110E+02  0.17770000000E+01 0. -1.
         15    1    1    2    0    0 -0.61824327554E+00  0.22452854248E+01 -0.27700959129E+01  0.40317107725E+01  0.17770000000E+01 0.  1.
</event>
<event>
 6    1  0.1226227E-002  0.1837710E+03  0.7546771E-02  0.1067448E+00
        -11   -1    0    0    0    0  0.00000000000E+00  0.00000000000E+00  0.18250000000E+03  0.18250000000E+03  0.00000000000E+00 0.  1.
         11   -1    0    0    0    0 -0.00000000000E+00 -0.00000000000E+00 -0.18250000000E+03  0.18250000000E+03  0.00000000000E+00 0. -1.
        -11    1    1    2    0    0 -0.30058991347E+01 -0.42837132852E+01  0.15734928078E+03  0.15743627851E+03  0.00000000000E+00 0.  1.
         11    1    1    2    0    0 -0.35860648982E+01  0.84151559942E+00 -0.18119152266E+03  0.18122895986E+03  0.00000000000E+00 0. -1.
        -15    1    1    2    0    0  0.96622888609E+00 -0.34673117634E+00  0.72327988750E+00  0.21759328033E+01  0.17770000000E+01 0. -1.
         15    1    1    2    0    0  0.56257351468E+01  0.37889288622E+01  0.23118961988E+02  0.24158828826E+02  0.17770000000E+01 0.  1.
</event>
<event>
 6    1  0.1226227E-002  0.1780525E+03  0.7546771E-02  0.1072051E+00
        -11   -1    0    0    0    0  0.00000000000E+00  0.00000000000E+00  0.18250000000E+03  0.18250000000E+03  0.00000000000E+00 0.  1.
         11   -1    0    0    0    0 -0.00000000000E+00 -0.00000000000E+00 -0.18250000000E+03  0.18250000000E+03  0.00000000000E+00 0. -1.
        -11    1    1    2    0    0 -0.44130567703E+01  0.68546264334E-02  0.17847544005E+03  0.17852999136E+03  0.00000000000E+00 0.  1.
         11    1    1    2    0    0 -0.17702801068E+00  0.28038393298E+01 -0.17759454555E+03  0.17761676572E+03  0.00000000000E+00 0. -1.
        -15    1    1    2    0    0 -0.24517434793E+00  0.12553838629E+01  0.21329210453E+00  0.21998458187E+01  0.17770000000E+01 0. -1.
         15    1    1    2    0    0  0.48352591289E+01 -0.40660778192E+01 -0.10941866002E+01  0.66533971016E+01  0.17770000000E+01 0. -1.
</event>
<event>
 6    1  0.1226227E-002  0.1833029E+03  0.7546771E-02  0.1067817E+00
        -11   -1    0    0    0    0  0.00000000000E+00  0.00000000000E+00  0.18250000000E+03  0.18250000000E+03  0.00000000000E+00 0. -1.
         11   -1    0    0    0    0 -0.00000000000E+00 -0.00000000000E+00 -0.18250000000E+03  0.18250000000E+03  0.00000000000E+00 0. -1.
        -11    1    1    2    0    0  0.82345832628E+00 -0.17578418465E+00  0.38453799482E+02  0.38463017021E+02  0.00000000000E+00 0. -1.
         11    1    1    2    0    0 -0.35456702666E+01  0.23307104608E+01 -0.18164754771E+03  0.18169709843E+03  0.00000000000E+00 0. -1.
        -15    1    1    2    0    0  0.39118399255E+01 -0.37187583339E+01  0.91561404352E+01  0.10776098172E+02  0.17770000000E+01 0.  1.
         15    1    1    2    0    0 -0.11896279852E+01  0.15638320578E+01  0.13403760779E+03  0.13406378638E+03  0.17770000000E+01 0. -1.
</event>
<event>
 6    1  0.1226227E-002  0.1832168E+03  0.7546771E-02  0.1067886E+00
        -11   -1    0    0    0    0  0.00000000000E+00  0.00000000000E+00  0.18250000000E+03  0.18250000000E+03  0.00000000000E+00 0. -1.
         11   -1    0    0    0    0 -0.00000000000E+00 -0.00000000000E+00 -0.18250000000E+03  0.18250000000E+03  0.00000000000E+00 0.  1.
        -11    1    1    2    0    0  0.32678880819E+00  0.49342732653E+00  0.57452869209E+01  0.57756889854E+01  0.00000000000E+00 0. -1.
         11    1    1    2    0    0  0.44912741138E+01  0.21373654885E+01 -0.18171511831E+03  0.18178317881E+03  0.00000000000E+00 0.  1.
        -15    1    1    2    0    0 -0.21649526063E+01  0.12425778685E+01  0.26571348885E+01  0.40557507767E+01  0.17770000000E+01 0.  1.
         15    1    1    2    0    0 -0.26531103156E+01 -0.38733706835E+01  0.17331269650E+03  0.17338538143E+03  0.17770000000E+01 0. -1.
</event>
<event>
 6    1  0.1226227E-002  0.1867438E+03  0.7546771E-02  0.1065126E+00
        -11   -1    0    0    0    0  0.00000000000E+00  0.00000000000E+00  0.18250000000E+03  0.18250000000E+03  0.00000000000E+00 0.  1.
         11   -1    0    0    0    0 -0.00000000000E+00 -0.00000000000E+00 -0.18250000000E+03  0.18250000000E+03  0.00000000000E+00 0.  1.
        -11    1    1    2    0    0 -0.41497071106E+01  0.17872336689E+01  0.15134888624E+03  0.15141631233E+03  0.00000000000E+00 0.  1.
         11    1    1    2    0    0  0.22183276876E+01 -0.20010510836E+01 -0.17823119139E+03  0.17825622785E+03  0.00000000000E+00 0.  1.
        -15    1    1    2    0    0  0.34437338849E+01 -0.20137138725E+01  0.30308515741E+02  0.30621531674E+02  0.17770000000E+01 0.  1.
         15    1    1    2    0    0 -0.15123544619E+01  0.22275312872E+01 -0.34262105967E+01  0.47059281451E+01  0.17770000000E+01 0. -1.
</event>
<event>
 6    1  0.1226227E-002  0.1856954E+03  0.7546771E-02  0.1065939E+00
        -11   -1    0    0    0    0  0.00000000000E+00  0.00000000000E+00  0.18250000000E+03  0.18250000000E+03  0.00000000000E+00 0. -1.
         11   -1    0    0    0    0 -0.00000000000E+00 -0.00000000000E+00 -0.18250000000E+03  0.18250000000E+03  0.00000000000E+00 0.  1.
        -11    1    1    2    0    0  0.40859756031E+00 -0.24570685051E+01  0.17928728778E+03  0.17930458917E+03  0.00000000000E+00 0. -1.
         11    1    1    2    0    0 -0.10992780248E+01  0.32805993624E+01 -0.17628191904E+03  0.17631586918E+03  0.00000000000E+00 0.  1.
        -15    1    1    2    0    0 -0.85327872702E+00  0.19156429812E+01 -0.46573034593E+01  0.54079549859E+01  0.17770000000E+01 0.  1.
         15    1    1    2    0    0  0.15439591915E+01 -0.27391738385E+01  0.16519347259E+01  0.39715866654E+01  0.17770000000E+01 0. -1.
</event>
<event>
 6    1  0.1226227E-002  0.1853216E+03  0.7546771E-02  0.1066231E+00
        -11   -1    0    0    0    0  0.00000000000E+00  0.00000000000E+00  0.18250000000E+03  0.18250000000E+03  0.00000000000E+00 0.  1.
         11   -1    0    0    0    0 -0.00000000000E+00 -0.00000000000E+00 -0.18250000000E+03  0.18250000000E+03  0.00000000000E+00 0. -1.
        -11    1    1    2    0    0  0.42930503071E+01  0.27358231195E+01  0.16729159614E+03  0.16736903282E+03  0.00000000000E+00 0.  1.
         11    1    1    2    0    0  0.16275976844E+01  0.55662086690E+01 -0.17958481808E+03  0.17967843120E+03  0.00000000000E+00 0. -1.
        -15    1    1    2    0    0 -0.23937548383E+01 -0.84985640679E+01  0.73663019975E+01  0.11635110122E+02  0.17770000000E+01 0.  1.
         15    1    1    2    0    0 -0.35268931532E+01  0.19653227936E+00  0.49269199471E+01  0.63174258536E+01  0.17770000000E+01 0. -1.
</event>
<event>
 6    1  0.1226227E-002  0.1848170E+03  0.7546771E-02  0.1066625E+00
        -11   -1    0    0    0    0  0.00000000000E+00  0.00000000000E+00  0.18250000000E+03  0.18250000000E+03  0.00000000000E+00 0. -1.
         11   -1    0    0    0    0 -0.00000000000E+00 -0.00000000000E+00 -0.18250000000E+03  0.18250000000E+03  0.00000000000E+00 0. -1.
        -11    1    1    2    0    0  0.47377164990E+01 -0.64850772446E+00  0.18011954080E+03  0.18018300558E+03  0.00000000000E+00 0. -1.
         11    1    1    2    0    0  0.15634176376E+01  0.57734873214E+01 -0.16810261483E+03  0.16820899661E+03  0.00000000000E+00 0. -1.
        -15    1    1    2    0    0 -0.20208413082E+01 -0.54886863909E+01 -0.95670138267E+01  0.11353191642E+02  0.17770000000E+01 0. -1.
         15    1    1    2    0    0 -0.42802928284E+01  0.36370679399E+00 -0.24499121476E+01  0.52548061676E+01  0.17770000000E+01 0.  1.
</event>
<event>
 6    1  0.1226227E-002  0.1187395E+03  0.7546771E-02  0.1134858E+00
        -11   -1    0    0    0    0  0.00000000000E+00  0.00000000000E+00  0.18250000000E+03  0.18250000000E+03  0.00000000000E+00 0. -1.
         11   -1    0    0    0    0 -0.00000000000E+00 -0.00000000000E+00 -0.18250000000E+03  0.18250000000E+03  0.00000000000E+00 0.  1.
        -11    1    1    2    0    0  0.24819264902E+01 -0.55313534483E+00  0.54717310850E+02  0.54776363739E+02  0.00000000000E+00 0. -1.
         11    1    1    2    0    0  0.13095571673E+01 -0.30363614625E-01 -0.72068765499E+02  0.72080668854E+02  0.00000000000E+00 0.  1.
        -15    1    1    2    0    0 -0.11149736428E+02 -0.13369934588E+01  0.12735553831E+03  0.12786201563E+03  0.17770000000E+01 0. -1.
         15    1    1    2    0    0  0.73582527703E+01  0.19204924182E+01 -0.11000408366E+03  0.11028095178E+03  0.17770000000E+01 0.  1.
</event>
<event>
 6    1  0.1226227E-002  0.1922677E+03  0.7546771E-02  0.1060935E+00
        -11   -1    0    0    0    0  0.00000000000E+00  0.00000000000E+00  0.18250000000E+03  0.18250000000E+03  0.00000000000E+00 0.  1.
         11   -1    0    0    0    0 -0.00000000000E+00 -0.00000000000E+00 -0.18250000000E+03  0.18250000000E+03  0.00000000000E+00 0. -1.
        -11    1    1    2    0    0 -0.17011965572E+01  0.82268163965E+00  0.11909667061E+03  0.11911166117E+03  0.00000000000E+00 0.  1.
         11    1    1    2    0    0 -0.26178565276E+01 -0.38257930658E+01 -0.17267004143E+03  0.17273225834E+03  0.00000000000E+00 0. -1.
        -15    1    1    2    0    0  0.32785743506E+01 -0.21361988667E+01  0.62502341453E+02  0.62649922677E+02  0.17770000000E+01 0.  1.
         15    1    1    2    0    0  0.10404787343E+01  0.51393102928E+01 -0.89289706390E+01  0.10506157811E+02  0.17770000000E+01 0. -1.
</event>
<event>
 6    1  0.1226227E-002  0.1842806E+03  0.7546771E-02  0.1067046E+00
        -11   -1    0    0    0    0  0.00000000000E+00  0.00000000000E+00  0.18250000000E+03  0.18250000000E+03  0.00000000000E+00 0. -1.
         11   -1    0    0    0    0 -0.00000000000E+00 -0.00000000000E+00 -0.18250000000E+03  0.18250000000E+03  0.00000000000E+00 0.  1.
        -11    1    1    2    0    0 -0.36661892695E+01 -0.62874533660E+00  0.18068114205E+03  0.18071942718E+03  0.00000000000E+00 0. -1.
         11    1    1    2    0    0  0.25938956444E+01  0.28403383194E+01 -0.17171415080E+03  0.17175722809E+03  0.00000000000E+00 0.  1.
        -15    1    1    2    0    0  0.20466573445E+01 -0.47639340808E+01 -0.57577190425E+01  0.79493982027E+01  0.17770000000E+01 0. -1.
         15    1    1    2    0    0 -0.97436371937E+00  0.25523410980E+01 -0.32092722125E+01  0.45739465314E+01  0.17770000000E+01 0. -1.
</event>
<event>
 6    1  0.1226227E-002  0.1833814E+03  0.7546771E-02  0.1067755E+00
        -11   -1    0    0    0    0  0.00000000000E+00  0.00000000000E+00  0.18250000000E+03  0.18250000000E+03  0.00000000000E+00 0. -1.
         11   -1    0    0    0    0 -0.00000000000E+00 -0.00000000000E+00 -0.18250000000E+03  0.18250000000E+03  0.00000000000E+00 0.  1.
        -11    1    1    2    0    0 -0.17237110947E+01  0.67524362970E+01  0.18148481492E+03  0.18161856904E+03  0.00000000000E+00 0. -1.
         11    1    1    2    0    0 -0.37449397380E+01 -0.48668468516E+01 -0.14121297348E+03  0.14134643487E+03  0.00000000000E+00 0.  1.
        -15    1    1    2    0    0  0.11595368187E+01 -0.50972315301E+01 -0.12100537288E+02  0.13300640081E+02  0.17770000000E+01 0.  1.
         15    1    1    2    0    0  0.43091140140E+01  0.32116420847E+01 -0.28171304153E+02  0.28734356007E+02  0.17770000000E+01 0.  1.
</event>
<event>
 6    1  0.1226227E-002  0.1885359E+03  0.7546771E-02  0.1063749E+00
        -11   -1    0    0    0    0  0.00000000000E+00  0.00000000000E+00  0.18250000000E+03  0.18250000000E+03  0.00000000000E+00 0. -1.
         11   -1    0    0    0    0 -0.00000000000E+00 -0.00000000000E+00 -0.18250000000E+03  0.18250000000E+03  0.00000000000E+00 0. -1.
        -11    1    1    2    0    0  0.10790325815E+00  0.50257300452E+01  0.16797567751E+03  0.16805087873E+03  0.00000000000E+00 0. -1.
         11    1    1    2    0    0  0.75595971149E+00  0.33412703410E+01 -0.17643080360E+03  0.17646405872E+03  0.00000000000E+00 0. -1.
        -15    1    1    2    0    0 -0.18779595009E+01 -0.54947678006E+01  0.13225335673E+02  0.14552884173E+02  0.17770000000E+01 0.  1.
         15    1    1    2    0    0  0.10140965312E+01 -0.28722325855E+01 -0.47702095883E+01  0.59321783787E+01  0.17770000000E+01 0. -1.
</event>
<event>
 6    1  0.1226227E-002  0.1830569E+03  0.7546771E-02  0.1068012E+00
        -11   -1    0    0    0    0  0.00000000000E+00  0.00000000000E+00  0.18250000000E+03  0.18250000000E+03  0.00000000000E+00 0.  1.
         11   -1    0    0    0    0 -0.00000000000E+00 -0.00000000000E+00 -0.18250000000E+03  0.18250000000E+03  0.00000000000E+00 0. -1.
        -11    1    1    2    0    0  0.69467881651E+00 -0.15398621792E+01  0.11095532698E+03  0.11096818616E+03  0.00000000000E+00 0.  1.
         11    1    1    2    0    0 -0.18719187664E+01 -0.19133658468E+01 -0.18192341964E+03  0.18194311106E+03  0.00000000000E+00 0. -1.
        -15    1    1    2    0    0 -0.94421301235E+00  0.17892632857E+01  0.66611398429E+02  0.66665801810E+02  0.17770000000E+01 0.  1.
         15    1    1    2    0    0  0.21214529623E+01  0.16639647403E+01  0.43566942263E+01  0.54229009681E+01  0.17770000000E+01 0.  1.
</event>
<event>
 6    1  0.1226227E-002  0.1854320E+03  0.7546771E-02  0.1066145E+00
        -11   -1    0    0    0    0  0.00000000000E+00  0.00000000000E+00  0.18250000000E+03  0.18250000000E+03  0.00000000000E+00 0.  1.
         11   -1    0    0    0    0 -0.00000000000E+00 -0.00000000000E+00 -0.18250000000E+03  0.18250000000E+03  0.00000000000E+00 0. -1.
        -11    1    1    2    0    0  0.31616560794E+01  0.36581677158E+01  0.17950292725E+03  0.17956803488E+03  0.00000000000E+00 0.  1.
         11    1    1    2    0    0 -0.31607535002E+01  0.51661545300E+01 -0.13020603553E+03  0.13034681126E+03  0.00000000000E+00 0. -1.
        -15    1    1    2    0    0  0.73445766380E+01 -0.81595872173E+01 -0.45025922181E+02  0.46379015371E+02  0.17770000000E+01 0.  1.
         15    1    1    2    0    0 -0.73454792172E+01 -0.66473502861E+00 -0.42709695388E+01  0.87061384890E+01  0.17770000000E+01 0.  1.
</event>
<event>
 6    1  0.1226227E-002  0.1831138E+03  0.7546771E-02  0.1067967E+00
        -11   -1    0    0    0    0  0.00000000000E+00  0.00000000000E+00  0.18250000000E+03  0.18250000000E+03  0.00000000000E+00 0. -1.
         11   -1    0    0    0    0 -0.00000000000E+00 -0.00000000000E+00 -0.18250000000E+03  0.18250000000E+03  0.00000000000E+00 0. -1.
        -11    1    1    2    0    0 -0.22803233607E+01 -0.30032699835E+00  0.16168885345E+03  0.16170521142E+03  0.00000000000E+00 0. -1.
         11    1    1    2    0    0  0.66900957182E+00  0.23916805811E+01 -0.18186926797E+03  0.18188622362E+03  0.00000000000E+00 0. -1.
        -15    1    1    2    0    0 -0.12380477093E+01 -0.29511016887E+00  0.13846251298E+02  0.14017712229E+02  0.17770000000E+01 0.  1.
         15    1    1    2    0    0  0.28493614982E+01 -0.17962434139E+01  0.63341632255E+01  0.73908527327E+01  0.17770000000E+01 0. -1.
</event>
<event>
 6    1  0.1226227E-002  0.1874201E+03  0.7546771E-02  0.1064604E+00
        -11   -1    0    0    0    0  0.00000000000E+00  0.00000000000E+00  0.18250000000E+03  0.18250000000E+03  0.00000000000E+00 0. -1.
         11   -1    0    0    0    0 -0.00000000000E+00 -0.00000000000E+00 -0.18250000000E+03  0.18250000000E+03  0.00000000000E+00 0.  1.
        -11    1    1    2    0    0  0.23390917761E+01  0.55726468068E+01  0.35149161407E+02  0.35664958858E+02  0.00000000000E+00 0. -1.
         11    1    1    2    0    0  0.32110373204E+01 -0.49502357759E+01 -0.17748179561E+03  0.17757985069E+03  0.00000000000E+00 0.  1.
        -15    1    1    2    0    0 -0.15111634547E+02  0.10102123091E+02  0.15089313697E+02  0.23690916117E+02  0.17770000000E+01 0.  1.
         15    1    1    2    0    0  0.95615054500E+01 -0.10724534122E+02  0.12724332051E+03  0.12806427434E+03  0.17770000000E+01 0. -1.
</event>
<event>
 6    1  0.1226227E-002  0.1837073E+03  0.7546771E-02  0.1067498E+00
        -11   -1    0    0    0    0  0.00000000000E+00  0.00000000000E+00  0.18250000000E+03  0.18250000000E+03  0.00000000000E+00 0.  1.
         11   -1    0    0    0    0 -0.00000000000E+00 -0.00000000000E+00 -0.18250000000E+03  0.18250000000E+03  0.00000000000E+00 0.  1.
        -11    1    1    2    0    0 -0.22477170762E+01 -0.50107828521E+01  0.18120954789E+03  0.18129274786E+03  0.00000000000E+00 0.  1.
         11    1    1    2    0    0  0.18357978512E+01 -0.38287053082E+01 -0.12119334213E+03  0.12126770103E+03  0.00000000000E+00 0.  1.
        -15    1    1    2    0    0  0.19755818781E+01  0.10528900649E+02 -0.57724505026E+02  0.58737014583E+02  0.17770000000E+01 0.  1.
         15    1    1    2    0    0 -0.15636626531E+01 -0.16894124883E+01 -0.22917007421E+01  0.37025365278E+01  0.17770000000E+01 0.  1.
</event>
<event>
 6    1  0.1226227E-002  0.1842532E+03  0.7546771E-02  0.1067068E+00
        -11   -1    0    0    0    0  0.00000000000E+00  0.00000000000E+00  0.18250000000E+03  0.18250000000E+03  0.00000000000E+00 0. -1.
         11   -1    0    0    0    0 -0.00000000000E+00 -0.00000000000E+00 -0.18250000000E+03  0.18250000000E+03  0.00000000000E+00 0.  1.
        -11    1    1    2    0    0  0.42018082418E+01 -0.71876907218E+01  0.14255067688E+03  0.14279360479E+03  0.00000000000E+00 0. -1.
         11    1    1    2    0    0  0.55012841259E+01  0.58385925446E+01 -0.18056871736E+03  0.18074682564E+03  0.00000000000E+00 0.  1.
        -15    1    1    2    0    0 -0.38658735475E+01  0.19651573949E+01  0.33540208592E+02  0.33866061821E+02  0.17770000000E+01 0.  1.
         15    1    1    2    0    0 -0.58372188203E+01 -0.61605921770E+00  0.44778318926E+01  0.75935077516E+01  0.17770000000E+01 0. -1.
</event>
<event>
 6    1  0.1226227E-002  0.1827369E+03  0.7546771E-02  0.1068266E+00
        -11   -1    0    0    0    0  0.00000000000E+00  0.00000000000E+00  0.18250000000E+03  0.18250000000E+03  0.00000000000E+00 0. -1.
         11   -1    0    0    0    0 -0.00000000000E+00 -0.00000000000E+00 -0.18250000000E+03  0.18250000000E+03  0.00000000000E+00 0. -1.
        -11    1    1    2    0    0 -0.12922086969E+01  0.17435963983E+01  0.82735212594E+02  0.82763671588E+02  0.00000000000E+00 0. -1.
         11    1    1    2    0    0 -0.13945884129E+01  0.21363887388E+01 -0.18224525167E+03  0.18226310869E+03  0.00000000000E+00 0. -1.
        -15    1    1    2    0    0  0.10077159132E+01 -0.16246934066E+00  0.77021030758E+02  0.77048288726E+02  0.17770000000E+01 0. -1.
         15    1    1    2    0    0  0.16790811967E+01 -0.37175157964E+01  0.22489008314E+02  0.22924930999E+02  0.17770000000E+01 0. -1.
</event>
