<event>
 7    1  0.3474777E-008  0.1000000E+04  0.7546771E-02  0.8684367E-01
        -11   -1    0    0    0    0  0.00000000000E+00  0.00000000000E+00  0.50000000000E+03  0.50000000000E+03  0.00000000000E+00 0.  1.
         11   -1    0    0    0    0 -0.00000000000E+00 -0.00000000000E+00 -0.50000000000E+03  0.50000000000E+03  0.00000000000E+00 0. -1.
         23    2    1    2    0    0 -0.14007567867E+03 -0.12671031323E+02 -0.97799073413E+01  0.16814547328E+03  0.91626976410E+02 0.  0.
        -11    1    3    3    0    0 -0.10091417823E+03  0.34215533669E+02 -0.10298328687E+02  0.10705339642E+03  0.00000000000E+00 0.  1.
         11    1    3    3    0    0 -0.39161500439E+02 -0.46886564992E+02  0.51842134621E+00  0.61092076852E+02  0.00000000000E+00 0. -1.
        -15    1    1    2    0    0 -0.32371065500E+03  0.12938961160E+02  0.13574465065E+03  0.35126311048E+03  0.17770000000E+01 0.  1.
         15    1    1    2    0    0  0.46378633367E+03 -0.26792983733E+00 -0.12596474331E+03  0.48059141624E+03  0.17770000000E+01 0. -1.
</event>
<event>
 7    1  0.3474777E-008  0.8779948E+03  0.7546771E-02  0.8810102E-01
        -11   -1    0    0    0    0  0.00000000000E+00  0.00000000000E+00  0.50000000000E+03  0.50000000000E+03  0.00000000000E+00 0.  1.
         11   -1    0    0    0    0 -0.00000000000E+00 -0.00000000000E+00 -0.50000000000E+03  0.50000000000E+03  0.00000000000E+00 0. -1.
         23    2    1    2    0    0  0.71148136181E+02  0.31657651514E+01  0.35231481824E+02  0.12200522476E+03  0.92584762281E+02 0.  0.
        -11    1    3    3    0    0  0.73148788450E+02 -0.57487787284E+01  0.60522549175E+02  0.95114523955E+02  0.00000000000E+00 0.  1.
         11    1    3    3    0    0 -0.20006522691E+01  0.89145438798E+01 -0.25291067351E+02  0.26890700806E+02  0.00000000000E+00 0. -1.
        -15    1    1    2    0    0  0.12309863271E+03 -0.47542959123E+02 -0.42241256643E+03  0.44254846101E+03  0.17770000000E+01 0. -1.
         15    1    1    2    0    0 -0.19424676889E+03  0.44377193972E+02  0.38718108461E+03  0.43544631423E+03  0.17770000000E+01 0.  1.
</event>
<event>
 7    1  0.3474777E-008  0.1000000E+04  0.7546771E-02  0.8684367E-01
        -11   -1    0    0    0    0  0.00000000000E+00  0.00000000000E+00  0.50000000000E+03  0.50000000000E+03  0.00000000000E+00 0.  1.
         11   -1    0    0    0    0 -0.00000000000E+00 -0.00000000000E+00 -0.50000000000E+03  0.50000000000E+03  0.00000000000E+00 0. -1.
         23    2    1    2    0    0 -0.29629515499E+02 -0.36337873326E+02 -0.25127271234E+03  0.27180615217E+03  0.92424342922E+02 0.  0.
        -11    1    3    3    0    0  0.15358876113E+02  0.11371909501E+02 -0.14963190051E+03  0.15084734354E+03  0.00000000000E+00 0.  1.
         11    1    3    3    0    0 -0.44988391612E+02 -0.47709782827E+02 -0.10164081183E+03  0.12095880864E+03  0.00000000000E+00 0. -1.
        -15    1    1    2    0    0  0.13595213359E+02  0.11032626408E+03  0.47716559945E+03  0.48994579435E+03  0.17770000000E+01 0.  1.
         15    1    1    2    0    0  0.16034302140E+02 -0.73988390749E+02 -0.22589288711E+03  0.23824805348E+03  0.17770000000E+01 0. -1.
</event>
<event>
 7    1  0.3474777E-008  0.1000000E+04  0.7546771E-02  0.8684367E-01
        -11   -1    0    0    0    0  0.00000000000E+00  0.00000000000E+00  0.50000000000E+03  0.50000000000E+03  0.00000000000E+00 0. -1.
         11   -1    0    0    0    0 -0.00000000000E+00 -0.00000000000E+00 -0.50000000000E+03  0.50000000000E+03  0.00000000000E+00 0.  1.
         23    2    1    2    0    0 -0.30642958381E+02 -0.13471231116E+02  0.89410797933E+02  0.13287983571E+03  0.92424536700E+02 0.  0.
        -11    1    3    3    0    0 -0.25441181681E+02 -0.88037482452E+00 -0.13675552071E+02  0.28897223216E+02  0.00000000000E+00 0. -1.
         11    1    3    3    0    0 -0.52017766997E+01 -0.12590856291E+02  0.10308635000E+03  0.10398261249E+03  0.00000000000E+00 0.  1.
        -15    1    1    2    0    0 -0.24610307049E+03  0.20210438961E+03  0.23890924258E+03  0.39811265933E+03  0.17770000000E+01 0. -1.
         15    1    1    2    0    0  0.27674602887E+03 -0.18863315849E+03 -0.32832004052E+03  0.46900750496E+03  0.17770000000E+01 0.  1.
</event>
<event>
 7    1  0.3474777E-008  0.8044336E+03  0.7546771E-02  0.8896763E-01
        -11   -1    0    0    0    0  0.00000000000E+00  0.00000000000E+00  0.50000000000E+03  0.50000000000E+03  0.00000000000E+00 0.  1.
         11   -1    0    0    0    0 -0.00000000000E+00 -0.00000000000E+00 -0.50000000000E+03  0.50000000000E+03  0.00000000000E+00 0. -1.
         23    2    1    2    0    0 -0.11249728141E+03 -0.31504775568E+02 -0.12861418259E+03  0.19556640716E+03  0.89757575924E+02 0.  0.
        -11    1    3    3    0    0  0.65164400250E+01 -0.15007579154E+02 -0.48422192086E+02  0.51111643576E+02  0.00000000000E+00 0. -1.
         11    1    3    3    0    0 -0.11901372144E+03 -0.16497196414E+02 -0.80191990508E+02  0.14445476358E+03  0.00000000000E+00 0.  1.
        -15    1    1    2    0    0 -0.18104870999E+03 -0.26274648258E+03  0.20852410942E+03  0.38118212371E+03  0.17770000000E+01 0.  1.
         15    1    1    2    0    0  0.29354599141E+03  0.29425125814E+03 -0.79909926828E+02  0.42325146913E+03  0.17770000000E+01 0. -1.
</event>
<event>
 7    1  0.3727450E-008  0.1000000E+04  0.7546771E-02  0.8684367E-01
        -11   -1    0    0    0    0  0.00000000000E+00  0.00000000000E+00  0.50000000000E+03  0.50000000000E+03  0.00000000000E+00 0.  1.
         11   -1    0    0    0    0 -0.00000000000E+00 -0.00000000000E+00 -0.50000000000E+03  0.50000000000E+03  0.00000000000E+00 0. -1.
         23    2    1    2    0    0  0.33562904960E+02 -0.72622308917E+02 -0.10037796369E+03  0.15639548156E+03  0.89349553535E+02 0.  0.
        -11    1    3    3    0    0 -0.23798287688E+02  0.30662517750E+01 -0.28723773546E+02  0.37427470708E+02  0.00000000000E+00 0. -1.
         11    1    3    3    0    0  0.57361192648E+02 -0.75688560692E+02 -0.71654190142E+02  0.11896801085E+03  0.00000000000E+00 0.  1.
        -15    1    1    2    0    0  0.20606636670E+03  0.16117515765E+03  0.38223732075E+03  0.46319467400E+03  0.17770000000E+01 0.  1.
         15    1    1    2    0    0 -0.23962927166E+03 -0.88552848730E+02 -0.28185935706E+03  0.38040984443E+03  0.17770000000E+01 0. -1.
</event>
<event>
 7    1  0.5137036E-008  0.8641469E+03  0.7546771E-02  0.8825720E-01
        -11   -1    0    0    0    0  0.00000000000E+00  0.00000000000E+00  0.50000000000E+03  0.50000000000E+03  0.00000000000E+00 0.  1.
         11   -1    0    0    0    0 -0.00000000000E+00 -0.00000000000E+00 -0.50000000000E+03  0.50000000000E+03  0.00000000000E+00 0. -1.
         23    2    1    2    0    0 -0.29403372276E+02  0.21374211828E+02  0.96032807715E+02  0.13585311414E+03  0.88951409391E+02 0.  0.
        -11    1    3    3    0    0 -0.27467848732E+02  0.36590742843E+01 -0.91417512211E+01  0.29179498864E+02  0.00000000000E+00 0.  1.
         11    1    3    3    0    0 -0.19355235448E+01  0.17715137543E+02  0.10517455894E+03  0.10667361528E+03  0.00000000000E+00 0. -1.
        -15    1    1    2    0    0  0.39482743973E+03  0.16523787445E+03  0.44753030792E+02  0.43034666701E+03  0.17770000000E+01 0.  1.
         15    1    1    2    0    0 -0.36542406745E+03 -0.18661208627E+03 -0.14078583851E+03  0.43380021884E+03  0.17770000000E+01 0. -1.
</event>
<event>
 7    1  0.3474777E-008  0.1000000E+04  0.7546771E-02  0.8684367E-01
        -11   -1    0    0    0    0  0.00000000000E+00  0.00000000000E+00  0.50000000000E+03  0.50000000000E+03  0.00000000000E+00 0.  1.
         11   -1    0    0    0    0 -0.00000000000E+00 -0.00000000000E+00 -0.50000000000E+03  0.50000000000E+03  0.00000000000E+00 0. -1.
         23    2    1    2    0    0  0.16405994799E+03  0.96849109543E+02  0.72973151177E+02  0.22266306728E+03  0.89209552093E+02 0.  0.
        -11    1    3    3    0    0  0.11961839178E+02 -0.12475111567E+02  0.23055076637E+02  0.28814068853E+02  0.00000000000E+00 0.  1.
         11    1    3    3    0    0  0.15209810882E+03  0.10932422111E+03  0.49918074539E+02  0.19384899843E+03  0.00000000000E+00 0. -1.
        -15    1    1    2    0    0 -0.46011882376E+03 -0.12072666353E+03 -0.24005612742E+02  0.47630209577E+03  0.17770000000E+01 0.  1.
         15    1    1    2    0    0  0.29605887577E+03  0.23877553984E+02 -0.48967538434E+02  0.30103483694E+03  0.17770000000E+01 0. -1.
</event>
<event>
 7    1  0.3474777E-008  0.1000000E+04  0.7546771E-02  0.8684367E-01
        -11   -1    0    0    0    0  0.00000000000E+00  0.00000000000E+00  0.50000000000E+03  0.50000000000E+03  0.00000000000E+00 0.  1.
         11   -1    0    0    0    0 -0.00000000000E+00 -0.00000000000E+00 -0.50000000000E+03  0.50000000000E+03  0.00000000000E+00 0. -1.
         23    2    1    2    0    0  0.66603789006E+02  0.10734860559E+02 -0.15041958216E+03  0.18868218067E+03  0.91780241151E+02 0.  0.
        -11    1    3    3    0    0  0.80109359359E+02  0.15053470884E+02 -0.15383649038E+03  0.17409704826E+03  0.00000000000E+00 0. -1.
         11    1    3    3    0    0 -0.13505570353E+02 -0.43186103256E+01  0.34169082159E+01  0.14585132412E+02  0.00000000000E+00 0.  1.
        -15    1    1    2    0    0 -0.75431281624E+02 -0.22927570752E+03  0.40759839245E+03  0.47370543121E+03  0.17770000000E+01 0.  1.
         15    1    1    2    0    0  0.88274926182E+01  0.21854084696E+03 -0.25717881029E+03  0.33761238811E+03  0.17770000000E+01 0. -1.
</event>
<event>
 7    1  0.3474777E-008  0.7102812E+03  0.7546771E-02  0.9023076E-01
        -11   -1    0    0    0    0  0.00000000000E+00  0.00000000000E+00  0.50000000000E+03  0.50000000000E+03  0.00000000000E+00 0.  1.
         11   -1    0    0    0    0 -0.00000000000E+00 -0.00000000000E+00 -0.50000000000E+03  0.50000000000E+03  0.00000000000E+00 0. -1.
         23    2    1    2    0    0  0.90759814081E+02 -0.15117976461E+03  0.21063149599E+03  0.28971878047E+03  0.92079745755E+02 0.  0.
        -11    1    3    3    0    0  0.69380400161E+01 -0.10077433722E+03  0.10235959186E+03  0.14380921211E+03  0.00000000000E+00 0. -1.
         11    1    3    3    0    0  0.83821774064E+02 -0.50405427389E+02  0.10827190412E+03  0.14590956836E+03  0.00000000000E+00 0.  1.
        -15    1    1    2    0    0 -0.19393992898E+03  0.30148081545E+02  0.19371789413E+03  0.27577415235E+03  0.17770000000E+01 0.  1.
         15    1    1    2    0    0  0.10318011490E+03  0.12103168306E+03 -0.40434939011E+03  0.43450706718E+03  0.17770000000E+01 0. -1.
</event>
<event>
 7    1  0.3474777E-008  0.8395029E+03  0.7546771E-02  0.8854287E-01
        -11   -1    0    0    0    0  0.00000000000E+00  0.00000000000E+00  0.50000000000E+03  0.50000000000E+03  0.00000000000E+00 0.  1.
         11   -1    0    0    0    0 -0.00000000000E+00 -0.00000000000E+00 -0.50000000000E+03  0.50000000000E+03  0.00000000000E+00 0. -1.
         23    2    1    2    0    0 -0.64831385507E+02  0.38258850531E+02 -0.10919560754E+03  0.16049713537E+03  0.90381422684E+02 0.  0.
        -11    1    3    3    0    0 -0.21816377035E+02  0.84353079672E+01 -0.10545861971E+03  0.10802142934E+03  0.00000000000E+00 0.  1.
         11    1    3    3    0    0 -0.43015008472E+02  0.29823542564E+02 -0.37369878301E+01  0.52475706026E+02  0.00000000000E+00 0. -1.
        -15    1    1    2    0    0 -0.12898183876E+03  0.36356164491E+03  0.36430386656E+02  0.38748382570E+03  0.17770000000E+01 0.  1.
         15    1    1    2    0    0  0.19381322426E+03 -0.40182049544E+03  0.72765220879E+02  0.45201903893E+03  0.17770000000E+01 0. -1.
</event>
<event>
 7    1  0.3474777E-008  0.8081779E+03  0.7546771E-02  0.8892121E-01
        -11   -1    0    0    0    0  0.00000000000E+00  0.00000000000E+00  0.50000000000E+03  0.50000000000E+03  0.00000000000E+00 0.  1.
         11   -1    0    0    0    0 -0.00000000000E+00 -0.00000000000E+00 -0.50000000000E+03  0.50000000000E+03  0.00000000000E+00 0. -1.
         23    2    1    2    0    0  0.18209991096E+02 -0.98279209400E+02 -0.13857978866E+03  0.19182209624E+03  0.87183438813E+02 0.  0.
        -11    1    3    3    0    0 -0.31333483555E+02 -0.67201637771E+02 -0.77101302615E+02  0.10696942636E+03  0.00000000000E+00 0. -1.
         11    1    3    3    0    0  0.49543474650E+02 -0.31077571629E+02 -0.61478486046E+02  0.84852669877E+02  0.00000000000E+00 0.  1.
        -15    1    1    2    0    0  0.27977732613E+03 -0.21606866920E+03  0.32208385482E+00  0.35350287622E+03  0.17770000000E+01 0.  1.
         15    1    1    2    0    0 -0.29798731723E+03  0.31434787860E+03  0.13825770481E+03  0.45467502755E+03  0.17770000000E+01 0. -1.
</event>
<event>
 7    1  0.3474777E-008  0.1000000E+04  0.7546771E-02  0.8684367E-01
        -11   -1    0    0    0    0  0.00000000000E+00  0.00000000000E+00  0.50000000000E+03  0.50000000000E+03  0.00000000000E+00 0. -1.
         11   -1    0    0    0    0 -0.00000000000E+00 -0.00000000000E+00 -0.50000000000E+03  0.50000000000E+03  0.00000000000E+00 0.  1.
         23    2    1    2    0    0  0.54128236427E+02  0.65196772388E+02 -0.39528234508E+02  0.13079326442E+03  0.91454423551E+02 0.  0.
        -11    1    3    3    0    0  0.23724099493E+02  0.24555010200E+02  0.29493740191E+02  0.45118312614E+02  0.00000000000E+00 0. -1.
         11    1    3    3    0    0  0.30404136935E+02  0.40641762188E+02 -0.69021974699E+02  0.85674951811E+02  0.00000000000E+00 0.  1.
        -15    1    1    2    0    0  0.37596801248E+03  0.11777534765E+03 -0.36448418567E+02  0.39566984200E+03  0.17770000000E+01 0. -1.
         15    1    1    2    0    0 -0.43009624891E+03 -0.18297212004E+03  0.75976653074E+02  0.47353689358E+03  0.17770000000E+01 0.  1.
</event>
<event>
 7    1  0.3474777E-008  0.8234887E+03  0.7546771E-02  0.8873407E-01
        -11   -1    0    0    0    0  0.00000000000E+00  0.00000000000E+00  0.50000000000E+03  0.50000000000E+03  0.00000000000E+00 0.  1.
         11   -1    0    0    0    0 -0.00000000000E+00 -0.00000000000E+00 -0.50000000000E+03  0.50000000000E+03  0.00000000000E+00 0. -1.
         23    2    1    2    0    0 -0.13424302809E+03 -0.35926101369E+02 -0.59360703044E+02  0.17651126134E+03  0.91217635154E+02 0.  0.
        -11    1    3    3    0    0 -0.12111453191E+03 -0.49070813899E+02 -0.18962963781E+02  0.13204646383E+03  0.00000000000E+00 0.  1.
         11    1    3    3    0    0 -0.13128496182E+02  0.13144712530E+02 -0.40397739263E+02  0.44464797504E+02  0.00000000000E+00 0. -1.
        -15    1    1    2    0    0  0.10307493813E+03 -0.13213598823E+02  0.43302147075E+03  0.44531987821E+03  0.17770000000E+01 0.  1.
         15    1    1    2    0    0  0.31168089961E+02  0.49139700192E+02 -0.37366076771E+03  0.37816886046E+03  0.17770000000E+01 0. -1.
</event>
<event>
 7    1  0.3474777E-008  0.1000000E+04  0.7546771E-02  0.8684367E-01
        -11   -1    0    0    0    0  0.00000000000E+00  0.00000000000E+00  0.50000000000E+03  0.50000000000E+03  0.00000000000E+00 0. -1.
         11   -1    0    0    0    0 -0.00000000000E+00 -0.00000000000E+00 -0.50000000000E+03  0.50000000000E+03  0.00000000000E+00 0.  1.
         23    2    1    2    0    0  0.18408849636E+03  0.41228738951E+02  0.17920959101E+03  0.27495330999E+03  0.88853034572E+02 0.  0.
        -11    1    3    3    0    0  0.13067751882E+03  0.28787806876E+02  0.17451641245E+03  0.21991209599E+03  0.00000000000E+00 0. -1.
         11    1    3    3    0    0  0.53410977545E+02  0.12440932075E+02  0.46931785666E+01  0.55041213997E+02  0.00000000000E+00 0.  1.
        -15    1    1    2    0    0  0.21310166771E+03 -0.13101218431E+03  0.53800771955E+02  0.25587925670E+03  0.17770000000E+01 0. -1.
         15    1    1    2    0    0 -0.39719016408E+03  0.89783445358E+02 -0.23301036297E+03  0.46916743331E+03  0.17770000000E+01 0.  1.
</event>
<event>
 7    1  0.3474777E-008  0.1000000E+04  0.7546771E-02  0.8684367E-01
        -11   -1    0    0    0    0  0.00000000000E+00  0.00000000000E+00  0.50000000000E+03  0.50000000000E+03  0.00000000000E+00 0.  1.
         11   -1    0    0    0    0 -0.00000000000E+00 -0.00000000000E+00 -0.50000000000E+03  0.50000000000E+03  0.00000000000E+00 0. -1.
         23    2    1    2    0    0 -0.22616112333E+03 -0.27732585285E+03  0.24160985083E+03  0.44158473994E+03  0.92537993104E+02 0.  0.
        -11    1    3    3    0    0 -0.29958715733E+02 -0.92418550044E+02  0.89156837870E+02  0.13186225684E+03  0.00000000000E+00 0. -1.
         11    1    3    3    0    0 -0.19620240759E+03 -0.18490730281E+03  0.15245301296E+03  0.30972248310E+03  0.00000000000E+00 0.  1.
        -15    1    1    2    0    0  0.16196308564E+03  0.35150758996E+03 -0.24868593581E+03  0.46004073658E+03  0.17770000000E+01 0. -1.
         15    1    1    2    0    0  0.64198037684E+02 -0.74181737103E+02  0.70760849861E+01  0.98374523480E+02  0.17770000000E+01 0.  1.
</event>
<event>
 7    1  0.3474777E-008  0.1000000E+04  0.7546771E-02  0.8684367E-01
        -11   -1    0    0    0    0  0.00000000000E+00  0.00000000000E+00  0.50000000000E+03  0.50000000000E+03  0.00000000000E+00 0.  1.
         11   -1    0    0    0    0 -0.00000000000E+00 -0.00000000000E+00 -0.50000000000E+03  0.50000000000E+03  0.00000000000E+00 0. -1.
         23    2    1    2    0    0 -0.64692572261E+02 -0.35901085614E+02 -0.99126127307E+02  0.15330305560E+03  0.90563904987E+02 0.  0.
        -11    1    3    3    0    0 -0.50646035102E+01 -0.41882215177E+02 -0.60723537684E+01  0.42622102683E+02  0.00000000000E+00 0.  1.
         11    1    3    3    0    0 -0.59627968751E+02  0.59811295629E+01 -0.93053773539E+02  0.11068095291E+03  0.00000000000E+00 0. -1.
        -15    1    1    2    0    0  0.20149541770E+03 -0.44955485194E+02  0.43146433729E+03  0.47831582775E+03  0.17770000000E+01 0.  1.
         15    1    1    2    0    0 -0.13680284543E+03  0.80856570807E+02 -0.33233820998E+03  0.36838111665E+03  0.17770000000E+01 0. -1.
</event>
<event>
 7    1  0.3474777E-008  0.8582395E+03  0.7546771E-02  0.8832475E-01
        -11   -1    0    0    0    0  0.00000000000E+00  0.00000000000E+00  0.50000000000E+03  0.50000000000E+03  0.00000000000E+00 0.  1.
         11   -1    0    0    0    0 -0.00000000000E+00 -0.00000000000E+00 -0.50000000000E+03  0.50000000000E+03  0.00000000000E+00 0. -1.
         23    2    1    2    0    0 -0.29484516173E+02  0.64288619692E+02  0.81211549347E+02  0.14176052997E+03  0.92186597696E+02 0.  0.
        -11    1    3    3    0    0  0.28259965675E+02 -0.19023509513E+01  0.18432820326E+02  0.33793689711E+02  0.00000000000E+00 0. -1.
         11    1    3    3    0    0 -0.57744481848E+02  0.66190970644E+02  0.62778729021E+02  0.10796684026E+03  0.00000000000E+00 0.  1.
        -15    1    1    2    0    0 -0.22322124169E+03 -0.33567505248E+03  0.13964364634E+03  0.42662509220E+03  0.17770000000E+01 0.  1.
         15    1    1    2    0    0  0.25270575787E+03  0.27138643279E+03 -0.22085519569E+03  0.43161437783E+03  0.17770000000E+01 0. -1.
</event>
<event>
 7    1  0.3474777E-008  0.6540044E+03  0.7546771E-02  0.9108872E-01
        -11   -1    0    0    0    0  0.00000000000E+00  0.00000000000E+00  0.50000000000E+03  0.50000000000E+03  0.00000000000E+00 0.  1.
         11   -1    0    0    0    0 -0.00000000000E+00 -0.00000000000E+00 -0.50000000000E+03  0.50000000000E+03  0.00000000000E+00 0. -1.
         23    2    1    2    0    0  0.40893747710E+02 -0.11575770400E+03 -0.31056382011E+03  0.34599558196E+03  0.90503655934E+02 0.  0.
        -11    1    3    3    0    0  0.11248729830E+02  0.12229026759E+02 -0.14347128711E+02  0.21952747448E+02  0.00000000000E+00 0.  1.
         11    1    3    3    0    0  0.29645017880E+02 -0.12798673075E+03 -0.29621669140E+03  0.32404283451E+03  0.00000000000E+00 0. -1.
        -15    1    1    2    0    0 -0.22239911877E+03 -0.12873466722E+03  0.71133097674E+02  0.26664031557E+03  0.17770000000E+01 0.  1.
         15    1    1    2    0    0  0.18150537106E+03  0.24449237121E+03  0.23943072244E+03  0.38736410247E+03  0.17770000000E+01 0. -1.
</event>
<event>
 7    1  0.3474777E-008  0.7285503E+03  0.7546771E-02  0.8997010E-01
        -11   -1    0    0    0    0  0.00000000000E+00  0.00000000000E+00  0.50000000000E+03  0.50000000000E+03  0.00000000000E+00 0. -1.
         11   -1    0    0    0    0 -0.00000000000E+00 -0.00000000000E+00 -0.50000000000E+03  0.50000000000E+03  0.00000000000E+00 0.  1.
         23    2    1    2    0    0 -0.64949431239E+02  0.94774320997E+02  0.22883118798E+03  0.27144969658E+03  0.90114508490E+02 0.  0.
        -11    1    3    3    0    0 -0.36101803856E+02  0.86166748943E+02  0.22160102926E+03  0.24048922020E+03  0.00000000000E+00 0. -1.
         11    1    3    3    0    0 -0.28847627383E+02  0.86075720545E+01  0.72301587248E+01  0.30960476377E+02  0.00000000000E+00 0.  1.
        -15    1    1    2    0    0  0.35207876749E+03  0.58495797474E+02 -0.60104677272E+02  0.36193500355E+03  0.17770000000E+01 0.  1.
         15    1    1    2    0    0 -0.28712933625E+03 -0.15327011847E+03 -0.16872651071E+03  0.36661529987E+03  0.17770000000E+01 0. -1.
</event>
<event>
 7    1  0.3474777E-008  0.1000000E+04  0.7546771E-02  0.8684367E-01
        -11   -1    0    0    0    0  0.00000000000E+00  0.00000000000E+00  0.50000000000E+03  0.50000000000E+03  0.00000000000E+00 0.  1.
         11   -1    0    0    0    0 -0.00000000000E+00 -0.00000000000E+00 -0.50000000000E+03  0.50000000000E+03  0.00000000000E+00 0. -1.
         23    2    1    2    0    0 -0.12463253091E+02  0.77315741747E+02  0.19244984292E+02  0.12120056910E+03  0.90477355898E+02 0.  0.
        -11    1    3    3    0    0 -0.17851252199E+02 -0.68167211336E+01  0.30659302315E+02  0.36126551323E+02  0.00000000000E+00 0.  1.
         11    1    3    3    0    0  0.53879991080E+01  0.84132462881E+02 -0.11414318023E+02  0.85074017777E+02  0.00000000000E+00 0. -1.
        -15    1    1    2    0    0 -0.22231309551E+03 -0.39030898740E+03  0.11754860773E+03  0.46431137289E+03  0.17770000000E+01 0.  1.
         15    1    1    2    0    0  0.23477634861E+03  0.31299324565E+03 -0.13679359202E+03  0.41448805801E+03  0.17770000000E+01 0. -1.
</event>
<event>
 7    1  0.3474777E-008  0.5188637E+03  0.7546771E-02  0.9358563E-01
        -11   -1    0    0    0    0  0.00000000000E+00  0.00000000000E+00  0.50000000000E+03  0.50000000000E+03  0.00000000000E+00 0. -1.
         11   -1    0    0    0    0 -0.00000000000E+00 -0.00000000000E+00 -0.50000000000E+03  0.50000000000E+03  0.00000000000E+00 0.  1.
         23    2    1    2    0    0  0.23260805188E+03 -0.53807588105E+02  0.40772815343E+03  0.48113626548E+03  0.90819031699E+02 0.  0.
        -11    1    3    3    0    0  0.70599025397E+02  0.10959635771E+02  0.65163111405E+02  0.96698330343E+02  0.00000000000E+00 0.  1.
         11    1    3    3    0    0  0.16200902648E+03 -0.64767223876E+02  0.34256504203E+03  0.38443793513E+03  0.00000000000E+00 0. -1.
        -15    1    1    2    0    0  0.28224930874E+02  0.52634668291E+02 -0.85090650259E+02  0.10397418679E+03  0.17770000000E+01 0. -1.
         15    1    1    2    0    0 -0.26083298275E+03  0.11729198143E+01 -0.32263750317E+03  0.41488954773E+03  0.17770000000E+01 0.  1.
</event>
<event>
 7    1  0.3474777E-008  0.8150951E+03  0.7546771E-02  0.8883613E-01
        -11   -1    0    0    0    0  0.00000000000E+00  0.00000000000E+00  0.50000000000E+03  0.50000000000E+03  0.00000000000E+00 0.  1.
         11   -1    0    0    0    0 -0.00000000000E+00 -0.00000000000E+00 -0.50000000000E+03  0.50000000000E+03  0.00000000000E+00 0. -1.
         23    2    1    2    0    0  0.64991113823E+02 -0.73378653009E+02  0.12940047038E+03  0.18490492061E+03  0.88527263250E+02 0.  0.
        -11    1    3    3    0    0  0.59579465941E+02 -0.16066200288E+02  0.10622464724E+03  0.12284751213E+03  0.00000000000E+00 0.  1.
         11    1    3    3    0    0  0.54116478823E+01 -0.57312452722E+02  0.23175823132E+02  0.62057408483E+02  0.00000000000E+00 0. -1.
        -15    1    1    2    0    0  0.14570415525E+03  0.23862919349E+03  0.23337359753E+03  0.36419773008E+03  0.17770000000E+01 0.  1.
         15    1    1    2    0    0 -0.21069526907E+03 -0.16525054048E+03 -0.36277406791E+03  0.45089734931E+03  0.17770000000E+01 0. -1.
</event>
<event>
 7    1  0.3474777E-008  0.7702695E+03  0.7546771E-02  0.8940390E-01
        -11   -1    0    0    0    0  0.00000000000E+00  0.00000000000E+00  0.50000000000E+03  0.50000000000E+03  0.00000000000E+00 0. -1.
         11   -1    0    0    0    0 -0.00000000000E+00 -0.00000000000E+00 -0.50000000000E+03  0.50000000000E+03  0.00000000000E+00 0.  1.
         23    2    1    2    0    0  0.10559103078E+03  0.97167128431E+02  0.15203852454E+03  0.22973046500E+03  0.95233696655E+02 0.  0.
        -11    1    3    3    0    0  0.29717827899E+02  0.91362839697E+02  0.82020475587E+02  0.12632369607E+03  0.00000000000E+00 0. -1.
         11    1    3    3    0    0  0.75873202879E+02  0.58042887335E+01  0.70018048952E+02  0.10340676894E+03  0.00000000000E+00 0.  1.
        -15    1    1    2    0    0  0.14149927694E+03 -0.30302004534E+03 -0.26781916886E+03  0.42845473295E+03  0.17770000000E+01 0.  1.
         15    1    1    2    0    0 -0.24709030772E+03  0.20585291691E+03  0.11578064433E+03  0.34181480204E+03  0.17770000000E+01 0. -1.
</event>
<event>
 7    1  0.3474777E-008  0.1000000E+04  0.7546771E-02  0.8684367E-01
        -11   -1    0    0    0    0  0.00000000000E+00  0.00000000000E+00  0.50000000000E+03  0.50000000000E+03  0.00000000000E+00 0. -1.
         11   -1    0    0    0    0 -0.00000000000E+00 -0.00000000000E+00 -0.50000000000E+03  0.50000000000E+03  0.00000000000E+00 0.  1.
         23    2    1    2    0    0  0.16590951664E+03  0.44742637006E+01  0.30960188542E+03  0.36291247525E+03  0.91138084749E+02 0.  0.
        -11    1    3    3    0    0  0.15861759904E+01  0.12145409443E+02  0.77293363515E+02  0.78257849243E+02  0.00000000000E+00 0.  1.
         11    1    3    3    0    0  0.16432334065E+03 -0.76711457422E+01  0.23230852190E+03  0.28465462601E+03  0.00000000000E+00 0. -1.
        -15    1    1    2    0    0  0.91111879573E+01  0.16862501064E+03  0.71501566756E+02  0.18339312893E+03  0.17770000000E+01 0. -1.
         15    1    1    2    0    0 -0.17502070459E+03 -0.17309927434E+03 -0.38110345217E+03  0.45369439582E+03  0.17770000000E+01 0.  1.
</event>
<event>
 7    1  0.3474777E-008  0.1000000E+04  0.7546771E-02  0.8684367E-01
        -11   -1    0    0    0    0  0.00000000000E+00  0.00000000000E+00  0.50000000000E+03  0.50000000000E+03  0.00000000000E+00 0.  1.
         11   -1    0    0    0    0 -0.00000000000E+00 -0.00000000000E+00 -0.50000000000E+03  0.50000000000E+03  0.00000000000E+00 0. -1.
         23    2    1    2    0    0 -0.10288104897E+03 -0.15155048904E+03 -0.32609544276E+03  0.38465870875E+03  0.89844440346E+02 0.  0.
        -11    1    3    3    0    0 -0.60975591190E+02 -0.24753498619E+02 -0.14874570434E+03  0.16265313700E+03  0.00000000000E+00 0.  1.
         11    1    3    3    0    0 -0.41905457780E+02 -0.12679699042E+03 -0.17734973842E+03  0.22200557175E+03  0.00000000000E+00 0. -1.
        -15    1    1    2    0    0 -0.12590884826E+03 -0.11210659323E+03  0.14342093080E+03  0.22134508677E+03  0.17770000000E+01 0.  1.
         15    1    1    2    0    0  0.22878989722E+03  0.26365708227E+03  0.18267451196E+03  0.39399620449E+03  0.17770000000E+01 0. -1.
</event>
<event>
 7    1  0.3474777E-008  0.7221671E+03  0.7546771E-02  0.9006025E-01
        -11   -1    0    0    0    0  0.00000000000E+00  0.00000000000E+00  0.50000000000E+03  0.50000000000E+03  0.00000000000E+00 0.  1.
         11   -1    0    0    0    0 -0.00000000000E+00 -0.00000000000E+00 -0.50000000000E+03  0.50000000000E+03  0.00000000000E+00 0. -1.
         23    2    1    2    0    0 -0.18470153810E+03 -0.17591192708E+03  0.58436799795E+02  0.27783285509E+03  0.93362580998E+02 0.  0.
        -11    1    3    3    0    0 -0.11084808211E+03 -0.13820641587E+03  0.13718106870E+01  0.17717277602E+03  0.00000000000E+00 0.  1.
         11    1    3    3    0    0 -0.73853455991E+02 -0.37705511201E+02  0.57064989108E+02  0.10066007907E+03  0.00000000000E+00 0. -1.
        -15    1    1    2    0    0 -0.12500351731E+03  0.25548881172E+03  0.16799812624E+03  0.33034367015E+03  0.17770000000E+01 0.  1.
         15    1    1    2    0    0  0.30970505542E+03 -0.79576884645E+02 -0.22643492604E+03  0.39182347477E+03  0.17770000000E+01 0. -1.
</event>
<event>
 7    1  0.3474777E-008  0.1000000E+04  0.7546771E-02  0.8684367E-01
        -11   -1    0    0    0    0  0.00000000000E+00  0.00000000000E+00  0.50000000000E+03  0.50000000000E+03  0.00000000000E+00 0. -1.
         11   -1    0    0    0    0 -0.00000000000E+00 -0.00000000000E+00 -0.50000000000E+03  0.50000000000E+03  0.00000000000E+00 0.  1.
         23    2    1    2    0    0  0.56111926019E+02  0.30912246645E+02 -0.63421238395E+02  0.12681363083E+03  0.89192646835E+02 0.  0.
        -11    1    3    3    0    0  0.36858728041E+02  0.47420524483E+02 -0.16996633426E+01  0.60084613925E+02  0.00000000000E+00 0. -1.
         11    1    3    3    0    0  0.19253197978E+02 -0.16508277838E+02 -0.61721575052E+02  0.66729016900E+02  0.00000000000E+00 0.  1.
        -15    1    1    2    0    0 -0.93893768625E+02  0.12478974673E+03 -0.37509682700E+03  0.40631183595E+03  0.17770000000E+01 0.  1.
         15    1    1    2    0    0  0.37781842607E+02 -0.15570199338E+03  0.43851806539E+03  0.46687453323E+03  0.17770000000E+01 0. -1.
</event>
<event>
 7    1  0.3474777E-008  0.1000000E+04  0.7546771E-02  0.8684367E-01
        -11   -1    0    0    0    0  0.00000000000E+00  0.00000000000E+00  0.50000000000E+03  0.50000000000E+03  0.00000000000E+00 0. -1.
         11   -1    0    0    0    0 -0.00000000000E+00 -0.00000000000E+00 -0.50000000000E+03  0.50000000000E+03  0.00000000000E+00 0.  1.
         23    2    1    2    0    0  0.10736436359E+03 -0.80622238107E+02 -0.69296910273E+02  0.17625502514E+03  0.90756378657E+02 0.  0.
        -11    1    3    3    0    0  0.10756552766E+03 -0.97501855708E+02 -0.62281460865E+02  0.15797447570E+03  0.00000000000E+00 0. -1.
         11    1    3    3    0    0 -0.20116406176E+00  0.16879617601E+02 -0.70154494082E+01  0.18280549438E+02  0.00000000000E+00 0.  1.
        -15    1    1    2    0    0 -0.40808995309E+03  0.24041668827E+03  0.91774264019E+02  0.48245545606E+03  0.17770000000E+01 0. -1.
         15    1    1    2    0    0  0.30072558950E+03 -0.15979445017E+03 -0.22477353745E+02  0.34128951880E+03  0.17770000000E+01 0.  1.
</event>
<event>
 7    1  0.3624162E-008  0.7846304E+03  0.7546771E-02  0.8921767E-01
        -11   -1    0    0    0    0  0.00000000000E+00  0.00000000000E+00  0.50000000000E+03  0.50000000000E+03  0.00000000000E+00 0.  1.
         11   -1    0    0    0    0 -0.00000000000E+00 -0.00000000000E+00 -0.50000000000E+03  0.50000000000E+03  0.00000000000E+00 0. -1.
         23    2    1    2    0    0 -0.52665267934E+02  0.73211921688E+01 -0.18768596205E+03  0.21536958239E+03  0.91273251101E+02 0.  0.
        -11    1    3    3    0    0 -0.70808419804E+02  0.27893200875E+02 -0.11727487185E+03  0.13980435808E+03  0.00000000000E+00 0.  1.
         11    1    3    3    0    0  0.18143151870E+02 -0.20572008707E+02 -0.70411090205E+02  0.75565224316E+02  0.00000000000E+00 0. -1.
        -15    1    1    2    0    0  0.29744518212E+03 -0.22661167659E+03  0.25042736542E+03  0.45004834342E+03  0.17770000000E+01 0.  1.
         15    1    1    2    0    0 -0.24477991419E+03  0.21929048442E+03 -0.62741403365E+02  0.33458207419E+03  0.17770000000E+01 0. -1.
</event>
<event>
 7    1  0.3474777E-008  0.1000000E+04  0.7546771E-02  0.8684367E-01
        -11   -1    0    0    0    0  0.00000000000E+00  0.00000000000E+00  0.50000000000E+03  0.50000000000E+03  0.00000000000E+00 0.  1.
         11   -1    0    0    0    0 -0.00000000000E+00 -0.00000000000E+00 -0.50000000000E+03  0.50000000000E+03  0.00000000000E+00 0. -1.
         23    2    1    2    0    0 -0.11815372534E+03 -0.13529968958E+03 -0.16382376141E+03  0.25720276885E+03  0.83956719151E+02 0.  0.
        -11    1    3    3    0    0 -0.12311754287E+03 -0.14319151321E+03 -0.15788190460E+03  0.24614718081E+03  0.00000000000E+00 0. -1.
         11    1    3    3    0    0  0.49638175272E+01  0.78918236341E+01 -0.59418568070E+01  0.11055588045E+02  0.00000000000E+00 0.  1.
        -15    1    1    2    0    0  0.71886227291E+02  0.41454675163E+03  0.18359056209E+03  0.45904824493E+03  0.17770000000E+01 0.  1.
         15    1    1    2    0    0  0.46267498048E+02 -0.27924706205E+03 -0.19766800674E+02  0.28374898621E+03  0.17770000000E+01 0. -1.
</event>
<event>
 7    1  0.3474777E-008  0.7159120E+03  0.7546771E-02  0.9014955E-01
        -11   -1    0    0    0    0  0.00000000000E+00  0.00000000000E+00  0.50000000000E+03  0.50000000000E+03  0.00000000000E+00 0.  1.
         11   -1    0    0    0    0 -0.00000000000E+00 -0.00000000000E+00 -0.50000000000E+03  0.50000000000E+03  0.00000000000E+00 0. -1.
         23    2    1    2    0    0 -0.15479541146E+02 -0.14088762879E+01  0.26800268274E+03  0.28408799955E+03  0.92945964982E+02 0.  0.
        -11    1    3    3    0    0  0.24790100172E+02  0.66636288264E+01  0.19558865836E+02  0.32272313962E+02  0.00000000000E+00 0. -1.
         11    1    3    3    0    0 -0.40269641317E+02 -0.80725051144E+01  0.24844381691E+03  0.25181568559E+03  0.00000000000E+00 0.  1.
        -15    1    1    2    0    0 -0.13529144983E+03  0.29991022993E+03 -0.14557222961E+03  0.35978376030E+03  0.17770000000E+01 0.  1.
         15    1    1    2    0    0  0.15077099097E+03 -0.29850135364E+03 -0.12243045313E+03  0.35612824014E+03  0.17770000000E+01 0. -1.
</event>
<event>
 7    1  0.3474777E-008  0.6635882E+03  0.7546771E-02  0.9093631E-01
        -11   -1    0    0    0    0  0.00000000000E+00  0.00000000000E+00  0.50000000000E+03  0.50000000000E+03  0.00000000000E+00 0. -1.
         11   -1    0    0    0    0 -0.00000000000E+00 -0.00000000000E+00 -0.50000000000E+03  0.50000000000E+03  0.00000000000E+00 0.  1.
         23    2    1    2    0    0  0.12746133764E+03 -0.19849797677E+03 -0.22137219992E+03  0.33641177591E+03  0.92300556321E+02 0.  0.
        -11    1    3    3    0    0  0.76673739543E+02 -0.11877175452E+03 -0.69515672153E+02  0.15753736282E+03  0.00000000000E+00 0.  1.
         11    1    3    3    0    0  0.50787598100E+02 -0.79726222251E+02 -0.15185652776E+03  0.17887441309E+03  0.00000000000E+00 0. -1.
        -15    1    1    2    0    0  0.16441521787E+03  0.27618722699E+03  0.86926746193E+02  0.33297321987E+03  0.17770000000E+01 0. -1.
         15    1    1    2    0    0 -0.29187655552E+03 -0.77689250214E+02  0.13444545372E+03  0.33061500422E+03  0.17770000000E+01 0.  1.
</event>
<event>
 7    1  0.3474777E-008  0.8782843E+03  0.7546771E-02  0.8809779E-01
        -11   -1    0    0    0    0  0.00000000000E+00  0.00000000000E+00  0.50000000000E+03  0.50000000000E+03  0.00000000000E+00 0.  1.
         11   -1    0    0    0    0 -0.00000000000E+00 -0.00000000000E+00 -0.50000000000E+03  0.50000000000E+03  0.00000000000E+00 0. -1.
         23    2    1    2    0    0 -0.32744553234E+02  0.61991620283E+02  0.33804770280E+02  0.12171572042E+03  0.93577707554E+02 0.  0.
        -11    1    3    3    0    0  0.17441539178E+02 -0.16255778885E+02  0.46421108978E+01  0.24290056189E+02  0.00000000000E+00 0.  1.
         11    1    3    3    0    0 -0.50186092412E+02  0.78247399168E+02  0.29162659382E+02  0.97425664229E+02  0.00000000000E+00 0. -1.
        -15    1    1    2    0    0 -0.28091612392E+03 -0.18867217360E+03  0.26274171233E+03  0.42842434909E+03  0.17770000000E+01 0.  1.
         15    1    1    2    0    0  0.31366067716E+03  0.12668055331E+03 -0.29654648261E+03  0.44985993049E+03  0.17770000000E+01 0. -1.
</event>
<event>
 7    1  0.3474777E-008  0.1000000E+04  0.7546771E-02  0.8684367E-01
        -11   -1    0    0    0    0  0.00000000000E+00  0.00000000000E+00  0.50000000000E+03  0.50000000000E+03  0.00000000000E+00 0. -1.
         11   -1    0    0    0    0 -0.00000000000E+00 -0.00000000000E+00 -0.50000000000E+03  0.50000000000E+03  0.00000000000E+00 0.  1.
         23    2    1    2    0    0  0.26313016820E+03 -0.14408270835E+03  0.30972863449E+03  0.44089545306E+03  0.91976416777E+02 0.  0.
        -11    1    3    3    0    0  0.29075062273E+02  0.63763660274E+01  0.60177749012E+02  0.67137014873E+02  0.00000000000E+00 0. -1.
         11    1    3    3    0    0  0.23405510593E+03 -0.15045907437E+03  0.24955088548E+03  0.37375843819E+03  0.00000000000E+00 0.  1.
        -15    1    1    2    0    0  0.82032046364E+02 -0.12987947769E+02 -0.31852834361E+02  0.88970243361E+02  0.17770000000E+01 0.  1.
         15    1    1    2    0    0 -0.34516221457E+03  0.15707065611E+03 -0.27787580013E+03  0.47013430358E+03  0.17770000000E+01 0. -1.
</event>
<event>
 7    1  0.3474777E-008  0.1000000E+04  0.7546771E-02  0.8684367E-01
        -11   -1    0    0    0    0  0.00000000000E+00  0.00000000000E+00  0.50000000000E+03  0.50000000000E+03  0.00000000000E+00 0.  1.
         11   -1    0    0    0    0 -0.00000000000E+00 -0.00000000000E+00 -0.50000000000E+03  0.50000000000E+03  0.00000000000E+00 0. -1.
         23    2    1    2    0    0  0.32307566366E+03 -0.88880196874E+02  0.64441442916E+02  0.35442739677E+03  0.95856695991E+02 0.  0.
        -11    1    3    3    0    0  0.47116988856E+02  0.14561774286E+01  0.42097140656E+02  0.63200477395E+02  0.00000000000E+00 0.  1.
         11    1    3    3    0    0  0.27595867481E+03 -0.90336374303E+02  0.22344302260E+02  0.29122691937E+03  0.00000000000E+00 0. -1.
        -15    1    1    2    0    0 -0.46050446006E+03 -0.24602631595E+02 -0.74076028510E+02  0.46707607832E+03  0.17770000000E+01 0.  1.
         15    1    1    2    0    0  0.13742879640E+03  0.11348282847E+03  0.96345855932E+01  0.17849652491E+03  0.17770000000E+01 0. -1.
</event>
<event>
 7    1  0.3474777E-008  0.7917664E+03  0.7546771E-02  0.8912669E-01
        -11   -1    0    0    0    0  0.00000000000E+00  0.00000000000E+00  0.50000000000E+03  0.50000000000E+03  0.00000000000E+00 0.  1.
         11   -1    0    0    0    0 -0.00000000000E+00 -0.00000000000E+00 -0.50000000000E+03  0.50000000000E+03  0.00000000000E+00 0. -1.
         23    2    1    2    0    0  0.71154441820E+02 -0.11736099660E+03  0.12865970592E+03  0.20823359964E+03  0.89282439361E+02 0.  0.
        -11    1    3    3    0    0 -0.16184616347E+02 -0.99408662512E+01 -0.34924414694E+00  0.18996962905E+02  0.00000000000E+00 0. -1.
         11    1    3    3    0    0  0.87339058167E+02 -0.10742013035E+03  0.12900895007E+03  0.18923663674E+03  0.00000000000E+00 0.  1.
        -15    1    1    2    0    0  0.10002947684E+03  0.33610947402E+03  0.16498699523E+03  0.38755559742E+03  0.17770000000E+01 0.  1.
         15    1    1    2    0    0 -0.17118391866E+03 -0.21874847743E+03 -0.29364670116E+03  0.40421080294E+03  0.17770000000E+01 0. -1.
</event>
<event>
 7    1  0.3474777E-008  0.7852337E+03  0.7546771E-02  0.8920994E-01
        -11   -1    0    0    0    0  0.00000000000E+00  0.00000000000E+00  0.50000000000E+03  0.50000000000E+03  0.00000000000E+00 0.  1.
         11   -1    0    0    0    0 -0.00000000000E+00 -0.00000000000E+00 -0.50000000000E+03  0.50000000000E+03  0.00000000000E+00 0. -1.
         23    2    1    2    0    0 -0.11962567480E+03  0.39357756880E+02  0.14724016955E+03  0.21476631577E+03  0.92658338876E+02 0.  0.
        -11    1    3    3    0    0 -0.12983853193E+03  0.51823469546E+02  0.12680224091E+03  0.18873930346E+03  0.00000000000E+00 0.  1.
         11    1    3    3    0    0  0.10212857130E+02 -0.12465712666E+02  0.20437928640E+02  0.26027012316E+02  0.00000000000E+00 0. -1.
        -15    1    1    2    0    0  0.23336329568E+03  0.23123432633E+03  0.15557521402E+03  0.36350315871E+03  0.17770000000E+01 0.  1.
         15    1    1    2    0    0 -0.11373762088E+03 -0.27059208321E+03 -0.30281538357E+03  0.42173052552E+03  0.17770000000E+01 0. -1.
</event>
<event>
 7    1  0.3474777E-008  0.1000000E+04  0.7546771E-02  0.8684367E-01
        -11   -1    0    0    0    0  0.00000000000E+00  0.00000000000E+00  0.50000000000E+03  0.50000000000E+03  0.00000000000E+00 0. -1.
         11   -1    0    0    0    0 -0.00000000000E+00 -0.00000000000E+00 -0.50000000000E+03  0.50000000000E+03  0.00000000000E+00 0.  1.
         23    2    1    2    0    0 -0.14671494086E+02  0.38566881337E+01 -0.27116632766E+03  0.28673221389E+03  0.91945953914E+02 0.  0.
        -11    1    3    3    0    0 -0.30904184668E+02  0.37931220381E+02 -0.98419605286E+02  0.10991025800E+03  0.00000000000E+00 0.  1.
         11    1    3    3    0    0  0.16232690582E+02 -0.34074532247E+02 -0.17274672238E+03  0.17682195589E+03  0.00000000000E+00 0. -1.
        -15    1    1    2    0    0  0.12712199893E+03  0.20909121047E+03  0.37761183764E+03  0.44996999295E+03  0.17770000000E+01 0. -1.
         15    1    1    2    0    0 -0.11245050484E+03 -0.21294789860E+03 -0.10644550997E+03  0.26329779316E+03  0.17770000000E+01 0.  1.
</event>
<event>
 7    1  0.3474777E-008  0.5373828E+03  0.7546771E-02  0.9319841E-01
        -11   -1    0    0    0    0  0.00000000000E+00  0.00000000000E+00  0.50000000000E+03  0.50000000000E+03  0.00000000000E+00 0.  1.
         11   -1    0    0    0    0 -0.00000000000E+00 -0.00000000000E+00 -0.50000000000E+03  0.50000000000E+03  0.00000000000E+00 0. -1.
         23    2    1    2    0    0  0.45262184116E+02  0.73714000182E+02  0.44523705269E+03  0.46261720168E+03  0.91083604783E+02 0.  0.
        -11    1    3    3    0    0  0.19103586666E+01 -0.17137095917E+02  0.24207417179E+02  0.29720844085E+02  0.00000000000E+00 0. -1.
         11    1    3    3    0    0  0.43351825449E+02  0.90851096099E+02  0.42102963552E+03  0.43289635759E+03  0.00000000000E+00 0.  1.
        -15    1    1    2    0    0 -0.15949617479E+03 -0.93446074414E+02 -0.26673868539E+03  0.32453641184E+03  0.17770000000E+01 0.  1.
         15    1    1    2    0    0  0.11423399068E+03  0.19732074232E+02 -0.17849836731E+03  0.21284638649E+03  0.17770000000E+01 0. -1.
</event>
<event>
 7    1  0.3474777E-008  0.8126124E+03  0.7546771E-02  0.8886656E-01
        -11   -1    0    0    0    0  0.00000000000E+00  0.00000000000E+00  0.50000000000E+03  0.50000000000E+03  0.00000000000E+00 0.  1.
         11   -1    0    0    0    0 -0.00000000000E+00 -0.00000000000E+00 -0.50000000000E+03  0.50000000000E+03  0.00000000000E+00 0. -1.
         23    2    1    2    0    0  0.15086876463E+03  0.23520662908E+02  0.60159548659E+02  0.18738760699E+03  0.90445222280E+02 0.  0.
        -11    1    3    3    0    0  0.75205894034E+02 -0.33887976358E+02  0.27430244370E+02  0.86929510209E+02  0.00000000000E+00 0. -1.
         11    1    3    3    0    0  0.75662870601E+02  0.57408639266E+02  0.32729304288E+02  0.10045809678E+03  0.00000000000E+00 0.  1.
        -15    1    1    2    0    0 -0.13112555525E+02 -0.45764079631E+02 -0.42205888560E+03  0.42473892068E+03  0.17770000000E+01 0. -1.
         15    1    1    2    0    0 -0.13775620911E+03  0.22243416723E+02  0.36189933694E+03  0.38787347233E+03  0.17770000000E+01 0.  1.
</event>
<event>
 7    1  0.3474777E-008  0.7402580E+03  0.7546771E-02  0.8980726E-01
        -11   -1    0    0    0    0  0.00000000000E+00  0.00000000000E+00  0.50000000000E+03  0.50000000000E+03  0.00000000000E+00 0.  1.
         11   -1    0    0    0    0 -0.00000000000E+00 -0.00000000000E+00 -0.50000000000E+03  0.50000000000E+03  0.00000000000E+00 0. -1.
         23    2    1    2    0    0 -0.22167944640E+02  0.37591670198E+02 -0.23984468367E+03  0.25974197231E+03  0.89643005623E+02 0.  0.
        -11    1    3    3    0    0  0.82884281271E+00 -0.18489771686E+02 -0.15136063753E+03  0.15248803636E+03  0.00000000000E+00 0.  1.
         11    1    3    3    0    0 -0.22996787453E+02  0.56081441884E+02 -0.88484046142E+02  0.10725393596E+03  0.00000000000E+00 0. -1.
        -15    1    1    2    0    0  0.15518269171E+03 -0.33616258211E+03  0.92020777349E+02  0.38152055071E+03  0.17770000000E+01 0.  1.
         15    1    1    2    0    0 -0.13301474707E+03  0.29857091192E+03  0.14782390633E+03  0.35873747698E+03  0.17770000000E+01 0. -1.
</event>
<event>
 7    1  0.3474777E-008  0.7221004E+03  0.7546771E-02  0.9006120E-01
        -11   -1    0    0    0    0  0.00000000000E+00  0.00000000000E+00  0.50000000000E+03  0.50000000000E+03  0.00000000000E+00 0. -1.
         11   -1    0    0    0    0 -0.00000000000E+00 -0.00000000000E+00 -0.50000000000E+03  0.50000000000E+03  0.00000000000E+00 0.  1.
         23    2    1    2    0    0 -0.85460138000E+02 -0.10433136188E+02 -0.24827688240E+03  0.27789959971E+03  0.90412895469E+02 0.  0.
        -11    1    3    3    0    0 -0.74181920367E+02 -0.42988864968E+02 -0.20750144627E+03  0.22451692592E+03  0.00000000000E+00 0.  1.
         11    1    3    3    0    0 -0.11278217633E+02  0.32555728780E+02 -0.40775436130E+02  0.53382673790E+02  0.00000000000E+00 0. -1.
        -15    1    1    2    0    0 -0.27441534434E+03  0.97301663389E+02  0.30928786286E+02  0.29279880884E+03  0.17770000000E+01 0. -1.
         15    1    1    2    0    0  0.35987548234E+03 -0.86868527201E+02  0.21734809611E+03  0.42930159145E+03  0.17770000000E+01 0.  1.
</event>
<event>
 7    1  0.3474777E-008  0.1000000E+04  0.7546771E-02  0.8684367E-01
        -11   -1    0    0    0    0  0.00000000000E+00  0.00000000000E+00  0.50000000000E+03  0.50000000000E+03  0.00000000000E+00 0.  1.
         11   -1    0    0    0    0 -0.00000000000E+00 -0.00000000000E+00 -0.50000000000E+03  0.50000000000E+03  0.00000000000E+00 0. -1.
         23    2    1    2    0    0  0.23360219146E+03 -0.25301346542E+02 -0.87751032877E+02  0.26758172353E+03  0.93217986495E+02 0.  0.
        -11    1    3    3    0    0  0.19334172151E+03 -0.56331709293E+02 -0.62720903722E+02  0.21092224755E+03  0.00000000000E+00 0.  1.
         11    1    3    3    0    0  0.40260469950E+02  0.31030362751E+02 -0.25030129155E+02  0.56659475982E+02  0.00000000000E+00 0. -1.
        -15    1    1    2    0    0  0.24447874594E+03 -0.14617884997E+02  0.58313291161E+02  0.25176802305E+03  0.17770000000E+01 0.  1.
         15    1    1    2    0    0 -0.47808093739E+03  0.39919231539E+02  0.29437741716E+02  0.48065025342E+03  0.17770000000E+01 0. -1.
</event>
<event>
 7    1  0.4023411E-008  0.1000000E+04  0.7546771E-02  0.8684367E-01
        -11   -1    0    0    0    0  0.00000000000E+00  0.00000000000E+00  0.50000000000E+03  0.50000000000E+03  0.00000000000E+00 0.  1.
         11   -1    0    0    0    0 -0.00000000000E+00 -0.00000000000E+00 -0.50000000000E+03  0.50000000000E+03  0.00000000000E+00 0. -1.
         23    2    1    2    0    0  0.41521236947E+02 -0.70655328819E+02  0.33967550923E+02  0.12696536218E+03  0.90830722055E+02 0.  0.
        -11    1    3    3    0    0 -0.24282793180E+02 -0.40369012574E+02  0.36258123669E+00  0.47110961420E+02  0.00000000000E+00 0.  1.
         11    1    3    3    0    0  0.65804030127E+02 -0.30286316246E+02  0.33604969686E+02  0.79854400757E+02  0.00000000000E+00 0. -1.
        -15    1    1    2    0    0 -0.55733467177E+02  0.45817931110E+03  0.80888774261E+02  0.46859433630E+03  0.17770000000E+01 0.  1.
         15    1    1    2    0    0  0.14212230230E+02 -0.38752398228E+03 -0.11485632518E+03  0.40444030152E+03  0.17770000000E+01 0. -1.
</event>
<event>
 7    1  0.3474777E-008  0.8385070E+03  0.7546771E-02  0.8855462E-01
        -11   -1    0    0    0    0  0.00000000000E+00  0.00000000000E+00  0.50000000000E+03  0.50000000000E+03  0.00000000000E+00 0.  1.
         11   -1    0    0    0    0 -0.00000000000E+00 -0.00000000000E+00 -0.50000000000E+03  0.50000000000E+03  0.00000000000E+00 0. -1.
         23    2    1    2    0    0  0.93329494473E+02 -0.12104563509E+02 -0.94433583882E+02  0.16149298475E+03  0.91133788253E+02 0.  0.
        -11    1    3    3    0    0  0.62021255484E+02  0.37394104226E+02 -0.51041065363E+02  0.88601046924E+02  0.00000000000E+00 0.  1.
         11    1    3    3    0    0  0.31308238990E+02 -0.49498667735E+02 -0.43392518518E+02  0.72891937823E+02  0.00000000000E+00 0. -1.
        -15    1    1    2    0    0  0.18074898226E+03 -0.28116918236E+02  0.39161578214E+03  0.43223469809E+03  0.17770000000E+01 0.  1.
         15    1    1    2    0    0 -0.27407847673E+03  0.40221481745E+02 -0.29718219826E+03  0.40627231716E+03  0.17770000000E+01 0. -1.
</event>
<event>
 7    1  0.3474777E-008  0.1000000E+04  0.7546771E-02  0.8684367E-01
        -11   -1    0    0    0    0  0.00000000000E+00  0.00000000000E+00  0.50000000000E+03  0.50000000000E+03  0.00000000000E+00 0. -1.
         11   -1    0    0    0    0 -0.00000000000E+00 -0.00000000000E+00 -0.50000000000E+03  0.50000000000E+03  0.00000000000E+00 0.  1.
         23    2    1    2    0    0 -0.29153978560E+02 -0.97732209031E+02  0.82848824083E+02  0.16027626671E+03  0.91776984434E+02 0.  0.
        -11    1    3    3    0    0  0.14236363963E+02 -0.34223239990E+02  0.74113396837E+02  0.82865552584E+02  0.00000000000E+00 0.  1.
         11    1    3    3    0    0 -0.43390342522E+02 -0.63508969041E+02  0.87354272451E+01  0.77410714130E+02  0.00000000000E+00 0. -1.
        -15    1    1    2    0    0  0.11564150331E+03 -0.31475983794E+03  0.13951028037E+03  0.36319827771E+03  0.17770000000E+01 0. -1.
         15    1    1    2    0    0 -0.86487524752E+02  0.41249204698E+03 -0.22235910445E+03  0.47652545558E+03  0.17770000000E+01 0.  1.
</event>
<event>
 7    1  0.3474777E-008  0.8714662E+03  0.7546771E-02  0.8817427E-01
        -11   -1    0    0    0    0  0.00000000000E+00  0.00000000000E+00  0.50000000000E+03  0.50000000000E+03  0.00000000000E+00 0.  1.
         11   -1    0    0    0    0 -0.00000000000E+00 -0.00000000000E+00 -0.50000000000E+03  0.50000000000E+03  0.00000000000E+00 0. -1.
         23    2    1    2    0    0 -0.85572824249E+02 -0.39873815853E+02 -0.85218874322E+01  0.12853383251E+03  0.86808375716E+02 0.  0.
        -11    1    3    3    0    0 -0.46676359066E+02  0.18981595543E+02 -0.24758504284E+02  0.56142381490E+02  0.00000000000E+00 0. -1.
         11    1    3    3    0    0 -0.38896465183E+02 -0.58855411396E+02  0.16236616852E+02  0.72391451023E+02  0.00000000000E+00 0.  1.
        -15    1    1    2    0    0  0.30290644659E+03 -0.19506623551E+03  0.27640498151E+03  0.45409913362E+03  0.17770000000E+01 0.  1.
         15    1    1    2    0    0 -0.21733362235E+03  0.23494005137E+03 -0.26788309407E+03  0.41736703387E+03  0.17770000000E+01 0. -1.
</event>
<event>
 7    1  0.3474777E-008  0.5058079E+03  0.7546771E-02  0.9386907E-01
        -11   -1    0    0    0    0  0.00000000000E+00  0.00000000000E+00  0.50000000000E+03  0.50000000000E+03  0.00000000000E+00 0.  1.
         11   -1    0    0    0    0 -0.00000000000E+00 -0.00000000000E+00 -0.50000000000E+03  0.50000000000E+03  0.00000000000E+00 0. -1.
         23    2    1    2    0    0  0.53453269087E+02 -0.19766621278E+03 -0.44035913030E+03  0.49419214928E+03  0.91545251733E+02 0.  0.
        -11    1    3    3    0    0 -0.68075338558E+01 -0.16988129305E+02 -0.49667865750E+01  0.18963333656E+02  0.00000000000E+00 0.  1.
         11    1    3    3    0    0  0.60260802942E+02 -0.18067808348E+03 -0.43539234373E+03  0.47522881562E+03  0.00000000000E+00 0. -1.
        -15    1    1    2    0    0 -0.55119031843E+02  0.21274670620E+03  0.43840246729E+03  0.49040712650E+03  0.17770000000E+01 0.  1.
         15    1    1    2    0    0  0.16657627560E+01 -0.15080493416E+02  0.19566630126E+01  0.15400724215E+02  0.17770000000E+01 0. -1.
</event>
<event>
 7    1  0.3474777E-008  0.5073685E+03  0.7546771E-02  0.9383471E-01
        -11   -1    0    0    0    0  0.00000000000E+00  0.00000000000E+00  0.50000000000E+03  0.50000000000E+03  0.00000000000E+00 0.  1.
         11   -1    0    0    0    0 -0.00000000000E+00 -0.00000000000E+00 -0.50000000000E+03  0.50000000000E+03  0.00000000000E+00 0. -1.
         23    2    1    2    0    0  0.24405713675E+03  0.99008618136E+02 -0.40578553586E+03  0.49263149623E+03  0.93044599510E+02 0.  0.
        -11    1    3    3    0    0  0.29511107120E+01 -0.44770434239E+01 -0.51451370635E+02  0.51730034916E+02  0.00000000000E+00 0.  1.
         11    1    3    3    0    0  0.24110602603E+03  0.10348566156E+03 -0.35433416523E+03  0.44090146131E+03  0.00000000000E+00 0. -1.
        -15    1    1    2    0    0 -0.24862666914E+03 -0.12338668201E+03  0.35331545387E+03  0.44930441972E+03  0.17770000000E+01 0.  1.
         15    1    1    2    0    0  0.45695323914E+01  0.24378063870E+02  0.52470081987E+02  0.58064084054E+02  0.17770000000E+01 0. -1.
</event>
<event>
 7    1  0.3474777E-008  0.1000000E+04  0.7546771E-02  0.8684367E-01
        -11   -1    0    0    0    0  0.00000000000E+00  0.00000000000E+00  0.50000000000E+03  0.50000000000E+03  0.00000000000E+00 0. -1.
         11   -1    0    0    0    0 -0.00000000000E+00 -0.00000000000E+00 -0.50000000000E+03  0.50000000000E+03  0.00000000000E+00 0.  1.
         23    2    1    2    0    0 -0.31230398985E+03  0.14587653106E+03  0.62138564562E+02  0.36177575271E+03  0.90591112448E+02 0.  0.
        -11    1    3    3    0    0 -0.26508949013E+01 -0.83186860122E+01 -0.39759018867E+01  0.95935174238E+01  0.00000000000E+00 0. -1.
         11    1    3    3    0    0 -0.30965309495E+03  0.15419521707E+03  0.66114466448E+02  0.35218223529E+03  0.00000000000E+00 0.  1.
        -15    1    1    2    0    0  0.43329169398E+03 -0.11124568257E+03 -0.16384329426E+03  0.47640851878E+03  0.17770000000E+01 0. -1.
         15    1    1    2    0    0 -0.12098770413E+03 -0.34630848488E+02  0.10170472970E+03  0.16181572850E+03  0.17770000000E+01 0.  1.
</event>
<event>
 7    1  0.4065368E-008  0.8900457E+03  0.7546771E-02  0.8796756E-01
        -11   -1    0    0    0    0  0.00000000000E+00  0.00000000000E+00  0.50000000000E+03  0.50000000000E+03  0.00000000000E+00 0.  1.
         11   -1    0    0    0    0 -0.00000000000E+00 -0.00000000000E+00 -0.50000000000E+03  0.50000000000E+03  0.00000000000E+00 0. -1.
         23    2    1    2    0    0  0.60677795045E+02 -0.10746202090E+02  0.13741646749E+02  0.10995426395E+03  0.90021284344E+02 0.  0.
        -11    1    3    3    0    0  0.31564561462E+02  0.78512719950E+01 -0.36558405201E+02  0.48933434409E+02  0.00000000000E+00 0. -1.
         11    1    3    3    0    0  0.29113233582E+02 -0.18597474085E+02  0.50300051950E+02  0.61020829543E+02  0.00000000000E+00 0.  1.
        -15    1    1    2    0    0 -0.20579069915E+03 -0.40198725947E+03 -0.26203834399E+02  0.45236419763E+03  0.17770000000E+01 0.  1.
         15    1    1    2    0    0  0.14511290410E+03  0.41273346156E+03  0.12462187650E+02  0.43768153842E+03  0.17770000000E+01 0. -1.
</event>
<event>
 7    1  0.3474777E-008  0.1000000E+04  0.7546771E-02  0.8684367E-01
        -11   -1    0    0    0    0  0.00000000000E+00  0.00000000000E+00  0.50000000000E+03  0.50000000000E+03  0.00000000000E+00 0. -1.
         11   -1    0    0    0    0 -0.00000000000E+00 -0.00000000000E+00 -0.50000000000E+03  0.50000000000E+03  0.00000000000E+00 0.  1.
         23    2    1    2    0    0 -0.13186960642E+03 -0.11662904938E+03 -0.13303079406E+03  0.23879616987E+03  0.91293429779E+02 0.  0.
        -11    1    3    3    0    0 -0.14386285006E+03 -0.98009458479E+02 -0.12803725803E+03  0.21609237150E+03  0.00000000000E+00 0.  1.
         11    1    3    3    0    0  0.11993243639E+02 -0.18619590899E+02 -0.49935360284E+01  0.22703798367E+02  0.00000000000E+00 0. -1.
        -15    1    1    2    0    0  0.26747061018E+03  0.36706900100E+03  0.14319460112E+03  0.47622266884E+03  0.17770000000E+01 0. -1.
         15    1    1    2    0    0 -0.13560100376E+03 -0.25043995162E+03 -0.10163807062E+02  0.28498116129E+03  0.17770000000E+01 0.  1.
</event>
<event>
 7    1  0.3524149E-008  0.8485206E+03  0.7546771E-02  0.8843715E-01
        -11   -1    0    0    0    0  0.00000000000E+00  0.00000000000E+00  0.50000000000E+03  0.50000000000E+03  0.00000000000E+00 0.  1.
         11   -1    0    0    0    0 -0.00000000000E+00 -0.00000000000E+00 -0.50000000000E+03  0.50000000000E+03  0.00000000000E+00 0. -1.
         23    2    1    2    0    0 -0.13250637474E+02 -0.19645660017E+02  0.11910414338E+03  0.15147944912E+03  0.90546646447E+02 0.  0.
        -11    1    3    3    0    0 -0.34956679291E+01 -0.20617389947E+01 -0.15172286457E+02  0.15705691270E+02  0.00000000000E+00 0. -1.
         11    1    3    3    0    0 -0.97549695449E+01 -0.17583921022E+02  0.13427642984E+03  0.13577375785E+03  0.00000000000E+00 0.  1.
        -15    1    1    2    0    0  0.23077527121E+03 -0.31070174215E+03  0.95322132285E+02  0.39860038260E+03  0.17770000000E+01 0.  1.
         15    1    1    2    0    0 -0.21752463374E+03  0.33034740217E+03 -0.21442627567E+03  0.44992016828E+03  0.17770000000E+01 0. -1.
</event>
<event>
 7    1  0.3474777E-008  0.7629357E+03  0.7546771E-02  0.8950066E-01
        -11   -1    0    0    0    0  0.00000000000E+00  0.00000000000E+00  0.50000000000E+03  0.50000000000E+03  0.00000000000E+00 0.  1.
         11   -1    0    0    0    0 -0.00000000000E+00 -0.00000000000E+00 -0.50000000000E+03  0.50000000000E+03  0.00000000000E+00 0. -1.
         23    2    1    2    0    0 -0.25249741219E+02  0.16705954839E+01  0.21724753319E+03  0.23706429294E+03  0.91447514938E+02 0.  0.
        -11    1    3    3    0    0 -0.34893842962E+02  0.77752032947E+01  0.23060227222E+02  0.42541839905E+02  0.00000000000E+00 0.  1.
         11    1    3    3    0    0  0.96441017431E+01 -0.61046078108E+01  0.19418730597E+03  0.19452245303E+03  0.00000000000E+00 0. -1.
        -15    1    1    2    0    0 -0.29008143845E+03 -0.44583223458E+02  0.10339454755E+03  0.31117277345E+03  0.17770000000E+01 0.  1.
         15    1    1    2    0    0  0.31533117967E+03  0.42912627974E+02 -0.32064208074E+03  0.45176293361E+03  0.17770000000E+01 0. -1.
</event>
<event>
 7    1  0.3474777E-008  0.1000000E+04  0.7546771E-02  0.8684367E-01
        -11   -1    0    0    0    0  0.00000000000E+00  0.00000000000E+00  0.50000000000E+03  0.50000000000E+03  0.00000000000E+00 0. -1.
         11   -1    0    0    0    0 -0.00000000000E+00 -0.00000000000E+00 -0.50000000000E+03  0.50000000000E+03  0.00000000000E+00 0.  1.
         23    2    1    2    0    0  0.17852045091E+03 -0.98592700742E+02  0.87321988588E+01  0.22280798622E+03  0.89314474718E+02 0.  0.
        -11    1    3    3    0    0  0.12271042257E+02  0.16361674230E+02  0.23322143836E+01  0.20584510818E+02  0.00000000000E+00 0.  1.
         11    1    3    3    0    0  0.16624940865E+03 -0.11495437497E+03  0.63999844752E+01  0.20222347540E+03  0.00000000000E+00 0. -1.
        -15    1    1    2    0    0  0.27608527803E+03  0.69915107235E+02 -0.11876724976E+03  0.30857741381E+03  0.17770000000E+01 0. -1.
         15    1    1    2    0    0 -0.45460572894E+03  0.28677593507E+02  0.11003505090E+03  0.46861459998E+03  0.17770000000E+01 0.  1.
</event>
<event>
 7    1  0.3474777E-008  0.1000000E+04  0.7546771E-02  0.8684367E-01
        -11   -1    0    0    0    0  0.00000000000E+00  0.00000000000E+00  0.50000000000E+03  0.50000000000E+03  0.00000000000E+00 0.  1.
         11   -1    0    0    0    0 -0.00000000000E+00 -0.00000000000E+00 -0.50000000000E+03  0.50000000000E+03  0.00000000000E+00 0. -1.
         23    2    1    2    0    0 -0.62397131209E+02 -0.19912995931E+03 -0.35343257660E+02  0.22859073226E+03  0.86362227486E+02 0.  0.
        -11    1    3    3    0    0 -0.40519582471E+02 -0.11306946057E+03 -0.62941641049E+02  0.13560305917E+03  0.00000000000E+00 0. -1.
         11    1    3    3    0    0 -0.21877548739E+02 -0.86060498737E+02  0.27598383390E+02  0.92987673094E+02  0.00000000000E+00 0.  1.
        -15    1    1    2    0    0  0.28618434617E+03  0.38346861804E+03  0.50029923139E+02  0.48109854703E+03  0.17770000000E+01 0.  1.
         15    1    1    2    0    0 -0.22378721497E+03 -0.18433865873E+03 -0.14686665480E+02  0.29031072071E+03  0.17770000000E+01 0. -1.
</event>
<event>
 7    1  0.3474777E-008  0.1000000E+04  0.7546771E-02  0.8684367E-01
        -11   -1    0    0    0    0  0.00000000000E+00  0.00000000000E+00  0.50000000000E+03  0.50000000000E+03  0.00000000000E+00 0.  1.
         11   -1    0    0    0    0 -0.00000000000E+00 -0.00000000000E+00 -0.50000000000E+03  0.50000000000E+03  0.00000000000E+00 0. -1.
         23    2    1    2    0    0  0.57672102185E+02 -0.15078912980E+03 -0.42653662024E+02  0.18810871153E+03  0.86614776063E+02 0.  0.
        -11    1    3    3    0    0  0.65161167633E+02 -0.12689322853E+03 -0.62907464979E+02  0.15590130969E+03  0.00000000000E+00 0.  1.
         11    1    3    3    0    0 -0.74890654488E+01 -0.23895901272E+02  0.20253802955E+02  0.32207401836E+02  0.00000000000E+00 0. -1.
        -15    1    1    2    0    0 -0.30426095772E+03  0.28160366192E+03  0.23152912913E+03  0.47485181706E+03  0.17770000000E+01 0.  1.
         15    1    1    2    0    0  0.24658885554E+03 -0.13081453212E+03 -0.18887546710E+03  0.33703947141E+03  0.17770000000E+01 0. -1.
</event>
<event>
 7    1  0.3474777E-008  0.1000000E+04  0.7546771E-02  0.8684367E-01
        -11   -1    0    0    0    0  0.00000000000E+00  0.00000000000E+00  0.50000000000E+03  0.50000000000E+03  0.00000000000E+00 0.  1.
         11   -1    0    0    0    0 -0.00000000000E+00 -0.00000000000E+00 -0.50000000000E+03  0.50000000000E+03  0.00000000000E+00 0. -1.
         23    2    1    2    0    0 -0.32830571297E+02 -0.55368443429E+02  0.98021702014E+00  0.11273526981E+03  0.92546038786E+02 0.  0.
        -11    1    3    3    0    0  0.14794819842E+02 -0.58381484186E+02 -0.15603213279E+02  0.62215308844E+02  0.00000000000E+00 0. -1.
         11    1    3    3    0    0 -0.47625391139E+02  0.30130407575E+01  0.16583430299E+02  0.50519960968E+02  0.00000000000E+00 0.  1.
        -15    1    1    2    0    0  0.17621536250E+03  0.26818356863E+03 -0.33641830120E+03  0.46492441491E+03  0.17770000000E+01 0.  1.
         15    1    1    2    0    0 -0.14338479120E+03 -0.21281512520E+03  0.33543808418E+03  0.42234031528E+03  0.17770000000E+01 0. -1.
</event>
<event>
 7    1  0.3474777E-008  0.7351685E+03  0.7546771E-02  0.8987766E-01
        -11   -1    0    0    0    0  0.00000000000E+00  0.00000000000E+00  0.50000000000E+03  0.50000000000E+03  0.00000000000E+00 0. -1.
         11   -1    0    0    0    0 -0.00000000000E+00 -0.00000000000E+00 -0.50000000000E+03  0.50000000000E+03  0.00000000000E+00 0.  1.
         23    2    1    2    0    0 -0.95081453292E+02 -0.18057354290E+03  0.14429535375E+03  0.26483147524E+03  0.87562971679E+02 0.  0.
        -11    1    3    3    0    0 -0.75247875125E+02 -0.17130254882E+03  0.92748488949E+02  0.20882789120E+03  0.00000000000E+00 0. -1.
         11    1    3    3    0    0 -0.19833578167E+02 -0.92709940828E+01  0.51546864804E+02  0.56003584040E+02  0.00000000000E+00 0.  1.
        -15    1    1    2    0    0 -0.19535120670E+03  0.33171716805E+03 -0.21780737925E+02  0.38558518100E+03  0.17770000000E+01 0.  1.
         15    1    1    2    0    0  0.29043265999E+03 -0.15114362515E+03 -0.12251461583E+03  0.34958334375E+03  0.17770000000E+01 0. -1.
</event>
<event>
 7    1  0.3474777E-008  0.1000000E+04  0.7546771E-02  0.8684367E-01
        -11   -1    0    0    0    0  0.00000000000E+00  0.00000000000E+00  0.50000000000E+03  0.50000000000E+03  0.00000000000E+00 0.  1.
         11   -1    0    0    0    0 -0.00000000000E+00 -0.00000000000E+00 -0.50000000000E+03  0.50000000000E+03  0.00000000000E+00 0. -1.
         23    2    1    2    0    0 -0.10369627329E+01  0.80176920763E+02 -0.24095479691E+03  0.26963521919E+03  0.90634007746E+02 0.  0.
        -11    1    3    3    0    0  0.34706905735E+02  0.77318483661E+02 -0.17905138626E+03  0.19809622950E+03  0.00000000000E+00 0. -1.
         11    1    3    3    0    0 -0.35743868468E+02  0.28584371018E+01 -0.61903410652E+02  0.71538989691E+02  0.00000000000E+00 0.  1.
        -15    1    1    2    0    0 -0.42014984895E+01 -0.29066964874E+03  0.37969354996E+03  0.47820168015E+03  0.17770000000E+01 0.  1.
         15    1    1    2    0    0  0.52384612224E+01  0.21049272797E+03 -0.13873875305E+03  0.25216310066E+03  0.17770000000E+01 0. -1.
</event>
<event>
 7    1  0.3474777E-008  0.1000000E+04  0.7546771E-02  0.8684367E-01
        -11   -1    0    0    0    0  0.00000000000E+00  0.00000000000E+00  0.50000000000E+03  0.50000000000E+03  0.00000000000E+00 0.  1.
         11   -1    0    0    0    0 -0.00000000000E+00 -0.00000000000E+00 -0.50000000000E+03  0.50000000000E+03  0.00000000000E+00 0. -1.
         23    2    1    2    0    0  0.27393833743E+02  0.34981574590E+03  0.24957290004E+03  0.44058000659E+03  0.93287896147E+02 0.  0.
        -11    1    3    3    0    0  0.29481345128E+02  0.35218214129E+03  0.25394433944E+03  0.43518862334E+03  0.00000000000E+00 0.  1.
         11    1    3    3    0    0 -0.20875113854E+01 -0.23663953952E+01 -0.43714393938E+01  0.53913832478E+01  0.00000000000E+00 0. -1.
        -15    1    1    2    0    0 -0.50401938620E+02  0.57004110115E+02  0.92842528712E+01  0.76675804965E+02  0.17770000000E+01 0.  1.
         15    1    1    2    0    0  0.23008104877E+02 -0.40681985601E+03 -0.25885715291E+03  0.48274418845E+03  0.17770000000E+01 0. -1.
</event>
<event>
 7    1  0.3474777E-008  0.8690889E+03  0.7546771E-02  0.8820111E-01
        -11   -1    0    0    0    0  0.00000000000E+00  0.00000000000E+00  0.50000000000E+03  0.50000000000E+03  0.00000000000E+00 0. -1.
         11   -1    0    0    0    0 -0.00000000000E+00 -0.00000000000E+00 -0.50000000000E+03  0.50000000000E+03  0.00000000000E+00 0.  1.
         23    2    1    2    0    0  0.26877202610E+02  0.44801923724E+02  0.77694874550E+02  0.13091108733E+03  0.91496572973E+02 0.  0.
        -11    1    3    3    0    0  0.14251229821E+01  0.64679984131E+02  0.74175402505E+02  0.98425208455E+02  0.00000000000E+00 0. -1.
         11    1    3    3    0    0  0.25452079628E+02 -0.19878060407E+02  0.35194720447E+01  0.32485878877E+02  0.00000000000E+00 0.  1.
        -15    1    1    2    0    0 -0.42228827488E+03 -0.13121939299E+03  0.49144571851E+02  0.44493175080E+03  0.17770000000E+01 0. -1.
         15    1    1    2    0    0  0.39541107227E+03  0.86417469266E+02 -0.12683944640E+03  0.42415716187E+03  0.17770000000E+01 0.  1.
</event>
<event>
 7    1  0.3474777E-008  0.8777917E+03  0.7546771E-02  0.8810329E-01
        -11   -1    0    0    0    0  0.00000000000E+00  0.00000000000E+00  0.50000000000E+03  0.50000000000E+03  0.00000000000E+00 0.  1.
         11   -1    0    0    0    0 -0.00000000000E+00 -0.00000000000E+00 -0.50000000000E+03  0.50000000000E+03  0.00000000000E+00 0. -1.
         23    2    1    2    0    0  0.30736114283E+02 -0.19172784774E+02 -0.71351271756E+02  0.12220829189E+03  0.92366434535E+02 0.  0.
        -11    1    3    3    0    0 -0.29958666938E+02  0.71421233425E+01 -0.35380149327E+02  0.46907212845E+02  0.00000000000E+00 0.  1.
         11    1    3    3    0    0  0.60694781221E+02 -0.26314908117E+02 -0.35971122430E+02  0.75301079046E+02  0.00000000000E+00 0. -1.
        -15    1    1    2    0    0 -0.36587184637E+03  0.12816105873E+03 -0.19698101927E+03  0.43484726586E+03  0.17770000000E+01 0.  1.
         15    1    1    2    0    0  0.33513573209E+03 -0.10898827396E+03  0.26833229103E+03  0.44294444225E+03  0.17770000000E+01 0. -1.
</event>
<event>
 7    1  0.3474777E-008  0.6651353E+03  0.7546771E-02  0.9091196E-01
        -11   -1    0    0    0    0  0.00000000000E+00  0.00000000000E+00  0.50000000000E+03  0.50000000000E+03  0.00000000000E+00 0.  1.
         11   -1    0    0    0    0 -0.00000000000E+00 -0.00000000000E+00 -0.50000000000E+03  0.50000000000E+03  0.00000000000E+00 0. -1.
         23    2    1    2    0    0 -0.15068964611E+03  0.19654003185E+03 -0.20339518027E+03  0.33486465635E+03  0.97105021243E+02 0.  0.
        -11    1    3    3    0    0 -0.47263948012E+02  0.16134036873E+02 -0.76171314358E+02  0.91083791415E+02  0.00000000000E+00 0.  1.
         11    1    3    3    0    0 -0.10342569810E+03  0.18040599498E+03 -0.12722386591E+03  0.24378086494E+03  0.00000000000E+00 0. -1.
        -15    1    1    2    0    0  0.35216407685E+03 -0.24751694121E+02  0.43201671511E+02  0.35567081063E+03  0.17770000000E+01 0.  1.
         15    1    1    2    0    0 -0.20147443073E+03 -0.17178833773E+03  0.16019350876E+03  0.30946453302E+03  0.17770000000E+01 0. -1.
</event>
<event>
 7    1  0.4427811E-008  0.8419662E+03  0.7546771E-02  0.8851385E-01
        -11   -1    0    0    0    0  0.00000000000E+00  0.00000000000E+00  0.50000000000E+03  0.50000000000E+03  0.00000000000E+00 0. -1.
         11   -1    0    0    0    0 -0.00000000000E+00 -0.00000000000E+00 -0.50000000000E+03  0.50000000000E+03  0.00000000000E+00 0.  1.
         23    2    1    2    0    0  0.44136673188E+02  0.44356864226E+02  0.11389921546E+03  0.15803380885E+03  0.89922611915E+02 0.  0.
        -11    1    3    3    0    0  0.31009064667E+02  0.66839380701E+02  0.50029682065E+02  0.89061967143E+02  0.00000000000E+00 0. -1.
         11    1    3    3    0    0  0.13127608521E+02 -0.22482516475E+02  0.63869533393E+02  0.68971841706E+02  0.00000000000E+00 0.  1.
        -15    1    1    2    0    0  0.20548641961E+03 -0.29872162371E+03  0.15619409677E+03  0.39478985639E+03  0.17770000000E+01 0. -1.
         15    1    1    2    0    0 -0.24962309280E+03  0.25436475949E+03 -0.27009331222E+03  0.44717633476E+03  0.17770000000E+01 0.  1.
</event>
<event>
 7    1  0.3474777E-008  0.6785250E+03  0.7546771E-02  0.9070412E-01
        -11   -1    0    0    0    0  0.00000000000E+00  0.00000000000E+00  0.50000000000E+03  0.50000000000E+03  0.00000000000E+00 0.  1.
         11   -1    0    0    0    0 -0.00000000000E+00 -0.00000000000E+00 -0.50000000000E+03  0.50000000000E+03  0.00000000000E+00 0. -1.
         23    2    1    2    0    0  0.18341077139E+03 -0.19688711091E+03 -0.15117270125E+03  0.32147499633E+03  0.89938546558E+02 0.  0.
        -11    1    3    3    0    0  0.43390846581E+02 -0.17468935374E+01 -0.26401836174E+02  0.50821984981E+02  0.00000000000E+00 0.  1.
         11    1    3    3    0    0  0.14001992481E+03 -0.19514021737E+03 -0.12477086508E+03  0.27065301135E+03  0.00000000000E+00 0. -1.
        -15    1    1    2    0    0 -0.29981169705E+03  0.29808180694E+03 -0.49226888763E+02  0.42563630205E+03  0.17770000000E+01 0.  1.
         15    1    1    2    0    0  0.11640092566E+03 -0.10119469603E+03  0.20039959001E+03  0.25288870162E+03  0.17770000000E+01 0. -1.
</event>
<event>
 7    1  0.3474777E-008  0.8472369E+03  0.7546771E-02  0.8845212E-01
        -11   -1    0    0    0    0  0.00000000000E+00  0.00000000000E+00  0.50000000000E+03  0.50000000000E+03  0.00000000000E+00 0.  1.
         11   -1    0    0    0    0 -0.00000000000E+00 -0.00000000000E+00 -0.50000000000E+03  0.50000000000E+03  0.00000000000E+00 0. -1.
         23    2    1    2    0    0  0.18108721337E+01 -0.10486902461E+03 -0.61442894121E+02  0.15276311156E+03  0.92523226460E+02 0.  0.
        -11    1    3    3    0    0  0.21243011622E+02 -0.14092512979E+02 -0.53899561738E+02  0.59624049011E+02  0.00000000000E+00 0.  1.
         11    1    3    3    0    0 -0.19432139489E+02 -0.90776511630E+02 -0.75433323827E+01  0.93139062547E+02  0.00000000000E+00 0. -1.
        -15    1    1    2    0    0 -0.10359004222E+03 -0.29696939899E+03  0.24025164720E+03  0.39578495739E+03  0.17770000000E+01 0.  1.
         15    1    1    2    0    0  0.10177917009E+03  0.40183842360E+03 -0.17880875308E+03  0.45145193105E+03  0.17770000000E+01 0. -1.
</event>
<event>
 7    1  0.3474777E-008  0.6658548E+03  0.7546771E-02  0.9090067E-01
        -11   -1    0    0    0    0  0.00000000000E+00  0.00000000000E+00  0.50000000000E+03  0.50000000000E+03  0.00000000000E+00 0.  1.
         11   -1    0    0    0    0 -0.00000000000E+00 -0.00000000000E+00 -0.50000000000E+03  0.50000000000E+03  0.00000000000E+00 0. -1.
         23    2    1    2    0    0 -0.30129365651E+03  0.33804812022E+02  0.10773482160E+03  0.33414519511E+03  0.90142037164E+02 0.  0.
        -11    1    3    3    0    0 -0.14487043553E+02 -0.20858216326E+01  0.32237404138E+02  0.35404453227E+02  0.00000000000E+00 0.  1.
         11    1    3    3    0    0 -0.28680661295E+03  0.35890633655E+02  0.75497417459E+02  0.29874074188E+03  0.00000000000E+00 0. -1.
        -15    1    1    2    0    0  0.16717986145E+03 -0.25414071144E+03  0.11483548989E+03  0.32515681564E+03  0.17770000000E+01 0.  1.
         15    1    1    2    0    0  0.13411379506E+03  0.22033589942E+03 -0.22257031149E+03  0.34069798925E+03  0.17770000000E+01 0. -1.
</event>
<event>
 7    1  0.3474777E-008  0.7320690E+03  0.7546771E-02  0.8992082E-01
        -11   -1    0    0    0    0  0.00000000000E+00  0.00000000000E+00  0.50000000000E+03  0.50000000000E+03  0.00000000000E+00 0.  1.
         11   -1    0    0    0    0 -0.00000000000E+00 -0.00000000000E+00 -0.50000000000E+03  0.50000000000E+03  0.00000000000E+00 0. -1.
         23    2    1    2    0    0  0.19522588012E+01  0.52657779513E+02  0.24709400500E+03  0.26793098808E+03  0.89190324634E+02 0.  0.
        -11    1    3    3    0    0 -0.18074963849E+02 -0.58645625214E+01  0.74130441070E+01  0.20397319300E+02  0.00000000000E+00 0.  1.
         11    1    3    3    0    0  0.20027222650E+02  0.58522342034E+02  0.23968096089E+03  0.24753366878E+03  0.00000000000E+00 0. -1.
        -15    1    1    2    0    0 -0.31188445825E+03 -0.16106933268E+03 -0.18882185608E+03  0.39858762686E+03  0.17770000000E+01 0.  1.
         15    1    1    2    0    0  0.30993219944E+03  0.10841155316E+03 -0.58272148922E+02  0.33348138506E+03  0.17770000000E+01 0. -1.
</event>
<event>
 7    1  0.3474777E-008  0.7597298E+03  0.7546771E-02  0.8954332E-01
        -11   -1    0    0    0    0  0.00000000000E+00  0.00000000000E+00  0.50000000000E+03  0.50000000000E+03  0.00000000000E+00 0.  1.
         11   -1    0    0    0    0 -0.00000000000E+00 -0.00000000000E+00 -0.50000000000E+03  0.50000000000E+03  0.00000000000E+00 0. -1.
         23    2    1    2    0    0  0.11189846432E+03 -0.13025505275E+03 -0.14130129369E+03  0.24027015003E+03  0.90972766873E+02 0.  0.
        -11    1    3    3    0    0  0.12762726466E+03 -0.12156851233E+03 -0.13041261925E+03  0.21926028626E+03  0.00000000000E+00 0.  1.
         11    1    3    3    0    0 -0.15728800333E+02 -0.86865404206E+01 -0.10888674444E+02  0.21009863768E+02  0.00000000000E+00 0. -1.
        -15    1    1    2    0    0 -0.38057737654E+03 -0.97222467548E+02  0.49501697929E+02  0.39591024684E+03  0.17770000000E+01 0.  1.
         15    1    1    2    0    0  0.26867891221E+03  0.22747752030E+03  0.91799595763E+02  0.36381960313E+03  0.17770000000E+01 0. -1.
</event>
<event>
 7    1  0.3474777E-008  0.1000000E+04  0.7546771E-02  0.8684367E-01
        -11   -1    0    0    0    0  0.00000000000E+00  0.00000000000E+00  0.50000000000E+03  0.50000000000E+03  0.00000000000E+00 0. -1.
         11   -1    0    0    0    0 -0.00000000000E+00 -0.00000000000E+00 -0.50000000000E+03  0.50000000000E+03  0.00000000000E+00 0.  1.
         23    2    1    2    0    0  0.30916129317E+02 -0.20768587365E+02 -0.25101411365E+03  0.26949942429E+03  0.90745320368E+02 0.  0.
        -11    1    3    3    0    0  0.33250924298E+02 -0.43421758621E+02 -0.79590637679E+02  0.96569885029E+02  0.00000000000E+00 0. -1.
         11    1    3    3    0    0 -0.23347949811E+01  0.22653171255E+02 -0.17142347597E+03  0.17292953926E+03  0.00000000000E+00 0.  1.
        -15    1    1    2    0    0 -0.12846711205E+03  0.22950663896E+03  0.38326009508E+03  0.46483174850E+03  0.17770000000E+01 0. -1.
         15    1    1    2    0    0  0.97550982730E+02 -0.20873805160E+03 -0.13224598143E+03  0.26566882721E+03  0.17770000000E+01 0.  1.
</event>
<event>
 7    1  0.3474777E-008  0.1000000E+04  0.7546771E-02  0.8684367E-01
        -11   -1    0    0    0    0  0.00000000000E+00  0.00000000000E+00  0.50000000000E+03  0.50000000000E+03  0.00000000000E+00 0. -1.
         11   -1    0    0    0    0 -0.00000000000E+00 -0.00000000000E+00 -0.50000000000E+03  0.50000000000E+03  0.00000000000E+00 0.  1.
         23    2    1    2    0    0  0.45982394876E+02 -0.29383289371E+03 -0.80087187668E+02  0.32107075373E+03  0.90665987026E+02 0.  0.
        -11    1    3    3    0    0  0.63494621628E+01  0.30608004365E+01 -0.11976867113E+02  0.13897104551E+02  0.00000000000E+00 0.  1.
         11    1    3    3    0    0  0.39632932713E+02 -0.29689369415E+03 -0.68110320555E+02  0.30717364917E+03  0.00000000000E+00 0. -1.
        -15    1    1    2    0    0  0.37782417396E+02  0.47389652907E+03  0.63708321488E+02  0.47965335325E+03  0.17770000000E+01 0.  1.
         15    1    1    2    0    0 -0.83764812272E+02 -0.18006363536E+03  0.16378866180E+02  0.19927589302E+03  0.17770000000E+01 0. -1.
</event>
<event>
 7    1  0.3474777E-008  0.6989137E+03  0.7546771E-02  0.9039715E-01
        -11   -1    0    0    0    0  0.00000000000E+00  0.00000000000E+00  0.50000000000E+03  0.50000000000E+03  0.00000000000E+00 0.  1.
         11   -1    0    0    0    0 -0.00000000000E+00 -0.00000000000E+00 -0.50000000000E+03  0.50000000000E+03  0.00000000000E+00 0. -1.
         23    2    1    2    0    0  0.22007955236E+02 -0.13930928240E+03 -0.24936500720E+03  0.30108626619E+03  0.92620767759E+02 0.  0.
        -11    1    3    3    0    0 -0.30325161524E+02 -0.50830656645E+02 -0.13445251820E+03  0.14690422297E+03  0.00000000000E+00 0.  1.
         11    1    3    3    0    0  0.52333116760E+02 -0.88478625753E+02 -0.11491248900E+03  0.15418204322E+03  0.00000000000E+00 0. -1.
        -15    1    1    2    0    0  0.29823074921E+03  0.61334387430E+02  0.20329769085E+03  0.36611008684E+03  0.17770000000E+01 0.  1.
         15    1    1    2    0    0 -0.32023870444E+03  0.77974894968E+02  0.46067316347E+02  0.33280364697E+03  0.17770000000E+01 0. -1.
</event>
<event>
 7    1  0.3474777E-008  0.8146226E+03  0.7546771E-02  0.8884191E-01
        -11   -1    0    0    0    0  0.00000000000E+00  0.00000000000E+00  0.50000000000E+03  0.50000000000E+03  0.00000000000E+00 0.  1.
         11   -1    0    0    0    0 -0.00000000000E+00 -0.00000000000E+00 -0.50000000000E+03  0.50000000000E+03  0.00000000000E+00 0. -1.
         23    2    1    2    0    0  0.26511690069E+02  0.45894293726E+02 -0.15254227124E+03  0.18537736130E+03  0.91030026163E+02 0.  0.
        -11    1    3    3    0    0  0.36006599796E+02 -0.17520590126E+02 -0.72447138710E+02  0.82777015013E+02  0.00000000000E+00 0.  1.
         11    1    3    3    0    0 -0.94949097265E+01  0.63414883852E+02 -0.80095132527E+02  0.10260034629E+03  0.00000000000E+00 0. -1.
        -15    1    1    2    0    0  0.10686059346E+03 -0.39039707798E+03 -0.23407728193E+02  0.40543821280E+03  0.17770000000E+01 0.  1.
         15    1    1    2    0    0 -0.13337228353E+03  0.34450278425E+03  0.17594999943E+03  0.40918442590E+03  0.17770000000E+01 0. -1.
</event>
<event>
 7    1  0.3474777E-008  0.8419920E+03  0.7546771E-02  0.8851355E-01
        -11   -1    0    0    0    0  0.00000000000E+00  0.00000000000E+00  0.50000000000E+03  0.50000000000E+03  0.00000000000E+00 0.  1.
         11   -1    0    0    0    0 -0.00000000000E+00 -0.00000000000E+00 -0.50000000000E+03  0.50000000000E+03  0.00000000000E+00 0. -1.
         23    2    1    2    0    0 -0.30831218138E+02 -0.95945094400E+02  0.79983862934E+02  0.15800799986E+03  0.91722868126E+02 0.  0.
        -11    1    3    3    0    0  0.31571630059E+02 -0.20911933078E+02  0.30289663524E+02  0.48492684871E+02  0.00000000000E+00 0. -1.
         11    1    3    3    0    0 -0.62402848197E+02 -0.75033161322E+02  0.49694199410E+02  0.10951531498E+03  0.00000000000E+00 0.  1.
        -15    1    1    2    0    0  0.51689284512E+02 -0.34484776469E+03 -0.17565918944E+03  0.39044983225E+03  0.17770000000E+01 0.  1.
         15    1    1    2    0    0 -0.20858066374E+02  0.44079285909E+03  0.95675326503E+02  0.45154216789E+03  0.17770000000E+01 0. -1.
</event>
<event>
 7    1  0.3474777E-008  0.6700343E+03  0.7546771E-02  0.9083533E-01
        -11   -1    0    0    0    0  0.00000000000E+00  0.00000000000E+00  0.50000000000E+03  0.50000000000E+03  0.00000000000E+00 0.  1.
         11   -1    0    0    0    0 -0.00000000000E+00 -0.00000000000E+00 -0.50000000000E+03  0.50000000000E+03  0.00000000000E+00 0. -1.
         23    2    1    2    0    0 -0.26290165316E+03 -0.63303225715E+02  0.16594265572E+03  0.32996574668E+03  0.90641333690E+02 0.  0.
        -11    1    3    3    0    0 -0.26622894428E+03 -0.57206423354E+02  0.14627237429E+03  0.30910521368E+03  0.00000000000E+00 0.  1.
         11    1    3    3    0    0  0.33272911211E+01 -0.60968023604E+01  0.19670281432E+02  0.20860532995E+02  0.00000000000E+00 0. -1.
        -15    1    1    2    0    0  0.47319183431E+02  0.31383490536E+03 -0.10207654637E+03  0.33339800838E+03  0.17770000000E+01 0. -1.
         15    1    1    2    0    0  0.21558246973E+03 -0.25053167964E+03 -0.63866109353E+02  0.33663624495E+03  0.17770000000E+01 0.  1.
</event>
<event>
 7    1  0.3474777E-008  0.7333642E+03  0.7546771E-02  0.8990276E-01
        -11   -1    0    0    0    0  0.00000000000E+00  0.00000000000E+00  0.50000000000E+03  0.50000000000E+03  0.00000000000E+00 0.  1.
         11   -1    0    0    0    0 -0.00000000000E+00 -0.00000000000E+00 -0.50000000000E+03  0.50000000000E+03  0.00000000000E+00 0. -1.
         23    2    1    2    0    0 -0.18911051832E+03  0.40385910740E+02 -0.15914328364E+03  0.26663576057E+03  0.91510841759E+02 0.  0.
        -11    1    3    3    0    0 -0.14822663328E+03  0.11263807298E+02 -0.15726797968E+03  0.21640523469E+03  0.00000000000E+00 0.  1.
         11    1    3    3    0    0 -0.40883885046E+02  0.29122103443E+02 -0.18753039607E+01  0.50230525881E+02  0.00000000000E+00 0. -1.
        -15    1    1    2    0    0  0.24368738036E+03  0.24592042438E+03  0.25115605697E+03  0.42771826844E+03  0.17770000000E+01 0.  1.
         15    1    1    2    0    0 -0.54576862040E+02 -0.28630633512E+03 -0.92012773332E+02  0.30564597099E+03  0.17770000000E+01 0. -1.
</event>
<event>
 7    1  0.3474777E-008  0.1000000E+04  0.7546771E-02  0.8684367E-01
        -11   -1    0    0    0    0  0.00000000000E+00  0.00000000000E+00  0.50000000000E+03  0.50000000000E+03  0.00000000000E+00 0. -1.
         11   -1    0    0    0    0 -0.00000000000E+00 -0.00000000000E+00 -0.50000000000E+03  0.50000000000E+03  0.00000000000E+00 0.  1.
         23    2    1    2    0    0  0.13307286236E+03  0.22733581448E+02 -0.18084704678E+03  0.24443513140E+03  0.93902485111E+02 0.  0.
        -11    1    3    3    0    0  0.85857570231E+02 -0.25518606433E+02 -0.13785622303E+03  0.16439908719E+03  0.00000000000E+00 0. -1.
         11    1    3    3    0    0  0.47215292127E+02  0.48252187881E+02 -0.42990823756E+02  0.80036044212E+02  0.00000000000E+00 0.  1.
        -15    1    1    2    0    0 -0.42151681096E+03 -0.48835940763E+02  0.19192519793E+03  0.46572503730E+03  0.17770000000E+01 0. -1.
         15    1    1    2    0    0  0.28844394861E+03  0.26102359316E+02 -0.11078151150E+02  0.28983983130E+03  0.17770000000E+01 0.  1.
</event>
<event>
 7    1  0.3474777E-008  0.1000000E+04  0.7546771E-02  0.8684367E-01
        -11   -1    0    0    0    0  0.00000000000E+00  0.00000000000E+00  0.50000000000E+03  0.50000000000E+03  0.00000000000E+00 0.  1.
         11   -1    0    0    0    0 -0.00000000000E+00 -0.00000000000E+00 -0.50000000000E+03  0.50000000000E+03  0.00000000000E+00 0. -1.
         23    2    1    2    0    0  0.83305027415E+01 -0.13072209404E+03 -0.18108721999E+03  0.24229313885E+03  0.93572008346E+02 0.  0.
        -11    1    3    3    0    0  0.29615972057E+02 -0.46228186839E+02 -0.13040683442E+03  0.14149237973E+03  0.00000000000E+00 0.  1.
         11    1    3    3    0    0 -0.21285469316E+02 -0.84493907199E+02 -0.50680385573E+02  0.10080075912E+03  0.00000000000E+00 0. -1.
        -15    1    1    2    0    0 -0.85090447701E+02  0.29958465083E+03  0.37626816644E+03  0.48843857148E+03  0.17770000000E+01 0.  1.
         15    1    1    2    0    0  0.76759944960E+02 -0.16886255679E+03 -0.19518094645E+03  0.26926828967E+03  0.17770000000E+01 0. -1.
</event>
<event>
 7    1  0.3474777E-008  0.8434287E+03  0.7546771E-02  0.8849667E-01
        -11   -1    0    0    0    0  0.00000000000E+00  0.00000000000E+00  0.50000000000E+03  0.50000000000E+03  0.00000000000E+00 0.  1.
         11   -1    0    0    0    0 -0.00000000000E+00 -0.00000000000E+00 -0.50000000000E+03  0.50000000000E+03  0.00000000000E+00 0. -1.
         23    2    1    2    0    0 -0.41212522580E+02 -0.95436066321E+02  0.80364489040E+02  0.15657127592E+03  0.85144574536E+02 0.  0.
        -11    1    3    3    0    0 -0.29742538834E+02 -0.10250975695E+03  0.39949050672E+02  0.11396839709E+03  0.00000000000E+00 0.  1.
         11    1    3    3    0    0 -0.11469983746E+02  0.70736906270E+01  0.40415438368E+02  0.42602878831E+02  0.00000000000E+00 0. -1.
        -15    1    1    2    0    0  0.37761638587E+03 -0.13628620895E+03  0.71197705914E+02  0.40772581066E+03  0.17770000000E+01 0.  1.
         15    1    1    2    0    0 -0.33640386329E+03  0.23172227527E+03 -0.15156219495E+03  0.43570291342E+03  0.17770000000E+01 0. -1.
</event>
<event>
 7    1  0.3474777E-008  0.1000000E+04  0.7546771E-02  0.8684367E-01
        -11   -1    0    0    0    0  0.00000000000E+00  0.00000000000E+00  0.50000000000E+03  0.50000000000E+03  0.00000000000E+00 0. -1.
         11   -1    0    0    0    0 -0.00000000000E+00 -0.00000000000E+00 -0.50000000000E+03  0.50000000000E+03  0.00000000000E+00 0.  1.
         23    2    1    2    0    0  0.23716564583E+02 -0.21865253436E+02 -0.18833790645E+03  0.21127918404E+03  0.90150772935E+02 0.  0.
        -11    1    3    3    0    0  0.58221696522E+02 -0.10386325768E+02 -0.12381814144E+03  0.13721725058E+03  0.00000000000E+00 0. -1.
         11    1    3    3    0    0 -0.34505131938E+02 -0.11478927667E+02 -0.64519765012E+02  0.74061933459E+02  0.00000000000E+00 0.  1.
        -15    1    1    2    0    0 -0.99504327920E+02  0.20304615721E+03  0.42485886016E+03  0.48128688120E+03  0.17770000000E+01 0. -1.
         15    1    1    2    0    0  0.75787763337E+02 -0.18118090377E+03 -0.23652095371E+03  0.30743393475E+03  0.17770000000E+01 0.  1.
</event>
<event>
 7    1  0.3474777E-008  0.5591054E+03  0.7546771E-02  0.9276477E-01
        -11   -1    0    0    0    0  0.00000000000E+00  0.00000000000E+00  0.50000000000E+03  0.50000000000E+03  0.00000000000E+00 0.  1.
         11   -1    0    0    0    0 -0.00000000000E+00 -0.00000000000E+00 -0.50000000000E+03  0.50000000000E+03  0.00000000000E+00 0. -1.
         23    2    1    2    0    0  0.72449844018E+02 -0.17419811363E+03 -0.38734148697E+03  0.44089457672E+03  0.93598277581E+02 0.  0.
        -11    1    3    3    0    0 -0.11277201528E+02 -0.54900946174E+02 -0.57545532560E+02  0.80329182012E+02  0.00000000000E+00 0.  1.
         11    1    3    3    0    0  0.83727045546E+02 -0.11929716746E+03 -0.32979595441E+03  0.36056539471E+03  0.00000000000E+00 0. -1.
        -15    1    1    2    0    0  0.11358939591E+03  0.16281142990E+03  0.28239576967E+03  0.34519652522E+03  0.17770000000E+01 0.  1.
         15    1    1    2    0    0 -0.18603923993E+03  0.11386683733E+02  0.10494571730E+03  0.21390889806E+03  0.17770000000E+01 0. -1.
</event>
<event>
 7    1  0.3474777E-008  0.1000000E+04  0.7546771E-02  0.8684367E-01
        -11   -1    0    0    0    0  0.00000000000E+00  0.00000000000E+00  0.50000000000E+03  0.50000000000E+03  0.00000000000E+00 0.  1.
         11   -1    0    0    0    0 -0.00000000000E+00 -0.00000000000E+00 -0.50000000000E+03  0.50000000000E+03  0.00000000000E+00 0. -1.
         23    2    1    2    0    0 -0.31627205930E+01 -0.11803065502E+03 -0.15838805164E+03  0.22012868797E+03  0.97101112439E+02 0.  0.
        -11    1    3    3    0    0 -0.23722935646E+02 -0.52861787026E+02 -0.12853726205E+02  0.59349511208E+02  0.00000000000E+00 0.  1.
         11    1    3    3    0    0  0.20560215053E+02 -0.65168867993E+02 -0.14553432544E+03  0.16077917676E+03  0.00000000000E+00 0. -1.
        -15    1    1    2    0    0  0.95352499230E+02  0.64095780828E+02  0.45255200288E+03  0.46691202734E+03  0.17770000000E+01 0.  1.
         15    1    1    2    0    0 -0.92189778637E+02  0.53934874191E+02 -0.29416395124E+03  0.31295928470E+03  0.17770000000E+01 0. -1.
</event>
<event>
 7    1  0.3474777E-008  0.7595725E+03  0.7546771E-02  0.8954542E-01
        -11   -1    0    0    0    0  0.00000000000E+00  0.00000000000E+00  0.50000000000E+03  0.50000000000E+03  0.00000000000E+00 0. -1.
         11   -1    0    0    0    0 -0.00000000000E+00 -0.00000000000E+00 -0.50000000000E+03  0.50000000000E+03  0.00000000000E+00 0.  1.
         23    2    1    2    0    0 -0.12484003410E+03 -0.18426564630E+03  0.40775591499E+01  0.24042754508E+03  0.90829045042E+02 0.  0.
        -11    1    3    3    0    0 -0.38224429968E+02 -0.21705285838E+02 -0.29848432659E+02  0.53133373805E+02  0.00000000000E+00 0.  1.
         11    1    3    3    0    0 -0.86615604132E+02 -0.16256036047E+03  0.33925991809E+02  0.18729417128E+03  0.00000000000E+00 0. -1.
        -15    1    1    2    0    0 -0.27067962527E+03  0.16709200835E+03  0.12703194158E+03  0.34253097773E+03  0.17770000000E+01 0. -1.
         15    1    1    2    0    0  0.39551965937E+03  0.17173637956E+02 -0.13110950073E+03  0.41704147719E+03  0.17770000000E+01 0.  1.
</event>
<event>
 7    1  0.3474777E-008  0.1000000E+04  0.7546771E-02  0.8684367E-01
        -11   -1    0    0    0    0  0.00000000000E+00  0.00000000000E+00  0.50000000000E+03  0.50000000000E+03  0.00000000000E+00 0. -1.
         11   -1    0    0    0    0 -0.00000000000E+00 -0.00000000000E+00 -0.50000000000E+03  0.50000000000E+03  0.00000000000E+00 0.  1.
         23    2    1    2    0    0  0.82810403519E+02 -0.15665281082E+02  0.70836632387E+02  0.14303639364E+03  0.91316030656E+02 0.  0.
        -11    1    3    3    0    0  0.43585050124E+02  0.23425814071E+02  0.72332545599E+02  0.87638019786E+02  0.00000000000E+00 0. -1.
         11    1    3    3    0    0  0.39225353395E+02 -0.39091095153E+02 -0.14959132110E+01  0.55398373853E+02  0.00000000000E+00 0.  1.
        -15    1    1    2    0    0  0.26214079374E+03 -0.19298929499E+02  0.26571502038E+03  0.37376178805E+03  0.17770000000E+01 0. -1.
         15    1    1    2    0    0 -0.34495119726E+03  0.34964210581E+02 -0.33655165277E+03  0.48320181831E+03  0.17770000000E+01 0.  1.
</event>
<event>
 7    1  0.3474777E-008  0.1000000E+04  0.7546771E-02  0.8684367E-01
        -11   -1    0    0    0    0  0.00000000000E+00  0.00000000000E+00  0.50000000000E+03  0.50000000000E+03  0.00000000000E+00 0. -1.
         11   -1    0    0    0    0 -0.00000000000E+00 -0.00000000000E+00 -0.50000000000E+03  0.50000000000E+03  0.00000000000E+00 0.  1.
         23    2    1    2    0    0  0.22032441529E+02  0.50784353520E+02  0.26710111688E+03  0.28776965002E+03  0.91672710191E+02 0.  0.
        -11    1    3    3    0    0  0.23049305893E+02 -0.16588412744E+02  0.30123340531E+02  0.41398811387E+02  0.00000000000E+00 0.  1.
         11    1    3    3    0    0 -0.10168643633E+01  0.67372766263E+02  0.23697777635E+03  0.24637083864E+03  0.00000000000E+00 0. -1.
        -15    1    1    2    0    0  0.33365222091E+02  0.20783229270E+03  0.12082962324E+03  0.24271476163E+03  0.17770000000E+01 0. -1.
         15    1    1    2    0    0 -0.55397663620E+02 -0.25861664622E+03 -0.38793074012E+03  0.46951558834E+03  0.17770000000E+01 0.  1.
</event>
<event>
 7    1  0.3474777E-008  0.8675188E+03  0.7546771E-02  0.8821889E-01
        -11   -1    0    0    0    0  0.00000000000E+00  0.00000000000E+00  0.50000000000E+03  0.50000000000E+03  0.00000000000E+00 0. -1.
         11   -1    0    0    0    0 -0.00000000000E+00 -0.00000000000E+00 -0.50000000000E+03  0.50000000000E+03  0.00000000000E+00 0.  1.
         23    2    1    2    0    0 -0.41936554286E+01  0.54112036358E+01 -0.95989035039E+02  0.13248120172E+03  0.91052216286E+02 0.  0.
        -11    1    3    3    0    0 -0.28979567010E+02  0.30092926271E+02 -0.86776009819E+02  0.96309269522E+02  0.00000000000E+00 0.  1.
         11    1    3    3    0    0  0.24785911582E+02 -0.24681722635E+02 -0.92130252194E+01  0.36171932197E+02  0.00000000000E+00 0. -1.
        -15    1    1    2    0    0 -0.39534432689E+03  0.41192382835E+02  0.20982530386E+03  0.44947053861E+03  0.17770000000E+01 0. -1.
         15    1    1    2    0    0  0.39953798232E+03 -0.46603586471E+02 -0.11383626882E+03  0.41804825967E+03  0.17770000000E+01 0.  1.
</event>
<event>
 7    1  0.3474777E-008  0.8791602E+03  0.7546771E-02  0.8808802E-01
        -11   -1    0    0    0    0  0.00000000000E+00  0.00000000000E+00  0.50000000000E+03  0.50000000000E+03  0.00000000000E+00 0.  1.
         11   -1    0    0    0    0 -0.00000000000E+00 -0.00000000000E+00 -0.50000000000E+03  0.50000000000E+03  0.00000000000E+00 0. -1.
         23    2    1    2    0    0  0.71954269150E+02  0.10438539364E+02 -0.34467875246E+02  0.12083976924E+03  0.90154508779E+02 0.  0.
        -11    1    3    3    0    0  0.60747383282E+00  0.21881421743E+02 -0.42829301011E+02  0.48099009003E+02  0.00000000000E+00 0.  1.
         11    1    3    3    0    0  0.71346795317E+02 -0.11442882379E+02  0.83614257645E+01  0.72740760238E+02  0.00000000000E+00 0. -1.
        -15    1    1    2    0    0 -0.40393693321E+03  0.45242617764E+02 -0.21532617442E+03  0.45997875994E+03  0.17770000000E+01 0. -1.
         15    1    1    2    0    0  0.33198266406E+03 -0.55681157128E+02  0.24979404967E+03  0.41918147082E+03  0.17770000000E+01 0.  1.
</event>
<event>
 7    1  0.3474777E-008  0.8483467E+03  0.7546771E-02  0.8843918E-01
        -11   -1    0    0    0    0  0.00000000000E+00  0.00000000000E+00  0.50000000000E+03  0.50000000000E+03  0.00000000000E+00 0. -1.
         11   -1    0    0    0    0 -0.00000000000E+00 -0.00000000000E+00 -0.50000000000E+03  0.50000000000E+03  0.00000000000E+00 0.  1.
         23    2    1    2    0    0  0.13342761685E+02  0.10163927501E+03  0.64657559358E+02  0.15165329475E+03  0.91156734876E+02 0.  0.
        -11    1    3    3    0    0 -0.36348847073E+02  0.26182571731E+02  0.34020935051E+02  0.56251131257E+02  0.00000000000E+00 0.  1.
         11    1    3    3    0    0  0.49691608758E+02  0.75456703275E+02  0.30636624307E+02  0.95402163493E+02  0.00000000000E+00 0. -1.
        -15    1    1    2    0    0 -0.15736394670E+03  0.32197169317E+03 -0.15738603607E+03  0.39141117127E+03  0.17770000000E+01 0. -1.
         15    1    1    2    0    0  0.14402118501E+03 -0.42361096817E+03  0.92728476710E+02  0.45693553398E+03  0.17770000000E+01 0.  1.
</event>
<event>
 7    1  0.3474777E-008  0.1000000E+04  0.7546771E-02  0.8684367E-01
        -11   -1    0    0    0    0  0.00000000000E+00  0.00000000000E+00  0.50000000000E+03  0.50000000000E+03  0.00000000000E+00 0. -1.
         11   -1    0    0    0    0 -0.00000000000E+00 -0.00000000000E+00 -0.50000000000E+03  0.50000000000E+03  0.00000000000E+00 0.  1.
         23    2    1    2    0    0  0.78672139517E+02 -0.11823908132E+03  0.23505516285E+03  0.28887579436E+03  0.89601948077E+02 0.  0.
        -11    1    3    3    0    0  0.88801739948E+02 -0.57367076061E+02  0.15892734458E+03  0.19087857734E+03  0.00000000000E+00 0. -1.
         11    1    3    3    0    0 -0.10129600431E+02 -0.60872005257E+02  0.76127818267E+02  0.97997217016E+02  0.00000000000E+00 0.  1.
        -15    1    1    2    0    0  0.95691420144E+02 -0.14073823982E+03  0.14195202728E+03  0.22162498915E+03  0.17770000000E+01 0. -1.
         15    1    1    2    0    0 -0.17436355966E+03  0.25897732114E+03 -0.37700719013E+03  0.48949921649E+03  0.17770000000E+01 0.  1.
</event>
<event>
 7    1  0.3474777E-008  0.8871360E+03  0.7546771E-02  0.8799958E-01
        -11   -1    0    0    0    0  0.00000000000E+00  0.00000000000E+00  0.50000000000E+03  0.50000000000E+03  0.00000000000E+00 0. -1.
         11   -1    0    0    0    0 -0.00000000000E+00 -0.00000000000E+00 -0.50000000000E+03  0.50000000000E+03  0.00000000000E+00 0.  1.
         23    2    1    2    0    0  0.11065614756E+01 -0.43325093757E+02  0.47745144809E+02  0.11286397640E+03  0.92630395061E+02 0.  0.
        -11    1    3    3    0    0 -0.63093796294E+01  0.26049379457E+02  0.31252259946E+02  0.41171375896E+02  0.00000000000E+00 0.  1.
         11    1    3    3    0    0  0.74159411050E+01 -0.69374473215E+02  0.16492884863E+02  0.71692600506E+02  0.00000000000E+00 0. -1.
        -15    1    1    2    0    0  0.39175160513E+03  0.19619432318E+03 -0.13127991859E+03  0.45738288919E+03  0.17770000000E+01 0. -1.
         15    1    1    2    0    0 -0.39285816661E+03 -0.15286922942E+03  0.83534773778E+02  0.42975313441E+03  0.17770000000E+01 0.  1.
</event>
<event>
 7    1  0.3474777E-008  0.8624544E+03  0.7546771E-02  0.8827649E-01
        -11   -1    0    0    0    0  0.00000000000E+00  0.00000000000E+00  0.50000000000E+03  0.50000000000E+03  0.00000000000E+00 0. -1.
         11   -1    0    0    0    0 -0.00000000000E+00 -0.00000000000E+00 -0.50000000000E+03  0.50000000000E+03  0.00000000000E+00 0.  1.
         23    2    1    2    0    0  0.18138915575E+02 -0.70820034888E+02  0.71327040630E+02  0.13754562289E+03  0.92123580322E+02 0.  0.
        -11    1    3    3    0    0 -0.29231730959E+02  0.34544927517E+01  0.20035870414E+02  0.35607073992E+02  0.00000000000E+00 0.  1.
         11    1    3    3    0    0  0.47370646535E+02 -0.74274527640E+02  0.51291170216E+02  0.10193854890E+03  0.00000000000E+00 0. -1.
        -15    1    1    2    0    0  0.15554209213E+03  0.27036253339E+03  0.28238639139E+03  0.42075464781E+03  0.17770000000E+01 0. -1.
         15    1    1    2    0    0 -0.17368100771E+03 -0.19954249850E+03 -0.35371343202E+03  0.44169972930E+03  0.17770000000E+01 0.  1.
</event>
<event>
 7    1  0.3474777E-008  0.7079998E+03  0.7546771E-02  0.9026389E-01
        -11   -1    0    0    0    0  0.00000000000E+00  0.00000000000E+00  0.50000000000E+03  0.50000000000E+03  0.00000000000E+00 0.  1.
         11   -1    0    0    0    0 -0.00000000000E+00 -0.00000000000E+00 -0.50000000000E+03  0.50000000000E+03  0.00000000000E+00 0. -1.
         23    2    1    2    0    0 -0.22798422499E+02  0.82843617843E+02 -0.26379110170E+03  0.29200021985E+03  0.91079909796E+02 0.  0.
        -11    1    3    3    0    0 -0.20991410078E+02  0.96942908079E+02 -0.25842428158E+03  0.27680620664E+03  0.00000000000E+00 0. -1.
         11    1    3    3    0    0 -0.18070124218E+01 -0.14099290236E+02 -0.53668201161E+01  0.15194013203E+02  0.00000000000E+00 0.  1.
        -15    1    1    2    0    0  0.10464996513E+03 -0.33444082474E+03  0.24554561017E+02  0.35129526704E+03  0.17770000000E+01 0.  1.
         15    1    1    2    0    0 -0.81851542626E+02  0.25159720689E+03  0.23923654068E+03  0.35670451311E+03  0.17770000000E+01 0. -1.
</event>
<event>
 7    1  0.3474777E-008  0.7549625E+03  0.7546771E-02  0.8960717E-01
        -11   -1    0    0    0    0  0.00000000000E+00  0.00000000000E+00  0.50000000000E+03  0.50000000000E+03  0.00000000000E+00 0. -1.
         11   -1    0    0    0    0 -0.00000000000E+00 -0.00000000000E+00 -0.50000000000E+03  0.50000000000E+03  0.00000000000E+00 0.  1.
         23    2    1    2    0    0  0.85300047617E+02  0.50063572667E+02 -0.20374672855E+03  0.24503752000E+03  0.93531798781E+02 0.  0.
        -11    1    3    3    0    0 -0.14446016135E+02  0.30840215825E+02 -0.42504285552E+02  0.54464856417E+02  0.00000000000E+00 0.  1.
         11    1    3    3    0    0  0.99746063753E+02  0.19223356842E+02 -0.16124244300E+03  0.19057266358E+03  0.00000000000E+00 0. -1.
        -15    1    1    2    0    0  0.22413350982E+03  0.21114714721E+03  0.16178542157E+03  0.34784569619E+03  0.17770000000E+01 0.  1.
         15    1    1    2    0    0 -0.30943355743E+03 -0.26121071988E+03  0.41961306978E+02  0.40711678381E+03  0.17770000000E+01 0. -1.
</event>
<event>
 7    1  0.3474777E-008  0.1000000E+04  0.7546771E-02  0.8684367E-01
        -11   -1    0    0    0    0  0.00000000000E+00  0.00000000000E+00  0.50000000000E+03  0.50000000000E+03  0.00000000000E+00 0.  1.
         11   -1    0    0    0    0 -0.00000000000E+00 -0.00000000000E+00 -0.50000000000E+03  0.50000000000E+03  0.00000000000E+00 0. -1.
         23    2    1    2    0    0 -0.12052449564E+03  0.14537876627E+03  0.16852850858E+03  0.26940475343E+03  0.92281760040E+02 0.  0.
        -11    1    3    3    0    0 -0.54550419215E+02  0.63830753946E+01  0.31158321407E+02  0.63145331426E+02  0.00000000000E+00 0.  1.
         11    1    3    3    0    0 -0.65974076424E+02  0.13899569088E+03  0.13737018717E+03  0.20625942201E+03  0.00000000000E+00 0. -1.
        -15    1    1    2    0    0  0.19130796762E+02  0.17722843205E+03  0.17410636699E+03  0.24918284304E+03  0.17770000000E+01 0.  1.
         15    1    1    2    0    0  0.10139369888E+03 -0.32260719832E+03 -0.34263487557E+03  0.48141240352E+03  0.17770000000E+01 0. -1.
</event>
<event>
 7    1  0.3474777E-008  0.7572605E+03  0.7546771E-02  0.8957633E-01
        -11   -1    0    0    0    0  0.00000000000E+00  0.00000000000E+00  0.50000000000E+03  0.50000000000E+03  0.00000000000E+00 0.  1.
         11   -1    0    0    0    0 -0.00000000000E+00 -0.00000000000E+00 -0.50000000000E+03  0.50000000000E+03  0.00000000000E+00 0. -1.
         23    2    1    2    0    0 -0.11519634086E+03  0.94574650151E+02 -0.16881431650E+03  0.24273952632E+03  0.90607079120E+02 0.  0.
        -11    1    3    3    0    0 -0.97160778575E+01  0.27488875177E+02 -0.90849155039E+02  0.95412836656E+02  0.00000000000E+00 0.  1.
         11    1    3    3    0    0 -0.10548026301E+03  0.67085774974E+02 -0.77965161456E+02  0.14732668967E+03  0.00000000000E+00 0. -1.
        -15    1    1    2    0    0 -0.33454905952E+02 -0.38894250428E+03  0.17409046292E+03  0.42744139876E+03  0.17770000000E+01 0.  1.
         15    1    1    2    0    0  0.14865124681E+03  0.29436785413E+03 -0.52761464201E+01  0.32981907491E+03  0.17770000000E+01 0. -1.
</event>
<event>
 7    1  0.3474777E-008  0.1000000E+04  0.7546771E-02  0.8684367E-01
        -11   -1    0    0    0    0  0.00000000000E+00  0.00000000000E+00  0.50000000000E+03  0.50000000000E+03  0.00000000000E+00 0.  1.
         11   -1    0    0    0    0 -0.00000000000E+00 -0.00000000000E+00 -0.50000000000E+03  0.50000000000E+03  0.00000000000E+00 0. -1.
         23    2    1    2    0    0  0.74900277973E+02  0.11185093490E+03  0.35627469425E+02  0.16579532223E+03  0.89989382802E+02 0.  0.
        -11    1    3    3    0    0  0.42607626325E+02  0.10741430417E+02 -0.17258279886E+02  0.47208435401E+02  0.00000000000E+00 0. -1.
         11    1    3    3    0    0  0.32292651648E+02  0.10110950449E+03  0.52885749311E+02  0.11858688683E+03  0.00000000000E+00 0.  1.
        -15    1    1    2    0    0  0.37726949612E+02  0.30941273482E+03 -0.19756266425E+03  0.36904434318E+03  0.17770000000E+01 0.  1.
         15    1    1    2    0    0 -0.11262722759E+03 -0.42126366972E+03  0.16193519483E+03  0.46516033459E+03  0.17770000000E+01 0. -1.
</event>
<event>
 7    1  0.3474777E-008  0.6339787E+03  0.7546771E-02  0.9141627E-01
        -11   -1    0    0    0    0  0.00000000000E+00  0.00000000000E+00  0.50000000000E+03  0.50000000000E+03  0.00000000000E+00 0. -1.
         11   -1    0    0    0    0 -0.00000000000E+00 -0.00000000000E+00 -0.50000000000E+03  0.50000000000E+03  0.00000000000E+00 0.  1.
         23    2    1    2    0    0  0.68605841717E+02  0.97459588615E+02 -0.33453967233E+03  0.36602131298E+03  0.88598398756E+02 0.  0.
        -11    1    3    3    0    0  0.39657206020E+02  0.52819977650E+01 -0.17493286225E+03  0.17944943518E+03  0.00000000000E+00 0. -1.
         11    1    3    3    0    0  0.28948635697E+02  0.92177590850E+02 -0.15960681008E+03  0.18657187781E+03  0.00000000000E+00 0.  1.
        -15    1    1    2    0    0  0.15519945594E+03  0.13816660936E+03  0.17635355659E+03  0.27254470774E+03  0.17770000000E+01 0.  1.
         15    1    1    2    0    0 -0.22380529766E+03 -0.23562619797E+03  0.15818611574E+03  0.36143397927E+03  0.17770000000E+01 0. -1.
</event>
<event>
 7    1  0.3474777E-008  0.8457141E+03  0.7546771E-02  0.8846990E-01
        -11   -1    0    0    0    0  0.00000000000E+00  0.00000000000E+00  0.50000000000E+03  0.50000000000E+03  0.00000000000E+00 0.  1.
         11   -1    0    0    0    0 -0.00000000000E+00 -0.00000000000E+00 -0.50000000000E+03  0.50000000000E+03  0.00000000000E+00 0. -1.
         23    2    1    2    0    0 -0.36229914849E+02 -0.45901994973E+02 -0.10861484924E+03  0.15428593129E+03  0.92668027091E+02 0.  0.
        -11    1    3    3    0    0 -0.51450962310E+02  0.93107038129E+01 -0.50466883312E+02  0.72669092738E+02  0.00000000000E+00 0.  1.
         11    1    3    3    0    0  0.15221047461E+02 -0.55212698786E+02 -0.58147965928E+02  0.81616838548E+02  0.00000000000E+00 0. -1.
        -15    1    1    2    0    0 -0.20073266354E+03 -0.32560759016E+03  0.13145267649E+03  0.40447109769E+03  0.17770000000E+01 0. -1.
         15    1    1    2    0    0  0.23696257839E+03  0.37150958513E+03 -0.22837827252E+02  0.44124297103E+03  0.17770000000E+01 0.  1.
</event>
<event>
 7    1  0.3474777E-008  0.8800380E+03  0.7546771E-02  0.8807824E-01
        -11   -1    0    0    0    0  0.00000000000E+00  0.00000000000E+00  0.50000000000E+03  0.50000000000E+03  0.00000000000E+00 0.  1.
         11   -1    0    0    0    0 -0.00000000000E+00 -0.00000000000E+00 -0.50000000000E+03  0.50000000000E+03  0.00000000000E+00 0. -1.
         23    2    1    2    0    0  0.53005288502E+02 -0.34249434204E+02  0.40744852610E+02  0.11996200705E+03  0.93531576326E+02 0.  0.
        -11    1    3    3    0    0  0.42716186531E+02 -0.56204185081E+01  0.67080288795E+02  0.79724694047E+02  0.00000000000E+00 0.  1.
         11    1    3    3    0    0  0.10289101971E+02 -0.28629015696E+02 -0.26335436185E+02  0.40237313008E+02  0.00000000000E+00 0. -1.
        -15    1    1    2    0    0 -0.33359207881E+03 -0.24720530431E+03 -0.18855225142E+03  0.45601452473E+03  0.17770000000E+01 0. -1.
         15    1    1    2    0    0  0.28058679031E+03  0.28145473851E+03  0.14780739881E+03  0.42402346821E+03  0.17770000000E+01 0.  1.
</event>
<event>
 7    1  0.3474777E-008  0.1000000E+04  0.7546771E-02  0.8684367E-01
        -11   -1    0    0    0    0  0.00000000000E+00  0.00000000000E+00  0.50000000000E+03  0.50000000000E+03  0.00000000000E+00 0. -1.
         11   -1    0    0    0    0 -0.00000000000E+00 -0.00000000000E+00 -0.50000000000E+03  0.50000000000E+03  0.00000000000E+00 0.  1.
         23    2    1    2    0    0 -0.22877570129E+02  0.10527749634E+03 -0.44240939048E+02  0.14769158501E+03  0.90822954951E+02 0.  0.
        -11    1    3    3    0    0 -0.62451358351E+01  0.10267236452E+03 -0.64452690692E+02  0.12138684235E+03  0.00000000000E+00 0.  1.
         11    1    3    3    0    0 -0.16632434294E+02  0.26051318198E+01  0.20211751644E+02  0.26304742669E+02  0.00000000000E+00 0. -1.
        -15    1    1    2    0    0  0.34613145762E+02 -0.47749475849E+03  0.23963324453E+02  0.47935030291E+03  0.17770000000E+01 0. -1.
         15    1    1    2    0    0 -0.11735575632E+02  0.37221726216E+03  0.20277614595E+02  0.37295811208E+03  0.17770000000E+01 0.  1.
</event>
<event>
 7    1  0.3474777E-008  0.7138914E+03  0.7546771E-02  0.9017860E-01
        -11   -1    0    0    0    0  0.00000000000E+00  0.00000000000E+00  0.50000000000E+03  0.50000000000E+03  0.00000000000E+00 0. -1.
         11   -1    0    0    0    0 -0.00000000000E+00 -0.00000000000E+00 -0.50000000000E+03  0.50000000000E+03  0.00000000000E+00 0.  1.
         23    2    1    2    0    0 -0.54322599685E+02 -0.21907998800E+03 -0.15001368889E+03  0.28610859541E+03  0.91689887835E+02 0.  0.
        -11    1    3    3    0    0 -0.51100693459E+02 -0.10894346813E+03 -0.12421875283E+03  0.17294582584E+03  0.00000000000E+00 0.  1.
         11    1    3    3    0    0 -0.32219062265E+01 -0.11013651987E+03 -0.25794936054E+02  0.11316276957E+03  0.00000000000E+00 0. -1.
        -15    1    1    2    0    0  0.23323070894E+03 -0.67185271384E+02  0.26301959567E+03  0.35790067018E+03  0.17770000000E+01 0. -1.
         15    1    1    2    0    0 -0.17890810925E+03  0.28626525939E+03 -0.11300590679E+03  0.35599073441E+03  0.17770000000E+01 0.  1.
</event>
<event>
 7    1  0.3474777E-008  0.1000000E+04  0.7546771E-02  0.8684367E-01
        -11   -1    0    0    0    0  0.00000000000E+00  0.00000000000E+00  0.50000000000E+03  0.50000000000E+03  0.00000000000E+00 0. -1.
         11   -1    0    0    0    0 -0.00000000000E+00 -0.00000000000E+00 -0.50000000000E+03  0.50000000000E+03  0.00000000000E+00 0.  1.
         23    2    1    2    0    0 -0.19940345869E+03 -0.58223751867E+02 -0.23655933781E+03  0.32669797817E+03  0.87289770371E+02 0.  0.
        -11    1    3    3    0    0 -0.60013341315E+01  0.16728757091E+02 -0.21830384507E+02  0.28150186729E+02  0.00000000000E+00 0. -1.
         11    1    3    3    0    0 -0.19340212456E+03 -0.74952508959E+02 -0.21472895331E+03  0.29854779144E+03  0.00000000000E+00 0.  1.
        -15    1    1    2    0    0  0.36102003758E+03 -0.10995684665E+03  0.22582089393E+03  0.43980019273E+03  0.17770000000E+01 0. -1.
         15    1    1    2    0    0 -0.16161657889E+03  0.16818059851E+03  0.10738443886E+02  0.23350182910E+03  0.17770000000E+01 0.  1.
</event>
<event>
 7    1  0.3474777E-008  0.6284604E+03  0.7546771E-02  0.9150878E-01
        -11   -1    0    0    0    0  0.00000000000E+00  0.00000000000E+00  0.50000000000E+03  0.50000000000E+03  0.00000000000E+00 0.  1.
         11   -1    0    0    0    0 -0.00000000000E+00 -0.00000000000E+00 -0.50000000000E+03  0.50000000000E+03  0.00000000000E+00 0. -1.
         23    2    1    2    0    0  0.11232960574E+03  0.83273614126E+02  0.33174116467E+03  0.37153955230E+03  0.91853162417E+02 0.  0.
        -11    1    3    3    0    0  0.11330333557E+03  0.55797709970E+02  0.19690242159E+03  0.23392647117E+03  0.00000000000E+00 0.  1.
         11    1    3    3    0    0 -0.97372982856E+00  0.27475904156E+02  0.13483874309E+03  0.13761308112E+03  0.00000000000E+00 0. -1.
        -15    1    1    2    0    0 -0.19174028246E+03  0.14558939830E+03 -0.29918862931E+03  0.38402812717E+03  0.17770000000E+01 0.  1.
         15    1    1    2    0    0  0.79410676724E+02 -0.22886301243E+03 -0.32552535364E+02  0.24443232054E+03  0.17770000000E+01 0. -1.
</event>
<event>
 7    1  0.3474777E-008  0.1000000E+04  0.7546771E-02  0.8684367E-01
        -11   -1    0    0    0    0  0.00000000000E+00  0.00000000000E+00  0.50000000000E+03  0.50000000000E+03  0.00000000000E+00 0. -1.
         11   -1    0    0    0    0 -0.00000000000E+00 -0.00000000000E+00 -0.50000000000E+03  0.50000000000E+03  0.00000000000E+00 0.  1.
         23    2    1    2    0    0  0.14834266813E+03  0.61129339640E+02  0.28093769969E+03  0.33884409011E+03  0.10073223389E+03 0.  0.
        -11    1    3    3    0    0  0.85850360076E+02  0.69288006024E+02  0.23874272113E+03  0.26300037832E+03  0.00000000000E+00 0.  1.
         11    1    3    3    0    0  0.62492308054E+02 -0.81586663840E+01  0.42194978563E+02  0.75843711796E+02  0.00000000000E+00 0. -1.
        -15    1    1    2    0    0  0.11839354039E+03  0.42888376620E+02  0.11634870668E+03  0.17145443281E+03  0.17770000000E+01 0. -1.
         15    1    1    2    0    0 -0.26673620852E+03 -0.10401771626E+03 -0.39728640637E+03  0.48970147707E+03  0.17770000000E+01 0.  1.
</event>
<event>
 7    1  0.3474777E-008  0.1000000E+04  0.7546771E-02  0.8684367E-01
        -11   -1    0    0    0    0  0.00000000000E+00  0.00000000000E+00  0.50000000000E+03  0.50000000000E+03  0.00000000000E+00 0.  1.
         11   -1    0    0    0    0 -0.00000000000E+00 -0.00000000000E+00 -0.50000000000E+03  0.50000000000E+03  0.00000000000E+00 0. -1.
         23    2    1    2    0    0  0.44930970097E+02 -0.14305316015E+03  0.14167560626E+03  0.22663903988E+03  0.93863082659E+02 0.  0.
        -11    1    3    3    0    0  0.44444879371E+02 -0.15673808621E+03  0.13396627576E+03  0.21092448414E+03  0.00000000000E+00 0.  1.
         11    1    3    3    0    0  0.48609072617E+00  0.13684926055E+02  0.77093305025E+01  0.15714555740E+02  0.00000000000E+00 0. -1.
        -15    1    1    2    0    0  0.17336961214E+03 -0.22095164224E+03  0.83333896983E+02  0.29295792656E+03  0.17770000000E+01 0.  1.
         15    1    1    2    0    0 -0.21830058224E+03  0.36400480239E+03 -0.22500950325E+03  0.48040303355E+03  0.17770000000E+01 0. -1.
</event>
<event>
 7    1  0.3474777E-008  0.1000000E+04  0.7546771E-02  0.8684367E-01
        -11   -1    0    0    0    0  0.00000000000E+00  0.00000000000E+00  0.50000000000E+03  0.50000000000E+03  0.00000000000E+00 0.  1.
         11   -1    0    0    0    0 -0.00000000000E+00 -0.00000000000E+00 -0.50000000000E+03  0.50000000000E+03  0.00000000000E+00 0. -1.
         23    2    1    2    0    0 -0.68212221822E+02  0.46673430258E+01 -0.13579484734E+03  0.17658646764E+03  0.89821204034E+02 0.  0.
        -11    1    3    3    0    0 -0.35575489503E+01  0.36790827870E+02 -0.26033218544E+02  0.45210061244E+02  0.00000000000E+00 0.  1.
         11    1    3    3    0    0 -0.64654672871E+02 -0.32123484845E+02 -0.10976162879E+03  0.13137640640E+03  0.00000000000E+00 0. -1.
        -15    1    1    2    0    0 -0.19374388585E+03  0.10591071397E+03 -0.25679053307E+03  0.33867138681E+03  0.17770000000E+01 0. -1.
         15    1    1    2    0    0  0.26195610767E+03 -0.11057805700E+03  0.39258538041E+03  0.48474214555E+03  0.17770000000E+01 0.  1.
</event>
<event>
 7    1  0.3474777E-008  0.1000000E+04  0.7546771E-02  0.8684367E-01
        -11   -1    0    0    0    0  0.00000000000E+00  0.00000000000E+00  0.50000000000E+03  0.50000000000E+03  0.00000000000E+00 0.  1.
         11   -1    0    0    0    0 -0.00000000000E+00 -0.00000000000E+00 -0.50000000000E+03  0.50000000000E+03  0.00000000000E+00 0. -1.
         23    2    1    2    0    0  0.53550049169E+01  0.48428793841E+02  0.11959250211E+02  0.10301106423E+03  0.89967947278E+02 0.  0.
        -11    1    3    3    0    0 -0.38512658422E+02  0.88733975109E+01 -0.86388759259E+01  0.40454817011E+02  0.00000000000E+00 0.  1.
         11    1    3    3    0    0  0.43867663339E+02  0.39555396330E+02  0.20598126137E+02  0.62556247218E+02  0.00000000000E+00 0. -1.
        -15    1    1    2    0    0  0.21975294385E+03 -0.39281186877E+03  0.11836499585E+03  0.46540944398E+03  0.17770000000E+01 0.  1.
         15    1    1    2    0    0 -0.22510794876E+03  0.34438307493E+03 -0.13032424606E+03  0.43157949179E+03  0.17770000000E+01 0. -1.
</event>
<event>
 7    1  0.3474777E-008  0.8418379E+03  0.7546771E-02  0.8851536E-01
        -11   -1    0    0    0    0  0.00000000000E+00  0.00000000000E+00  0.50000000000E+03  0.50000000000E+03  0.00000000000E+00 0.  1.
         11   -1    0    0    0    0 -0.00000000000E+00 -0.00000000000E+00 -0.50000000000E+03  0.50000000000E+03  0.00000000000E+00 0. -1.
         23    2    1    2    0    0  0.66865648677E+02 -0.13973503137E+02  0.11245156722E+03  0.15816208391E+03  0.87770245834E+02 0.  0.
        -11    1    3    3    0    0  0.85097720427E+02  0.45062692722E+01  0.84304182498E+02  0.11987127959E+03  0.00000000000E+00 0. -1.
         11    1    3    3    0    0 -0.18232071750E+02 -0.18479772409E+02  0.28147384723E+02  0.38290804318E+02  0.00000000000E+00 0.  1.
        -15    1    1    2    0    0  0.22838005635E+03  0.14142433789E+03 -0.35059482621E+03  0.44167655970E+03  0.17770000000E+01 0. -1.
         15    1    1    2    0    0 -0.29524570503E+03 -0.12745083475E+03  0.23814325899E+03  0.40016135639E+03  0.17770000000E+01 0.  1.
</event>
<event>
 7    1  0.3474777E-008  0.8351811E+03  0.7546771E-02  0.8859402E-01
        -11   -1    0    0    0    0  0.00000000000E+00  0.00000000000E+00  0.50000000000E+03  0.50000000000E+03  0.00000000000E+00 0.  1.
         11   -1    0    0    0    0 -0.00000000000E+00 -0.00000000000E+00 -0.50000000000E+03  0.50000000000E+03  0.00000000000E+00 0. -1.
         23    2    1    2    0    0  0.93594972076E+02 -0.92104077376E+02 -0.39230117667E+02  0.16481886229E+03  0.91559135911E+02 0.  0.
        -11    1    3    3    0    0  0.39360796982E+02  0.82802986913E+01 -0.30326505262E+02  0.50373927849E+02  0.00000000000E+00 0. -1.
         11    1    3    3    0    0  0.54234175094E+02 -0.10038437607E+03 -0.89036124048E+01  0.11444493445E+03  0.00000000000E+00 0.  1.
        -15    1    1    2    0    0 -0.41893847466E+03  0.54309150120E+01 -0.15470446444E+03  0.44662687944E+03  0.17770000000E+01 0.  1.
         15    1    1    2    0    0  0.32534350259E+03  0.86673162364E+02  0.19393458211E+03  0.38855425827E+03  0.17770000000E+01 0. -1.
</event>
<event>
 7    1  0.3474777E-008  0.1000000E+04  0.7546771E-02  0.8684367E-01
        -11   -1    0    0    0    0  0.00000000000E+00  0.00000000000E+00  0.50000000000E+03  0.50000000000E+03  0.00000000000E+00 0.  1.
         11   -1    0    0    0    0 -0.00000000000E+00 -0.00000000000E+00 -0.50000000000E+03  0.50000000000E+03  0.00000000000E+00 0. -1.
         23    2    1    2    0    0  0.44095448716E+02 -0.41232804613E+02 -0.12370286253E+03  0.16537128705E+03  0.91655395954E+02 0.  0.
        -11    1    3    3    0    0 -0.21508650499E+02 -0.93119053236E+01 -0.20617054313E+01  0.23528371306E+02  0.00000000000E+00 0.  1.
         11    1    3    3    0    0  0.65604099215E+02 -0.31920899290E+02 -0.12164115710E+03  0.14184291574E+03  0.00000000000E+00 0. -1.
        -15    1    1    2    0    0  0.10069117498E+01 -0.13625396245E+03  0.44467472255E+03  0.46508593051E+03  0.17770000000E+01 0.  1.
         15    1    1    2    0    0 -0.45102360466E+02  0.17748676706E+03 -0.32097186002E+03  0.36954278244E+03  0.17770000000E+01 0. -1.
</event>
<event>
 7    1  0.3474777E-008  0.1000000E+04  0.7546771E-02  0.8684367E-01
        -11   -1    0    0    0    0  0.00000000000E+00  0.00000000000E+00  0.50000000000E+03  0.50000000000E+03  0.00000000000E+00 0.  1.
         11   -1    0    0    0    0 -0.00000000000E+00 -0.00000000000E+00 -0.50000000000E+03  0.50000000000E+03  0.00000000000E+00 0. -1.
         23    2    1    2    0    0 -0.30353841976E+03  0.29217216807E+01 -0.25182553123E+03  0.40465816026E+03  0.90487677372E+02 0.  0.
        -11    1    3    3    0    0 -0.50944416538E+02 -0.28268111747E+02 -0.23788403402E+02  0.62930976908E+02  0.00000000000E+00 0.  1.
         11    1    3    3    0    0 -0.25259400322E+03  0.31189833427E+02 -0.22803712782E+03  0.34172718335E+03  0.00000000000E+00 0. -1.
        -15    1    1    2    0    0  0.36964527888E+03 -0.11841277463E+03  0.25103262857E+03  0.46225507647E+03  0.17770000000E+01 0.  1.
         15    1    1    2    0    0 -0.66106859116E+02  0.11549105295E+03  0.79290265835E+00  0.13308676327E+03  0.17770000000E+01 0. -1.
</event>
<event>
 7    1  0.3474777E-008  0.5463998E+03  0.7546771E-02  0.9301582E-01
        -11   -1    0    0    0    0  0.00000000000E+00  0.00000000000E+00  0.50000000000E+03  0.50000000000E+03  0.00000000000E+00 0.  1.
         11   -1    0    0    0    0 -0.00000000000E+00 -0.00000000000E+00 -0.50000000000E+03  0.50000000000E+03  0.00000000000E+00 0. -1.
         23    2    1    2    0    0  0.36338584338E+03 -0.23541484873E+03 -0.99612652843E+02  0.45360024399E+03  0.91438933531E+02 0.  0.
        -11    1    3    3    0    0  0.35412965120E+03 -0.22336917383E+03 -0.11265170498E+03  0.43358044734E+03  0.00000000000E+00 0. -1.
         11    1    3    3    0    0  0.92561921860E+01 -0.12045674891E+02  0.13039052135E+02  0.20019796651E+02  0.00000000000E+00 0.  1.
        -15    1    1    2    0    0 -0.38847689932E+03  0.16824567138E+03 -0.37295247646E+00  0.42334879717E+03  0.17770000000E+01 0.  1.
         15    1    1    2    0    0  0.25091055932E+02  0.67169177341E+02  0.99985605319E+02  0.12305095884E+03  0.17770000000E+01 0. -1.
</event>
<event>
 7    1  0.3474777E-008  0.1000000E+04  0.7546771E-02  0.8684367E-01
        -11   -1    0    0    0    0  0.00000000000E+00  0.00000000000E+00  0.50000000000E+03  0.50000000000E+03  0.00000000000E+00 0.  1.
         11   -1    0    0    0    0 -0.00000000000E+00 -0.00000000000E+00 -0.50000000000E+03  0.50000000000E+03  0.00000000000E+00 0. -1.
         23    2    1    2    0    0 -0.32284049607E+02  0.46110210051E+02 -0.34502179985E+02  0.11298495338E+03  0.91688537652E+02 0.  0.
        -11    1    3    3    0    0 -0.45069023319E+02 -0.45548606234E+01 -0.40015347410E+02  0.60441638351E+02  0.00000000000E+00 0. -1.
         11    1    3    3    0    0  0.12784973712E+02  0.50665070674E+02  0.55131674251E+01  0.52543315029E+02  0.00000000000E+00 0.  1.
        -15    1    1    2    0    0  0.73245919666E+02 -0.22877036032E+03  0.40558545634E+03  0.47138472889E+03  0.17770000000E+01 0.  1.
         15    1    1    2    0    0 -0.40961870058E+02  0.18266015027E+03 -0.37108327636E+03  0.41563031773E+03  0.17770000000E+01 0. -1.
</event>
<event>
 7    1  0.3474777E-008  0.1000000E+04  0.7546771E-02  0.8684367E-01
        -11   -1    0    0    0    0  0.00000000000E+00  0.00000000000E+00  0.50000000000E+03  0.50000000000E+03  0.00000000000E+00 0. -1.
         11   -1    0    0    0    0 -0.00000000000E+00 -0.00000000000E+00 -0.50000000000E+03  0.50000000000E+03  0.00000000000E+00 0.  1.
         23    2    1    2    0    0  0.53929264289E+02  0.22351997844E+03 -0.14742001324E+03  0.28850414780E+03  0.92910907231E+02 0.  0.
        -11    1    3    3    0    0  0.22019341110E+02  0.45990217864E-01 -0.96303892034E+01  0.24033266408E+02  0.00000000000E+00 0. -1.
         11    1    3    3    0    0  0.31909923178E+02  0.22347398822E+03 -0.13778962403E+03  0.26447088139E+03  0.00000000000E+00 0.  1.
        -15    1    1    2    0    0  0.14087101907E+03  0.14384813063E+03 -0.10292519627E+03  0.22612758005E+03  0.17770000000E+01 0.  1.
         15    1    1    2    0    0 -0.19480028336E+03 -0.36736810908E+03  0.25034520951E+03  0.48536827216E+03  0.17770000000E+01 0. -1.
</event>
<event>
 7    1  0.3474777E-008  0.1000000E+04  0.7546771E-02  0.8684367E-01
        -11   -1    0    0    0    0  0.00000000000E+00  0.00000000000E+00  0.50000000000E+03  0.50000000000E+03  0.00000000000E+00 0.  1.
         11   -1    0    0    0    0 -0.00000000000E+00 -0.00000000000E+00 -0.50000000000E+03  0.50000000000E+03  0.00000000000E+00 0. -1.
         23    2    1    2    0    0 -0.15021242746E+03  0.52814170459E+02  0.98086694939E+02  0.20768387670E+03  0.90324320929E+02 0.  0.
        -11    1    3    3    0    0 -0.64379580859E+02 -0.23162876390E+02  0.37868539371E+02  0.78200227291E+02  0.00000000000E+00 0. -1.
         11    1    3    3    0    0 -0.85832846604E+02  0.75977046850E+02  0.60218155568E+02  0.12948364941E+03  0.00000000000E+00 0.  1.
        -15    1    1    2    0    0 -0.28180132486E+03  0.10214932238E+03 -0.14117138280E+03  0.33132912309E+03  0.17770000000E+01 0.  1.
         15    1    1    2    0    0  0.43201375232E+03 -0.15496349284E+03  0.43084687859E+02  0.46098700021E+03  0.17770000000E+01 0. -1.
</event>
<event>
 7    1  0.3474777E-008  0.1000000E+04  0.7546771E-02  0.8684367E-01
        -11   -1    0    0    0    0  0.00000000000E+00  0.00000000000E+00  0.50000000000E+03  0.50000000000E+03  0.00000000000E+00 0. -1.
         11   -1    0    0    0    0 -0.00000000000E+00 -0.00000000000E+00 -0.50000000000E+03  0.50000000000E+03  0.00000000000E+00 0.  1.
         23    2    1    2    0    0 -0.10867316354E+03 -0.26630939180E+02  0.33918663445E+03  0.36893855690E+03  0.92460923541E+02 0.  0.
        -11    1    3    3    0    0 -0.21791144717E+02 -0.50499375351E+02  0.12403318920E+03  0.13568077581E+03  0.00000000000E+00 0.  1.
         11    1    3    3    0    0 -0.86882018820E+02  0.23868436171E+02  0.21515344524E+03  0.23325778109E+03  0.00000000000E+00 0. -1.
        -15    1    1    2    0    0  0.12169068526E+03  0.12263542754E+03  0.87389169185E+02  0.19361842781E+03  0.17770000000E+01 0. -1.
         15    1    1    2    0    0 -0.13017521719E+02 -0.96004488365E+02 -0.42657580363E+03  0.43744301530E+03  0.17770000000E+01 0.  1.
</event>
<event>
 7    1  0.3474777E-008  0.1000000E+04  0.7546771E-02  0.8684367E-01
        -11   -1    0    0    0    0  0.00000000000E+00  0.00000000000E+00  0.50000000000E+03  0.50000000000E+03  0.00000000000E+00 0. -1.
         11   -1    0    0    0    0 -0.00000000000E+00 -0.00000000000E+00 -0.50000000000E+03  0.50000000000E+03  0.00000000000E+00 0.  1.
         23    2    1    2    0    0  0.53675553867E+02 -0.14420833530E+02  0.25478019779E+03  0.27690694742E+03  0.93142271924E+02 0.  0.
        -11    1    3    3    0    0  0.34388456842E+02 -0.22674029073E+02  0.29530968066E+02  0.50682892906E+02  0.00000000000E+00 0.  1.
         11    1    3    3    0    0  0.19287097025E+02  0.82531955426E+01  0.22524922972E+03  0.22622405451E+03  0.00000000000E+00 0. -1.
        -15    1    1    2    0    0  0.41354887352E+02  0.66339987584E+02  0.22137345875E+03  0.23477773879E+03  0.17770000000E+01 0. -1.
         15    1    1    2    0    0 -0.95030441219E+02 -0.51919154054E+02 -0.47615365655E+03  0.48831531379E+03  0.17770000000E+01 0.  1.
</event>
<event>
 7    1  0.3474777E-008  0.1000000E+04  0.7546771E-02  0.8684367E-01
        -11   -1    0    0    0    0  0.00000000000E+00  0.00000000000E+00  0.50000000000E+03  0.50000000000E+03  0.00000000000E+00 0.  1.
         11   -1    0    0    0    0 -0.00000000000E+00 -0.00000000000E+00 -0.50000000000E+03  0.50000000000E+03  0.00000000000E+00 0. -1.
         23    2    1    2    0    0  0.48756592950E+02  0.87471108042E+02 -0.25609494780E+03  0.28962999262E+03  0.90953340979E+02 0.  0.
        -11    1    3    3    0    0  0.51360927067E+01 -0.14263532110E+02 -0.81535553957E+02  0.82932950964E+02  0.00000000000E+00 0.  1.
         11    1    3    3    0    0  0.43620500243E+02  0.10173464015E+03 -0.17455939385E+03  0.20669704165E+03  0.00000000000E+00 0. -1.
        -15    1    1    2    0    0 -0.19277948990E+02  0.15958347954E+03 -0.15920002005E+03  0.22624396207E+03  0.17770000000E+01 0. -1.
         15    1    1    2    0    0 -0.29478643960E+02 -0.24705458758E+03  0.41529496786E+03  0.48412604531E+03  0.17770000000E+01 0.  1.
</event>
<event>
 7    1  0.3474777E-008  0.1000000E+04  0.7546771E-02  0.8684367E-01
        -11   -1    0    0    0    0  0.00000000000E+00  0.00000000000E+00  0.50000000000E+03  0.50000000000E+03  0.00000000000E+00 0.  1.
         11   -1    0    0    0    0 -0.00000000000E+00 -0.00000000000E+00 -0.50000000000E+03  0.50000000000E+03  0.00000000000E+00 0. -1.
         23    2    1    2    0    0  0.33637414951E+02 -0.45666750490E+02  0.11967455103E+02  0.10800756875E+03  0.91134445409E+02 0.  0.
        -11    1    3    3    0    0 -0.30927547413E+02 -0.58579099680E+01  0.43063698963E+01  0.31770632979E+02  0.00000000000E+00 0. -1.
         11    1    3    3    0    0  0.64564962364E+02 -0.39808840521E+02  0.76610852063E+01  0.76236935768E+02  0.00000000000E+00 0.  1.
        -15    1    1    2    0    0  0.32811381724E+01 -0.40018662195E+03  0.13297308480E+03  0.42171684490E+03  0.17770000000E+01 0.  1.
         15    1    1    2    0    0 -0.36918553124E+02  0.44585337244E+03 -0.14494053991E+03  0.47027558636E+03  0.17770000000E+01 0. -1.
</event>
<event>
 7    1  0.3474777E-008  0.1000000E+04  0.7546771E-02  0.8684367E-01
        -11   -1    0    0    0    0  0.00000000000E+00  0.00000000000E+00  0.50000000000E+03  0.50000000000E+03  0.00000000000E+00 0.  1.
         11   -1    0    0    0    0 -0.00000000000E+00 -0.00000000000E+00 -0.50000000000E+03  0.50000000000E+03  0.00000000000E+00 0. -1.
         23    2    1    2    0    0  0.13671386395E+03  0.85369865953E+02 -0.36711387700E+03  0.41085629366E+03  0.89730712390E+02 0.  0.
        -11    1    3    3    0    0  0.10860251873E+03  0.91323061397E+02 -0.34936643406E+03  0.37708263533E+03  0.00000000000E+00 0. -1.
         11    1    3    3    0    0  0.28111345226E+02 -0.59531954441E+01 -0.17747442937E+02  0.33773658333E+02  0.00000000000E+00 0.  1.
        -15    1    1    2    0    0 -0.26822782140E+03 -0.11514230532E+03  0.34593926768E+03  0.45263787878E+03  0.17770000000E+01 0.  1.
         15    1    1    2    0    0  0.13151395745E+03  0.29772439368E+02  0.21174609313E+02  0.13650582756E+03  0.17770000000E+01 0. -1.
</event>
<event>
 7    1  0.3474777E-008  0.1000000E+04  0.7546771E-02  0.8684367E-01
        -11   -1    0    0    0    0  0.00000000000E+00  0.00000000000E+00  0.50000000000E+03  0.50000000000E+03  0.00000000000E+00 0.  1.
         11   -1    0    0    0    0 -0.00000000000E+00 -0.00000000000E+00 -0.50000000000E+03  0.50000000000E+03  0.00000000000E+00 0. -1.
         23    2    1    2    0    0 -0.19318192408E+01  0.53769537392E+01 -0.52015866001E+01  0.91938539385E+02  0.91613290324E+02 0.  0.
        -11    1    3    3    0    0 -0.40364682071E+02 -0.20362615349E+02 -0.64380492783E+01  0.45666093998E+02  0.00000000000E+00 0.  1.
         11    1    3    3    0    0  0.38432862830E+02  0.25739569088E+02  0.12364626783E+01  0.46272445387E+02  0.00000000000E+00 0. -1.
        -15    1    1    2    0    0  0.11781258391E+03 -0.44036388516E+03 -0.27731088209E+02  0.45669719428E+03  0.17770000000E+01 0.  1.
         15    1    1    2    0    0 -0.11588076467E+03  0.43498693142E+03  0.32932674809E+02  0.45136426634E+03  0.17770000000E+01 0. -1.
</event>
<event>
 7    1  0.3474777E-008  0.1000000E+04  0.7546771E-02  0.8684367E-01
        -11   -1    0    0    0    0  0.00000000000E+00  0.00000000000E+00  0.50000000000E+03  0.50000000000E+03  0.00000000000E+00 0.  1.
         11   -1    0    0    0    0 -0.00000000000E+00 -0.00000000000E+00 -0.50000000000E+03  0.50000000000E+03  0.00000000000E+00 0. -1.
         23    2    1    2    0    0  0.14151864409E+02 -0.42994355340E+02 -0.32883759065E+02  0.10687930737E+03  0.91066211492E+02 0.  0.
        -11    1    3    3    0    0  0.50192309387E+02 -0.21317490626E+02 -0.17631532731E+01  0.54560168966E+02  0.00000000000E+00 0. -1.
         11    1    3    3    0    0 -0.36040444978E+02 -0.21676864714E+02 -0.31120605792E+02  0.52319138399E+02  0.00000000000E+00 0.  1.
        -15    1    1    2    0    0 -0.35870194225E+02 -0.41028362654E+03  0.12430413552E+03  0.43020227902E+03  0.17770000000E+01 0.  1.
         15    1    1    2    0    0  0.21718329816E+02  0.45327798188E+03 -0.91420376454E+02  0.46291841361E+03  0.17770000000E+01 0. -1.
</event>
<event>
 7    1  0.3474777E-008  0.5718769E+03  0.7546771E-02  0.9251945E-01
        -11   -1    0    0    0    0  0.00000000000E+00  0.00000000000E+00  0.50000000000E+03  0.50000000000E+03  0.00000000000E+00 0.  1.
         11   -1    0    0    0    0 -0.00000000000E+00 -0.00000000000E+00 -0.50000000000E+03  0.50000000000E+03  0.00000000000E+00 0. -1.
         23    2    1    2    0    0  0.36451195415E+02 -0.21972774783E+03  0.35458390502E+03  0.42812308026E+03  0.89166436184E+02 0.  0.
        -11    1    3    3    0    0  0.56873755667E+02 -0.19261321122E+03  0.26632809252E+03  0.33356427579E+03  0.00000000000E+00 0.  1.
         11    1    3    3    0    0 -0.20422560252E+02 -0.27114536608E+02  0.88255812499E+02  0.94558804469E+02  0.00000000000E+00 0. -1.
        -15    1    1    2    0    0  0.51411226309E+01 -0.10714896915E+03 -0.14857633871E+03  0.18326325023E+03  0.17770000000E+01 0.  1.
         15    1    1    2    0    0 -0.41592318046E+02  0.32687671698E+03 -0.20600756631E+03  0.38861366951E+03  0.17770000000E+01 0. -1.
</event>
<event>
 7    1  0.3474777E-008  0.8288021E+03  0.7546771E-02  0.8867013E-01
        -11   -1    0    0    0    0  0.00000000000E+00  0.00000000000E+00  0.50000000000E+03  0.50000000000E+03  0.00000000000E+00 0.  1.
         11   -1    0    0    0    0 -0.00000000000E+00 -0.00000000000E+00 -0.50000000000E+03  0.50000000000E+03  0.00000000000E+00 0. -1.
         23    2    1    2    0    0  0.13940039132E+03 -0.36106982142E+02 -0.14569575897E+02  0.17119786775E+03  0.91434425248E+02 0.  0.
        -11    1    3    3    0    0  0.11514105390E+03 -0.56336243761E+02  0.13562017855E+02  0.12889981762E+03  0.00000000000E+00 0.  1.
         11    1    3    3    0    0  0.24259337419E+02  0.20229261619E+02 -0.28131593752E+02  0.42298050128E+02  0.00000000000E+00 0. -1.
        -15    1    1    2    0    0 -0.96359336038E+02 -0.37583690496E+03  0.11094491557E+03  0.40354731172E+03  0.17770000000E+01 0.  1.
         15    1    1    2    0    0 -0.43041055279E+02  0.41194388710E+03 -0.96375339677E+02  0.42525482054E+03  0.17770000000E+01 0. -1.
</event>
<event>
 7    1  0.3474777E-008  0.8610574E+03  0.7546771E-02  0.8829246E-01
        -11   -1    0    0    0    0  0.00000000000E+00  0.00000000000E+00  0.50000000000E+03  0.50000000000E+03  0.00000000000E+00 0.  1.
         11   -1    0    0    0    0 -0.00000000000E+00 -0.00000000000E+00 -0.50000000000E+03  0.50000000000E+03  0.00000000000E+00 0. -1.
         23    2    1    2    0    0 -0.96653609446E+02  0.42202151637E+02  0.12163261474E+02  0.13894259674E+03  0.89633467177E+02 0.  0.
        -11    1    3    3    0    0 -0.63434022935E+01  0.11665757451E+02  0.37931229364E+02  0.40188391491E+02  0.00000000000E+00 0.  1.
         11    1    3    3    0    0 -0.90310207152E+02  0.30536394186E+02 -0.25767967890E+02  0.98754205252E+02  0.00000000000E+00 0. -1.
        -15    1    1    2    0    0 -0.13325019164E+03 -0.13094877237E+03  0.36527692721E+03  0.41028476189E+03  0.17770000000E+01 0.  1.
         15    1    1    2    0    0  0.22990380108E+03  0.88746620732E+02 -0.37744018868E+03  0.45077264137E+03  0.17770000000E+01 0. -1.
</event>
<event>
 7    1  0.3474777E-008  0.8884105E+03  0.7546771E-02  0.8798554E-01
        -11   -1    0    0    0    0  0.00000000000E+00  0.00000000000E+00  0.50000000000E+03  0.50000000000E+03  0.00000000000E+00 0.  1.
         11   -1    0    0    0    0 -0.00000000000E+00 -0.00000000000E+00 -0.50000000000E+03  0.50000000000E+03  0.00000000000E+00 0. -1.
         23    2    1    2    0    0  0.57251356072E+02  0.23428759755E+01 -0.36464763645E+02  0.11158951610E+03  0.88540015106E+02 0.  0.
        -11    1    3    3    0    0 -0.68405858795E+01  0.25036223489E+02  0.11494945393E+02  0.28385557443E+02  0.00000000000E+00 0.  1.
         11    1    3    3    0    0  0.64091941951E+02 -0.22693347513E+02 -0.47959709038E+02  0.83203958653E+02  0.00000000000E+00 0. -1.
        -15    1    1    2    0    0 -0.24136603338E+03 -0.26392692855E+03 -0.26789709512E+03  0.44686351046E+03  0.17770000000E+01 0. -1.
         15    1    1    2    0    0  0.18411467731E+03  0.26158405257E+03  0.30436185876E+03  0.44154697344E+03  0.17770000000E+01 0.  1.
</event>
<event>
 7    1  0.3474777E-008  0.7367296E+03  0.7546771E-02  0.8985600E-01
        -11   -1    0    0    0    0  0.00000000000E+00  0.00000000000E+00  0.50000000000E+03  0.50000000000E+03  0.00000000000E+00 0.  1.
         11   -1    0    0    0    0 -0.00000000000E+00 -0.00000000000E+00 -0.50000000000E+03  0.50000000000E+03  0.00000000000E+00 0. -1.
         23    2    1    2    0    0  0.26338145860E+02  0.90156842260E+02  0.22716106817E+03  0.26327040567E+03  0.94271954881E+02 0.  0.
        -11    1    3    3    0    0  0.27632434829E+02 -0.84097512200E+01  0.24373298900E+02  0.37793293975E+02  0.00000000000E+00 0.  1.
         11    1    3    3    0    0 -0.12942889688E+01  0.98566593480E+02  0.20278776927E+03  0.22547711170E+03  0.00000000000E+00 0. -1.
        -15    1    1    2    0    0  0.16737189715E+03 -0.14657346783E+03  0.17746075756E+03  0.28459200908E+03  0.17770000000E+01 0.  1.
         15    1    1    2    0    0 -0.19371004301E+03  0.56416625569E+02 -0.40462182573E+03  0.45213758525E+03  0.17770000000E+01 0. -1.
</event>
<event>
 7    1  0.3474777E-008  0.8224934E+03  0.7546771E-02  0.8874611E-01
        -11   -1    0    0    0    0  0.00000000000E+00  0.00000000000E+00  0.50000000000E+03  0.50000000000E+03  0.00000000000E+00 0.  1.
         11   -1    0    0    0    0 -0.00000000000E+00 -0.00000000000E+00 -0.50000000000E+03  0.50000000000E+03  0.00000000000E+00 0. -1.
         23    2    1    2    0    0  0.13064450871E+03  0.75815289689E+02 -0.17620413004E+02  0.17750660736E+03  0.91554196494E+02 0.  0.
        -11    1    3    3    0    0  0.89070246152E+02  0.56219225679E+01  0.13357851196E+02  0.90241603219E+02  0.00000000000E+00 0.  1.
         11    1    3    3    0    0  0.41574262558E+02  0.70193367121E+02 -0.30978264200E+02  0.87265004142E+02  0.00000000000E+00 0. -1.
        -15    1    1    2    0    0  0.11997588865E+03 -0.34023422458E+03 -0.18518734269E+03  0.40552564784E+03  0.17770000000E+01 0.  1.
         15    1    1    2    0    0 -0.25062039736E+03  0.26441893490E+03  0.20280775569E+03  0.41696774480E+03  0.17770000000E+01 0. -1.
</event>
<event>
 7    1  0.3474777E-008  0.1000000E+04  0.7546771E-02  0.8684367E-01
        -11   -1    0    0    0    0  0.00000000000E+00  0.00000000000E+00  0.50000000000E+03  0.50000000000E+03  0.00000000000E+00 0. -1.
         11   -1    0    0    0    0 -0.00000000000E+00 -0.00000000000E+00 -0.50000000000E+03  0.50000000000E+03  0.00000000000E+00 0. -1.
         23    2    1    2    0    0  0.10801747546E+03 -0.24716525322E+03  0.98600069536E+02  0.30121147580E+03  0.90818181188E+02 0.  0.
        -11    1    3    3    0    0  0.11124202175E+02  0.57510715795E+01 -0.11722710149E+01  0.12577635615E+02  0.00000000000E+00 0. -1.
         11    1    3    3    0    0  0.96893273287E+02 -0.25291632480E+03  0.99772340551E+02  0.28863384018E+03  0.00000000000E+00 0. -1.
        -15    1    1    2    0    0 -0.39279679130E+02 -0.21181434532E+03 -0.93009526451E+02  0.23465323312E+03  0.17770000000E+01 0.  1.
         15    1    1    2    0    0 -0.68737796332E+02  0.45897959854E+03 -0.55905430845E+01  0.46413529108E+03  0.17770000000E+01 0. -1.
</event>
<event>
 7    1  0.3474777E-008  0.7652350E+03  0.7546771E-02  0.8947020E-01
        -11   -1    0    0    0    0  0.00000000000E+00  0.00000000000E+00  0.50000000000E+03  0.50000000000E+03  0.00000000000E+00 0.  1.
         11   -1    0    0    0    0 -0.00000000000E+00 -0.00000000000E+00 -0.50000000000E+03  0.50000000000E+03  0.00000000000E+00 0. -1.
         23    2    1    2    0    0 -0.14849184352E+03 -0.60367268764E+02  0.14438335557E+03  0.23476496158E+03  0.92595891336E+02 0.  0.
        -11    1    3    3    0    0 -0.14835274474E+03 -0.25946541434E+02  0.11461984053E+03  0.18926031736E+03  0.00000000000E+00 0.  1.
         11    1    3    3    0    0 -0.13909877853E+00 -0.34420727330E+02  0.29763515033E+02  0.45504644219E+02  0.00000000000E+00 0. -1.
        -15    1    1    2    0    0  0.52514155912E+02  0.23837858268E+03 -0.38191945524E+03  0.45326340385E+03  0.17770000000E+01 0. -1.
         15    1    1    2    0    0  0.95977687606E+02 -0.17801131391E+03  0.23753609967E+03  0.31197163457E+03  0.17770000000E+01 0.  1.
</event>
<event>
 7    1  0.4669405E-008  0.1000000E+04  0.7546771E-02  0.8684367E-01
        -11   -1    0    0    0    0  0.00000000000E+00  0.00000000000E+00  0.50000000000E+03  0.50000000000E+03  0.00000000000E+00 0. -1.
         11   -1    0    0    0    0 -0.00000000000E+00 -0.00000000000E+00 -0.50000000000E+03  0.50000000000E+03  0.00000000000E+00 0.  1.
         23    2    1    2    0    0 -0.38896724773E+02 -0.23614936093E+02 -0.76415130231E+02  0.13049081739E+03  0.95488014378E+02 0.  0.
        -11    1    3    3    0    0 -0.56331895731E+01  0.36270139932E+02 -0.33223075721E+02  0.49507864384E+02  0.00000000000E+00 0.  1.
         11    1    3    3    0    0 -0.33263535199E+02 -0.59885076025E+02 -0.43192054510E+02  0.80982953004E+02  0.00000000000E+00 0. -1.
        -15    1    1    2    0    0  0.15303418118E+03 -0.88765134217E+02  0.43889437675E+03  0.47321257520E+03  0.17770000000E+01 0. -1.
         15    1    1    2    0    0 -0.11413745641E+03  0.11238007031E+03 -0.36247924652E+03  0.39629660741E+03  0.17770000000E+01 0.  1.
</event>
<event>
 7    1  0.3474777E-008  0.1000000E+04  0.7546771E-02  0.8684367E-01
        -11   -1    0    0    0    0  0.00000000000E+00  0.00000000000E+00  0.50000000000E+03  0.50000000000E+03  0.00000000000E+00 0. -1.
         11   -1    0    0    0    0 -0.00000000000E+00 -0.00000000000E+00 -0.50000000000E+03  0.50000000000E+03  0.00000000000E+00 0.  1.
         23    2    1    2    0    0  0.98359254735E+01  0.10686099987E+03 -0.86759313572E+02  0.16676919215E+03  0.93641690684E+02 0.  0.
        -11    1    3    3    0    0 -0.21283415567E+02  0.47670134932E+02 -0.85146812200E+02  0.99876950145E+02  0.00000000000E+00 0. -1.
         11    1    3    3    0    0  0.31119341040E+02  0.59190864943E+02 -0.16125013726E+01  0.66892242003E+02  0.00000000000E+00 0.  1.
        -15    1    1    2    0    0 -0.91493382845E+02 -0.25916875587E+03  0.39419109374E+03  0.48055099546E+03  0.17770000000E+01 0. -1.
         15    1    1    2    0    0  0.81657457371E+02  0.15230775599E+03 -0.30743178017E+03  0.35267981239E+03  0.17770000000E+01 0.  1.
</event>
<event>
 7    1  0.3474777E-008  0.8487672E+03  0.7546771E-02  0.8843428E-01
        -11   -1    0    0    0    0  0.00000000000E+00  0.00000000000E+00  0.50000000000E+03  0.50000000000E+03  0.00000000000E+00 0.  1.
         11   -1    0    0    0    0 -0.00000000000E+00 -0.00000000000E+00 -0.50000000000E+03  0.50000000000E+03  0.00000000000E+00 0. -1.
         23    2    1    2    0    0 -0.38948608400E+02 -0.70768225364E+02 -0.89495873605E+02  0.15123280244E+03  0.91305604009E+02 0.  0.
        -11    1    3    3    0    0 -0.18350791248E+02 -0.42796805869E+02 -0.10372228355E+03  0.11369533955E+03  0.00000000000E+00 0. -1.
         11    1    3    3    0    0 -0.20597817153E+02 -0.27971419495E+02  0.14226409941E+02  0.37537462885E+02  0.00000000000E+00 0.  1.
        -15    1    1    2    0    0 -0.34712833965E+03 -0.11408831757E+03  0.18593023844E+03  0.40998468226E+03  0.17770000000E+01 0. -1.
         15    1    1    2    0    0  0.38607694805E+03  0.18485654293E+03 -0.96434364836E+02  0.43878251530E+03  0.17770000000E+01 0.  1.
</event>
<event>
 7    1  0.3474777E-008  0.1000000E+04  0.7546771E-02  0.8684367E-01
        -11   -1    0    0    0    0  0.00000000000E+00  0.00000000000E+00  0.50000000000E+03  0.50000000000E+03  0.00000000000E+00 0. -1.
         11   -1    0    0    0    0 -0.00000000000E+00 -0.00000000000E+00 -0.50000000000E+03  0.50000000000E+03  0.00000000000E+00 0.  1.
         23    2    1    2    0    0  0.78322823797E+02  0.17989744344E+01 -0.58297586908E+02  0.13401809928E+03  0.91785299794E+02 0.  0.
        -11    1    3    3    0    0  0.82586785597E+02  0.26718466757E+02 -0.64313028868E+02  0.10803064058E+03  0.00000000000E+00 0.  1.
         11    1    3    3    0    0 -0.42639618003E+01 -0.24919492322E+02  0.60154419601E+01  0.25987458702E+02  0.00000000000E+00 0. -1.
        -15    1    1    2    0    0 -0.26918392274E+03  0.96568755084E+02  0.38220994519E+03  0.47736056462E+03  0.17770000000E+01 0. -1.
         15    1    1    2    0    0  0.19086109895E+03 -0.98367729519E+02 -0.32391235828E+03  0.38862133611E+03  0.17770000000E+01 0.  1.
</event>
<event>
 7    1  0.3474777E-008  0.1000000E+04  0.7546771E-02  0.8684367E-01
        -11   -1    0    0    0    0  0.00000000000E+00  0.00000000000E+00  0.50000000000E+03  0.50000000000E+03  0.00000000000E+00 0.  1.
         11   -1    0    0    0    0 -0.00000000000E+00 -0.00000000000E+00 -0.50000000000E+03  0.50000000000E+03  0.00000000000E+00 0. -1.
         23    2    1    2    0    0 -0.10155920094E+03 -0.95865687088E+01  0.26029186813E+03  0.29468169584E+03  0.93162608661E+02 0.  0.
        -11    1    3    3    0    0 -0.93804724779E+02 -0.43393212768E+02  0.18967867760E+03  0.21600994894E+03  0.00000000000E+00 0.  1.
         11    1    3    3    0    0 -0.77544761567E+01  0.33806644059E+02  0.70613190530E+02  0.78671746897E+02  0.00000000000E+00 0. -1.
        -15    1    1    2    0    0  0.82185718441E+02  0.90121063462E+02  0.20183018002E+03  0.23582806807E+03  0.17770000000E+01 0.  1.
         15    1    1    2    0    0  0.19373482494E+02 -0.80534494753E+02 -0.46212204815E+03  0.46949023609E+03  0.17770000000E+01 0. -1.
</event>
<event>
 7    1  0.3474777E-008  0.1000000E+04  0.7546771E-02  0.8684367E-01
        -11   -1    0    0    0    0  0.00000000000E+00  0.00000000000E+00  0.50000000000E+03  0.50000000000E+03  0.00000000000E+00 0. -1.
         11   -1    0    0    0    0 -0.00000000000E+00 -0.00000000000E+00 -0.50000000000E+03  0.50000000000E+03  0.00000000000E+00 0.  1.
         23    2    1    2    0    0  0.24163710864E+03  0.93866753411E+02  0.83174149256E+01  0.27564873017E+03  0.93346576707E+02 0.  0.
        -11    1    3    3    0    0  0.40599458705E+02  0.18148595543E+02  0.38365632087E+02  0.58733374607E+02  0.00000000000E+00 0.  1.
         11    1    3    3    0    0  0.20103764994E+03  0.75718157868E+02 -0.30048217161E+02  0.21691535556E+03  0.00000000000E+00 0. -1.
        -15    1    1    2    0    0  0.92790988596E+02  0.23596610021E+03 -0.21295673804E+02  0.25445398693E+03  0.17770000000E+01 0. -1.
         15    1    1    2    0    0 -0.33442809724E+03 -0.32983285362E+03  0.12978258878E+02  0.46989728290E+03  0.17770000000E+01 0.  1.
</event>
<event>
 7    1  0.3474777E-008  0.1000000E+04  0.7546771E-02  0.8684367E-01
        -11   -1    0    0    0    0  0.00000000000E+00  0.00000000000E+00  0.50000000000E+03  0.50000000000E+03  0.00000000000E+00 0.  1.
         11   -1    0    0    0    0 -0.00000000000E+00 -0.00000000000E+00 -0.50000000000E+03  0.50000000000E+03  0.00000000000E+00 0. -1.
         23    2    1    2    0    0 -0.33041111237E+03  0.69676843712E+01  0.62620516691E+02  0.34995323564E+03  0.96570628165E+02 0.  0.
        -11    1    3    3    0    0 -0.19863425174E+03  0.16691520782E+02  0.83614044088E+02  0.21616077627E+03  0.00000000000E+00 0. -1.
         11    1    3    3    0    0 -0.13177686062E+03 -0.97238364109E+01 -0.20993527397E+02  0.13379245937E+03  0.00000000000E+00 0.  1.
        -15    1    1    2    0    0 -0.11810424516E+03 -0.13114100495E+03 -0.54027401894E+02  0.18457706735E+03  0.17770000000E+01 0. -1.
         15    1    1    2    0    0  0.44851535753E+03  0.12417332058E+03 -0.85931147971E+01  0.46546969701E+03  0.17770000000E+01 0.  1.
</event>
<event>
 7    1  0.3474777E-008  0.1000000E+04  0.7546771E-02  0.8684367E-01
        -11   -1    0    0    0    0  0.00000000000E+00  0.00000000000E+00  0.50000000000E+03  0.50000000000E+03  0.00000000000E+00 0.  1.
         11   -1    0    0    0    0 -0.00000000000E+00 -0.00000000000E+00 -0.50000000000E+03  0.50000000000E+03  0.00000000000E+00 0. -1.
         23    2    1    2    0    0 -0.18543148188E+03  0.25979980827E+03 -0.29514695986E+03  0.44447154091E+03  0.92533496130E+02 0.  0.
        -11    1    3    3    0    0 -0.15827194804E+02 -0.24079442028E+00  0.39238983060E+00  0.15833889196E+02  0.00000000000E+00 0.  1.
         11    1    3    3    0    0 -0.16960428708E+03  0.26004060270E+03 -0.29553934969E+03  0.42863765171E+03  0.00000000000E+00 0. -1.
        -15    1    1    2    0    0  0.24883000283E+03 -0.28897334079E+03  0.30049511412E+03  0.48551254704E+03  0.17770000000E+01 0.  1.
         15    1    1    2    0    0 -0.63398520949E+02  0.29173532512E+02 -0.53481542575E+01  0.70015912054E+02  0.17770000000E+01 0. -1.
</event>
<event>
 7    1  0.3474777E-008  0.1000000E+04  0.7546771E-02  0.8684367E-01
        -11   -1    0    0    0    0  0.00000000000E+00  0.00000000000E+00  0.50000000000E+03  0.50000000000E+03  0.00000000000E+00 0. -1.
         11   -1    0    0    0    0 -0.00000000000E+00 -0.00000000000E+00 -0.50000000000E+03  0.50000000000E+03  0.00000000000E+00 0.  1.
         23    2    1    2    0    0  0.29789947967E+02 -0.36352339209E+03 -0.24038070988E+03  0.44575393341E+03  0.88752385152E+02 0.  0.
        -11    1    3    3    0    0 -0.43725722005E+01 -0.30814341172E+03 -0.17947189379E+03  0.35662535277E+03  0.00000000000E+00 0.  1.
         11    1    3    3    0    0  0.34162520167E+02 -0.55379980368E+02 -0.60908816091E+02  0.89128580643E+02  0.00000000000E+00 0. -1.
        -15    1    1    2    0    0 -0.52681832916E+02  0.42784667881E+03  0.20557393505E+03  0.47758973669E+03  0.17770000000E+01 0. -1.
         15    1    1    2    0    0  0.22891884949E+02 -0.64323286718E+02  0.34806774833E+02  0.76656329902E+02  0.17770000000E+01 0.  1.
</event>
<event>
 7    1  0.3474777E-008  0.6723987E+03  0.7546771E-02  0.9079858E-01
        -11   -1    0    0    0    0  0.00000000000E+00  0.00000000000E+00  0.50000000000E+03  0.50000000000E+03  0.00000000000E+00 0.  1.
         11   -1    0    0    0    0 -0.00000000000E+00 -0.00000000000E+00 -0.50000000000E+03  0.50000000000E+03  0.00000000000E+00 0. -1.
         23    2    1    2    0    0 -0.84350472633E+02  0.19011381808E+03 -0.23656397937E+03  0.32760130394E+03  0.90010176908E+02 0.  0.
        -11    1    3    3    0    0  0.45658728045E+01  0.32822022233E+01 -0.45885789535E+02  0.46229057174E+02  0.00000000000E+00 0.  1.
         11    1    3    3    0    0 -0.88916345437E+02  0.18683161586E+03 -0.19067818984E+03  0.28137224676E+03  0.00000000000E+00 0. -1.
        -15    1    1    2    0    0  0.33434718052E+03 -0.86888314537E+02  0.20077951385E+03  0.39956624887E+03  0.17770000000E+01 0.  1.
         15    1    1    2    0    0 -0.24999670789E+03 -0.10322550354E+03  0.35784465519E+02  0.27283244719E+03  0.17770000000E+01 0. -1.
</event>
<event>
 7    1  0.3474777E-008  0.1000000E+04  0.7546771E-02  0.8684367E-01
        -11   -1    0    0    0    0  0.00000000000E+00  0.00000000000E+00  0.50000000000E+03  0.50000000000E+03  0.00000000000E+00 0. -1.
         11   -1    0    0    0    0 -0.00000000000E+00 -0.00000000000E+00 -0.50000000000E+03  0.50000000000E+03  0.00000000000E+00 0.  1.
         23    2    1    2    0    0 -0.94687801695E+02 -0.36582438300E+02  0.33677029907E+01  0.13753936647E+03  0.92745249607E+02 0.  0.
        -11    1    3    3    0    0 -0.65006365163E+02 -0.67516299291E+02  0.96131691174E+01  0.94216193949E+02  0.00000000000E+00 0.  1.
         11    1    3    3    0    0 -0.29681436532E+02  0.30933860992E+02 -0.62454661267E+01  0.43323172525E+02  0.00000000000E+00 0. -1.
        -15    1    1    2    0    0  0.33843047196E+03  0.30647545108E+03  0.13061377804E+03  0.47489525499E+03  0.17770000000E+01 0. -1.
         15    1    1    2    0    0 -0.24374267026E+03 -0.26989301278E+03 -0.13398148103E+03  0.38756537854E+03  0.17770000000E+01 0.  1.
</event>
<event>
 7    1  0.3474777E-008  0.7556250E+03  0.7546771E-02  0.8959826E-01
        -11   -1    0    0    0    0  0.00000000000E+00  0.00000000000E+00  0.50000000000E+03  0.50000000000E+03  0.00000000000E+00 0. -1.
         11   -1    0    0    0    0 -0.00000000000E+00 -0.00000000000E+00 -0.50000000000E+03  0.50000000000E+03  0.00000000000E+00 0.  1.
         23    2    1    2    0    0  0.11177143053E+03  0.10097842257E+03 -0.16966160418E+03  0.24437500840E+03  0.90799726277E+02 0.  0.
        -11    1    3    3    0    0  0.10230775175E+02  0.58388891152E+02 -0.29731629552E+02  0.66316673367E+02  0.00000000000E+00 0.  1.
         11    1    3    3    0    0  0.10154065536E+03  0.42589531414E+02 -0.13992997463E+03  0.17805833504E+03  0.00000000000E+00 0. -1.
        -15    1    1    2    0    0 -0.39305472012E+03 -0.19569423440E+03  0.11408420634E+03  0.45365913443E+03  0.17770000000E+01 0. -1.
         15    1    1    2    0    0  0.28128328959E+03  0.94715811838E+02  0.55577397833E+02  0.30196585716E+03  0.17770000000E+01 0.  1.
</event>
<event>
 7    1  0.3474777E-008  0.1000000E+04  0.7546771E-02  0.8684367E-01
        -11   -1    0    0    0    0  0.00000000000E+00  0.00000000000E+00  0.50000000000E+03  0.50000000000E+03  0.00000000000E+00 0.  1.
         11   -1    0    0    0    0 -0.00000000000E+00 -0.00000000000E+00 -0.50000000000E+03  0.50000000000E+03  0.00000000000E+00 0. -1.
         23    2    1    2    0    0 -0.38228019272E+01 -0.24625124906E+02 -0.12931631811E+03  0.16101129992E+03  0.92633244460E+02 0.  0.
        -11    1    3    3    0    0  0.27818077525E+02 -0.14206246953E+02 -0.12325612967E+03  0.12715241402E+03  0.00000000000E+00 0.  1.
         11    1    3    3    0    0 -0.31640879452E+02 -0.10418877953E+02 -0.60601884447E+01  0.33858885899E+02  0.00000000000E+00 0. -1.
        -15    1    1    2    0    0 -0.68737773186E+02  0.18298933578E+03  0.44074352654E+03  0.48214934656E+03  0.17770000000E+01 0.  1.
         15    1    1    2    0    0  0.72560575113E+02 -0.15836421088E+03 -0.31142720842E+03  0.35683935352E+03  0.17770000000E+01 0. -1.
</event>
<event>
 7    1  0.3474777E-008  0.1000000E+04  0.7546771E-02  0.8684367E-01
        -11   -1    0    0    0    0  0.00000000000E+00  0.00000000000E+00  0.50000000000E+03  0.50000000000E+03  0.00000000000E+00 0.  1.
         11   -1    0    0    0    0 -0.00000000000E+00 -0.00000000000E+00 -0.50000000000E+03  0.50000000000E+03  0.00000000000E+00 0. -1.
         23    2    1    2    0    0  0.14739739051E+02 -0.77451816847E+02  0.49578094891E+02  0.12616780281E+03  0.85113354613E+02 0.  0.
        -11    1    3    3    0    0  0.37685408425E+02 -0.76243626345E+02  0.17698694218E+02  0.86870733526E+02  0.00000000000E+00 0. -1.
         11    1    3    3    0    0 -0.22945669374E+02 -0.12081905027E+01  0.31879400672E+02  0.39297069287E+02  0.00000000000E+00 0.  1.
        -15    1    1    2    0    0 -0.21750590566E+03 -0.34122144799E+03 -0.56560364738E+02  0.40858674495E+03  0.17770000000E+01 0.  1.
         15    1    1    2    0    0  0.20276616661E+03  0.41867326483E+03  0.69822698468E+01  0.46524545224E+03  0.17770000000E+01 0. -1.
</event>
<event>
 7    1  0.3474777E-008  0.1000000E+04  0.7546771E-02  0.8684367E-01
        -11   -1    0    0    0    0  0.00000000000E+00  0.00000000000E+00  0.50000000000E+03  0.50000000000E+03  0.00000000000E+00 0. -1.
         11   -1    0    0    0    0 -0.00000000000E+00 -0.00000000000E+00 -0.50000000000E+03  0.50000000000E+03  0.00000000000E+00 0.  1.
         23    2    1    2    0    0  0.24436036651E+03  0.10228168382E+03 -0.17234549036E+03  0.32878896970E+03  0.90695573126E+02 0.  0.
        -11    1    3    3    0    0  0.23682220045E+03  0.11068169976E+03 -0.17790787460E+03  0.31620626991E+03  0.00000000000E+00 0.  1.
         11    1    3    3    0    0  0.75381660684E+01 -0.84000159438E+01  0.55623842461E+01  0.12582699791E+02  0.00000000000E+00 0. -1.
        -15    1    1    2    0    0  0.19659735836E+03 -0.85876333488E+01  0.34437138719E+02  0.19978324007E+03  0.17770000000E+01 0.  1.
         15    1    1    2    0    0 -0.44095772487E+03 -0.93694050471E+02  0.13790835164E+03  0.47142779023E+03  0.17770000000E+01 0. -1.
</event>
<event>
 7    1  0.3474777E-008  0.1000000E+04  0.7546771E-02  0.8684367E-01
        -11   -1    0    0    0    0  0.00000000000E+00  0.00000000000E+00  0.50000000000E+03  0.50000000000E+03  0.00000000000E+00 0.  1.
         11   -1    0    0    0    0 -0.00000000000E+00 -0.00000000000E+00 -0.50000000000E+03  0.50000000000E+03  0.00000000000E+00 0. -1.
         23    2    1    2    0    0 -0.64639860908E+02 -0.33868140209E+02 -0.50259323351E+02  0.12663554393E+03  0.90472088861E+02 0.  0.
        -11    1    3    3    0    0 -0.57914466858E+02 -0.43496259754E+02 -0.71872489072E+02  0.10203756548E+03  0.00000000000E+00 0. -1.
         11    1    3    3    0    0 -0.67253940498E+01  0.96281195457E+01  0.21613165722E+02  0.24597978446E+02  0.00000000000E+00 0.  1.
        -15    1    1    2    0    0  0.36691903210E+03  0.26676070997E+03  0.15201097827E+03  0.47843635705E+03  0.17770000000E+01 0.  1.
         15    1    1    2    0    0 -0.30227917120E+03 -0.23289256976E+03 -0.10175165492E+03  0.39492809902E+03  0.17770000000E+01 0. -1.
</event>
<event>
 7    1  0.3474777E-008  0.8268597E+03  0.7546771E-02  0.8869345E-01
        -11   -1    0    0    0    0  0.00000000000E+00  0.00000000000E+00  0.50000000000E+03  0.50000000000E+03  0.00000000000E+00 0. -1.
         11   -1    0    0    0    0 -0.00000000000E+00 -0.00000000000E+00 -0.50000000000E+03  0.50000000000E+03  0.00000000000E+00 0.  1.
         23    2    1    2    0    0 -0.94040208608E+02 -0.38268079745E+02 -0.10618123552E+03  0.17314034250E+03  0.91624869226E+02 0.  0.
        -11    1    3    3    0    0 -0.48109798543E+02  0.26244077867E+02 -0.60854939672E+02  0.81894004795E+02  0.00000000000E+00 0.  1.
         11    1    3    3    0    0 -0.45930410065E+02 -0.64512157612E+02 -0.45326295851E+02  0.91246337703E+02  0.00000000000E+00 0. -1.
        -15    1    1    2    0    0  0.27757690471E+03 -0.27785268368E+03  0.21199031306E+03  0.44631166512E+03  0.17770000000E+01 0. -1.
         15    1    1    2    0    0 -0.18353669611E+03  0.31612076343E+03 -0.10580907754E+03  0.38054799238E+03  0.17770000000E+01 0.  1.
</event>
<event>
 7    1  0.3474777E-008  0.1000000E+04  0.7546771E-02  0.8684367E-01
        -11   -1    0    0    0    0  0.00000000000E+00  0.00000000000E+00  0.50000000000E+03  0.50000000000E+03  0.00000000000E+00 0.  1.
         11   -1    0    0    0    0 -0.00000000000E+00 -0.00000000000E+00 -0.50000000000E+03  0.50000000000E+03  0.00000000000E+00 0. -1.
         23    2    1    2    0    0  0.66628785546E+02  0.83268966956E+02  0.22049927605E+03  0.26200604625E+03  0.93027531485E+02 0.  0.
        -11    1    3    3    0    0  0.74273082650E+02  0.88851823298E+02  0.22379499156E+03  0.25198280806E+03  0.00000000000E+00 0.  1.
         11    1    3    3    0    0 -0.76442971046E+01 -0.55828563416E+01 -0.32957155126E+01  0.10023238194E+02  0.00000000000E+00 0. -1.
        -15    1    1    2    0    0 -0.86298393990E+02  0.21626774123E+03  0.13779100410E+03  0.27057100221E+03  0.17770000000E+01 0.  1.
         15    1    1    2    0    0  0.19669608444E+02 -0.29953670818E+03 -0.35829028015E+03  0.46742295153E+03  0.17770000000E+01 0. -1.
</event>
<event>
 7    1  0.3474777E-008  0.8498749E+03  0.7546771E-02  0.8842140E-01
        -11   -1    0    0    0    0  0.00000000000E+00  0.00000000000E+00  0.50000000000E+03  0.50000000000E+03  0.00000000000E+00 0.  1.
         11   -1    0    0    0    0 -0.00000000000E+00 -0.00000000000E+00 -0.50000000000E+03  0.50000000000E+03  0.00000000000E+00 0. -1.
         23    2    1    2    0    0 -0.14892360140E+02  0.11702059945E+03 -0.16941322519E+02  0.15012508771E+03  0.91295840338E+02 0.  0.
        -11    1    3    3    0    0 -0.27631712500E+02  0.59193632811E+01  0.17345842059E+02  0.33157633119E+02  0.00000000000E+00 0.  1.
         11    1    3    3    0    0  0.12739352360E+02  0.11110123617E+03 -0.34287164579E+02  0.11696745459E+03  0.00000000000E+00 0. -1.
        -15    1    1    2    0    0 -0.32160550852E+03 -0.92705458692E+02 -0.25155367810E+03  0.41869656779E+03  0.17770000000E+01 0. -1.
         15    1    1    2    0    0  0.33649786866E+03 -0.24315140762E+02  0.26849500062E+03  0.43117834451E+03  0.17770000000E+01 0.  1.
</event>
<event>
 7    1  0.3474777E-008  0.8486828E+03  0.7546771E-02  0.8843526E-01
        -11   -1    0    0    0    0  0.00000000000E+00  0.00000000000E+00  0.50000000000E+03  0.50000000000E+03  0.00000000000E+00 0.  1.
         11   -1    0    0    0    0 -0.00000000000E+00 -0.00000000000E+00 -0.50000000000E+03  0.50000000000E+03  0.00000000000E+00 0. -1.
         23    2    1    2    0    0  0.22092149155E+02 -0.85598378971E+01 -0.11907793772E+03  0.15131723242E+03  0.90310662145E+02 0.  0.
        -11    1    3    3    0    0  0.39402281050E+02  0.10405400880E+01 -0.10281620931E+02  0.40734926103E+02  0.00000000000E+00 0.  1.
         11    1    3    3    0    0 -0.17310131895E+02 -0.96003779850E+01 -0.10879631679E+03  0.11058230632E+03  0.00000000000E+00 0. -1.
        -15    1    1    2    0    0  0.62904771108E+02  0.41035018451E+03 -0.18515826426E+02  0.41556019746E+03  0.17770000000E+01 0.  1.
         15    1    1    2    0    0 -0.84996920263E+02 -0.40179034661E+03  0.13759376415E+03  0.43312257012E+03  0.17770000000E+01 0. -1.
</event>
<event>
 7    1  0.3474777E-008  0.8459750E+03  0.7546771E-02  0.8846685E-01
        -11   -1    0    0    0    0  0.00000000000E+00  0.00000000000E+00  0.50000000000E+03  0.50000000000E+03  0.00000000000E+00 0. -1.
         11   -1    0    0    0    0 -0.00000000000E+00 -0.00000000000E+00 -0.50000000000E+03  0.50000000000E+03  0.00000000000E+00 0.  1.
         23    2    1    2    0    0 -0.91116300814E+02  0.21057909682E+02  0.81549033785E+02  0.15402502053E+03  0.91257033724E+02 0.  0.
        -11    1    3    3    0    0 -0.10799276777E+03  0.23312993370E+02  0.80995074027E+02  0.13698954547E+03  0.00000000000E+00 0.  1.
         11    1    3    3    0    0  0.16876466954E+02 -0.22550836884E+01  0.55395975726E+00  0.17035475065E+02  0.00000000000E+00 0. -1.
        -15    1    1    2    0    0  0.22946199070E+02 -0.38136530516E+03 -0.23490357305E+03  0.44849623230E+03  0.17770000000E+01 0. -1.
         15    1    1    2    0    0  0.68170101745E+02  0.36030739548E+03  0.15335453926E+03  0.39747874717E+03  0.17770000000E+01 0.  1.
</event>
<event>
 7    1  0.3474777E-008  0.1000000E+04  0.7546771E-02  0.8684367E-01
        -11   -1    0    0    0    0  0.00000000000E+00  0.00000000000E+00  0.50000000000E+03  0.50000000000E+03  0.00000000000E+00 0. -1.
         11   -1    0    0    0    0 -0.00000000000E+00 -0.00000000000E+00 -0.50000000000E+03  0.50000000000E+03  0.00000000000E+00 0.  1.
         23    2    1    2    0    0  0.58705828140E+02  0.32351743263E+03 -0.19588349946E+02  0.34200229323E+03  0.92043259653E+02 0.  0.
        -11    1    3    3    0    0  0.15202035944E+02  0.14527871816E+02  0.18038687645E+02  0.27704786740E+02  0.00000000000E+00 0. -1.
         11    1    3    3    0    0  0.43503792195E+02  0.30898956081E+03 -0.37627037592E+02  0.31429750649E+03  0.00000000000E+00 0.  1.
        -15    1    1    2    0    0 -0.24485572119E+03 -0.35983316464E+03  0.10844063722E+03  0.44854961832E+03  0.17770000000E+01 0. -1.
         15    1    1    2    0    0  0.18614989305E+03  0.36315732010E+02 -0.88852287269E+02  0.20944808845E+03  0.17770000000E+01 0.  1.
</event>
<event>
 7    1  0.3474777E-008  0.5774552E+03  0.7546771E-02  0.9241442E-01
        -11   -1    0    0    0    0  0.00000000000E+00  0.00000000000E+00  0.50000000000E+03  0.50000000000E+03  0.00000000000E+00 0.  1.
         11   -1    0    0    0    0 -0.00000000000E+00 -0.00000000000E+00 -0.50000000000E+03  0.50000000000E+03  0.00000000000E+00 0. -1.
         23    2    1    2    0    0 -0.13033758452E+03 -0.14963330898E+03 -0.36186345812E+03  0.42254482363E+03  0.90669468715E+02 0.  0.
        -11    1    3    3    0    0 -0.79481039047E+02 -0.13547825158E+03 -0.31484991245E+03  0.35185516849E+03  0.00000000000E+00 0.  1.
         11    1    3    3    0    0 -0.50856545476E+02 -0.14155057396E+02 -0.47013545667E+02  0.70689655140E+02  0.00000000000E+00 0. -1.
        -15    1    1    2    0    0 -0.12262305876E+02  0.26123536159E+03  0.26402463233E+03  0.37162675159E+03  0.17770000000E+01 0.  1.
         15    1    1    2    0    0  0.14259989040E+03 -0.11160205261E+03  0.97838825782E+02  0.20582842478E+03  0.17770000000E+01 0. -1.
</event>
<event>
 7    1  0.3474777E-008  0.8224764E+03  0.7546771E-02  0.8874632E-01
        -11   -1    0    0    0    0  0.00000000000E+00  0.00000000000E+00  0.50000000000E+03  0.50000000000E+03  0.00000000000E+00 0. -1.
         11   -1    0    0    0    0 -0.00000000000E+00 -0.00000000000E+00 -0.50000000000E+03  0.50000000000E+03  0.00000000000E+00 0.  1.
         23    2    1    2    0    0 -0.12121897145E+02  0.14844081919E+03  0.32577175320E+02  0.17752364765E+03  0.90949194236E+02 0.  0.
        -11    1    3    3    0    0 -0.43475407018E+02  0.12058180144E+03  0.69425458788E+01  0.12836775607E+03  0.00000000000E+00 0. -1.
         11    1    3    3    0    0  0.31353509872E+02  0.27859017750E+02  0.25634629441E+02  0.49155891589E+02  0.00000000000E+00 0.  1.
        -15    1    1    2    0    0  0.33117210998E+03  0.16832012828E+03  0.26432933084E+01  0.37150609247E+03  0.17770000000E+01 0. -1.
         15    1    1    2    0    0 -0.31905021283E+03 -0.31676094748E+03 -0.35220468628E+02  0.45097025988E+03  0.17770000000E+01 0.  1.
</event>
<event>
 7    1  0.3474777E-008  0.8593161E+03  0.7546771E-02  0.8831240E-01
        -11   -1    0    0    0    0  0.00000000000E+00  0.00000000000E+00  0.50000000000E+03  0.50000000000E+03  0.00000000000E+00 0. -1.
         11   -1    0    0    0    0 -0.00000000000E+00 -0.00000000000E+00 -0.50000000000E+03  0.50000000000E+03  0.00000000000E+00 0.  1.
         23    2    1    2    0    0  0.58929175890E+02 -0.65970844697E+02  0.61131093530E+02  0.14068392894E+03  0.90720213540E+02 0.  0.
        -11    1    3    3    0    0  0.81610645925E+02 -0.36934469772E+02  0.38979824660E+02  0.97692780267E+02  0.00000000000E+00 0.  1.
         11    1    3    3    0    0 -0.22681470035E+02 -0.29036374925E+02  0.22151268870E+02  0.42991148673E+02  0.00000000000E+00 0. -1.
        -15    1    1    2    0    0 -0.42473990315E+03 -0.11165717566E+03 -0.10120924532E+03  0.45068589868E+03  0.17770000000E+01 0. -1.
         15    1    1    2    0    0  0.36581072726E+03  0.17762802036E+03  0.40078151793E+02  0.40863017237E+03  0.17770000000E+01 0.  1.
</event>
<event>
 7    1  0.3474777E-008  0.1000000E+04  0.7546771E-02  0.8684367E-01
        -11   -1    0    0    0    0  0.00000000000E+00  0.00000000000E+00  0.50000000000E+03  0.50000000000E+03  0.00000000000E+00 0. -1.
         11   -1    0    0    0    0 -0.00000000000E+00 -0.00000000000E+00 -0.50000000000E+03  0.50000000000E+03  0.00000000000E+00 0.  1.
         23    2    1    2    0    0  0.43843846710E+02  0.61425957003E+01  0.21920512153E+02  0.10421101113E+03  0.91757351815E+02 0.  0.
        -11    1    3    3    0    0  0.59461614730E+02 -0.17814449971E+02 -0.82753200351E+01  0.62622034267E+02  0.00000000000E+00 0.  1.
         11    1    3    3    0    0 -0.15617768020E+02  0.23957045671E+02  0.30195832188E+02  0.41588976866E+02  0.00000000000E+00 0. -1.
        -15    1    1    2    0    0 -0.39072367656E+03  0.20034807452E+03 -0.16267343086E+03  0.46826290183E+03  0.17770000000E+01 0. -1.
         15    1    1    2    0    0  0.34687982985E+03 -0.20649067022E+03  0.14075291871E+03  0.42752608704E+03  0.17770000000E+01 0.  1.
</event>
<event>
 7    1  0.4114176E-008  0.1000000E+04  0.7546771E-02  0.8684367E-01
        -11   -1    0    0    0    0  0.00000000000E+00  0.00000000000E+00  0.50000000000E+03  0.50000000000E+03  0.00000000000E+00 0. -1.
         11   -1    0    0    0    0 -0.00000000000E+00 -0.00000000000E+00 -0.50000000000E+03  0.50000000000E+03  0.00000000000E+00 0.  1.
         23    2    1    2    0    0 -0.87403904589E+02 -0.79273825658E+02 -0.15303763930E+03  0.21405055792E+03  0.92050748657E+02 0.  0.
        -11    1    3    3    0    0  0.12622891185E+01 -0.77979186074E+00 -0.68587498567E+02  0.68603545162E+02  0.00000000000E+00 0.  1.
         11    1    3    3    0    0 -0.88666193707E+02 -0.78494033797E+02 -0.84450140738E+02  0.14544701275E+03  0.00000000000E+00 0. -1.
        -15    1    1    2    0    0  0.67405382410E+02  0.38715383002E+03  0.24610613244E+03  0.46368411643E+03  0.17770000000E+01 0. -1.
         15    1    1    2    0    0  0.19998522178E+02 -0.30788000436E+03 -0.93068493136E+02  0.32226532565E+03  0.17770000000E+01 0.  1.
</event>
<event>
 7    1  0.3474777E-008  0.8691296E+03  0.7546771E-02  0.8820065E-01
        -11   -1    0    0    0    0  0.00000000000E+00  0.00000000000E+00  0.50000000000E+03  0.50000000000E+03  0.00000000000E+00 0.  1.
         11   -1    0    0    0    0 -0.00000000000E+00 -0.00000000000E+00 -0.50000000000E+03  0.50000000000E+03  0.00000000000E+00 0. -1.
         23    2    1    2    0    0 -0.13913269785E+02  0.63672808851E+02 -0.65412088842E+02  0.13087035782E+03  0.92738899747E+02 0.  0.
        -11    1    3    3    0    0  0.24423833382E+02  0.69397196435E+02 -0.34329381429E+02  0.81184979765E+02  0.00000000000E+00 0. -1.
         11    1    3    3    0    0 -0.38337103167E+02 -0.57243875840E+01 -0.31082707413E+02  0.49685378055E+02  0.00000000000E+00 0.  1.
        -15    1    1    2    0    0 -0.24240881714E+03  0.30010580491E+03  0.15399483130E+03  0.41538306967E+03  0.17770000000E+01 0.  1.
         15    1    1    2    0    0  0.25632208693E+03 -0.36377861376E+03 -0.88582742455E+02  0.45374657251E+03  0.17770000000E+01 0. -1.
</event>
<event>
 7    1  0.3474777E-008  0.5190597E+03  0.7546771E-02  0.9358144E-01
        -11   -1    0    0    0    0  0.00000000000E+00  0.00000000000E+00  0.50000000000E+03  0.50000000000E+03  0.00000000000E+00 0.  1.
         11   -1    0    0    0    0 -0.00000000000E+00 -0.00000000000E+00 -0.50000000000E+03  0.50000000000E+03  0.00000000000E+00 0. -1.
         23    2    1    2    0    0  0.71023313083E+02 -0.64606341510E+02 -0.46269176497E+03  0.48094030782E+03  0.89451774436E+02 0.  0.
        -11    1    3    3    0    0  0.43456898951E+01  0.19068093310E+02 -0.35253327790E+02  0.40314691161E+02  0.00000000000E+00 0.  1.
         11    1    3    3    0    0  0.66677623187E+02 -0.83674434820E+02 -0.42743843718E+03  0.44062561666E+03  0.00000000000E+00 0. -1.
        -15    1    1    2    0    0 -0.14570349509E+03  0.18777043764E+02  0.30862366506E+03  0.34180961107E+03  0.17770000000E+01 0.  1.
         15    1    1    2    0    0  0.74680182006E+02  0.45829297746E+02  0.15406809991E+03  0.17725008111E+03  0.17770000000E+01 0. -1.
</event>
<event>
 7    1  0.3474777E-008  0.8936920E+03  0.7546771E-02  0.8792761E-01
        -11   -1    0    0    0    0  0.00000000000E+00  0.00000000000E+00  0.50000000000E+03  0.50000000000E+03  0.00000000000E+00 0.  1.
         11   -1    0    0    0    0 -0.00000000000E+00 -0.00000000000E+00 -0.50000000000E+03  0.50000000000E+03  0.00000000000E+00 0. -1.
         23    2    1    2    0    0 -0.92258531554E+01  0.24690032517E+02 -0.46807191533E+02  0.10630799792E+03  0.91737468733E+02 0.  0.
        -11    1    3    3    0    0  0.16876449737E+02  0.43941850932E+02  0.26707654399E+01  0.47146938470E+02  0.00000000000E+00 0. -1.
         11    1    3    3    0    0 -0.26102302892E+02 -0.19251818416E+02 -0.49477956973E+02  0.59161059446E+02  0.00000000000E+00 0.  1.
        -15    1    1    2    0    0  0.43745689499E+03  0.16526725202E+02 -0.80338454412E+02  0.44508324234E+03  0.17770000000E+01 0.  1.
         15    1    1    2    0    0 -0.42823104184E+03 -0.41216757719E+02  0.12714564595E+03  0.44860875975E+03  0.17770000000E+01 0. -1.
</event>
<event>
 7    1  0.3474777E-008  0.1000000E+04  0.7546771E-02  0.8684367E-01
        -11   -1    0    0    0    0  0.00000000000E+00  0.00000000000E+00  0.50000000000E+03  0.50000000000E+03  0.00000000000E+00 0. -1.
         11   -1    0    0    0    0 -0.00000000000E+00 -0.00000000000E+00 -0.50000000000E+03  0.50000000000E+03  0.00000000000E+00 0.  1.
         23    2    1    2    0    0 -0.90722546676E+02  0.15158744482E+03 -0.27167959656E+02  0.20137301227E+03  0.92755906225E+02 0.  0.
        -11    1    3    3    0    0  0.15354325370E+02  0.45858518031E+02  0.35315757385E+01  0.48489493818E+02  0.00000000000E+00 0. -1.
         11    1    3    3    0    0 -0.10607687205E+03  0.10572892679E+03 -0.30699535394E+02  0.15288351846E+03  0.00000000000E+00 0.  1.
        -15    1    1    2    0    0 -0.87333205590E+02  0.29411103942E+03 -0.54978285699E+02  0.31169562386E+03  0.17770000000E+01 0. -1.
         15    1    1    2    0    0  0.17805575227E+03 -0.44569848423E+03  0.82146245354E+02  0.48693136387E+03  0.17770000000E+01 0.  1.
</event>
<event>
 7    1  0.3474777E-008  0.1000000E+04  0.7546771E-02  0.8684367E-01
        -11   -1    0    0    0    0  0.00000000000E+00  0.00000000000E+00  0.50000000000E+03  0.50000000000E+03  0.00000000000E+00 0.  1.
         11   -1    0    0    0    0 -0.00000000000E+00 -0.00000000000E+00 -0.50000000000E+03  0.50000000000E+03  0.00000000000E+00 0. -1.
         23    2    1    2    0    0  0.87412635978E+02 -0.39224050844E+02  0.85083290650E+02  0.15696678903E+03  0.90663727127E+02 0.  0.
        -11    1    3    3    0    0 -0.14433945117E+02  0.74733543076E+01  0.25033433518E+02  0.29847321319E+02  0.00000000000E+00 0.  1.
         11    1    3    3    0    0  0.10184658110E+03 -0.46697405151E+02  0.60049857132E+02  0.12711946771E+03  0.00000000000E+00 0. -1.
        -15    1    1    2    0    0  0.86949644149E+02 -0.35490060607E+03  0.92464738808E+02  0.37691851435E+03  0.17770000000E+01 0.  1.
         15    1    1    2    0    0 -0.17436228013E+03  0.39412465691E+03 -0.17754802946E+03  0.46611469663E+03  0.17770000000E+01 0. -1.
</event>
<event>
 7    1  0.3474777E-008  0.8194721E+03  0.7546771E-02  0.8878275E-01
        -11   -1    0    0    0    0  0.00000000000E+00  0.00000000000E+00  0.50000000000E+03  0.50000000000E+03  0.00000000000E+00 0.  1.
         11   -1    0    0    0    0 -0.00000000000E+00 -0.00000000000E+00 -0.50000000000E+03  0.50000000000E+03  0.00000000000E+00 0. -1.
         23    2    1    2    0    0  0.32620931188E+01  0.95631286399E+02 -0.12371514352E+03  0.18052793704E+03  0.90160496474E+02 0.  0.
        -11    1    3    3    0    0 -0.32623563750E+02  0.17889123524E+02 -0.10652505787E+02  0.38701337596E+02  0.00000000000E+00 0. -1.
         11    1    3    3    0    0  0.35885656869E+02  0.77742162875E+02 -0.11306263774E+03  0.14182659944E+03  0.00000000000E+00 0.  1.
        -15    1    1    2    0    0 -0.28778934141E+03 -0.32646408862E+03  0.12598028546E+03  0.45307361018E+03  0.17770000000E+01 0. -1.
         15    1    1    2    0    0  0.28452724829E+03  0.23083280222E+03 -0.22651419406E+01  0.36639845278E+03  0.17770000000E+01 0.  1.
</event>
<event>
 7    1  0.3474777E-008  0.6821270E+03  0.7546771E-02  0.9064907E-01
        -11   -1    0    0    0    0  0.00000000000E+00  0.00000000000E+00  0.50000000000E+03  0.50000000000E+03  0.00000000000E+00 0. -1.
         11   -1    0    0    0    0 -0.00000000000E+00 -0.00000000000E+00 -0.50000000000E+03  0.50000000000E+03  0.00000000000E+00 0.  1.
         23    2    1    2    0    0 -0.16885945015E+02 -0.16384914804E+03 -0.25662175334E+03  0.31787296583E+03  0.89759788686E+02 0.  0.
        -11    1    3    3    0    0 -0.39392006589E+02 -0.34986949326E+02 -0.46036962542E+02  0.69965839710E+02  0.00000000000E+00 0.  1.
         11    1    3    3    0    0  0.22506061574E+02 -0.12886219871E+03 -0.21058479080E+03  0.24790712612E+03  0.00000000000E+00 0. -1.
        -15    1    1    2    0    0  0.20756652001E+03  0.84932834600E+02 -0.11874199855E+03  0.25377207602E+03  0.17770000000E+01 0. -1.
         15    1    1    2    0    0 -0.19068057499E+03  0.78916313436E+02  0.37536375189E+03  0.42835495815E+03  0.17770000000E+01 0.  1.
</event>
<event>
 7    1  0.3474777E-008  0.1000000E+04  0.7546771E-02  0.8684367E-01
        -11   -1    0    0    0    0  0.00000000000E+00  0.00000000000E+00  0.50000000000E+03  0.50000000000E+03  0.00000000000E+00 0.  1.
         11   -1    0    0    0    0 -0.00000000000E+00 -0.00000000000E+00 -0.50000000000E+03  0.50000000000E+03  0.00000000000E+00 0. -1.
         23    2    1    2    0    0 -0.12565411066E+03 -0.86396816307E+02  0.26922243211E+03  0.32368671900E+03  0.95073701487E+02 0.  0.
        -11    1    3    3    0    0 -0.11775936380E+03 -0.55867327280E+02  0.25998555507E+03  0.29082798157E+03  0.00000000000E+00 0.  1.
         11    1    3    3    0    0 -0.78947468592E+01 -0.30529489027E+02  0.92368770413E+01  0.32858737433E+02  0.00000000000E+00 0. -1.
        -15    1    1    2    0    0  0.10510120747E+03 -0.16713165342E+02  0.18317638447E+03  0.21185452382E+03  0.17770000000E+01 0.  1.
         15    1    1    2    0    0  0.20552903188E+02  0.10310998165E+03 -0.45239881658E+03  0.46445875718E+03  0.17770000000E+01 0. -1.
</event>
<event>
 7    1  0.3474777E-008  0.7367594E+03  0.7546771E-02  0.8985559E-01
        -11   -1    0    0    0    0  0.00000000000E+00  0.00000000000E+00  0.50000000000E+03  0.50000000000E+03  0.00000000000E+00 0.  1.
         11   -1    0    0    0    0 -0.00000000000E+00 -0.00000000000E+00 -0.50000000000E+03  0.50000000000E+03  0.00000000000E+00 0. -1.
         23    2    1    2    0    0 -0.12283261551E+03  0.82862646265E+02  0.20031774130E+03  0.26324063750E+03  0.84937425021E+02 0.  0.
        -11    1    3    3    0    0 -0.87158091271E+01  0.49462346515E+02  0.43516404165E+02  0.66454243529E+02  0.00000000000E+00 0. -1.
         11    1    3    3    0    0 -0.11411680638E+03  0.33400299750E+02  0.15680133714E+03  0.19678639397E+03  0.00000000000E+00 0.  1.
        -15    1    1    2    0    0 -0.53272598829E+02 -0.23333162057E+03  0.17445761624E+03  0.29617601614E+03  0.17770000000E+01 0.  1.
         15    1    1    2    0    0  0.17610521434E+03  0.15046897431E+03 -0.37477535754E+03  0.44058334637E+03  0.17770000000E+01 0. -1.
</event>
<event>
 7    1  0.3474777E-008  0.1000000E+04  0.7546771E-02  0.8684367E-01
        -11   -1    0    0    0    0  0.00000000000E+00  0.00000000000E+00  0.50000000000E+03  0.50000000000E+03  0.00000000000E+00 0.  1.
         11   -1    0    0    0    0 -0.00000000000E+00 -0.00000000000E+00 -0.50000000000E+03  0.50000000000E+03  0.00000000000E+00 0. -1.
         23    2    1    2    0    0  0.65648581405E+02  0.69394557074E+02 -0.24635825533E+03  0.27966474420E+03  0.91622259230E+02 0.  0.
        -11    1    3    3    0    0 -0.19447745126E+02  0.20508374063E+02 -0.25842028550E+02  0.38296457235E+02  0.00000000000E+00 0.  1.
         11    1    3    3    0    0  0.85096326531E+02  0.48886183011E+02 -0.22051622678E+03  0.24136828696E+03  0.00000000000E+00 0. -1.
        -15    1    1    2    0    0 -0.27699392825E+03 -0.24919345791E+02  0.37656919976E+03  0.46813900716E+03  0.17770000000E+01 0.  1.
         15    1    1    2    0    0  0.21134534685E+03 -0.44475211282E+02 -0.13021094443E+03  0.25219624865E+03  0.17770000000E+01 0. -1.
</event>
<event>
 7    1  0.3474777E-008  0.1000000E+04  0.7546771E-02  0.8684367E-01
        -11   -1    0    0    0    0  0.00000000000E+00  0.00000000000E+00  0.50000000000E+03  0.50000000000E+03  0.00000000000E+00 0.  1.
         11   -1    0    0    0    0 -0.00000000000E+00 -0.00000000000E+00 -0.50000000000E+03  0.50000000000E+03  0.00000000000E+00 0. -1.
         23    2    1    2    0    0 -0.36835525263E+02  0.47663200710E+02 -0.23383841122E+03  0.25796374034E+03  0.90753799625E+02 0.  0.
        -11    1    3    3    0    0  0.18571077119E+02  0.11065295151E+02 -0.88124027285E+01  0.23344894602E+02  0.00000000000E+00 0.  1.
         11    1    3    3    0    0 -0.55406602382E+02  0.36597905559E+02 -0.22502600849E+03  0.23461884574E+03  0.00000000000E+00 0. -1.
        -15    1    1    2    0    0  0.29475470526E+03 -0.12776273578E+03  0.32500775650E+03  0.45698670927E+03  0.17770000000E+01 0.  1.
         15    1    1    2    0    0 -0.25791918000E+03  0.80099535071E+02 -0.91169345288E+02  0.28504955039E+03  0.17770000000E+01 0. -1.
</event>
<event>
 7    1  0.3474777E-008  0.8732293E+03  0.7546771E-02  0.8815442E-01
        -11   -1    0    0    0    0  0.00000000000E+00  0.00000000000E+00  0.50000000000E+03  0.50000000000E+03  0.00000000000E+00 0. -1.
         11   -1    0    0    0    0 -0.00000000000E+00 -0.00000000000E+00 -0.50000000000E+03  0.50000000000E+03  0.00000000000E+00 0.  1.
         23    2    1    2    0    0 -0.91042802488E+01 -0.80408826913E+01  0.83435948780E+02  0.12677066262E+03  0.94666253959E+02 0.  0.
        -11    1    3    3    0    0 -0.49680691534E+02  0.37784131625E+01  0.28299961593E+02  0.57300395666E+02  0.00000000000E+00 0. -1.
         11    1    3    3    0    0  0.40576411286E+02 -0.11819295854E+02  0.55135987187E+02  0.69470266952E+02  0.00000000000E+00 0.  1.
        -15    1    1    2    0    0  0.22650139145E+03  0.28108172410E+03  0.20966698118E+03  0.41746043726E+03  0.17770000000E+01 0. -1.
         15    1    1    2    0    0 -0.21739711120E+03 -0.27304084141E+03 -0.29310292996E+03  0.45576890012E+03  0.17770000000E+01 0.  1.
</event>
<event>
 7    1  0.3474777E-008  0.8485833E+03  0.7546771E-02  0.8843642E-01
        -11   -1    0    0    0    0  0.00000000000E+00  0.00000000000E+00  0.50000000000E+03  0.50000000000E+03  0.00000000000E+00 0. -1.
         11   -1    0    0    0    0 -0.00000000000E+00 -0.00000000000E+00 -0.50000000000E+03  0.50000000000E+03  0.00000000000E+00 0.  1.
         23    2    1    2    0    0  0.89512050738E+02  0.79938489842E+02 -0.20760859538E+02  0.15141674589E+03  0.89963594085E+02 0.  0.
        -11    1    3    3    0    0  0.93423101680E+02  0.69897700248E+02 -0.44871228293E+02  0.12500796597E+03  0.00000000000E+00 0. -1.
         11    1    3    3    0    0 -0.39110509428E+01  0.10040789594E+02  0.24110368755E+02  0.26408779916E+02  0.00000000000E+00 0.  1.
        -15    1    1    2    0    0 -0.20543172444E+03  0.11659869814E+03  0.36548628290E+03  0.43517907869E+03  0.17770000000E+01 0. -1.
         15    1    1    2    0    0  0.11591967370E+03 -0.19653718798E+03 -0.34472542337E+03  0.41340417542E+03  0.17770000000E+01 0.  1.
</event>
<event>
 7    1  0.3474777E-008  0.1000000E+04  0.7546771E-02  0.8684367E-01
        -11   -1    0    0    0    0  0.00000000000E+00  0.00000000000E+00  0.50000000000E+03  0.50000000000E+03  0.00000000000E+00 0.  1.
         11   -1    0    0    0    0 -0.00000000000E+00 -0.00000000000E+00 -0.50000000000E+03  0.50000000000E+03  0.00000000000E+00 0. -1.
         23    2    1    2    0    0  0.10047976289E+02  0.11575212075E+03 -0.10837270454E+03  0.18345962243E+03  0.91723904664E+02 0.  0.
        -11    1    3    3    0    0  0.40865421383E+02  0.37560987216E+02 -0.14311321746E+02  0.57320365976E+02  0.00000000000E+00 0.  1.
         11    1    3    3    0    0 -0.30817445094E+02  0.78191133532E+02 -0.94061382792E+02  0.12613925645E+03  0.00000000000E+00 0. -1.
        -15    1    1    2    0    0 -0.11442752276E+00  0.24787418722E+03 -0.21627902207E+03  0.32897020975E+03  0.17770000000E+01 0. -1.
         15    1    1    2    0    0 -0.99335487666E+01 -0.36362630797E+03  0.32465172660E+03  0.48757016783E+03  0.17770000000E+01 0.  1.
</event>
<event>
 7    1  0.3474777E-008  0.7040033E+03  0.7546771E-02  0.9032224E-01
        -11   -1    0    0    0    0  0.00000000000E+00  0.00000000000E+00  0.50000000000E+03  0.50000000000E+03  0.00000000000E+00 0.  1.
         11   -1    0    0    0    0 -0.00000000000E+00 -0.00000000000E+00 -0.50000000000E+03  0.50000000000E+03  0.00000000000E+00 0. -1.
         23    2    1    2    0    0 -0.11630482201E+03 -0.72577282135E+02 -0.24603308626E+03  0.29599667757E+03  0.91035597941E+02 0.  0.
        -11    1    3    3    0    0  0.12689776183E+02 -0.18662197584E+02 -0.53424888528E+02  0.57995920136E+02  0.00000000000E+00 0.  1.
         11    1    3    3    0    0 -0.12899459819E+03 -0.53915084551E+02 -0.19260819773E+03  0.23800075743E+03  0.00000000000E+00 0. -1.
        -15    1    1    2    0    0  0.36265802520E+03  0.64947787519E+02  0.19037169667E+02  0.36892360985E+03  0.17770000000E+01 0.  1.
         15    1    1    2    0    0 -0.24635320319E+03  0.76294946161E+01  0.22699591659E+03  0.33507971259E+03  0.17770000000E+01 0. -1.
</event>
<event>
 7    1  0.3474777E-008  0.1000000E+04  0.7546771E-02  0.8684367E-01
        -11   -1    0    0    0    0  0.00000000000E+00  0.00000000000E+00  0.50000000000E+03  0.50000000000E+03  0.00000000000E+00 0. -1.
         11   -1    0    0    0    0 -0.00000000000E+00 -0.00000000000E+00 -0.50000000000E+03  0.50000000000E+03  0.00000000000E+00 0.  1.
         23    2    1    2    0    0 -0.63623410479E+02 -0.30130075656E+02 -0.87429786918E+02  0.14433870517E+03  0.90741029028E+02 0.  0.
        -11    1    3    3    0    0 -0.50438168175E+02  0.15084529974E+02 -0.98162964467E+01  0.53552885350E+02  0.00000000000E+00 0. -1.
         11    1    3    3    0    0 -0.13185242303E+02 -0.45214605630E+02 -0.77613490472E+02  0.90785819818E+02  0.00000000000E+00 0.  1.
        -15    1    1    2    0    0 -0.28433533158E+03 -0.18467679962E+03 -0.16294586329E+03  0.37617364766E+03  0.17770000000E+01 0. -1.
         15    1    1    2    0    0  0.34795874206E+03  0.21480687528E+03  0.25037565021E+03  0.47948764717E+03  0.17770000000E+01 0.  1.
</event>
<event>
 7    1  0.3474777E-008  0.9025496E+03  0.7546771E-02  0.8783140E-01
        -11   -1    0    0    0    0  0.00000000000E+00  0.00000000000E+00  0.50000000000E+03  0.50000000000E+03  0.00000000000E+00 0. -1.
         11   -1    0    0    0    0 -0.00000000000E+00 -0.00000000000E+00 -0.50000000000E+03  0.50000000000E+03  0.00000000000E+00 0.  1.
         23    2    1    2    0    0  0.92507852164E+01  0.34206380474E+02 -0.60977245860E+01  0.97450386461E+02  0.90574511227E+02 0.  0.
        -11    1    3    3    0    0 -0.19586987631E+02 -0.19385620808E+02  0.16973395350E+02  0.32365854357E+02  0.00000000000E+00 0.  1.
         11    1    3    3    0    0  0.28837772847E+02  0.53592001282E+02 -0.23071119936E+02  0.65084532105E+02  0.00000000000E+00 0. -1.
        -15    1    1    2    0    0 -0.27481277236E+03  0.89211067822E+02  0.34804131094E+03  0.45234564917E+03  0.17770000000E+01 0. -1.
         15    1    1    2    0    0  0.26556198714E+03 -0.12341744830E+03 -0.34194358635E+03  0.45020396437E+03  0.17770000000E+01 0.  1.
</event>
<event>
 7    1  0.3474777E-008  0.8029815E+03  0.7546771E-02  0.8898571E-01
        -11   -1    0    0    0    0  0.00000000000E+00  0.00000000000E+00  0.50000000000E+03  0.50000000000E+03  0.00000000000E+00 0. -1.
         11   -1    0    0    0    0 -0.00000000000E+00 -0.00000000000E+00 -0.50000000000E+03  0.50000000000E+03  0.00000000000E+00 0.  1.
         23    2    1    2    0    0  0.15054521216E+03  0.75618677645E+02  0.45340493825E+02  0.19701853508E+03  0.91534132827E+02 0.  0.
        -11    1    3    3    0    0  0.13530799369E+03  0.66314756638E+02  0.70343954471E+02  0.16629543600E+03  0.00000000000E+00 0. -1.
         11    1    3    3    0    0  0.15237218468E+02  0.93039210066E+01 -0.25003460646E+02  0.30723099079E+02  0.00000000000E+00 0.  1.
        -15    1    1    2    0    0 -0.30240376658E+03  0.22578969770E+03 -0.20514409935E+03  0.42955358788E+03  0.17770000000E+01 0.  1.
         15    1    1    2    0    0  0.15185855443E+03 -0.30140837535E+03  0.15980360553E+03  0.37342787704E+03  0.17770000000E+01 0. -1.
</event>
<event>
 7    1  0.3474777E-008  0.8150172E+03  0.7546771E-02  0.8883708E-01
        -11   -1    0    0    0    0  0.00000000000E+00  0.00000000000E+00  0.50000000000E+03  0.50000000000E+03  0.00000000000E+00 0.  1.
         11   -1    0    0    0    0 -0.00000000000E+00 -0.00000000000E+00 -0.50000000000E+03  0.50000000000E+03  0.00000000000E+00 0. -1.
         23    2    1    2    0    0  0.95828510010E+02 -0.17412360891E+02 -0.12773250935E+03  0.18498283844E+03  0.91742917596E+02 0.  0.
        -11    1    3    3    0    0  0.20010395765E+02  0.28927442585E+02 -0.71892376868E+02  0.80035784028E+02  0.00000000000E+00 0.  1.
         11    1    3    3    0    0  0.75818114245E+02 -0.46339803475E+02 -0.55840132484E+02  0.10494705441E+03  0.00000000000E+00 0. -1.
        -15    1    1    2    0    0 -0.21925287180E+03  0.36803253019E+03  0.11282777221E+03  0.44300454736E+03  0.17770000000E+01 0.  1.
         15    1    1    2    0    0  0.12342436179E+03 -0.35062016930E+03  0.14904737142E+02  0.37201261420E+03  0.17770000000E+01 0. -1.
</event>
<event>
 7    1  0.3474777E-008  0.7633906E+03  0.7546771E-02  0.8949463E-01
        -11   -1    0    0    0    0  0.00000000000E+00  0.00000000000E+00  0.50000000000E+03  0.50000000000E+03  0.00000000000E+00 0.  1.
         11   -1    0    0    0    0 -0.00000000000E+00 -0.00000000000E+00 -0.50000000000E+03  0.50000000000E+03  0.00000000000E+00 0. -1.
         23    2    1    2    0    0 -0.11895539916E+03  0.17250134412E+03  0.60542269960E+02  0.23660941619E+03  0.91714495382E+02 0.  0.
        -11    1    3    3    0    0 -0.12996554078E+03  0.12839413684E+03  0.55127149480E+02  0.19082740573E+03  0.00000000000E+00 0.  1.
         11    1    3    3    0    0  0.11010141616E+02  0.44107207277E+02  0.54151204806E+01  0.45782010463E+02  0.00000000000E+00 0. -1.
        -15    1    1    2    0    0 -0.70233359928E+02  0.58356127761E+02 -0.34148581623E+03  0.35348816516E+03  0.17770000000E+01 0.  1.
         15    1    1    2    0    0  0.18918875909E+03 -0.23085747188E+03  0.28094354627E+03  0.40990241865E+03  0.17770000000E+01 0. -1.
</event>
<event>
 7    1  0.3474777E-008  0.8196892E+03  0.7546771E-02  0.8878011E-01
        -11   -1    0    0    0    0  0.00000000000E+00  0.00000000000E+00  0.50000000000E+03  0.50000000000E+03  0.00000000000E+00 0.  1.
         11   -1    0    0    0    0 -0.00000000000E+00 -0.00000000000E+00 -0.50000000000E+03  0.50000000000E+03  0.00000000000E+00 0. -1.
         23    2    1    2    0    0  0.98372139757E+02  0.11847440045E+03 -0.15008869988E+02  0.18031083818E+03  0.92593038309E+02 0.  0.
        -11    1    3    3    0    0  0.11236976257E+02  0.49985297059E+02 -0.41992509554E+02  0.66243266949E+02  0.00000000000E+00 0. -1.
         11    1    3    3    0    0  0.87135163500E+02  0.68489103392E+02  0.26983639566E+02  0.11406757123E+03  0.00000000000E+00 0.  1.
        -15    1    1    2    0    0  0.10982071126E+03 -0.36026372903E+03 -0.20814343909E+03  0.43032242800E+03  0.17770000000E+01 0.  1.
         15    1    1    2    0    0 -0.20819285102E+03  0.24178932858E+03  0.22315230908E+03  0.38936673382E+03  0.17770000000E+01 0. -1.
</event>
<event>
 7    1  0.3474777E-008  0.1000000E+04  0.7546771E-02  0.8684367E-01
        -11   -1    0    0    0    0  0.00000000000E+00  0.00000000000E+00  0.50000000000E+03  0.50000000000E+03  0.00000000000E+00 0. -1.
         11   -1    0    0    0    0 -0.00000000000E+00 -0.00000000000E+00 -0.50000000000E+03  0.50000000000E+03  0.00000000000E+00 0.  1.
         23    2    1    2    0    0 -0.98032210022E+02  0.50795999118E+02 -0.30813795742E+03  0.33967944472E+03  0.90788637131E+02 0.  0.
        -11    1    3    3    0    0 -0.58237515562E+02 -0.51146361186E+01 -0.22187759302E+03  0.22945028657E+03  0.00000000000E+00 0.  1.
         11    1    3    3    0    0 -0.39794694461E+02  0.55910635237E+02 -0.86260364394E+02  0.11022915814E+03  0.00000000000E+00 0. -1.
        -15    1    1    2    0    0  0.27873615852E+03 -0.46558585825E+02  0.37326926072E+03  0.46818227936E+03  0.17770000000E+01 0. -1.
         15    1    1    2    0    0 -0.18070394850E+03 -0.42374132939E+01 -0.65131303301E+02  0.19213827592E+03  0.17770000000E+01 0.  1.
</event>
<event>
 7    1  0.3474777E-008  0.1000000E+04  0.7546771E-02  0.8684367E-01
        -11   -1    0    0    0    0  0.00000000000E+00  0.00000000000E+00  0.50000000000E+03  0.50000000000E+03  0.00000000000E+00 0.  1.
         11   -1    0    0    0    0 -0.00000000000E+00 -0.00000000000E+00 -0.50000000000E+03  0.50000000000E+03  0.00000000000E+00 0. -1.
         23    2    1    2    0    0  0.77119095823E+02 -0.39770484338E+02  0.75966507780E+02  0.14597300281E+03  0.89488328170E+02 0.  0.
        -11    1    3    3    0    0 -0.16644202832E+02 -0.17063282070E+02  0.32130992935E+02  0.40007321704E+02  0.00000000000E+00 0.  1.
         11    1    3    3    0    0  0.93763298656E+02 -0.22707202268E+02  0.43835514845E+02  0.10596568110E+03  0.00000000000E+00 0. -1.
        -15    1    1    2    0    0 -0.70052097093E+02 -0.67364696918E+02  0.37657585506E+03  0.38891879749E+03  0.17770000000E+01 0.  1.
         15    1    1    2    0    0 -0.70669987302E+01  0.10713518126E+03 -0.45254236284E+03  0.46510819970E+03  0.17770000000E+01 0. -1.
</event>
<event>
 7    1  0.3474777E-008  0.8409708E+03  0.7546771E-02  0.8852556E-01
        -11   -1    0    0    0    0  0.00000000000E+00  0.00000000000E+00  0.50000000000E+03  0.50000000000E+03  0.00000000000E+00 0.  1.
         11   -1    0    0    0    0 -0.00000000000E+00 -0.00000000000E+00 -0.50000000000E+03  0.50000000000E+03  0.00000000000E+00 0. -1.
         23    2    1    2    0    0  0.15994236701E+02 -0.29964819294E+02 -0.12730757387E+03  0.15902924572E+03  0.89047047271E+02 0.  0.
        -11    1    3    3    0    0  0.36871378850E+02 -0.45822113759E+02 -0.11682493699E+03  0.13079461224E+03  0.00000000000E+00 0. -1.
         11    1    3    3    0    0 -0.20877142149E+02  0.15857294464E+02 -0.10482636877E+02  0.28234633484E+02  0.00000000000E+00 0.  1.
        -15    1    1    2    0    0 -0.17191544010E+03  0.33832823153E+03 -0.13957735874E+03  0.40435863734E+03  0.17770000000E+01 0.  1.
         15    1    1    2    0    0  0.15592120340E+03 -0.30836341223E+03  0.26688493260E+03  0.43661211693E+03  0.17770000000E+01 0. -1.
</event>
<event>
 7    1  0.3474777E-008  0.7039100E+03  0.7546771E-02  0.9032361E-01
        -11   -1    0    0    0    0  0.00000000000E+00  0.00000000000E+00  0.50000000000E+03  0.50000000000E+03  0.00000000000E+00 0.  1.
         11   -1    0    0    0    0 -0.00000000000E+00 -0.00000000000E+00 -0.50000000000E+03  0.50000000000E+03  0.00000000000E+00 0. -1.
         23    2    1    2    0    0  0.22440975988E+02  0.21421737977E+03 -0.18166611779E+03  0.29608998904E+03  0.90961640585E+02 0.  0.
        -11    1    3    3    0    0  0.24577638738E+02  0.56625608101E+01 -0.18356307000E+02  0.31194213046E+02  0.00000000000E+00 0. -1.
         11    1    3    3    0    0 -0.21366627502E+01  0.20855481896E+03 -0.16330981079E+03  0.26489577600E+03  0.00000000000E+00 0.  1.
        -15    1    1    2    0    0 -0.30895740025E+03 -0.75245309928E+02  0.21480228984E+03  0.38374433323E+03  0.17770000000E+01 0.  1.
         15    1    1    2    0    0  0.28651642426E+03 -0.13897206984E+03 -0.33136172044E+02  0.32016567773E+03  0.17770000000E+01 0. -1.
</event>
<event>
 7    1  0.3474777E-008  0.7688160E+03  0.7546771E-02  0.8942299E-01
        -11   -1    0    0    0    0  0.00000000000E+00  0.00000000000E+00  0.50000000000E+03  0.50000000000E+03  0.00000000000E+00 0.  1.
         11   -1    0    0    0    0 -0.00000000000E+00 -0.00000000000E+00 -0.50000000000E+03  0.50000000000E+03  0.00000000000E+00 0. -1.
         23    2    1    2    0    0  0.16542800136E+03 -0.11563246522E+03 -0.60369647752E+02  0.23118400768E+03  0.95206409402E+02 0.  0.
        -11    1    3    3    0    0  0.13640997915E+03 -0.10123537669E+03 -0.85672463144E+01  0.17008727646E+03  0.00000000000E+00 0.  1.
         11    1    3    3    0    0  0.29018022214E+02 -0.14397088533E+02 -0.51802401438E+02  0.61096731223E+02  0.00000000000E+00 0. -1.
        -15    1    1    2    0    0  0.11745052787E+03  0.36397788908E+03  0.84242862468E+02  0.39163062680E+03  0.17770000000E+01 0.  1.
         15    1    1    2    0    0 -0.28287852923E+03 -0.24834542386E+03 -0.23873214716E+02  0.37718536552E+03  0.17770000000E+01 0. -1.
</event>
<event>
 7    1  0.3474777E-008  0.5088028E+03  0.7546771E-02  0.9380325E-01
        -11   -1    0    0    0    0  0.00000000000E+00  0.00000000000E+00  0.50000000000E+03  0.50000000000E+03  0.00000000000E+00 0.  1.
         11   -1    0    0    0    0 -0.00000000000E+00 -0.00000000000E+00 -0.50000000000E+03  0.50000000000E+03  0.00000000000E+00 0. -1.
         23    2    1    2    0    0  0.40441773910E+03  0.18600625521E+03  0.18657907806E+03  0.49119724023E+03  0.91164366710E+02 0.  0.
        -11    1    3    3    0    0  0.64978566077E+02  0.93223722711E+01  0.41139127220E+00  0.65645181978E+02  0.00000000000E+00 0.  1.
         11    1    3    3    0    0  0.33943917303E+03  0.17668388294E+03  0.18616768679E+03  0.42555205825E+03  0.00000000000E+00 0. -1.
        -15    1    1    2    0    0 -0.76045043416E+01 -0.54453308388E+02 -0.16040247246E+02  0.57301296158E+02  0.17770000000E+01 0. -1.
         15    1    1    2    0    0 -0.39681323476E+03 -0.13155294682E+03 -0.17053883082E+03  0.45150146361E+03  0.17770000000E+01 0.  1.
</event>
<event>
 7    1  0.3474777E-008  0.8228308E+03  0.7546771E-02  0.8874203E-01
        -11   -1    0    0    0    0  0.00000000000E+00  0.00000000000E+00  0.50000000000E+03  0.50000000000E+03  0.00000000000E+00 0. -1.
         11   -1    0    0    0    0 -0.00000000000E+00 -0.00000000000E+00 -0.50000000000E+03  0.50000000000E+03  0.00000000000E+00 0.  1.
         23    2    1    2    0    0  0.35125295588E+02 -0.90494023041E+01  0.14840974107E+03  0.17716923583E+03  0.89709580350E+02 0.  0.
        -11    1    3    3    0    0  0.37652671223E+02  0.35088397662E+02  0.66502419095E+02  0.84092158054E+02  0.00000000000E+00 0.  1.
         11    1    3    3    0    0 -0.25273756348E+01 -0.44137799966E+02  0.81907321978E+02  0.93077077775E+02  0.00000000000E+00 0. -1.
        -15    1    1    2    0    0 -0.46465685087E+02 -0.38964028488E+03  0.12836549289E+02  0.39261501018E+03  0.17770000000E+01 0. -1.
         15    1    1    2    0    0  0.11340389498E+02  0.39868968718E+03 -0.16124629036E+03  0.43021575399E+03  0.17770000000E+01 0.  1.
</event>
<event>
 7    1  0.3474777E-008  0.1000000E+04  0.7546771E-02  0.8684367E-01
        -11   -1    0    0    0    0  0.00000000000E+00  0.00000000000E+00  0.50000000000E+03  0.50000000000E+03  0.00000000000E+00 0.  1.
         11   -1    0    0    0    0 -0.00000000000E+00 -0.00000000000E+00 -0.50000000000E+03  0.50000000000E+03  0.00000000000E+00 0. -1.
         23    2    1    2    0    0 -0.11101368465E+03  0.53126289004E+01  0.13863299530E+03  0.20021753735E+03  0.92280510794E+02 0.  0.
        -11    1    3    3    0    0 -0.67485169587E+02  0.25970183139E+02  0.24527122934E+02  0.76356258983E+02  0.00000000000E+00 0. -1.
         11    1    3    3    0    0 -0.43528515059E+02 -0.20657554239E+02  0.11410587237E+03  0.12386127837E+03  0.00000000000E+00 0.  1.
        -15    1    1    2    0    0  0.32864778000E+03 -0.28584304124E+01 -0.36128838378E+03  0.48841579408E+03  0.17770000000E+01 0.  1.
         15    1    1    2    0    0 -0.21763409535E+03 -0.24541984880E+01  0.22265538848E+03  0.31136666857E+03  0.17770000000E+01 0. -1.
</event>
<event>
 7    1  0.3474777E-008  0.8416590E+03  0.7546771E-02  0.8851746E-01
        -11   -1    0    0    0    0  0.00000000000E+00  0.00000000000E+00  0.50000000000E+03  0.50000000000E+03  0.00000000000E+00 0.  1.
         11   -1    0    0    0    0 -0.00000000000E+00 -0.00000000000E+00 -0.50000000000E+03  0.50000000000E+03  0.00000000000E+00 0. -1.
         23    2    1    2    0    0  0.24609018594E+02 -0.10318135098E+03  0.60266928102E+02  0.15834103551E+03  0.10093456255E+03 0.  0.
        -11    1    3    3    0    0 -0.15624722935E+01  0.14614013470E+02 -0.10856610474E+02  0.18272293243E+02  0.00000000000E+00 0. -1.
         11    1    3    3    0    0  0.26171490887E+02 -0.11779536445E+03  0.71123538576E+02  0.14006874227E+03  0.00000000000E+00 0.  1.
        -15    1    1    2    0    0 -0.40456969856E+03  0.14222436749E+03 -0.14066291813E+03  0.45132430243E+03  0.17770000000E+01 0.  1.
         15    1    1    2    0    0  0.37996067997E+03 -0.39043016510E+02  0.80395990027E+02  0.39033466205E+03  0.17770000000E+01 0. -1.
</event>
<event>
 7    1  0.3474777E-008  0.8921555E+03  0.7546771E-02  0.8794442E-01
        -11   -1    0    0    0    0  0.00000000000E+00  0.00000000000E+00  0.50000000000E+03  0.50000000000E+03  0.00000000000E+00 0.  1.
         11   -1    0    0    0    0 -0.00000000000E+00 -0.00000000000E+00 -0.50000000000E+03  0.50000000000E+03  0.00000000000E+00 0. -1.
         23    2    1    2    0    0  0.67532108987E+01  0.26740224847E+02  0.48044481682E+02  0.10784448114E+03  0.92528451892E+02 0.  0.
        -11    1    3    3    0    0 -0.12412875621E+02  0.49139845402E+02  0.57722856762E+02  0.76816222766E+02  0.00000000000E+00 0.  1.
         11    1    3    3    0    0  0.19166086519E+02 -0.22399620554E+02 -0.96783750796E+01  0.31028258372E+02  0.00000000000E+00 0. -1.
        -15    1    1    2    0    0  0.33462649584E+03 -0.19552532395E+03  0.20153005683E+03  0.43683242274E+03  0.17770000000E+01 0.  1.
         15    1    1    2    0    0 -0.34137970674E+03  0.16878509911E+03 -0.24957453852E+03  0.45532309612E+03  0.17770000000E+01 0. -1.
</event>
<event>
 7    1  0.3474777E-008  0.7972890E+03  0.7546771E-02  0.8905696E-01
        -11   -1    0    0    0    0  0.00000000000E+00  0.00000000000E+00  0.50000000000E+03  0.50000000000E+03  0.00000000000E+00 0.  1.
         11   -1    0    0    0    0 -0.00000000000E+00 -0.00000000000E+00 -0.50000000000E+03  0.50000000000E+03  0.00000000000E+00 0. -1.
         23    2    1    2    0    0 -0.80349341537E+01 -0.10451579317E+03 -0.14665335711E+03  0.20271095461E+03  0.92716841943E+02 0.  0.
        -11    1    3    3    0    0 -0.28836765018E+02 -0.70417114062E+02 -0.14376875253E+03  0.16266401930E+03  0.00000000000E+00 0. -1.
         11    1    3    3    0    0  0.20801830864E+02 -0.34098679108E+02 -0.28846045717E+01  0.40046935311E+02  0.00000000000E+00 0.  1.
        -15    1    1    2    0    0  0.23232124536E+03  0.10355387454E+03 -0.24037056591E+03  0.34996818807E+03  0.17770000000E+01 0. -1.
         15    1    1    2    0    0 -0.22428631120E+03  0.96191863096E+00  0.38702392301E+03  0.44732085732E+03  0.17770000000E+01 0.  1.
</event>
<event>
 7    1  0.3474777E-008  0.1000000E+04  0.7546771E-02  0.8684367E-01
        -11   -1    0    0    0    0  0.00000000000E+00  0.00000000000E+00  0.50000000000E+03  0.50000000000E+03  0.00000000000E+00 0. -1.
         11   -1    0    0    0    0 -0.00000000000E+00 -0.00000000000E+00 -0.50000000000E+03  0.50000000000E+03  0.00000000000E+00 0.  1.
         23    2    1    2    0    0 -0.94780760856E+02  0.18550914686E+03 -0.32086153757E+03  0.39275284549E+03  0.88913638721E+02 0.  0.
        -11    1    3    3    0    0 -0.42848993488E+02  0.15874823716E+03 -0.26533618658E+03  0.31215433835E+03  0.00000000000E+00 0.  1.
         11    1    3    3    0    0 -0.51931767367E+02  0.26760909705E+02 -0.55525350988E+02  0.80598507136E+02  0.00000000000E+00 0. -1.
        -15    1    1    2    0    0  0.50012524447E+02 -0.33921668472E+03  0.27821398877E+03  0.44156018057E+03  0.17770000000E+01 0. -1.
         15    1    1    2    0    0  0.44768236409E+02  0.15370753785E+03  0.42647548799E+02  0.16568697394E+03  0.17770000000E+01 0.  1.
</event>
<event>
 7    1  0.3474777E-008  0.1000000E+04  0.7546771E-02  0.8684367E-01
        -11   -1    0    0    0    0  0.00000000000E+00  0.00000000000E+00  0.50000000000E+03  0.50000000000E+03  0.00000000000E+00 0. -1.
         11   -1    0    0    0    0 -0.00000000000E+00 -0.00000000000E+00 -0.50000000000E+03  0.50000000000E+03  0.00000000000E+00 0.  1.
         23    2    1    2    0    0 -0.12323217060E+01  0.67873600155E+02 -0.80300046851E+02  0.13928176918E+03  0.91339857053E+02 0.  0.
        -11    1    3    3    0    0  0.33293522686E+02  0.68252211360E+02 -0.69923134604E+02  0.10322823142E+03  0.00000000000E+00 0.  1.
         11    1    3    3    0    0 -0.34525844392E+02 -0.37861120523E+00 -0.10376912248E+02  0.36053537763E+02  0.00000000000E+00 0. -1.
        -15    1    1    2    0    0 -0.28066513598E+03 -0.30969919440E+03  0.20943301146E+03  0.46749529792E+03  0.17770000000E+01 0. -1.
         15    1    1    2    0    0  0.28189745768E+03  0.24182559424E+03 -0.12913296461E+03  0.39322293290E+03  0.17770000000E+01 0.  1.
</event>
<event>
 7    1  0.3474777E-008  0.6663506E+03  0.7546771E-02  0.9089289E-01
        -11   -1    0    0    0    0  0.00000000000E+00  0.00000000000E+00  0.50000000000E+03  0.50000000000E+03  0.00000000000E+00 0.  1.
         11   -1    0    0    0    0 -0.00000000000E+00 -0.00000000000E+00 -0.50000000000E+03  0.50000000000E+03  0.00000000000E+00 0. -1.
         23    2    1    2    0    0  0.89596700832E+02 -0.16812866442E+02  0.30699007668E+03  0.33364937712E+03  0.93641648806E+02 0.  0.
        -11    1    3    3    0    0  0.73203087615E+02 -0.48747271500E+02  0.16257035206E+03  0.18483535345E+03  0.00000000000E+00 0.  1.
         11    1    3    3    0    0  0.16393613217E+02  0.31934405058E+02  0.14441972462E+03  0.14881402367E+03  0.00000000000E+00 0. -1.
        -15    1    1    2    0    0 -0.82208085936E+02 -0.26574588749E+03 -0.46638987077E+02  0.28205921179E+03  0.17770000000E+01 0.  1.
         15    1    1    2    0    0 -0.73886148961E+01  0.28255875393E+03 -0.26035108961E+03  0.38429141109E+03  0.17770000000E+01 0. -1.
</event>
<event>
 7    1  0.3474777E-008  0.1000000E+04  0.7546771E-02  0.8684367E-01
        -11   -1    0    0    0    0  0.00000000000E+00  0.00000000000E+00  0.50000000000E+03  0.50000000000E+03  0.00000000000E+00 0.  1.
         11   -1    0    0    0    0 -0.00000000000E+00 -0.00000000000E+00 -0.50000000000E+03  0.50000000000E+03  0.00000000000E+00 0. -1.
         23    2    1    2    0    0 -0.13782710741E+01 -0.46269540236E+02 -0.16072463431E+03  0.18915995029E+03  0.88353317637E+02 0.  0.
        -11    1    3    3    0    0 -0.22080085544E+02 -0.43131702045E+02 -0.16108877854E+03  0.16821851405E+03  0.00000000000E+00 0.  1.
         11    1    3    3    0    0  0.20701814470E+02 -0.31378381915E+01  0.36414423113E+00  0.20941436242E+02  0.00000000000E+00 0. -1.
        -15    1    1    2    0    0 -0.19822834608E+03  0.26247083794E+03  0.33447835391E+03  0.46911016289E+03  0.17770000000E+01 0.  1.
         15    1    1    2    0    0  0.19960661716E+03 -0.21620129770E+03 -0.17375371960E+03  0.34172988682E+03  0.17770000000E+01 0. -1.
</event>
<event>
 7    1  0.3474777E-008  0.8265423E+03  0.7546771E-02  0.8869726E-01
        -11   -1    0    0    0    0  0.00000000000E+00  0.00000000000E+00  0.50000000000E+03  0.50000000000E+03  0.00000000000E+00 0.  1.
         11   -1    0    0    0    0 -0.00000000000E+00 -0.00000000000E+00 -0.50000000000E+03  0.50000000000E+03  0.00000000000E+00 0. -1.
         23    2    1    2    0    0  0.94988705695E+01 -0.11650725727E+03  0.90529347729E+02  0.17345767963E+03  0.90707410297E+02 0.  0.
        -11    1    3    3    0    0 -0.14302426026E+02 -0.12793354345E+02  0.59645854658E+02  0.62656661924E+02  0.00000000000E+00 0.  1.
         11    1    3    3    0    0  0.23801296595E+02 -0.10371390293E+03  0.30883493071E+02  0.11080101771E+03  0.00000000000E+00 0. -1.
        -15    1    1    2    0    0  0.31197870363E+03  0.25104867124E+03  0.12166616864E+03  0.41852354913E+03  0.17770000000E+01 0.  1.
         15    1    1    2    0    0 -0.32147757420E+03 -0.13454141397E+03 -0.21219551637E+03  0.40801877124E+03  0.17770000000E+01 0. -1.
</event>
<event>
 7    1  0.3474777E-008  0.1000000E+04  0.7546771E-02  0.8684367E-01
        -11   -1    0    0    0    0  0.00000000000E+00  0.00000000000E+00  0.50000000000E+03  0.50000000000E+03  0.00000000000E+00 0. -1.
         11   -1    0    0    0    0 -0.00000000000E+00 -0.00000000000E+00 -0.50000000000E+03  0.50000000000E+03  0.00000000000E+00 0.  1.
         23    2    1    2    0    0 -0.12533905436E+03  0.29627753960E+02 -0.37204908725E+03  0.40405031620E+03  0.90820990689E+02 0.  0.
        -11    1    3    3    0    0 -0.86756318778E+02  0.59189050725E+02 -0.29299489718E+03  0.31124911622E+03  0.00000000000E+00 0.  1.
         11    1    3    3    0    0 -0.38582735581E+02 -0.29561296764E+02 -0.79054190071E+02  0.92801199987E+02  0.00000000000E+00 0. -1.
        -15    1    1    2    0    0 -0.76664961800E+02  0.10835583285E+03 -0.19587643435E+02  0.13418396471E+03  0.17770000000E+01 0.  1.
         15    1    1    2    0    0  0.20200401616E+03 -0.13798358681E+03  0.39163673068E+03  0.46176571909E+03  0.17770000000E+01 0. -1.
</event>
<event>
 7    1  0.3474777E-008  0.1000000E+04  0.7546771E-02  0.8684367E-01
        -11   -1    0    0    0    0  0.00000000000E+00  0.00000000000E+00  0.50000000000E+03  0.50000000000E+03  0.00000000000E+00 0.  1.
         11   -1    0    0    0    0 -0.00000000000E+00 -0.00000000000E+00 -0.50000000000E+03  0.50000000000E+03  0.00000000000E+00 0. -1.
         23    2    1    2    0    0  0.90170735173E+02  0.38573963503E+02 -0.89632407783E+02  0.16134480761E+03  0.91539424702E+02 0.  0.
        -11    1    3    3    0    0  0.52787045613E+02  0.64615523511E+01  0.62415800158E+01  0.53546065817E+02  0.00000000000E+00 0. -1.
         11    1    3    3    0    0  0.37383689559E+02  0.32112411152E+02 -0.95873987799E+02  0.10779874179E+03  0.00000000000E+00 0.  1.
        -15    1    1    2    0    0  0.71130339113E+02  0.29445015307E+03 -0.20489702335E+03  0.36571350220E+03  0.17770000000E+01 0. -1.
         15    1    1    2    0    0 -0.16130107429E+03 -0.33302411658E+03  0.29452943113E+03  0.47294169019E+03  0.17770000000E+01 0.  1.
</event>
<event>
 7    1  0.3474777E-008  0.8984771E+03  0.7546771E-02  0.8787549E-01
        -11   -1    0    0    0    0  0.00000000000E+00  0.00000000000E+00  0.50000000000E+03  0.50000000000E+03  0.00000000000E+00 0.  1.
         11   -1    0    0    0    0 -0.00000000000E+00 -0.00000000000E+00 -0.50000000000E+03  0.50000000000E+03  0.00000000000E+00 0. -1.
         23    2    1    2    0    0 -0.16987546672E+02 -0.37833887280E+02 -0.12636769040E+02  0.10152289111E+03  0.91799944003E+02 0.  0.
        -11    1    3    3    0    0 -0.42643700689E+02  0.60349441665E+01  0.12472011808E+02  0.44838118137E+02  0.00000000000E+00 0. -1.
         11    1    3    3    0    0  0.25656154017E+02 -0.43868831447E+02 -0.25108780847E+02  0.56684772974E+02  0.00000000000E+00 0.  1.
        -15    1    1    2    0    0 -0.33140589188E+03  0.96599125377E+02  0.28876584528E+03  0.45005569358E+03  0.17770000000E+01 0.  1.
         15    1    1    2    0    0  0.34839343855E+03 -0.58765238097E+02 -0.27612907624E+03  0.44842141531E+03  0.17770000000E+01 0. -1.
</event>
<event>
 7    1  0.3474777E-008  0.1000000E+04  0.7546771E-02  0.8684367E-01
        -11   -1    0    0    0    0  0.00000000000E+00  0.00000000000E+00  0.50000000000E+03  0.50000000000E+03  0.00000000000E+00 0.  1.
         11   -1    0    0    0    0 -0.00000000000E+00 -0.00000000000E+00 -0.50000000000E+03  0.50000000000E+03  0.00000000000E+00 0. -1.
         23    2    1    2    0    0  0.30422802806E+03  0.58092392347E+02  0.92782505404E+02  0.33611318502E+03  0.91837142439E+02 0.  0.
        -11    1    3    3    0    0  0.17507531768E+03  0.37814643337E+02  0.60316429500E+01  0.17921410331E+03  0.00000000000E+00 0.  1.
         11    1    3    3    0    0  0.12915271038E+03  0.20277749009E+02  0.86750862454E+02  0.15689908171E+03  0.00000000000E+00 0. -1.
        -15    1    1    2    0    0  0.76559779139E+02 -0.20699874249E+03  0.57825076835E+02  0.22815954158E+03  0.17770000000E+01 0.  1.
         15    1    1    2    0    0 -0.38078780720E+03  0.14890635014E+03 -0.15060758224E+03  0.43572727340E+03  0.17770000000E+01 0. -1.
</event>
<event>
 7    1  0.4117833E-008  0.1000000E+04  0.7546771E-02  0.8684367E-01
        -11   -1    0    0    0    0  0.00000000000E+00  0.00000000000E+00  0.50000000000E+03  0.50000000000E+03  0.00000000000E+00 0.  1.
         11   -1    0    0    0    0 -0.00000000000E+00 -0.00000000000E+00 -0.50000000000E+03  0.50000000000E+03  0.00000000000E+00 0. -1.
         23    2    1    2    0    0 -0.73903747530E+01  0.15071034229E+02 -0.85534656472E+02  0.12396541880E+03  0.88144732620E+02 0.  0.
        -11    1    3    3    0    0  0.34817716914E+02 -0.10439337046E+02 -0.18622478517E+02  0.40841766308E+02  0.00000000000E+00 0. -1.
         11    1    3    3    0    0 -0.42208091667E+02  0.25510371275E+02 -0.66912177956E+02  0.83123652492E+02  0.00000000000E+00 0.  1.
        -15    1    1    2    0    0  0.21164415197E+03  0.14942817921E+03  0.39374675261E+03  0.47134031307E+03  0.17770000000E+01 0.  1.
         15    1    1    2    0    0 -0.20425377722E+03 -0.16449921344E+03 -0.30821209613E+03  0.40469426813E+03  0.17770000000E+01 0. -1.
</event>
<event>
 7    1  0.3474777E-008  0.8800681E+03  0.7546771E-02  0.8807790E-01
        -11   -1    0    0    0    0  0.00000000000E+00  0.00000000000E+00  0.50000000000E+03  0.50000000000E+03  0.00000000000E+00 0.  1.
         11   -1    0    0    0    0 -0.00000000000E+00 -0.00000000000E+00 -0.50000000000E+03  0.50000000000E+03  0.00000000000E+00 0. -1.
         23    2    1    2    0    0 -0.20261945501E+02 -0.50052616221E+02 -0.54523869224E+02  0.11993186464E+03  0.92168264685E+02 0.  0.
        -11    1    3    3    0    0  0.48574290440E+01 -0.51752881103E+02  0.79415564857E+01  0.52583492075E+02  0.00000000000E+00 0.  1.
         11    1    3    3    0    0 -0.25119374545E+02  0.17002648816E+01 -0.62465425710E+02  0.67348372566E+02  0.00000000000E+00 0. -1.
        -15    1    1    2    0    0 -0.40862689032E+03 -0.94145744126E+02  0.79870910463E+02  0.42687454444E+03  0.17770000000E+01 0.  1.
         15    1    1    2    0    0  0.42888883582E+03  0.14419836035E+03 -0.25347041239E+02  0.45319359091E+03  0.17770000000E+01 0. -1.
</event>
<event>
 7    1  0.3474777E-008  0.8395460E+03  0.7546771E-02  0.8854236E-01
        -11   -1    0    0    0    0  0.00000000000E+00  0.00000000000E+00  0.50000000000E+03  0.50000000000E+03  0.00000000000E+00 0. -1.
         11   -1    0    0    0    0 -0.00000000000E+00 -0.00000000000E+00 -0.50000000000E+03  0.50000000000E+03  0.00000000000E+00 0.  1.
         23    2    1    2    0    0 -0.11059852070E+02  0.93179271206E+02 -0.92361607711E+02  0.16045402216E+03  0.91706759494E+02 0.  0.
        -11    1    3    3    0    0 -0.22172116110E+00  0.32979352101E+02  0.15511332722E+02  0.36445689294E+02  0.00000000000E+00 0.  1.
         11    1    3    3    0    0 -0.10838130909E+02  0.60199919105E+02 -0.10787294043E+03  0.12400833286E+03  0.00000000000E+00 0. -1.
        -15    1    1    2    0    0 -0.39214985450E+03 -0.95227122540E+02  0.15342130751E+03  0.43173020346E+03  0.17770000000E+01 0. -1.
         15    1    1    2    0    0  0.40320970657E+03  0.20478513342E+01 -0.61059699804E+02  0.40781577438E+03  0.17770000000E+01 0.  1.
</event>
<event>
 7    1  0.3474777E-008  0.1000000E+04  0.7546771E-02  0.8684367E-01
        -11   -1    0    0    0    0  0.00000000000E+00  0.00000000000E+00  0.50000000000E+03  0.50000000000E+03  0.00000000000E+00 0.  1.
         11   -1    0    0    0    0 -0.00000000000E+00 -0.00000000000E+00 -0.50000000000E+03  0.50000000000E+03  0.00000000000E+00 0. -1.
         23    2    1    2    0    0 -0.19287497062E+02 -0.12347935204E+02  0.13628231204E+03  0.16613803740E+03  0.92219845201E+02 0.  0.
        -11    1    3    3    0    0 -0.28249845666E+02  0.33757070377E+02  0.90053479642E+02  0.10023583579E+03  0.00000000000E+00 0.  1.
         11    1    3    3    0    0  0.89623486039E+01 -0.46105005581E+02  0.46228832397E+02  0.65902201609E+02  0.00000000000E+00 0. -1.
        -15    1    1    2    0    0 -0.13752626405E+03 -0.52613084962E+02  0.31716548866E+03  0.34968373560E+03  0.17770000000E+01 0.  1.
         15    1    1    2    0    0  0.15681376111E+03  0.64961020167E+02 -0.45344780070E+03  0.48417822701E+03  0.17770000000E+01 0. -1.
</event>
<event>
 7    1  0.3474777E-008  0.6420246E+03  0.7546771E-02  0.9128315E-01
        -11   -1    0    0    0    0  0.00000000000E+00  0.00000000000E+00  0.50000000000E+03  0.50000000000E+03  0.00000000000E+00 0.  1.
         11   -1    0    0    0    0 -0.00000000000E+00 -0.00000000000E+00 -0.50000000000E+03  0.50000000000E+03  0.00000000000E+00 0. -1.
         23    2    1    2    0    0  0.14105449652E+01  0.11048967351E+01  0.34599173322E+03  0.35797539194E+03  0.91830775589E+02 0.  0.
        -11    1    3    3    0    0 -0.27496429778E+02  0.36370594955E+02  0.19431598821E+03  0.19959352971E+03  0.00000000000E+00 0.  1.
         11    1    3    3    0    0  0.28906974743E+02 -0.35265698220E+02  0.15167574501E+03  0.15838186223E+03  0.00000000000E+00 0. -1.
        -15    1    1    2    0    0 -0.25593433314E+03 -0.86251231117E+02 -0.20337596790E+03  0.33809259057E+03  0.17770000000E+01 0.  1.
         15    1    1    2    0    0  0.25452378818E+03  0.85146334382E+02 -0.14261576533E+03  0.30393201749E+03  0.17770000000E+01 0. -1.
</event>
<event>
 7    1  0.3474777E-008  0.7046161E+03  0.7546771E-02  0.9031327E-01
        -11   -1    0    0    0    0  0.00000000000E+00  0.00000000000E+00  0.50000000000E+03  0.50000000000E+03  0.00000000000E+00 0. -1.
         11   -1    0    0    0    0 -0.00000000000E+00 -0.00000000000E+00 -0.50000000000E+03  0.50000000000E+03  0.00000000000E+00 0.  1.
         23    2    1    2    0    0 -0.15216156792E+03 -0.20505469007E+03  0.11743185873E+03  0.29538388552E+03  0.90889106628E+02 0.  0.
        -11    1    3    3    0    0 -0.28786503130E+02 -0.35633541430E+01  0.34303895752E+02  0.44923462901E+02  0.00000000000E+00 0.  1.
         11    1    3    3    0    0 -0.12337506479E+03 -0.20149133593E+03  0.83127962979E+02  0.25046042262E+03  0.00000000000E+00 0. -1.
        -15    1    1    2    0    0  0.17004404364E+03 -0.10071554523E+03 -0.29159646145E+03  0.35226446300E+03  0.17770000000E+01 0.  1.
         15    1    1    2    0    0 -0.17882475715E+02  0.30577023530E+03  0.17416460272E+03  0.35235165149E+03  0.17770000000E+01 0. -1.
</event>
<event>
 7    1  0.3474777E-008  0.6930077E+03  0.7546771E-02  0.9048492E-01
        -11   -1    0    0    0    0  0.00000000000E+00  0.00000000000E+00  0.50000000000E+03  0.50000000000E+03  0.00000000000E+00 0. -1.
         11   -1    0    0    0    0 -0.00000000000E+00 -0.00000000000E+00 -0.50000000000E+03  0.50000000000E+03  0.00000000000E+00 0.  1.
         23    2    1    2    0    0  0.57376017871E+02  0.24455193334E+02  0.28660813962E+03  0.30699226805E+03  0.90608846356E+02 0.  0.
        -11    1    3    3    0    0 -0.13663725939E+02  0.24340536495E+02  0.31087989011E+02  0.41780643654E+02  0.00000000000E+00 0.  1.
         11    1    3    3    0    0  0.71039743811E+02  0.11465683860E+00  0.25552015061E+03  0.26521162440E+03  0.00000000000E+00 0. -1.
        -15    1    1    2    0    0 -0.19878707526E+03  0.25108554667E+03 -0.12625091034E+03  0.34424221578E+03  0.17770000000E+01 0. -1.
         15    1    1    2    0    0  0.14141105739E+03 -0.27554074000E+03 -0.16035722929E+03  0.34876551617E+03  0.17770000000E+01 0.  1.
</event>
<event>
 7    1  0.3474777E-008  0.6819947E+03  0.7546771E-02  0.9065108E-01
        -11   -1    0    0    0    0  0.00000000000E+00  0.00000000000E+00  0.50000000000E+03  0.50000000000E+03  0.00000000000E+00 0.  1.
         11   -1    0    0    0    0 -0.00000000000E+00 -0.00000000000E+00 -0.50000000000E+03  0.50000000000E+03  0.00000000000E+00 0. -1.
         23    2    1    2    0    0  0.12076451448E+03 -0.29743589808E+02  0.28027465812E+03  0.31800534517E+03  0.84289776834E+02 0.  0.
        -11    1    3    3    0    0  0.77313770042E+02 -0.53886295217E+02  0.13642813503E+03  0.16581250820E+03  0.00000000000E+00 0.  1.
         11    1    3    3    0    0  0.43450744436E+02  0.24142705409E+02  0.14384652310E+03  0.15219283697E+03  0.00000000000E+00 0. -1.
        -15    1    1    2    0    0 -0.16690233775E+03  0.29031729925E+03 -0.24519413335E+03  0.41504679899E+03  0.17770000000E+01 0.  1.
         15    1    1    2    0    0  0.46137823271E+02 -0.26057370944E+03 -0.35080524773E+02  0.26694785584E+03  0.17770000000E+01 0. -1.
</event>
<event>
 7    1  0.3474777E-008  0.7036979E+03  0.7546771E-02  0.9032672E-01
        -11   -1    0    0    0    0  0.00000000000E+00  0.00000000000E+00  0.50000000000E+03  0.50000000000E+03  0.00000000000E+00 0.  1.
         11   -1    0    0    0    0 -0.00000000000E+00 -0.00000000000E+00 -0.50000000000E+03  0.50000000000E+03  0.00000000000E+00 0. -1.
         23    2    1    2    0    0  0.15490353752E+03  0.99419876615E+02  0.21235289611E+03  0.29630213086E+03  0.93924344354E+02 0.  0.
        -11    1    3    3    0    0  0.16517094338E+03  0.10163322519E+03  0.20935933465E+03  0.28538059501E+03  0.00000000000E+00 0.  1.
         11    1    3    3    0    0 -0.10267405867E+02 -0.22133485714E+01  0.29935614581E+01  0.10921535851E+02  0.00000000000E+00 0. -1.
        -15    1    1    2    0    0  0.25210065476E+03 -0.58134982062E+02 -0.11526960789E+03  0.28323957439E+03  0.17770000000E+01 0.  1.
         15    1    1    2    0    0 -0.40700419227E+03 -0.41284894553E+02 -0.97083288218E+02  0.42045829475E+03  0.17770000000E+01 0. -1.
</event>
<event>
 7    1  0.3474777E-008  0.1000000E+04  0.7546771E-02  0.8684367E-01
        -11   -1    0    0    0    0  0.00000000000E+00  0.00000000000E+00  0.50000000000E+03  0.50000000000E+03  0.00000000000E+00 0.  1.
         11   -1    0    0    0    0 -0.00000000000E+00 -0.00000000000E+00 -0.50000000000E+03  0.50000000000E+03  0.00000000000E+00 0. -1.
         23    2    1    2    0    0  0.10556225988E+03 -0.31814934683E+02 -0.85056965260E+02  0.16661648938E+03  0.91492001919E+02 0.  0.
        -11    1    3    3    0    0  0.50416728661E+02 -0.62374315821E+02 -0.46198947674E+02  0.92556710017E+02  0.00000000000E+00 0.  1.
         11    1    3    3    0    0  0.55145531222E+02  0.30559381138E+02 -0.38858017586E+02  0.74059779368E+02  0.00000000000E+00 0. -1.
        -15    1    1    2    0    0  0.16839772721E+03 -0.33180285839E+03  0.12026241652E+02  0.37228848973E+03  0.17770000000E+01 0.  1.
         15    1    1    2    0    0 -0.27395998709E+03  0.36361779308E+03  0.73030723608E+02  0.46109502089E+03  0.17770000000E+01 0. -1.
</event>
<event>
 7    1  0.3474777E-008  0.8366365E+03  0.7546771E-02  0.8857676E-01
        -11   -1    0    0    0    0  0.00000000000E+00  0.00000000000E+00  0.50000000000E+03  0.50000000000E+03  0.00000000000E+00 0. -1.
         11   -1    0    0    0    0 -0.00000000000E+00 -0.00000000000E+00 -0.50000000000E+03  0.50000000000E+03  0.00000000000E+00 0.  1.
         23    2    1    2    0    0 -0.78713126201E+02 -0.14164308125E+02  0.10860257154E+03  0.16336347779E+03  0.92177673391E+02 0.  0.
        -11    1    3    3    0    0 -0.33064876024E+02 -0.35174236679E+02  0.53994046477E+01  0.48576398827E+02  0.00000000000E+00 0.  1.
         11    1    3    3    0    0 -0.45648250177E+02  0.21009928554E+02  0.10320316689E+03  0.11478707897E+03  0.00000000000E+00 0. -1.
        -15    1    1    2    0    0  0.43836085288E+03 -0.93065098045E+02 -0.84843576098E+01  0.44821478319E+03  0.17770000000E+01 0.  1.
         15    1    1    2    0    0 -0.35964772668E+03  0.10722940617E+03 -0.10011821393E+03  0.38842173902E+03  0.17770000000E+01 0. -1.
</event>
<event>
 7    1  0.3474777E-008  0.1000000E+04  0.7546771E-02  0.8684367E-01
        -11   -1    0    0    0    0  0.00000000000E+00  0.00000000000E+00  0.50000000000E+03  0.50000000000E+03  0.00000000000E+00 0.  1.
         11   -1    0    0    0    0 -0.00000000000E+00 -0.00000000000E+00 -0.50000000000E+03  0.50000000000E+03  0.00000000000E+00 0. -1.
         23    2    1    2    0    0  0.41902044485E+01 -0.63986727810E+02 -0.19595618069E+03  0.22709692945E+03  0.95196278632E+02 0.  0.
        -11    1    3    3    0    0 -0.16950177200E+02 -0.67459461064E+02 -0.19339212885E+03  0.20552032234E+03  0.00000000000E+00 0.  1.
         11    1    3    3    0    0  0.21140381649E+02  0.34727332543E+01 -0.25640518427E+01  0.21576607110E+02  0.00000000000E+00 0. -1.
        -15    1    1    2    0    0  0.19946090363E+03  0.94993602636E+02 -0.21808779399E+03  0.31044142803E+03  0.17770000000E+01 0. -1.
         15    1    1    2    0    0 -0.20365110808E+03 -0.31006874826E+02  0.41404397468E+03  0.46246164252E+03  0.17770000000E+01 0.  1.
</event>
<event>
 7    1  0.3474777E-008  0.7997261E+03  0.7546771E-02  0.8902638E-01
        -11   -1    0    0    0    0  0.00000000000E+00  0.00000000000E+00  0.50000000000E+03  0.50000000000E+03  0.00000000000E+00 0.  1.
         11   -1    0    0    0    0 -0.00000000000E+00 -0.00000000000E+00 -0.50000000000E+03  0.50000000000E+03  0.00000000000E+00 0. -1.
         23    2    1    2    0    0  0.41274194364E+02 -0.17332023647E+03  0.11760195142E+01  0.20027393508E+03  0.91459294561E+02 0.  0.
        -11    1    3    3    0    0  0.52635831911E+02 -0.13224724845E+03 -0.32450417191E+02  0.14598936639E+03  0.00000000000E+00 0.  1.
         11    1    3    3    0    0 -0.11361637547E+02 -0.41072988025E+02  0.33626436706E+02  0.54284568696E+02  0.00000000000E+00 0. -1.
        -15    1    1    2    0    0  0.33383915142E+03 -0.84114129226E+02 -0.14382587807E+02  0.34457768691E+03  0.17770000000E+01 0.  1.
         15    1    1    2    0    0 -0.37511334578E+03  0.25743436570E+03  0.13206568293E+02  0.45514837801E+03  0.17770000000E+01 0. -1.
</event>
<event>
 7    1  0.3474777E-008  0.7463918E+03  0.7546771E-02  0.8972320E-01
        -11   -1    0    0    0    0  0.00000000000E+00  0.00000000000E+00  0.50000000000E+03  0.50000000000E+03  0.00000000000E+00 0.  1.
         11   -1    0    0    0    0 -0.00000000000E+00 -0.00000000000E+00 -0.50000000000E+03  0.50000000000E+03  0.00000000000E+00 0. -1.
         23    2    1    2    0    0 -0.80624654336E+02 -0.58531484143E+01  0.22241716374E+03  0.25360822505E+03  0.91176438048E+02 0.  0.
        -11    1    3    3    0    0 -0.16309395298E+01 -0.13824527397E+02  0.13421788240E+03  0.13493782820E+03  0.00000000000E+00 0. -1.
         11    1    3    3    0    0 -0.78993714807E+02  0.79713789827E+01  0.88199281338E+02  0.11867039686E+03  0.00000000000E+00 0.  1.
        -15    1    1    2    0    0 -0.57022169809E+02  0.34050235265E+03 -0.15438974590E+03  0.37819668345E+03  0.17770000000E+01 0.  1.
         15    1    1    2    0    0  0.13764682415E+03 -0.33464920423E+03 -0.68027417840E+02  0.36819509149E+03  0.17770000000E+01 0. -1.
</event>
<event>
 7    1  0.3474777E-008  0.1000000E+04  0.7546771E-02  0.8684367E-01
        -11   -1    0    0    0    0  0.00000000000E+00  0.00000000000E+00  0.50000000000E+03  0.50000000000E+03  0.00000000000E+00 0.  1.
         11   -1    0    0    0    0 -0.00000000000E+00 -0.00000000000E+00 -0.50000000000E+03  0.50000000000E+03  0.00000000000E+00 0. -1.
         23    2    1    2    0    0  0.13451003941E+03  0.45305048402E+02  0.13974394651E+03  0.21947960029E+03  0.92181485365E+02 0.  0.
        -11    1    3    3    0    0 -0.11684452949E+02 -0.73809399075E+01  0.10429014292E+02  0.17313839947E+02  0.00000000000E+00 0.  1.
         11    1    3    3    0    0  0.14619449235E+03  0.52685988310E+02  0.12931493222E+03  0.20216576034E+03  0.00000000000E+00 0. -1.
        -15    1    1    2    0    0  0.59761880867E+02  0.21946382100E+03  0.20369628413E+03  0.30533782116E+03  0.17770000000E+01 0.  1.
         15    1    1    2    0    0 -0.19427192027E+03 -0.26476886940E+03 -0.34344023064E+03  0.47518257855E+03  0.17770000000E+01 0. -1.
</event>
<event>
 7    1  0.3474777E-008  0.1000000E+04  0.7546771E-02  0.8684367E-01
        -11   -1    0    0    0    0  0.00000000000E+00  0.00000000000E+00  0.50000000000E+03  0.50000000000E+03  0.00000000000E+00 0. -1.
         11   -1    0    0    0    0 -0.00000000000E+00 -0.00000000000E+00 -0.50000000000E+03  0.50000000000E+03  0.00000000000E+00 0.  1.
         23    2    1    2    0    0  0.18580777043E+03  0.16677430727E+03  0.55935530712E+02  0.27091758337E+03  0.89046932933E+02 0.  0.
        -11    1    3    3    0    0  0.17659850929E+03  0.11898406058E+03  0.62215636816E+02  0.22184459791E+03  0.00000000000E+00 0. -1.
         11    1    3    3    0    0  0.92092611378E+01  0.47790246690E+02 -0.62801061041E+01  0.49072985462E+02  0.00000000000E+00 0.  1.
        -15    1    1    2    0    0 -0.26962402310E+03 -0.35074079283E+03 -0.19523914554E+03  0.48356767806E+03  0.17770000000E+01 0.  1.
         15    1    1    2    0    0  0.83816252668E+02  0.18396648556E+03  0.13930361483E+03  0.24551473857E+03  0.17770000000E+01 0. -1.
</event>
<event>
 7    1  0.3474777E-008  0.1000000E+04  0.7546771E-02  0.8684367E-01
        -11   -1    0    0    0    0  0.00000000000E+00  0.00000000000E+00  0.50000000000E+03  0.50000000000E+03  0.00000000000E+00 0.  1.
         11   -1    0    0    0    0 -0.00000000000E+00 -0.00000000000E+00 -0.50000000000E+03  0.50000000000E+03  0.00000000000E+00 0. -1.
         23    2    1    2    0    0 -0.10964275114E+02 -0.11701028594E+03  0.27199316764E+03  0.31027465357E+03  0.92078526585E+02 0.  0.
        -11    1    3    3    0    0  0.11486708887E+02 -0.12471137232E+03  0.23575064633E+03  0.26695175241E+03  0.00000000000E+00 0. -1.
         11    1    3    3    0    0 -0.22450984001E+02  0.77010863802E+01  0.36242521303E+02  0.43322901154E+02  0.00000000000E+00 0.  1.
        -15    1    1    2    0    0 -0.21751016314E+03 -0.50327142052E+02  0.80699489576E+02  0.23740062688E+03  0.17770000000E+01 0.  1.
         15    1    1    2    0    0  0.22847443825E+03  0.16733742800E+03 -0.35269265721E+03  0.45232471956E+03  0.17770000000E+01 0. -1.
</event>
<event>
 7    1  0.3474777E-008  0.8746153E+03  0.7546771E-02  0.8813886E-01
        -11   -1    0    0    0    0  0.00000000000E+00  0.00000000000E+00  0.50000000000E+03  0.50000000000E+03  0.00000000000E+00 0. -1.
         11   -1    0    0    0    0 -0.00000000000E+00 -0.00000000000E+00 -0.50000000000E+03  0.50000000000E+03  0.00000000000E+00 0.  1.
         23    2    1    2    0    0 -0.51075027185E+02  0.53789239872E+02  0.41962468176E+02  0.12538468540E+03  0.91970266225E+02 0.  0.
        -11    1    3    3    0    0  0.13863170551E+02 -0.82772699072E+01  0.30917083822E+02  0.34879317179E+02  0.00000000000E+00 0. -1.
         11    1    3    3    0    0 -0.64938197736E+02  0.62066509779E+02  0.11045384354E+02  0.90505368221E+02  0.00000000000E+00 0.  1.
        -15    1    1    2    0    0  0.87790121317E+02  0.40387660994E+03 -0.42347885956E+02  0.41547553795E+03  0.17770000000E+01 0. -1.
         15    1    1    2    0    0 -0.36715094132E+02 -0.45766584982E+03  0.38541777984E+00  0.45913977665E+03  0.17770000000E+01 0.  1.
</event>
<event>
 7    1  0.3474777E-008  0.1000000E+04  0.7546771E-02  0.8684367E-01
        -11   -1    0    0    0    0  0.00000000000E+00  0.00000000000E+00  0.50000000000E+03  0.50000000000E+03  0.00000000000E+00 0. -1.
         11   -1    0    0    0    0 -0.00000000000E+00 -0.00000000000E+00 -0.50000000000E+03  0.50000000000E+03  0.00000000000E+00 0.  1.
         23    2    1    2    0    0  0.25700716738E+03  0.18224288675E+03 -0.98538434038E+02  0.34324408840E+03  0.94029396390E+02 0.  0.
        -11    1    3    3    0    0  0.69709424125E+02  0.45099971259E+01 -0.11699067192E+02  0.70828045710E+02  0.00000000000E+00 0. -1.
         11    1    3    3    0    0  0.18729774325E+03  0.17773288962E+03 -0.86839366846E+02  0.27241604269E+03  0.00000000000E+00 0.  1.
        -15    1    1    2    0    0 -0.40671408644E+03 -0.25701534072E+03  0.87760274659E+02  0.48905854150E+03  0.17770000000E+01 0. -1.
         15    1    1    2    0    0  0.14970691907E+03  0.74772453977E+02  0.10778159379E+02  0.16769737010E+03  0.17770000000E+01 0.  1.
</event>
<event>
 7    1  0.3474777E-008  0.1000000E+04  0.7546771E-02  0.8684367E-01
        -11   -1    0    0    0    0  0.00000000000E+00  0.00000000000E+00  0.50000000000E+03  0.50000000000E+03  0.00000000000E+00 0.  1.
         11   -1    0    0    0    0 -0.00000000000E+00 -0.00000000000E+00 -0.50000000000E+03  0.50000000000E+03  0.00000000000E+00 0. -1.
         23    2    1    2    0    0  0.72235807545E+02  0.64250141113E+02  0.45716499893E+02  0.14096029549E+03  0.91835254760E+02 0.  0.
        -11    1    3    3    0    0  0.26935321556E+02  0.21314996097E+02  0.66772929157E+02  0.75089710840E+02  0.00000000000E+00 0.  1.
         11    1    3    3    0    0  0.45300485989E+02  0.42935145017E+02 -0.21056429264E+02  0.65870584647E+02  0.00000000000E+00 0. -1.
        -15    1    1    2    0    0 -0.59310200506E+02  0.26370795415E+03  0.28521235432E+03  0.39294888949E+03  0.17770000000E+01 0.  1.
         15    1    1    2    0    0 -0.12925607038E+02 -0.32795809526E+03 -0.33092885422E+03  0.46609081502E+03  0.17770000000E+01 0. -1.
</event>
<event>
 7    1  0.3474777E-008  0.1000000E+04  0.7546771E-02  0.8684367E-01
        -11   -1    0    0    0    0  0.00000000000E+00  0.00000000000E+00  0.50000000000E+03  0.50000000000E+03  0.00000000000E+00 0.  1.
         11   -1    0    0    0    0 -0.00000000000E+00 -0.00000000000E+00 -0.50000000000E+03  0.50000000000E+03  0.00000000000E+00 0.  1.
         23    2    1    2    0    0  0.30515252279E+03 -0.13332194891E+03  0.20432597930E+03  0.40180339481E+03  0.93829942129E+02 0.  0.
        -11    1    3    3    0    0  0.30836113881E+03 -0.13886645696E+03  0.20482498032E+03  0.39537799301E+03  0.00000000000E+00 0.  1.
         11    1    3    3    0    0 -0.32086160229E+01  0.55445080462E+01 -0.49900101850E+00  0.64254017986E+01  0.00000000000E+00 0.  1.
        -15    1    1    2    0    0  0.97689110147E+02  0.27385462281E+02  0.46872154440E+02  0.11177335271E+03  0.17770000000E+01 0. -1.
         15    1    1    2    0    0 -0.40284163294E+03  0.10593648663E+03 -0.25119813374E+03  0.48642325248E+03  0.17770000000E+01 0.  1.
</event>
<event>
 7    1  0.3474777E-008  0.1000000E+04  0.7546771E-02  0.8684367E-01
        -11   -1    0    0    0    0  0.00000000000E+00  0.00000000000E+00  0.50000000000E+03  0.50000000000E+03  0.00000000000E+00 0. -1.
         11   -1    0    0    0    0 -0.00000000000E+00 -0.00000000000E+00 -0.50000000000E+03  0.50000000000E+03  0.00000000000E+00 0.  1.
         23    2    1    2    0    0  0.24275845571E+02  0.18118787551E+02  0.37646044477E+02  0.10244022879E+03  0.90328116718E+02 0.  0.
        -11    1    3    3    0    0  0.79784682636E+01  0.62851418736E+01 -0.30098068815E+02  0.31765590040E+02  0.00000000000E+00 0.  1.
         11    1    3    3    0    0  0.16297377307E+02  0.11833645677E+02  0.67744113292E+02  0.70674638752E+02  0.00000000000E+00 0. -1.
        -15    1    1    2    0    0 -0.24647199376E+03 -0.36428136045E+03 -0.16059719926E+03  0.46823495322E+03  0.17770000000E+01 0. -1.
         15    1    1    2    0    0  0.22219614819E+03  0.34616257290E+03  0.12295115478E+03  0.42932481799E+03  0.17770000000E+01 0.  1.
</event>
<event>
 7    1  0.3474777E-008  0.7229467E+03  0.7546771E-02  0.9004919E-01
        -11   -1    0    0    0    0  0.00000000000E+00  0.00000000000E+00  0.50000000000E+03  0.50000000000E+03  0.00000000000E+00 0.  1.
         11   -1    0    0    0    0 -0.00000000000E+00 -0.00000000000E+00 -0.50000000000E+03  0.50000000000E+03  0.00000000000E+00 0. -1.
         23    2    1    2    0    0  0.59208867815E+02 -0.24427717283E+03  0.72349361857E+02  0.27705327417E+03  0.91362242605E+02 0.  0.
        -11    1    3    3    0    0  0.34808988724E+02 -0.11547030201E+03  0.81624013621E+02  0.14562807401E+03  0.00000000000E+00 0. -1.
         11    1    3    3    0    0  0.24399879092E+02 -0.12880687082E+03 -0.92746517639E+01  0.13142520015E+03  0.00000000000E+00 0.  1.
        -15    1    1    2    0    0  0.29024142652E+03  0.12033394972E+02  0.27021484396E+02  0.29175024698E+03  0.17770000000E+01 0.  1.
         15    1    1    2    0    0 -0.34945029434E+03  0.23224377785E+03 -0.99370846253E+02  0.43119647886E+03  0.17770000000E+01 0. -1.
</event>
<event>
 7    1  0.3474777E-008  0.8778546E+03  0.7546771E-02  0.8810259E-01
        -11   -1    0    0    0    0  0.00000000000E+00  0.00000000000E+00  0.50000000000E+03  0.50000000000E+03  0.00000000000E+00 0.  1.
         11   -1    0    0    0    0 -0.00000000000E+00 -0.00000000000E+00 -0.50000000000E+03  0.50000000000E+03  0.00000000000E+00 0. -1.
         23    2    1    2    0    0 -0.45644376593E+01 -0.52868686313E+02 -0.59932437673E+02  0.12214537657E+03  0.92258678986E+02 0.  0.
        -11    1    3    3    0    0 -0.24675795262E+02  0.17518353895E+02 -0.31311567243E+02  0.43545399736E+02  0.00000000000E+00 0.  1.
         11    1    3    3    0    0  0.20111357602E+02 -0.70387040208E+02 -0.28620870430E+02  0.78599976833E+02  0.00000000000E+00 0. -1.
        -15    1    1    2    0    0  0.32920443329E+03  0.26760240569E+03 -0.13139988316E+03  0.44413476947E+03  0.17770000000E+01 0.  1.
         15    1    1    2    0    0 -0.32463999563E+03 -0.21473371938E+03  0.19133232083E+03  0.43371985396E+03  0.17770000000E+01 0. -1.
</event>
<event>
 7    1  0.3474777E-008  0.1000000E+04  0.7546771E-02  0.8684367E-01
        -11   -1    0    0    0    0  0.00000000000E+00  0.00000000000E+00  0.50000000000E+03  0.50000000000E+03  0.00000000000E+00 0. -1.
         11   -1    0    0    0    0 -0.00000000000E+00 -0.00000000000E+00 -0.50000000000E+03  0.50000000000E+03  0.00000000000E+00 0.  1.
         23    2    1    2    0    0  0.16409857049E+02  0.37642803921E+02 -0.21343483637E+03  0.23582554623E+03  0.91504069767E+02 0.  0.
        -11    1    3    3    0    0 -0.19694452216E+02 -0.14205996556E+02 -0.17435136507E+02  0.29894243112E+02  0.00000000000E+00 0. -1.
         11    1    3    3    0    0  0.36104309265E+02  0.51848800477E+02 -0.19599969986E+03  0.20593130312E+03  0.00000000000E+00 0.  1.
        -15    1    1    2    0    0  0.93479158498E+01 -0.20820117997E+03  0.43560538547E+03  0.48289784059E+03  0.17770000000E+01 0. -1.
         15    1    1    2    0    0 -0.25757772899E+02  0.17055837605E+03 -0.22217054910E+03  0.28127661318E+03  0.17770000000E+01 0.  1.
</event>
<event>
 7    1  0.3474777E-008  0.7870478E+03  0.7546771E-02  0.8918674E-01
        -11   -1    0    0    0    0  0.00000000000E+00  0.00000000000E+00  0.50000000000E+03  0.50000000000E+03  0.00000000000E+00 0. -1.
         11   -1    0    0    0    0 -0.00000000000E+00 -0.00000000000E+00 -0.50000000000E+03  0.50000000000E+03  0.00000000000E+00 0.  1.
         23    2    1    2    0    0  0.79191171489E+00 -0.69750193831E+02 -0.17341148982E+03  0.21295224694E+03  0.10203625832E+03 0.  0.
        -11    1    3    3    0    0 -0.22482562199E+02 -0.63137969795E+02 -0.17627662351E+03  0.18858769003E+03  0.00000000000E+00 0. -1.
         11    1    3    3    0    0  0.23274473914E+02 -0.66122240362E+01  0.28651336911E+01  0.24364556917E+02  0.00000000000E+00 0.  1.
        -15    1    1    2    0    0  0.38093003745E+03  0.60496740879E+02  0.95171293055E+02  0.39727607761E+03  0.17770000000E+01 0. -1.
         15    1    1    2    0    0 -0.38172194916E+03  0.92534529517E+01  0.78240196764E+02  0.38977167545E+03  0.17770000000E+01 0.  1.
</event>
<event>
 7    1  0.3474777E-008  0.1000000E+04  0.7546771E-02  0.8684367E-01
        -11   -1    0    0    0    0  0.00000000000E+00  0.00000000000E+00  0.50000000000E+03  0.50000000000E+03  0.00000000000E+00 0. -1.
         11   -1    0    0    0    0 -0.00000000000E+00 -0.00000000000E+00 -0.50000000000E+03  0.50000000000E+03  0.00000000000E+00 0.  1.
         23    2    1    2    0    0 -0.53419391050E+01  0.88153171210E+01  0.34324792460E+01  0.83259567817E+02  0.82547729162E+02 0.  0.
        -11    1    3    3    0    0 -0.39182772341E+02  0.16528671801E+02  0.17263184559E+02  0.45896668518E+02  0.00000000000E+00 0.  1.
         11    1    3    3    0    0  0.33840833236E+02 -0.77133546803E+01 -0.13830705313E+02  0.37362899299E+02  0.00000000000E+00 0. -1.
        -15    1    1    2    0    0  0.62267675018E+02  0.42964637886E+03 -0.13635261748E+03  0.45504776479E+03  0.17770000000E+01 0. -1.
         15    1    1    2    0    0 -0.56925735913E+02 -0.43846169598E+03  0.13292013823E+03  0.46169266739E+03  0.17770000000E+01 0.  1.
</event>
<event>
 7    1  0.3474777E-008  0.1000000E+04  0.7546771E-02  0.8684367E-01
        -11   -1    0    0    0    0  0.00000000000E+00  0.00000000000E+00  0.50000000000E+03  0.50000000000E+03  0.00000000000E+00 0.  1.
         11   -1    0    0    0    0 -0.00000000000E+00 -0.00000000000E+00 -0.50000000000E+03  0.50000000000E+03  0.00000000000E+00 0. -1.
         23    2    1    2    0    0  0.10096592684E+03  0.78282342583E+02  0.14519259308E+03  0.21098717748E+03  0.84335380668E+02 0.  0.
        -11    1    3    3    0    0  0.50677997731E+02  0.86389112139E+02  0.11168915705E+03  0.15001935193E+03  0.00000000000E+00 0. -1.
         11    1    3    3    0    0  0.50287929109E+02 -0.81067695557E+01  0.33503436027E+02  0.60967825550E+02  0.00000000000E+00 0.  1.
        -15    1    1    2    0    0 -0.38708331436E+03 -0.22611576679E+03 -0.12929036135E+03  0.46656295129E+03  0.17770000000E+01 0.  1.
         15    1    1    2    0    0  0.28611738752E+03  0.14783342421E+03 -0.15902231729E+02  0.32244987123E+03  0.17770000000E+01 0. -1.
</event>
<event>
 7    1  0.3474777E-008  0.1000000E+04  0.7546771E-02  0.8684367E-01
        -11   -1    0    0    0    0  0.00000000000E+00  0.00000000000E+00  0.50000000000E+03  0.50000000000E+03  0.00000000000E+00 0. -1.
         11   -1    0    0    0    0 -0.00000000000E+00 -0.00000000000E+00 -0.50000000000E+03  0.50000000000E+03  0.00000000000E+00 0.  1.
         23    2    1    2    0    0  0.47363513650E+02 -0.54833542988E+02 -0.58328865038E+02  0.13110335343E+03  0.92389463267E+02 0.  0.
        -11    1    3    3    0    0  0.12670658312E+02 -0.30584972888E+02 -0.77771383425E+02  0.84524400196E+02  0.00000000000E+00 0. -1.
         11    1    3    3    0    0  0.34692855338E+02 -0.24248570100E+02  0.19442518387E+02  0.46578953237E+02  0.00000000000E+00 0.  1.
        -15    1    1    2    0    0 -0.25922303429E+03  0.26477275564E+03  0.30650513631E+03  0.48088434155E+03  0.17770000000E+01 0. -1.
         15    1    1    2    0    0  0.21185952064E+03 -0.20993921265E+03 -0.24817627127E+03  0.38801230502E+03  0.17770000000E+01 0.  1.
</event>
<event>
 7    1  0.3474777E-008  0.8059206E+03  0.7546771E-02  0.8894916E-01
        -11   -1    0    0    0    0  0.00000000000E+00  0.00000000000E+00  0.50000000000E+03  0.50000000000E+03  0.00000000000E+00 0.  1.
         11   -1    0    0    0    0 -0.00000000000E+00 -0.00000000000E+00 -0.50000000000E+03  0.50000000000E+03  0.00000000000E+00 0. -1.
         23    2    1    2    0    0 -0.13334602314E+03 -0.10751217706E+03  0.13553689059E+01  0.19407940685E+03  0.91241158664E+02 0.  0.
        -11    1    3    3    0    0 -0.12518820461E+03 -0.12303505132E+03 -0.45206594332E+01  0.17558515538E+03  0.00000000000E+00 0.  1.
         11    1    3    3    0    0 -0.81578185324E+01  0.15522874261E+02  0.58760283391E+01  0.18494251473E+02  0.00000000000E+00 0. -1.
        -15    1    1    2    0    0  0.14654734254E+02  0.44640199936E+03 -0.95699833234E+01  0.44674852946E+03  0.17770000000E+01 0.  1.
         15    1    1    2    0    0  0.11869128889E+03 -0.33888982230E+03  0.82146144175E+01  0.35917206369E+03  0.17770000000E+01 0. -1.
</event>
<event>
 7    1  0.3474777E-008  0.8074463E+03  0.7546771E-02  0.8893026E-01
        -11   -1    0    0    0    0  0.00000000000E+00  0.00000000000E+00  0.50000000000E+03  0.50000000000E+03  0.00000000000E+00 0. -1.
         11   -1    0    0    0    0 -0.00000000000E+00 -0.00000000000E+00 -0.50000000000E+03  0.50000000000E+03  0.00000000000E+00 0.  1.
         23    2    1    2    0    0  0.10928328760E+03 -0.10492459771E+03  0.86839582358E+02  0.19255372468E+03  0.81140715238E+02 0.  0.
        -11    1    3    3    0    0  0.10098574731E+03 -0.11808153643E+03  0.84369963407E+02  0.17680401899E+03  0.00000000000E+00 0. -1.
         11    1    3    3    0    0  0.82975402894E+01  0.13156938722E+02  0.24696189507E+01  0.15749705685E+02  0.00000000000E+00 0.  1.
        -15    1    1    2    0    0 -0.30434654786E+03 -0.17695957224E+03  0.15830451772E+03  0.38601164421E+03  0.17770000000E+01 0. -1.
         15    1    1    2    0    0  0.19506326026E+03  0.28188416995E+03 -0.24514410008E+03  0.42143463112E+03  0.17770000000E+01 0.  1.
</event>
<event>
 7    1  0.3474777E-008  0.1000000E+04  0.7546771E-02  0.8684367E-01
        -11   -1    0    0    0    0  0.00000000000E+00  0.00000000000E+00  0.50000000000E+03  0.50000000000E+03  0.00000000000E+00 0.  1.
         11   -1    0    0    0    0 -0.00000000000E+00 -0.00000000000E+00 -0.50000000000E+03  0.50000000000E+03  0.00000000000E+00 0. -1.
         23    2    1    2    0    0 -0.68782768629E+02  0.31397700513E+02  0.12304644702E+03  0.17195069533E+03  0.93325926955E+02 0.  0.
        -11    1    3    3    0    0  0.13970922875E+02 -0.97991687473E+01 -0.11778749207E+01  0.17105489863E+02  0.00000000000E+00 0. -1.
         11    1    3    3    0    0 -0.82753691504E+02  0.41196869260E+02  0.12422432194E+03  0.15484520546E+03  0.00000000000E+00 0.  1.
        -15    1    1    2    0    0  0.60355465821E+01  0.92688023135E+02 -0.45697519034E+03  0.46632282785E+03  0.17770000000E+01 0. -1.
         15    1    1    2    0    0  0.62747222047E+02 -0.12408572365E+03  0.33392874333E+03  0.36172647683E+03  0.17770000000E+01 0.  1.
</event>
