<event>
 7    1  0.4166661E-008  0.2380455E+03  0.7546771E-02  0.1031227E+00
        -11   -1    0    0    0    0  0.00000000000E+00  0.00000000000E+00  0.18250000000E+03  0.18250000000E+03  0.00000000000E+00 0. -1.
         11   -1    0    0    0    0 -0.00000000000E+00 -0.00000000000E+00 -0.18250000000E+03  0.18250000000E+03  0.00000000000E+00 0.  1.
         23    2    1    2    0    0  0.29731356414E+02  0.56245539054E+02  0.60182908708E+02  0.12695450363E+03  0.91912726398E+02 0.  0.
        -11    1    3    3    0    0  0.19896209353E+02 -0.30660430003E+01 -0.18900213496E+02  0.27613001222E+02  0.00000000000E+00 0.  1.
         11    1    3    3    0    0  0.98351470615E+01  0.59311582054E+02  0.79083122204E+02  0.99341502410E+02  0.00000000000E+00 0. -1.
        -15    1    1    2    0    0  0.44917359955E+02  0.54505869624E+02 -0.75732667803E+02  0.10357149101E+03  0.17770000000E+01 0. -1.
         15    1    1    2    0    0 -0.74648716370E+02 -0.11075140868E+03  0.15549759094E+02  0.13447400536E+03  0.17770000000E+01 0.  1.
</event>
<event>
 7    1  0.4166661E-008  0.3650000E+03  0.7546771E-02  0.9765871E-01
        -11   -1    0    0    0    0  0.00000000000E+00  0.00000000000E+00  0.18250000000E+03  0.18250000000E+03  0.00000000000E+00 0.  1.
         11   -1    0    0    0    0 -0.00000000000E+00 -0.00000000000E+00 -0.18250000000E+03  0.18250000000E+03  0.00000000000E+00 0. -1.
         23    2    1    2    0    0 -0.15025090039E+02 -0.94091581145E+01  0.24454793066E+02  0.95840840126E+02  0.90956825720E+02 0.  0.
        -11    1    3    3    0    0 -0.49063085973E+02 -0.10371323143E+02 -0.55530610953E+01  0.50453812903E+02  0.00000000000E+00 0. -1.
         11    1    3    3    0    0  0.34037995934E+02  0.96216502807E+00  0.30007854161E+02  0.45387027223E+02  0.00000000000E+00 0.  1.
        -15    1    1    2    0    0  0.43543089415E+02 -0.82305379561E+02  0.83195791155E+02  0.12487943600E+03  0.17770000000E+01 0.  1.
         15    1    1    2    0    0 -0.28517999377E+02  0.91714537675E+02 -0.10765058422E+03  0.14427972388E+03  0.17770000000E+01 0. -1.
</event>
<event>
 7    1  0.4166661E-008  0.2647295E+03  0.7546771E-02  0.1017071E+00
        -11   -1    0    0    0    0  0.00000000000E+00  0.00000000000E+00  0.18250000000E+03  0.18250000000E+03  0.00000000000E+00 0.  1.
         11   -1    0    0    0    0 -0.00000000000E+00 -0.00000000000E+00 -0.18250000000E+03  0.18250000000E+03  0.00000000000E+00 0. -1.
         23    2    1    2    0    0 -0.11543126354E+02 -0.30277540819E+02  0.23746568436E+02  0.10027045660E+03  0.91871060240E+02 0.  0.
        -11    1    3    3    0    0 -0.17493118635E+02 -0.58399672419E+02  0.33937045622E+02  0.69772874412E+02  0.00000000000E+00 0. -1.
         11    1    3    3    0    0  0.59499922805E+01  0.28122131599E+02 -0.10190477187E+02  0.30497582185E+02  0.00000000000E+00 0.  1.
        -15    1    1    2    0    0  0.30551955590E+02  0.98806283880E+02  0.85610644000E+02  0.13427004066E+03  0.17770000000E+01 0.  1.
         15    1    1    2    0    0 -0.19008829236E+02 -0.68528743061E+02 -0.10935721244E+03  0.13045950274E+03  0.17770000000E+01 0. -1.
</event>
<event>
 7    1  0.4166661E-008  0.2448230E+03  0.7546771E-02  0.1027448E+00
        -11   -1    0    0    0    0  0.00000000000E+00  0.00000000000E+00  0.18250000000E+03  0.18250000000E+03  0.00000000000E+00 0. -1.
         11   -1    0    0    0    0 -0.00000000000E+00 -0.00000000000E+00 -0.18250000000E+03  0.18250000000E+03  0.00000000000E+00 0.  1.
         23    2    1    2    0    0 -0.69584903095E+01 -0.40660045940E+02 -0.68903980064E+02  0.12017697274E+03  0.89404062457E+02 0.  0.
        -11    1    3    3    0    0 -0.43983205970E+02 -0.21006449111E+02 -0.60036526111E+02  0.77331609186E+02  0.00000000000E+00 0.  1.
         11    1    3    3    0    0  0.37024715661E+02 -0.19653596829E+02 -0.88674539524E+01  0.42845363550E+02  0.00000000000E+00 0. -1.
        -15    1    1    2    0    0  0.31214537909E+02 -0.93377118299E+02  0.34249453061E+02  0.10425841147E+03  0.17770000000E+01 0. -1.
         15    1    1    2    0    0 -0.24256047599E+02  0.13403716424E+03  0.34654527002E+02  0.14056461579E+03  0.17770000000E+01 0.  1.
</event>
<event>
 7    1  0.4166661E-008  0.2599740E+03  0.7546771E-02  0.1019458E+00
        -11   -1    0    0    0    0  0.00000000000E+00  0.00000000000E+00  0.18250000000E+03  0.18250000000E+03  0.00000000000E+00 0.  1.
         11   -1    0    0    0    0 -0.00000000000E+00 -0.00000000000E+00 -0.18250000000E+03  0.18250000000E+03  0.00000000000E+00 0. -1.
         23    2    1    2    0    0  0.54671909459E+01  0.56147204510E+02  0.20982436322E+02  0.10502598590E+03  0.86068555982E+02 0.  0.
        -11    1    3    3    0    0  0.33377264912E+02  0.63131195279E+02  0.25651884438E+02  0.75878908832E+02  0.00000000000E+00 0. -1.
         11    1    3    3    0    0 -0.27910073966E+02 -0.69839907688E+01 -0.46694481154E+01  0.29147077067E+02  0.00000000000E+00 0.  1.
        -15    1    1    2    0    0  0.91795971967E+02  0.25593658783E+02  0.56838335771E+02  0.11097427622E+03  0.17770000000E+01 0.  1.
         15    1    1    2    0    0 -0.97263162913E+02 -0.81740863294E+02 -0.77820772093E+02  0.14899973789E+03  0.17770000000E+01 0. -1.
</event>
<event>
 7    1  0.4166661E-008  0.3650000E+03  0.7546771E-02  0.9765871E-01
        -11   -1    0    0    0    0  0.00000000000E+00  0.00000000000E+00  0.18250000000E+03  0.18250000000E+03  0.00000000000E+00 0. -1.
         11   -1    0    0    0    0 -0.00000000000E+00 -0.00000000000E+00 -0.18250000000E+03  0.18250000000E+03  0.00000000000E+00 0.  1.
         23    2    1    2    0    0  0.92012350848E+02 -0.42599276965E+02  0.62981858140E+02  0.15092241097E+03  0.92357395867E+02 0.  0.
        -11    1    3    3    0    0  0.24649983132E+02 -0.16934705641E+02 -0.23717618384E+02  0.38169770046E+02  0.00000000000E+00 0.  1.
         11    1    3    3    0    0  0.67362367716E+02 -0.25664571324E+02  0.86699476524E+02  0.11275264092E+03  0.00000000000E+00 0. -1.
        -15    1    1    2    0    0  0.43203653322E+02  0.30079759531E+02  0.18351889567E+02  0.55779002980E+02  0.17770000000E+01 0. -1.
         15    1    1    2    0    0 -0.13521600417E+03  0.12519517434E+02 -0.81333747707E+02  0.15829858605E+03  0.17770000000E+01 0.  1.
</event>
<event>
 7    1  0.4166661E-008  0.2333900E+03  0.7546771E-02  0.1033903E+00
        -11   -1    0    0    0    0  0.00000000000E+00  0.00000000000E+00  0.18250000000E+03  0.18250000000E+03  0.00000000000E+00 0. -1.
         11   -1    0    0    0    0 -0.00000000000E+00 -0.00000000000E+00 -0.18250000000E+03  0.18250000000E+03  0.00000000000E+00 0.  1.
         23    2    1    2    0    0 -0.22232597753E+02 -0.27032685147E+02  0.89569380549E+02  0.13161002705E+03  0.89852494791E+02 0.  0.
        -11    1    3    3    0    0 -0.47488768699E+02 -0.12388742536E+02  0.14672733233E+02  0.51224537037E+02  0.00000000000E+00 0.  1.
         11    1    3    3    0    0  0.25256170946E+02 -0.14643942611E+02  0.74896647316E+02  0.80385490017E+02  0.00000000000E+00 0. -1.
        -15    1    1    2    0    0 -0.12828704384E+02 -0.89710513054E+02 -0.57480599479E+02  0.10732999979E+03  0.17770000000E+01 0. -1.
         15    1    1    2    0    0  0.35061302137E+02  0.11674319820E+03 -0.32088781070E+02  0.12605997316E+03  0.17770000000E+01 0.  1.
</event>
<event>
 7    1  0.4166661E-008  0.2539003E+03  0.7546771E-02  0.1022588E+00
        -11   -1    0    0    0    0  0.00000000000E+00  0.00000000000E+00  0.18250000000E+03  0.18250000000E+03  0.00000000000E+00 0.  1.
         11   -1    0    0    0    0 -0.00000000000E+00 -0.00000000000E+00 -0.18250000000E+03  0.18250000000E+03  0.00000000000E+00 0. -1.
         23    2    1    2    0    0 -0.51605550008E+02  0.29916735070E+02 -0.35927303950E+02  0.11109970809E+03  0.86569221671E+02 0.  0.
        -11    1    3    3    0    0 -0.37065838465E+02 -0.24433829580E+02 -0.31952287709E+02  0.54697688241E+02  0.00000000000E+00 0. -1.
         11    1    3    3    0    0 -0.14539711543E+02  0.54350564650E+02 -0.39750162412E+01  0.56402019854E+02  0.00000000000E+00 0.  1.
        -15    1    1    2    0    0 -0.54629864421E+02  0.45714075171E+02  0.88207516319E+02  0.11339277940E+03  0.17770000000E+01 0.  1.
         15    1    1    2    0    0  0.10623541443E+03 -0.75630810241E+02 -0.52280212369E+02  0.14050751251E+03  0.17770000000E+01 0. -1.
</event>
<event>
 7    1  0.4166661E-008  0.1842300E+03  0.7546771E-02  0.1067086E+00
        -11   -1    0    0    0    0  0.00000000000E+00  0.00000000000E+00  0.18250000000E+03  0.18250000000E+03  0.00000000000E+00 0. -1.
         11   -1    0    0    0    0 -0.00000000000E+00 -0.00000000000E+00 -0.18250000000E+03  0.18250000000E+03  0.00000000000E+00 0.  1.
         23    2    1    2    0    0 -0.34887696663E+02 -0.98245931358E+02 -0.12436078374E+03  0.18423001406E+03  0.87210544895E+02 0.  0.
        -11    1    3    3    0    0 -0.51187690764E+02 -0.10551205897E+03 -0.11421669654E+03  0.16370225424E+03  0.00000000000E+00 0.  1.
         11    1    3    3    0    0  0.16299994101E+02  0.72661276115E+01 -0.10144087196E+02  0.20527759820E+02  0.00000000000E+00 0. -1.
        -15    1    1    2    0    0 -0.75245087075E+01 -0.11258198345E+02  0.15115951940E+02  0.20371916780E+02  0.17770000000E+01 0.  1.
         15    1    1    2    0    0  0.42412205371E+02  0.10950412970E+03  0.10924483180E+03  0.16039806916E+03  0.17770000000E+01 0. -1.
</event>
<event>
 7    1  0.4166661E-008  0.3650000E+03  0.7546771E-02  0.9765871E-01
        -11   -1    0    0    0    0  0.00000000000E+00  0.00000000000E+00  0.18250000000E+03  0.18250000000E+03  0.00000000000E+00 0.  1.
         11   -1    0    0    0    0 -0.00000000000E+00 -0.00000000000E+00 -0.18250000000E+03  0.18250000000E+03  0.00000000000E+00 0. -1.
         23    2    1    2    0    0 -0.18437658985E+02  0.51263999823E+02  0.52627321344E+02  0.11224136703E+03  0.82828404394E+02 0.  0.
        -11    1    3    3    0    0 -0.31040180731E+02 -0.12879413291E+02  0.20942903557E+02  0.39597693316E+02  0.00000000000E+00 0. -1.
         11    1    3    3    0    0  0.12602521746E+02  0.64143413115E+02  0.31684417787E+02  0.72643673716E+02  0.00000000000E+00 0.  1.
        -15    1    1    2    0    0  0.14036183764E+02  0.35319642973E+02  0.83271128004E+02  0.91551789292E+02  0.17770000000E+01 0.  1.
         15    1    1    2    0    0  0.44014752209E+01 -0.86583642796E+02 -0.13589844935E+03  0.16120684368E+03  0.17770000000E+01 0. -1.
</event>
<event>
 7    1  0.4166661E-008  0.3650000E+03  0.7546771E-02  0.9765871E-01
        -11   -1    0    0    0    0  0.00000000000E+00  0.00000000000E+00  0.18250000000E+03  0.18250000000E+03  0.00000000000E+00 0.  1.
         11   -1    0    0    0    0 -0.00000000000E+00 -0.00000000000E+00 -0.18250000000E+03  0.18250000000E+03  0.00000000000E+00 0. -1.
         23    2    1    2    0    0 -0.49206155696E+02  0.80571029697E+02  0.48276698979E+02  0.14012566936E+03  0.91605823862E+02 0.  0.
        -11    1    3    3    0    0 -0.48227037158E+02  0.90460019297E+02  0.64488934988E+02  0.12111021815E+03  0.00000000000E+00 0.  1.
         11    1    3    3    0    0 -0.97911853728E+00 -0.98889896004E+01 -0.16212236009E+02  0.19015451213E+02  0.00000000000E+00 0. -1.
        -15    1    1    2    0    0 -0.48967534622E+02  0.40439977228E+02 -0.90185708011E+01  0.64169334993E+02  0.17770000000E+01 0.  1.
         15    1    1    2    0    0  0.98173690318E+02 -0.12101100693E+03 -0.39258128178E+02  0.16070499564E+03  0.17770000000E+01 0. -1.
</event>
<event>
 7    1  0.4166661E-008  0.3650000E+03  0.7546771E-02  0.9765871E-01
        -11   -1    0    0    0    0  0.00000000000E+00  0.00000000000E+00  0.18250000000E+03  0.18250000000E+03  0.00000000000E+00 0.  1.
         11   -1    0    0    0    0 -0.00000000000E+00 -0.00000000000E+00 -0.18250000000E+03  0.18250000000E+03  0.00000000000E+00 0. -1.
         23    2    1    2    0    0 -0.66517290538E+02 -0.27104702845E+02  0.16494977253E+02  0.11039724967E+03  0.82196433036E+02 0.  0.
        -11    1    3    3    0    0  0.92570128831E+00  0.24323050965E+02  0.33056297604E+01  0.24564098177E+02  0.00000000000E+00 0. -1.
         11    1    3    3    0    0 -0.67442991827E+02 -0.51427753810E+02  0.13189347493E+02  0.85833151496E+02  0.00000000000E+00 0.  1.
        -15    1    1    2    0    0 -0.16922234577E+02 -0.25725339981E+02  0.98380031886E+02  0.10310161756E+03  0.17770000000E+01 0.  1.
         15    1    1    2    0    0  0.83439525115E+02  0.52830042825E+02 -0.11487500914E+03  0.15150113277E+03  0.17770000000E+01 0. -1.
</event>
<event>
 7    1  0.4166661E-008  0.3650000E+03  0.7546771E-02  0.9765871E-01
        -11   -1    0    0    0    0  0.00000000000E+00  0.00000000000E+00  0.18250000000E+03  0.18250000000E+03  0.00000000000E+00 0.  1.
         11   -1    0    0    0    0 -0.00000000000E+00 -0.00000000000E+00 -0.18250000000E+03  0.18250000000E+03  0.00000000000E+00 0. -1.
         23    2    1    2    0    0 -0.40218604667E+02 -0.37402086685E+02  0.98822144094E+02  0.14656232590E+03  0.93264392780E+02 0.  0.
        -11    1    3    3    0    0  0.46440554797E+01 -0.37270423219E+02 -0.51742613404E+00  0.37562207444E+02  0.00000000000E+00 0. -1.
         11    1    3    3    0    0 -0.44862660146E+02 -0.13166346517E+00  0.99339570228E+02  0.10900011846E+03  0.00000000000E+00 0.  1.
        -15    1    1    2    0    0  0.23286242598E+02  0.13863116540E+02  0.55295958649E+02  0.61605485685E+02  0.17770000000E+01 0.  1.
         15    1    1    2    0    0  0.16932362069E+02  0.23538970145E+02 -0.15411810274E+03  0.15683218841E+03  0.17770000000E+01 0. -1.
</event>
<event>
 7    1  0.4166661E-008  0.3650000E+03  0.7546771E-02  0.9765871E-01
        -11   -1    0    0    0    0  0.00000000000E+00  0.00000000000E+00  0.18250000000E+03  0.18250000000E+03  0.00000000000E+00 0.  1.
         11   -1    0    0    0    0 -0.00000000000E+00 -0.00000000000E+00 -0.18250000000E+03  0.18250000000E+03  0.00000000000E+00 0. -1.
         23    2    1    2    0    0 -0.16393733438E+02 -0.15755660600E+02  0.58950453496E+02  0.10997069655E+03  0.90007792968E+02 0.  0.
        -11    1    3    3    0    0  0.16947315372E+02  0.17725845845E+02  0.57708966047E+02  0.62703603337E+02  0.00000000000E+00 0. -1.
         11    1    3    3    0    0 -0.33341048810E+02 -0.33481506445E+02  0.12414874495E+01  0.47267093212E+02  0.00000000000E+00 0.  1.
        -15    1    1    2    0    0 -0.52665164857E+02  0.27844247870E+02  0.79777628001E+02  0.99581872785E+02  0.17770000000E+01 0.  1.
         15    1    1    2    0    0  0.69058898295E+02 -0.12088587270E+02 -0.13872808150E+03  0.15544743067E+03  0.17770000000E+01 0. -1.
</event>
<event>
 7    1  0.4166661E-008  0.2220117E+03  0.7546771E-02  0.1040738E+00
        -11   -1    0    0    0    0  0.00000000000E+00  0.00000000000E+00  0.18250000000E+03  0.18250000000E+03  0.00000000000E+00 0.  1.
         11   -1    0    0    0    0 -0.00000000000E+00 -0.00000000000E+00 -0.18250000000E+03  0.18250000000E+03  0.00000000000E+00 0. -1.
         23    2    1    2    0    0 -0.74421939812E+02  0.20235033743E+02 -0.78780118785E+02  0.14298826224E+03  0.91056324917E+02 0.  0.
        -11    1    3    3    0    0 -0.61953582528E+02  0.39477193265E+02 -0.14685148470E+02  0.74915610935E+02  0.00000000000E+00 0. -1.
         11    1    3    3    0    0 -0.12468357285E+02 -0.19242159522E+02 -0.64094970315E+02  0.68072651308E+02  0.00000000000E+00 0.  1.
        -15    1    1    2    0    0  0.84919241024E+02  0.66937480494E+02  0.66170314266E+01  0.10834595805E+03  0.17770000000E+01 0.  1.
         15    1    1    2    0    0 -0.10497301212E+02 -0.87172514238E+02  0.72163087358E+02  0.11366577971E+03  0.17770000000E+01 0. -1.
</event>
<event>
 7    1  0.4166661E-008  0.2231048E+03  0.7546771E-02  0.1040063E+00
        -11   -1    0    0    0    0  0.00000000000E+00  0.00000000000E+00  0.18250000000E+03  0.18250000000E+03  0.00000000000E+00 0.  1.
         11   -1    0    0    0    0 -0.00000000000E+00 -0.00000000000E+00 -0.18250000000E+03  0.18250000000E+03  0.00000000000E+00 0. -1.
         23    2    1    2    0    0  0.39227961981E+02  0.47237635018E+02  0.89777762866E+02  0.14189516947E+03  0.91126095327E+02 0.  0.
        -11    1    3    3    0    0 -0.22402961260E+02 -0.51586184437E+01  0.42178126130E+02  0.48036427232E+02  0.00000000000E+00 0.  1.
         11    1    3    3    0    0  0.61630923241E+02  0.52396253462E+02  0.47599636736E+02  0.93858742234E+02  0.00000000000E+00 0. -1.
        -15    1    1    2    0    0 -0.10638590016E+03  0.16146269987E+02 -0.25563539203E+02  0.11061335386E+03  0.17770000000E+01 0.  1.
         15    1    1    2    0    0  0.67157938177E+02 -0.63383905006E+02 -0.64214223663E+02  0.11249147667E+03  0.17770000000E+01 0. -1.
</event>
<event>
 7    1  0.4166661E-008  0.2287862E+03  0.7546771E-02  0.1036617E+00
        -11   -1    0    0    0    0  0.00000000000E+00  0.00000000000E+00  0.18250000000E+03  0.18250000000E+03  0.00000000000E+00 0. -1.
         11   -1    0    0    0    0 -0.00000000000E+00 -0.00000000000E+00 -0.18250000000E+03  0.18250000000E+03  0.00000000000E+00 0.  1.
         23    2    1    2    0    0  0.91264815748E+02  0.64428707565E+01 -0.42543397948E+02  0.13621378089E+03  0.91506700396E+02 0.  0.
        -11    1    3    3    0    0  0.19318681959E+02 -0.60546511971E+01 -0.58121978589E+02  0.61547011860E+02  0.00000000000E+00 0.  1.
         11    1    3    3    0    0  0.71946133789E+02  0.12497521954E+02  0.15578580641E+02  0.74666769027E+02  0.00000000000E+00 0. -1.
        -15    1    1    2    0    0  0.14938157915E+02  0.54934741199E+02  0.82071277999E+02  0.99899082848E+02  0.17770000000E+01 0. -1.
         15    1    1    2    0    0 -0.10620297366E+03 -0.61377611956E+02 -0.39527880051E+02  0.12888713627E+03  0.17770000000E+01 0.  1.
</event>
<event>
 7    1  0.4166661E-008  0.1842825E+03  0.7546771E-02  0.1067045E+00
        -11   -1    0    0    0    0  0.00000000000E+00  0.00000000000E+00  0.18250000000E+03  0.18250000000E+03  0.00000000000E+00 0. -1.
         11   -1    0    0    0    0 -0.00000000000E+00 -0.00000000000E+00 -0.18250000000E+03  0.18250000000E+03  0.00000000000E+00 0.  1.
         23    2    1    2    0    0  0.58996859506E+02  0.11397613226E+03 -0.88835379197E+02  0.18071754356E+03  0.91081929036E+02 0.  0.
        -11    1    3    3    0    0  0.12886687976E+02  0.84609779472E+02 -0.12005388258E+02  0.86423439278E+02  0.00000000000E+00 0. -1.
         11    1    3    3    0    0  0.46110171530E+02  0.29366352785E+02 -0.76829990939E+02  0.94294104281E+02  0.00000000000E+00 0.  1.
        -15    1    1    2    0    0 -0.26424749121E+02 -0.12434183279E+03  0.67337543204E+02  0.14386334210E+03  0.17770000000E+01 0. -1.
         15    1    1    2    0    0 -0.32572110385E+02  0.10365700533E+02  0.21497835992E+02  0.40419114338E+02  0.17770000000E+01 0.  1.
</event>
<event>
 7    1  0.4166661E-008  0.1830276E+03  0.7546771E-02  0.1068036E+00
        -11   -1    0    0    0    0  0.00000000000E+00  0.00000000000E+00  0.18250000000E+03  0.18250000000E+03  0.00000000000E+00 0. -1.
         11   -1    0    0    0    0 -0.00000000000E+00 -0.00000000000E+00 -0.18250000000E+03  0.18250000000E+03  0.00000000000E+00 0.  1.
         23    2    1    2    0    0  0.36089320027E+02  0.66956460365E+01  0.15564702462E+03  0.18302759750E+03  0.89027155854E+02 0.  0.
        -11    1    3    3    0    0 -0.11482837077E+02  0.10600047444E+02 -0.42197621334E+01  0.16187122833E+02  0.00000000000E+00 0.  1.
         11    1    3    3    0    0  0.47572157104E+02 -0.39044014075E+01  0.15986678675E+03  0.16684047467E+03  0.00000000000E+00 0. -1.
        -15    1    1    2    0    0 -0.43506307252E+02  0.16193248899E+02 -0.15022544721E+03  0.15724459545E+03  0.17770000000E+01 0.  1.
         15    1    1    2    0    0  0.74169872250E+01 -0.22888894936E+02 -0.54215774106E+01  0.24727807050E+02  0.17770000000E+01 0. -1.
</event>
<event>
 7    1  0.4166661E-008  0.3650000E+03  0.7546771E-02  0.9765871E-01
        -11   -1    0    0    0    0  0.00000000000E+00  0.00000000000E+00  0.18250000000E+03  0.18250000000E+03  0.00000000000E+00 0.  1.
         11   -1    0    0    0    0 -0.00000000000E+00 -0.00000000000E+00 -0.18250000000E+03  0.18250000000E+03  0.00000000000E+00 0. -1.
         23    2    1    2    0    0 -0.89803897036E+02 -0.63235530312E+02  0.32973278410E+02  0.14674814511E+03  0.91565871299E+02 0.  0.
        -11    1    3    3    0    0 -0.59787489029E+02  0.28577409226E+01 -0.12423867521E+02  0.61131522243E+02  0.00000000000E+00 0.  1.
         11    1    3    3    0    0 -0.30016408007E+02 -0.66093271234E+02  0.45397145930E+02  0.85616622865E+02  0.00000000000E+00 0. -1.
        -15    1    1    2    0    0  0.81894460372E+02  0.10796691916E+03 -0.76237123881E+02  0.15549538598E+03  0.17770000000E+01 0. -1.
         15    1    1    2    0    0  0.79094366641E+01 -0.44731388851E+02  0.43263845471E+02  0.62756468916E+02  0.17770000000E+01 0.  1.
</event>
<event>
 7    1  0.4166661E-008  0.1910524E+03  0.7546771E-02  0.1061844E+00
        -11   -1    0    0    0    0  0.00000000000E+00  0.00000000000E+00  0.18250000000E+03  0.18250000000E+03  0.00000000000E+00 0. -1.
         11   -1    0    0    0    0 -0.00000000000E+00 -0.00000000000E+00 -0.18250000000E+03  0.18250000000E+03  0.00000000000E+00 0.  1.
         23    2    1    2    0    0 -0.83993539288E+02 -0.11550793312E+03  0.38462637402E+02  0.17394760937E+03  0.91549981284E+02 0.  0.
        -11    1    3    3    0    0 -0.67931734982E+01  0.14260876999E+02 -0.54264545068E+01  0.16702282104E+02  0.00000000000E+00 0.  1.
         11    1    3    3    0    0 -0.77200365790E+02 -0.12976881012E+03  0.43889091908E+02  0.15724532726E+03  0.00000000000E+00 0. -1.
        -15    1    1    2    0    0  0.38739024120E+02 -0.19568867858E+02 -0.18422987729E+02  0.47182801791E+02  0.17770000000E+01 0. -1.
         15    1    1    2    0    0  0.45254515168E+02  0.13507680098E+03 -0.20039649673E+02  0.14386958884E+03  0.17770000000E+01 0.  1.
</event>
<event>
 7    1  0.4166661E-008  0.2517597E+03  0.7546771E-02  0.1023714E+00
        -11   -1    0    0    0    0  0.00000000000E+00  0.00000000000E+00  0.18250000000E+03  0.18250000000E+03  0.00000000000E+00 0.  1.
         11   -1    0    0    0    0 -0.00000000000E+00 -0.00000000000E+00 -0.18250000000E+03  0.18250000000E+03  0.00000000000E+00 0. -1.
         23    2    1    2    0    0 -0.65886595120E+02 -0.45438282673E+01  0.61642969523E+01  0.11324029149E+03  0.91780582189E+02 0.  0.
        -11    1    3    3    0    0 -0.37066592971E+02 -0.18538528189E+02 -0.39636022621E+02  0.57346522398E+02  0.00000000000E+00 0. -1.
         11    1    3    3    0    0 -0.28820002149E+02  0.13994699922E+02  0.45800319573E+02  0.55893769088E+02  0.00000000000E+00 0.  1.
        -15    1    1    2    0    0  0.67911676965E+02  0.11902566354E+03  0.55010515503E+00  0.13704949760E+03  0.17770000000E+01 0.  1.
         15    1    1    2    0    0 -0.20250818445E+01 -0.11448183527E+03 -0.67144021073E+01  0.11471021091E+03  0.17770000000E+01 0. -1.
</event>
<event>
 7    1  0.4166661E-008  0.3650000E+03  0.7546771E-02  0.9765871E-01
        -11   -1    0    0    0    0  0.00000000000E+00  0.00000000000E+00  0.18250000000E+03  0.18250000000E+03  0.00000000000E+00 0. -1.
         11   -1    0    0    0    0 -0.00000000000E+00 -0.00000000000E+00 -0.18250000000E+03  0.18250000000E+03  0.00000000000E+00 0.  1.
         23    2    1    2    0    0  0.60387756989E+02  0.99740907863E+02  0.17203197164E+02  0.14906768274E+03  0.91270445105E+02 0.  0.
        -11    1    3    3    0    0  0.52982090851E+02  0.14778118553E+02 -0.16406331243E+02  0.57399150201E+02  0.00000000000E+00 0. -1.
         11    1    3    3    0    0  0.74056661371E+01  0.84962789310E+02  0.33609528407E+02  0.91668532540E+02  0.00000000000E+00 0.  1.
        -15    1    1    2    0    0  0.42569968452E+02  0.11447741003E+02  0.34289526682E+02  0.55876491990E+02  0.17770000000E+01 0. -1.
         15    1    1    2    0    0 -0.10295772544E+03 -0.11118864887E+03 -0.51492723846E+02  0.16005582527E+03  0.17770000000E+01 0.  1.
</event>
<event>
 7    1  0.4166661E-008  0.1926163E+03  0.7546771E-02  0.1060676E+00
        -11   -1    0    0    0    0  0.00000000000E+00  0.00000000000E+00  0.18250000000E+03  0.18250000000E+03  0.00000000000E+00 0.  1.
         11   -1    0    0    0    0 -0.00000000000E+00 -0.00000000000E+00 -0.18250000000E+03  0.18250000000E+03  0.00000000000E+00 0. -1.
         23    2    1    2    0    0  0.59204595578E+02 -0.14600856095E+02 -0.13260499704E+03  0.17238365880E+03  0.91726067410E+02 0.  0.
        -11    1    3    3    0    0 -0.14333624871E+02  0.17886634428E+02 -0.59339622368E+02  0.63612697442E+02  0.00000000000E+00 0.  1.
         11    1    3    3    0    0  0.73538220450E+02 -0.32487490523E+02 -0.73265374675E+02  0.10877096135E+03  0.00000000000E+00 0. -1.
        -15    1    1    2    0    0 -0.77110528085E+02 -0.35887367636E+02  0.69738151155E+02  0.11000229158E+03  0.17770000000E+01 0.  1.
         15    1    1    2    0    0  0.17905932506E+02  0.50488223732E+02  0.62866845888E+02  0.82614049624E+02  0.17770000000E+01 0. -1.
</event>
<event>
 7    1  0.4166661E-008  0.2559268E+03  0.7546771E-02  0.1021533E+00
        -11   -1    0    0    0    0  0.00000000000E+00  0.00000000000E+00  0.18250000000E+03  0.18250000000E+03  0.00000000000E+00 0. -1.
         11   -1    0    0    0    0 -0.00000000000E+00 -0.00000000000E+00 -0.18250000000E+03  0.18250000000E+03  0.00000000000E+00 0.  1.
         23    2    1    2    0    0  0.37440884276E+02 -0.55890118865E+02 -0.30262638896E+02  0.10907317621E+03  0.80346781225E+02 0.  0.
        -11    1    3    3    0    0 -0.69669526075E+01 -0.59803817040E+02 -0.17772436458E+02  0.62776543859E+02  0.00000000000E+00 0.  1.
         11    1    3    3    0    0  0.44407836883E+02  0.39136981747E+01 -0.12490202438E+02  0.46296632351E+02  0.00000000000E+00 0. -1.
        -15    1    1    2    0    0 -0.13287089654E+03  0.10413013143E+02 -0.26540464174E+02  0.13590680615E+03  0.17770000000E+01 0. -1.
         15    1    1    2    0    0  0.95430012268E+02  0.45477105722E+02  0.56803103070E+02  0.12002001764E+03  0.17770000000E+01 0.  1.
</event>
<event>
 7    1  0.4166661E-008  0.2259245E+03  0.7546771E-02  0.1038339E+00
        -11   -1    0    0    0    0  0.00000000000E+00  0.00000000000E+00  0.18250000000E+03  0.18250000000E+03  0.00000000000E+00 0.  1.
         11   -1    0    0    0    0 -0.00000000000E+00 -0.00000000000E+00 -0.18250000000E+03  0.18250000000E+03  0.00000000000E+00 0. -1.
         23    2    1    2    0    0 -0.83393390461E+02  0.29281914445E+02  0.53526491575E+02  0.13907550358E+03  0.93086101599E+02 0.  0.
        -11    1    3    3    0    0 -0.98807286235E+02  0.41349658590E+02  0.52967512192E+02  0.11949155379E+03  0.00000000000E+00 0.  1.
         11    1    3    3    0    0  0.15413895775E+02 -0.12067744145E+02  0.55897938286E+00  0.19583949797E+02  0.00000000000E+00 0. -1.
        -15    1    1    2    0    0  0.67681592719E+02  0.74777673600E+02  0.12544462038E+02  0.10165146196E+03  0.17770000000E+01 0.  1.
         15    1    1    2    0    0  0.15711797742E+02 -0.10405958804E+03 -0.66070953613E+02  0.12427303445E+03  0.17770000000E+01 0. -1.
</event>
<event>
 7    1  0.4166661E-008  0.2014547E+03  0.7546771E-02  0.1054294E+00
        -11   -1    0    0    0    0  0.00000000000E+00  0.00000000000E+00  0.18250000000E+03  0.18250000000E+03  0.00000000000E+00 0.  1.
         11   -1    0    0    0    0 -0.00000000000E+00 -0.00000000000E+00 -0.18250000000E+03  0.18250000000E+03  0.00000000000E+00 0. -1.
         23    2    1    2    0    0  0.70569922920E+02 -0.11453045608E+03 -0.21246073441E+02  0.16354532156E+03  0.90544669519E+02 0.  0.
        -11    1    3    3    0    0  0.83159488989E+02 -0.10689851781E+03  0.26691237124E+01  0.13546186895E+03  0.00000000000E+00 0.  1.
         11    1    3    3    0    0 -0.12589566069E+02 -0.76319382642E+01 -0.23915197153E+02  0.28083452608E+02  0.00000000000E+00 0. -1.
        -15    1    1    2    0    0  0.34114194863E+02 -0.57838873568E+01 -0.15228703630E+02  0.37845776348E+02  0.17770000000E+01 0.  1.
         15    1    1    2    0    0 -0.10468411778E+03  0.12031434343E+03  0.36474777071E+02  0.16360890209E+03  0.17770000000E+01 0. -1.
</event>
<event>
 7    1  0.4166661E-008  0.2138388E+03  0.7546771E-02  0.1045929E+00
        -11   -1    0    0    0    0  0.00000000000E+00  0.00000000000E+00  0.18250000000E+03  0.18250000000E+03  0.00000000000E+00 0.  1.
         11   -1    0    0    0    0 -0.00000000000E+00 -0.00000000000E+00 -0.18250000000E+03  0.18250000000E+03  0.00000000000E+00 0.  1.
         23    2    1    2    0    0  0.21899228372E+02  0.52875678781E+02 -0.10670356475E+03  0.15116124083E+03  0.90491195098E+02 0.  0.
        -11    1    3    3    0    0 -0.10821438095E+02 -0.18696578754E+02 -0.43251173599E+01  0.22031164738E+02  0.00000000000E+00 0.  1.
         11    1    3    3    0    0  0.32720666467E+02  0.71572257534E+02 -0.10237844739E+03  0.12913007609E+03  0.00000000000E+00 0.  1.
        -15    1    1    2    0    0  0.12757954848E+02  0.57303264146E+02  0.72624410674E+02  0.93401778615E+02  0.17770000000E+01 0.  1.
         15    1    1    2    0    0 -0.34657183220E+02 -0.11017894293E+03  0.34079154074E+02  0.12043698055E+03  0.17770000000E+01 0. -1.
</event>
<event>
 7    1  0.4166661E-008  0.3650000E+03  0.7546771E-02  0.9765871E-01
        -11   -1    0    0    0    0  0.00000000000E+00  0.00000000000E+00  0.18250000000E+03  0.18250000000E+03  0.00000000000E+00 0.  1.
         11   -1    0    0    0    0 -0.00000000000E+00 -0.00000000000E+00 -0.18250000000E+03  0.18250000000E+03  0.00000000000E+00 0. -1.
         23    2    1    2    0    0  0.56683418517E+02  0.63710476722E+02 -0.95585812194E+01  0.12655736576E+03  0.93023467873E+02 0.  0.
        -11    1    3    3    0    0  0.70984635939E+00  0.26209201879E+02 -0.43748748091E+02  0.51003716575E+02  0.00000000000E+00 0. -1.
         11    1    3    3    0    0  0.55973572157E+02  0.37501274844E+02  0.34190166871E+02  0.75553649188E+02  0.00000000000E+00 0.  1.
        -15    1    1    2    0    0 -0.11882774503E+03 -0.75562014857E+02  0.64253225731E+02  0.15479433395E+03  0.17770000000E+01 0.  1.
         15    1    1    2    0    0  0.62144326510E+02  0.11851538134E+02 -0.54694644512E+02  0.83648300286E+02  0.17770000000E+01 0. -1.
</event>
<event>
 7    1  0.4166661E-008  0.2292159E+03  0.7546771E-02  0.1036360E+00
        -11   -1    0    0    0    0  0.00000000000E+00  0.00000000000E+00  0.18250000000E+03  0.18250000000E+03  0.00000000000E+00 0.  1.
         11   -1    0    0    0    0 -0.00000000000E+00 -0.00000000000E+00 -0.18250000000E+03  0.18250000000E+03  0.00000000000E+00 0. -1.
         23    2    1    2    0    0  0.42343132317E+02 -0.34156603737E+02 -0.84373993467E+02  0.13578411676E+03  0.91426151382E+02 0.  0.
        -11    1    3    3    0    0  0.65641499396E+01  0.21153226039E+02  0.69213560104E+01  0.23204572940E+02  0.00000000000E+00 0.  1.
         11    1    3    3    0    0  0.35778982378E+02 -0.55309829776E+02 -0.91295349478E+02  0.11257954382E+03  0.00000000000E+00 0. -1.
        -15    1    1    2    0    0  0.77219385584E+02  0.50122514062E+02  0.43564965346E+02  0.10186345694E+03  0.17770000000E+01 0.  1.
         15    1    1    2    0    0 -0.11956251790E+03 -0.15965910325E+02  0.40809028121E+02  0.12735242630E+03  0.17770000000E+01 0. -1.
</event>
<event>
 7    1  0.4166661E-008  0.3650000E+03  0.7546771E-02  0.9765871E-01
        -11   -1    0    0    0    0  0.00000000000E+00  0.00000000000E+00  0.18250000000E+03  0.18250000000E+03  0.00000000000E+00 0.  1.
         11   -1    0    0    0    0 -0.00000000000E+00 -0.00000000000E+00 -0.18250000000E+03  0.18250000000E+03  0.00000000000E+00 0. -1.
         23    2    1    2    0    0 -0.63869154934E+02 -0.52456793828E+02  0.88379353257E+02  0.15203988287E+03  0.92055590430E+02 0.  0.
        -11    1    3    3    0    0 -0.38985579156E+01 -0.43271573791E+02  0.79671981752E+02  0.90748292152E+02  0.00000000000E+00 0.  1.
         11    1    3    3    0    0 -0.59970597019E+02 -0.91852200370E+01  0.87073715052E+01  0.61291590716E+02  0.00000000000E+00 0. -1.
        -15    1    1    2    0    0  0.48988547616E+02  0.11710825067E+03 -0.51200718716E+02  0.13689007085E+03  0.17770000000E+01 0. -1.
         15    1    1    2    0    0  0.14880607318E+02 -0.64651456840E+02 -0.37178634541E+02  0.76070046280E+02  0.17770000000E+01 0.  1.
</event>
<event>
 7    1  0.4166661E-008  0.2635616E+03  0.7546771E-02  0.1017652E+00
        -11   -1    0    0    0    0  0.00000000000E+00  0.00000000000E+00  0.18250000000E+03  0.18250000000E+03  0.00000000000E+00 0.  1.
         11   -1    0    0    0    0 -0.00000000000E+00 -0.00000000000E+00 -0.18250000000E+03  0.18250000000E+03  0.00000000000E+00 0. -1.
         23    2    1    2    0    0 -0.50377505886E+02  0.15561853111E+01 -0.21835707032E+02  0.10143841657E+03  0.85279771585E+02 0.  0.
        -11    1    3    3    0    0 -0.61768882581E+02 -0.27658950784E+02 -0.13877151839E+02  0.69086813192E+02  0.00000000000E+00 0.  1.
         11    1    3    3    0    0  0.11391376695E+02  0.29215136095E+02 -0.79585551930E+01  0.32351603373E+02  0.00000000000E+00 0. -1.
        -15    1    1    2    0    0  0.57379638685E+02 -0.12268500747E+03 -0.16149322156E+02  0.13641111512E+03  0.17770000000E+01 0.  1.
         15    1    1    2    0    0 -0.70021327986E+01  0.12112882216E+03  0.37985029188E+02  0.12715046831E+03  0.17770000000E+01 0. -1.
</event>
<event>
 7    1  0.4166661E-008  0.3650000E+03  0.7546771E-02  0.9765871E-01
        -11   -1    0    0    0    0  0.00000000000E+00  0.00000000000E+00  0.18250000000E+03  0.18250000000E+03  0.00000000000E+00 0. -1.
         11   -1    0    0    0    0 -0.00000000000E+00 -0.00000000000E+00 -0.18250000000E+03  0.18250000000E+03  0.00000000000E+00 0.  1.
         23    2    1    2    0    0  0.95671411618E+02  0.11709460165E+02 -0.51963059976E+02  0.14117991180E+03  0.89114967517E+02 0.  0.
        -11    1    3    3    0    0  0.40227562081E+02 -0.10062092304E+02  0.21413847230E+02  0.46669640086E+02  0.00000000000E+00 0. -1.
         11    1    3    3    0    0  0.55443849536E+02  0.21771552469E+02 -0.73376907206E+02  0.94510271714E+02  0.00000000000E+00 0.  1.
        -15    1    1    2    0    0 -0.13477781476E+03 -0.65269713786E+02  0.48381820887E+02  0.15738218835E+03  0.17770000000E+01 0. -1.
         15    1    1    2    0    0  0.39106403138E+02  0.53560253621E+02  0.35812390895E+01  0.66437899852E+02  0.17770000000E+01 0.  1.
</event>
<event>
 7    1  0.4166661E-008  0.3650000E+03  0.7546771E-02  0.9765871E-01
        -11   -1    0    0    0    0  0.00000000000E+00  0.00000000000E+00  0.18250000000E+03  0.18250000000E+03  0.00000000000E+00 0. -1.
         11   -1    0    0    0    0 -0.00000000000E+00 -0.00000000000E+00 -0.18250000000E+03  0.18250000000E+03  0.00000000000E+00 0.  1.
         23    2    1    2    0    0 -0.26033972793E+02  0.85416089464E+02 -0.84106447210E+02  0.15279279715E+03  0.91093733703E+02 0.  0.
        -11    1    3    3    0    0 -0.26239976194E+02  0.55926751580E+02 -0.10130420502E+03  0.11865445566E+03  0.00000000000E+00 0.  1.
         11    1    3    3    0    0  0.20600340122E+00  0.29489337884E+02  0.17197757808E+02  0.34138341493E+02  0.00000000000E+00 0. -1.
        -15    1    1    2    0    0 -0.18825510281E+02  0.47414291607E+02  0.51820209255E+01  0.51308147070E+02  0.17770000000E+01 0. -1.
         15    1    1    2    0    0  0.44859483074E+02 -0.13283038107E+03  0.78924426285E+02  0.16089905578E+03  0.17770000000E+01 0.  1.
</event>
<event>
 7    1  0.4166661E-008  0.3650000E+03  0.7546771E-02  0.9765871E-01
        -11   -1    0    0    0    0  0.00000000000E+00  0.00000000000E+00  0.18250000000E+03  0.18250000000E+03  0.00000000000E+00 0.  1.
         11   -1    0    0    0    0 -0.00000000000E+00 -0.00000000000E+00 -0.18250000000E+03  0.18250000000E+03  0.00000000000E+00 0. -1.
         23    2    1    2    0    0  0.37563840689E+02  0.88337788111E+02 -0.88051005742E+01  0.13332920784E+03  0.92111567848E+02 0.  0.
        -11    1    3    3    0    0 -0.23468169563E+02  0.59121638845E+02  0.65462500618E+01  0.63945105773E+02  0.00000000000E+00 0. -1.
         11    1    3    3    0    0  0.61032010252E+02  0.29216149266E+02 -0.15351350636E+02  0.69384102067E+02  0.00000000000E+00 0.  1.
        -15    1    1    2    0    0  0.78470272564E+02 -0.56275390523E+01  0.36094676595E+02  0.86575032657E+02  0.17770000000E+01 0.  1.
         15    1    1    2    0    0 -0.11603411325E+03 -0.82710249058E+02 -0.27289576020E+02  0.14509575950E+03  0.17770000000E+01 0. -1.
</event>
<event>
 7    1  0.4166661E-008  0.3650000E+03  0.7546771E-02  0.9765871E-01
        -11   -1    0    0    0    0  0.00000000000E+00  0.00000000000E+00  0.18250000000E+03  0.18250000000E+03  0.00000000000E+00 0. -1.
         11   -1    0    0    0    0 -0.00000000000E+00 -0.00000000000E+00 -0.18250000000E+03  0.18250000000E+03  0.00000000000E+00 0.  1.
         23    2    1    2    0    0  0.59310348293E+02  0.71378854898E+02 -0.83938529747E+02  0.15399984353E+03  0.89764228350E+02 0.  0.
        -11    1    3    3    0    0 -0.22011811142E+02  0.31395096403E+02 -0.21597056111E+02  0.44006871515E+02  0.00000000000E+00 0. -1.
         11    1    3    3    0    0  0.81322159435E+02  0.39983758495E+02 -0.62341473635E+02  0.10999297202E+03  0.00000000000E+00 0.  1.
        -15    1    1    2    0    0 -0.93651626189E+02 -0.10698871890E+03  0.48978739555E+02  0.15039710010E+03  0.17770000000E+01 0. -1.
         15    1    1    2    0    0  0.34341277895E+02  0.35609864005E+02  0.34959790192E+02  0.60603056368E+02  0.17770000000E+01 0.  1.
</event>
<event>
 7    1  0.4166661E-008  0.2005712E+03  0.7546771E-02  0.1054916E+00
        -11   -1    0    0    0    0  0.00000000000E+00  0.00000000000E+00  0.18250000000E+03  0.18250000000E+03  0.00000000000E+00 0. -1.
         11   -1    0    0    0    0 -0.00000000000E+00 -0.00000000000E+00 -0.18250000000E+03  0.18250000000E+03  0.00000000000E+00 0.  1.
         23    2    1    2    0    0  0.24404738782E+02 -0.36266247320E+02 -0.13062292556E+03  0.16442883157E+03  0.89797884166E+02 0.  0.
        -11    1    3    3    0    0 -0.43825848055E+01 -0.58836996349E+02 -0.10257574547E+03  0.11833335433E+03  0.00000000000E+00 0.  1.
         11    1    3    3    0    0  0.28787323587E+02  0.22570749028E+02 -0.28047180095E+02  0.46095477243E+02  0.00000000000E+00 0. -1.
        -15    1    1    2    0    0  0.43507002094E+02  0.58444551382E+02  0.97697214145E+02  0.12188735865E+03  0.17770000000E+01 0. -1.
         15    1    1    2    0    0 -0.67911740876E+02 -0.22178304062E+02  0.32925711418E+02  0.78683809778E+02  0.17770000000E+01 0.  1.
</event>
<event>
 7    1  0.4166661E-008  0.3650000E+03  0.7546771E-02  0.9765871E-01
        -11   -1    0    0    0    0  0.00000000000E+00  0.00000000000E+00  0.18250000000E+03  0.18250000000E+03  0.00000000000E+00 0. -1.
         11   -1    0    0    0    0 -0.00000000000E+00 -0.00000000000E+00 -0.18250000000E+03  0.18250000000E+03  0.00000000000E+00 0.  1.
         23    2    1    2    0    0 -0.10456624657E+02 -0.22935733191E+02  0.11955609374E+03  0.15163230427E+03  0.89795920242E+02 0.  0.
        -11    1    3    3    0    0  0.38695618374E+02 -0.62041957345E+01  0.35754033397E+02  0.53048975770E+02  0.00000000000E+00 0.  1.
         11    1    3    3    0    0 -0.49152243031E+02 -0.16731537456E+02  0.83802060347E+02  0.98583328505E+02  0.00000000000E+00 0. -1.
        -15    1    1    2    0    0 -0.25637966946E+02 -0.59521014609E+02 -0.14332978960E+01  0.64848042384E+02  0.17770000000E+01 0. -1.
         15    1    1    2    0    0  0.36094591603E+02  0.82456747799E+02 -0.11812279585E+03  0.14851965334E+03  0.17770000000E+01 0.  1.
</event>
<event>
 7    1  0.4166661E-008  0.3650000E+03  0.7546771E-02  0.9765871E-01
        -11   -1    0    0    0    0  0.00000000000E+00  0.00000000000E+00  0.18250000000E+03  0.18250000000E+03  0.00000000000E+00 0.  1.
         11   -1    0    0    0    0 -0.00000000000E+00 -0.00000000000E+00 -0.18250000000E+03  0.18250000000E+03  0.00000000000E+00 0. -1.
         23    2    1    2    0    0  0.16764757203E+02 -0.11099282682E+03  0.28999314404E+02  0.14462113707E+03  0.86451421982E+02 0.  0.
        -11    1    3    3    0    0  0.18668100514E+02 -0.12292013261E+03  0.13631082583E+02  0.12507463128E+03  0.00000000000E+00 0.  1.
         11    1    3    3    0    0 -0.19033433111E+01  0.11927305793E+02  0.15368231821E+02  0.19546505789E+02  0.00000000000E+00 0. -1.
        -15    1    1    2    0    0 -0.10958190645E+01 -0.52891783957E+02 -0.15645016161E+02  0.55196611211E+02  0.17770000000E+01 0.  1.
         15    1    1    2    0    0 -0.15668938139E+02  0.16388461078E+03 -0.13354298244E+02  0.16518225172E+03  0.17770000000E+01 0. -1.
</event>
<event>
 7    1  0.4166661E-008  0.3650000E+03  0.7546771E-02  0.9765871E-01
        -11   -1    0    0    0    0  0.00000000000E+00  0.00000000000E+00  0.18250000000E+03  0.18250000000E+03  0.00000000000E+00 0. -1.
         11   -1    0    0    0    0 -0.00000000000E+00 -0.00000000000E+00 -0.18250000000E+03  0.18250000000E+03  0.00000000000E+00 0.  1.
         23    2    1    2    0    0  0.17287057530E+02  0.80498154527E+01  0.11719596864E+03  0.14819173418E+03  0.88669347167E+02 0.  0.
        -11    1    3    3    0    0 -0.23729970231E+02  0.29395615209E+02  0.81320852179E+02  0.89667690278E+02  0.00000000000E+00 0.  1.
         11    1    3    3    0    0  0.41017027762E+02 -0.21345799756E+02  0.35875116465E+02  0.58524043905E+02  0.00000000000E+00 0. -1.
        -15    1    1    2    0    0 -0.35061067232E+01  0.78289839657E+02 -0.10869215922E+02  0.79138418999E+02  0.17770000000E+01 0. -1.
         15    1    1    2    0    0 -0.13780950807E+02 -0.86339655109E+02 -0.10632675272E+03  0.13766984682E+03  0.17770000000E+01 0.  1.
</event>
<event>
 7    1  0.4166661E-008  0.3650000E+03  0.7546771E-02  0.9765871E-01
        -11   -1    0    0    0    0  0.00000000000E+00  0.00000000000E+00  0.18250000000E+03  0.18250000000E+03  0.00000000000E+00 0.  1.
         11   -1    0    0    0    0 -0.00000000000E+00 -0.00000000000E+00 -0.18250000000E+03  0.18250000000E+03  0.00000000000E+00 0. -1.
         23    2    1    2    0    0 -0.96677453041E+02 -0.31999938815E+02  0.40943747430E+02  0.14278237278E+03  0.91322995530E+02 0.  0.
        -11    1    3    3    0    0 -0.50004963030E+02  0.28452549994E+02  0.32145566068E+02  0.65904334809E+02  0.00000000000E+00 0. -1.
         11    1    3    3    0    0 -0.46672490011E+02 -0.60452488809E+02  0.87981813612E+01  0.76878037971E+02  0.00000000000E+00 0.  1.
        -15    1    1    2    0    0 -0.26992500257E+02 -0.56443011038E+02 -0.30986477513E+02  0.69840733694E+02  0.17770000000E+01 0. -1.
         15    1    1    2    0    0  0.12366995330E+03  0.88442949854E+02 -0.99572699161E+01  0.15237689353E+03  0.17770000000E+01 0.  1.
</event>
<event>
 7    1  0.4166661E-008  0.2034943E+03  0.7546771E-02  0.1052872E+00
        -11   -1    0    0    0    0  0.00000000000E+00  0.00000000000E+00  0.18250000000E+03  0.18250000000E+03  0.00000000000E+00 0. -1.
         11   -1    0    0    0    0 -0.00000000000E+00 -0.00000000000E+00 -0.18250000000E+03  0.18250000000E+03  0.00000000000E+00 0.  1.
         23    2    1    2    0    0 -0.12679066940E+03 -0.27215596057E+02 -0.33637310842E+02  0.16150566783E+03  0.90200052909E+02 0.  0.
        -11    1    3    3    0    0  0.72250539359E+01  0.91333548756E+01 -0.18452668122E+02  0.21820186445E+02  0.00000000000E+00 0.  1.
         11    1    3    3    0    0 -0.13401572334E+03 -0.36348950933E+02 -0.15184642720E+02  0.13968548139E+03  0.00000000000E+00 0. -1.
        -15    1    1    2    0    0 -0.39671403206E+01  0.27859201193E+02 -0.43372752643E+02  0.51732259706E+02  0.17770000000E+01 0. -1.
         15    1    1    2    0    0  0.13075780972E+03 -0.64360513587E+00  0.77010063485E+02  0.15176207246E+03  0.17770000000E+01 0.  1.
</event>
<event>
 7    1  0.4166661E-008  0.3650000E+03  0.7546771E-02  0.9765871E-01
        -11   -1    0    0    0    0  0.00000000000E+00  0.00000000000E+00  0.18250000000E+03  0.18250000000E+03  0.00000000000E+00 0.  1.
         11   -1    0    0    0    0 -0.00000000000E+00 -0.00000000000E+00 -0.18250000000E+03  0.18250000000E+03  0.00000000000E+00 0. -1.
         23    2    1    2    0    0  0.20495516064E+02  0.10949156162E+03  0.33627753275E+02  0.14783878699E+03  0.91197658442E+02 0.  0.
        -11    1    3    3    0    0 -0.21562502769E+02  0.56304275280E+02  0.49720069404E+02  0.78148565194E+02  0.00000000000E+00 0.  1.
         11    1    3    3    0    0  0.42058018832E+02  0.53187286337E+02 -0.16092316128E+02  0.69690221799E+02  0.00000000000E+00 0. -1.
        -15    1    1    2    0    0  0.53423499274E+02 -0.11654435688E+02 -0.70375511834E+02  0.89139029279E+02  0.17770000000E+01 0. -1.
         15    1    1    2    0    0 -0.73919015337E+02 -0.97837125929E+02  0.36747758559E+02  0.12802218373E+03  0.17770000000E+01 0.  1.
</event>
<event>
 7    1  0.4841025E-008  0.2040936E+03  0.7546771E-02  0.1052458E+00
        -11   -1    0    0    0    0  0.00000000000E+00  0.00000000000E+00  0.18250000000E+03  0.18250000000E+03  0.00000000000E+00 0. -1.
         11   -1    0    0    0    0 -0.00000000000E+00 -0.00000000000E+00 -0.18250000000E+03  0.18250000000E+03  0.00000000000E+00 0.  1.
         23    2    1    2    0    0 -0.14346273437E+02 -0.85618707085E+01 -0.13114525388E+03  0.16090640174E+03  0.91720615537E+02 0.  0.
        -11    1    3    3    0    0 -0.21839787739E+02 -0.47657628847E+02 -0.85988207669E+02  0.10070847916E+03  0.00000000000E+00 0.  1.
         11    1    3    3    0    0  0.74935143020E+01  0.39095758139E+02 -0.45157046213E+02  0.60197922587E+02  0.00000000000E+00 0. -1.
        -15    1    1    2    0    0  0.42063150133E+02  0.20563867526E+02  0.15728133823E+03  0.16411202981E+03  0.17770000000E+01 0. -1.
         15    1    1    2    0    0 -0.27716876695E+02 -0.12001996818E+02 -0.26136084343E+02  0.39981568443E+02  0.17770000000E+01 0.  1.
</event>
<event>
 7    1  0.4166661E-008  0.2345198E+03  0.7546771E-02  0.1033247E+00
        -11   -1    0    0    0    0  0.00000000000E+00  0.00000000000E+00  0.18250000000E+03  0.18250000000E+03  0.00000000000E+00 0. -1.
         11   -1    0    0    0    0 -0.00000000000E+00 -0.00000000000E+00 -0.18250000000E+03  0.18250000000E+03  0.00000000000E+00 0.  1.
         23    2    1    2    0    0 -0.50309503273E+01 -0.62854367925E+02 -0.67608029069E+02  0.13048015575E+03  0.92077377362E+02 0.  0.
        -11    1    3    3    0    0 -0.42199723704E+02 -0.56915231642E+02 -0.58174624718E+02  0.91675772343E+02  0.00000000000E+00 0. -1.
         11    1    3    3    0    0  0.37168773376E+02 -0.59391362829E+01 -0.94334043507E+01  0.38804383409E+02  0.00000000000E+00 0.  1.
        -15    1    1    2    0    0 -0.58571251628E+02  0.11050472888E+03 -0.73020748880E+01  0.12529311493E+03  0.17770000000E+01 0. -1.
         15    1    1    2    0    0  0.63602201955E+02 -0.47650360959E+02  0.74910103956E+02  0.10922672931E+03  0.17770000000E+01 0.  1.
</event>
<event>
 7    1  0.4166661E-008  0.3650000E+03  0.7546771E-02  0.9765871E-01
        -11   -1    0    0    0    0  0.00000000000E+00  0.00000000000E+00  0.18250000000E+03  0.18250000000E+03  0.00000000000E+00 0.  1.
         11   -1    0    0    0    0 -0.00000000000E+00 -0.00000000000E+00 -0.18250000000E+03  0.18250000000E+03  0.00000000000E+00 0. -1.
         23    2    1    2    0    0 -0.87247320608E+02 -0.47896409114E+02 -0.50694182247E+02  0.14652113678E+03  0.94828173301E+02 0.  0.
        -11    1    3    3    0    0 -0.67156853413E+02 -0.60153364719E+02 -0.71531431319E+02  0.11508786171E+03  0.00000000000E+00 0. -1.
         11    1    3    3    0    0 -0.20090467195E+02  0.12256955605E+02  0.20837249071E+02  0.31433275071E+02  0.00000000000E+00 0.  1.
        -15    1    1    2    0    0  0.90925959941E+02  0.11016129682E+03  0.83997759655E+01  0.14309701420E+03  0.17770000000E+01 0.  1.
         15    1    1    2    0    0 -0.36786393333E+01 -0.62264887708E+02  0.42294406282E+02  0.75381849012E+02  0.17770000000E+01 0. -1.
</event>
<event>
 7    1  0.4166661E-008  0.3650000E+03  0.7546771E-02  0.9765871E-01
        -11   -1    0    0    0    0  0.00000000000E+00  0.00000000000E+00  0.18250000000E+03  0.18250000000E+03  0.00000000000E+00 0. -1.
         11   -1    0    0    0    0 -0.00000000000E+00 -0.00000000000E+00 -0.18250000000E+03  0.18250000000E+03  0.00000000000E+00 0.  1.
         23    2    1    2    0    0 -0.67742001778E+02 -0.29120270037E+02 -0.77720438522E+02  0.13856112326E+03  0.87873485103E+02 0.  0.
        -11    1    3    3    0    0 -0.27022280665E+02 -0.37721428215E+02 -0.84492538731E+02  0.96395533611E+02  0.00000000000E+00 0.  1.
         11    1    3    3    0    0 -0.40719721113E+02  0.86011581783E+01  0.67721002092E+01  0.42165589652E+02  0.00000000000E+00 0. -1.
        -15    1    1    2    0    0  0.10482257180E+03  0.82828504981E+02  0.88505795710E+02  0.16026467608E+03  0.17770000000E+01 0. -1.
         15    1    1    2    0    0 -0.37080570020E+02 -0.53708234944E+02 -0.10785357189E+02  0.66174200657E+02  0.17770000000E+01 0.  1.
</event>
<event>
 7    1  0.4166661E-008  0.3650000E+03  0.7546771E-02  0.9765871E-01
        -11   -1    0    0    0    0  0.00000000000E+00  0.00000000000E+00  0.18250000000E+03  0.18250000000E+03  0.00000000000E+00 0. -1.
         11   -1    0    0    0    0 -0.00000000000E+00 -0.00000000000E+00 -0.18250000000E+03  0.18250000000E+03  0.00000000000E+00 0.  1.
         23    2    1    2    0    0  0.74401828740E+02 -0.54068939848E+02  0.78417908310E+02  0.15232771291E+03  0.92710740475E+02 0.  0.
        -11    1    3    3    0    0  0.26829929428E+02  0.19238301646E+01 -0.17059810920E+02  0.31852525555E+02  0.00000000000E+00 0.  1.
         11    1    3    3    0    0  0.47571899312E+02 -0.55992770013E+02  0.95477719230E+02  0.12047518735E+03  0.00000000000E+00 0. -1.
        -15    1    1    2    0    0 -0.72374892502E+02 -0.76892817539E+01 -0.11844268061E+03  0.13902904890E+03  0.17770000000E+01 0.  1.
         15    1    1    2    0    0 -0.20269362381E+01  0.61758221602E+02  0.40024772296E+02  0.73643238198E+02  0.17770000000E+01 0. -1.
</event>
<event>
 7    1  0.4166661E-008  0.2447539E+03  0.7546771E-02  0.1027485E+00
        -11   -1    0    0    0    0  0.00000000000E+00  0.00000000000E+00  0.18250000000E+03  0.18250000000E+03  0.00000000000E+00 0.  1.
         11   -1    0    0    0    0 -0.00000000000E+00 -0.00000000000E+00 -0.18250000000E+03  0.18250000000E+03  0.00000000000E+00 0. -1.
         23    2    1    2    0    0  0.40427920011E+01 -0.12531646548E+02 -0.81611375719E+02  0.12024608253E+03  0.87323063299E+02 0.  0.
        -11    1    3    3    0    0 -0.20442281789E+02  0.30493441037E+02 -0.47913832774E+02  0.60361181252E+02  0.00000000000E+00 0.  1.
         11    1    3    3    0    0  0.24485073790E+02 -0.43025087586E+02 -0.33697542945E+02  0.59884901275E+02  0.00000000000E+00 0. -1.
        -15    1    1    2    0    0 -0.27340726377E+02 -0.10186744294E+03  0.71752185225E+02  0.12757752570E+03  0.17770000000E+01 0. -1.
         15    1    1    2    0    0  0.23297934376E+02  0.11439908949E+03  0.98591904940E+01  0.11717639177E+03  0.17770000000E+01 0.  1.
</event>
<event>
 7    1  0.4166661E-008  0.3650000E+03  0.7546771E-02  0.9765871E-01
        -11   -1    0    0    0    0  0.00000000000E+00  0.00000000000E+00  0.18250000000E+03  0.18250000000E+03  0.00000000000E+00 0.  1.
         11   -1    0    0    0    0 -0.00000000000E+00 -0.00000000000E+00 -0.18250000000E+03  0.18250000000E+03  0.00000000000E+00 0. -1.
         23    2    1    2    0    0  0.21244940096E+02 -0.15777753913E+02 -0.98229005084E+02  0.13588245117E+03  0.90082285146E+02 0.  0.
        -11    1    3    3    0    0 -0.91288841258E+01  0.34002176497E+02 -0.31251133898E+02  0.47075661459E+02  0.00000000000E+00 0.  1.
         11    1    3    3    0    0  0.30373824221E+02 -0.49779930410E+02 -0.66977871186E+02  0.88806789707E+02  0.00000000000E+00 0. -1.
        -15    1    1    2    0    0  0.33581126055E+02  0.86875557290E+02  0.10339243520E+03  0.13916970887E+03  0.17770000000E+01 0.  1.
         15    1    1    2    0    0 -0.54826066151E+02 -0.71097803377E+02 -0.51634301152E+01  0.89947839964E+02  0.17770000000E+01 0. -1.
</event>
<event>
 7    1  0.4166661E-008  0.3650000E+03  0.7546771E-02  0.9765871E-01
        -11   -1    0    0    0    0  0.00000000000E+00  0.00000000000E+00  0.18250000000E+03  0.18250000000E+03  0.00000000000E+00 0.  1.
         11   -1    0    0    0    0 -0.00000000000E+00 -0.00000000000E+00 -0.18250000000E+03  0.18250000000E+03  0.00000000000E+00 0. -1.
         23    2    1    2    0    0 -0.56263581723E+02 -0.20648714019E+02  0.10888004198E+03  0.15420973611E+03  0.91289753809E+02 0.  0.
        -11    1    3    3    0    0 -0.79680036091E+02 -0.22684981223E+02  0.97950701825E+02  0.12828817760E+03  0.00000000000E+00 0.  1.
         11    1    3    3    0    0  0.23416454368E+02  0.20362672041E+01  0.10929340158E+02  0.25921558510E+02  0.00000000000E+00 0. -1.
        -15    1    1    2    0    0 -0.50063184399E+01  0.73289601018E+02  0.21024518285E+01  0.73511950555E+02  0.17770000000E+01 0.  1.
         15    1    1    2    0    0  0.61269900163E+02 -0.52640886999E+02 -0.11098249381E+03  0.13727831333E+03  0.17770000000E+01 0. -1.
</event>
<event>
 7    1  0.4166661E-008  0.3650000E+03  0.7546771E-02  0.9765871E-01
        -11   -1    0    0    0    0  0.00000000000E+00  0.00000000000E+00  0.18250000000E+03  0.18250000000E+03  0.00000000000E+00 0.  1.
         11   -1    0    0    0    0 -0.00000000000E+00 -0.00000000000E+00 -0.18250000000E+03  0.18250000000E+03  0.00000000000E+00 0. -1.
         23    2    1    2    0    0 -0.48222303801E+02 -0.27664856908E+02  0.59246698250E+02  0.12242452705E+03  0.91579794056E+02 0.  0.
        -11    1    3    3    0    0 -0.62957930046E+02 -0.41364759930E+02  0.19404200768E+02  0.77789892192E+02  0.00000000000E+00 0. -1.
         11    1    3    3    0    0  0.14735626246E+02  0.13699903022E+02  0.39842497481E+02  0.44634634862E+02  0.00000000000E+00 0.  1.
        -15    1    1    2    0    0 -0.91538243451E+02  0.26803407154E+02 -0.21431702693E+02  0.97776010649E+02  0.17770000000E+01 0.  1.
         15    1    1    2    0    0  0.13976054725E+03  0.86144975406E+00 -0.37814995557E+02  0.14479946230E+03  0.17770000000E+01 0. -1.
</event>
<event>
 7    1  0.4166661E-008  0.2030801E+03  0.7546771E-02  0.1053159E+00
        -11   -1    0    0    0    0  0.00000000000E+00  0.00000000000E+00  0.18250000000E+03  0.18250000000E+03  0.00000000000E+00 0. -1.
         11   -1    0    0    0    0 -0.00000000000E+00 -0.00000000000E+00 -0.18250000000E+03  0.18250000000E+03  0.00000000000E+00 0.  1.
         23    2    1    2    0    0  0.85626273575E+02 -0.10329031132E+03  0.54986727977E+01  0.16191987701E+03  0.90482396233E+02 0.  0.
        -11    1    3    3    0    0  0.57193199978E+01  0.12754161999E+02  0.15251167049E+02  0.20687613828E+02  0.00000000000E+00 0. -1.
         11    1    3    3    0    0  0.79906953578E+02 -0.11604447332E+03 -0.97524942517E+01  0.14123226318E+03  0.00000000000E+00 0.  1.
        -15    1    1    2    0    0 -0.19903915503E+02  0.15870643401E+02  0.67105370802E+02  0.71793674469E+02  0.17770000000E+01 0. -1.
         15    1    1    2    0    0 -0.65722358072E+02  0.87419667921E+02 -0.72604043600E+02  0.13128644852E+03  0.17770000000E+01 0.  1.
</event>
<event>
 7    1  0.4166661E-008  0.2065976E+03  0.7546771E-02  0.1050743E+00
        -11   -1    0    0    0    0  0.00000000000E+00  0.00000000000E+00  0.18250000000E+03  0.18250000000E+03  0.00000000000E+00 0.  1.
         11   -1    0    0    0    0 -0.00000000000E+00 -0.00000000000E+00 -0.18250000000E+03  0.18250000000E+03  0.00000000000E+00 0. -1.
         23    2    1    2    0    0 -0.40732915016E+02 -0.45272642047E+02 -0.11635518810E+03  0.15840243849E+03  0.88566473548E+02 0.  0.
        -11    1    3    3    0    0 -0.28614309044E+02 -0.50368102605E+02 -0.12821693212E+03  0.14069579284E+03  0.00000000000E+00 0. -1.
         11    1    3    3    0    0 -0.12118605971E+02  0.50954605585E+01  0.11861744013E+02  0.17706645646E+02  0.00000000000E+00 0.  1.
        -15    1    1    2    0    0  0.58168638411E+02  0.40808098993E+02  0.15134803542E+03  0.16720728750E+03  0.17770000000E+01 0.  1.
         15    1    1    2    0    0 -0.17435723395E+02  0.44645430536E+01 -0.34992847314E+02  0.39390274017E+02  0.17770000000E+01 0. -1.
</event>
<event>
 7    1  0.4166661E-008  0.3650000E+03  0.7546771E-02  0.9765871E-01
        -11   -1    0    0    0    0  0.00000000000E+00  0.00000000000E+00  0.18250000000E+03  0.18250000000E+03  0.00000000000E+00 0. -1.
         11   -1    0    0    0    0 -0.00000000000E+00 -0.00000000000E+00 -0.18250000000E+03  0.18250000000E+03  0.00000000000E+00 0.  1.
         23    2    1    2    0    0  0.66502931993E+01 -0.12887954764E+02  0.96891816894E+02  0.13374270005E+03  0.91042626592E+02 0.  0.
        -11    1    3    3    0    0 -0.24311739228E+02  0.28840062860E+02  0.56478396142E+02  0.67916265510E+02  0.00000000000E+00 0.  1.
         11    1    3    3    0    0  0.30962032427E+02 -0.41728017623E+02  0.40413420752E+02  0.65826434535E+02  0.00000000000E+00 0. -1.
        -15    1    1    2    0    0  0.71677586690E+02 -0.23392256345E+02  0.27122149117E+02  0.80147631234E+02  0.17770000000E+01 0. -1.
         15    1    1    2    0    0 -0.78327879890E+02  0.36280211108E+02 -0.12401396601E+03  0.15110966872E+03  0.17770000000E+01 0.  1.
</event>
<event>
 7    1  0.4166661E-008  0.2405268E+03  0.7546771E-02  0.1029828E+00
        -11   -1    0    0    0    0  0.00000000000E+00  0.00000000000E+00  0.18250000000E+03  0.18250000000E+03  0.00000000000E+00 0.  1.
         11   -1    0    0    0    0 -0.00000000000E+00 -0.00000000000E+00 -0.18250000000E+03  0.18250000000E+03  0.00000000000E+00 0. -1.
         23    2    1    2    0    0  0.71752993205E+02  0.24841311085E+02  0.39173222172E+02  0.12447324341E+03  0.90517756379E+02 0.  0.
        -11    1    3    3    0    0 -0.83602881213E+00 -0.50002091951E+01 -0.23497196653E+02  0.24037871925E+02  0.00000000000E+00 0.  1.
         11    1    3    3    0    0  0.72589022017E+02  0.29841520280E+02  0.62670418825E+02  0.10043537149E+03  0.00000000000E+00 0. -1.
        -15    1    1    2    0    0  0.69639607392E+01 -0.11360845682E+03  0.49241034435E+01  0.11394201479E+03  0.17770000000E+01 0.  1.
         15    1    1    2    0    0 -0.78716953944E+02  0.88767145737E+02 -0.44097325616E+02  0.12658474180E+03  0.17770000000E+01 0. -1.
</event>
<event>
 7    1  0.4166661E-008  0.3650000E+03  0.7546771E-02  0.9765871E-01
        -11   -1    0    0    0    0  0.00000000000E+00  0.00000000000E+00  0.18250000000E+03  0.18250000000E+03  0.00000000000E+00 0. -1.
         11   -1    0    0    0    0 -0.00000000000E+00 -0.00000000000E+00 -0.18250000000E+03  0.18250000000E+03  0.00000000000E+00 0.  1.
         23    2    1    2    0    0  0.10912854179E+02 -0.32327137295E+01  0.42400284923E+02  0.10215126464E+03  0.92236412988E+02 0.  0.
        -11    1    3    3    0    0 -0.52895187334E+01  0.41958009543E+02  0.78720868961E+01  0.43016547111E+02  0.00000000000E+00 0.  1.
         11    1    3    3    0    0  0.16202372912E+02 -0.45190723273E+02  0.34528198027E+02  0.59134717526E+02  0.00000000000E+00 0. -1.
        -15    1    1    2    0    0  0.74065036441E+02  0.52668145970E+01  0.82976871746E+02  0.11136286604E+03  0.17770000000E+01 0. -1.
         15    1    1    2    0    0 -0.84977890620E+02 -0.20341008675E+01 -0.12537715667E+03  0.15148586932E+03  0.17770000000E+01 0.  1.
</event>
<event>
 7    1  0.4166661E-008  0.2516522E+03  0.7546771E-02  0.1023771E+00
        -11   -1    0    0    0    0  0.00000000000E+00  0.00000000000E+00  0.18250000000E+03  0.18250000000E+03  0.00000000000E+00 0.  1.
         11   -1    0    0    0    0 -0.00000000000E+00 -0.00000000000E+00 -0.18250000000E+03  0.18250000000E+03  0.00000000000E+00 0. -1.
         23    2    1    2    0    0  0.45426099011E+02 -0.38588757997E+02  0.22769293380E+02  0.11334779068E+03  0.93683820462E+02 0.  0.
        -11    1    3    3    0    0  0.27050427798E+02 -0.68441627053E+02  0.26216690675E+02  0.78123599684E+02  0.00000000000E+00 0. -1.
         11    1    3    3    0    0  0.18375671213E+02  0.29852869055E+02 -0.34473972946E+01  0.35224190998E+02  0.00000000000E+00 0.  1.
        -15    1    1    2    0    0 -0.27827131656E+02  0.81558525112E+02  0.93063180833E+02  0.12684658305E+03  0.17770000000E+01 0.  1.
         15    1    1    2    0    0 -0.17598967355E+02 -0.42969767115E+02 -0.11583247421E+03  0.12480562627E+03  0.17770000000E+01 0. -1.
</event>
<event>
 7    1  0.4166661E-008  0.2554971E+03  0.7546771E-02  0.1021756E+00
        -11   -1    0    0    0    0  0.00000000000E+00  0.00000000000E+00  0.18250000000E+03  0.18250000000E+03  0.00000000000E+00 0.  1.
         11   -1    0    0    0    0 -0.00000000000E+00 -0.00000000000E+00 -0.18250000000E+03  0.18250000000E+03  0.00000000000E+00 0. -1.
         23    2    1    2    0    0 -0.23834990282E+02 -0.29175412863E+02 -0.45233164144E+02  0.10950287334E+03  0.92333789341E+02 0.  0.
        -11    1    3    3    0    0 -0.56300740149E+02 -0.81864401750E+01 -0.41984470910E+02  0.70707050155E+02  0.00000000000E+00 0. -1.
         11    1    3    3    0    0  0.32465749868E+02 -0.20988972688E+02 -0.32486932349E+01  0.38795823186E+02  0.00000000000E+00 0.  1.
        -15    1    1    2    0    0 -0.25151858809E+02  0.13187436419E+03  0.45299740347E+02  0.14169928771E+03  0.17770000000E+01 0.  1.
         15    1    1    2    0    0  0.48986849091E+02 -0.10269895133E+03 -0.66576202213E-01  0.11379783895E+03  0.17770000000E+01 0. -1.
</event>
<event>
 7    1  0.4166661E-008  0.3650000E+03  0.7546771E-02  0.9765871E-01
        -11   -1    0    0    0    0  0.00000000000E+00  0.00000000000E+00  0.18250000000E+03  0.18250000000E+03  0.00000000000E+00 0.  1.
         11   -1    0    0    0    0 -0.00000000000E+00 -0.00000000000E+00 -0.18250000000E+03  0.18250000000E+03  0.00000000000E+00 0. -1.
         23    2    1    2    0    0  0.30953326602E+02  0.11893551349E+03  0.19880931193E+02  0.15181583521E+03  0.86885163282E+02 0.  0.
        -11    1    3    3    0    0  0.20967376170E+02 -0.28039118148E+01 -0.13616689984E+02  0.25157643591E+02  0.00000000000E+00 0. -1.
         11    1    3    3    0    0  0.99859504317E+01  0.12173942531E+03  0.33497621178E+02  0.12665819162E+03  0.00000000000E+00 0.  1.
        -15    1    1    2    0    0  0.69092131820E+02 -0.37203031486E+02  0.13732516076E+02  0.79683925342E+02  0.17770000000E+01 0.  1.
         15    1    1    2    0    0 -0.10004545842E+03 -0.81732482006E+02 -0.33613447269E+02  0.13350023945E+03  0.17770000000E+01 0. -1.
</event>
<event>
 7    1  0.4166661E-008  0.3650000E+03  0.7546771E-02  0.9765871E-01
        -11   -1    0    0    0    0  0.00000000000E+00  0.00000000000E+00  0.18250000000E+03  0.18250000000E+03  0.00000000000E+00 0. -1.
         11   -1    0    0    0    0 -0.00000000000E+00 -0.00000000000E+00 -0.18250000000E+03  0.18250000000E+03  0.00000000000E+00 0.  1.
         23    2    1    2    0    0 -0.52350940510E+02  0.11545371221E+03 -0.51285625838E+02  0.15971209225E+03  0.82507916936E+02 0.  0.
        -11    1    3    3    0    0 -0.51691592016E+01  0.17657553948E+01  0.17759015643E+02  0.18580116673E+02  0.00000000000E+00 0. -1.
         11    1    3    3    0    0 -0.47181781309E+02  0.11368795682E+03 -0.69044641481E+02  0.14113197558E+03  0.00000000000E+00 0.  1.
        -15    1    1    2    0    0  0.51912224520E+02 -0.93603834501E+02  0.10334785441E+03  0.14879681995E+03  0.17770000000E+01 0. -1.
         15    1    1    2    0    0  0.43871598984E+00 -0.21849877712E+02 -0.52062228572E+02  0.56491087798E+02  0.17770000000E+01 0.  1.
</event>
<event>
 7    1  0.4166661E-008  0.2702488E+03  0.7546771E-02  0.1014367E+00
        -11   -1    0    0    0    0  0.00000000000E+00  0.00000000000E+00  0.18250000000E+03  0.18250000000E+03  0.00000000000E+00 0.  1.
         11   -1    0    0    0    0 -0.00000000000E+00 -0.00000000000E+00 -0.18250000000E+03  0.18250000000E+03  0.00000000000E+00 0. -1.
         23    2    1    2    0    0  0.83961832148E+01 -0.29689291864E+02 -0.20044138236E+01  0.94751150840E+02  0.89564574285E+02 0.  0.
        -11    1    3    3    0    0  0.24586937020E+02  0.20443461502E+02  0.19937226961E+02  0.37682165664E+02  0.00000000000E+00 0.  1.
         11    1    3    3    0    0 -0.16190753805E+02 -0.50132753366E+02 -0.21941640784E+02  0.57068985177E+02  0.00000000000E+00 0. -1.
        -15    1    1    2    0    0 -0.58342494020E+02  0.43213269483E+02  0.12063663547E+03  0.14081047125E+03  0.17770000000E+01 0.  1.
         15    1    1    2    0    0  0.49946310805E+02 -0.13523977619E+02 -0.11863222165E+03  0.12943837791E+03  0.17770000000E+01 0. -1.
</event>
<event>
 7    1  0.6286090E-008  0.3650000E+03  0.7546771E-02  0.9765871E-01
        -11   -1    0    0    0    0  0.00000000000E+00  0.00000000000E+00  0.18250000000E+03  0.18250000000E+03  0.00000000000E+00 0.  1.
         11   -1    0    0    0    0 -0.00000000000E+00 -0.00000000000E+00 -0.18250000000E+03  0.18250000000E+03  0.00000000000E+00 0. -1.
         23    2    1    2    0    0  0.14609222294E+02 -0.48603233225E+01 -0.85926603108E+02  0.12647821449E+03  0.91522158521E+02 0.  0.
        -11    1    3    3    0    0  0.68969635094E+01  0.43254311889E+02 -0.45578592137E+02  0.63213223806E+02  0.00000000000E+00 0.  1.
         11    1    3    3    0    0  0.77122587847E+01 -0.48114635212E+02 -0.40348010971E+02  0.63264990685E+02  0.00000000000E+00 0. -1.
        -15    1    1    2    0    0 -0.14343334632E+02  0.22969369531E+02  0.15997984843E+03  0.16226531613E+03  0.17770000000E+01 0.  1.
         15    1    1    2    0    0 -0.26588766187E+00 -0.18109046208E+02 -0.74053245322E+02  0.76256469382E+02  0.17770000000E+01 0. -1.
</event>
<event>
 7    1  0.4166661E-008  0.2665639E+03  0.7546771E-02  0.1016165E+00
        -11   -1    0    0    0    0  0.00000000000E+00  0.00000000000E+00  0.18250000000E+03  0.18250000000E+03  0.00000000000E+00 0. -1.
         11   -1    0    0    0    0 -0.00000000000E+00 -0.00000000000E+00 -0.18250000000E+03  0.18250000000E+03  0.00000000000E+00 0.  1.
         23    2    1    2    0    0 -0.70148629258E+01 -0.34640193972E+02  0.69510300016E+01  0.98436096594E+02  0.91608934905E+02 0.  0.
        -11    1    3    3    0    0 -0.96463365581E+01  0.47913826809E+01 -0.37465848900E+02  0.38983316826E+02  0.00000000000E+00 0.  1.
         11    1    3    3    0    0  0.26314736323E+01 -0.39431576652E+02  0.44416878902E+02  0.59452779768E+02  0.00000000000E+00 0. -1.
        -15    1    1    2    0    0  0.11748524500E+03  0.31733698998E+01 -0.68695693332E+02  0.13614370746E+03  0.17770000000E+01 0. -1.
         15    1    1    2    0    0 -0.11047038207E+03  0.31466824072E+02  0.61744663331E+02  0.13042019595E+03  0.17770000000E+01 0.  1.
</event>
<event>
 7    1  0.4166661E-008  0.2477057E+03  0.7546771E-02  0.1025880E+00
        -11   -1    0    0    0    0  0.00000000000E+00  0.00000000000E+00  0.18250000000E+03  0.18250000000E+03  0.00000000000E+00 0.  1.
         11   -1    0    0    0    0 -0.00000000000E+00 -0.00000000000E+00 -0.18250000000E+03  0.18250000000E+03  0.00000000000E+00 0. -1.
         23    2    1    2    0    0 -0.70685749341E+01  0.29606499151E+02 -0.64914811262E+02  0.11729433565E+03  0.92830592540E+02 0.  0.
        -11    1    3    3    0    0  0.77978711347E+01  0.35364666535E+02 -0.84563388611E+02  0.91991483991E+02  0.00000000000E+00 0.  1.
         11    1    3    3    0    0 -0.14866446069E+02 -0.57581673844E+01  0.19648577349E+02  0.25302851661E+02  0.00000000000E+00 0. -1.
        -15    1    1    2    0    0 -0.69257925228E+02 -0.94576448517E+02 -0.16718485309E+02  0.11842309868E+03  0.17770000000E+01 0. -1.
         15    1    1    2    0    0  0.76326500162E+02  0.64969949365E+02  0.81633296571E+02  0.12928256567E+03  0.17770000000E+01 0.  1.
</event>
<event>
 7    1  0.4166661E-008  0.1910690E+03  0.7546771E-02  0.1061831E+00
        -11   -1    0    0    0    0  0.00000000000E+00  0.00000000000E+00  0.18250000000E+03  0.18250000000E+03  0.00000000000E+00 0.  1.
         11   -1    0    0    0    0 -0.00000000000E+00 -0.00000000000E+00 -0.18250000000E+03  0.18250000000E+03  0.00000000000E+00 0. -1.
         23    2    1    2    0    0 -0.13886938314E+02  0.99256193646E+02  0.10943654619E+03  0.17393097813E+03  0.90724795278E+02 0.  0.
        -11    1    3    3    0    0 -0.36042868861E+02  0.98936839173E+02  0.63586677355E+02  0.12300752854E+03  0.00000000000E+00 0.  1.
         11    1    3    3    0    0  0.22155930547E+02  0.31935447271E+00  0.45849868831E+02  0.50923449584E+02  0.00000000000E+00 0. -1.
        -15    1    1    2    0    0  0.11056334525E+02  0.67644357458E+01 -0.79894731763E+02  0.80958792090E+02  0.17770000000E+01 0.  1.
         15    1    1    2    0    0  0.28306037887E+01 -0.10602062939E+03 -0.29541814423E+02  0.11011022978E+03  0.17770000000E+01 0. -1.
</event>
<event>
 7    1  0.4166661E-008  0.1957244E+03  0.7546771E-02  0.1058390E+00
        -11   -1    0    0    0    0  0.00000000000E+00  0.00000000000E+00  0.18250000000E+03  0.18250000000E+03  0.00000000000E+00 0. -1.
         11   -1    0    0    0    0 -0.00000000000E+00 -0.00000000000E+00 -0.18250000000E+03  0.18250000000E+03  0.00000000000E+00 0. -1.
         23    2    1    2    0    0 -0.38161948257E+02  0.84831653922E+02 -0.10021561018E+03  0.16927560268E+03  0.99791369050E+02 0.  0.
        -11    1    3    3    0    0 -0.66036313812E+02  0.36523263707E+02 -0.79936211150E+02  0.10992971112E+03  0.00000000000E+00 0. -1.
         11    1    3    3    0    0  0.27874365555E+02  0.48308390215E+02 -0.20279399034E+02  0.59345891563E+02  0.00000000000E+00 0. -1.
        -15    1    1    2    0    0  0.52939253583E+02 -0.89513852201E+02  0.12734764027E+03  0.16442589066E+03  0.17770000000E+01 0. -1.
         15    1    1    2    0    0 -0.14777305326E+02  0.46821982797E+01 -0.27132030091E+02  0.31298506662E+02  0.17770000000E+01 0.  1.
</event>
<event>
 7    1  0.4166661E-008  0.2480178E+03  0.7546771E-02  0.1025712E+00
        -11   -1    0    0    0    0  0.00000000000E+00  0.00000000000E+00  0.18250000000E+03  0.18250000000E+03  0.00000000000E+00 0.  1.
         11   -1    0    0    0    0 -0.00000000000E+00 -0.00000000000E+00 -0.18250000000E+03  0.18250000000E+03  0.00000000000E+00 0. -1.
         23    2    1    2    0    0  0.35969881168E+02  0.13519989213E+02 -0.62474101529E+02  0.11698220726E+03  0.91132875485E+02 0.  0.
        -11    1    3    3    0    0  0.47692278617E+02  0.44530826126E+02 -0.35763039212E+02  0.74407949097E+02  0.00000000000E+00 0.  1.
         11    1    3    3    0    0 -0.11722397449E+02 -0.31010836913E+02 -0.26711062317E+02  0.42574258163E+02  0.00000000000E+00 0. -1.
        -15    1    1    2    0    0  0.87915736952E+01 -0.10308420339E+03 -0.34047965782E+02  0.10893147598E+03  0.17770000000E+01 0. -1.
         15    1    1    2    0    0 -0.44761454863E+02  0.89564214177E+02  0.96522067311E+02  0.13908631676E+03  0.17770000000E+01 0.  1.
</event>
<event>
 7    1  0.4166661E-008  0.3650000E+03  0.7546771E-02  0.9765871E-01
        -11   -1    0    0    0    0  0.00000000000E+00  0.00000000000E+00  0.18250000000E+03  0.18250000000E+03  0.00000000000E+00 0.  1.
         11   -1    0    0    0    0 -0.00000000000E+00 -0.00000000000E+00 -0.18250000000E+03  0.18250000000E+03  0.00000000000E+00 0. -1.
         23    2    1    2    0    0  0.51351309718E+02 -0.68714194440E+02 -0.13428182996E+02  0.12492148027E+03  0.89813487890E+02 0.  0.
        -11    1    3    3    0    0  0.19546135106E+02  0.18216015886E+02  0.11453520742E+02  0.29069877360E+02  0.00000000000E+00 0.  1.
         11    1    3    3    0    0  0.31805174612E+02 -0.86930210326E+02 -0.24881703739E+02  0.95851602909E+02  0.00000000000E+00 0. -1.
        -15    1    1    2    0    0  0.65308014599E+02 -0.17805199785E+02  0.56914388719E+02  0.88456584167E+02  0.17770000000E+01 0.  1.
         15    1    1    2    0    0 -0.11665932432E+03  0.86519394224E+02 -0.43486205723E+02  0.15162193556E+03  0.17770000000E+01 0. -1.
</event>
<event>
 7    1  0.4166661E-008  0.2458968E+03  0.7546771E-02  0.1026861E+00
        -11   -1    0    0    0    0  0.00000000000E+00  0.00000000000E+00  0.18250000000E+03  0.18250000000E+03  0.00000000000E+00 0.  1.
         11   -1    0    0    0    0 -0.00000000000E+00 -0.00000000000E+00 -0.18250000000E+03  0.18250000000E+03  0.00000000000E+00 0. -1.
         23    2    1    2    0    0 -0.43406370196E+02 -0.18475019907E+02 -0.61451054349E+02  0.11910324374E+03  0.90464972523E+02 0.  0.
        -11    1    3    3    0    0  0.11746426473E+02  0.19527855035E+02 -0.44527721267E+02  0.50020332050E+02  0.00000000000E+00 0. -1.
         11    1    3    3    0    0 -0.55152796670E+02 -0.38002874943E+02 -0.16923333082E+02  0.69082911686E+02  0.00000000000E+00 0.  1.
        -15    1    1    2    0    0  0.13399620101E+03 -0.24665227604E+02  0.48871642945E+02  0.14475824865E+03  0.17770000000E+01 0.  1.
         15    1    1    2    0    0 -0.90589830816E+02  0.43140247511E+02  0.12579411404E+02  0.10113850762E+03  0.17770000000E+01 0. -1.
</event>
<event>
 7    1  0.4166661E-008  0.3650000E+03  0.7546771E-02  0.9765871E-01
        -11   -1    0    0    0    0  0.00000000000E+00  0.00000000000E+00  0.18250000000E+03  0.18250000000E+03  0.00000000000E+00 0.  1.
         11   -1    0    0    0    0 -0.00000000000E+00 -0.00000000000E+00 -0.18250000000E+03  0.18250000000E+03  0.00000000000E+00 0. -1.
         23    2    1    2    0    0  0.44461630549E+01  0.11168665627E+03 -0.59151221778E+02  0.15437611999E+03  0.88540622494E+02 0.  0.
        -11    1    3    3    0    0  0.11823366956E+02 -0.12593603560E+02 -0.20109298510E+01  0.17390649662E+02  0.00000000000E+00 0.  1.
         11    1    3    3    0    0 -0.73772039011E+01  0.12428025983E+03 -0.57140291927E+02  0.13698547033E+03  0.00000000000E+00 0. -1.
        -15    1    1    2    0    0 -0.57097638170E+02 -0.10915118790E+03  0.87154928182E+02  0.15090812218E+03  0.17770000000E+01 0.  1.
         15    1    1    2    0    0  0.52651475115E+02 -0.25354683639E+01 -0.28003706403E+02  0.59715757828E+02  0.17770000000E+01 0. -1.
</event>
<event>
 7    1  0.4166661E-008  0.3650000E+03  0.7546771E-02  0.9765871E-01
        -11   -1    0    0    0    0  0.00000000000E+00  0.00000000000E+00  0.18250000000E+03  0.18250000000E+03  0.00000000000E+00 0. -1.
         11   -1    0    0    0    0 -0.00000000000E+00 -0.00000000000E+00 -0.18250000000E+03  0.18250000000E+03  0.00000000000E+00 0.  1.
         23    2    1    2    0    0 -0.73926730906E+02  0.20410422742E+02  0.76149130608E+02  0.14103908235E+03  0.90617800448E+02 0.  0.
        -11    1    3    3    0    0 -0.17976069094E+02  0.50832809742E+02  0.25378322243E+02  0.59591717933E+02  0.00000000000E+00 0. -1.
         11    1    3    3    0    0 -0.55950661812E+02 -0.30422387000E+02  0.50770808365E+02  0.81447364414E+02  0.00000000000E+00 0.  1.
        -15    1    1    2    0    0  0.87043424660E+02  0.50012380369E+02 -0.10629890310E+03  0.14622041751E+03  0.17770000000E+01 0. -1.
         15    1    1    2    0    0 -0.13116693754E+02 -0.70422803111E+02  0.30149772489E+02  0.77740500147E+02  0.17770000000E+01 0.  1.
</event>
<event>
 7    1  0.4166661E-008  0.3650000E+03  0.7546771E-02  0.9765871E-01
        -11   -1    0    0    0    0  0.00000000000E+00  0.00000000000E+00  0.18250000000E+03  0.18250000000E+03  0.00000000000E+00 0.  1.
         11   -1    0    0    0    0 -0.00000000000E+00 -0.00000000000E+00 -0.18250000000E+03  0.18250000000E+03  0.00000000000E+00 0. -1.
         23    2    1    2    0    0 -0.40592258564E+02  0.80860437333E+02  0.84717216926E+02  0.15495674639E+03  0.92997014073E+02 0.  0.
        -11    1    3    3    0    0 -0.15184749927E+02  0.97735576256E+02  0.59876917872E+02  0.11562034765E+03  0.00000000000E+00 0.  1.
         11    1    3    3    0    0 -0.25407508637E+02 -0.16875138922E+02  0.24840299053E+02  0.39336398740E+02  0.00000000000E+00 0. -1.
        -15    1    1    2    0    0  0.62891088570E+02  0.10780381600E+02  0.22086392402E+02  0.67546073960E+02  0.17770000000E+01 0.  1.
         15    1    1    2    0    0 -0.22298830007E+02 -0.91640818933E+02 -0.10680360933E+03  0.14249717965E+03  0.17770000000E+01 0. -1.
</event>
<event>
 7    1  0.4166661E-008  0.1911367E+03  0.7546771E-02  0.1061781E+00
        -11   -1    0    0    0    0  0.00000000000E+00  0.00000000000E+00  0.18250000000E+03  0.18250000000E+03  0.00000000000E+00 0.  1.
         11   -1    0    0    0    0 -0.00000000000E+00 -0.00000000000E+00 -0.18250000000E+03  0.18250000000E+03  0.00000000000E+00 0. -1.
         23    2    1    2    0    0  0.48454958501E+02  0.81236671354E+02 -0.11419472990E+03  0.17386327549E+03  0.90778425032E+02 0.  0.
        -11    1    3    3    0    0  0.64185232424E+02  0.91763296638E+02 -0.94250091924E+02  0.14636709500E+03  0.00000000000E+00 0. -1.
         11    1    3    3    0    0 -0.15730273923E+02 -0.10526625284E+02 -0.19944637973E+02  0.27496180488E+02  0.00000000000E+00 0.  1.
        -15    1    1    2    0    0 -0.80593229325E+02 -0.73999686708E+02  0.11417406316E+03  0.15814580827E+03  0.17770000000E+01 0.  1.
         15    1    1    2    0    0  0.32138270824E+02 -0.72369846459E+01  0.20666736831E-01  0.32990916241E+02  0.17770000000E+01 0. -1.
</event>
<event>
 7    1  0.4166661E-008  0.3650000E+03  0.7546771E-02  0.9765871E-01
        -11   -1    0    0    0    0  0.00000000000E+00  0.00000000000E+00  0.18250000000E+03  0.18250000000E+03  0.00000000000E+00 0.  1.
         11   -1    0    0    0    0 -0.00000000000E+00 -0.00000000000E+00 -0.18250000000E+03  0.18250000000E+03  0.00000000000E+00 0. -1.
         23    2    1    2    0    0 -0.11627049340E-01 -0.63649504034E+02 -0.15315734565E+02  0.11309615011E+03  0.92222057806E+02 0.  0.
        -11    1    3    3    0    0 -0.38463580786E+02 -0.37049450522E+02  0.17244196284E+02  0.56120149112E+02  0.00000000000E+00 0.  1.
         11    1    3    3    0    0  0.38451953737E+02 -0.26600053512E+02 -0.32559930849E+02  0.56976001000E+02  0.00000000000E+00 0. -1.
        -15    1    1    2    0    0  0.29839028043E+02 -0.83546397391E+02  0.43917997137E+02  0.99006647823E+02  0.17770000000E+01 0.  1.
         15    1    1    2    0    0 -0.29827400993E+02  0.14719590142E+03 -0.28602262572E+02  0.15289720207E+03  0.17770000000E+01 0. -1.
</event>
<event>
 7    1  0.4166661E-008  0.2296955E+03  0.7546771E-02  0.1036075E+00
        -11   -1    0    0    0    0  0.00000000000E+00  0.00000000000E+00  0.18250000000E+03  0.18250000000E+03  0.00000000000E+00 0. -1.
         11   -1    0    0    0    0 -0.00000000000E+00 -0.00000000000E+00 -0.18250000000E+03  0.18250000000E+03  0.00000000000E+00 0.  1.
         23    2    1    2    0    0  0.38890965330E+02 -0.53419296267E+02  0.78590535647E+02  0.13530453896E+03  0.88117634850E+02 0.  0.
        -11    1    3    3    0    0 -0.44153993862E+01  0.18238931446E+02  0.37728414209E+02  0.42137721946E+02  0.00000000000E+00 0. -1.
         11    1    3    3    0    0  0.43306364716E+02 -0.71658227713E+02  0.40862121438E+02  0.93166817013E+02  0.00000000000E+00 0.  1.
        -15    1    1    2    0    0  0.56128155926E+02  0.95273219836E+02 -0.27477754003E+02  0.11395411796E+03  0.17770000000E+01 0.  1.
         15    1    1    2    0    0 -0.95019121256E+02 -0.41853923569E+02 -0.51112781643E+02  0.11574134308E+03  0.17770000000E+01 0. -1.
</event>
<event>
 7    1  0.4177382E-008  0.3650000E+03  0.7546771E-02  0.9765871E-01
        -11   -1    0    0    0    0  0.00000000000E+00  0.00000000000E+00  0.18250000000E+03  0.18250000000E+03  0.00000000000E+00 0.  1.
         11   -1    0    0    0    0 -0.00000000000E+00 -0.00000000000E+00 -0.18250000000E+03  0.18250000000E+03  0.00000000000E+00 0. -1.
         23    2    1    2    0    0 -0.31860922035E+01  0.35122804993E+02 -0.16867170738E+02  0.10012170395E+03  0.92174245532E+02 0.  0.
        -11    1    3    3    0    0 -0.11406490766E+02  0.10687758960E+02 -0.53269079059E+02  0.55515142141E+02  0.00000000000E+00 0. -1.
         11    1    3    3    0    0  0.82203985626E+01  0.24435046032E+02  0.36401908321E+02  0.44606561810E+02  0.00000000000E+00 0.  1.
        -15    1    1    2    0    0 -0.35207688244E+02 -0.13751676498E+03  0.50142492662E+02  0.15055852437E+03  0.17770000000E+01 0.  1.
         15    1    1    2    0    0  0.38393780448E+02  0.10239395998E+03 -0.33275321924E+02  0.11431977168E+03  0.17770000000E+01 0. -1.
</event>
<event>
 7    1  0.4166661E-008  0.1937147E+03  0.7546771E-02  0.1059863E+00
        -11   -1    0    0    0    0  0.00000000000E+00  0.00000000000E+00  0.18250000000E+03  0.18250000000E+03  0.00000000000E+00 0.  1.
         11   -1    0    0    0    0 -0.00000000000E+00 -0.00000000000E+00 -0.18250000000E+03  0.18250000000E+03  0.00000000000E+00 0. -1.
         23    2    1    2    0    0  0.61846550710E+02  0.16527154551E+02  0.13375684445E+03  0.17128534672E+03  0.85730005789E+02 0.  0.
        -11    1    3    3    0    0  0.59594566846E+02 -0.23915083476E+02  0.64251581983E+02  0.90838920087E+02  0.00000000000E+00 0.  1.
         11    1    3    3    0    0  0.22519838643E+01  0.40442238027E+02  0.69505262466E+02  0.80446426635E+02  0.00000000000E+00 0. -1.
        -15    1    1    2    0    0  0.32750334940E+02  0.55990766206E+01 -0.69979967286E+02  0.77487338631E+02  0.17770000000E+01 0.  1.
         15    1    1    2    0    0 -0.94596885650E+02 -0.22126231172E+02 -0.63776877162E+02  0.11622731465E+03  0.17770000000E+01 0. -1.
</event>
<event>
 7    1  0.4166661E-008  0.2633097E+03  0.7546771E-02  0.1017778E+00
        -11   -1    0    0    0    0  0.00000000000E+00  0.00000000000E+00  0.18250000000E+03  0.18250000000E+03  0.00000000000E+00 0.  1.
         11   -1    0    0    0    0 -0.00000000000E+00 -0.00000000000E+00 -0.18250000000E+03  0.18250000000E+03  0.00000000000E+00 0. -1.
         23    2    1    2    0    0  0.22932508394E+02 -0.19710203480E+02 -0.32996425508E+02  0.10169033664E+03  0.91311381589E+02 0.  0.
        -11    1    3    3    0    0 -0.12010343194E+02 -0.18539444620E+02 -0.55756105414E+02  0.59972515717E+02  0.00000000000E+00 0.  1.
         11    1    3    3    0    0  0.34942851588E+02 -0.11707588599E+01  0.22759679906E+02  0.41717820926E+02  0.00000000000E+00 0. -1.
        -15    1    1    2    0    0  0.50068357096E+02  0.10748296536E+03  0.76506501342E+02  0.14112345907E+03  0.17770000000E+01 0.  1.
         15    1    1    2    0    0 -0.73000865490E+02 -0.87772761875E+02 -0.43510075833E+02  0.12218620429E+03  0.17770000000E+01 0. -1.
</event>
<event>
 7    1  0.4166661E-008  0.3650000E+03  0.7546771E-02  0.9765871E-01
        -11   -1    0    0    0    0  0.00000000000E+00  0.00000000000E+00  0.18250000000E+03  0.18250000000E+03  0.00000000000E+00 0.  1.
         11   -1    0    0    0    0 -0.00000000000E+00 -0.00000000000E+00 -0.18250000000E+03  0.18250000000E+03  0.00000000000E+00 0. -1.
         23    2    1    2    0    0  0.30855329765E+02  0.41785566020E+01 -0.11980329915E+03  0.15455441784E+03  0.92545804215E+02 0.  0.
        -11    1    3    3    0    0 -0.24754359639E+02  0.35369858293E+01 -0.85799731119E+02  0.89369359682E+02  0.00000000000E+00 0.  1.
         11    1    3    3    0    0  0.55609689404E+02  0.64157077271E+00 -0.34003568026E+02  0.65185058159E+02  0.00000000000E+00 0. -1.
        -15    1    1    2    0    0 -0.85322564024E+02  0.41264489274E+02  0.97691488453E+02  0.13612304232E+03  0.17770000000E+01 0.  1.
         15    1    1    2    0    0  0.54467234259E+02 -0.45443045876E+02  0.22111810693E+02  0.74322539834E+02  0.17770000000E+01 0. -1.
</event>
<event>
 7    1  0.4166661E-008  0.2696253E+03  0.7546771E-02  0.1014669E+00
        -11   -1    0    0    0    0  0.00000000000E+00  0.00000000000E+00  0.18250000000E+03  0.18250000000E+03  0.00000000000E+00 0. -1.
         11   -1    0    0    0    0 -0.00000000000E+00 -0.00000000000E+00 -0.18250000000E+03  0.18250000000E+03  0.00000000000E+00 0.  1.
         23    2    1    2    0    0  0.20464751129E+02 -0.80871456869E+01  0.86754363674E+01  0.95374678252E+02  0.92395119414E+02 0.  0.
        -11    1    3    3    0    0  0.53078345019E+02 -0.20375655706E+02 -0.67644167681E+01  0.57255876464E+02  0.00000000000E+00 0. -1.
         11    1    3    3    0    0 -0.32613593890E+02  0.12288510020E+02  0.15439853136E+02  0.38118801789E+02  0.00000000000E+00 0.  1.
        -15    1    1    2    0    0 -0.74451580696E+02 -0.98963128044E+02  0.53081313700E+02  0.13474985037E+03  0.17770000000E+01 0. -1.
         15    1    1    2    0    0  0.53986829568E+02  0.10705027373E+03 -0.61756750067E+02  0.13487547138E+03  0.17770000000E+01 0.  1.
</event>
<event>
 7    1  0.4166661E-008  0.1825638E+03  0.7546771E-02  0.1068404E+00
        -11   -1    0    0    0    0  0.00000000000E+00  0.00000000000E+00  0.18250000000E+03  0.18250000000E+03  0.00000000000E+00 0.  1.
         11   -1    0    0    0    0 -0.00000000000E+00 -0.00000000000E+00 -0.18250000000E+03  0.18250000000E+03  0.00000000000E+00 0. -1.
         23    2    1    2    0    0  0.34023146211E+02  0.15206382932E+03 -0.25099113337E+02  0.18243616245E+03  0.91498662347E+02 0.  0.
        -11    1    3    3    0    0  0.37107140718E+02  0.13234466397E+03 -0.53694638999E+02  0.14756410211E+03  0.00000000000E+00 0. -1.
         11    1    3    3    0    0 -0.30839945062E+01  0.19719165352E+02  0.28595525662E+02  0.34872060338E+02  0.00000000000E+00 0.  1.
        -15    1    1    2    0    0  0.16091253917E+02  0.34746012637E+01 -0.27534593929E+01  0.16785129556E+02  0.17770000000E+01 0. -1.
         15    1    1    2    0    0 -0.50114400129E+02 -0.15553843059E+03  0.27852572730E+02  0.16577870800E+03  0.17770000000E+01 0.  1.
</event>
<event>
 7    1  0.4166661E-008  0.2377092E+03  0.7546771E-02  0.1031418E+00
        -11   -1    0    0    0    0  0.00000000000E+00  0.00000000000E+00  0.18250000000E+03  0.18250000000E+03  0.00000000000E+00 0.  1.
         11   -1    0    0    0    0 -0.00000000000E+00 -0.00000000000E+00 -0.18250000000E+03  0.18250000000E+03  0.00000000000E+00 0. -1.
         23    2    1    2    0    0 -0.21535587157E+02 -0.29757400108E+02 -0.80999738032E+02  0.12729077443E+03  0.91064259281E+02 0.  0.
        -11    1    3    3    0    0  0.15981478568E+02 -0.25420606493E+02  0.76031732352E+01  0.30974556250E+02  0.00000000000E+00 0.  1.
         11    1    3    3    0    0 -0.37517065725E+02 -0.43367936154E+01 -0.88602911267E+02  0.96316218179E+02  0.00000000000E+00 0. -1.
        -15    1    1    2    0    0 -0.25761868770E+02  0.98288130560E+02 -0.23275484667E+02  0.10425515051E+03  0.17770000000E+01 0. -1.
         15    1    1    2    0    0  0.47297455927E+02 -0.68530730451E+02  0.10427522270E+03  0.13345407506E+03  0.17770000000E+01 0.  1.
</event>
<event>
 7    1  0.4166661E-008  0.2620407E+03  0.7546771E-02  0.1018414E+00
        -11   -1    0    0    0    0  0.00000000000E+00  0.00000000000E+00  0.18250000000E+03  0.18250000000E+03  0.00000000000E+00 0.  1.
         11   -1    0    0    0    0 -0.00000000000E+00 -0.00000000000E+00 -0.18250000000E+03  0.18250000000E+03  0.00000000000E+00 0. -1.
         23    2    1    2    0    0 -0.54725936517E+00  0.44015323149E+02 -0.23426296892E+02  0.10295928360E+03  0.90078712958E+02 0.  0.
        -11    1    3    3    0    0  0.35448376038E+02  0.40684985634E+02 -0.35792736004E+02  0.64753188111E+02  0.00000000000E+00 0. -1.
         11    1    3    3    0    0 -0.35995635404E+02  0.33303375145E+01  0.12366439112E+02  0.38206095487E+02  0.00000000000E+00 0.  1.
        -15    1    1    2    0    0 -0.11448106309E+03 -0.60931863782E+02 -0.31458395713E+02  0.13345933546E+03  0.17770000000E+01 0.  1.
         15    1    1    2    0    0  0.11502832246E+03  0.16916540634E+02  0.54884692605E+02  0.12858138095E+03  0.17770000000E+01 0. -1.
</event>
<event>
 7    1  0.4166661E-008  0.3650000E+03  0.7546771E-02  0.9765871E-01
        -11   -1    0    0    0    0  0.00000000000E+00  0.00000000000E+00  0.18250000000E+03  0.18250000000E+03  0.00000000000E+00 0. -1.
         11   -1    0    0    0    0 -0.00000000000E+00 -0.00000000000E+00 -0.18250000000E+03  0.18250000000E+03  0.00000000000E+00 0. -1.
         23    2    1    2    0    0 -0.18040621249E+02  0.64485921530E+02 -0.10307923521E+03  0.15539171820E+03  0.95065026497E+02 0.  0.
        -11    1    3    3    0    0  0.18943451497E+02  0.74524845602E+02 -0.58587806964E+02  0.96671288869E+02  0.00000000000E+00 0. -1.
         11    1    3    3    0    0 -0.36984072746E+02 -0.10038924072E+02 -0.44491428246E+02  0.58720429331E+02  0.00000000000E+00 0. -1.
        -15    1    1    2    0    0  0.12320003049E+02 -0.21942077172E+02  0.14642240647E+03  0.14857966237E+03  0.17770000000E+01 0. -1.
         15    1    1    2    0    0  0.57206181997E+01 -0.42543844358E+02 -0.43343171259E+02  0.61028619427E+02  0.17770000000E+01 0.  1.
</event>
<event>
 7    1  0.6746119E-008  0.3650000E+03  0.7546771E-02  0.9765871E-01
        -11   -1    0    0    0    0  0.00000000000E+00  0.00000000000E+00  0.18250000000E+03  0.18250000000E+03  0.00000000000E+00 0. -1.
         11   -1    0    0    0    0 -0.00000000000E+00 -0.00000000000E+00 -0.18250000000E+03  0.18250000000E+03  0.00000000000E+00 0.  1.
         23    2    1    2    0    0  0.17112938035E+02 -0.11417935487E+02  0.65698732778E+02  0.10811102983E+03  0.83357359499E+02 0.  0.
        -11    1    3    3    0    0  0.24532382960E+02  0.21538935435E+02 -0.17315161153E+01  0.32691921043E+02  0.00000000000E+00 0.  1.
         11    1    3    3    0    0 -0.74194449253E+01 -0.32956870922E+02  0.67430248893E+02  0.75419108784E+02  0.00000000000E+00 0. -1.
        -15    1    1    2    0    0  0.63540554220E+02 -0.77050760071E+02  0.29250116206E+02  0.10408145217E+03  0.17770000000E+01 0. -1.
         15    1    1    2    0    0 -0.80653492255E+02  0.88468695559E+02 -0.94948848984E+02  0.15280751801E+03  0.17770000000E+01 0.  1.
</event>
<event>
 7    1  0.4166661E-008  0.2046158E+03  0.7546771E-02  0.1052098E+00
        -11   -1    0    0    0    0  0.00000000000E+00  0.00000000000E+00  0.18250000000E+03  0.18250000000E+03  0.00000000000E+00 0. -1.
         11   -1    0    0    0    0 -0.00000000000E+00 -0.00000000000E+00 -0.18250000000E+03  0.18250000000E+03  0.00000000000E+00 0. -1.
         23    2    1    2    0    0  0.11094960638E+03  0.69866310787E+02  0.37479999956E+02  0.16038422915E+03  0.84422947261E+02 0.  0.
        -11    1    3    3    0    0  0.78048602914E+02  0.69437908962E+02  0.60038590487E+02  0.12048999944E+03  0.00000000000E+00 0. -1.
         11    1    3    3    0    0  0.32901003465E+02  0.42840182450E+00 -0.22558590531E+02  0.39894229706E+02  0.00000000000E+00 0. -1.
        -15    1    1    2    0    0 -0.10296315462E+03  0.23709490249E+02 -0.71773505166E+01  0.10591611410E+03  0.17770000000E+01 0. -1.
         15    1    1    2    0    0 -0.79864517635E+01 -0.93575801035E+02 -0.30302649439E+02  0.98699656753E+02  0.17770000000E+01 0.  1.
</event>
<event>
 7    1  0.4166661E-008  0.2294556E+03  0.7546771E-02  0.1036218E+00
        -11   -1    0    0    0    0  0.00000000000E+00  0.00000000000E+00  0.18250000000E+03  0.18250000000E+03  0.00000000000E+00 0. -1.
         11   -1    0    0    0    0 -0.00000000000E+00 -0.00000000000E+00 -0.18250000000E+03  0.18250000000E+03  0.00000000000E+00 0.  1.
         23    2    1    2    0    0  0.10437823402E+03  0.73306321537E+01  0.18499680389E+02  0.13554441790E+03  0.84151631850E+02 0.  0.
        -11    1    3    3    0    0  0.53163674544E+01  0.11043363750E+02 -0.24572808063E+02  0.27459835068E+02  0.00000000000E+00 0.  1.
         11    1    3    3    0    0  0.99061866567E+02 -0.37127315967E+01  0.43072488452E+02  0.10808458283E+03  0.00000000000E+00 0. -1.
        -15    1    1    2    0    0 -0.61532619125E+02 -0.70406305882E+02  0.66875120105E+02  0.11497282523E+03  0.17770000000E+01 0. -1.
         15    1    1    2    0    0 -0.42845614897E+02  0.63075673729E+02 -0.85374800493E+02  0.11448275687E+03  0.17770000000E+01 0.  1.
</event>
<event>
 7    1  0.4166661E-008  0.2583638E+03  0.7546771E-02  0.1020279E+00
        -11   -1    0    0    0    0  0.00000000000E+00  0.00000000000E+00  0.18250000000E+03  0.18250000000E+03  0.00000000000E+00 0.  1.
         11   -1    0    0    0    0 -0.00000000000E+00 -0.00000000000E+00 -0.18250000000E+03  0.18250000000E+03  0.00000000000E+00 0. -1.
         23    2    1    2    0    0  0.10785395733E+02 -0.20390967667E+01  0.50593454980E+02  0.10663622528E+03  0.93226091725E+02 0.  0.
        -11    1    3    3    0    0 -0.23720546930E+02 -0.53769841719E+01 -0.17677520760E+02  0.30067774205E+02  0.00000000000E+00 0.  1.
         11    1    3    3    0    0  0.34505942663E+02  0.33378874052E+01  0.68270975741E+02  0.76568451075E+02  0.00000000000E+00 0. -1.
        -15    1    1    2    0    0  0.25485939314E+02  0.11837218939E+03  0.11399439430E+02  0.12163310928E+03  0.17770000000E+01 0.  1.
         15    1    1    2    0    0 -0.36271335048E+02 -0.11633309263E+03 -0.61992894410E+02  0.13673066544E+03  0.17770000000E+01 0. -1.
</event>
<event>
 7    1  0.4290523E-008  0.3650000E+03  0.7546771E-02  0.9765871E-01
        -11   -1    0    0    0    0  0.00000000000E+00  0.00000000000E+00  0.18250000000E+03  0.18250000000E+03  0.00000000000E+00 0.  1.
         11   -1    0    0    0    0 -0.00000000000E+00 -0.00000000000E+00 -0.18250000000E+03  0.18250000000E+03  0.00000000000E+00 0. -1.
         23    2    1    2    0    0  0.97902723559E+01 -0.18128878806E+02  0.66296719553E+02  0.11554242467E+03  0.92359575546E+02 0.  0.
        -11    1    3    3    0    0 -0.41066357113E+02 -0.27557958433E+01  0.24104505792E+02  0.47697665528E+02  0.00000000000E+00 0. -1.
         11    1    3    3    0    0  0.50856629469E+02 -0.15373082963E+02  0.42192213760E+02  0.67844759140E+02  0.00000000000E+00 0.  1.
        -15    1    1    2    0    0  0.11429709821E+01 -0.63243656853E+02  0.67465296848E+02  0.92497516305E+02  0.17770000000E+01 0.  1.
         15    1    1    2    0    0 -0.10933243338E+02  0.81372535660E+02 -0.13376201640E+03  0.15696005903E+03  0.17770000000E+01 0. -1.
</event>
<event>
 7    1  0.4603604E-008  0.3650000E+03  0.7546771E-02  0.9765871E-01
        -11   -1    0    0    0    0  0.00000000000E+00  0.00000000000E+00  0.18250000000E+03  0.18250000000E+03  0.00000000000E+00 0.  1.
         11   -1    0    0    0    0 -0.00000000000E+00 -0.00000000000E+00 -0.18250000000E+03  0.18250000000E+03  0.00000000000E+00 0. -1.
         23    2    1    2    0    0 -0.11776880390E+02  0.23073568123E+02 -0.41371880840E+02  0.10349341289E+03  0.91258805221E+02 0.  0.
        -11    1    3    3    0    0  0.16426210475E+02  0.44328039926E+02  0.22997882504E+01  0.47329531376E+02  0.00000000000E+00 0.  1.
         11    1    3    3    0    0 -0.28203090864E+02 -0.21254471803E+02 -0.43671669090E+02  0.56163881517E+02  0.00000000000E+00 0. -1.
        -15    1    1    2    0    0 -0.49992451302E+02 -0.20224973501E+02  0.13720979865E+03  0.14743805925E+03  0.17770000000E+01 0.  1.
         15    1    1    2    0    0  0.61769331692E+02 -0.28485946220E+01 -0.95837917809E+02  0.11406852786E+03  0.17770000000E+01 0. -1.
</event>
<event>
 7    1  0.4166661E-008  0.3650000E+03  0.7546771E-02  0.9765871E-01
        -11   -1    0    0    0    0  0.00000000000E+00  0.00000000000E+00  0.18250000000E+03  0.18250000000E+03  0.00000000000E+00 0.  1.
         11   -1    0    0    0    0 -0.00000000000E+00 -0.00000000000E+00 -0.18250000000E+03  0.18250000000E+03  0.00000000000E+00 0. -1.
         23    2    1    2    0    0 -0.12969277186E+02  0.63649313892E+02 -0.55457710542E+02  0.12438125673E+03  0.90419588897E+02 0.  0.
        -11    1    3    3    0    0 -0.43581801270E+02  0.67042958135E+02 -0.45550320097E+02  0.92026970494E+02  0.00000000000E+00 0.  1.
         11    1    3    3    0    0  0.30612524084E+02 -0.33936442429E+01 -0.99073904452E+01  0.32354286231E+02  0.00000000000E+00 0. -1.
        -15    1    1    2    0    0 -0.52999269027E+02 -0.69068107895E+02  0.11992515600E+03  0.14820434142E+03  0.17770000000E+01 0.  1.
         15    1    1    2    0    0  0.65968546213E+02  0.54187940031E+01 -0.64467445455E+02  0.92414401856E+02  0.17770000000E+01 0. -1.
</event>
<event>
 7    1  0.4166661E-008  0.2436393E+03  0.7546771E-02  0.1028098E+00
        -11   -1    0    0    0    0  0.00000000000E+00  0.00000000000E+00  0.18250000000E+03  0.18250000000E+03  0.00000000000E+00 0.  1.
         11   -1    0    0    0    0 -0.00000000000E+00 -0.00000000000E+00 -0.18250000000E+03  0.18250000000E+03  0.00000000000E+00 0. -1.
         23    2    1    2    0    0 -0.10273991691E+02 -0.15972724583E+01 -0.78725661666E+02  0.12136071866E+03  0.91774659056E+02 0.  0.
        -11    1    3    3    0    0  0.32843731918E+02  0.16428905808E+02 -0.61349260893E+02  0.71500709678E+02  0.00000000000E+00 0.  1.
         11    1    3    3    0    0 -0.43117723609E+02 -0.18026178267E+02 -0.17376400773E+02  0.49860008985E+02  0.00000000000E+00 0. -1.
        -15    1    1    2    0    0 -0.49733705494E+02  0.10069781277E+03  0.21310087832E+02  0.11432746185E+03  0.17770000000E+01 0.  1.
         15    1    1    2    0    0  0.60007697186E+02 -0.99100540316E+02  0.57415573834E+02  0.12931181949E+03  0.17770000000E+01 0. -1.
</event>
<event>
 7    1  0.4166661E-008  0.2727008E+03  0.7546771E-02  0.1013189E+00
        -11   -1    0    0    0    0  0.00000000000E+00  0.00000000000E+00  0.18250000000E+03  0.18250000000E+03  0.00000000000E+00 0.  1.
         11   -1    0    0    0    0 -0.00000000000E+00 -0.00000000000E+00 -0.18250000000E+03  0.18250000000E+03  0.00000000000E+00 0. -1.
         23    2    1    2    0    0  0.11177981946E+01  0.16741862332E+02  0.31239519859E+01  0.92299222432E+02  0.90707485680E+02 0.  0.
        -11    1    3    3    0    0 -0.26840732597E+02 -0.24911375160E+02  0.16818487951E+02  0.40297184463E+02  0.00000000000E+00 0.  1.
         11    1    3    3    0    0  0.27958530791E+02  0.41653237492E+02 -0.13694535965E+02  0.52002037969E+02  0.00000000000E+00 0. -1.
        -15    1    1    2    0    0 -0.98869764767E+01 -0.51797459182E+02  0.12706183514E+03  0.13758123695E+03  0.17770000000E+01 0.  1.
         15    1    1    2    0    0  0.87691782821E+01  0.35055596850E+02 -0.13018578713E+03  0.13511954062E+03  0.17770000000E+01 0. -1.
</event>
<event>
 7    1  0.4166661E-008  0.1834787E+03  0.7546771E-02  0.1067678E+00
        -11   -1    0    0    0    0  0.00000000000E+00  0.00000000000E+00  0.18250000000E+03  0.18250000000E+03  0.00000000000E+00 0.  1.
         11   -1    0    0    0    0 -0.00000000000E+00 -0.00000000000E+00 -0.18250000000E+03  0.18250000000E+03  0.00000000000E+00 0. -1.
         23    2    1    2    0    0 -0.10099785808E+03 -0.12099997329E+03  0.21384117017E+02  0.18152129496E+03  0.87470790487E+02 0.  0.
        -11    1    3    3    0    0 -0.76498252203E+02 -0.11751550888E+03  0.45050357058E+02  0.14728004647E+03  0.00000000000E+00 0. -1.
         11    1    3    3    0    0 -0.24499605874E+02 -0.34844644170E+01 -0.23666240041E+02  0.34241248487E+02  0.00000000000E+00 0.  1.
        -15    1    1    2    0    0  0.19746197572E+02  0.31954146497E+02  0.34102250199E+02  0.50765155318E+02  0.17770000000E+01 0.  1.
         15    1    1    2    0    0  0.81251660505E+02  0.89045826798E+02 -0.55486367216E+02  0.13271354973E+03  0.17770000000E+01 0. -1.
</event>
<event>
 7    1  0.4166661E-008  0.2289461E+03  0.7546771E-02  0.1036521E+00
        -11   -1    0    0    0    0  0.00000000000E+00  0.00000000000E+00  0.18250000000E+03  0.18250000000E+03  0.00000000000E+00 0.  1.
         11   -1    0    0    0    0 -0.00000000000E+00 -0.00000000000E+00 -0.18250000000E+03  0.18250000000E+03  0.00000000000E+00 0. -1.
         23    2    1    2    0    0 -0.23263383540E+02  0.98769135808E+02  0.11597414842E+02  0.13605390935E+03  0.89886812252E+02 0.  0.
        -11    1    3    3    0    0 -0.16010769303E+02  0.13556180623E+02 -0.33381219320E+02  0.39426140695E+02  0.00000000000E+00 0. -1.
         11    1    3    3    0    0 -0.72526142368E+01  0.85212955184E+02  0.44978634162E+02  0.96627768657E+02  0.00000000000E+00 0.  1.
        -15    1    1    2    0    0  0.10038508721E+03 -0.40506067577E+02  0.44640398272E+02  0.11710606360E+03  0.17770000000E+01 0.  1.
         15    1    1    2    0    0 -0.77121703673E+02 -0.58263068230E+02 -0.56237813114E+02  0.11184002705E+03  0.17770000000E+01 0. -1.
</event>
<event>
 7    1  0.4166661E-008  0.3650000E+03  0.7546771E-02  0.9765871E-01
        -11   -1    0    0    0    0  0.00000000000E+00  0.00000000000E+00  0.18250000000E+03  0.18250000000E+03  0.00000000000E+00 0.  1.
         11   -1    0    0    0    0 -0.00000000000E+00 -0.00000000000E+00 -0.18250000000E+03  0.18250000000E+03  0.00000000000E+00 0. -1.
         23    2    1    2    0    0  0.82859142100E+01  0.72390680662E+02  0.95230567805E+02  0.15029545511E+03  0.90613441393E+02 0.  0.
        -11    1    3    3    0    0  0.13038186759E+02  0.93605006665E+02  0.76164402924E+02  0.12137919039E+03  0.00000000000E+00 0.  1.
         11    1    3    3    0    0 -0.47522725491E+01 -0.21214326003E+02  0.19066164880E+02  0.28916264720E+02  0.00000000000E+00 0. -1.
        -15    1    1    2    0    0 -0.61065120677E+02  0.97051731071E+01  0.18751134649E+02  0.64636693355E+02  0.17770000000E+01 0.  1.
         15    1    1    2    0    0  0.52779206467E+02 -0.82095853769E+02 -0.11398170245E+03  0.15006785154E+03  0.17770000000E+01 0. -1.
</event>
<event>
 7    1  0.4166661E-008  0.2564665E+03  0.7546771E-02  0.1021254E+00
        -11   -1    0    0    0    0  0.00000000000E+00  0.00000000000E+00  0.18250000000E+03  0.18250000000E+03  0.00000000000E+00 0. -1.
         11   -1    0    0    0    0 -0.00000000000E+00 -0.00000000000E+00 -0.18250000000E+03  0.18250000000E+03  0.00000000000E+00 0.  1.
         23    2    1    2    0    0  0.99127666247E+01  0.49217277928E+02 -0.40111482368E+02  0.10853350876E+03  0.87464210494E+02 0.  0.
        -11    1    3    3    0    0  0.48726082296E+02  0.27334291359E+02 -0.17363558901E+02  0.58505450667E+02  0.00000000000E+00 0.  1.
         11    1    3    3    0    0 -0.38813315671E+02  0.21882986569E+02 -0.22747923467E+02  0.50028058094E+02  0.00000000000E+00 0. -1.
        -15    1    1    2    0    0 -0.83986996580E+02  0.12288343398E+01  0.11308660450E+03  0.14087960632E+03  0.17770000000E+01 0. -1.
         15    1    1    2    0    0  0.74074229955E+02 -0.50446112268E+02 -0.72975122137E+02  0.11558688492E+03  0.17770000000E+01 0.  1.
</event>
<event>
 7    1  0.4166661E-008  0.3650000E+03  0.7546771E-02  0.9765871E-01
        -11   -1    0    0    0    0  0.00000000000E+00  0.00000000000E+00  0.18250000000E+03  0.18250000000E+03  0.00000000000E+00 0.  1.
         11   -1    0    0    0    0 -0.00000000000E+00 -0.00000000000E+00 -0.18250000000E+03  0.18250000000E+03  0.00000000000E+00 0. -1.
         23    2    1    2    0    0 -0.57136096150E+02 -0.54169074537E+02  0.92653942527E+02  0.15249715503E+03  0.92042420150E+02 0.  0.
        -11    1    3    3    0    0 -0.35567038118E+02  0.20100751175E+01 -0.67878047633E+01  0.36264705927E+02  0.00000000000E+00 0. -1.
         11    1    3    3    0    0 -0.21569058031E+02 -0.56179149654E+02  0.99441747291E+02  0.11623244910E+03  0.00000000000E+00 0.  1.
        -15    1    1    2    0    0 -0.50082457394E+02 -0.23805739410E+02 -0.10319719935E+02  0.56432438509E+02  0.17770000000E+01 0.  1.
         15    1    1    2    0    0  0.10721855354E+03  0.77974813946E+02 -0.82334222592E+02  0.15607040646E+03  0.17770000000E+01 0. -1.
</event>
<event>
 7    1  0.4166661E-008  0.2563863E+03  0.7546771E-02  0.1021296E+00
        -11   -1    0    0    0    0  0.00000000000E+00  0.00000000000E+00  0.18250000000E+03  0.18250000000E+03  0.00000000000E+00 0.  1.
         11   -1    0    0    0    0 -0.00000000000E+00 -0.00000000000E+00 -0.18250000000E+03  0.18250000000E+03  0.00000000000E+00 0. -1.
         23    2    1    2    0    0 -0.54889460243E+02 -0.17926027816E+02  0.11331262637E+02  0.10861365949E+03  0.91292574707E+02 0.  0.
        -11    1    3    3    0    0 -0.41995063760E+02  0.25223314637E+02 -0.20872736464E+02  0.53249151251E+02  0.00000000000E+00 0. -1.
         11    1    3    3    0    0 -0.12894396483E+02 -0.43149342454E+02  0.32203999101E+02  0.55364508243E+02  0.00000000000E+00 0.  1.
        -15    1    1    2    0    0  0.88479513130E+02  0.78739824054E+02  0.79024085254E+02  0.14239574402E+03  0.17770000000E+01 0.  1.
         15    1    1    2    0    0 -0.33590052887E+02 -0.60813796237E+02 -0.90355347891E+02  0.11399059649E+03  0.17770000000E+01 0. -1.
</event>
<event>
 7    1  0.4166661E-008  0.2534217E+03  0.7546771E-02  0.1022839E+00
        -11   -1    0    0    0    0  0.00000000000E+00  0.00000000000E+00  0.18250000000E+03  0.18250000000E+03  0.00000000000E+00 0. -1.
         11   -1    0    0    0    0 -0.00000000000E+00 -0.00000000000E+00 -0.18250000000E+03  0.18250000000E+03  0.00000000000E+00 0.  1.
         23    2    1    2    0    0  0.45299772467E+02 -0.41472522847E+02  0.63169950871E+01  0.11157825340E+03  0.92939564603E+02 0.  0.
        -11    1    3    3    0    0  0.44685553818E+02 -0.58921433941E+02  0.31956082223E+02  0.80558831227E+02  0.00000000000E+00 0. -1.
         11    1    3    3    0    0  0.61421864850E+00  0.17448911094E+02 -0.25639087135E+02  0.31019422175E+02  0.00000000000E+00 0.  1.
        -15    1    1    2    0    0  0.40120069815E+02  0.85762953102E+02  0.80136234075E+02  0.12405594652E+03  0.17770000000E+01 0. -1.
         15    1    1    2    0    0 -0.85419842281E+02 -0.44290430255E+02 -0.86453229163E+02  0.12936580008E+03  0.17770000000E+01 0.  1.
</event>
<event>
 7    1  0.4166661E-008  0.3650000E+03  0.7546771E-02  0.9765871E-01
        -11   -1    0    0    0    0  0.00000000000E+00  0.00000000000E+00  0.18250000000E+03  0.18250000000E+03  0.00000000000E+00 0.  1.
         11   -1    0    0    0    0 -0.00000000000E+00 -0.00000000000E+00 -0.18250000000E+03  0.18250000000E+03  0.00000000000E+00 0. -1.
         23    2    1    2    0    0 -0.43947382911E+02  0.15472816560E+02 -0.25105093075E+02  0.10745664532E+03  0.93519433314E+02 0.  0.
        -11    1    3    3    0    0  0.10197610968E+01 -0.35945216040E+02 -0.53904065308E+01  0.36361448698E+02  0.00000000000E+00 0.  1.
         11    1    3    3    0    0 -0.44967144008E+02  0.51418032600E+02 -0.19714686544E+02  0.71095196618E+02  0.00000000000E+00 0. -1.
        -15    1    1    2    0    0 -0.61361821717E+02 -0.63373187068E+02 -0.66074975381E+02  0.11022927970E+03  0.17770000000E+01 0.  1.
         15    1    1    2    0    0  0.10530920463E+03  0.47900370509E+02  0.91180068456E+02  0.14731407498E+03  0.17770000000E+01 0. -1.
</event>
<event>
 7    1  0.4166661E-008  0.2608373E+03  0.7546771E-02  0.1019021E+00
        -11   -1    0    0    0    0  0.00000000000E+00  0.00000000000E+00  0.18250000000E+03  0.18250000000E+03  0.00000000000E+00 0.  1.
         11   -1    0    0    0    0 -0.00000000000E+00 -0.00000000000E+00 -0.18250000000E+03  0.18250000000E+03  0.00000000000E+00 0. -1.
         23    2    1    2    0    0  0.43718490410E+02  0.82169955485E+01 -0.22341476835E+02  0.10416269115E+03  0.91498083158E+02 0.  0.
        -11    1    3    3    0    0  0.63873986598E+02 -0.68933622750E+01 -0.37864852815E+02  0.74573129786E+02  0.00000000000E+00 0. -1.
         11    1    3    3    0    0 -0.20155496188E+02  0.15110357824E+02  0.15523375980E+02  0.29589561368E+02  0.00000000000E+00 0.  1.
        -15    1    1    2    0    0 -0.51303141269E+02  0.11525270902E+03 -0.24548821725E+02  0.12853404848E+03  0.17770000000E+01 0.  1.
         15    1    1    2    0    0  0.75846508596E+01 -0.12346970457E+03  0.46890298560E+02  0.13230326037E+03  0.17770000000E+01 0. -1.
</event>
<event>
 7    1  0.6456122E-008  0.2386332E+03  0.7546771E-02  0.1030894E+00
        -11   -1    0    0    0    0  0.00000000000E+00  0.00000000000E+00  0.18250000000E+03  0.18250000000E+03  0.00000000000E+00 0.  1.
         11   -1    0    0    0    0 -0.00000000000E+00 -0.00000000000E+00 -0.18250000000E+03  0.18250000000E+03  0.00000000000E+00 0. -1.
         23    2    1    2    0    0  0.75117485804E+02 -0.39973330466E+02  0.96792112547E+01  0.12636680170E+03  0.92921351793E+02 0.  0.
        -11    1    3    3    0    0  0.79568103073E+02 -0.24968604098E+02  0.39813852249E+02  0.92410264842E+02  0.00000000000E+00 0.  1.
         11    1    3    3    0    0 -0.44506172686E+01 -0.15004726368E+02 -0.30134640995E+02  0.33956536857E+02  0.00000000000E+00 0. -1.
        -15    1    1    2    0    0 -0.61629298668E+02  0.14822380988E+01  0.10229562321E+03  0.11944839782E+03  0.17770000000E+01 0.  1.
         15    1    1    2    0    0 -0.13488187136E+02  0.38491092367E+02 -0.11197483446E+03  0.11918480048E+03  0.17770000000E+01 0. -1.
</event>
<event>
 7    1  0.4166661E-008  0.2111692E+03  0.7546771E-02  0.1047679E+00
        -11   -1    0    0    0    0  0.00000000000E+00  0.00000000000E+00  0.18250000000E+03  0.18250000000E+03  0.00000000000E+00 0.  1.
         11   -1    0    0    0    0 -0.00000000000E+00 -0.00000000000E+00 -0.18250000000E+03  0.18250000000E+03  0.00000000000E+00 0.  1.
         23    2    1    2    0    0  0.65316759591E+02  0.74804283917E+02  0.71064624966E+02  0.15383084306E+03  0.93550988127E+02 0.  0.
        -11    1    3    3    0    0  0.81655656302E+02  0.61470212063E+02  0.81101633051E+02  0.13047493269E+03  0.00000000000E+00 0.  1.
         11    1    3    3    0    0 -0.16338896711E+02  0.13334071854E+02 -0.10037008085E+02  0.23355910371E+02  0.00000000000E+00 0.  1.
        -15    1    1    2    0    0  0.65921270231E+01 -0.10642867539E+03 -0.21733123360E+01  0.10666958376E+03  0.17770000000E+01 0.  1.
         15    1    1    2    0    0 -0.71908886614E+02  0.31624391471E+02 -0.68891312630E+02  0.10449957318E+03  0.17770000000E+01 0. -1.
</event>
<event>
 7    1  0.4166661E-008  0.2478361E+03  0.7546771E-02  0.1025810E+00
        -11   -1    0    0    0    0  0.00000000000E+00  0.00000000000E+00  0.18250000000E+03  0.18250000000E+03  0.00000000000E+00 0.  1.
         11   -1    0    0    0    0 -0.00000000000E+00 -0.00000000000E+00 -0.18250000000E+03  0.18250000000E+03  0.00000000000E+00 0. -1.
         23    2    1    2    0    0 -0.58370443281E+02  0.43016354008E+02  0.98244052731E+01  0.11716385213E+03  0.91505923015E+02 0.  0.
        -11    1    3    3    0    0 -0.55889647756E+02  0.35553704430E+02 -0.32732825772E+02  0.73886104972E+02  0.00000000000E+00 0. -1.
         11    1    3    3    0    0 -0.24807955249E+01  0.74626495772E+01  0.42557231045E+02  0.43277747161E+02  0.00000000000E+00 0.  1.
        -15    1    1    2    0    0 -0.37774138298E+02 -0.10621995020E+03 -0.53441742661E+02  0.12477476080E+03  0.17770000000E+01 0.  1.
         15    1    1    2    0    0  0.96144581579E+02  0.63203596189E+02  0.43617337388E+02  0.12306138707E+03  0.17770000000E+01 0. -1.
</event>
<event>
 7    1  0.4166661E-008  0.3650000E+03  0.7546771E-02  0.9765871E-01
        -11   -1    0    0    0    0  0.00000000000E+00  0.00000000000E+00  0.18250000000E+03  0.18250000000E+03  0.00000000000E+00 0.  1.
         11   -1    0    0    0    0 -0.00000000000E+00 -0.00000000000E+00 -0.18250000000E+03  0.18250000000E+03  0.00000000000E+00 0. -1.
         23    2    1    2    0    0  0.17611590906E+02  0.45893393427E+02 -0.11959430422E+03  0.15864883113E+03  0.91925417174E+02 0.  0.
        -11    1    3    3    0    0  0.48901382992E+02  0.44165300546E+02 -0.51300577060E+02  0.83508492009E+02  0.00000000000E+00 0.  1.
         11    1    3    3    0    0 -0.31289792086E+02  0.17280928805E+01 -0.68293727162E+02  0.75140339122E+02  0.00000000000E+00 0. -1.
        -15    1    1    2    0    0 -0.68959600907E+02 -0.65730176870E+02  0.11744221573E+03  0.15123397262E+03  0.17770000000E+01 0.  1.
         15    1    1    2    0    0  0.51348010001E+02  0.19836783443E+02  0.21520884869E+01  0.55117196249E+02  0.17770000000E+01 0. -1.
</event>
<event>
 7    1  0.4166661E-008  0.2056957E+03  0.7546771E-02  0.1051357E+00
        -11   -1    0    0    0    0  0.00000000000E+00  0.00000000000E+00  0.18250000000E+03  0.18250000000E+03  0.00000000000E+00 0.  1.
         11   -1    0    0    0    0 -0.00000000000E+00 -0.00000000000E+00 -0.18250000000E+03  0.18250000000E+03  0.00000000000E+00 0. -1.
         23    2    1    2    0    0  0.27174333136E+02 -0.22059746432E+02  0.12843173421E+03  0.15930432341E+03  0.87510458298E+02 0.  0.
        -11    1    3    3    0    0  0.27988410650E+02  0.45248984327E+01  0.20947101257E+00  0.28352596259E+02  0.00000000000E+00 0. -1.
         11    1    3    3    0    0 -0.81407751424E+00 -0.26584644865E+02  0.12822226320E+03  0.13095172715E+03  0.00000000000E+00 0.  1.
        -15    1    1    2    0    0 -0.58636018896E+02  0.76898214860E+02 -0.68112138012E+02  0.11829598148E+03  0.17770000000E+01 0. -1.
         15    1    1    2    0    0  0.31461685761E+02 -0.54838468428E+02 -0.60319596198E+02  0.87399695108E+02  0.17770000000E+01 0.  1.
</event>
<event>
 7    1  0.4166661E-008  0.3650000E+03  0.7546771E-02  0.9765871E-01
        -11   -1    0    0    0    0  0.00000000000E+00  0.00000000000E+00  0.18250000000E+03  0.18250000000E+03  0.00000000000E+00 0.  1.
         11   -1    0    0    0    0 -0.00000000000E+00 -0.00000000000E+00 -0.18250000000E+03  0.18250000000E+03  0.00000000000E+00 0. -1.
         23    2    1    2    0    0  0.46105730025E+02  0.16097077393E+02 -0.68545593127E+02  0.12562866059E+03  0.93269543699E+02 0.  0.
        -11    1    3    3    0    0 -0.80268267390E+01  0.30302620929E+02 -0.61751110574E+02  0.69252281116E+02  0.00000000000E+00 0. -1.
         11    1    3    3    0    0  0.54132556764E+02 -0.14205543536E+02 -0.67944825527E+01  0.56376379470E+02  0.00000000000E+00 0.  1.
        -15    1    1    2    0    0  0.26058579486E+01 -0.72341619634E+01  0.14665913872E+03  0.14687131883E+03  0.17770000000E+01 0.  1.
         15    1    1    2    0    0 -0.48711587974E+02 -0.88629154296E+01 -0.78113545598E+02  0.92500020582E+02  0.17770000000E+01 0. -1.
</event>
<event>
 7    1  0.4166661E-008  0.3650000E+03  0.7546771E-02  0.9765871E-01
        -11   -1    0    0    0    0  0.00000000000E+00  0.00000000000E+00  0.18250000000E+03  0.18250000000E+03  0.00000000000E+00 0. -1.
         11   -1    0    0    0    0 -0.00000000000E+00 -0.00000000000E+00 -0.18250000000E+03  0.18250000000E+03  0.00000000000E+00 0.  1.
         23    2    1    2    0    0 -0.69681512149E+02  0.48267327868E+02 -0.17819491094E+02  0.12643639173E+03  0.92105259439E+02 0.  0.
        -11    1    3    3    0    0 -0.17362298796E+02  0.42458581496E+02 -0.47476259957E+02  0.66016481440E+02  0.00000000000E+00 0.  1.
         11    1    3    3    0    0 -0.52319213352E+02  0.58087463720E+01  0.29656768863E+02  0.60419910291E+02  0.00000000000E+00 0. -1.
        -15    1    1    2    0    0  0.63808717046E+02 -0.13337590417E+03  0.33977269672E+02  0.15171781954E+03  0.17770000000E+01 0. -1.
         15    1    1    2    0    0  0.58727951029E+01  0.85108576299E+02 -0.16157778578E+02  0.86845788727E+02  0.17770000000E+01 0.  1.
</event>
<event>
 7    1  0.4166661E-008  0.2393139E+03  0.7546771E-02  0.1030509E+00
        -11   -1    0    0    0    0  0.00000000000E+00  0.00000000000E+00  0.18250000000E+03  0.18250000000E+03  0.00000000000E+00 0.  1.
         11   -1    0    0    0    0 -0.00000000000E+00 -0.00000000000E+00 -0.18250000000E+03  0.18250000000E+03  0.00000000000E+00 0. -1.
         23    2    1    2    0    0  0.17435019936E+01  0.86190740753E+02 -0.12123773261E+02  0.12568609060E+03  0.90653868645E+02 0.  0.
        -11    1    3    3    0    0 -0.97352954181E+01  0.25528207940E+02 -0.47304042610E+02  0.54627262651E+02  0.00000000000E+00 0.  1.
         11    1    3    3    0    0  0.11478797412E+02  0.60662532813E+02  0.35180269349E+02  0.71058827944E+02  0.00000000000E+00 0. -1.
        -15    1    1    2    0    0 -0.79863991314E+02 -0.42910233851E+02  0.84804091560E+02  0.12415489097E+03  0.17770000000E+01 0.  1.
         15    1    1    2    0    0  0.78120489321E+02 -0.43280506902E+02 -0.72680318299E+02  0.11515901843E+03  0.17770000000E+01 0. -1.
</event>
<event>
 7    1  0.4166661E-008  0.3650000E+03  0.7546771E-02  0.9765871E-01
        -11   -1    0    0    0    0  0.00000000000E+00  0.00000000000E+00  0.18250000000E+03  0.18250000000E+03  0.00000000000E+00 0.  1.
         11   -1    0    0    0    0 -0.00000000000E+00 -0.00000000000E+00 -0.18250000000E+03  0.18250000000E+03  0.00000000000E+00 0. -1.
         23    2    1    2    0    0 -0.43896857684E+02  0.86501282718E+02 -0.52146038795E+02  0.14236849244E+03  0.90222903147E+02 0.  0.
        -11    1    3    3    0    0  0.24602115118E+02  0.21930130031E+02  0.32919412001E+01  0.33121466579E+02  0.00000000000E+00 0.  1.
         11    1    3    3    0    0 -0.68498972802E+02  0.64571152687E+02 -0.55437979995E+02  0.10924702586E+03  0.00000000000E+00 0. -1.
        -15    1    1    2    0    0  0.21108027493E+02 -0.14865079249E+03  0.38718579839E+02  0.15506415797E+03  0.17770000000E+01 0.  1.
         15    1    1    2    0    0  0.22788830191E+02  0.62149509776E+02  0.13427458956E+02  0.67567349585E+02  0.17770000000E+01 0. -1.
</event>
<event>
 7    1  0.4166661E-008  0.3650000E+03  0.7546771E-02  0.9765871E-01
        -11   -1    0    0    0    0  0.00000000000E+00  0.00000000000E+00  0.18250000000E+03  0.18250000000E+03  0.00000000000E+00 0. -1.
         11   -1    0    0    0    0 -0.00000000000E+00 -0.00000000000E+00 -0.18250000000E+03  0.18250000000E+03  0.00000000000E+00 0.  1.
         23    2    1    2    0    0 -0.24370170707E+02  0.39051885976E+02  0.10103256690E+03  0.14347620722E+03  0.90878421234E+02 0.  0.
        -11    1    3    3    0    0 -0.10318469821E+02 -0.24484816670E+02  0.43336640406E+01  0.26921324463E+02  0.00000000000E+00 0. -1.
         11    1    3    3    0    0 -0.14051700886E+02  0.63536702646E+02  0.96698902860E+02  0.11655488276E+03  0.00000000000E+00 0.  1.
        -15    1    1    2    0    0 -0.39854518694E+02  0.90097397407E+01  0.41305854894E+02  0.58128215594E+02  0.17770000000E+01 0. -1.
         15    1    1    2    0    0  0.64224689401E+02 -0.48061625716E+02 -0.14233842179E+03  0.16339557718E+03  0.17770000000E+01 0.  1.
</event>
<event>
 7    1  0.4166661E-008  0.3650000E+03  0.7546771E-02  0.9765871E-01
        -11   -1    0    0    0    0  0.00000000000E+00  0.00000000000E+00  0.18250000000E+03  0.18250000000E+03  0.00000000000E+00 0.  1.
         11   -1    0    0    0    0 -0.00000000000E+00 -0.00000000000E+00 -0.18250000000E+03  0.18250000000E+03  0.00000000000E+00 0. -1.
         23    2    1    2    0    0 -0.11099164324E+01 -0.43854676671E+02 -0.35215730415E+02  0.10714810682E+03  0.91192678140E+02 0.  0.
        -11    1    3    3    0    0  0.93526644103E-02  0.28506178075E+02 -0.13836358076E+02  0.31686701954E+02  0.00000000000E+00 0.  1.
         11    1    3    3    0    0 -0.11192690968E+01 -0.72360854746E+02 -0.21379372339E+02  0.75461404867E+02  0.00000000000E+00 0. -1.
        -15    1    1    2    0    0  0.63133897378E+02  0.52184611242E+02  0.12435876135E+03  0.14892072355E+03  0.17770000000E+01 0.  1.
         15    1    1    2    0    0 -0.62023980945E+02 -0.83299345713E+01 -0.89143030939E+02  0.10893116963E+03  0.17770000000E+01 0. -1.
</event>
<event>
 7    1  0.4166661E-008  0.2572529E+03  0.7546771E-02  0.1020849E+00
        -11   -1    0    0    0    0  0.00000000000E+00  0.00000000000E+00  0.18250000000E+03  0.18250000000E+03  0.00000000000E+00 0. -1.
         11   -1    0    0    0    0 -0.00000000000E+00 -0.00000000000E+00 -0.18250000000E+03  0.18250000000E+03  0.00000000000E+00 0.  1.
         23    2    1    2    0    0  0.12310589168E+02  0.34605615891E+02 -0.43086883332E+02  0.10774711786E+03  0.91672583879E+02 0.  0.
        -11    1    3    3    0    0  0.45234935927E+02  0.38519624646E+02 -0.45006323530E+02  0.74535428280E+02  0.00000000000E+00 0. -1.
         11    1    3    3    0    0 -0.32924346760E+02 -0.39140087543E+01  0.19194401979E+01  0.33211689580E+02  0.00000000000E+00 0.  1.
        -15    1    1    2    0    0  0.84757898454E+02 -0.69862513481E+02  0.91699415399E+02  0.14309651517E+03  0.17770000000E+01 0. -1.
         15    1    1    2    0    0 -0.97068487622E+02  0.35256897590E+02 -0.48612532067E+02  0.11415636697E+03  0.17770000000E+01 0.  1.
</event>
<event>
 7    1  0.4166661E-008  0.1994576E+03  0.7546771E-02  0.1055705E+00
        -11   -1    0    0    0    0  0.00000000000E+00  0.00000000000E+00  0.18250000000E+03  0.18250000000E+03  0.00000000000E+00 0.  1.
         11   -1    0    0    0    0 -0.00000000000E+00 -0.00000000000E+00 -0.18250000000E+03  0.18250000000E+03  0.00000000000E+00 0. -1.
         23    2    1    2    0    0 -0.15960606147E+02  0.67708525313E+02 -0.12001595062E+03  0.16554244283E+03  0.90339839644E+02 0.  0.
        -11    1    3    3    0    0  0.14935262164E+01  0.86738432001E+02 -0.80560487386E+02  0.11838825252E+03  0.00000000000E+00 0.  1.
         11    1    3    3    0    0 -0.17454132364E+02 -0.19029906688E+02 -0.39455463233E+02  0.47154190313E+02  0.00000000000E+00 0. -1.
        -15    1    1    2    0    0 -0.54093258345E+02  0.92631091213E+01  0.35630565606E+02  0.65456708773E+02  0.17770000000E+01 0.  1.
         15    1    1    2    0    0  0.70053864493E+02 -0.76971634435E+02  0.84385385013E+02  0.13400084840E+03  0.17770000000E+01 0. -1.
</event>
<event>
 7    1  0.4166661E-008  0.3650000E+03  0.7546771E-02  0.9765871E-01
        -11   -1    0    0    0    0  0.00000000000E+00  0.00000000000E+00  0.18250000000E+03  0.18250000000E+03  0.00000000000E+00 0. -1.
         11   -1    0    0    0    0 -0.00000000000E+00 -0.00000000000E+00 -0.18250000000E+03  0.18250000000E+03  0.00000000000E+00 0.  1.
         23    2    1    2    0    0 -0.64361272925E+02  0.75291105250E+02 -0.10244615987E+02  0.13427567031E+03  0.90077075315E+02 0.  0.
        -11    1    3    3    0    0 -0.66944442236E+02  0.92405465475E+02  0.10975584644E+00  0.11410670639E+03  0.00000000000E+00 0. -1.
         11    1    3    3    0    0  0.25831693113E+01 -0.17114360225E+02 -0.10354371833E+02  0.20168963921E+02  0.00000000000E+00 0.  1.
        -15    1    1    2    0    0  0.48041768912E+02  0.69647488844E+02  0.31718708374E+01  0.84687677711E+02  0.17770000000E+01 0. -1.
         15    1    1    2    0    0  0.16319504014E+02 -0.14493859409E+03  0.70727451495E+01  0.14603665198E+03  0.17770000000E+01 0.  1.
</event>
<event>
 7    1  0.4166661E-008  0.3650000E+03  0.7546771E-02  0.9765871E-01
        -11   -1    0    0    0    0  0.00000000000E+00  0.00000000000E+00  0.18250000000E+03  0.18250000000E+03  0.00000000000E+00 0. -1.
         11   -1    0    0    0    0 -0.00000000000E+00 -0.00000000000E+00 -0.18250000000E+03  0.18250000000E+03  0.00000000000E+00 0.  1.
         23    2    1    2    0    0 -0.48533025050E+02  0.14580731045E+02 -0.39353876202E+02  0.11201841722E+03  0.91822361029E+02 0.  0.
        -11    1    3    3    0    0 -0.51312224930E+02 -0.13210635116E+02 -0.57905265957E+02  0.78488758004E+02  0.00000000000E+00 0. -1.
         11    1    3    3    0    0  0.27791998798E+01  0.27791366161E+02  0.18551389754E+02  0.33529659212E+02  0.00000000000E+00 0.  1.
        -15    1    1    2    0    0  0.72992010394E+02 -0.52915871727E+02  0.12609972954E+03  0.15502329689E+03  0.17770000000E+01 0. -1.
         15    1    1    2    0    0 -0.24458985344E+02  0.38335140682E+02 -0.86745853333E+02  0.97958285890E+02  0.17770000000E+01 0.  1.
</event>
<event>
 7    1  0.4166661E-008  0.1954567E+03  0.7546771E-02  0.1058585E+00
        -11   -1    0    0    0    0  0.00000000000E+00  0.00000000000E+00  0.18250000000E+03  0.18250000000E+03  0.00000000000E+00 0. -1.
         11   -1    0    0    0    0 -0.00000000000E+00 -0.00000000000E+00 -0.18250000000E+03  0.18250000000E+03  0.00000000000E+00 0.  1.
         23    2    1    2    0    0 -0.87385209149E+01  0.12293505571E+03  0.73319585684E+02  0.16954331169E+03  0.90442154036E+02 0.  0.
        -11    1    3    3    0    0  0.27256331095E+02  0.23174471827E+02  0.49109532107E+02  0.60759442665E+02  0.00000000000E+00 0. -1.
         11    1    3    3    0    0 -0.35994852010E+02  0.99760583878E+02  0.24210053577E+02  0.10878386903E+03  0.00000000000E+00 0.  1.
        -15    1    1    2    0    0 -0.33300805327E+02 -0.13096987384E+03 -0.39278565160E+02  0.14074094961E+03  0.17770000000E+01 0. -1.
         15    1    1    2    0    0  0.42039326242E+02  0.80348181306E+01 -0.34041020524E+02  0.54715738692E+02  0.17770000000E+01 0.  1.
</event>
<event>
 7    1  0.4166661E-008  0.2049162E+03  0.7546771E-02  0.1051891E+00
        -11   -1    0    0    0    0  0.00000000000E+00  0.00000000000E+00  0.18250000000E+03  0.18250000000E+03  0.00000000000E+00 0.  1.
         11   -1    0    0    0    0 -0.00000000000E+00 -0.00000000000E+00 -0.18250000000E+03  0.18250000000E+03  0.00000000000E+00 0. -1.
         23    2    1    2    0    0  0.81118332724E+02  0.50178740219E+02 -0.90605447159E+02  0.16008383391E+03  0.91210728264E+02 0.  0.
        -11    1    3    3    0    0 -0.18670234257E+02  0.14509398020E+02 -0.57746364693E+01  0.24340228110E+02  0.00000000000E+00 0.  1.
         11    1    3    3    0    0  0.99788566982E+02  0.35669342199E+02 -0.84830810690E+02  0.13574360580E+03  0.00000000000E+00 0. -1.
        -15    1    1    2    0    0 -0.95816722689E+02 -0.58233837337E+02  0.12419760587E+03  0.16733268417E+03  0.17770000000E+01 0.  1.
         15    1    1    2    0    0  0.14698389965E+02  0.80550971185E+01 -0.33592158715E+02  0.37583481920E+02  0.17770000000E+01 0. -1.
</event>
<event>
 7    1  0.4166661E-008  0.3650000E+03  0.7546771E-02  0.9765871E-01
        -11   -1    0    0    0    0  0.00000000000E+00  0.00000000000E+00  0.18250000000E+03  0.18250000000E+03  0.00000000000E+00 0.  1.
         11   -1    0    0    0    0 -0.00000000000E+00 -0.00000000000E+00 -0.18250000000E+03  0.18250000000E+03  0.00000000000E+00 0. -1.
         23    2    1    2    0    0 -0.48832048971E+02  0.57090761958E+02 -0.10896024669E+03  0.15925758468E+03  0.88581706973E+02 0.  0.
        -11    1    3    3    0    0 -0.43365790624E+02 -0.31082454986E+01 -0.12179130488E+02  0.45150683339E+02  0.00000000000E+00 0.  1.
         11    1    3    3    0    0 -0.54662583468E+01  0.60199007457E+02 -0.96781116206E+02  0.11410690134E+03  0.00000000000E+00 0. -1.
        -15    1    1    2    0    0  0.92054842460E+02 -0.83085500028E+02  0.75583689420E+02  0.14523548523E+03  0.17770000000E+01 0.  1.
         15    1    1    2    0    0 -0.43222793489E+02  0.25994738071E+02  0.33376557274E+02  0.60506930089E+02  0.17770000000E+01 0. -1.
</event>
<event>
 7    1  0.4166661E-008  0.3650000E+03  0.7546771E-02  0.9765871E-01
        -11   -1    0    0    0    0  0.00000000000E+00  0.00000000000E+00  0.18250000000E+03  0.18250000000E+03  0.00000000000E+00 0.  1.
         11   -1    0    0    0    0 -0.00000000000E+00 -0.00000000000E+00 -0.18250000000E+03  0.18250000000E+03  0.00000000000E+00 0. -1.
         23    2    1    2    0    0 -0.24127259337E+01  0.22110839202E+02  0.12428454218E+02  0.95197915308E+02  0.91724948341E+02 0.  0.
        -11    1    3    3    0    0 -0.29979771260E+02 -0.25224309039E+02  0.73650572813E+00  0.39186667273E+02  0.00000000000E+00 0.  1.
         11    1    3    3    0    0  0.27567045326E+02  0.47335148241E+02  0.11691948490E+02  0.56011248035E+02  0.00000000000E+00 0. -1.
        -15    1    1    2    0    0 -0.11051718639E+02 -0.13989659400E+03  0.30651874763E+02  0.14365198451E+03  0.17770000000E+01 0.  1.
         15    1    1    2    0    0  0.13464444572E+02  0.11778575480E+03 -0.43080328982E+02  0.12615010018E+03  0.17770000000E+01 0. -1.
</event>
<event>
 7    1  0.4166661E-008  0.3650000E+03  0.7546771E-02  0.9765871E-01
        -11   -1    0    0    0    0  0.00000000000E+00  0.00000000000E+00  0.18250000000E+03  0.18250000000E+03  0.00000000000E+00 0.  1.
         11   -1    0    0    0    0 -0.00000000000E+00 -0.00000000000E+00 -0.18250000000E+03  0.18250000000E+03  0.00000000000E+00 0. -1.
         23    2    1    2    0    0 -0.25398150528E+02  0.38662939138E+02  0.37551274734E+02  0.10724659709E+03  0.89173120618E+02 0.  0.
        -11    1    3    3    0    0 -0.36874527516E+01 -0.25598367394E+02 -0.61164691839E+01  0.26576021453E+02  0.00000000000E+00 0. -1.
         11    1    3    3    0    0 -0.21710697777E+02  0.64261306532E+02  0.43667743918E+02  0.80670575639E+02  0.00000000000E+00 0.  1.
        -15    1    1    2    0    0 -0.10184789905E+03 -0.13996492723E+02  0.35723578191E+02  0.10884956645E+03  0.17770000000E+01 0.  1.
         15    1    1    2    0    0  0.12724604958E+03 -0.24666446415E+02 -0.73274852924E+02  0.14890383646E+03  0.17770000000E+01 0. -1.
</event>
<event>
 7    1  0.4166661E-008  0.3650000E+03  0.7546771E-02  0.9765871E-01
        -11   -1    0    0    0    0  0.00000000000E+00  0.00000000000E+00  0.18250000000E+03  0.18250000000E+03  0.00000000000E+00 0.  1.
         11   -1    0    0    0    0 -0.00000000000E+00 -0.00000000000E+00 -0.18250000000E+03  0.18250000000E+03  0.00000000000E+00 0. -1.
         23    2    1    2    0    0 -0.84362414112E+02  0.98854509545E+01  0.76028594929E+02  0.14600976068E+03  0.91234663987E+02 0.  0.
        -11    1    3    3    0    0 -0.13629676915E+02  0.22199471395E+02 -0.15011617434E+02  0.30065483216E+02  0.00000000000E+00 0. -1.
         11    1    3    3    0    0 -0.70732737197E+02 -0.12314020440E+02  0.91040212363E+02  0.11594427747E+03  0.00000000000E+00 0.  1.
        -15    1    1    2    0    0  0.56246852290E+02 -0.83508541638E+02 -0.94422180241E+02  0.13804380018E+03  0.17770000000E+01 0. -1.
         15    1    1    2    0    0  0.28115561822E+02  0.73623090684E+02  0.18393585311E+02  0.80946439131E+02  0.17770000000E+01 0.  1.
</event>
<event>
 7    1  0.4166661E-008  0.3650000E+03  0.7546771E-02  0.9765871E-01
        -11   -1    0    0    0    0  0.00000000000E+00  0.00000000000E+00  0.18250000000E+03  0.18250000000E+03  0.00000000000E+00 0.  1.
         11   -1    0    0    0    0 -0.00000000000E+00 -0.00000000000E+00 -0.18250000000E+03  0.18250000000E+03  0.00000000000E+00 0. -1.
         23    2    1    2    0    0  0.10317165966E+02  0.24196346922E+02  0.26331491586E+02  0.98577036272E+02  0.91280762009E+02 0.  0.
        -11    1    3    3    0    0  0.40680572492E+02  0.30268071853E+02  0.40142440627E+02  0.64672101338E+02  0.00000000000E+00 0.  1.
         11    1    3    3    0    0 -0.30363406526E+02 -0.60717249311E+01 -0.13810949041E+02  0.33904934934E+02  0.00000000000E+00 0. -1.
        -15    1    1    2    0    0  0.23905210496E+02 -0.11340275014E+02  0.11624098553E+03  0.11922745226E+03  0.17770000000E+01 0.  1.
         15    1    1    2    0    0 -0.34222376462E+02 -0.12856071908E+02 -0.14257247712E+03  0.14719551147E+03  0.17770000000E+01 0. -1.
</event>
<event>
 7    1  0.4166661E-008  0.1900255E+03  0.7546771E-02  0.1062618E+00
        -11   -1    0    0    0    0  0.00000000000E+00  0.00000000000E+00  0.18250000000E+03  0.18250000000E+03  0.00000000000E+00 0. -1.
         11   -1    0    0    0    0 -0.00000000000E+00 -0.00000000000E+00 -0.18250000000E+03  0.18250000000E+03  0.00000000000E+00 0.  1.
         23    2    1    2    0    0 -0.50462698957E+02  0.21654913055E+02 -0.14150933383E+03  0.17497454608E+03  0.87038962360E+02 0.  0.
        -11    1    3    3    0    0 -0.50739154661E+02  0.51606278937E+02 -0.10826851572E+03  0.13022957167E+03  0.00000000000E+00 0.  1.
         11    1    3    3    0    0  0.27645570456E+00 -0.29951365882E+02 -0.33240818103E+02  0.44744974401E+02  0.00000000000E+00 0. -1.
        -15    1    1    2    0    0  0.39464397158E+02 -0.17444478915E+01  0.15735482812E+03  0.16224728473E+03  0.17770000000E+01 0. -1.
         15    1    1    2    0    0  0.10998301798E+02 -0.19910465163E+02 -0.15845494290E+02  0.27778169194E+02  0.17770000000E+01 0.  1.
</event>
<event>
 7    1  0.4166661E-008  0.2677576E+03  0.7546771E-02  0.1015579E+00
        -11   -1    0    0    0    0  0.00000000000E+00  0.00000000000E+00  0.18250000000E+03  0.18250000000E+03  0.00000000000E+00 0.  1.
         11   -1    0    0    0    0 -0.00000000000E+00 -0.00000000000E+00 -0.18250000000E+03  0.18250000000E+03  0.00000000000E+00 0. -1.
         23    2    1    2    0    0  0.35102646252E+02  0.64556075163E+01  0.25959906058E+02  0.97242370923E+02  0.86650397217E+02 0.  0.
        -11    1    3    3    0    0  0.10002468650E+01 -0.20233981181E+02 -0.23815099410E+02  0.31266170986E+02  0.00000000000E+00 0. -1.
         11    1    3    3    0    0  0.34102399387E+02  0.26689588697E+02  0.49775005468E+02  0.65976199937E+02  0.00000000000E+00 0.  1.
        -15    1    1    2    0    0  0.34434331580E+02  0.11422506389E+03  0.20204995972E+02  0.12101441238E+03  0.17770000000E+01 0.  1.
         15    1    1    2    0    0 -0.69536977833E+02 -0.12068067141E+03 -0.46164902030E+02  0.14674321670E+03  0.17770000000E+01 0. -1.
</event>
<event>
 7    1  0.4166661E-008  0.3650000E+03  0.7546771E-02  0.9765871E-01
        -11   -1    0    0    0    0  0.00000000000E+00  0.00000000000E+00  0.18250000000E+03  0.18250000000E+03  0.00000000000E+00 0. -1.
         11   -1    0    0    0    0 -0.00000000000E+00 -0.00000000000E+00 -0.18250000000E+03  0.18250000000E+03  0.00000000000E+00 0. -1.
         23    2    1    2    0    0  0.90765888087E+00  0.51009502961E+02 -0.11846140497E+03  0.15737546984E+03  0.90172838495E+02 0.  0.
        -11    1    3    3    0    0  0.74558651064E+01 -0.15178232297E+02  0.45696979492E+01  0.17517157289E+02  0.00000000000E+00 0. -1.
         11    1    3    3    0    0 -0.65482062255E+01  0.66187735258E+02 -0.12303110292E+03  0.13985831255E+03  0.00000000000E+00 0. -1.
        -15    1    1    2    0    0  0.50020151964E+02 -0.82961204190E+02  0.11048384430E+03  0.14695038136E+03  0.17770000000E+01 0. -1.
         15    1    1    2    0    0 -0.50927810845E+02  0.31951701229E+02  0.79775606750E+01  0.60674148797E+02  0.17770000000E+01 0.  1.
</event>
<event>
 7    1  0.4166661E-008  0.3650000E+03  0.7546771E-02  0.9765871E-01
        -11   -1    0    0    0    0  0.00000000000E+00  0.00000000000E+00  0.18250000000E+03  0.18250000000E+03  0.00000000000E+00 0. -1.
         11   -1    0    0    0    0 -0.00000000000E+00 -0.00000000000E+00 -0.18250000000E+03  0.18250000000E+03  0.00000000000E+00 0.  1.
         23    2    1    2    0    0  0.10802259448E+03 -0.59550730665E+02 -0.14392650868E+02  0.15541619277E+03  0.93444497617E+02 0.  0.
        -11    1    3    3    0    0  0.32082783887E+02 -0.10127748662E+02 -0.48138441550E+02  0.58729769877E+02  0.00000000000E+00 0.  1.
         11    1    3    3    0    0  0.75939810593E+02 -0.49422982003E+02  0.33745790682E+02  0.96686422892E+02  0.00000000000E+00 0. -1.
        -15    1    1    2    0    0  0.27790831340E+01 -0.19854646015E+02  0.61997740306E+02  0.65182879681E+02  0.17770000000E+01 0. -1.
         15    1    1    2    0    0 -0.11080167761E+03  0.79405376680E+02 -0.47605089439E+02  0.14440092755E+03  0.17770000000E+01 0.  1.
</event>
<event>
 7    1  0.4166661E-008  0.3650000E+03  0.7546771E-02  0.9765871E-01
        -11   -1    0    0    0    0  0.00000000000E+00  0.00000000000E+00  0.18250000000E+03  0.18250000000E+03  0.00000000000E+00 0. -1.
         11   -1    0    0    0    0 -0.00000000000E+00 -0.00000000000E+00 -0.18250000000E+03  0.18250000000E+03  0.00000000000E+00 0.  1.
         23    2    1    2    0    0 -0.15806112953E+02  0.85630496574E+01 -0.55238656321E+01  0.93417831020E+02  0.91505295120E+02 0.  0.
        -11    1    3    3    0    0 -0.21145212045E+02  0.18661238713E+02 -0.44565534949E+02  0.52739441863E+02  0.00000000000E+00 0.  1.
         11    1    3    3    0    0  0.53390990921E+01 -0.10098189056E+02  0.39041669317E+02  0.40678389157E+02  0.00000000000E+00 0. -1.
        -15    1    1    2    0    0 -0.99184102651E+02  0.68951134475E+02  0.42470541443E+02  0.12805721293E+03  0.17770000000E+01 0.  1.
         15    1    1    2    0    0  0.11499021560E+03 -0.77514184132E+02 -0.36946675811E+02  0.14352495605E+03  0.17770000000E+01 0. -1.
</event>
<event>
 7    1  0.4166661E-008  0.3650000E+03  0.7546771E-02  0.9765871E-01
        -11   -1    0    0    0    0  0.00000000000E+00  0.00000000000E+00  0.18250000000E+03  0.18250000000E+03  0.00000000000E+00 0.  1.
         11   -1    0    0    0    0 -0.00000000000E+00 -0.00000000000E+00 -0.18250000000E+03  0.18250000000E+03  0.00000000000E+00 0. -1.
         23    2    1    2    0    0 -0.10711004138E+01  0.10474565355E+02  0.66549951100E+02  0.11309752107E+03  0.90836608840E+02 0.  0.
        -11    1    3    3    0    0  0.41852678411E+02  0.16693528299E+02  0.19472974699E+02  0.49086834497E+02  0.00000000000E+00 0.  1.
         11    1    3    3    0    0 -0.42923778825E+02 -0.62189629440E+01  0.47076976400E+02  0.64010686574E+02  0.00000000000E+00 0. -1.
        -15    1    1    2    0    0  0.43130312880E+02 -0.32947951253E+02  0.80611960325E+02  0.97196899423E+02  0.17770000000E+01 0.  1.
         15    1    1    2    0    0 -0.42059212467E+02  0.22473385899E+02 -0.14716191142E+03  0.15470557951E+03  0.17770000000E+01 0. -1.
</event>
<event>
 7    1  0.4166661E-008  0.2460267E+03  0.7546771E-02  0.1026790E+00
        -11   -1    0    0    0    0  0.00000000000E+00  0.00000000000E+00  0.18250000000E+03  0.18250000000E+03  0.00000000000E+00 0.  1.
         11   -1    0    0    0    0 -0.00000000000E+00 -0.00000000000E+00 -0.18250000000E+03  0.18250000000E+03  0.00000000000E+00 0. -1.
         23    2    1    2    0    0 -0.79905412336E+01 -0.43080900177E+02 -0.61602134844E+02  0.11897329621E+03  0.91869524238E+02 0.  0.
        -11    1    3    3    0    0  0.35171851971E+02 -0.46199861585E+02 -0.29767126689E+02  0.65250043777E+02  0.00000000000E+00 0.  1.
         11    1    3    3    0    0 -0.43162393205E+02  0.31189614074E+01 -0.31835008154E+02  0.53723252430E+02  0.00000000000E+00 0. -1.
        -15    1    1    2    0    0  0.12837821886E+02  0.13635071172E+03  0.55292929307E+01  0.13707682906E+03  0.17770000000E+01 0.  1.
         15    1    1    2    0    0 -0.48472806521E+01 -0.93269811541E+02  0.56072841913E+02  0.10894987473E+03  0.17770000000E+01 0. -1.
</event>
<event>
 7    1  0.4166661E-008  0.2730270E+03  0.7546771E-02  0.1013033E+00
        -11   -1    0    0    0    0  0.00000000000E+00  0.00000000000E+00  0.18250000000E+03  0.18250000000E+03  0.00000000000E+00 0. -1.
         11   -1    0    0    0    0 -0.00000000000E+00 -0.00000000000E+00 -0.18250000000E+03  0.18250000000E+03  0.00000000000E+00 0.  1.
         23    2    1    2    0    0  0.42716041826E+01 -0.55814827117E+01  0.62046394902E+01  0.91973031909E+02  0.91493942399E+02 0.  0.
        -11    1    3    3    0    0 -0.35373977981E+02  0.15750652081E+02 -0.15850435646E+02  0.41840622240E+02  0.00000000000E+00 0. -1.
         11    1    3    3    0    0  0.39645582164E+02 -0.21332134793E+02  0.22055075136E+02  0.50132409669E+02  0.00000000000E+00 0.  1.
        -15    1    1    2    0    0 -0.43624987757E+02  0.12658364279E+03  0.36520399281E+02  0.13879285094E+03  0.17770000000E+01 0. -1.
         15    1    1    2    0    0  0.39353383575E+02 -0.12100216008E+03 -0.42725038771E+02  0.13423411716E+03  0.17770000000E+01 0.  1.
</event>
<event>
 7    1  0.4166661E-008  0.3650000E+03  0.7546771E-02  0.9765871E-01
        -11   -1    0    0    0    0  0.00000000000E+00  0.00000000000E+00  0.18250000000E+03  0.18250000000E+03  0.00000000000E+00 0.  1.
         11   -1    0    0    0    0 -0.00000000000E+00 -0.00000000000E+00 -0.18250000000E+03  0.18250000000E+03  0.00000000000E+00 0. -1.
         23    2    1    2    0    0 -0.33036998040E+02 -0.67527787401E+01 -0.12070794855E+03  0.15363121328E+03  0.88854361687E+02 0.  0.
        -11    1    3    3    0    0 -0.54505684510E+02 -0.27066209715E+02 -0.56910965279E+02  0.83320509607E+02  0.00000000000E+00 0.  1.
         11    1    3    3    0    0  0.21468686470E+02  0.20313430974E+02 -0.63796983267E+02  0.70310703671E+02  0.00000000000E+00 0. -1.
        -15    1    1    2    0    0  0.84512937880E+02 -0.31361543099E+02  0.11628106687E+03  0.14714084170E+03  0.17770000000E+01 0.  1.
         15    1    1    2    0    0 -0.51475939841E+02  0.38114321839E+02  0.44268816812E+01  0.64227945026E+02  0.17770000000E+01 0. -1.
</event>
<event>
 7    1  0.4166661E-008  0.1842291E+03  0.7546771E-02  0.1067087E+00
        -11   -1    0    0    0    0  0.00000000000E+00  0.00000000000E+00  0.18250000000E+03  0.18250000000E+03  0.00000000000E+00 0. -1.
         11   -1    0    0    0    0 -0.00000000000E+00 -0.00000000000E+00 -0.18250000000E+03  0.18250000000E+03  0.00000000000E+00 0.  1.
         23    2    1    2    0    0 -0.59181787729E+02 -0.14891475239E+03  0.56301585097E+01  0.18422913317E+03  0.90722584535E+02 0.  0.
        -11    1    3    3    0    0 -0.20666335384E+02 -0.14487476332E+02 -0.30707924156E+02  0.39748723183E+02  0.00000000000E+00 0.  1.
         11    1    3    3    0    0 -0.38515452345E+02 -0.13442727606E+03  0.36338082666E+02  0.14448040999E+03  0.00000000000E+00 0. -1.
        -15    1    1    2    0    0  0.66996103857E+02  0.88213988311E+02  0.23052311504E+02  0.11315808615E+03  0.17770000000E+01 0.  1.
         15    1    1    2    0    0 -0.78143161275E+01  0.60700764082E+02 -0.28682470013E+02  0.67612780683E+02  0.17770000000E+01 0. -1.
</event>
<event>
 7    1  0.4166661E-008  0.1902080E+03  0.7546771E-02  0.1062480E+00
        -11   -1    0    0    0    0  0.00000000000E+00  0.00000000000E+00  0.18250000000E+03  0.18250000000E+03  0.00000000000E+00 0.  1.
         11   -1    0    0    0    0 -0.00000000000E+00 -0.00000000000E+00 -0.18250000000E+03  0.18250000000E+03  0.00000000000E+00 0. -1.
         23    2    1    2    0    0  0.67384726548E+02  0.13102854543E+03 -0.10876231603E+02  0.17479202438E+03  0.93406521621E+02 0.  0.
        -11    1    3    3    0    0  0.64586685253E+02  0.14393288133E+03 -0.19590648560E+02  0.15897140545E+03  0.00000000000E+00 0.  1.
         11    1    3    3    0    0  0.27980412950E+01 -0.12904335902E+02  0.87144169572E+01  0.15820618921E+02  0.00000000000E+00 0. -1.
        -15    1    1    2    0    0 -0.40921177004E+02 -0.12762858206E+03  0.49792993141E+02  0.14298985132E+03  0.17770000000E+01 0.  1.
         15    1    1    2    0    0 -0.26463549544E+02 -0.33999633745E+01 -0.38916761537E+02  0.47218124306E+02  0.17770000000E+01 0. -1.
</event>
<event>
 7    1  0.4166661E-008  0.3650000E+03  0.7546771E-02  0.9765871E-01
        -11   -1    0    0    0    0  0.00000000000E+00  0.00000000000E+00  0.18250000000E+03  0.18250000000E+03  0.00000000000E+00 0.  1.
         11   -1    0    0    0    0 -0.00000000000E+00 -0.00000000000E+00 -0.18250000000E+03  0.18250000000E+03  0.00000000000E+00 0. -1.
         23    2    1    2    0    0 -0.81338529733E+02  0.37670974357E+02 -0.51594953996E+02  0.13760231231E+03  0.90759563392E+02 0.  0.
        -11    1    3    3    0    0 -0.73687093858E+02  0.57295800614E+02 -0.63983341426E+02  0.11316565092E+03  0.00000000000E+00 0. -1.
         11    1    3    3    0    0 -0.76514358750E+01 -0.19624826257E+02  0.12388387430E+02  0.24436661385E+02  0.00000000000E+00 0.  1.
        -15    1    1    2    0    0  0.14343585349E+03 -0.15249582751E+02  0.10971141287E+01  0.14425933325E+03  0.17770000000E+01 0.  1.
         15    1    1    2    0    0 -0.62097323756E+02 -0.22421391606E+02  0.50497839867E+02  0.83138354443E+02  0.17770000000E+01 0. -1.
</event>
<event>
 7    1  0.4166661E-008  0.3650000E+03  0.7546771E-02  0.9765871E-01
        -11   -1    0    0    0    0  0.00000000000E+00  0.00000000000E+00  0.18250000000E+03  0.18250000000E+03  0.00000000000E+00 0. -1.
         11   -1    0    0    0    0 -0.00000000000E+00 -0.00000000000E+00 -0.18250000000E+03  0.18250000000E+03  0.00000000000E+00 0.  1.
         23    2    1    2    0    0  0.95380416122E+01 -0.21098605359E+01 -0.79093774725E+02  0.12104649125E+03  0.91109835330E+02 0.  0.
        -11    1    3    3    0    0 -0.17161927534E+02 -0.25142436269E+02  0.40735958694E+01  0.30712669072E+02  0.00000000000E+00 0. -1.
         11    1    3    3    0    0  0.26699969146E+02  0.23032575733E+02 -0.83167370594E+02  0.90333822176E+02  0.00000000000E+00 0.  1.
        -15    1    1    2    0    0 -0.83319143136E+02 -0.33148064262E+02 -0.41029550172E+02  0.98627863678E+02  0.17770000000E+01 0. -1.
         15    1    1    2    0    0  0.73781101524E+02  0.35257924798E+02  0.12012332490E+03  0.14532564508E+03  0.17770000000E+01 0.  1.
</event>
<event>
 7    1  0.4433424E-008  0.3650000E+03  0.7546771E-02  0.9765871E-01
        -11   -1    0    0    0    0  0.00000000000E+00  0.00000000000E+00  0.18250000000E+03  0.18250000000E+03  0.00000000000E+00 0.  1.
         11   -1    0    0    0    0 -0.00000000000E+00 -0.00000000000E+00 -0.18250000000E+03  0.18250000000E+03  0.00000000000E+00 0. -1.
         23    2    1    2    0    0  0.21703977761E+02 -0.49281982933E+02 -0.75164923326E+02  0.13042799691E+03  0.91988695979E+02 0.  0.
        -11    1    3    3    0    0  0.49063618019E+02 -0.15761837876E+02 -0.69896541988E+02  0.86840087104E+02  0.00000000000E+00 0.  1.
         11    1    3    3    0    0 -0.27359640258E+02 -0.33520145057E+02 -0.52683813381E+01  0.43587909810E+02  0.00000000000E+00 0. -1.
        -15    1    1    2    0    0  0.10146247011E+02  0.13223169126E+03  0.54073033048E+02  0.14323134131E+03  0.17770000000E+01 0.  1.
         15    1    1    2    0    0 -0.31850224773E+02 -0.82949708325E+02  0.21091890278E+02  0.91340661776E+02  0.17770000000E+01 0. -1.
</event>
<event>
 7    1  0.4166661E-008  0.3650000E+03  0.7546771E-02  0.9765871E-01
        -11   -1    0    0    0    0  0.00000000000E+00  0.00000000000E+00  0.18250000000E+03  0.18250000000E+03  0.00000000000E+00 0.  1.
         11   -1    0    0    0    0 -0.00000000000E+00 -0.00000000000E+00 -0.18250000000E+03  0.18250000000E+03  0.00000000000E+00 0. -1.
         23    2    1    2    0    0 -0.61056587406E+02  0.71305456199E+02 -0.17711841814E+02  0.13220283175E+03  0.91386565938E+02 0.  0.
        -11    1    3    3    0    0 -0.35235582134E+02 -0.16427164712E+02 -0.11484747976E+02  0.40537605071E+02  0.00000000000E+00 0.  1.
         11    1    3    3    0    0 -0.25821005272E+02  0.87732620911E+02 -0.62270938381E+01  0.91665226683E+02  0.00000000000E+00 0. -1.
        -15    1    1    2    0    0  0.76699824360E+02 -0.13029216481E+03  0.55420640864E+02  0.16103886621E+03  0.17770000000E+01 0.  1.
         15    1    1    2    0    0 -0.15643236954E+02  0.58986708616E+02 -0.37708799049E+02  0.71758302032E+02  0.17770000000E+01 0. -1.
</event>
<event>
 7    1  0.4166661E-008  0.2659901E+03  0.7546771E-02  0.1016447E+00
        -11   -1    0    0    0    0  0.00000000000E+00  0.00000000000E+00  0.18250000000E+03  0.18250000000E+03  0.00000000000E+00 0. -1.
         11   -1    0    0    0    0 -0.00000000000E+00 -0.00000000000E+00 -0.18250000000E+03  0.18250000000E+03  0.00000000000E+00 0.  1.
         23    2    1    2    0    0  0.85495400446E+01  0.34124521889E+02  0.13904308834E+02  0.99009931752E+02  0.91498957110E+02 0.  0.
        -11    1    3    3    0    0  0.46726266495E+02  0.35053084553E+02  0.16603166545E+02  0.60726665120E+02  0.00000000000E+00 0. -1.
         11    1    3    3    0    0 -0.38176726450E+02 -0.92856266397E+00 -0.26988577104E+01  0.38283266632E+02  0.00000000000E+00 0.  1.
        -15    1    1    2    0    0  0.95843535426E+02 -0.94672704679E+02 -0.43759539795E+02  0.14165789546E+03  0.17770000000E+01 0. -1.
         15    1    1    2    0    0 -0.10439307547E+03  0.60548182790E+02  0.29855230961E+02  0.12433217279E+03  0.17770000000E+01 0.  1.
</event>
<event>
 7    1  0.4166661E-008  0.2445809E+03  0.7546771E-02  0.1027580E+00
        -11   -1    0    0    0    0  0.00000000000E+00  0.00000000000E+00  0.18250000000E+03  0.18250000000E+03  0.00000000000E+00 0.  1.
         11   -1    0    0    0    0 -0.00000000000E+00 -0.00000000000E+00 -0.18250000000E+03  0.18250000000E+03  0.00000000000E+00 0. -1.
         23    2    1    2    0    0 -0.28881438722E+02 -0.64542100284E+02  0.40127984988E+02  0.12041913421E+03  0.88829569922E+02 0.  0.
        -11    1    3    3    0    0 -0.55494158345E+02 -0.54859304422E+02  0.93441234529E+01  0.78590441755E+02  0.00000000000E+00 0.  1.
         11    1    3    3    0    0  0.26612719622E+02 -0.96827958614E+01  0.30783861535E+02  0.41828692454E+02  0.00000000000E+00 0. -1.
        -15    1    1    2    0    0  0.11336716493E+03 -0.24444952679E+02 -0.37278489999E+02  0.12182985407E+03  0.17770000000E+01 0.  1.
         15    1    1    2    0    0 -0.84485726212E+02  0.88987052962E+02 -0.28494949896E+01  0.12275101172E+03  0.17770000000E+01 0. -1.
</event>
<event>
 7    1  0.4166661E-008  0.2448358E+03  0.7546771E-02  0.1027441E+00
        -11   -1    0    0    0    0  0.00000000000E+00  0.00000000000E+00  0.18250000000E+03  0.18250000000E+03  0.00000000000E+00 0.  1.
         11   -1    0    0    0    0 -0.00000000000E+00 -0.00000000000E+00 -0.18250000000E+03  0.18250000000E+03  0.00000000000E+00 0. -1.
         23    2    1    2    0    0 -0.61373484379E+02  0.75058927633E+01  0.50512782163E+02  0.12016420835E+03  0.89804525471E+02 0.  0.
        -11    1    3    3    0    0 -0.19249743207E+02  0.20984253889E+02 -0.21481600876E+02  0.35670025246E+02  0.00000000000E+00 0. -1.
         11    1    3    3    0    0 -0.42123741172E+02 -0.13478361126E+02  0.71994383039E+02  0.84494183103E+02  0.00000000000E+00 0.  1.
        -15    1    1    2    0    0 -0.81076840146E+01  0.10575586047E+03 -0.31042474270E+02  0.11052976749E+03  0.17770000000E+01 0.  1.
         15    1    1    2    0    0  0.69481168394E+02 -0.11326175323E+03 -0.19470307893E+02  0.13430602416E+03  0.17770000000E+01 0. -1.
</event>
<event>
 7    1  0.4166661E-008  0.1879421E+03  0.7546771E-02  0.1064204E+00
        -11   -1    0    0    0    0  0.00000000000E+00  0.00000000000E+00  0.18250000000E+03  0.18250000000E+03  0.00000000000E+00 0. -1.
         11   -1    0    0    0    0 -0.00000000000E+00 -0.00000000000E+00 -0.18250000000E+03  0.18250000000E+03  0.00000000000E+00 0.  1.
         23    2    1    2    0    0 -0.14969592900E+03 -0.25621951245E+02  0.71879476441E+01  0.17705787331E+03  0.90732950823E+02 0.  0.
        -11    1    3    3    0    0  0.11998858653E+02 -0.71930148942E+01 -0.15895743658E+01  0.14079730782E+02  0.00000000000E+00 0.  1.
         11    1    3    3    0    0 -0.16169478766E+03 -0.18428936351E+02  0.87775220099E+01  0.16297814253E+03  0.00000000000E+00 0. -1.
        -15    1    1    2    0    0 -0.52184472208E+01 -0.46383189871E+01  0.25708230144E+02  0.26698633308E+02  0.17770000000E+01 0. -1.
         15    1    1    2    0    0  0.15491437622E+03  0.30260270233E+02 -0.32896177788E+02  0.16124349338E+03  0.17770000000E+01 0.  1.
</event>
<event>
 7    1  0.4166661E-008  0.3650000E+03  0.7546771E-02  0.9765871E-01
        -11   -1    0    0    0    0  0.00000000000E+00  0.00000000000E+00  0.18250000000E+03  0.18250000000E+03  0.00000000000E+00 0. -1.
         11   -1    0    0    0    0 -0.00000000000E+00 -0.00000000000E+00 -0.18250000000E+03  0.18250000000E+03  0.00000000000E+00 0.  1.
         23    2    1    2    0    0  0.32145675078E+02 -0.65169984913E+01 -0.95752403271E+02  0.13671312671E+03  0.91902886723E+02 0.  0.
        -11    1    3    3    0    0 -0.18715619091E+02  0.20055255884E+01 -0.80879508928E+02  0.83040902543E+02  0.00000000000E+00 0. -1.
         11    1    3    3    0    0  0.50861294169E+02 -0.85225240797E+01 -0.14872894343E+02  0.53672224170E+02  0.00000000000E+00 0.  1.
        -15    1    1    2    0    0 -0.32574964213E+02 -0.58208474128E+02  0.13639139093E+03  0.15183913858E+03  0.17770000000E+01 0. -1.
         15    1    1    2    0    0  0.42928913488E+00  0.64725472619E+02 -0.40638987663E+02  0.76447734710E+02  0.17770000000E+01 0.  1.
</event>
<event>
 7    1  0.4166661E-008  0.3650000E+03  0.7546771E-02  0.9765871E-01
        -11   -1    0    0    0    0  0.00000000000E+00  0.00000000000E+00  0.18250000000E+03  0.18250000000E+03  0.00000000000E+00 0.  1.
         11   -1    0    0    0    0 -0.00000000000E+00 -0.00000000000E+00 -0.18250000000E+03  0.18250000000E+03  0.00000000000E+00 0. -1.
         23    2    1    2    0    0  0.66781408787E+02 -0.81093873059E+01 -0.10796724108E+03  0.15599417180E+03  0.90286974505E+02 0.  0.
        -11    1    3    3    0    0 -0.22743460382E+02 -0.20186866219E+01 -0.20501833646E+02  0.30686564954E+02  0.00000000000E+00 0.  1.
         11    1    3    3    0    0  0.89524869169E+02 -0.60907006840E+01 -0.87465407437E+02  0.12530760684E+03  0.00000000000E+00 0. -1.
        -15    1    1    2    0    0 -0.70482055826E+02 -0.43514666636E+02  0.12883220037E+03  0.15317356165E+03  0.17770000000E+01 0.  1.
         15    1    1    2    0    0  0.37006470388E+01  0.51624053942E+02 -0.20864959288E+02  0.55832266558E+02  0.17770000000E+01 0. -1.
</event>
<event>
 7    1  0.4166661E-008  0.3650000E+03  0.7546771E-02  0.9765871E-01
        -11   -1    0    0    0    0  0.00000000000E+00  0.00000000000E+00  0.18250000000E+03  0.18250000000E+03  0.00000000000E+00 0.  1.
         11   -1    0    0    0    0 -0.00000000000E+00 -0.00000000000E+00 -0.18250000000E+03  0.18250000000E+03  0.00000000000E+00 0. -1.
         23    2    1    2    0    0 -0.83972522882E+02 -0.54650346679E+02  0.48785723566E+02  0.14312799456E+03  0.89819435606E+02 0.  0.
        -11    1    3    3    0    0 -0.11931173564E+02 -0.50687437665E+02 -0.61628808194E+01  0.52436154890E+02  0.00000000000E+00 0.  1.
         11    1    3    3    0    0 -0.72041349318E+02 -0.39629090138E+01  0.54948604386E+02  0.90691839673E+02  0.00000000000E+00 0. -1.
        -15    1    1    2    0    0 -0.37468025287E+02  0.26823141317E+02  0.46138674533E+02  0.65232421737E+02  0.17770000000E+01 0.  1.
         15    1    1    2    0    0  0.12144054817E+03  0.27827205362E+02 -0.94924398100E+02  0.15663958370E+03  0.17770000000E+01 0. -1.
</event>
<event>
 7    1  0.4166661E-008  0.3650000E+03  0.7546771E-02  0.9765871E-01
        -11   -1    0    0    0    0  0.00000000000E+00  0.00000000000E+00  0.18250000000E+03  0.18250000000E+03  0.00000000000E+00 0. -1.
         11   -1    0    0    0    0 -0.00000000000E+00 -0.00000000000E+00 -0.18250000000E+03  0.18250000000E+03  0.00000000000E+00 0.  1.
         23    2    1    2    0    0  0.78972475665E+01  0.88930706504E+01 -0.12144329556E+03  0.15185375445E+03  0.90386035869E+02 0.  0.
        -11    1    3    3    0    0  0.32388808862E+01 -0.39384399780E+02 -0.74622215445E+02  0.84439897758E+02  0.00000000000E+00 0. -1.
         11    1    3    3    0    0  0.46583666803E+01  0.48277470430E+02 -0.46821080112E+02  0.67413856692E+02  0.00000000000E+00 0.  1.
        -15    1    1    2    0    0 -0.84963658085E+01 -0.90047919702E+02  0.85114773695E+02  0.12421150714E+03  0.17770000000E+01 0. -1.
         15    1    1    2    0    0  0.59911824197E+00  0.81154849052E+02  0.36328521862E+02  0.88934738415E+02  0.17770000000E+01 0.  1.
</event>
<event>
 7    1  0.4166661E-008  0.2649183E+03  0.7546771E-02  0.1016977E+00
        -11   -1    0    0    0    0  0.00000000000E+00  0.00000000000E+00  0.18250000000E+03  0.18250000000E+03  0.00000000000E+00 0. -1.
         11   -1    0    0    0    0 -0.00000000000E+00 -0.00000000000E+00 -0.18250000000E+03  0.18250000000E+03  0.00000000000E+00 0.  1.
         23    2    1    2    0    0 -0.47307158811E+01 -0.10019023224E+02 -0.42578396278E+02  0.10008169589E+03  0.89892522063E+02 0.  0.
        -11    1    3    3    0    0 -0.11522473304E+01  0.72420616937E+01 -0.68413535521E+02  0.68805428376E+02  0.00000000000E+00 0.  1.
         11    1    3    3    0    0 -0.35784685507E+01 -0.17261084917E+02  0.25835139243E+02  0.31276267511E+02  0.00000000000E+00 0. -1.
        -15    1    1    2    0    0 -0.14916231504E+02 -0.12088748228E+03 -0.10544828893E+02  0.12227276262E+03  0.17770000000E+01 0. -1.
         15    1    1    2    0    0  0.19646947385E+02  0.13090650550E+03  0.53123225171E+02  0.14264554149E+03  0.17770000000E+01 0.  1.
</event>
<event>
 7    1  0.4166661E-008  0.2293272E+03  0.7546771E-02  0.1036294E+00
        -11   -1    0    0    0    0  0.00000000000E+00  0.00000000000E+00  0.18250000000E+03  0.18250000000E+03  0.00000000000E+00 0.  1.
         11   -1    0    0    0    0 -0.00000000000E+00 -0.00000000000E+00 -0.18250000000E+03  0.18250000000E+03  0.00000000000E+00 0. -1.
         23    2    1    2    0    0 -0.34594018446E+02 -0.30190837590E+02 -0.91254710381E+02  0.13567278122E+03  0.89282969328E+02 0.  0.
        -11    1    3    3    0    0  0.21126408183E+02 -0.28762743387E+02 -0.98644593888E+01  0.37026046087E+02  0.00000000000E+00 0.  1.
         11    1    3    3    0    0 -0.55720426628E+02 -0.14280942031E+01 -0.81390250992E+02  0.98646735138E+02  0.00000000000E+00 0. -1.
        -15    1    1    2    0    0  0.40724229481E+02  0.11622662853E+03  0.42881306523E+02  0.13041877252E+03  0.17770000000E+01 0.  1.
         15    1    1    2    0    0 -0.61302110353E+01 -0.86035790945E+02  0.48373403858E+02  0.98908446255E+02  0.17770000000E+01 0. -1.
</event>
<event>
 7    1  0.4166661E-008  0.2546193E+03  0.7546771E-02  0.1022213E+00
        -11   -1    0    0    0    0  0.00000000000E+00  0.00000000000E+00  0.18250000000E+03  0.18250000000E+03  0.00000000000E+00 0. -1.
         11   -1    0    0    0    0 -0.00000000000E+00 -0.00000000000E+00 -0.18250000000E+03  0.18250000000E+03  0.00000000000E+00 0.  1.
         23    2    1    2    0    0 -0.45290463619E+02  0.33425582704E+02  0.21534228752E+02  0.11038071844E+03  0.92475317368E+02 0.  0.
        -11    1    3    3    0    0  0.44920335774E+01  0.41713589630E+02 -0.18607009821E+02  0.45895781287E+02  0.00000000000E+00 0. -1.
         11    1    3    3    0    0 -0.49782497196E+02 -0.82880069259E+01  0.40141238573E+02  0.64484937157E+02  0.00000000000E+00 0.  1.
        -15    1    1    2    0    0  0.47100108029E+01 -0.33451649582E+02  0.11097901958E+03  0.11602024641E+03  0.17770000000E+01 0. -1.
         15    1    1    2    0    0  0.40580452816E+02  0.26066878130E-01 -0.13251324833E+03  0.13859903514E+03  0.17770000000E+01 0.  1.
</event>
<event>
 7    1  0.4166661E-008  0.3650000E+03  0.7546771E-02  0.9765871E-01
        -11   -1    0    0    0    0  0.00000000000E+00  0.00000000000E+00  0.18250000000E+03  0.18250000000E+03  0.00000000000E+00 0.  1.
         11   -1    0    0    0    0 -0.00000000000E+00 -0.00000000000E+00 -0.18250000000E+03  0.18250000000E+03  0.00000000000E+00 0. -1.
         23    2    1    2    0    0  0.62072566843E+01 -0.16443325442E+02 -0.65155043093E+02  0.11315060957E+03  0.90823828474E+02 0.  0.
        -11    1    3    3    0    0 -0.17779814594E+02 -0.45508790340E+02 -0.56098627964E+02  0.74392391175E+02  0.00000000000E+00 0.  1.
         11    1    3    3    0    0  0.23987071278E+02  0.29065464898E+02 -0.90564151281E+01  0.38758218396E+02  0.00000000000E+00 0. -1.
        -15    1    1    2    0    0  0.59828672514E+02  0.21584930699E+02 -0.74078746278E+02  0.97653457016E+02  0.17770000000E+01 0. -1.
         15    1    1    2    0    0 -0.66035929198E+02 -0.51416052572E+01  0.13923378937E+03  0.15419593341E+03  0.17770000000E+01 0.  1.
</event>
<event>
 7    1  0.4166661E-008  0.2040955E+03  0.7546771E-02  0.1052456E+00
        -11   -1    0    0    0    0  0.00000000000E+00  0.00000000000E+00  0.18250000000E+03  0.18250000000E+03  0.00000000000E+00 0. -1.
         11   -1    0    0    0    0 -0.00000000000E+00 -0.00000000000E+00 -0.18250000000E+03  0.18250000000E+03  0.00000000000E+00 0.  1.
         23    2    1    2    0    0 -0.13189195035E+03  0.15976151369E+02 -0.59554375855E+01  0.16090449499E+03  0.90576295414E+02 0.  0.
        -11    1    3    3    0    0 -0.65206566516E+01  0.17109839182E+02 -0.28147712556E+02  0.33579149515E+02  0.00000000000E+00 0. -1.
         11    1    3    3    0    0 -0.12537129370E+03 -0.11336878134E+01  0.22192274970E+02  0.12732534547E+03  0.00000000000E+00 0.  1.
        -15    1    1    2    0    0  0.98505817590E+02  0.63832082614E+02  0.63807910880E+01  0.11756616475E+03  0.17770000000E+01 0. -1.
         15    1    1    2    0    0  0.33386132759E+02 -0.79808233983E+02 -0.42535350248E+00  0.86529340264E+02  0.17770000000E+01 0.  1.
</event>
<event>
 7    1  0.4166661E-008  0.2289315E+03  0.7546771E-02  0.1036530E+00
        -11   -1    0    0    0    0  0.00000000000E+00  0.00000000000E+00  0.18250000000E+03  0.18250000000E+03  0.00000000000E+00 0.  1.
         11   -1    0    0    0    0 -0.00000000000E+00 -0.00000000000E+00 -0.18250000000E+03  0.18250000000E+03  0.00000000000E+00 0. -1.
         23    2    1    2    0    0 -0.81573055759E+02 -0.38917319005E+02 -0.51502311710E+02  0.13606853552E+03  0.87712240330E+02 0.  0.
        -11    1    3    3    0    0 -0.39287660510E+02  0.26618930419E+02 -0.25377725829E+02  0.53815580395E+02  0.00000000000E+00 0.  1.
         11    1    3    3    0    0 -0.42285395249E+02 -0.65536249424E+02 -0.26124585881E+02  0.82252955129E+02  0.00000000000E+00 0. -1.
        -15    1    1    2    0    0 -0.67741545054E+01  0.95798668340E+02  0.74251832742E+02  0.12140743972E+03  0.17770000000E+01 0.  1.
         15    1    1    2    0    0  0.88347210264E+02 -0.56881349335E+02 -0.22749521032E+02  0.10752402476E+03  0.17770000000E+01 0. -1.
</event>
<event>
 7    1  0.4166661E-008  0.2579670E+03  0.7546771E-02  0.1020482E+00
        -11   -1    0    0    0    0  0.00000000000E+00  0.00000000000E+00  0.18250000000E+03  0.18250000000E+03  0.00000000000E+00 0. -1.
         11   -1    0    0    0    0 -0.00000000000E+00 -0.00000000000E+00 -0.18250000000E+03  0.18250000000E+03  0.00000000000E+00 0.  1.
         23    2    1    2    0    0 -0.25386143241E+02 -0.43084629932E+02  0.17355422033E+02  0.10703302854E+03  0.93027506250E+02 0.  0.
        -11    1    3    3    0    0 -0.15953018593E+01 -0.82368719723E+01 -0.37160411397E+02  0.38095763847E+02  0.00000000000E+00 0.  1.
         11    1    3    3    0    0 -0.23790841381E+02 -0.34847757960E+02  0.54515833430E+02  0.68937264691E+02  0.00000000000E+00 0. -1.
        -15    1    1    2    0    0  0.68153118107E+02 -0.16419261959E+02  0.98474829471E+02  0.12089205697E+03  0.17770000000E+01 0. -1.
         15    1    1    2    0    0 -0.42766974866E+02  0.59503891891E+02 -0.11583025150E+03  0.13707491449E+03  0.17770000000E+01 0.  1.
</event>
<event>
 7    1  0.4166661E-008  0.3650000E+03  0.7546771E-02  0.9765871E-01
        -11   -1    0    0    0    0  0.00000000000E+00  0.00000000000E+00  0.18250000000E+03  0.18250000000E+03  0.00000000000E+00 0. -1.
         11   -1    0    0    0    0 -0.00000000000E+00 -0.00000000000E+00 -0.18250000000E+03  0.18250000000E+03  0.00000000000E+00 0.  1.
         23    2    1    2    0    0  0.82200828596E+02 -0.92848454577E+01 -0.10542966470E+03  0.15779142840E+03  0.83303878052E+02 0.  0.
        -11    1    3    3    0    0  0.97623277148E+02 -0.56316772909E+01 -0.10252064636E+03  0.14167746101E+03  0.00000000000E+00 0.  1.
         11    1    3    3    0    0 -0.15422448552E+02 -0.36531681668E+01 -0.29090183482E+01  0.16113967381E+02  0.00000000000E+00 0. -1.
        -15    1    1    2    0    0 -0.61627940872E+02  0.33656462434E+02  0.14213847448E+03  0.15854735638E+03  0.17770000000E+01 0. -1.
         15    1    1    2    0    0 -0.20572887724E+02 -0.24371616976E+02 -0.36708809772E+02  0.48661215226E+02  0.17770000000E+01 0.  1.
</event>
<event>
 7    1  0.4166661E-008  0.3650000E+03  0.7546771E-02  0.9765871E-01
        -11   -1    0    0    0    0  0.00000000000E+00  0.00000000000E+00  0.18250000000E+03  0.18250000000E+03  0.00000000000E+00 0.  1.
         11   -1    0    0    0    0 -0.00000000000E+00 -0.00000000000E+00 -0.18250000000E+03  0.18250000000E+03  0.00000000000E+00 0. -1.
         23    2    1    2    0    0 -0.31747250939E+02 -0.43531358973E+02 -0.10063385252E+03  0.14588787433E+03  0.90847302923E+02 0.  0.
        -11    1    3    3    0    0 -0.55272238959E+02 -0.43304705866E+02 -0.10020547108E+03  0.12235789465E+03  0.00000000000E+00 0.  1.
         11    1    3    3    0    0  0.23524988020E+02 -0.22665310727E+00 -0.42838143617E+00  0.23529979678E+02  0.00000000000E+00 0. -1.
        -15    1    1    2    0    0 -0.48865495590E+02 -0.50668702189E+02  0.41524403669E+02  0.81747097012E+02  0.17770000000E+01 0.  1.
         15    1    1    2    0    0  0.80612746529E+02  0.94200061163E+02  0.59109448847E+02  0.13736502866E+03  0.17770000000E+01 0. -1.
</event>
<event>
 7    1  0.4166661E-008  0.2721514E+03  0.7546771E-02  0.1013452E+00
        -11   -1    0    0    0    0  0.00000000000E+00  0.00000000000E+00  0.18250000000E+03  0.18250000000E+03  0.00000000000E+00 0.  1.
         11   -1    0    0    0    0 -0.00000000000E+00 -0.00000000000E+00 -0.18250000000E+03  0.18250000000E+03  0.00000000000E+00 0. -1.
         23    2    1    2    0    0  0.80903388849E+01  0.86509669073E+01 -0.10748269620E+02  0.92848608982E+02  0.91460625836E+02 0.  0.
        -11    1    3    3    0    0  0.75495507919E+01 -0.41368868960E+02 -0.75431478071E+01  0.42723273693E+02  0.00000000000E+00 0.  1.
         11    1    3    3    0    0  0.54078809294E+00  0.50019835868E+02 -0.32051218124E+01  0.50125335289E+02  0.00000000000E+00 0. -1.
        -15    1    1    2    0    0  0.11930564695E+03 -0.61186230476E+02  0.73943733391E+01  0.13429604119E+03  0.17770000000E+01 0.  1.
         15    1    1    2    0    0 -0.12739598584E+03  0.52535263569E+02  0.33538962805E+01  0.13785534982E+03  0.17770000000E+01 0. -1.
</event>
<event>
 7    1  0.4166661E-008  0.2349985E+03  0.7546771E-02  0.1032971E+00
        -11   -1    0    0    0    0  0.00000000000E+00  0.00000000000E+00  0.18250000000E+03  0.18250000000E+03  0.00000000000E+00 0. -1.
         11   -1    0    0    0    0 -0.00000000000E+00 -0.00000000000E+00 -0.18250000000E+03  0.18250000000E+03  0.00000000000E+00 0.  1.
         23    2    1    2    0    0 -0.14826786885E+02  0.88096662117E+02  0.12955112432E+02  0.13000154374E+03  0.93550579641E+02 0.  0.
        -11    1    3    3    0    0 -0.22502010304E+02 -0.88771081484E+01 -0.15400396652E+02  0.28676048086E+02  0.00000000000E+00 0. -1.
         11    1    3    3    0    0  0.76752234190E+01  0.96973770266E+02  0.28355509084E+02  0.10132549565E+03  0.00000000000E+00 0.  1.
        -15    1    1    2    0    0  0.71883689050E+02 -0.76618090437E+01  0.74031188458E+02  0.10348788655E+03  0.17770000000E+01 0.  1.
         15    1    1    2    0    0 -0.57056902165E+02 -0.80434853074E+02 -0.86986300890E+02  0.13151056971E+03  0.17770000000E+01 0. -1.
</event>
<event>
 7    1  0.4166661E-008  0.3650000E+03  0.7546771E-02  0.9765871E-01
        -11   -1    0    0    0    0  0.00000000000E+00  0.00000000000E+00  0.18250000000E+03  0.18250000000E+03  0.00000000000E+00 0.  1.
         11   -1    0    0    0    0 -0.00000000000E+00 -0.00000000000E+00 -0.18250000000E+03  0.18250000000E+03  0.00000000000E+00 0. -1.
         23    2    1    2    0    0 -0.24714520194E+02  0.60454106993E+02 -0.99563082124E+02  0.14923496653E+03  0.89959776310E+02 0.  0.
        -11    1    3    3    0    0  0.32623719171E+02  0.36322444052E+02 -0.40132048744E+02  0.63199749452E+02  0.00000000000E+00 0. -1.
         11    1    3    3    0    0 -0.57338239365E+02  0.24131662941E+02 -0.59431033380E+02  0.86035217082E+02  0.00000000000E+00 0.  1.
        -15    1    1    2    0    0 -0.72082245836E+02  0.70702741691E+01  0.48328717999E+02  0.87089962992E+02  0.17770000000E+01 0.  1.
         15    1    1    2    0    0  0.96796766030E+02 -0.67524381162E+02  0.51234364125E+02  0.12867507047E+03  0.17770000000E+01 0. -1.
</event>
<event>
 7    1  0.4166661E-008  0.3650000E+03  0.7546771E-02  0.9765871E-01
        -11   -1    0    0    0    0  0.00000000000E+00  0.00000000000E+00  0.18250000000E+03  0.18250000000E+03  0.00000000000E+00 0.  1.
         11   -1    0    0    0    0 -0.00000000000E+00 -0.00000000000E+00 -0.18250000000E+03  0.18250000000E+03  0.00000000000E+00 0. -1.
         23    2    1    2    0    0 -0.39794767339E+02  0.14022300694E+02  0.91094328796E+02  0.13614963579E+03  0.91969006531E+02 0.  0.
        -11    1    3    3    0    0 -0.58274493895E+02  0.17975397848E+02  0.22503943455E+02  0.65003530962E+02  0.00000000000E+00 0.  1.
         11    1    3    3    0    0  0.18479726557E+02 -0.39530971540E+01  0.68590385341E+02  0.71146104826E+02  0.00000000000E+00 0. -1.
        -15    1    1    2    0    0  0.57646599048E+02  0.21963908785E+02 -0.14732091678E+03  0.15972524509E+03  0.17770000000E+01 0. -1.
         15    1    1    2    0    0 -0.17851831709E+02 -0.35986209479E+02  0.56226587981E+02  0.69125119118E+02  0.17770000000E+01 0.  1.
</event>
<event>
 7    1  0.4166661E-008  0.3650000E+03  0.7546771E-02  0.9765871E-01
        -11   -1    0    0    0    0  0.00000000000E+00  0.00000000000E+00  0.18250000000E+03  0.18250000000E+03  0.00000000000E+00 0. -1.
         11   -1    0    0    0    0 -0.00000000000E+00 -0.00000000000E+00 -0.18250000000E+03  0.18250000000E+03  0.00000000000E+00 0.  1.
         23    2    1    2    0    0  0.23195505906E+02  0.28340754100E+02 -0.13047030315E+02  0.10077920101E+03  0.92978451911E+02 0.  0.
        -11    1    3    3    0    0 -0.28125453086E+02 -0.13934665841E+02 -0.13790583816E+02  0.34284052056E+02  0.00000000000E+00 0. -1.
         11    1    3    3    0    0  0.51320958993E+02  0.42275419941E+02  0.74355350111E+00  0.66495148958E+02  0.00000000000E+00 0.  1.
        -15    1    1    2    0    0 -0.21557533063E+02 -0.14282894006E+03 -0.17995571311E+02  0.14557414491E+03  0.17770000000E+01 0.  1.
         15    1    1    2    0    0 -0.16379728432E+01  0.11448818596E+03  0.31042601625E+02  0.11864665408E+03  0.17770000000E+01 0. -1.
</event>
<event>
 7    1  0.4166661E-008  0.3650000E+03  0.7546771E-02  0.9765871E-01
        -11   -1    0    0    0    0  0.00000000000E+00  0.00000000000E+00  0.18250000000E+03  0.18250000000E+03  0.00000000000E+00 0. -1.
         11   -1    0    0    0    0 -0.00000000000E+00 -0.00000000000E+00 -0.18250000000E+03  0.18250000000E+03  0.00000000000E+00 0.  1.
         23    2    1    2    0    0 -0.30885348251E+02 -0.24310504167E+02 -0.72315939331E+02  0.12318288884E+03  0.91648915287E+02 0.  0.
        -11    1    3    3    0    0 -0.61479774355E+01  0.14029604659E+02  0.17002587622E+02  0.22884829457E+02  0.00000000000E+00 0. -1.
         11    1    3    3    0    0 -0.24737370816E+02 -0.38340108827E+02 -0.89318526954E+02  0.10029805939E+03  0.00000000000E+00 0.  1.
        -15    1    1    2    0    0  0.11657585755E+03  0.66716903809E+02  0.52093656198E+02  0.14407630812E+03  0.17770000000E+01 0. -1.
         15    1    1    2    0    0 -0.85690509295E+02 -0.42406399642E+02  0.20222283133E+02  0.97740803035E+02  0.17770000000E+01 0.  1.
</event>
<event>
 7    1  0.4166661E-008  0.3650000E+03  0.7546771E-02  0.9765871E-01
        -11   -1    0    0    0    0  0.00000000000E+00  0.00000000000E+00  0.18250000000E+03  0.18250000000E+03  0.00000000000E+00 0. -1.
         11   -1    0    0    0    0 -0.00000000000E+00 -0.00000000000E+00 -0.18250000000E+03  0.18250000000E+03  0.00000000000E+00 0.  1.
         23    2    1    2    0    0 -0.11145209623E+02  0.26737445726E+02  0.35043338148E+02  0.10011467352E+03  0.89195322775E+02 0.  0.
        -11    1    3    3    0    0  0.88197739009E+01 -0.27914864460E+02  0.29671409521E+02  0.41682377721E+02  0.00000000000E+00 0.  1.
         11    1    3    3    0    0 -0.19964983524E+02  0.54652310186E+02  0.53719286266E+01  0.58432295804E+02  0.00000000000E+00 0. -1.
        -15    1    1    2    0    0  0.59791723607E+02  0.92476597014E+02  0.38405639469E+02  0.11664099656E+03  0.17770000000E+01 0. -1.
         15    1    1    2    0    0 -0.48646513984E+02 -0.11921404274E+03 -0.73448977617E+02  0.14824432991E+03  0.17770000000E+01 0.  1.
</event>
<event>
 7    1  0.4166661E-008  0.2289077E+03  0.7546771E-02  0.1036544E+00
        -11   -1    0    0    0    0  0.00000000000E+00  0.00000000000E+00  0.18250000000E+03  0.18250000000E+03  0.00000000000E+00 0.  1.
         11   -1    0    0    0    0 -0.00000000000E+00 -0.00000000000E+00 -0.18250000000E+03  0.18250000000E+03  0.00000000000E+00 0. -1.
         23    2    1    2    0    0 -0.61065909206E+01  0.24357402064E+02  0.96480707555E+02  0.13609233389E+03  0.92639208358E+02 0.  0.
        -11    1    3    3    0    0  0.27456190403E+02 -0.20633439018E+02  0.15795214459E+02  0.37803042165E+02  0.00000000000E+00 0.  1.
         11    1    3    3    0    0 -0.33562781323E+02  0.44990841082E+02  0.80685493096E+02  0.98289291724E+02  0.00000000000E+00 0. -1.
        -15    1    1    2    0    0 -0.26546414641E+02 -0.10657584664E+03 -0.19374085888E+02  0.11154208242E+03  0.17770000000E+01 0.  1.
         15    1    1    2    0    0  0.32653005561E+02  0.82218444578E+02 -0.77106621668E+02  0.11736558369E+03  0.17770000000E+01 0. -1.
</event>
<event>
 7    1  0.4166661E-008  0.3650000E+03  0.7546771E-02  0.9765871E-01
        -11   -1    0    0    0    0  0.00000000000E+00  0.00000000000E+00  0.18250000000E+03  0.18250000000E+03  0.00000000000E+00 0. -1.
         11   -1    0    0    0    0 -0.00000000000E+00 -0.00000000000E+00 -0.18250000000E+03  0.18250000000E+03  0.00000000000E+00 0.  1.
         23    2    1    2    0    0  0.38438004414E+01  0.59310711857E+02  0.44638633149E+02  0.11796755381E+03  0.91603497963E+02 0.  0.
        -11    1    3    3    0    0  0.19212003597E+02  0.60283482039E+02 -0.73964920742E+01  0.63701706288E+02  0.00000000000E+00 0.  1.
         11    1    3    3    0    0 -0.15368203155E+02 -0.97277018196E+00  0.52035125223E+02  0.54265847520E+02  0.00000000000E+00 0. -1.
        -15    1    1    2    0    0  0.54894841706E+02  0.31282658171E+02  0.66726334260E+02  0.91910879448E+02  0.17770000000E+01 0. -1.
         15    1    1    2    0    0 -0.58738642147E+02 -0.90593370028E+02 -0.11136496741E+03  0.15512156674E+03  0.17770000000E+01 0.  1.
</event>
<event>
 7    1  0.4166661E-008  0.3650000E+03  0.7546771E-02  0.9765871E-01
        -11   -1    0    0    0    0  0.00000000000E+00  0.00000000000E+00  0.18250000000E+03  0.18250000000E+03  0.00000000000E+00 0.  1.
         11   -1    0    0    0    0 -0.00000000000E+00 -0.00000000000E+00 -0.18250000000E+03  0.18250000000E+03  0.00000000000E+00 0. -1.
         23    2    1    2    0    0  0.57896923194E+02 -0.46838300587E+02 -0.49010887879E+02  0.12699584825E+03  0.90443342624E+02 0.  0.
        -11    1    3    3    0    0  0.74392158971E+02 -0.46284805811E+02 -0.14589159791E+02  0.88821844997E+02  0.00000000000E+00 0.  1.
         11    1    3    3    0    0 -0.16495235777E+02 -0.55349477629E+00 -0.34421728088E+02  0.38174003253E+02  0.00000000000E+00 0. -1.
        -15    1    1    2    0    0 -0.38705563354E+02  0.52365855205E+02  0.13490051501E+03  0.14980524058E+03  0.17770000000E+01 0.  1.
         15    1    1    2    0    0 -0.19191359840E+02 -0.55275546177E+01 -0.85889627135E+02  0.88198911166E+02  0.17770000000E+01 0. -1.
</event>
<event>
 7    1  0.4166661E-008  0.3650000E+03  0.7546771E-02  0.9765871E-01
        -11   -1    0    0    0    0  0.00000000000E+00  0.00000000000E+00  0.18250000000E+03  0.18250000000E+03  0.00000000000E+00 0.  1.
         11   -1    0    0    0    0 -0.00000000000E+00 -0.00000000000E+00 -0.18250000000E+03  0.18250000000E+03  0.00000000000E+00 0. -1.
         23    2    1    2    0    0  0.48151704421E+02  0.62682455190E+02  0.61116795168E+02  0.13437176096E+03  0.89848932467E+02 0.  0.
        -11    1    3    3    0    0 -0.16731379488E+02  0.20204943538E+02 -0.11023278050E+02  0.28455077963E+02  0.00000000000E+00 0. -1.
         11    1    3    3    0    0  0.64883083910E+02  0.42477511653E+02  0.72140073218E+02  0.10591668300E+03  0.00000000000E+00 0.  1.
        -15    1    1    2    0    0 -0.15905123510E+02  0.69998475785E+02  0.16332821471E+02  0.73638837256E+02  0.17770000000E+01 0.  1.
         15    1    1    2    0    0 -0.32246580911E+02 -0.13268093098E+03 -0.77449616639E+02  0.15698940178E+03  0.17770000000E+01 0. -1.
</event>
<event>
 7    1  0.4166661E-008  0.1874214E+03  0.7546771E-02  0.1064604E+00
        -11   -1    0    0    0    0  0.00000000000E+00  0.00000000000E+00  0.18250000000E+03  0.18250000000E+03  0.00000000000E+00 0.  1.
         11   -1    0    0    0    0 -0.00000000000E+00 -0.00000000000E+00 -0.18250000000E+03  0.18250000000E+03  0.00000000000E+00 0. -1.
         23    2    1    2    0    0  0.20467853242E+02 -0.11851096531E+03 -0.89765722226E+02  0.17757863173E+03  0.94934206923E+02 0.  0.
        -11    1    3    3    0    0 -0.36848061459E+02 -0.61269579143E+02 -0.33535609390E+02  0.78970741790E+02  0.00000000000E+00 0.  1.
         11    1    3    3    0    0  0.57315914701E+02 -0.57241386169E+02 -0.56230112836E+02  0.98607889938E+02  0.00000000000E+00 0. -1.
        -15    1    1    2    0    0  0.28115518000E+02  0.84493781816E+02  0.91991978578E+02  0.12804438047E+03  0.17770000000E+01 0.  1.
         15    1    1    2    0    0 -0.48583371242E+02  0.34017183496E+02 -0.22262563515E+01  0.59376987803E+02  0.17770000000E+01 0. -1.
</event>
<event>
 7    1  0.4166661E-008  0.2360609E+03  0.7546771E-02  0.1032360E+00
        -11   -1    0    0    0    0  0.00000000000E+00  0.00000000000E+00  0.18250000000E+03  0.18250000000E+03  0.00000000000E+00 0. -1.
         11   -1    0    0    0    0 -0.00000000000E+00 -0.00000000000E+00 -0.18250000000E+03  0.18250000000E+03  0.00000000000E+00 0.  1.
         23    2    1    2    0    0  0.28082572707E+02  0.82573559972E+02 -0.90570942182E+01  0.12893912444E+03  0.94531704525E+02 0.  0.
        -11    1    3    3    0    0 -0.29574835635E+01 -0.59880935157E+01 -0.31705304829E+02  0.32401085280E+02  0.00000000000E+00 0.  1.
         11    1    3    3    0    0  0.31040056271E+02  0.88561653487E+02  0.22648210611E+02  0.96538039164E+02  0.00000000000E+00 0. -1.
        -15    1    1    2    0    0 -0.97888546863E+02 -0.23395327396E+02  0.73052707699E+02  0.12437590113E+03  0.17770000000E+01 0. -1.
         15    1    1    2    0    0  0.69805974156E+02 -0.59178232576E+02 -0.63995613481E+02  0.11168497443E+03  0.17770000000E+01 0.  1.
</event>
<event>
 7    1  0.4166661E-008  0.2384515E+03  0.7546771E-02  0.1030997E+00
        -11   -1    0    0    0    0  0.00000000000E+00  0.00000000000E+00  0.18250000000E+03  0.18250000000E+03  0.00000000000E+00 0.  1.
         11   -1    0    0    0    0 -0.00000000000E+00 -0.00000000000E+00 -0.18250000000E+03  0.18250000000E+03  0.00000000000E+00 0. -1.
         23    2    1    2    0    0  0.48661016212E+02  0.70568118897E+02 -0.33128968492E+01  0.12654853914E+03  0.93036571136E+02 0.  0.
        -11    1    3    3    0    0  0.48305757723E+02  0.92599508705E+02 -0.37629640021E+01  0.10450968921E+03  0.00000000000E+00 0. -1.
         11    1    3    3    0    0  0.35525848863E+00 -0.22031389808E+02  0.45006715297E+00  0.22038849922E+02  0.00000000000E+00 0.  1.
        -15    1    1    2    0    0  0.39974519652E+02 -0.11483087063E+03  0.46724046887E+02  0.13027043163E+03  0.17770000000E+01 0.  1.
         15    1    1    2    0    0 -0.88635535863E+02  0.44262751734E+02 -0.43411150038E+02  0.10818102923E+03  0.17770000000E+01 0. -1.
</event>
<event>
 7    1  0.4166661E-008  0.2521047E+03  0.7546771E-02  0.1023532E+00
        -11   -1    0    0    0    0  0.00000000000E+00  0.00000000000E+00  0.18250000000E+03  0.18250000000E+03  0.00000000000E+00 0.  1.
         11   -1    0    0    0    0 -0.00000000000E+00 -0.00000000000E+00 -0.18250000000E+03  0.18250000000E+03  0.00000000000E+00 0. -1.
         23    2    1    2    0    0  0.22864550739E+02 -0.87605291076E+01  0.59523790015E+02  0.11289528615E+03  0.92750900297E+02 0.  0.
        -11    1    3    3    0    0 -0.36205150222E+02 -0.41167236288E+01  0.18841519059E+02  0.41021496273E+02  0.00000000000E+00 0.  1.
         11    1    3    3    0    0  0.59069700961E+02 -0.46438054788E+01  0.40682270956E+02  0.71873789876E+02  0.00000000000E+00 0. -1.
        -15    1    1    2    0    0  0.96087245525E+02  0.61741479431E+02 -0.36014212954E+02  0.11977040661E+03  0.17770000000E+01 0.  1.
         15    1    1    2    0    0 -0.11895179626E+03 -0.52980950323E+02 -0.23509577060E+02  0.13233430725E+03  0.17770000000E+01 0. -1.
</event>
<event>
 7    1  0.4166661E-008  0.3650000E+03  0.7546771E-02  0.9765871E-01
        -11   -1    0    0    0    0  0.00000000000E+00  0.00000000000E+00  0.18250000000E+03  0.18250000000E+03  0.00000000000E+00 0.  1.
         11   -1    0    0    0    0 -0.00000000000E+00 -0.00000000000E+00 -0.18250000000E+03  0.18250000000E+03  0.00000000000E+00 0. -1.
         23    2    1    2    0    0  0.95972158004E+01 -0.44821607110E+02  0.72520410665E+02  0.12253820737E+03  0.87494681484E+02 0.  0.
        -11    1    3    3    0    0  0.36803388354E+02 -0.30584701963E+02  0.46912443162E+01  0.48082441304E+02  0.00000000000E+00 0. -1.
         11    1    3    3    0    0 -0.27206172554E+02 -0.14236905146E+02  0.67829166349E+02  0.74455766068E+02  0.00000000000E+00 0.  1.
        -15    1    1    2    0    0 -0.73711247229E+02  0.44502029997E+01  0.56385431307E+02  0.92928073624E+02  0.17770000000E+01 0.  1.
         15    1    1    2    0    0  0.64114031428E+02  0.40371404110E+02 -0.12890584197E+03  0.14953371900E+03  0.17770000000E+01 0. -1.
</event>
<event>
 7    1  0.4166661E-008  0.3650000E+03  0.7546771E-02  0.9765871E-01
        -11   -1    0    0    0    0  0.00000000000E+00  0.00000000000E+00  0.18250000000E+03  0.18250000000E+03  0.00000000000E+00 0.  1.
         11   -1    0    0    0    0 -0.00000000000E+00 -0.00000000000E+00 -0.18250000000E+03  0.18250000000E+03  0.00000000000E+00 0. -1.
         23    2    1    2    0    0 -0.14932148672E+02 -0.33084523046E+02 -0.51414036305E+02  0.11012334188E+03  0.90366988268E+02 0.  0.
        -11    1    3    3    0    0 -0.22459544840E+02  0.19233764568E+02 -0.48975789887E+02  0.57210111423E+02  0.00000000000E+00 0.  1.
         11    1    3    3    0    0  0.75273961688E+01 -0.52318287614E+02 -0.24382464180E+01  0.52913230458E+02  0.00000000000E+00 0. -1.
        -15    1    1    2    0    0 -0.41144575985E+02 -0.75760298342E+02 -0.46609948270E+02  0.98021140294E+02  0.17770000000E+01 0.  1.
         15    1    1    2    0    0  0.56076724656E+02  0.10884482139E+03  0.98023984575E+02  0.15685551783E+03  0.17770000000E+01 0. -1.
</event>
<event>
 7    1  0.4166661E-008  0.3650000E+03  0.7546771E-02  0.9765871E-01
        -11   -1    0    0    0    0  0.00000000000E+00  0.00000000000E+00  0.18250000000E+03  0.18250000000E+03  0.00000000000E+00 0.  1.
         11   -1    0    0    0    0 -0.00000000000E+00 -0.00000000000E+00 -0.18250000000E+03  0.18250000000E+03  0.00000000000E+00 0. -1.
         23    2    1    2    0    0  0.80256681452E+01  0.22447094622E+02 -0.46168003104E+02  0.10392821086E+03  0.90007250240E+02 0.  0.
        -11    1    3    3    0    0 -0.98174073152E+01  0.14956074228E+02 -0.70559623531E+02  0.72792349293E+02  0.00000000000E+00 0. -1.
         11    1    3    3    0    0  0.17843075460E+02  0.74910203939E+01  0.24391620428E+02  0.31135861567E+02  0.00000000000E+00 0.  1.
        -15    1    1    2    0    0 -0.11323544899E+03 -0.41448505306E+02  0.84750040304E+02  0.14739732888E+03  0.17770000000E+01 0.  1.
         15    1    1    2    0    0  0.10520978084E+03  0.19001410684E+02 -0.38582037200E+02  0.11367446026E+03  0.17770000000E+01 0. -1.
</event>
<event>
 7    1  0.4166661E-008  0.1846251E+03  0.7546771E-02  0.1066776E+00
        -11   -1    0    0    0    0  0.00000000000E+00  0.00000000000E+00  0.18250000000E+03  0.18250000000E+03  0.00000000000E+00 0.  1.
         11   -1    0    0    0    0 -0.00000000000E+00 -0.00000000000E+00 -0.18250000000E+03  0.18250000000E+03  0.00000000000E+00 0. -1.
         23    2    1    2    0    0  0.95470214729E+02 -0.71850144167E+02 -0.10844448834E+03  0.18462506800E+03  0.89717353762E+02 0.  0.
        -11    1    3    3    0    0  0.10582115978E+03 -0.75990668676E+02 -0.11311951394E+03  0.17253615279E+03  0.00000000000E+00 0. -1.
         11    1    3    3    0    0 -0.10350945054E+02  0.41405245090E+01  0.46750256018E+01  0.12088915216E+02  0.00000000000E+00 0.  1.
        -15    1    1    2    0    0 -0.49162673266E+02 -0.52442354875E+01  0.17543672616E+02  0.52491986306E+02  0.17770000000E+01 0. -1.
         15    1    1    2    0    0 -0.46307541463E+02  0.77094379654E+02  0.90900815724E+02  0.12788294569E+03  0.17770000000E+01 0.  1.
</event>
<event>
 7    1  0.4166661E-008  0.3650000E+03  0.7546771E-02  0.9765871E-01
        -11   -1    0    0    0    0  0.00000000000E+00  0.00000000000E+00  0.18250000000E+03  0.18250000000E+03  0.00000000000E+00 0.  1.
         11   -1    0    0    0    0 -0.00000000000E+00 -0.00000000000E+00 -0.18250000000E+03  0.18250000000E+03  0.00000000000E+00 0. -1.
         23    2    1    2    0    0 -0.85380619530E+02  0.73164886584E+02  0.15601975506E+01  0.14459256450E+03  0.90893479815E+02 0.  0.
        -11    1    3    3    0    0 -0.46986176650E+02 -0.11622381867E+02  0.14721007304E+02  0.50591388719E+02  0.00000000000E+00 0.  1.
         11    1    3    3    0    0 -0.38394442879E+02  0.84787268450E+02 -0.13160809754E+02  0.94001175784E+02  0.00000000000E+00 0. -1.
        -15    1    1    2    0    0  0.11160477002E+03 -0.92119104737E+02  0.55326784831E+02  0.15493793918E+03  0.17770000000E+01 0.  1.
         15    1    1    2    0    0 -0.26224150489E+02  0.18954218153E+02 -0.56886982381E+02  0.65469496318E+02  0.17770000000E+01 0. -1.
</event>
<event>
 7    1  0.4166661E-008  0.3650000E+03  0.7546771E-02  0.9765871E-01
        -11   -1    0    0    0    0  0.00000000000E+00  0.00000000000E+00  0.18250000000E+03  0.18250000000E+03  0.00000000000E+00 0.  1.
         11   -1    0    0    0    0 -0.00000000000E+00 -0.00000000000E+00 -0.18250000000E+03  0.18250000000E+03  0.00000000000E+00 0. -1.
         23    2    1    2    0    0  0.76444296672E+02  0.56267248018E+02 -0.60802128307E+02  0.14554557527E+03  0.92069984143E+02 0.  0.
        -11    1    3    3    0    0  0.57812867435E+02  0.47762602645E+02  0.64274762870E+01  0.75265571837E+02  0.00000000000E+00 0.  1.
         11    1    3    3    0    0  0.18631429237E+02  0.85046453733E+01 -0.67229604594E+02  0.70280003431E+02  0.00000000000E+00 0. -1.
        -15    1    1    2    0    0 -0.11979161925E+03 -0.17801174166E+02  0.93389489542E+02  0.15294335007E+03  0.17770000000E+01 0.  1.
         15    1    1    2    0    0  0.43347322575E+02 -0.38466073852E+02 -0.32587361235E+02  0.66511074666E+02  0.17770000000E+01 0. -1.
</event>
<event>
 7    1  0.4166661E-008  0.3650000E+03  0.7546771E-02  0.9765871E-01
        -11   -1    0    0    0    0  0.00000000000E+00  0.00000000000E+00  0.18250000000E+03  0.18250000000E+03  0.00000000000E+00 0.  1.
         11   -1    0    0    0    0 -0.00000000000E+00 -0.00000000000E+00 -0.18250000000E+03  0.18250000000E+03  0.00000000000E+00 0. -1.
         23    2    1    2    0    0  0.35391556915E+02 -0.63017445130E+02  0.53809089182E+01  0.11620435807E+03  0.90833572873E+02 0.  0.
        -11    1    3    3    0    0 -0.59325590158E+01 -0.73263704340E+02  0.36095560016E+01  0.73592081942E+02  0.00000000000E+00 0.  1.
         11    1    3    3    0    0  0.41324115931E+02  0.10246259209E+02  0.17713529166E+01  0.42612276123E+02  0.00000000000E+00 0. -1.
        -15    1    1    2    0    0  0.85680197115E+02 -0.16124975159E+02 -0.45938298213E+02  0.98562649991E+02  0.17770000000E+01 0. -1.
         15    1    1    2    0    0 -0.12107175403E+03  0.79142420289E+02  0.40557389295E+02  0.15023299194E+03  0.17770000000E+01 0.  1.
</event>
<event>
 7    1  0.4166661E-008  0.1970421E+03  0.7546771E-02  0.1057435E+00
        -11   -1    0    0    0    0  0.00000000000E+00  0.00000000000E+00  0.18250000000E+03  0.18250000000E+03  0.00000000000E+00 0.  1.
         11   -1    0    0    0    0 -0.00000000000E+00 -0.00000000000E+00 -0.18250000000E+03  0.18250000000E+03  0.00000000000E+00 0. -1.
         23    2    1    2    0    0 -0.12483585900E+03  0.31400988872E+02  0.55816009176E+02  0.16795789001E+03  0.92327743065E+02 0.  0.
        -11    1    3    3    0    0  0.80384461328E+01  0.72473790213E+01 -0.12562798214E+02  0.16582069167E+02  0.00000000000E+00 0. -1.
         11    1    3    3    0    0 -0.13287430514E+03  0.24153609850E+02  0.68378807390E+02  0.15137582084E+03  0.00000000000E+00 0.  1.
        -15    1    1    2    0    0 -0.22246428736E+02 -0.33835836909E+02 -0.26603900291E+01  0.40620227165E+02  0.17770000000E+01 0.  1.
         15    1    1    2    0    0  0.14708228774E+03  0.24348480377E+01 -0.53155619147E+02  0.15642188283E+03  0.17770000000E+01 0. -1.
</event>
<event>
 7    1  0.4166661E-008  0.2584023E+03  0.7546771E-02  0.1020259E+00
        -11   -1    0    0    0    0  0.00000000000E+00  0.00000000000E+00  0.18250000000E+03  0.18250000000E+03  0.00000000000E+00 0. -1.
         11   -1    0    0    0    0 -0.00000000000E+00 -0.00000000000E+00 -0.18250000000E+03  0.18250000000E+03  0.00000000000E+00 0.  1.
         23    2    1    2    0    0  0.27574442957E+02 -0.45273184634E+02  0.17158416138E+02  0.10659767123E+03  0.90877065947E+02 0.  0.
        -11    1    3    3    0    0  0.16746900657E+02  0.84021142452E+01 -0.29306241401E+02  0.34783760441E+02  0.00000000000E+00 0.  1.
         11    1    3    3    0    0  0.10827542299E+02 -0.53675298880E+02  0.46464657538E+02  0.71813910785E+02  0.00000000000E+00 0. -1.
        -15    1    1    2    0    0  0.57279682357E+02 -0.36820678011E+02 -0.95056246092E+02  0.11694260126E+03  0.17770000000E+01 0. -1.
         15    1    1    2    0    0 -0.84854125314E+02  0.82093862645E+02  0.77897829954E+02  0.14145972751E+03  0.17770000000E+01 0.  1.
</event>
<event>
 7    1  0.4166661E-008  0.1848744E+03  0.7546771E-02  0.1066580E+00
        -11   -1    0    0    0    0  0.00000000000E+00  0.00000000000E+00  0.18250000000E+03  0.18250000000E+03  0.00000000000E+00 0.  1.
         11   -1    0    0    0    0 -0.00000000000E+00 -0.00000000000E+00 -0.18250000000E+03  0.18250000000E+03  0.00000000000E+00 0. -1.
         23    2    1    2    0    0  0.28354050831E+02 -0.92377657216E+02 -0.12128877620E+03  0.18012562295E+03  0.91633449455E+02 0.  0.
        -11    1    3    3    0    0 -0.11353808238E+02 -0.90879484967E+02 -0.97700720685E+02  0.13391572190E+03  0.00000000000E+00 0. -1.
         11    1    3    3    0    0  0.39707859069E+02 -0.14981722487E+01 -0.23588055514E+02  0.46209901048E+02  0.00000000000E+00 0.  1.
        -15    1    1    2    0    0 -0.54471506328E+02  0.96434069720E+02  0.10990568655E+03  0.15604195740E+03  0.17770000000E+01 0.  1.
         15    1    1    2    0    0  0.26117455497E+02 -0.40564125039E+01  0.11383089651E+02  0.28832419653E+02  0.17770000000E+01 0. -1.
</event>
<event>
 7    1  0.4166661E-008  0.3650000E+03  0.7546771E-02  0.9765871E-01
        -11   -1    0    0    0    0  0.00000000000E+00  0.00000000000E+00  0.18250000000E+03  0.18250000000E+03  0.00000000000E+00 0.  1.
         11   -1    0    0    0    0 -0.00000000000E+00 -0.00000000000E+00 -0.18250000000E+03  0.18250000000E+03  0.00000000000E+00 0. -1.
         23    2    1    2    0    0 -0.62795241788E+01  0.32696883285E+02 -0.76188343483E+02  0.12388446181E+03  0.91837778694E+02 0.  0.
        -11    1    3    3    0    0  0.26615443682E+02  0.21490113567E+02 -0.81816575598E+02  0.88680092840E+02  0.00000000000E+00 0. -1.
         11    1    3    3    0    0 -0.32894967861E+02  0.11206769718E+02  0.56282321144E+01  0.35204368973E+02  0.00000000000E+00 0.  1.
        -15    1    1    2    0    0 -0.12584739845E+01  0.26539551978E+02 -0.74447141094E+02  0.79066213530E+02  0.17770000000E+01 0. -1.
         15    1    1    2    0    0  0.75379981633E+01 -0.59236435263E+02  0.15063548458E+03  0.16204932466E+03  0.17770000000E+01 0.  1.
</event>
<event>
 7    1  0.4166661E-008  0.3650000E+03  0.7546771E-02  0.9765871E-01
        -11   -1    0    0    0    0  0.00000000000E+00  0.00000000000E+00  0.18250000000E+03  0.18250000000E+03  0.00000000000E+00 0. -1.
         11   -1    0    0    0    0 -0.00000000000E+00 -0.00000000000E+00 -0.18250000000E+03  0.18250000000E+03  0.00000000000E+00 0.  1.
         23    2    1    2    0    0  0.56327226096E+02 -0.93112681489E+02  0.77920452941E+02  0.15894649752E+03  0.85730182740E+02 0.  0.
        -11    1    3    3    0    0  0.69831245045E+02 -0.62092977633E+02  0.82692727927E+02  0.12477991789E+03  0.00000000000E+00 0. -1.
         11    1    3    3    0    0 -0.13504018949E+02 -0.31019703855E+02 -0.47722749861E+01  0.34166579629E+02  0.00000000000E+00 0.  1.
        -15    1    1    2    0    0 -0.29675150201E+02  0.20247564427E+02  0.46881436896E+02  0.59089806728E+02  0.17770000000E+01 0. -1.
         15    1    1    2    0    0 -0.26652075895E+02  0.72865117062E+02 -0.12480188984E+03  0.14696369575E+03  0.17770000000E+01 0.  1.
</event>
<event>
 7    1  0.4166661E-008  0.2534495E+03  0.7546771E-02  0.1022824E+00
        -11   -1    0    0    0    0  0.00000000000E+00  0.00000000000E+00  0.18250000000E+03  0.18250000000E+03  0.00000000000E+00 0. -1.
         11   -1    0    0    0    0 -0.00000000000E+00 -0.00000000000E+00 -0.18250000000E+03  0.18250000000E+03  0.00000000000E+00 0.  1.
         23    2    1    2    0    0  0.44845258947E+01 -0.70637957881E+02 -0.10682043737E+02  0.11155054560E+03  0.85554579655E+02 0.  0.
        -11    1    3    3    0    0 -0.77025187173E+01  0.19018896542E+02 -0.85704517861E+00  0.20537325695E+02  0.00000000000E+00 0. -1.
         11    1    3    3    0    0  0.12187044612E+02 -0.89656854423E+02 -0.98249985587E+01  0.91013219909E+02  0.00000000000E+00 0.  1.
        -15    1    1    2    0    0 -0.60379784346E+02  0.49222978775E+02 -0.10049809147E+03  0.12716777939E+03  0.17770000000E+01 0.  1.
         15    1    1    2    0    0  0.55895258451E+02  0.21414979106E+02  0.11118013521E+03  0.12628167500E+03  0.17770000000E+01 0. -1.
</event>
<event>
 7    1  0.4166661E-008  0.1907990E+03  0.7546771E-02  0.1062034E+00
        -11   -1    0    0    0    0  0.00000000000E+00  0.00000000000E+00  0.18250000000E+03  0.18250000000E+03  0.00000000000E+00 0. -1.
         11   -1    0    0    0    0 -0.00000000000E+00 -0.00000000000E+00 -0.18250000000E+03  0.18250000000E+03  0.00000000000E+00 0.  1.
         23    2    1    2    0    0 -0.97727125200E+02 -0.10088290504E+03  0.48289753641E+02  0.17420097324E+03  0.91028167308E+02 0.  0.
        -11    1    3    3    0    0 -0.91746943442E+02 -0.96458393361E+02  0.81440316959E+01  0.13337184310E+03  0.00000000000E+00 0. -1.
         11    1    3    3    0    0 -0.59801817577E+01 -0.44245116775E+01  0.40145721945E+02  0.40829130139E+02  0.00000000000E+00 0.  1.
        -15    1    1    2    0    0  0.44083722308E+02 -0.11890087704E+02  0.18347626521E+02  0.49239637348E+02  0.17770000000E+01 0. -1.
         15    1    1    2    0    0  0.53643402892E+02  0.11277299274E+03 -0.66637380162E+02  0.14155938941E+03  0.17770000000E+01 0.  1.
</event>
<event>
 7    1  0.4166661E-008  0.2458747E+03  0.7546771E-02  0.1026873E+00
        -11   -1    0    0    0    0  0.00000000000E+00  0.00000000000E+00  0.18250000000E+03  0.18250000000E+03  0.00000000000E+00 0. -1.
         11   -1    0    0    0    0 -0.00000000000E+00 -0.00000000000E+00 -0.18250000000E+03  0.18250000000E+03  0.00000000000E+00 0.  1.
         23    2    1    2    0    0  0.32296394552E+02  0.61412482589E+02 -0.35646730728E+02  0.11912529548E+03  0.90031086259E+02 0.  0.
        -11    1    3    3    0    0  0.25424368271E+02 -0.19144805351E+02 -0.17282172028E+02  0.36215957034E+02  0.00000000000E+00 0. -1.
         11    1    3    3    0    0  0.68720262819E+01  0.80557287940E+02 -0.18364558699E+02  0.82909338446E+02  0.00000000000E+00 0.  1.
        -15    1    1    2    0    0 -0.89122288588E+02 -0.98438044188E+02 -0.45245260953E+02  0.14029655104E+03  0.17770000000E+01 0. -1.
         15    1    1    2    0    0  0.56825894036E+02  0.37025561599E+02  0.80891991680E+02  0.10557815348E+03  0.17770000000E+01 0.  1.
</event>
<event>
 7    1  0.4166661E-008  0.1825901E+03  0.7546771E-02  0.1068383E+00
        -11   -1    0    0    0    0  0.00000000000E+00  0.00000000000E+00  0.18250000000E+03  0.18250000000E+03  0.00000000000E+00 0.  1.
         11   -1    0    0    0    0 -0.00000000000E+00 -0.00000000000E+00 -0.18250000000E+03  0.18250000000E+03  0.00000000000E+00 0. -1.
         23    2    1    2    0    0 -0.43689973786E+01 -0.47712725298E+02  0.15097053382E+03  0.18259010840E+03  0.90837510470E+02 0.  0.
        -11    1    3    3    0    0 -0.23667037305E+02 -0.69005403169E+02  0.11919759748E+03  0.13974956732E+03  0.00000000000E+00 0.  1.
         11    1    3    3    0    0  0.19298039926E+02  0.21292677871E+02  0.31772936342E+02  0.42840541076E+02  0.00000000000E+00 0. -1.
        -15    1    1    2    0    0 -0.18405698301E+02  0.25802197448E+01  0.42558230340E+01  0.19149334782E+02  0.17770000000E+01 0.  1.
         15    1    1    2    0    0  0.22774695680E+02  0.45132505554E+02 -0.15522635686E+03  0.16326055682E+03  0.17770000000E+01 0. -1.
</event>
<event>
 7    1  0.4166661E-008  0.2573171E+03  0.7546771E-02  0.1020816E+00
        -11   -1    0    0    0    0  0.00000000000E+00  0.00000000000E+00  0.18250000000E+03  0.18250000000E+03  0.00000000000E+00 0.  1.
         11   -1    0    0    0    0 -0.00000000000E+00 -0.00000000000E+00 -0.18250000000E+03  0.18250000000E+03  0.00000000000E+00 0. -1.
         23    2    1    2    0    0  0.10160169389E+02 -0.53336592022E+01 -0.55139008571E+02  0.10768293687E+03  0.91780322855E+02 0.  0.
        -11    1    3    3    0    0 -0.34764379194E+02  0.16280443762E+02 -0.40324391958E+02  0.55674693503E+02  0.00000000000E+00 0.  1.
         11    1    3    3    0    0  0.44924548583E+02 -0.21614102965E+02 -0.14814616613E+02  0.52008243363E+02  0.00000000000E+00 0. -1.
        -15    1    1    2    0    0 -0.54125743009E+02 -0.82002782441E+02  0.10810888803E+03  0.14609839761E+03  0.17770000000E+01 0.  1.
         15    1    1    2    0    0  0.43965573620E+02  0.87336441643E+02 -0.52969879456E+02  0.11121866553E+03  0.17770000000E+01 0. -1.
</event>
<event>
 7    1  0.4166661E-008  0.3650000E+03  0.7546771E-02  0.9765871E-01
        -11   -1    0    0    0    0  0.00000000000E+00  0.00000000000E+00  0.18250000000E+03  0.18250000000E+03  0.00000000000E+00 0.  1.
         11   -1    0    0    0    0 -0.00000000000E+00 -0.00000000000E+00 -0.18250000000E+03  0.18250000000E+03  0.00000000000E+00 0. -1.
         23    2    1    2    0    0 -0.13160994776E+02  0.84233299374E+02 -0.75186154527E+02  0.14562295351E+03  0.91019922269E+02 0.  0.
        -11    1    3    3    0    0  0.19517534413E+02  0.84636522358E+02 -0.71939516063E+02  0.11278106684E+03  0.00000000000E+00 0.  1.
         11    1    3    3    0    0 -0.32678529189E+02 -0.40322298420E+00 -0.32466384631E+01  0.32841886669E+02  0.00000000000E+00 0. -1.
        -15    1    1    2    0    0  0.32068878892E+02 -0.40762532665E+02  0.13406899742E+03  0.14376248072E+03  0.17770000000E+01 0.  1.
         15    1    1    2    0    0 -0.18907884116E+02 -0.43470766709E+02 -0.58882842898E+02  0.75614565771E+02  0.17770000000E+01 0. -1.
</event>
<event>
 7    1  0.4166661E-008  0.2073076E+03  0.7546771E-02  0.1050261E+00
        -11   -1    0    0    0    0  0.00000000000E+00  0.00000000000E+00  0.18250000000E+03  0.18250000000E+03  0.00000000000E+00 0. -1.
         11   -1    0    0    0    0 -0.00000000000E+00 -0.00000000000E+00 -0.18250000000E+03  0.18250000000E+03  0.00000000000E+00 0.  1.
         23    2    1    2    0    0  0.70421718834E+02 -0.85813729990E+02 -0.67292467965E+02  0.15769240042E+03  0.89528778435E+02 0.  0.
        -11    1    3    3    0    0 -0.20257969154E+02 -0.81397131018E+01 -0.18839363809E+02  0.28836814532E+02  0.00000000000E+00 0. -1.
         11    1    3    3    0    0  0.90679687988E+02 -0.77674016888E+02 -0.48453104155E+02  0.12885558589E+03  0.00000000000E+00 0.  1.
        -15    1    1    2    0    0 -0.64605978052E+02  0.12076763583E+03  0.91170556575E+02  0.16454173446E+03  0.17770000000E+01 0. -1.
         15    1    1    2    0    0 -0.58157407820E+01 -0.34953905841E+02 -0.23878088610E+02  0.42765865116E+02  0.17770000000E+01 0.  1.
</event>
<event>
 7    1  0.4166661E-008  0.3650000E+03  0.7546771E-02  0.9765871E-01
        -11   -1    0    0    0    0  0.00000000000E+00  0.00000000000E+00  0.18250000000E+03  0.18250000000E+03  0.00000000000E+00 0. -1.
         11   -1    0    0    0    0 -0.00000000000E+00 -0.00000000000E+00 -0.18250000000E+03  0.18250000000E+03  0.00000000000E+00 0.  1.
         23    2    1    2    0    0 -0.24804967887E+02 -0.16736223552E+02  0.21541863239E+01  0.97024316617E+02  0.92269658532E+02 0.  0.
        -11    1    3    3    0    0  0.23615402226E+02 -0.29043339592E+02  0.21825922676E+02  0.43330978499E+02  0.00000000000E+00 0.  1.
         11    1    3    3    0    0 -0.48420370113E+02  0.12307116041E+02 -0.19671736352E+02  0.53693338118E+02  0.00000000000E+00 0. -1.
        -15    1    1    2    0    0  0.10357804957E+03  0.10585562859E+03 -0.12096389075E+02  0.14860453161E+03  0.17770000000E+01 0.  1.
         15    1    1    2    0    0 -0.78773081680E+02 -0.89119405039E+02  0.99422027509E+01  0.11937115178E+03  0.17770000000E+01 0. -1.
</event>
<event>
 7    1  0.4166661E-008  0.3650000E+03  0.7546771E-02  0.9765871E-01
        -11   -1    0    0    0    0  0.00000000000E+00  0.00000000000E+00  0.18250000000E+03  0.18250000000E+03  0.00000000000E+00 0.  1.
         11   -1    0    0    0    0 -0.00000000000E+00 -0.00000000000E+00 -0.18250000000E+03  0.18250000000E+03  0.00000000000E+00 0. -1.
         23    2    1    2    0    0  0.75452812434E+02  0.43598861496E+02 -0.11563987719E+02  0.12597817327E+03  0.90237390814E+02 0.  0.
        -11    1    3    3    0    0  0.16446025175E+01 -0.24765604949E+02 -0.13663722170E+01  0.24857732780E+02  0.00000000000E+00 0.  1.
         11    1    3    3    0    0  0.73808209917E+02  0.68364466445E+02 -0.10197615502E+02  0.10112044049E+03  0.00000000000E+00 0. -1.
        -15    1    1    2    0    0 -0.11248397448E+03 -0.59594778078E+02  0.86490075274E+02  0.15390865128E+03  0.17770000000E+01 0.  1.
         15    1    1    2    0    0  0.37031162045E+02  0.15995916581E+02 -0.74926087555E+02  0.85113175449E+02  0.17770000000E+01 0. -1.
</event>
<event>
 7    1  0.4166661E-008  0.2286433E+03  0.7546771E-02  0.1036702E+00
        -11   -1    0    0    0    0  0.00000000000E+00  0.00000000000E+00  0.18250000000E+03  0.18250000000E+03  0.00000000000E+00 0.  1.
         11   -1    0    0    0    0 -0.00000000000E+00 -0.00000000000E+00 -0.18250000000E+03  0.18250000000E+03  0.00000000000E+00 0. -1.
         23    2    1    2    0    0  0.10682754648E+02 -0.13272810998E+02 -0.10041615264E+03  0.13635665354E+03  0.90661152077E+02 0.  0.
        -11    1    3    3    0    0 -0.30123552907E+02 -0.39495156382E+01 -0.32458458932E+01  0.30554257135E+02  0.00000000000E+00 0. -1.
         11    1    3    3    0    0  0.40806307555E+02 -0.93232953594E+01 -0.97170306745E+02  0.10580239641E+03  0.00000000000E+00 0.  1.
        -15    1    1    2    0    0  0.64496452363E+02 -0.45839263013E+02  0.10662549350E+03  0.13278999960E+03  0.17770000000E+01 0.  1.
         15    1    1    2    0    0 -0.75179207012E+02  0.59112074011E+02 -0.62093408605E+01  0.95853346857E+02  0.17770000000E+01 0. -1.
</event>
<event>
 7    1  0.4166661E-008  0.3650000E+03  0.7546771E-02  0.9765871E-01
        -11   -1    0    0    0    0  0.00000000000E+00  0.00000000000E+00  0.18250000000E+03  0.18250000000E+03  0.00000000000E+00 0.  1.
         11   -1    0    0    0    0 -0.00000000000E+00 -0.00000000000E+00 -0.18250000000E+03  0.18250000000E+03  0.00000000000E+00 0. -1.
         23    2    1    2    0    0 -0.11602590394E+02 -0.12436003075E+03 -0.43549665965E+02  0.16087946605E+03  0.91572877195E+02 0.  0.
        -11    1    3    3    0    0 -0.32545248641E+02 -0.41156508867E+01 -0.83443735568E+01  0.33849082135E+02  0.00000000000E+00 0.  1.
         11    1    3    3    0    0  0.20942658246E+02 -0.12024437987E+03 -0.35205292408E+02  0.12703038391E+03  0.00000000000E+00 0. -1.
        -15    1    1    2    0    0 -0.16664043152E+02  0.11460670631E+03  0.91483545231E+02  0.14759669455E+03  0.17770000000E+01 0.  1.
         15    1    1    2    0    0  0.28266633546E+02  0.97533244429E+01 -0.47933879267E+02  0.56523839398E+02  0.17770000000E+01 0. -1.
</event>
<event>
 7    1  0.4166661E-008  0.1906278E+03  0.7546771E-02  0.1062163E+00
        -11   -1    0    0    0    0  0.00000000000E+00  0.00000000000E+00  0.18250000000E+03  0.18250000000E+03  0.00000000000E+00 0.  1.
         11   -1    0    0    0    0 -0.00000000000E+00 -0.00000000000E+00 -0.18250000000E+03  0.18250000000E+03  0.00000000000E+00 0.  1.
         23    2    1    2    0    0  0.12203897099E+02 -0.66147146775E+02  0.15703580076E+03  0.19062779506E+03  0.84583292662E+02 0.  0.
        -11    1    3    3    0    0  0.15454438489E+02 -0.43475033384E+02  0.16091347218E+03  0.16739792031E+03  0.00000000000E+00 0.  1.
         11    1    3    3    0    0 -0.32505413898E+01 -0.22672113391E+02 -0.38776714204E+01  0.23229874743E+02  0.00000000000E+00 0.  1.
        -15    1    1    2    0    0 -0.68213403272E-01  0.53909213984E+02 -0.14018147689E+03  0.15020057323E+03  0.17770000000E+01 0.  1.
         15    1    1    2    0    0 -0.12135683696E+02  0.12237932791E+02 -0.16854323867E+02  0.24171631715E+02  0.17770000000E+01 0. -1.
</event>
<event>
 7    1  0.4166661E-008  0.3650000E+03  0.7546771E-02  0.9765871E-01
        -11   -1    0    0    0    0  0.00000000000E+00  0.00000000000E+00  0.18250000000E+03  0.18250000000E+03  0.00000000000E+00 0.  1.
         11   -1    0    0    0    0 -0.00000000000E+00 -0.00000000000E+00 -0.18250000000E+03  0.18250000000E+03  0.00000000000E+00 0. -1.
         23    2    1    2    0    0 -0.87649329758E+01  0.10329333863E+02 -0.91367938049E+01  0.94676958452E+02  0.93256239858E+02 0.  0.
        -11    1    3    3    0    0 -0.23905246012E+02 -0.35812751480E+02 -0.15362993986E+02  0.45716906497E+02  0.00000000000E+00 0.  1.
         11    1    3    3    0    0  0.15140313036E+02  0.46142085343E+02  0.62262001812E+01  0.48960051954E+02  0.00000000000E+00 0. -1.
        -15    1    1    2    0    0  0.12767495621E+03 -0.10555730190E+02  0.59389095514E+02  0.14121805932E+03  0.17770000000E+01 0.  1.
         15    1    1    2    0    0 -0.11891002323E+03  0.22639632641E+00 -0.50252301709E+02  0.12910498223E+03  0.17770000000E+01 0. -1.
</event>
<event>
 7    1  0.4166661E-008  0.2500557E+03  0.7546771E-02  0.1024619E+00
        -11   -1    0    0    0    0  0.00000000000E+00  0.00000000000E+00  0.18250000000E+03  0.18250000000E+03  0.00000000000E+00 0. -1.
         11   -1    0    0    0    0 -0.00000000000E+00 -0.00000000000E+00 -0.18250000000E+03  0.18250000000E+03  0.00000000000E+00 0.  1.
         23    2    1    2    0    0 -0.11479528207E+02  0.23327830920E+02 -0.62773310997E+02  0.11494431972E+03  0.92713218035E+02 0.  0.
        -11    1    3    3    0    0  0.51372736941E+01  0.49654572619E+02 -0.66972537500E+02  0.83530167856E+02  0.00000000000E+00 0. -1.
         11    1    3    3    0    0 -0.16616801901E+02 -0.26326741699E+02  0.41992265025E+01  0.31414151860E+02  0.00000000000E+00 0.  1.
        -15    1    1    2    0    0  0.51546633745E+02  0.81834343707E+02  0.92293716923E+02  0.13369817939E+03  0.17770000000E+01 0. -1.
         15    1    1    2    0    0 -0.40067105538E+02 -0.10516217463E+03 -0.29520405926E+02  0.11635750089E+03  0.17770000000E+01 0.  1.
</event>
<event>
 7    1  0.4166661E-008  0.3650000E+03  0.7546771E-02  0.9765871E-01
        -11   -1    0    0    0    0  0.00000000000E+00  0.00000000000E+00  0.18250000000E+03  0.18250000000E+03  0.00000000000E+00 0.  1.
         11   -1    0    0    0    0 -0.00000000000E+00 -0.00000000000E+00 -0.18250000000E+03  0.18250000000E+03  0.00000000000E+00 0. -1.
         23    2    1    2    0    0  0.10630543016E+03  0.16325312172E+02 -0.23272519894E+02  0.14319629061E+03  0.91630819946E+02 0.  0.
        -11    1    3    3    0    0  0.92326873427E+02  0.15860788061E+02 -0.54923477112E+02  0.10859283813E+03  0.00000000000E+00 0. -1.
         11    1    3    3    0    0  0.13978556732E+02  0.46452411048E+00  0.31650957218E+02  0.34603452483E+02  0.00000000000E+00 0.  1.
        -15    1    1    2    0    0 -0.11191540654E+02  0.58376965847E+02 -0.52289106108E+02  0.79186040880E+02  0.17770000000E+01 0.  1.
         15    1    1    2    0    0 -0.95113889504E+02 -0.74702278018E+02  0.75561626002E+02  0.14261766851E+03  0.17770000000E+01 0. -1.
</event>
<event>
 7    1  0.4166661E-008  0.2614339E+03  0.7546771E-02  0.1018719E+00
        -11   -1    0    0    0    0  0.00000000000E+00  0.00000000000E+00  0.18250000000E+03  0.18250000000E+03  0.00000000000E+00 0.  1.
         11   -1    0    0    0    0 -0.00000000000E+00 -0.00000000000E+00 -0.18250000000E+03  0.18250000000E+03  0.00000000000E+00 0. -1.
         23    2    1    2    0    0 -0.31001816450E+02 -0.21617203440E+02 -0.36366959055E+02  0.10356609891E+03  0.89302659673E+02 0.  0.
        -11    1    3    3    0    0 -0.11517576486E+02  0.30575319501E+02  0.64489301573E+01  0.33303054377E+02  0.00000000000E+00 0.  1.
         11    1    3    3    0    0 -0.19484239964E+02 -0.52192522941E+02 -0.42815889212E+02  0.70263044532E+02  0.00000000000E+00 0. -1.
        -15    1    1    2    0    0  0.11661485735E+03 -0.56700348509E+02  0.60191090459E+02  0.14296880631E+03  0.17770000000E+01 0.  1.
         15    1    1    2    0    0 -0.85613040905E+02  0.78317551949E+02 -0.23824131405E+02  0.11846509478E+03  0.17770000000E+01 0. -1.
</event>
<event>
 7    1  0.4166661E-008  0.3650000E+03  0.7546771E-02  0.9765871E-01
        -11   -1    0    0    0    0  0.00000000000E+00  0.00000000000E+00  0.18250000000E+03  0.18250000000E+03  0.00000000000E+00 0.  1.
         11   -1    0    0    0    0 -0.00000000000E+00 -0.00000000000E+00 -0.18250000000E+03  0.18250000000E+03  0.00000000000E+00 0. -1.
         23    2    1    2    0    0 -0.80886535579E+02  0.23224220211E+02 -0.93311129245E+02  0.15526323967E+03  0.91201484149E+02 0.  0.
        -11    1    3    3    0    0 -0.23268921462E+02  0.10451331402E+02  0.16653139058E+02  0.30463093647E+02  0.00000000000E+00 0.  1.
         11    1    3    3    0    0 -0.57617614117E+02  0.12772888809E+02 -0.10996426830E+03  0.12480014603E+03  0.00000000000E+00 0. -1.
        -15    1    1    2    0    0  0.39861360121E+02 -0.87398947179E+02  0.92758079297E+02  0.13354670719E+03  0.17770000000E+01 0.  1.
         15    1    1    2    0    0  0.41025175458E+02  0.64174726968E+02  0.55304994742E+00  0.76190053130E+02  0.17770000000E+01 0. -1.
</event>
<event>
 7    1  0.4166661E-008  0.1996227E+03  0.7546771E-02  0.1055587E+00
        -11   -1    0    0    0    0  0.00000000000E+00  0.00000000000E+00  0.18250000000E+03  0.18250000000E+03  0.00000000000E+00 0. -1.
         11   -1    0    0    0    0 -0.00000000000E+00 -0.00000000000E+00 -0.18250000000E+03  0.18250000000E+03  0.00000000000E+00 0.  1.
         23    2    1    2    0    0  0.46605738885E+02  0.78596443886E+01  0.12801941452E+03  0.16537728670E+03  0.93417383588E+02 0.  0.
        -11    1    3    3    0    0  0.42801575130E+02  0.20059393785E+02  0.12150257881E+02  0.48805561970E+02  0.00000000000E+00 0.  1.
         11    1    3    3    0    0  0.38041637543E+01 -0.12199749396E+02  0.11586915664E+03  0.11657172473E+03  0.00000000000E+00 0. -1.
        -15    1    1    2    0    0 -0.30879859155E+01  0.44592030476E+02 -0.12343556633E+03  0.13129158999E+03  0.17770000000E+01 0. -1.
         15    1    1    2    0    0 -0.43517752969E+02 -0.52451674865E+02 -0.45838481911E+01  0.68331123310E+02  0.17770000000E+01 0.  1.
</event>
<event>
 7    1  0.4166661E-008  0.2001172E+03  0.7546771E-02  0.1055237E+00
        -11   -1    0    0    0    0  0.00000000000E+00  0.00000000000E+00  0.18250000000E+03  0.18250000000E+03  0.00000000000E+00 0.  1.
         11   -1    0    0    0    0 -0.00000000000E+00 -0.00000000000E+00 -0.18250000000E+03  0.18250000000E+03  0.00000000000E+00 0. -1.
         23    2    1    2    0    0  0.15208513124E+02 -0.18130932640E+02  0.13817400147E+03  0.16488281649E+03  0.86800108871E+02 0.  0.
        -11    1    3    3    0    0 -0.17602079213E+02 -0.40863689924E+02  0.43893263149E+02  0.62500343172E+02  0.00000000000E+00 0.  1.
         11    1    3    3    0    0  0.32810592337E+02  0.22732757283E+02  0.94280738325E+02  0.10238247332E+03  0.00000000000E+00 0. -1.
        -15    1    1    2    0    0 -0.68444761498E+02  0.47072491087E+02 -0.67854716434E+02  0.10727499739E+03  0.17770000000E+01 0.  1.
         15    1    1    2    0    0  0.53236248374E+02 -0.28941558446E+02 -0.70319285040E+02  0.92842186121E+02  0.17770000000E+01 0. -1.
</event>
<event>
 7    1  0.4166661E-008  0.3650000E+03  0.7546771E-02  0.9765871E-01
        -11   -1    0    0    0    0  0.00000000000E+00  0.00000000000E+00  0.18250000000E+03  0.18250000000E+03  0.00000000000E+00 0.  1.
         11   -1    0    0    0    0 -0.00000000000E+00 -0.00000000000E+00 -0.18250000000E+03  0.18250000000E+03  0.00000000000E+00 0. -1.
         23    2    1    2    0    0  0.64098888902E+01  0.53016205274E+02  0.10501614976E+02  0.11244429318E+03  0.98395276589E+02 0.  0.
        -11    1    3    3    0    0 -0.74979928275E+01 -0.12366070576E+02 -0.30690019309E+02  0.33926639727E+02  0.00000000000E+00 0. -1.
         11    1    3    3    0    0  0.13907881718E+02  0.65382275850E+02  0.41191634285E+02  0.78517653456E+02  0.00000000000E+00 0.  1.
        -15    1    1    2    0    0  0.96595637721E+02  0.48035149845E+02 -0.40532476805E+00  0.10789538852E+03  0.17770000000E+01 0.  1.
         15    1    1    2    0    0 -0.10300552661E+03 -0.10105135512E+03 -0.10096290208E+02  0.14466031829E+03  0.17770000000E+01 0. -1.
</event>
<event>
 7    1  0.4166661E-008  0.2358332E+03  0.7546771E-02  0.1032490E+00
        -11   -1    0    0    0    0  0.00000000000E+00  0.00000000000E+00  0.18250000000E+03  0.18250000000E+03  0.00000000000E+00 0.  1.
         11   -1    0    0    0    0 -0.00000000000E+00 -0.00000000000E+00 -0.18250000000E+03  0.18250000000E+03  0.00000000000E+00 0. -1.
         23    2    1    2    0    0 -0.36031258500E+01 -0.47800970549E+02  0.78417736580E+02  0.12916678756E+03  0.90756830585E+02 0.  0.
        -11    1    3    3    0    0  0.30545695817E+02 -0.52891529447E+02  0.25959256490E+02  0.66365928139E+02  0.00000000000E+00 0.  1.
         11    1    3    3    0    0 -0.34148821667E+02  0.50905588983E+01  0.52458480090E+02  0.62800859425E+02  0.00000000000E+00 0. -1.
        -15    1    1    2    0    0 -0.11320223997E+02  0.11536230992E+03  0.17820054841E+02  0.11729161140E+03  0.17770000000E+01 0.  1.
         15    1    1    2    0    0  0.14923349847E+02 -0.67561339375E+02 -0.96237791421E+02  0.11854160103E+03  0.17770000000E+01 0. -1.
</event>
<event>
 7    1  0.4166661E-008  0.2007813E+03  0.7546771E-02  0.1054768E+00
        -11   -1    0    0    0    0  0.00000000000E+00  0.00000000000E+00  0.18250000000E+03  0.18250000000E+03  0.00000000000E+00 0.  1.
         11   -1    0    0    0    0 -0.00000000000E+00 -0.00000000000E+00 -0.18250000000E+03  0.18250000000E+03  0.00000000000E+00 0. -1.
         23    2    1    2    0    0  0.95774429889E+01  0.10467217556E+03 -0.87027022015E+02  0.16421865074E+03  0.91356833021E+02 0.  0.
        -11    1    3    3    0    0 -0.26642120634E+02  0.66009290513E+02 -0.85453139673E+02  0.11121721137E+03  0.00000000000E+00 0. -1.
         11    1    3    3    0    0  0.36219563623E+02  0.38662885051E+02 -0.15738823419E+01  0.53001439369E+02  0.00000000000E+00 0.  1.
        -15    1    1    2    0    0 -0.41401484566E+01 -0.11716798527E+03  0.47354910428E+01  0.11735016066E+03  0.17770000000E+01 0.  1.
         15    1    1    2    0    0 -0.54372945323E+01  0.12495809709E+02  0.82291530972E+02  0.83431188598E+02  0.17770000000E+01 0. -1.
</event>
<event>
 7    1  0.4166661E-008  0.3650000E+03  0.7546771E-02  0.9765871E-01
        -11   -1    0    0    0    0  0.00000000000E+00  0.00000000000E+00  0.18250000000E+03  0.18250000000E+03  0.00000000000E+00 0. -1.
         11   -1    0    0    0    0 -0.00000000000E+00 -0.00000000000E+00 -0.18250000000E+03  0.18250000000E+03  0.00000000000E+00 0.  1.
         23    2    1    2    0    0  0.24690944624E+02 -0.23841813518E+02  0.29258307387E+02  0.10122201836E+03  0.90618837069E+02 0.  0.
        -11    1    3    3    0    0  0.58573176788E+02 -0.22604927987E+02  0.22178456464E+02  0.66585912470E+02  0.00000000000E+00 0. -1.
         11    1    3    3    0    0 -0.33882232164E+02 -0.12368855311E+01  0.70798509228E+01  0.34636105892E+02  0.00000000000E+00 0.  1.
        -15    1    1    2    0    0 -0.39477368049E+02  0.13934804559E+03 -0.26725998442E+02  0.14728807528E+03  0.17770000000E+01 0. -1.
         15    1    1    2    0    0  0.14786423425E+02 -0.11550623207E+03 -0.25323089451E+01  0.11648990636E+03  0.17770000000E+01 0.  1.
</event>
<event>
 7    1  0.4166661E-008  0.3650000E+03  0.7546771E-02  0.9765871E-01
        -11   -1    0    0    0    0  0.00000000000E+00  0.00000000000E+00  0.18250000000E+03  0.18250000000E+03  0.00000000000E+00 0.  1.
         11   -1    0    0    0    0 -0.00000000000E+00 -0.00000000000E+00 -0.18250000000E+03  0.18250000000E+03  0.00000000000E+00 0. -1.
         23    2    1    2    0    0  0.52793150841E+02  0.45555694721E+02  0.11267673796E+03  0.16102131285E+03  0.91484303669E+02 0.  0.
        -11    1    3    3    0    0  0.48587660312E+02  0.17524652431E+02  0.12093050700E+03  0.13149928403E+03  0.00000000000E+00 0.  1.
         11    1    3    3    0    0  0.42054905294E+01  0.28031042290E+02 -0.82537690370E+01  0.29522028822E+02  0.00000000000E+00 0. -1.
        -15    1    1    2    0    0 -0.25394675956E+02  0.47961592248E+02  0.91222472519E+00  0.54306480100E+02  0.17770000000E+01 0.  1.
         15    1    1    2    0    0 -0.27398474885E+02 -0.93517286969E+02 -0.11358896269E+03  0.14967220705E+03  0.17770000000E+01 0. -1.
</event>
<event>
 7    1  0.4166661E-008  0.2516243E+03  0.7546771E-02  0.1023786E+00
        -11   -1    0    0    0    0  0.00000000000E+00  0.00000000000E+00  0.18250000000E+03  0.18250000000E+03  0.00000000000E+00 0. -1.
         11   -1    0    0    0    0 -0.00000000000E+00 -0.00000000000E+00 -0.18250000000E+03  0.18250000000E+03  0.00000000000E+00 0.  1.
         23    2    1    2    0    0 -0.11847246602E+02 -0.58207562404E+02 -0.28278296556E+02  0.11337565545E+03  0.92335798147E+02 0.  0.
        -11    1    3    3    0    0  0.12652531365E+02  0.22246048290E+02 -0.86447953588E+01  0.27013065381E+02  0.00000000000E+00 0.  1.
         11    1    3    3    0    0 -0.24499777967E+02 -0.80453610694E+02 -0.19633501197E+02  0.86362590069E+02  0.00000000000E+00 0. -1.
        -15    1    1    2    0    0 -0.88263595497E+02  0.10603453511E+03  0.27342239482E+02  0.14065752989E+03  0.17770000000E+01 0. -1.
         15    1    1    2    0    0  0.10011084210E+03 -0.47826972706E+02  0.93605707387E+00  0.11096681466E+03  0.17770000000E+01 0.  1.
</event>
<event>
 7    1  0.4166661E-008  0.3650000E+03  0.7546771E-02  0.9765871E-01
        -11   -1    0    0    0    0  0.00000000000E+00  0.00000000000E+00  0.18250000000E+03  0.18250000000E+03  0.00000000000E+00 0. -1.
         11   -1    0    0    0    0 -0.00000000000E+00 -0.00000000000E+00 -0.18250000000E+03  0.18250000000E+03  0.00000000000E+00 0.  1.
         23    2    1    2    0    0  0.48018199303E+02 -0.22572279094E+02  0.57152499256E+02  0.11474247404E+03  0.84167523006E+02 0.  0.
        -11    1    3    3    0    0  0.37169873013E+02  0.65354372244E+01 -0.11446709734E+02  0.39437780912E+02  0.00000000000E+00 0.  1.
         11    1    3    3    0    0  0.10848326290E+02 -0.29107716318E+02  0.68599208990E+02  0.75304693125E+02  0.00000000000E+00 0. -1.
        -15    1    1    2    0    0  0.76367509498E+02 -0.56247967811E+02 -0.88664863564E+01  0.95276454065E+02  0.17770000000E+01 0. -1.
         15    1    1    2    0    0 -0.12438570880E+03  0.78820246905E+02 -0.48286012899E+02  0.15498107190E+03  0.17770000000E+01 0.  1.
</event>
<event>
 7    1  0.5266931E-008  0.3650000E+03  0.7546771E-02  0.9765871E-01
        -11   -1    0    0    0    0  0.00000000000E+00  0.00000000000E+00  0.18250000000E+03  0.18250000000E+03  0.00000000000E+00 0. -1.
         11   -1    0    0    0    0 -0.00000000000E+00 -0.00000000000E+00 -0.18250000000E+03  0.18250000000E+03  0.00000000000E+00 0.  1.
         23    2    1    2    0    0  0.52142917158E+02 -0.36936669595E+02  0.76766160497E+02  0.13466452732E+03  0.90323253654E+02 0.  0.
        -11    1    3    3    0    0  0.66529698411E+02 -0.28652557614E+02  0.88477585090E+02  0.11434794660E+03  0.00000000000E+00 0. -1.
         11    1    3    3    0    0 -0.14386781254E+02 -0.82841119811E+01 -0.11711424593E+02  0.20316580720E+02  0.00000000000E+00 0.  1.
        -15    1    1    2    0    0  0.80316996293E+02  0.23984021700E+02 -0.24605743364E+02  0.87376504428E+02  0.17770000000E+01 0. -1.
         15    1    1    2    0    0 -0.13245991345E+03  0.12952647895E+02 -0.52160417133E+02  0.14295896825E+03  0.17770000000E+01 0.  1.
</event>
<event>
 7    1  0.4166661E-008  0.2013902E+03  0.7546771E-02  0.1054340E+00
        -11   -1    0    0    0    0  0.00000000000E+00  0.00000000000E+00  0.18250000000E+03  0.18250000000E+03  0.00000000000E+00 0. -1.
         11   -1    0    0    0    0 -0.00000000000E+00 -0.00000000000E+00 -0.18250000000E+03  0.18250000000E+03  0.00000000000E+00 0.  1.
         23    2    1    2    0    0  0.11540856472E+02 -0.97341297109E+02  0.97877743910E+02  0.16360983957E+03  0.87060940498E+02 0.  0.
        -11    1    3    3    0    0  0.44822586079E+02 -0.64706953141E+02  0.37110494481E+02  0.87024380539E+02  0.00000000000E+00 0. -1.
         11    1    3    3    0    0 -0.33281729607E+02 -0.32634343968E+02  0.60767249429E+02  0.76585459032E+02  0.00000000000E+00 0.  1.
        -15    1    1    2    0    0 -0.15684549230E+02  0.95893229173E+02  0.60337308518E+01  0.97370838154E+02  0.17770000000E+01 0. -1.
         15    1    1    2    0    0  0.41436927579E+01  0.14480679357E+01 -0.10391147476E+03  0.10401932228E+03  0.17770000000E+01 0.  1.
</event>
<event>
 7    1  0.4166661E-008  0.1894881E+03  0.7546771E-02  0.1063024E+00
        -11   -1    0    0    0    0  0.00000000000E+00  0.00000000000E+00  0.18250000000E+03  0.18250000000E+03  0.00000000000E+00 0.  1.
         11   -1    0    0    0    0 -0.00000000000E+00 -0.00000000000E+00 -0.18250000000E+03  0.18250000000E+03  0.00000000000E+00 0. -1.
         23    2    1    2    0    0  0.78566992767E+01 -0.46385262163E+01 -0.14853151564E+03  0.17551191650E+03  0.93056853847E+02 0.  0.
        -11    1    3    3    0    0 -0.20358901492E+02  0.24870517285E+02 -0.14245009632E+02  0.35156049257E+02  0.00000000000E+00 0.  1.
         11    1    3    3    0    0  0.28215600768E+02 -0.29509043501E+02 -0.13428650601E+03  0.14035586725E+03  0.00000000000E+00 0. -1.
        -15    1    1    2    0    0 -0.36615831513E+02  0.32567935568E+02  0.14016721539E+03  0.14849712301E+03  0.17770000000E+01 0.  1.
         15    1    1    2    0    0  0.28759132236E+02 -0.27929409351E+02  0.83643002522E+01  0.40990960484E+02  0.17770000000E+01 0. -1.
</event>
<event>
 7    1  0.4166661E-008  0.3650000E+03  0.7546771E-02  0.9765871E-01
        -11   -1    0    0    0    0  0.00000000000E+00  0.00000000000E+00  0.18250000000E+03  0.18250000000E+03  0.00000000000E+00 0. -1.
         11   -1    0    0    0    0 -0.00000000000E+00 -0.00000000000E+00 -0.18250000000E+03  0.18250000000E+03  0.00000000000E+00 0.  1.
         23    2    1    2    0    0  0.49930459254E+02 -0.25702272118E+02  0.11254098123E+03  0.15504404264E+03  0.90661596876E+02 0.  0.
        -11    1    3    3    0    0  0.24748002882E+02 -0.13586191269E+02 -0.95439009026E+01  0.29801581909E+02  0.00000000000E+00 0.  1.
         11    1    3    3    0    0  0.25182456372E+02 -0.12116080849E+02  0.12208488214E+03  0.12524246073E+03  0.00000000000E+00 0. -1.
        -15    1    1    2    0    0  0.40286631807E+02 -0.46561759753E+02 -0.36888834759E+02  0.71798008556E+02  0.17770000000E+01 0. -1.
         15    1    1    2    0    0 -0.90217091061E+02  0.72264031872E+02 -0.75652146476E+02  0.13815794880E+03  0.17770000000E+01 0.  1.
</event>
<event>
 7    1  0.4166661E-008  0.2419419E+03  0.7546771E-02  0.1029038E+00
        -11   -1    0    0    0    0  0.00000000000E+00  0.00000000000E+00  0.18250000000E+03  0.18250000000E+03  0.00000000000E+00 0.  1.
         11   -1    0    0    0    0 -0.00000000000E+00 -0.00000000000E+00 -0.18250000000E+03  0.18250000000E+03  0.00000000000E+00 0. -1.
         23    2    1    2    0    0  0.70936910653E+02  0.14718632774E+02 -0.38257539209E+02  0.12305812163E+03  0.91820360214E+02 0.  0.
        -11    1    3    3    0    0  0.76842035121E+01  0.17180085777E+02 -0.54540903766E+02  0.57696728802E+02  0.00000000000E+00 0. -1.
         11    1    3    3    0    0  0.63252707141E+02 -0.24614530027E+01  0.16283364556E+02  0.65361392831E+02  0.00000000000E+00 0.  1.
        -15    1    1    2    0    0 -0.48189304108E+02  0.90114834311E+02  0.76902464722E+02  0.12790636889E+03  0.17770000000E+01 0.  1.
         15    1    1    2    0    0 -0.22747606545E+02 -0.10483346709E+03 -0.38644925513E+02  0.11403550948E+03  0.17770000000E+01 0. -1.
</event>
<event>
 7    1  0.4166661E-008  0.3650000E+03  0.7546771E-02  0.9765871E-01
        -11   -1    0    0    0    0  0.00000000000E+00  0.00000000000E+00  0.18250000000E+03  0.18250000000E+03  0.00000000000E+00 0.  1.
         11   -1    0    0    0    0 -0.00000000000E+00 -0.00000000000E+00 -0.18250000000E+03  0.18250000000E+03  0.00000000000E+00 0. -1.
         23    2    1    2    0    0 -0.90866356206E+02  0.77789835546E+01  0.50901239838E+02  0.13750872991E+03  0.89445554998E+02 0.  0.
        -11    1    3    3    0    0 -0.93109430799E+02 -0.23359773148E+00  0.70124013436E+02  0.11656242075E+03  0.00000000000E+00 0.  1.
         11    1    3    3    0    0  0.22430745925E+01  0.80125812861E+01 -0.19222773597E+02  0.20946309156E+02  0.00000000000E+00 0. -1.
        -15    1    1    2    0    0  0.14880270864E+02 -0.16667569744E+02  0.76036356697E+02  0.79271152450E+02  0.17770000000E+01 0.  1.
         15    1    1    2    0    0  0.75986085342E+02  0.88885861890E+01 -0.12693759653E+03  0.14822011764E+03  0.17770000000E+01 0. -1.
</event>
<event>
 7    1  0.4166661E-008  0.2296227E+03  0.7546771E-02  0.1036118E+00
        -11   -1    0    0    0    0  0.00000000000E+00  0.00000000000E+00  0.18250000000E+03  0.18250000000E+03  0.00000000000E+00 0. -1.
         11   -1    0    0    0    0 -0.00000000000E+00 -0.00000000000E+00 -0.18250000000E+03  0.18250000000E+03  0.00000000000E+00 0.  1.
         23    2    1    2    0    0 -0.27254209214E+02  0.37885451942E+02  0.92343503338E+02  0.13537728356E+03  0.87301700473E+02 0.  0.
        -11    1    3    3    0    0  0.24342491569E+02  0.21069355988E+02  0.50466210384E+01  0.32587467552E+02  0.00000000000E+00 0.  1.
         11    1    3    3    0    0 -0.51596700783E+02  0.16816095954E+02  0.87296882299E+02  0.10278981600E+03  0.00000000000E+00 0. -1.
        -15    1    1    2    0    0  0.91553425567E+02  0.39473746540E+02 -0.80821769357E+02  0.12835701200E+03  0.17770000000E+01 0.  1.
         15    1    1    2    0    0 -0.64299216353E+02 -0.77359198482E+02 -0.11521733981E+02  0.10126570444E+03  0.17770000000E+01 0. -1.
</event>
<event>
 7    1  0.4166661E-008  0.3650000E+03  0.7546771E-02  0.9765871E-01
        -11   -1    0    0    0    0  0.00000000000E+00  0.00000000000E+00  0.18250000000E+03  0.18250000000E+03  0.00000000000E+00 0.  1.
         11   -1    0    0    0    0 -0.00000000000E+00 -0.00000000000E+00 -0.18250000000E+03  0.18250000000E+03  0.00000000000E+00 0. -1.
         23    2    1    2    0    0 -0.43638234501E+02  0.56715268779E+01  0.92587716610E+02  0.13771238464E+03  0.91955173254E+02 0.  0.
        -11    1    3    3    0    0  0.21751320023E+02  0.14942846717E+02  0.56717843086E+02  0.62556552935E+02  0.00000000000E+00 0.  1.
         11    1    3    3    0    0 -0.65389554524E+02 -0.92713198390E+01  0.35869873524E+02  0.75155831703E+02  0.00000000000E+00 0. -1.
        -15    1    1    2    0    0  0.11414858533E+03 -0.49609618864E+02 -0.55451035926E+02  0.13626807745E+03  0.17770000000E+01 0.  1.
         15    1    1    2    0    0 -0.70510350828E+02  0.43938091986E+02 -0.37136680684E+02  0.91019537916E+02  0.17770000000E+01 0. -1.
</event>
<event>
 7    1  0.4166661E-008  0.1839392E+03  0.7546771E-02  0.1067315E+00
        -11   -1    0    0    0    0  0.00000000000E+00  0.00000000000E+00  0.18250000000E+03  0.18250000000E+03  0.00000000000E+00 0.  1.
         11   -1    0    0    0    0 -0.00000000000E+00 -0.00000000000E+00 -0.18250000000E+03  0.18250000000E+03  0.00000000000E+00 0. -1.
         23    2    1    2    0    0  0.14784221076E+03  0.47875150376E+02  0.20945011616E+02  0.18393922022E+03  0.96154011442E+02 0.  0.
        -11    1    3    3    0    0  0.39245387326E+02  0.14661990972E+02  0.51451508690E+02  0.66350826311E+02  0.00000000000E+00 0.  1.
         11    1    3    3    0    0  0.10859682344E+03  0.33213159404E+02 -0.30506497074E+02  0.11758839391E+03  0.00000000000E+00 0. -1.
        -15    1    1    2    0    0 -0.10420990066E+03 -0.70642611692E+02 -0.33397203222E+02  0.13026362844E+03  0.17770000000E+01 0. -1.
         15    1    1    2    0    0 -0.43632310099E+02  0.22767461316E+02  0.12452191606E+02  0.50797151339E+02  0.17770000000E+01 0.  1.
</event>
<event>
 7    1  0.4303043E-008  0.3650000E+03  0.7546771E-02  0.9765871E-01
        -11   -1    0    0    0    0  0.00000000000E+00  0.00000000000E+00  0.18250000000E+03  0.18250000000E+03  0.00000000000E+00 0.  1.
         11   -1    0    0    0    0 -0.00000000000E+00 -0.00000000000E+00 -0.18250000000E+03  0.18250000000E+03  0.00000000000E+00 0. -1.
         23    2    1    2    0    0 -0.42489319113E+02  0.75357926643E+01 -0.46611348005E+02  0.11119309150E+03  0.91264206701E+02 0.  0.
        -11    1    3    3    0    0 -0.12496701822E+02  0.46899564155E+02 -0.36384430412E+02  0.60659405295E+02  0.00000000000E+00 0.  1.
         11    1    3    3    0    0 -0.29992617291E+02 -0.39363771491E+02 -0.10226917593E+02  0.50533686205E+02  0.00000000000E+00 0. -1.
        -15    1    1    2    0    0  0.13568718520E+03  0.20108379636E+02  0.69705049991E+02  0.15387433471E+03  0.17770000000E+01 0.  1.
         15    1    1    2    0    0 -0.93197866083E+02 -0.27644172300E+02 -0.23093701986E+02  0.99932573794E+02  0.17770000000E+01 0. -1.
</event>
<event>
 7    1  0.4166661E-008  0.1919519E+03  0.7546771E-02  0.1061171E+00
        -11   -1    0    0    0    0  0.00000000000E+00  0.00000000000E+00  0.18250000000E+03  0.18250000000E+03  0.00000000000E+00 0.  1.
         11   -1    0    0    0    0 -0.00000000000E+00 -0.00000000000E+00 -0.18250000000E+03  0.18250000000E+03  0.00000000000E+00 0. -1.
         23    2    1    2    0    0  0.73104410334E+01 -0.48392742569E+02  0.13889110339E+03  0.17304813249E+03  0.90882437650E+02 0.  0.
        -11    1    3    3    0    0 -0.23784495917E+01 -0.72014420366E+02  0.12421118019E+03  0.14359718329E+03  0.00000000000E+00 0.  1.
         11    1    3    3    0    0  0.96888906250E+01  0.23621677797E+02  0.14679923204E+02  0.29450949200E+02  0.00000000000E+00 0. -1.
        -15    1    1    2    0    0 -0.22602869190E+02  0.26813844546E+02  0.13240701817E+02  0.37527934510E+02  0.17770000000E+01 0.  1.
         15    1    1    2    0    0  0.15292428156E+02  0.21578898023E+02 -0.15213180521E+03  0.15442393300E+03  0.17770000000E+01 0. -1.
</event>
<event>
 7    1  0.4166661E-008  0.3650000E+03  0.7546771E-02  0.9765871E-01
        -11   -1    0    0    0    0  0.00000000000E+00  0.00000000000E+00  0.18250000000E+03  0.18250000000E+03  0.00000000000E+00 0. -1.
         11   -1    0    0    0    0 -0.00000000000E+00 -0.00000000000E+00 -0.18250000000E+03  0.18250000000E+03  0.00000000000E+00 0.  1.
         23    2    1    2    0    0 -0.38326181711E+02  0.34526167814E+02 -0.11805200416E+03  0.15770444886E+03  0.90958589668E+02 0.  0.
        -11    1    3    3    0    0 -0.64412406492E+02  0.29215361249E+02 -0.56102818212E+02  0.90277470359E+02  0.00000000000E+00 0.  1.
         11    1    3    3    0    0  0.26086224781E+02  0.53108065652E+01 -0.61949185949E+02  0.67426978498E+02  0.00000000000E+00 0. -1.
        -15    1    1    2    0    0 -0.60381954290E+02 -0.17606759979E+02  0.17368480281E+02  0.65274805531E+02  0.17770000000E+01 0. -1.
         15    1    1    2    0    0  0.98708136001E+02 -0.16919407835E+02  0.10068352388E+03  0.14202074561E+03  0.17770000000E+01 0.  1.
</event>
<event>
 7    1  0.4166661E-008  0.3650000E+03  0.7546771E-02  0.9765871E-01
        -11   -1    0    0    0    0  0.00000000000E+00  0.00000000000E+00  0.18250000000E+03  0.18250000000E+03  0.00000000000E+00 0. -1.
         11   -1    0    0    0    0 -0.00000000000E+00 -0.00000000000E+00 -0.18250000000E+03  0.18250000000E+03  0.00000000000E+00 0.  1.
         23    2    1    2    0    0 -0.56714304631E+02 -0.22748168251E+02  0.50709057925E+02  0.12087684589E+03  0.91136226650E+02 0.  0.
        -11    1    3    3    0    0 -0.11726715787E+02  0.34499616570E+02  0.11666904741E+02  0.38260372096E+02  0.00000000000E+00 0. -1.
         11    1    3    3    0    0 -0.44987588843E+02 -0.57247784821E+02  0.39042153184E+02  0.82616473793E+02  0.00000000000E+00 0.  1.
        -15    1    1    2    0    0  0.14535313054E+03  0.32722187830E+02 -0.39925961357E+02  0.15425794713E+03  0.17770000000E+01 0.  1.
         15    1    1    2    0    0 -0.88638825908E+02 -0.99740195799E+01 -0.10783096568E+02  0.89865206980E+02  0.17770000000E+01 0. -1.
</event>
<event>
 7    1  0.4166661E-008  0.2430311E+03  0.7546771E-02  0.1028434E+00
        -11   -1    0    0    0    0  0.00000000000E+00  0.00000000000E+00  0.18250000000E+03  0.18250000000E+03  0.00000000000E+00 0. -1.
         11   -1    0    0    0    0 -0.00000000000E+00 -0.00000000000E+00 -0.18250000000E+03  0.18250000000E+03  0.00000000000E+00 0.  1.
         23    2    1    2    0    0  0.32399608715E+02  0.43263075445E+02  0.60477355181E+02  0.12196887331E+03  0.91090434317E+02 0.  0.
        -11    1    3    3    0    0  0.32023850876E+01 -0.40428256367E+01 -0.21949887097E+02  0.22547666241E+02  0.00000000000E+00 0. -1.
         11    1    3    3    0    0  0.29197223627E+02  0.47305901081E+02  0.82427242278E+02  0.99421207065E+02  0.00000000000E+00 0.  1.
        -15    1    1    2    0    0 -0.20057210127E+02 -0.13789567460E+03 -0.27508387557E+02  0.14204709736E+03  0.17770000000E+01 0. -1.
         15    1    1    2    0    0 -0.12342398588E+02  0.94632599158E+02 -0.32968967625E+02  0.10098402934E+03  0.17770000000E+01 0.  1.
</event>
<event>
 7    1  0.4166661E-008  0.3650000E+03  0.7546771E-02  0.9765871E-01
        -11   -1    0    0    0    0  0.00000000000E+00  0.00000000000E+00  0.18250000000E+03  0.18250000000E+03  0.00000000000E+00 0.  1.
         11   -1    0    0    0    0 -0.00000000000E+00 -0.00000000000E+00 -0.18250000000E+03  0.18250000000E+03  0.00000000000E+00 0. -1.
         23    2    1    2    0    0  0.41654958838E+02 -0.74202928836E+01 -0.60620086840E+02  0.11732204907E+03  0.91101437575E+02 0.  0.
        -11    1    3    3    0    0 -0.28854106871E+02  0.28466924090E+00 -0.23808386347E+02  0.37409621495E+02  0.00000000000E+00 0.  1.
         11    1    3    3    0    0  0.70509065709E+02 -0.77049621245E+01 -0.36811700492E+02  0.79912427579E+02  0.00000000000E+00 0. -1.
        -15    1    1    2    0    0 -0.12938012912E+03 -0.34638119513E+02  0.67763674915E+02  0.15011359199E+03  0.17770000000E+01 0.  1.
         15    1    1    2    0    0  0.87725170282E+02  0.42058412397E+02 -0.71435880750E+01  0.97564358932E+02  0.17770000000E+01 0. -1.
</event>
<event>
 7    1  0.4166661E-008  0.3650000E+03  0.7546771E-02  0.9765871E-01
        -11   -1    0    0    0    0  0.00000000000E+00  0.00000000000E+00  0.18250000000E+03  0.18250000000E+03  0.00000000000E+00 0.  1.
         11   -1    0    0    0    0 -0.00000000000E+00 -0.00000000000E+00 -0.18250000000E+03  0.18250000000E+03  0.00000000000E+00 0. -1.
         23    2    1    2    0    0  0.83929467488E+01 -0.13510232510E+02 -0.45464182420E+02  0.10221140086E+03  0.90151043510E+02 0.  0.
        -11    1    3    3    0    0  0.35066360875E+02 -0.63352012762E+01 -0.60907578635E+02  0.70565696875E+02  0.00000000000E+00 0. -1.
         11    1    3    3    0    0 -0.26673414126E+02 -0.71750312339E+01  0.15443396215E+02  0.31645703990E+02  0.00000000000E+00 0.  1.
        -15    1    1    2    0    0  0.65198389864E+02  0.61995512639E+02  0.11816665060E+03  0.14852874695E+03  0.17770000000E+01 0.  1.
         15    1    1    2    0    0 -0.73591336612E+02 -0.48485280129E+02 -0.72702468177E+02  0.11425985219E+03  0.17770000000E+01 0. -1.
</event>
<event>
 7    1  0.4166661E-008  0.2493261E+03  0.7546771E-02  0.1025009E+00
        -11   -1    0    0    0    0  0.00000000000E+00  0.00000000000E+00  0.18250000000E+03  0.18250000000E+03  0.00000000000E+00 0. -1.
         11   -1    0    0    0    0 -0.00000000000E+00 -0.00000000000E+00 -0.18250000000E+03  0.18250000000E+03  0.00000000000E+00 0.  1.
         23    2    1    2    0    0  0.59841333224E+02 -0.22768154236E+02 -0.27770225745E+02  0.11567385678E+03  0.92249020023E+02 0.  0.
        -11    1    3    3    0    0  0.78658356301E+02 -0.57383826537E+01 -0.38926787003E+02  0.87950899927E+02  0.00000000000E+00 0. -1.
         11    1    3    3    0    0 -0.18817023077E+02 -0.17029771583E+02  0.11156561259E+02  0.27722956854E+02  0.00000000000E+00 0.  1.
        -15    1    1    2    0    0  0.61014559277E+02 -0.18097904090E+02  0.87690818415E+02  0.10836580614E+03  0.17770000000E+01 0. -1.
         15    1    1    2    0    0 -0.12085589250E+03  0.40866058327E+02 -0.59920592670E+02  0.14096033708E+03  0.17770000000E+01 0.  1.
</event>
<event>
 7    1  0.4166661E-008  0.3650000E+03  0.7546771E-02  0.9765871E-01
        -11   -1    0    0    0    0  0.00000000000E+00  0.00000000000E+00  0.18250000000E+03  0.18250000000E+03  0.00000000000E+00 0.  1.
         11   -1    0    0    0    0 -0.00000000000E+00 -0.00000000000E+00 -0.18250000000E+03  0.18250000000E+03  0.00000000000E+00 0. -1.
         23    2    1    2    0    0 -0.55474851762E+02  0.25187134092E+02  0.84971283383E+02  0.13724174717E+03  0.88900659534E+02 0.  0.
        -11    1    3    3    0    0 -0.78822371591E+02  0.26847450179E+02  0.73968615331E+02  0.11137822004E+03  0.00000000000E+00 0. -1.
         11    1    3    3    0    0  0.23347519829E+02 -0.16603160875E+01  0.11002668051E+02  0.25863527137E+02  0.00000000000E+00 0.  1.
        -15    1    1    2    0    0 -0.65511182186E+02  0.10079417357E+02  0.13684980112E+02  0.67703368124E+02  0.17770000000E+01 0.  1.
         15    1    1    2    0    0  0.12098603395E+03 -0.35266551448E+02 -0.98656263495E+02  0.16005488470E+03  0.17770000000E+01 0. -1.
</event>
<event>
 7    1  0.4166661E-008  0.3650000E+03  0.7546771E-02  0.9765871E-01
        -11   -1    0    0    0    0  0.00000000000E+00  0.00000000000E+00  0.18250000000E+03  0.18250000000E+03  0.00000000000E+00 0.  1.
         11   -1    0    0    0    0 -0.00000000000E+00 -0.00000000000E+00 -0.18250000000E+03  0.18250000000E+03  0.00000000000E+00 0. -1.
         23    2    1    2    0    0 -0.19539667676E+02 -0.18171702198E+02 -0.10209573920E+03  0.13911737312E+03  0.90653704651E+02 0.  0.
        -11    1    3    3    0    0 -0.50517003892E+02  0.12450713743E+00 -0.30552698581E+02  0.59037704688E+02  0.00000000000E+00 0.  1.
         11    1    3    3    0    0  0.30977336216E+02 -0.18296209335E+02 -0.71543040617E+02  0.80079668430E+02  0.00000000000E+00 0. -1.
        -15    1    1    2    0    0  0.74245019742E+02  0.85378518139E+02  0.72038858239E+02  0.13414383751E+03  0.17770000000E+01 0.  1.
         15    1    1    2    0    0 -0.54705352066E+02 -0.67206815942E+02  0.30056880960E+02  0.91738789374E+02  0.17770000000E+01 0. -1.
</event>
<event>
 7    1  0.4166661E-008  0.2529489E+03  0.7546771E-02  0.1023087E+00
        -11   -1    0    0    0    0  0.00000000000E+00  0.00000000000E+00  0.18250000000E+03  0.18250000000E+03  0.00000000000E+00 0.  1.
         11   -1    0    0    0    0 -0.00000000000E+00 -0.00000000000E+00 -0.18250000000E+03  0.18250000000E+03  0.00000000000E+00 0. -1.
         23    2    1    2    0    0  0.21533543952E+02 -0.15225665408E+02 -0.61596178788E+02  0.11205112452E+03  0.89810082185E+02 0.  0.
        -11    1    3    3    0    0 -0.29501151592E+02  0.10184510236E+02 -0.47986014522E+01  0.31576395771E+02  0.00000000000E+00 0.  1.
         11    1    3    3    0    0  0.51034695544E+02 -0.25410175644E+02 -0.56797577336E+02  0.80474728746E+02  0.00000000000E+00 0. -1.
        -15    1    1    2    0    0  0.84671370486E+02  0.73991352565E+02  0.67944410565E+02  0.13139087446E+03  0.17770000000E+01 0.  1.
         15    1    1    2    0    0 -0.10620491444E+03 -0.58765687157E+02 -0.63482317772E+01  0.12155800103E+03  0.17770000000E+01 0. -1.
</event>
<event>
 7    1  0.4166661E-008  0.2699148E+03  0.7546771E-02  0.1014529E+00
        -11   -1    0    0    0    0  0.00000000000E+00  0.00000000000E+00  0.18250000000E+03  0.18250000000E+03  0.00000000000E+00 0.  1.
         11   -1    0    0    0    0 -0.00000000000E+00 -0.00000000000E+00 -0.18250000000E+03  0.18250000000E+03  0.00000000000E+00 0. -1.
         23    2    1    2    0    0  0.55289415610E+01  0.22391502707E+02  0.15048407121E+02  0.95085220213E+02  0.91009867365E+02 0.  0.
        -11    1    3    3    0    0 -0.11238552481E+02  0.22379982295E+01 -0.35955788029E+02  0.37737678661E+02  0.00000000000E+00 0. -1.
         11    1    3    3    0    0  0.16767494042E+02  0.20153504478E+02  0.51004195150E+02  0.57347541552E+02  0.00000000000E+00 0.  1.
        -15    1    1    2    0    0  0.26234120674E+02  0.99544936959E+02 -0.77884963549E+02  0.12909937582E+03  0.17770000000E+01 0.  1.
         15    1    1    2    0    0 -0.31763062235E+02 -0.12193643967E+03  0.62836556428E+02  0.14081540396E+03  0.17770000000E+01 0. -1.
</event>
<event>
 7    1  0.4166661E-008  0.3650000E+03  0.7546771E-02  0.9765871E-01
        -11   -1    0    0    0    0  0.00000000000E+00  0.00000000000E+00  0.18250000000E+03  0.18250000000E+03  0.00000000000E+00 0.  1.
         11   -1    0    0    0    0 -0.00000000000E+00 -0.00000000000E+00 -0.18250000000E+03  0.18250000000E+03  0.00000000000E+00 0. -1.
         23    2    1    2    0    0 -0.99372226664E+02  0.63218256501E+02 -0.15936326923E+01  0.14966550224E+03  0.92335450983E+02 0.  0.
        -11    1    3    3    0    0 -0.95356999443E+02  0.98336553749E+01  0.31986111021E+01  0.95916053055E+02  0.00000000000E+00 0. -1.
         11    1    3    3    0    0 -0.40152272214E+01  0.53384601126E+02 -0.47922437944E+01  0.53749449184E+02  0.00000000000E+00 0.  1.
        -15    1    1    2    0    0  0.10948393064E+03 -0.10543255265E+03  0.40181094649E+02  0.15722732690E+03  0.17770000000E+01 0.  1.
         15    1    1    2    0    0 -0.10111703973E+02  0.42214296151E+02 -0.38587461957E+02  0.58107170866E+02  0.17770000000E+01 0. -1.
</event>
<event>
 7    1  0.4166661E-008  0.1863514E+03  0.7546771E-02  0.1065430E+00
        -11   -1    0    0    0    0  0.00000000000E+00  0.00000000000E+00  0.18250000000E+03  0.18250000000E+03  0.00000000000E+00 0. -1.
         11   -1    0    0    0    0 -0.00000000000E+00 -0.00000000000E+00 -0.18250000000E+03  0.18250000000E+03  0.00000000000E+00 0.  1.
         23    2    1    2    0    0  0.23362230543E+02 -0.22222768430E+02  0.14963452471E+03  0.17864860681E+03  0.92115082796E+02 0.  0.
        -11    1    3    3    0    0  0.36823650323E+01  0.36342641700E+01 -0.12374744912E+02  0.13412755120E+02  0.00000000000E+00 0.  1.
         11    1    3    3    0    0  0.19679865511E+02 -0.25857032600E+02  0.16200926962E+03  0.16523585169E+03  0.00000000000E+00 0. -1.
        -15    1    1    2    0    0  0.16479429617E+02  0.22309803700E+00  0.10662205989E+02  0.19709432737E+02  0.17770000000E+01 0. -1.
         15    1    1    2    0    0 -0.39841660160E+02  0.21999670393E+02 -0.16029673070E+03  0.16664196045E+03  0.17770000000E+01 0.  1.
</event>
<event>
 7    1  0.4166661E-008  0.2461736E+03  0.7546771E-02  0.1026710E+00
        -11   -1    0    0    0    0  0.00000000000E+00  0.00000000000E+00  0.18250000000E+03  0.18250000000E+03  0.00000000000E+00 0.  1.
         11   -1    0    0    0    0 -0.00000000000E+00 -0.00000000000E+00 -0.18250000000E+03  0.18250000000E+03  0.00000000000E+00 0. -1.
         23    2    1    2    0    0 -0.43348105305E+01  0.20468135957E+01 -0.84290966361E+02  0.11882641180E+03  0.83616799162E+02 0.  0.
        -11    1    3    3    0    0  0.20733020679E+02  0.35731081942E+02 -0.35621481145E+02  0.54547761478E+02  0.00000000000E+00 0. -1.
         11    1    3    3    0    0 -0.25067831210E+02 -0.33684268346E+02 -0.48669485216E+02  0.64278650319E+02  0.00000000000E+00 0.  1.
        -15    1    1    2    0    0  0.10373955341E+03 -0.49746770532E+02  0.70746742944E+02  0.13507366689E+03  0.17770000000E+01 0.  1.
         15    1    1    2    0    0 -0.99404742882E+02  0.47699956936E+02  0.13544223417E+02  0.11109992131E+03  0.17770000000E+01 0. -1.
</event>
<event>
 7    1  0.4166661E-008  0.2320903E+03  0.7546771E-02  0.1034662E+00
        -11   -1    0    0    0    0  0.00000000000E+00  0.00000000000E+00  0.18250000000E+03  0.18250000000E+03  0.00000000000E+00 0.  1.
         11   -1    0    0    0    0 -0.00000000000E+00 -0.00000000000E+00 -0.18250000000E+03  0.18250000000E+03  0.00000000000E+00 0. -1.
         23    2    1    2    0    0 -0.70156421867E+02 -0.36710961209E+02 -0.55714305052E+02  0.13290967709E+03  0.91056467511E+02 0.  0.
        -11    1    3    3    0    0 -0.40446528365E+02 -0.64383083927E+02 -0.52052131076E+02  0.92144058421E+02  0.00000000000E+00 0. -1.
         11    1    3    3    0    0 -0.29709893502E+02  0.27672122717E+02 -0.36621739759E+01  0.40765618673E+02  0.00000000000E+00 0.  1.
        -15    1    1    2    0    0  0.75563581943E+02  0.46630343657E+02 -0.65490761989E+02  0.11034691432E+03  0.17770000000E+01 0. -1.
         15    1    1    2    0    0 -0.54071600763E+01 -0.99193824474E+01  0.12120506704E+03  0.12174340858E+03  0.17770000000E+01 0.  1.
</event>
<event>
 7    1  0.4166661E-008  0.3650000E+03  0.7546771E-02  0.9765871E-01
        -11   -1    0    0    0    0  0.00000000000E+00  0.00000000000E+00  0.18250000000E+03  0.18250000000E+03  0.00000000000E+00 0. -1.
         11   -1    0    0    0    0 -0.00000000000E+00 -0.00000000000E+00 -0.18250000000E+03  0.18250000000E+03  0.00000000000E+00 0.  1.
         23    2    1    2    0    0 -0.54665450409E+02  0.33431219704E+02  0.85007977945E+02  0.14100603154E+03  0.92468301045E+02 0.  0.
        -11    1    3    3    0    0  0.15047120009E+02 -0.35937196810E+01 -0.92789932471E+01  0.18039688395E+02  0.00000000000E+00 0. -1.
         11    1    3    3    0    0 -0.69712570418E+02  0.37024939385E+02  0.94286971192E+02  0.12296634315E+03  0.00000000000E+00 0.  1.
        -15    1    1    2    0    0  0.16296501482E+01 -0.69446181378E+02  0.42366625273E+02  0.81384989609E+02  0.17770000000E+01 0. -1.
         15    1    1    2    0    0  0.53035800261E+02  0.36014961675E+02 -0.12737460322E+03  0.14260897885E+03  0.17770000000E+01 0.  1.
</event>
<event>
 7    1  0.4166661E-008  0.1889014E+03  0.7546771E-02  0.1063470E+00
        -11   -1    0    0    0    0  0.00000000000E+00  0.00000000000E+00  0.18250000000E+03  0.18250000000E+03  0.00000000000E+00 0. -1.
         11   -1    0    0    0    0 -0.00000000000E+00 -0.00000000000E+00 -0.18250000000E+03  0.18250000000E+03  0.00000000000E+00 0.  1.
         23    2    1    2    0    0 -0.34523385177E+02 -0.53061076541E+02  0.13755237264E+03  0.17609860178E+03  0.89903950750E+02 0.  0.
        -11    1    3    3    0    0 -0.13622796854E+02  0.24445609087E+02  0.23027723845E+02  0.36241474352E+02  0.00000000000E+00 0.  1.
         11    1    3    3    0    0 -0.20900588323E+02 -0.77506685628E+02  0.11452464880E+03  0.13985712743E+03  0.00000000000E+00 0. -1.
        -15    1    1    2    0    0 -0.23758704356E+02 -0.22952409243E+02 -0.43476420471E+02  0.54631913647E+02  0.17770000000E+01 0. -1.
         15    1    1    2    0    0  0.58282089533E+02  0.76013485784E+02 -0.94075952173E+02  0.13426948457E+03  0.17770000000E+01 0.  1.
</event>
<event>
 7    1  0.4166661E-008  0.3650000E+03  0.7546771E-02  0.9765871E-01
        -11   -1    0    0    0    0  0.00000000000E+00  0.00000000000E+00  0.18250000000E+03  0.18250000000E+03  0.00000000000E+00 0. -1.
         11   -1    0    0    0    0 -0.00000000000E+00 -0.00000000000E+00 -0.18250000000E+03  0.18250000000E+03  0.00000000000E+00 0.  1.
         23    2    1    2    0    0  0.20953433445E+02  0.34981618089E+02 -0.21348369899E+02  0.10290274254E+03  0.92035110408E+02 0.  0.
        -11    1    3    3    0    0 -0.32005029147E+02  0.13256039136E+02  0.11992976012E+02  0.36658913485E+02  0.00000000000E+00 0.  1.
         11    1    3    3    0    0  0.52958462591E+02  0.21725578953E+02 -0.33341345911E+02  0.66243829056E+02  0.00000000000E+00 0. -1.
        -15    1    1    2    0    0 -0.92937492140E+01  0.88822699396E+02 -0.65192486160E+02  0.11058509702E+03  0.17770000000E+01 0.  1.
         15    1    1    2    0    0 -0.11659684231E+02 -0.12380431748E+03  0.86540856059E+02  0.15151216044E+03  0.17770000000E+01 0. -1.
</event>
<event>
 7    1  0.4166661E-008  0.3650000E+03  0.7546771E-02  0.9765871E-01
        -11   -1    0    0    0    0  0.00000000000E+00  0.00000000000E+00  0.18250000000E+03  0.18250000000E+03  0.00000000000E+00 0.  1.
         11   -1    0    0    0    0 -0.00000000000E+00 -0.00000000000E+00 -0.18250000000E+03  0.18250000000E+03  0.00000000000E+00 0. -1.
         23    2    1    2    0    0 -0.21785344982E+02 -0.18514889579E+02 -0.73626525004E+01  0.94763753162E+02  0.90047531168E+02 0.  0.
        -11    1    3    3    0    0 -0.52089813307E+02 -0.53407555236E+01 -0.24191496727E+02  0.57681026636E+02  0.00000000000E+00 0. -1.
         11    1    3    3    0    0  0.30304468325E+02 -0.13174134055E+02  0.16828844227E+02  0.37082726526E+02  0.00000000000E+00 0.  1.
        -15    1    1    2    0    0 -0.23996401502E+02 -0.11121837887E+03  0.52659846067E+02  0.12538569376E+03  0.17770000000E+01 0.  1.
         15    1    1    2    0    0  0.45781746485E+02  0.12973326845E+03 -0.45297193567E+02  0.14485055308E+03  0.17770000000E+01 0. -1.
</event>
<event>
 7    1  0.4166661E-008  0.2702974E+03  0.7546771E-02  0.1014344E+00
        -11   -1    0    0    0    0  0.00000000000E+00  0.00000000000E+00  0.18250000000E+03  0.18250000000E+03  0.00000000000E+00 0.  1.
         11   -1    0    0    0    0 -0.00000000000E+00 -0.00000000000E+00 -0.18250000000E+03  0.18250000000E+03  0.00000000000E+00 0. -1.
         23    2    1    2    0    0 -0.89535218148E+01  0.90776662803E+01  0.22727736279E+02  0.94702647450E+02  0.91046536780E+02 0.  0.
        -11    1    3    3    0    0 -0.29305759072E+02 -0.34481909780E+01 -0.26703973313E+02  0.39797232648E+02  0.00000000000E+00 0. -1.
         11    1    3    3    0    0  0.20352237257E+02  0.12525857258E+02  0.49431709591E+02  0.54905414802E+02  0.00000000000E+00 0.  1.
        -15    1    1    2    0    0 -0.12979381046E+03 -0.17390024653E+01 -0.21974134080E+01  0.12983621883E+03  0.17770000000E+01 0. -1.
         15    1    1    2    0    0  0.13874733228E+03 -0.73386638150E+01 -0.20530322871E+02  0.14046113372E+03  0.17770000000E+01 0.  1.
</event>
<event>
 7    1  0.4166661E-008  0.3650000E+03  0.7546771E-02  0.9765871E-01
        -11   -1    0    0    0    0  0.00000000000E+00  0.00000000000E+00  0.18250000000E+03  0.18250000000E+03  0.00000000000E+00 0. -1.
         11   -1    0    0    0    0 -0.00000000000E+00 -0.00000000000E+00 -0.18250000000E+03  0.18250000000E+03  0.00000000000E+00 0.  1.
         23    2    1    2    0    0 -0.76875588832E+02  0.31432111276E+02  0.25154115084E+02  0.12349240333E+03  0.87862451575E+02 0.  0.
        -11    1    3    3    0    0  0.66999787686E+01  0.36552337172E+02  0.84610841817E+01  0.38112373499E+02  0.00000000000E+00 0. -1.
         11    1    3    3    0    0 -0.83575567601E+02 -0.51202258961E+01  0.16693030902E+02  0.85380029830E+02  0.00000000000E+00 0.  1.
        -15    1    1    2    0    0  0.13760280437E+03 -0.79863198485E+01 -0.77337238711E+02  0.15805859450E+03  0.17770000000E+01 0. -1.
         15    1    1    2    0    0 -0.60727215538E+02 -0.23445791427E+02  0.52183123627E+02  0.83449002170E+02  0.17770000000E+01 0.  1.
</event>
<event>
 7    1  0.4166661E-008  0.2173897E+03  0.7546771E-02  0.1043643E+00
        -11   -1    0    0    0    0  0.00000000000E+00  0.00000000000E+00  0.18250000000E+03  0.18250000000E+03  0.00000000000E+00 0. -1.
         11   -1    0    0    0    0 -0.00000000000E+00 -0.00000000000E+00 -0.18250000000E+03  0.18250000000E+03  0.00000000000E+00 0.  1.
         23    2    1    2    0    0 -0.28245621960E+02 -0.10444495064E+03  0.41124605458E+02  0.14761032723E+03  0.91602470810E+02 0.  0.
        -11    1    3    3    0    0  0.16582794847E+02 -0.60029486719E+02 -0.13984759440E+02  0.63828691489E+02  0.00000000000E+00 0.  1.
         11    1    3    3    0    0 -0.44828416807E+02 -0.44415463918E+02  0.55109364898E+02  0.83781635744E+02  0.00000000000E+00 0. -1.
        -15    1    1    2    0    0 -0.55034167084E+02  0.61994869222E+02  0.41407092155E+02  0.92681326955E+02  0.17770000000E+01 0. -1.
         15    1    1    2    0    0  0.83279789044E+02  0.42450081415E+02 -0.82531697612E+02  0.12470834581E+03  0.17770000000E+01 0.  1.
</event>
<event>
 7    1  0.4166661E-008  0.3650000E+03  0.7546771E-02  0.9765871E-01
        -11   -1    0    0    0    0  0.00000000000E+00  0.00000000000E+00  0.18250000000E+03  0.18250000000E+03  0.00000000000E+00 0. -1.
         11   -1    0    0    0    0 -0.00000000000E+00 -0.00000000000E+00 -0.18250000000E+03  0.18250000000E+03  0.00000000000E+00 0.  1.
         23    2    1    2    0    0 -0.32511012245E+02  0.26568382935E+02 -0.10823842503E+03  0.14724791601E+03  0.90573435548E+02 0.  0.
        -11    1    3    3    0    0  0.17074603597E+02  0.27967929567E+02 -0.55895284269E+01  0.33241389867E+02  0.00000000000E+00 0. -1.
         11    1    3    3    0    0 -0.49585615842E+02 -0.13995466315E+01 -0.10264889660E+03  0.11400652614E+03  0.00000000000E+00 0.  1.
        -15    1    1    2    0    0  0.10692870812E+03 -0.37852359375E+02  0.70079628829E+02  0.13334489805E+03  0.17770000000E+01 0. -1.
         15    1    1    2    0    0 -0.74417695870E+02  0.11283976440E+02  0.38158796199E+02  0.84407185946E+02  0.17770000000E+01 0.  1.
</event>
<event>
 7    1  0.4166661E-008  0.2478868E+03  0.7546771E-02  0.1025782E+00
        -11   -1    0    0    0    0  0.00000000000E+00  0.00000000000E+00  0.18250000000E+03  0.18250000000E+03  0.00000000000E+00 0.  1.
         11   -1    0    0    0    0 -0.00000000000E+00 -0.00000000000E+00 -0.18250000000E+03  0.18250000000E+03  0.00000000000E+00 0. -1.
         23    2    1    2    0    0 -0.27248727232E+02 -0.62235184714E+02  0.20956812112E+02  0.11711317744E+03  0.93062328596E+02 0.  0.
        -11    1    3    3    0    0 -0.30776066317E+02  0.67124561146E+01  0.34545699329E+02  0.46750707665E+02  0.00000000000E+00 0.  1.
         11    1    3    3    0    0  0.35273390848E+01 -0.68947640828E+02 -0.13588887217E+02  0.70362469773E+02  0.00000000000E+00 0. -1.
        -15    1    1    2    0    0 -0.93591404240E+02  0.67428289437E+02 -0.46276822072E+02  0.12430055170E+03  0.17770000000E+01 0.  1.
         15    1    1    2    0    0  0.12084013147E+03 -0.51931047232E+01  0.25320009960E+02  0.12358627086E+03  0.17770000000E+01 0. -1.
</event>
<event>
 7    1  0.4166661E-008  0.2587419E+03  0.7546771E-02  0.1020086E+00
        -11   -1    0    0    0    0  0.00000000000E+00  0.00000000000E+00  0.18250000000E+03  0.18250000000E+03  0.00000000000E+00 0. -1.
         11   -1    0    0    0    0 -0.00000000000E+00 -0.00000000000E+00 -0.18250000000E+03  0.18250000000E+03  0.00000000000E+00 0.  1.
         23    2    1    2    0    0 -0.29566317816E+02 -0.50550949258E+01 -0.44526019702E+02  0.10625812018E+03  0.91697876414E+02 0.  0.
        -11    1    3    3    0    0 -0.29432605164E+02 -0.35304755445E+02  0.70144047798E+01  0.46496299618E+02  0.00000000000E+00 0. -1.
         11    1    3    3    0    0 -0.13371265162E+00  0.30249660519E+02 -0.51540424482E+02  0.59761820558E+02  0.00000000000E+00 0.  1.
        -15    1    1    2    0    0 -0.24263294768E+02  0.40382392339E+02  0.13765734509E+03  0.14550652037E+03  0.17770000000E+01 0. -1.
         15    1    1    2    0    0  0.53829612584E+02 -0.35327297413E+02 -0.93131325387E+02  0.11323535945E+03  0.17770000000E+01 0.  1.
</event>
<event>
 7    1  0.4166661E-008  0.2049414E+03  0.7546771E-02  0.1051874E+00
        -11   -1    0    0    0    0  0.00000000000E+00  0.00000000000E+00  0.18250000000E+03  0.18250000000E+03  0.00000000000E+00 0.  1.
         11   -1    0    0    0    0 -0.00000000000E+00 -0.00000000000E+00 -0.18250000000E+03  0.18250000000E+03  0.00000000000E+00 0. -1.
         23    2    1    2    0    0 -0.84766434113E+02  0.12830008535E+02 -0.99442571939E+02  0.16005864631E+03  0.91542272611E+02 0.  0.
        -11    1    3    3    0    0 -0.93516710050E+02 -0.16117770570E+02 -0.79892753845E+02  0.12404841677E+03  0.00000000000E+00 0. -1.
         11    1    3    3    0    0  0.87502759379E+01  0.28947779105E+02 -0.19549818094E+02  0.36010229541E+02  0.00000000000E+00 0.  1.
        -15    1    1    2    0    0  0.10607944112E+03  0.18492957585E+02  0.12045819639E+03  0.16158023430E+03  0.17770000000E+01 0.  1.
         15    1    1    2    0    0 -0.21313007010E+02 -0.31322966120E+02 -0.21015624453E+02  0.43361119387E+02  0.17770000000E+01 0. -1.
</event>
<event>
 7    1  0.4166661E-008  0.1858740E+03  0.7546771E-02  0.1065800E+00
        -11   -1    0    0    0    0  0.00000000000E+00  0.00000000000E+00  0.18250000000E+03  0.18250000000E+03  0.00000000000E+00 0.  1.
         11   -1    0    0    0    0 -0.00000000000E+00 -0.00000000000E+00 -0.18250000000E+03  0.18250000000E+03  0.00000000000E+00 0. -1.
         23    2    1    2    0    0 -0.74440011806E+02 -0.10850844746E+02  0.13446185804E+03  0.17912600347E+03  0.91362342697E+02 0.  0.
        -11    1    3    3    0    0 -0.79942766534E+02  0.21625142592E+02  0.78036994585E+02  0.11379044440E+03  0.00000000000E+00 0.  1.
         11    1    3    3    0    0  0.55027547279E+01 -0.32475987338E+02  0.56424863455E+02  0.65335559071E+02  0.00000000000E+00 0. -1.
        -15    1    1    2    0    0  0.20059597638E+02  0.45055433838E+02 -0.17396455206E+02  0.52327564041E+02  0.17770000000E+01 0.  1.
         15    1    1    2    0    0  0.54380414167E+02 -0.34204589092E+02 -0.11706540283E+03  0.13354643249E+03  0.17770000000E+01 0. -1.
</event>
<event>
 7    1  0.4166661E-008  0.1895612E+03  0.7546771E-02  0.1062969E+00
        -11   -1    0    0    0    0  0.00000000000E+00  0.00000000000E+00  0.18250000000E+03  0.18250000000E+03  0.00000000000E+00 0.  1.
         11   -1    0    0    0    0 -0.00000000000E+00 -0.00000000000E+00 -0.18250000000E+03  0.18250000000E+03  0.00000000000E+00 0. -1.
         23    2    1    2    0    0 -0.68923425365E+01 -0.11497947864E+03  0.97787090978E+02  0.17543883609E+03  0.89155398898E+02 0.  0.
        -11    1    3    3    0    0  0.11412647022E+02 -0.12434560442E+03  0.80423243483E+02  0.14852601099E+03  0.00000000000E+00 0.  1.
         11    1    3    3    0    0 -0.18304989558E+02  0.93661257760E+01  0.17363847495E+02  0.26912825095E+02  0.00000000000E+00 0. -1.
        -15    1    1    2    0    0  0.14584589395E+02 -0.17376836966E+02 -0.37597428955E+02  0.43947572217E+02  0.17770000000E+01 0.  1.
         15    1    1    2    0    0 -0.76922468584E+01  0.13235631561E+03 -0.60189662023E+02  0.14561359169E+03  0.17770000000E+01 0. -1.
</event>
<event>
 7    1  0.4166661E-008  0.2419986E+03  0.7546771E-02  0.1029006E+00
        -11   -1    0    0    0    0  0.00000000000E+00  0.00000000000E+00  0.18250000000E+03  0.18250000000E+03  0.00000000000E+00 0.  1.
         11   -1    0    0    0    0 -0.00000000000E+00 -0.00000000000E+00 -0.18250000000E+03  0.18250000000E+03  0.00000000000E+00 0. -1.
         23    2    1    2    0    0 -0.43801827736E+00  0.30821064062E+02  0.76673234465E+02  0.12300140279E+03  0.91106697647E+02 0.  0.
        -11    1    3    3    0    0 -0.20855017076E+02  0.64762157890E+01 -0.14658323977E+02  0.26300942378E+02  0.00000000000E+00 0. -1.
         11    1    3    3    0    0  0.20416998798E+02  0.24344848273E+02  0.91331558442E+02  0.96700460417E+02  0.00000000000E+00 0.  1.
        -15    1    1    2    0    0 -0.96710429634E+02  0.40196901399E+02 -0.12170179237E+02  0.10545126397E+03  0.17770000000E+01 0.  1.
         15    1    1    2    0    0  0.97148447911E+02 -0.71017965461E+02 -0.64503055229E+02  0.13654733323E+03  0.17770000000E+01 0. -1.
</event>
<event>
 7    1  0.4166661E-008  0.3650000E+03  0.7546771E-02  0.9765871E-01
        -11   -1    0    0    0    0  0.00000000000E+00  0.00000000000E+00  0.18250000000E+03  0.18250000000E+03  0.00000000000E+00 0.  1.
         11   -1    0    0    0    0 -0.00000000000E+00 -0.00000000000E+00 -0.18250000000E+03  0.18250000000E+03  0.00000000000E+00 0. -1.
         23    2    1    2    0    0 -0.25263235381E+02 -0.13498752367E+02 -0.11113869243E+02  0.95786027356E+02  0.90724845382E+02 0.  0.
        -11    1    3    3    0    0  0.33702445235E+02 -0.28667994043E+01 -0.11922921805E+02  0.35864040737E+02  0.00000000000E+00 0.  1.
         11    1    3    3    0    0 -0.58965680616E+02 -0.10631952963E+02  0.80905256221E+00  0.59921986619E+02  0.00000000000E+00 0. -1.
        -15    1    1    2    0    0  0.99038888455E+02  0.10513456216E+03  0.36195258589E+02  0.14891350530E+03  0.17770000000E+01 0.  1.
         15    1    1    2    0    0 -0.73775653074E+02 -0.91635809793E+02 -0.25081389346E+02  0.12030046735E+03  0.17770000000E+01 0. -1.
</event>
<event>
 7    1  0.4166661E-008  0.1903267E+03  0.7546771E-02  0.1062390E+00
        -11   -1    0    0    0    0  0.00000000000E+00  0.00000000000E+00  0.18250000000E+03  0.18250000000E+03  0.00000000000E+00 0.  1.
         11   -1    0    0    0    0 -0.00000000000E+00 -0.00000000000E+00 -0.18250000000E+03  0.18250000000E+03  0.00000000000E+00 0. -1.
         23    2    1    2    0    0  0.10154384337E+03  0.12917042290E+02  0.11238951117E+03  0.17467330251E+03  0.86031147157E+02 0.  0.
        -11    1    3    3    0    0  0.74998443271E+02  0.27635429109E+02  0.27509691765E+02  0.84529678671E+02  0.00000000000E+00 0. -1.
         11    1    3    3    0    0  0.26545400098E+02 -0.14718386819E+02  0.84879819401E+02  0.90143623837E+02  0.00000000000E+00 0.  1.
        -15    1    1    2    0    0  0.16125140224E+02 -0.20295202125E+02  0.19815696085E+01  0.26057623139E+02  0.17770000000E+01 0.  1.
         15    1    1    2    0    0 -0.11766898359E+03  0.73781598349E+01 -0.11437108077E+03  0.16426907435E+03  0.17770000000E+01 0. -1.
</event>
<event>
 7    1  0.4166661E-008  0.2080262E+03  0.7546771E-02  0.1049776E+00
        -11   -1    0    0    0    0  0.00000000000E+00  0.00000000000E+00  0.18250000000E+03  0.18250000000E+03  0.00000000000E+00 0.  1.
         11   -1    0    0    0    0 -0.00000000000E+00 -0.00000000000E+00 -0.18250000000E+03  0.18250000000E+03  0.00000000000E+00 0. -1.
         23    2    1    2    0    0  0.38621650206E+02  0.33436347594E+02  0.11463242041E+03  0.15697379790E+03  0.94289767282E+02 0.  0.
        -11    1    3    3    0    0  0.48544631574E+02  0.39807710780E+02  0.26644954553E+02  0.68199623865E+02  0.00000000000E+00 0. -1.
         11    1    3    3    0    0 -0.99229813683E+01 -0.63713631868E+01  0.87987465859E+02  0.88774174039E+02  0.00000000000E+00 0.  1.
        -15    1    1    2    0    0  0.41988442902E+02 -0.61444081031E+02 -0.94553247348E+02  0.12034067785E+03  0.17770000000E+01 0. -1.
         15    1    1    2    0    0 -0.80610093108E+02  0.28007733438E+02 -0.20079173063E+02  0.87685524250E+02  0.17770000000E+01 0.  1.
</event>
<event>
 7    1  0.4166661E-008  0.2273039E+03  0.7546771E-02  0.1037505E+00
        -11   -1    0    0    0    0  0.00000000000E+00  0.00000000000E+00  0.18250000000E+03  0.18250000000E+03  0.00000000000E+00 0.  1.
         11   -1    0    0    0    0 -0.00000000000E+00 -0.00000000000E+00 -0.18250000000E+03  0.18250000000E+03  0.00000000000E+00 0. -1.
         23    2    1    2    0    0  0.41905837571E+02  0.92019818746E+01 -0.93479395574E+02  0.13769607181E+03  0.91547993439E+02 0.  0.
        -11    1    3    3    0    0  0.16578356386E+02 -0.38871109975E+02 -0.61586884853E+02  0.74691026751E+02  0.00000000000E+00 0.  1.
         11    1    3    3    0    0  0.25327481185E+02  0.48073091850E+02 -0.31892510721E+02  0.63005045062E+02  0.00000000000E+00 0. -1.
        -15    1    1    2    0    0 -0.24786368005E+02 -0.10543961721E+03  0.60787393508E+02  0.12421812208E+03  0.17770000000E+01 0.  1.
         15    1    1    2    0    0 -0.17119469566E+02  0.96237635331E+02  0.32692002065E+02  0.10308580610E+03  0.17770000000E+01 0. -1.
</event>
<event>
 7    1  0.4166661E-008  0.1986361E+03  0.7546771E-02  0.1056290E+00
        -11   -1    0    0    0    0  0.00000000000E+00  0.00000000000E+00  0.18250000000E+03  0.18250000000E+03  0.00000000000E+00 0. -1.
         11   -1    0    0    0    0 -0.00000000000E+00 -0.00000000000E+00 -0.18250000000E+03  0.18250000000E+03  0.00000000000E+00 0.  1.
         23    2    1    2    0    0  0.70814586480E+02  0.34743020902E+02 -0.11513190047E+03  0.16636394890E+03  0.90552889670E+02 0.  0.
        -11    1    3    3    0    0  0.73442962111E+02  0.10684623873E+02 -0.33878687141E+02  0.81583057760E+02  0.00000000000E+00 0. -1.
         11    1    3    3    0    0 -0.26283756309E+01  0.24058397028E+02 -0.81253213330E+02  0.84780891140E+02  0.00000000000E+00 0.  1.
        -15    1    1    2    0    0 -0.42620133835E+02 -0.36969193535E+02  0.14612008189E+03  0.15664428856E+03  0.17770000000E+01 0. -1.
         15    1    1    2    0    0 -0.28194452645E+02  0.22261726338E+01 -0.30988181417E+02  0.41991762539E+02  0.17770000000E+01 0.  1.
</event>
<event>
 7    1  0.4166661E-008  0.3650000E+03  0.7546771E-02  0.9765871E-01
        -11   -1    0    0    0    0  0.00000000000E+00  0.00000000000E+00  0.18250000000E+03  0.18250000000E+03  0.00000000000E+00 0. -1.
         11   -1    0    0    0    0 -0.00000000000E+00 -0.00000000000E+00 -0.18250000000E+03  0.18250000000E+03  0.00000000000E+00 0.  1.
         23    2    1    2    0    0  0.22332204340E+01 -0.50944073948E+02  0.98769639541E+02  0.14774139404E+03  0.97323131244E+02 0.  0.
        -11    1    3    3    0    0  0.49414952303E+02 -0.30283934577E+02  0.45910883499E+02  0.73937564392E+02  0.00000000000E+00 0.  1.
         11    1    3    3    0    0 -0.47181731869E+02 -0.20660139371E+02  0.52858756042E+02  0.73803829652E+02  0.00000000000E+00 0. -1.
        -15    1    1    2    0    0  0.69285213212E+02 -0.21496293073E+02  0.38964613562E+01  0.72669605241E+02  0.17770000000E+01 0. -1.
         15    1    1    2    0    0 -0.71518433646E+02  0.72440367022E+02 -0.10266610090E+03  0.14458900072E+03  0.17770000000E+01 0.  1.
</event>
<event>
 7    1  0.4166661E-008  0.3650000E+03  0.7546771E-02  0.9765871E-01
        -11   -1    0    0    0    0  0.00000000000E+00  0.00000000000E+00  0.18250000000E+03  0.18250000000E+03  0.00000000000E+00 0.  1.
         11   -1    0    0    0    0 -0.00000000000E+00 -0.00000000000E+00 -0.18250000000E+03  0.18250000000E+03  0.00000000000E+00 0. -1.
         23    2    1    2    0    0  0.25970901348E+02  0.31891937008E+02  0.70018800126E+02  0.12232737415E+03  0.91486451087E+02 0.  0.
        -11    1    3    3    0    0  0.86783608192E+01  0.51741932644E+02  0.78719648289E+02  0.94600869800E+02  0.00000000000E+00 0.  1.
         11    1    3    3    0    0  0.17292540529E+02 -0.19849995636E+02 -0.87008481633E+01  0.27726504350E+02  0.00000000000E+00 0. -1.
        -15    1    1    2    0    0  0.42746664494E+02  0.44390863783E+02  0.53792056740E+02  0.81820347164E+02  0.17770000000E+01 0.  1.
         15    1    1    2    0    0 -0.68717565841E+02 -0.76282800791E+02 -0.12381085687E+03  0.16085227869E+03  0.17770000000E+01 0. -1.
</event>
<event>
 7    1  0.4166661E-008  0.2416831E+03  0.7546771E-02  0.1029182E+00
        -11   -1    0    0    0    0  0.00000000000E+00  0.00000000000E+00  0.18250000000E+03  0.18250000000E+03  0.00000000000E+00 0. -1.
         11   -1    0    0    0    0 -0.00000000000E+00 -0.00000000000E+00 -0.18250000000E+03  0.18250000000E+03  0.00000000000E+00 0.  1.
         23    2    1    2    0    0  0.43439261902E+02 -0.27863602203E+02 -0.64887415282E+02  0.12331693813E+03  0.91287133631E+02 0.  0.
        -11    1    3    3    0    0 -0.16594320524E+02  0.11806451196E+02 -0.43849319102E+02  0.48347973579E+02  0.00000000000E+00 0. -1.
         11    1    3    3    0    0  0.60033582426E+02 -0.39670053400E+02 -0.21038096180E+02  0.74968964555E+02  0.00000000000E+00 0.  1.
        -15    1    1    2    0    0 -0.72737173396E+01 -0.99624367185E+02  0.34683420979E+02  0.10575452199E+03  0.17770000000E+01 0.  1.
         15    1    1    2    0    0 -0.36165544563E+02  0.12748796939E+03  0.30203994303E+02  0.13592853988E+03  0.17770000000E+01 0. -1.
</event>
<event>
 7    1  0.4166661E-008  0.3650000E+03  0.7546771E-02  0.9765871E-01
        -11   -1    0    0    0    0  0.00000000000E+00  0.00000000000E+00  0.18250000000E+03  0.18250000000E+03  0.00000000000E+00 0.  1.
         11   -1    0    0    0    0 -0.00000000000E+00 -0.00000000000E+00 -0.18250000000E+03  0.18250000000E+03  0.00000000000E+00 0. -1.
         23    2    1    2    0    0 -0.43413893780E+02 -0.10949548146E+02 -0.79288055173E+02  0.12834209341E+03  0.90445776402E+02 0.  0.
        -11    1    3    3    0    0 -0.57715570672E+02  0.23928497419E+02 -0.41759815187E+02  0.75150131411E+02  0.00000000000E+00 0. -1.
         11    1    3    3    0    0  0.14301676892E+02 -0.34878045565E+02 -0.37528239986E+02  0.53191961994E+02  0.00000000000E+00 0.  1.
        -15    1    1    2    0    0  0.14385115820E+02 -0.41742408298E+02  0.14260889559E+03  0.14929773956E+03  0.17770000000E+01 0.  1.
         15    1    1    2    0    0  0.29028777960E+02  0.52691956444E+02 -0.63320840418E+02  0.87360167033E+02  0.17770000000E+01 0. -1.
</event>
<event>
 7    1  0.4166661E-008  0.3650000E+03  0.7546771E-02  0.9765871E-01
        -11   -1    0    0    0    0  0.00000000000E+00  0.00000000000E+00  0.18250000000E+03  0.18250000000E+03  0.00000000000E+00 0.  1.
         11   -1    0    0    0    0 -0.00000000000E+00 -0.00000000000E+00 -0.18250000000E+03  0.18250000000E+03  0.00000000000E+00 0. -1.
         23    2    1    2    0    0 -0.39295969346E+02 -0.23625133005E+02  0.90003151986E+02  0.13630005446E+03  0.91514028233E+02 0.  0.
        -11    1    3    3    0    0  0.39243537533E+01  0.13142878532E+02 -0.12873861800E+02  0.18811489206E+02  0.00000000000E+00 0. -1.
         11    1    3    3    0    0 -0.43220323099E+02 -0.36768011537E+02  0.10287701379E+03  0.11748856526E+03  0.00000000000E+00 0.  1.
        -15    1    1    2    0    0 -0.21514634938E+02  0.36713324944E+01  0.60931637618E+02  0.64747049281E+02  0.17770000000E+01 0.  1.
         15    1    1    2    0    0  0.60810604283E+02  0.19953800510E+02 -0.15093478960E+03  0.16395289625E+03  0.17770000000E+01 0. -1.
</event>
<event>
 7    1  0.4166661E-008  0.2655974E+03  0.7546771E-02  0.1016641E+00
        -11   -1    0    0    0    0  0.00000000000E+00  0.00000000000E+00  0.18250000000E+03  0.18250000000E+03  0.00000000000E+00 0.  1.
         11   -1    0    0    0    0 -0.00000000000E+00 -0.00000000000E+00 -0.18250000000E+03  0.18250000000E+03  0.00000000000E+00 0. -1.
         23    2    1    2    0    0  0.78478233219E+01  0.34802456485E+02  0.17199020852E+02  0.99402579272E+02  0.91171635607E+02 0.  0.
        -11    1    3    3    0    0  0.18247045613E+02 -0.47997357015E+01 -0.30919308276E+02  0.36221482033E+02  0.00000000000E+00 0.  1.
         11    1    3    3    0    0 -0.10399222291E+02  0.39602192186E+02  0.48118329128E+02  0.63181097239E+02  0.00000000000E+00 0. -1.
        -15    1    1    2    0    0  0.87228324474E+02  0.17027580759E+02 -0.96624387889E+02  0.13129413224E+03  0.17770000000E+01 0.  1.
         15    1    1    2    0    0 -0.95076147796E+02 -0.51830037244E+02  0.79425367037E+02  0.13430328849E+03  0.17770000000E+01 0. -1.
</event>
<event>
 7    1  0.4166661E-008  0.1966885E+03  0.7546771E-02  0.1057690E+00
        -11   -1    0    0    0    0  0.00000000000E+00  0.00000000000E+00  0.18250000000E+03  0.18250000000E+03  0.00000000000E+00 0. -1.
         11   -1    0    0    0    0 -0.00000000000E+00 -0.00000000000E+00 -0.18250000000E+03  0.18250000000E+03  0.00000000000E+00 0.  1.
         23    2    1    2    0    0  0.23104283417E+02  0.11338150157E+03 -0.81115093709E+02  0.16831147441E+03  0.91432604566E+02 0.  0.
        -11    1    3    3    0    0 -0.11017289141E+02 -0.99997510880E+01 -0.23767370383E+02  0.28040391880E+02  0.00000000000E+00 0.  1.
         11    1    3    3    0    0  0.34121572559E+02  0.12338125266E+03 -0.57347723326E+02  0.14027108253E+03  0.00000000000E+00 0. -1.
        -15    1    1    2    0    0 -0.44377168316E+02 -0.13103294807E+03  0.34706037627E+02  0.14264162549E+03  0.17770000000E+01 0. -1.
         15    1    1    2    0    0  0.21272884899E+02  0.17651446491E+02  0.46409056082E+02  0.54046900102E+02  0.17770000000E+01 0.  1.
</event>
<event>
 7    1  0.4166661E-008  0.1835128E+03  0.7546771E-02  0.1067651E+00
        -11   -1    0    0    0    0  0.00000000000E+00  0.00000000000E+00  0.18250000000E+03  0.18250000000E+03  0.00000000000E+00 0.  1.
         11   -1    0    0    0    0 -0.00000000000E+00 -0.00000000000E+00 -0.18250000000E+03  0.18250000000E+03  0.00000000000E+00 0. -1.
         23    2    1    2    0    0  0.93885718306E+02 -0.32458578620E+02 -0.12226338718E+03  0.18148718516E+03  0.90117562692E+02 0.  0.
        -11    1    3    3    0    0  0.97957029935E+02 -0.24363398970E+02 -0.57655110323E+02  0.11624657702E+03  0.00000000000E+00 0.  1.
         11    1    3    3    0    0 -0.40713116292E+01 -0.80951796499E+01 -0.64608276860E+02  0.65240608142E+02  0.00000000000E+00 0. -1.
        -15    1    1    2    0    0  0.17320815850E+02  0.44199991881E+01  0.35175673729E+02  0.39497250611E+02  0.17770000000E+01 0. -1.
         15    1    1    2    0    0 -0.11120653416E+03  0.28038579432E+02  0.87087713454E+02  0.14401556423E+03  0.17770000000E+01 0.  1.
</event>
<event>
 7    1  0.4166661E-008  0.2560824E+03  0.7546771E-02  0.1021453E+00
        -11   -1    0    0    0    0  0.00000000000E+00  0.00000000000E+00  0.18250000000E+03  0.18250000000E+03  0.00000000000E+00 0.  1.
         11   -1    0    0    0    0 -0.00000000000E+00 -0.00000000000E+00 -0.18250000000E+03  0.18250000000E+03  0.00000000000E+00 0. -1.
         23    2    1    2    0    0  0.21996552082E+02  0.32682169130E+02  0.19102411150E+02  0.10891758807E+03  0.99730468749E+02 0.  0.
        -11    1    3    3    0    0 -0.36959335212E+02 -0.36452347160E+01  0.13209583085E+02  0.39417930954E+02  0.00000000000E+00 0.  1.
         11    1    3    3    0    0  0.58955887293E+02  0.36327403846E+02  0.58928280645E+01  0.69499657116E+02  0.00000000000E+00 0. -1.
        -15    1    1    2    0    0  0.92906767552E+02 -0.71596753596E+02  0.36172381059E+02  0.12275732753E+03  0.17770000000E+01 0.  1.
         15    1    1    2    0    0 -0.11490331963E+03  0.38914584466E+02 -0.55274792208E+02  0.13332508440E+03  0.17770000000E+01 0. -1.
</event>
<event>
 7    1  0.4166661E-008  0.3650000E+03  0.7546771E-02  0.9765871E-01
        -11   -1    0    0    0    0  0.00000000000E+00  0.00000000000E+00  0.18250000000E+03  0.18250000000E+03  0.00000000000E+00 0. -1.
         11   -1    0    0    0    0 -0.00000000000E+00 -0.00000000000E+00 -0.18250000000E+03  0.18250000000E+03  0.00000000000E+00 0.  1.
         23    2    1    2    0    0  0.78982091739E+01 -0.18630806697E+02  0.80594282564E+02  0.12159661602E+03  0.88773926237E+02 0.  0.
        -11    1    3    3    0    0 -0.20710769648E+02  0.25621112749E+02  0.52232246122E+02  0.61754230081E+02  0.00000000000E+00 0.  1.
         11    1    3    3    0    0  0.28608978822E+02 -0.44251919446E+02  0.28362036442E+02  0.59842385940E+02  0.00000000000E+00 0. -1.
        -15    1    1    2    0    0 -0.72070825857E+02  0.29829435365E+02  0.53303026425E+02  0.94490049789E+02  0.17770000000E+01 0. -1.
         15    1    1    2    0    0  0.64172616683E+02 -0.11198628669E+02 -0.13389730899E+03  0.14891333419E+03  0.17770000000E+01 0.  1.
</event>
<event>
 7    1  0.4166661E-008  0.2390929E+03  0.7546771E-02  0.1030634E+00
        -11   -1    0    0    0    0  0.00000000000E+00  0.00000000000E+00  0.18250000000E+03  0.18250000000E+03  0.00000000000E+00 0.  1.
         11   -1    0    0    0    0 -0.00000000000E+00 -0.00000000000E+00 -0.18250000000E+03  0.18250000000E+03  0.00000000000E+00 0. -1.
         23    2    1    2    0    0 -0.18273733547E+02  0.12465971431E+01  0.84735038859E+02  0.12590707270E+03  0.91307616344E+02 0.  0.
        -11    1    3    3    0    0 -0.32530951035E+02 -0.35725401264E+02  0.25481943976E+02  0.54625054137E+02  0.00000000000E+00 0. -1.
         11    1    3    3    0    0  0.14257217488E+02  0.36971998407E+02  0.59253094884E+02  0.71282018560E+02  0.00000000000E+00 0.  1.
        -15    1    1    2    0    0 -0.40050149551E+02  0.99015227856E+02 -0.30886849857E+02  0.11119885363E+03  0.17770000000E+01 0.  1.
         15    1    1    2    0    0  0.58323883098E+02 -0.10026182500E+03 -0.53848189003E+02  0.12789407367E+03  0.17770000000E+01 0. -1.
</event>
<event>
 7    1  0.4166661E-008  0.2502478E+03  0.7546771E-02  0.1024517E+00
        -11   -1    0    0    0    0  0.00000000000E+00  0.00000000000E+00  0.18250000000E+03  0.18250000000E+03  0.00000000000E+00 0.  1.
         11   -1    0    0    0    0 -0.00000000000E+00 -0.00000000000E+00 -0.18250000000E+03  0.18250000000E+03  0.00000000000E+00 0. -1.
         23    2    1    2    0    0  0.18817196395E+02 -0.66391612407E+02 -0.18787409251E+02  0.11475219628E+03  0.89739437961E+02 0.  0.
        -11    1    3    3    0    0 -0.22669462843E+02 -0.39593711438E+02 -0.40306880173E+02  0.60878658989E+02  0.00000000000E+00 0.  1.
         11    1    3    3    0    0  0.41486659238E+02 -0.26797900968E+02  0.21519470921E+02  0.53873537286E+02  0.00000000000E+00 0. -1.
        -15    1    1    2    0    0  0.40235360839E+02  0.95070286294E+02 -0.80696081101E+02  0.13104296560E+03  0.17770000000E+01 0.  1.
         15    1    1    2    0    0 -0.59052557234E+02 -0.28678673888E+02  0.99483490352E+02  0.11920483813E+03  0.17770000000E+01 0. -1.
</event>
<event>
 7    1  0.4166661E-008  0.2155795E+03  0.7546771E-02  0.1044802E+00
        -11   -1    0    0    0    0  0.00000000000E+00  0.00000000000E+00  0.18250000000E+03  0.18250000000E+03  0.00000000000E+00 0.  1.
         11   -1    0    0    0    0 -0.00000000000E+00 -0.00000000000E+00 -0.18250000000E+03  0.18250000000E+03  0.00000000000E+00 0. -1.
         23    2    1    2    0    0 -0.82052613661E+02 -0.88502715464E+02 -0.93801966361E+01  0.14942052191E+03  0.87596473829E+02 0.  0.
        -11    1    3    3    0    0  0.27452673508E+01 -0.33315368480E+02  0.25882147691E+02  0.42276894859E+02  0.00000000000E+00 0.  1.
         11    1    3    3    0    0 -0.84797881011E+02 -0.55187346985E+02 -0.35262344328E+02  0.10714362706E+03  0.00000000000E+00 0. -1.
        -15    1    1    2    0    0  0.61063959188E+02 -0.16789706103E+02  0.68249066362E+02  0.93122468454E+02  0.17770000000E+01 0.  1.
         15    1    1    2    0    0  0.20988654472E+02  0.10529242157E+03 -0.58868869726E+02  0.12245700963E+03  0.17770000000E+01 0. -1.
</event>
<event>
 7    1  0.4166661E-008  0.1910851E+03  0.7546771E-02  0.1061819E+00
        -11   -1    0    0    0    0  0.00000000000E+00  0.00000000000E+00  0.18250000000E+03  0.18250000000E+03  0.00000000000E+00 0.  1.
         11   -1    0    0    0    0 -0.00000000000E+00 -0.00000000000E+00 -0.18250000000E+03  0.18250000000E+03  0.00000000000E+00 0. -1.
         23    2    1    2    0    0  0.32714183577E+02 -0.22756570465E+02 -0.14238712966E+03  0.17391489923E+03  0.91565376502E+02 0.  0.
        -11    1    3    3    0    0  0.22950005251E+02  0.17784930205E+02 -0.39118219197E+01  0.29296908269E+02  0.00000000000E+00 0.  1.
         11    1    3    3    0    0  0.97641783263E+01 -0.40541500670E+02 -0.13847530774E+03  0.14461799096E+03  0.00000000000E+00 0. -1.
        -15    1    1    2    0    0 -0.31100348849E+02  0.71666833076E+02  0.80858768822E+02  0.11244849882E+03  0.17770000000E+01 0.  1.
         15    1    1    2    0    0 -0.16138347275E+01 -0.48910262611E+02  0.61528360837E+02  0.78636601957E+02  0.17770000000E+01 0. -1.
</event>
<event>
 7    1  0.4166661E-008  0.3650000E+03  0.7546771E-02  0.9765871E-01
        -11   -1    0    0    0    0  0.00000000000E+00  0.00000000000E+00  0.18250000000E+03  0.18250000000E+03  0.00000000000E+00 0.  1.
         11   -1    0    0    0    0 -0.00000000000E+00 -0.00000000000E+00 -0.18250000000E+03  0.18250000000E+03  0.00000000000E+00 0. -1.
         23    2    1    2    0    0  0.63411209757E+01 -0.10923306003E+03 -0.35237613405E+02  0.14421553241E+03  0.87088226367E+02 0.  0.
        -11    1    3    3    0    0  0.22332846869E+02 -0.67361388234E+02  0.19375612678E+02  0.73564441415E+02  0.00000000000E+00 0.  1.
         11    1    3    3    0    0 -0.15991725893E+02 -0.41871671796E+02 -0.54613226082E+02  0.70651090998E+02  0.00000000000E+00 0. -1.
        -15    1    1    2    0    0  0.28918608460E+02  0.11817666434E+03  0.92553221903E+02  0.15287663826E+03  0.17770000000E+01 0.  1.
         15    1    1    2    0    0 -0.35259729436E+02 -0.89436043130E+01 -0.57315608499E+02  0.67907829332E+02  0.17770000000E+01 0. -1.
</event>
<event>
 7    1  0.4166661E-008  0.2454410E+03  0.7546771E-02  0.1027110E+00
        -11   -1    0    0    0    0  0.00000000000E+00  0.00000000000E+00  0.18250000000E+03  0.18250000000E+03  0.00000000000E+00 0. -1.
         11   -1    0    0    0    0 -0.00000000000E+00 -0.00000000000E+00 -0.18250000000E+03  0.18250000000E+03  0.00000000000E+00 0.  1.
         23    2    1    2    0    0  0.97171670823E+01  0.74928512791E+02  0.39807224342E+02  0.11955902781E+03  0.83672221532E+02 0.  0.
        -11    1    3    3    0    0 -0.16072253324E+02  0.65960397339E+02 -0.39242272550E+01  0.68003609489E+02  0.00000000000E+00 0.  1.
         11    1    3    3    0    0  0.25789420406E+02  0.89681154525E+01  0.43731451597E+02  0.51555418322E+02  0.00000000000E+00 0. -1.
        -15    1    1    2    0    0  0.35278761308E+02 -0.82261720873E+02  0.78232396884E+02  0.11889090534E+03  0.17770000000E+01 0. -1.
         15    1    1    2    0    0 -0.44995928390E+02  0.73332080821E+01 -0.11803962123E+03  0.12655006685E+03  0.17770000000E+01 0.  1.
</event>
<event>
 7    1  0.4166661E-008  0.2140197E+03  0.7546771E-02  0.1045811E+00
        -11   -1    0    0    0    0  0.00000000000E+00  0.00000000000E+00  0.18250000000E+03  0.18250000000E+03  0.00000000000E+00 0.  1.
         11   -1    0    0    0    0 -0.00000000000E+00 -0.00000000000E+00 -0.18250000000E+03  0.18250000000E+03  0.00000000000E+00 0. -1.
         23    2    1    2    0    0 -0.83306609574E+02 -0.86247023831E+02  0.54056041067E+01  0.15098030683E+03  0.91582160791E+02 0.  0.
        -11    1    3    3    0    0  0.18133399564E+02 -0.13860573617E+02 -0.10910666491E+02  0.25297792869E+02  0.00000000000E+00 0. -1.
         11    1    3    3    0    0 -0.10144000914E+03 -0.72386450214E+02  0.16316270597E+02  0.12568251396E+03  0.00000000000E+00 0.  1.
        -15    1    1    2    0    0  0.86443056084E+02 -0.34436946355E+02 -0.62814425569E+01  0.93278719272E+02  0.17770000000E+01 0. -1.
         15    1    1    2    0    0 -0.31364465093E+01  0.12068397019E+03  0.87583845019E+00  0.12074097390E+03  0.17770000000E+01 0.  1.
</event>
<event>
 7    1  0.4166661E-008  0.3650000E+03  0.7546771E-02  0.9765871E-01
        -11   -1    0    0    0    0  0.00000000000E+00  0.00000000000E+00  0.18250000000E+03  0.18250000000E+03  0.00000000000E+00 0.  1.
         11   -1    0    0    0    0 -0.00000000000E+00 -0.00000000000E+00 -0.18250000000E+03  0.18250000000E+03  0.00000000000E+00 0. -1.
         23    2    1    2    0    0  0.32930764945E+02 -0.29848304508E+02 -0.61782775635E+02  0.11837161590E+03  0.90660749636E+02 0.  0.
        -11    1    3    3    0    0  0.57698767227E+02 -0.80130321529E+01 -0.62376725387E+02  0.85347596884E+02  0.00000000000E+00 0. -1.
         11    1    3    3    0    0 -0.24768002282E+02 -0.21835272355E+02  0.59394975233E+00  0.33024019019E+02  0.00000000000E+00 0.  1.
        -15    1    1    2    0    0 -0.11707785045E+03  0.78785599749E+02  0.42374954359E+02  0.14735395577E+03  0.17770000000E+01 0.  1.
         15    1    1    2    0    0  0.84147085506E+02 -0.48937295241E+02  0.19407821275E+02  0.99274428330E+02  0.17770000000E+01 0. -1.
</event>
<event>
 7    1  0.4166661E-008  0.2101350E+03  0.7546771E-02  0.1048365E+00
        -11   -1    0    0    0    0  0.00000000000E+00  0.00000000000E+00  0.18250000000E+03  0.18250000000E+03  0.00000000000E+00 0.  1.
         11   -1    0    0    0    0 -0.00000000000E+00 -0.00000000000E+00 -0.18250000000E+03  0.18250000000E+03  0.00000000000E+00 0. -1.
         23    2    1    2    0    0 -0.54854660534E+02 -0.15713926696E+02 -0.11234901344E+03  0.15486503538E+03  0.90027313003E+02 0.  0.
        -11    1    3    3    0    0  0.15246793946E+02 -0.31199743221E+02 -0.39283043230E+02  0.52431347380E+02  0.00000000000E+00 0. -1.
         11    1    3    3    0    0 -0.70101454480E+02  0.15485816525E+02 -0.73065970212E+02  0.10243368800E+03  0.00000000000E+00 0.  1.
        -15    1    1    2    0    0 -0.39997950118E+02  0.33900440778E+01 -0.21532177177E+02  0.45586410206E+02  0.17770000000E+01 0.  1.
         15    1    1    2    0    0  0.94852610651E+02  0.12323882618E+02  0.13388119062E+03  0.16454855442E+03  0.17770000000E+01 0. -1.
</event>
<event>
 7    1  0.4166661E-008  0.2425357E+03  0.7546771E-02  0.1028708E+00
        -11   -1    0    0    0    0  0.00000000000E+00  0.00000000000E+00  0.18250000000E+03  0.18250000000E+03  0.00000000000E+00 0.  1.
         11   -1    0    0    0    0 -0.00000000000E+00 -0.00000000000E+00 -0.18250000000E+03  0.18250000000E+03  0.00000000000E+00 0. -1.
         23    2    1    2    0    0  0.61133415374E+01 -0.26152610871E+02 -0.74847007486E+02  0.12246433891E+03  0.93134890216E+02 0.  0.
        -11    1    3    3    0    0 -0.26317583995E+02 -0.74608194103E+01 -0.80121658687E+02  0.84662620113E+02  0.00000000000E+00 0. -1.
         11    1    3    3    0    0  0.32430925532E+02 -0.18691791460E+02  0.52746512013E+01  0.37801718799E+02  0.00000000000E+00 0.  1.
        -15    1    1    2    0    0  0.29268630376E+02  0.12260523448E+03  0.25794660593E+02  0.12867485570E+03  0.17770000000E+01 0.  1.
         15    1    1    2    0    0 -0.35381971913E+02 -0.96452623611E+02  0.49052346893E+02  0.11386080538E+03  0.17770000000E+01 0. -1.
</event>
<event>
 7    1  0.4166661E-008  0.2599965E+03  0.7546771E-02  0.1019447E+00
        -11   -1    0    0    0    0  0.00000000000E+00  0.00000000000E+00  0.18250000000E+03  0.18250000000E+03  0.00000000000E+00 0. -1.
         11   -1    0    0    0    0 -0.00000000000E+00 -0.00000000000E+00 -0.18250000000E+03  0.18250000000E+03  0.00000000000E+00 0.  1.
         23    2    1    2    0    0  0.37816687954E+02 -0.43332188284E+02 -0.25051558737E+02  0.10500349693E+03  0.84204354655E+02 0.  0.
        -11    1    3    3    0    0 -0.26036934103E+02 -0.52630680385E+01 -0.13410900230E+02  0.29756916299E+02  0.00000000000E+00 0.  1.
         11    1    3    3    0    0  0.63853622057E+02 -0.38069120246E+02 -0.11640658507E+02  0.75246580630E+02  0.00000000000E+00 0. -1.
        -15    1    1    2    0    0  0.41378560628E+02 -0.68948214612E+02  0.78656705387E+02  0.11249922937E+03  0.17770000000E+01 0. -1.
         15    1    1    2    0    0 -0.79195248582E+02  0.11228040290E+03 -0.53605146650E+02  0.14749727370E+03  0.17770000000E+01 0.  1.
</event>
<event>
 7    1  0.4166661E-008  0.3650000E+03  0.7546771E-02  0.9765871E-01
        -11   -1    0    0    0    0  0.00000000000E+00  0.00000000000E+00  0.18250000000E+03  0.18250000000E+03  0.00000000000E+00 0. -1.
         11   -1    0    0    0    0 -0.00000000000E+00 -0.00000000000E+00 -0.18250000000E+03  0.18250000000E+03  0.00000000000E+00 0.  1.
         23    2    1    2    0    0  0.11868811354E+01  0.30173992509E+02  0.93765848474E+02  0.13443090443E+03  0.91475435030E+02 0.  0.
        -11    1    3    3    0    0 -0.24622931491E+02 -0.14735039668E+02  0.73336081337E+02  0.78750180794E+02  0.00000000000E+00 0. -1.
         11    1    3    3    0    0  0.25809812626E+02  0.44909032177E+02  0.20429767138E+02  0.55680723632E+02  0.00000000000E+00 0.  1.
        -15    1    1    2    0    0  0.18729393348E+02 -0.92583479741E+01  0.65459535191E+02  0.68735839697E+02  0.17770000000E+01 0. -1.
         15    1    1    2    0    0 -0.19916274483E+02 -0.20915644535E+02 -0.15922538367E+03  0.16183325588E+03  0.17770000000E+01 0.  1.
</event>
<event>
 7    1  0.4166661E-008  0.3650000E+03  0.7546771E-02  0.9765871E-01
        -11   -1    0    0    0    0  0.00000000000E+00  0.00000000000E+00  0.18250000000E+03  0.18250000000E+03  0.00000000000E+00 0.  1.
         11   -1    0    0    0    0 -0.00000000000E+00 -0.00000000000E+00 -0.18250000000E+03  0.18250000000E+03  0.00000000000E+00 0. -1.
         23    2    1    2    0    0  0.62845009976E+02  0.10250757011E+02 -0.19835314919E+02  0.10782898303E+03  0.84729431523E+02 0.  0.
        -11    1    3    3    0    0  0.81518421289E+02  0.14464991548E+02 -0.27454752114E+02  0.87225296811E+02  0.00000000000E+00 0. -1.
         11    1    3    3    0    0 -0.18673411314E+02 -0.42142345373E+01  0.76194371953E+01  0.20603686224E+02  0.00000000000E+00 0.  1.
        -15    1    1    2    0    0 -0.14777576711E+03  0.45568923615E+02  0.83673045457E+01  0.15487857715E+03  0.17770000000E+01 0.  1.
         15    1    1    2    0    0  0.84930757136E+02 -0.55819680626E+02  0.11468010373E+02  0.10229243982E+03  0.17770000000E+01 0. -1.
</event>
<event>
 7    1  0.4166661E-008  0.2680803E+03  0.7546771E-02  0.1015421E+00
        -11   -1    0    0    0    0  0.00000000000E+00  0.00000000000E+00  0.18250000000E+03  0.18250000000E+03  0.00000000000E+00 0.  1.
         11   -1    0    0    0    0 -0.00000000000E+00 -0.00000000000E+00 -0.18250000000E+03  0.18250000000E+03  0.00000000000E+00 0. -1.
         23    2    1    2    0    0 -0.10260989093E+02  0.47219894872E+00 -0.19428108601E+02  0.96919666894E+02  0.94395230590E+02 0.  0.
        -11    1    3    3    0    0  0.27617688743E+02  0.31181403375E+02 -0.23778427332E+02  0.47962800735E+02  0.00000000000E+00 0. -1.
         11    1    3    3    0    0 -0.37878677835E+02 -0.30709204427E+02  0.43503187316E+01  0.48956866159E+02  0.00000000000E+00 0.  1.
        -15    1    1    2    0    0 -0.26697871561E+02 -0.11802340899E+03 -0.44881252977E+02  0.12907279346E+03  0.17770000000E+01 0.  1.
         15    1    1    2    0    0  0.36958860654E+02  0.11755121004E+03  0.64309361578E+02  0.13900753964E+03  0.17770000000E+01 0. -1.
</event>
<event>
 7    1  0.4166661E-008  0.1833838E+03  0.7546771E-02  0.1067753E+00
        -11   -1    0    0    0    0  0.00000000000E+00  0.00000000000E+00  0.18250000000E+03  0.18250000000E+03  0.00000000000E+00 0.  1.
         11   -1    0    0    0    0 -0.00000000000E+00 -0.00000000000E+00 -0.18250000000E+03  0.18250000000E+03  0.00000000000E+00 0. -1.
         23    2    1    2    0    0  0.74322477149E+02  0.87304606043E+02  0.10749258011E+03  0.18161620751E+03  0.91015752526E+02 0.  0.
        -11    1    3    3    0    0  0.75143449404E+02  0.99266208807E+02  0.71260049218E+02  0.14345143016E+03  0.00000000000E+00 0.  1.
         11    1    3    3    0    0 -0.82097225463E+00 -0.11961602764E+02  0.36232530890E+02  0.38164777359E+02  0.00000000000E+00 0. -1.
        -15    1    1    2    0    0 -0.13931932006E+02  0.13379381181E+02 -0.47960400699E+02  0.51734556483E+02  0.17770000000E+01 0.  1.
         15    1    1    2    0    0 -0.60390545143E+02 -0.10068398722E+03 -0.59532179409E+02  0.13164923600E+03  0.17770000000E+01 0. -1.
</event>
<event>
 7    1  0.4166661E-008  0.3650000E+03  0.7546771E-02  0.9765871E-01
        -11   -1    0    0    0    0  0.00000000000E+00  0.00000000000E+00  0.18250000000E+03  0.18250000000E+03  0.00000000000E+00 0.  1.
         11   -1    0    0    0    0 -0.00000000000E+00 -0.00000000000E+00 -0.18250000000E+03  0.18250000000E+03  0.00000000000E+00 0. -1.
         23    2    1    2    0    0  0.69217237749E+02  0.38683756859E+02 -0.38825711136E+02  0.12743725625E+03  0.91898636486E+02 0.  0.
        -11    1    3    3    0    0  0.20204102555E+02  0.62867055781E+02 -0.14465906906E+02  0.67599814536E+02  0.00000000000E+00 0.  1.
         11    1    3    3    0    0  0.49013135194E+02 -0.24183298922E+02 -0.24359804230E+02  0.59837441711E+02  0.00000000000E+00 0. -1.
        -15    1    1    2    0    0 -0.14905957020E+03 -0.98981409195E+01  0.27712157000E+02  0.15194686584E+03  0.17770000000E+01 0.  1.
         15    1    1    2    0    0  0.79842332455E+02 -0.28785615940E+02  0.11113554136E+02  0.85615877917E+02  0.17770000000E+01 0. -1.
</event>
<event>
 7    1  0.4166661E-008  0.2018799E+03  0.7546771E-02  0.1053996E+00
        -11   -1    0    0    0    0  0.00000000000E+00  0.00000000000E+00  0.18250000000E+03  0.18250000000E+03  0.00000000000E+00 0. -1.
         11   -1    0    0    0    0 -0.00000000000E+00 -0.00000000000E+00 -0.18250000000E+03  0.18250000000E+03  0.00000000000E+00 0.  1.
         23    2    1    2    0    0  0.12792605219E+02 -0.33337896670E+02  0.12773955767E+03  0.16312013274E+03  0.94951129579E+02 0.  0.
        -11    1    3    3    0    0 -0.36653095379E+02 -0.34901978156E+02  0.51265440284E+02  0.72039869847E+02  0.00000000000E+00 0.  1.
         11    1    3    3    0    0  0.49445700598E+02  0.15640814860E+01  0.76474117384E+02  0.91080262890E+02  0.00000000000E+00 0. -1.
        -15    1    1    2    0    0  0.13667276758E+02 -0.36467209668E+02  0.14204881138E+02  0.41492025885E+02  0.17770000000E+01 0. -1.
         15    1    1    2    0    0 -0.26459881977E+02  0.69805106338E+02 -0.14194443881E+03  0.16038784138E+03  0.17770000000E+01 0.  1.
</event>
<event>
 7    1  0.4166661E-008  0.3650000E+03  0.7546771E-02  0.9765871E-01
        -11   -1    0    0    0    0  0.00000000000E+00  0.00000000000E+00  0.18250000000E+03  0.18250000000E+03  0.00000000000E+00 0.  1.
         11   -1    0    0    0    0 -0.00000000000E+00 -0.00000000000E+00 -0.18250000000E+03  0.18250000000E+03  0.00000000000E+00 0. -1.
         23    2    1    2    0    0  0.33351068581E+02  0.16753323598E+02  0.63120924087E+02  0.11816554445E+03  0.92660008696E+02 0.  0.
        -11    1    3    3    0    0 -0.33632274007E+01 -0.35612543256E+02  0.19374744156E+02  0.40681018262E+02  0.00000000000E+00 0. -1.
         11    1    3    3    0    0  0.36714295982E+02  0.52365866854E+02  0.43746179931E+02  0.77484526193E+02  0.00000000000E+00 0.  1.
        -15    1    1    2    0    0 -0.12843063371E+03  0.19502724090E+01 -0.75699871608E+02  0.14910351951E+03  0.17770000000E+01 0. -1.
         15    1    1    2    0    0  0.95079565133E+02 -0.18703596007E+02  0.12578947521E+02  0.97730936040E+02  0.17770000000E+01 0.  1.
</event>
<event>
 7    1  0.4166661E-008  0.2573905E+03  0.7546771E-02  0.1020778E+00
        -11   -1    0    0    0    0  0.00000000000E+00  0.00000000000E+00  0.18250000000E+03  0.18250000000E+03  0.00000000000E+00 0.  1.
         11   -1    0    0    0    0 -0.00000000000E+00 -0.00000000000E+00 -0.18250000000E+03  0.18250000000E+03  0.00000000000E+00 0. -1.
         23    2    1    2    0    0 -0.91894641016E+01 -0.43934455072E+02  0.32445979821E+02  0.10760950658E+03  0.92262569375E+02 0.  0.
        -11    1    3    3    0    0 -0.13653474395E+02  0.26372556901E+02 -0.80475386199E+00  0.29708193303E+02  0.00000000000E+00 0. -1.
         11    1    3    3    0    0  0.44640102935E+01 -0.70307011972E+02  0.33250733683E+02  0.77901313281E+02  0.00000000000E+00 0.  1.
        -15    1    1    2    0    0  0.35697910366E+01  0.12309016541E+03  0.58783103387E+02  0.13646443933E+03  0.17770000000E+01 0.  1.
         15    1    1    2    0    0  0.56196730649E+01 -0.79155710340E+02 -0.91229083208E+02  0.12092605409E+03  0.17770000000E+01 0. -1.
</event>
<event>
 7    1  0.4166661E-008  0.2338816E+03  0.7546771E-02  0.1033617E+00
        -11   -1    0    0    0    0  0.00000000000E+00  0.00000000000E+00  0.18250000000E+03  0.18250000000E+03  0.00000000000E+00 0. -1.
         11   -1    0    0    0    0 -0.00000000000E+00 -0.00000000000E+00 -0.18250000000E+03  0.18250000000E+03  0.00000000000E+00 0.  1.
         23    2    1    2    0    0  0.18814187503E+02  0.43081904268E+02 -0.83263284352E+02  0.13111844783E+03  0.89717605375E+02 0.  0.
        -11    1    3    3    0    0 -0.24618828925E+02  0.50804346747E+02 -0.54406721667E+02  0.78404462555E+02  0.00000000000E+00 0. -1.
         11    1    3    3    0    0  0.43433016428E+02 -0.77224424782E+01 -0.28856562686E+02  0.52713985278E+02  0.00000000000E+00 0.  1.
        -15    1    1    2    0    0 -0.10791281783E+03 -0.61728119969E+02  0.28238158335E+02  0.12749936612E+03  0.17770000000E+01 0.  1.
         15    1    1    2    0    0  0.89098630324E+02  0.18646215701E+02  0.55025126017E+02  0.10638218605E+03  0.17770000000E+01 0. -1.
</event>
<event>
 7    1  0.4166661E-008  0.3650000E+03  0.7546771E-02  0.9765871E-01
        -11   -1    0    0    0    0  0.00000000000E+00  0.00000000000E+00  0.18250000000E+03  0.18250000000E+03  0.00000000000E+00 0.  1.
         11   -1    0    0    0    0 -0.00000000000E+00 -0.00000000000E+00 -0.18250000000E+03  0.18250000000E+03  0.00000000000E+00 0. -1.
         23    2    1    2    0    0 -0.75377748830E+02 -0.51072163466E+01  0.67354220447E+02  0.13454859918E+03  0.88650131714E+02 0.  0.
        -11    1    3    3    0    0  0.18991428685E+02 -0.28659602697E+00  0.87468933803E+00  0.19013720894E+02  0.00000000000E+00 0.  1.
         11    1    3    3    0    0 -0.94369177515E+02 -0.48206203196E+01  0.66479531109E+02  0.11553487829E+03  0.00000000000E+00 0. -1.
        -15    1    1    2    0    0  0.12843222472E+03  0.61874272149E+02 -0.46864366176E+02  0.15007560910E+03  0.17770000000E+01 0.  1.
         15    1    1    2    0    0 -0.53054475892E+02 -0.56767055803E+02 -0.20489854272E+02  0.80375791714E+02  0.17770000000E+01 0. -1.
</event>
<event>
 7    1  0.4166661E-008  0.2428357E+03  0.7546771E-02  0.1028542E+00
        -11   -1    0    0    0    0  0.00000000000E+00  0.00000000000E+00  0.18250000000E+03  0.18250000000E+03  0.00000000000E+00 0.  1.
         11   -1    0    0    0    0 -0.00000000000E+00 -0.00000000000E+00 -0.18250000000E+03  0.18250000000E+03  0.00000000000E+00 0. -1.
         23    2    1    2    0    0 -0.42565580460E+02 -0.33236647201E+02 -0.60970956982E+02  0.12216434613E+03  0.91050351528E+02 0.  0.
        -11    1    3    3    0    0 -0.57833206669E+00 -0.35596453321E+02 -0.70558940152E+02  0.79031677145E+02  0.00000000000E+00 0. -1.
         11    1    3    3    0    0 -0.41987248394E+02  0.23598061192E+01  0.95879831705E+01  0.43132668986E+02  0.00000000000E+00 0.  1.
        -15    1    1    2    0    0 -0.20512844213E+02 -0.87725263729E+02  0.56444710910E+02  0.10632808562E+03  0.17770000000E+01 0.  1.
         15    1    1    2    0    0  0.63078424673E+02  0.12096191093E+03  0.45262460724E+01  0.13650756824E+03  0.17770000000E+01 0. -1.
</event>
<event>
 7    1  0.4166661E-008  0.3650000E+03  0.7546771E-02  0.9765871E-01
        -11   -1    0    0    0    0  0.00000000000E+00  0.00000000000E+00  0.18250000000E+03  0.18250000000E+03  0.00000000000E+00 0. -1.
         11   -1    0    0    0    0 -0.00000000000E+00 -0.00000000000E+00 -0.18250000000E+03  0.18250000000E+03  0.00000000000E+00 0.  1.
         23    2    1    2    0    0  0.19538699691E+02  0.55412028180E+02  0.79721745535E+01  0.10746363955E+03  0.89624910631E+02 0.  0.
        -11    1    3    3    0    0 -0.17719144050E+02  0.29483989463E+02 -0.31999312804E+02  0.46981163464E+02  0.00000000000E+00 0. -1.
         11    1    3    3    0    0  0.37257843740E+02  0.25928038717E+02  0.39971487358E+02  0.60482476086E+02  0.00000000000E+00 0.  1.
        -15    1    1    2    0    0  0.81260730664E+02  0.58154165947E+02  0.22994068372E+02  0.10255290476E+03  0.17770000000E+01 0.  1.
         15    1    1    2    0    0 -0.10079943035E+03 -0.11356619413E+03 -0.30966242925E+02  0.15498345569E+03  0.17770000000E+01 0. -1.
</event>
<event>
 7    1  0.4166661E-008  0.2265274E+03  0.7546771E-02  0.1037974E+00
        -11   -1    0    0    0    0  0.00000000000E+00  0.00000000000E+00  0.18250000000E+03  0.18250000000E+03  0.00000000000E+00 0. -1.
         11   -1    0    0    0    0 -0.00000000000E+00 -0.00000000000E+00 -0.18250000000E+03  0.18250000000E+03  0.00000000000E+00 0.  1.
         23    2    1    2    0    0 -0.71182973016E+02  0.62141784224E+02 -0.40443076051E+02  0.13847258494E+03  0.92792226969E+02 0.  0.
        -11    1    3    3    0    0  0.12043771602E+02  0.15836893607E+02  0.17915911744E+02  0.26773859026E+02  0.00000000000E+00 0. -1.
         11    1    3    3    0    0 -0.83226744618E+02  0.46304890617E+02 -0.58358987795E+02  0.11169872592E+03  0.00000000000E+00 0.  1.
        -15    1    1    2    0    0 -0.10722635386E+02 -0.26025425866E+02  0.10974244214E+03  0.11330868915E+03  0.17770000000E+01 0. -1.
         15    1    1    2    0    0  0.81905608402E+02 -0.36116358358E+02 -0.69299366084E+02  0.11321872591E+03  0.17770000000E+01 0.  1.
</event>
<event>
 7    1  0.4166661E-008  0.1935180E+03  0.7546771E-02  0.1060008E+00
        -11   -1    0    0    0    0  0.00000000000E+00  0.00000000000E+00  0.18250000000E+03  0.18250000000E+03  0.00000000000E+00 0.  1.
         11   -1    0    0    0    0 -0.00000000000E+00 -0.00000000000E+00 -0.18250000000E+03  0.18250000000E+03  0.00000000000E+00 0. -1.
         23    2    1    2    0    0 -0.50025897173E+02  0.13196045964E+03 -0.30407919304E+02  0.17148200209E+03  0.92548809772E+02 0.  0.
        -11    1    3    3    0    0  0.12761839991E+02  0.10359273090E+02 -0.30477614836E+02  0.34627505036E+02  0.00000000000E+00 0. -1.
         11    1    3    3    0    0 -0.62787737163E+02  0.12160118655E+03  0.69695531599E-01  0.13685449706E+03  0.00000000000E+00 0.  1.
        -15    1    1    2    0    0  0.44628978254E+02 -0.14817808511E+03 -0.42632702077E+01  0.15482190998E+03  0.17770000000E+01 0.  1.
         15    1    1    2    0    0  0.53969189182E+01  0.16217625475E+02  0.34671189512E+02  0.38696087929E+02  0.17770000000E+01 0. -1.
</event>
<event>
 7    1  0.4166661E-008  0.3650000E+03  0.7546771E-02  0.9765871E-01
        -11   -1    0    0    0    0  0.00000000000E+00  0.00000000000E+00  0.18250000000E+03  0.18250000000E+03  0.00000000000E+00 0. -1.
         11   -1    0    0    0    0 -0.00000000000E+00 -0.00000000000E+00 -0.18250000000E+03  0.18250000000E+03  0.00000000000E+00 0.  1.
         23    2    1    2    0    0  0.12817905499E+01 -0.83007427735E+02  0.58097622952E+02  0.13413760503E+03  0.87895888668E+02 0.  0.
        -11    1    3    3    0    0  0.10217486376E+02 -0.17094982859E+02 -0.22229457878E+02  0.29846009186E+02  0.00000000000E+00 0.  1.
         11    1    3    3    0    0 -0.89356958262E+01 -0.65912444876E+02  0.80327080830E+02  0.10429159585E+03  0.00000000000E+00 0. -1.
        -15    1    1    2    0    0  0.20312563599E+02 -0.56416344269E+02  0.27328510539E+02  0.65919719037E+02  0.17770000000E+01 0. -1.
         15    1    1    2    0    0 -0.21594354149E+02  0.13942377200E+03 -0.85426133491E+02  0.16494267593E+03  0.17770000000E+01 0.  1.
</event>
<event>
 7    1  0.4166661E-008  0.2385838E+03  0.7546771E-02  0.1030922E+00
        -11   -1    0    0    0    0  0.00000000000E+00  0.00000000000E+00  0.18250000000E+03  0.18250000000E+03  0.00000000000E+00 0.  1.
         11   -1    0    0    0    0 -0.00000000000E+00 -0.00000000000E+00 -0.18250000000E+03  0.18250000000E+03  0.00000000000E+00 0. -1.
         23    2    1    2    0    0  0.29108458393E+02 -0.28971710012E+02  0.83474445173E+02  0.12641618266E+03  0.85594426860E+02 0.  0.
        -11    1    3    3    0    0 -0.26363660893E+02  0.87801913502E+01  0.26334838402E+02  0.38283914239E+02  0.00000000000E+00 0.  1.
         11    1    3    3    0    0  0.55472119285E+02 -0.37751901362E+02  0.57139606771E+02  0.88132268418E+02  0.00000000000E+00 0. -1.
        -15    1    1    2    0    0  0.10948152231E+02  0.11809520612E+03 -0.15687309831E+02  0.11964777125E+03  0.17770000000E+01 0.  1.
         15    1    1    2    0    0 -0.40056610624E+02 -0.89123496110E+02 -0.67787135342E+02  0.11893604609E+03  0.17770000000E+01 0. -1.
</event>
<event>
 7    1  0.4166661E-008  0.2528271E+03  0.7546771E-02  0.1023151E+00
        -11   -1    0    0    0    0  0.00000000000E+00  0.00000000000E+00  0.18250000000E+03  0.18250000000E+03  0.00000000000E+00 0. -1.
         11   -1    0    0    0    0 -0.00000000000E+00 -0.00000000000E+00 -0.18250000000E+03  0.18250000000E+03  0.00000000000E+00 0.  1.
         23    2    1    2    0    0 -0.61132563092E+02 -0.18527435044E+02  0.97491669618E+00  0.11217291182E+03  0.92202795855E+02 0.  0.
        -11    1    3    3    0    0  0.13315779377E+02 -0.20383725407E+02  0.24035477841E+02  0.34212723319E+02  0.00000000000E+00 0. -1.
         11    1    3    3    0    0 -0.74448342469E+02  0.18562903621E+01 -0.23060561145E+02  0.77960188498E+02  0.00000000000E+00 0.  1.
        -15    1    1    2    0    0  0.63164214078E+02 -0.10241719948E+03 -0.38192191066E+02  0.12625688843E+03  0.17770000000E+01 0. -1.
         15    1    1    2    0    0 -0.20316509855E+01  0.12094463452E+03  0.37217274370E+02  0.12657019975E+03  0.17770000000E+01 0.  1.
</event>
<event>
 7    1  0.4166661E-008  0.2574945E+03  0.7546771E-02  0.1020725E+00
        -11   -1    0    0    0    0  0.00000000000E+00  0.00000000000E+00  0.18250000000E+03  0.18250000000E+03  0.00000000000E+00 0.  1.
         11   -1    0    0    0    0 -0.00000000000E+00 -0.00000000000E+00 -0.18250000000E+03  0.18250000000E+03  0.00000000000E+00 0. -1.
         23    2    1    2    0    0  0.50797124709E+02  0.24521314734E+02 -0.98707708827E+01  0.10750549128E+03  0.90985470174E+02 0.  0.
        -11    1    3    3    0    0  0.72105187135E+02  0.38037717737E+02 -0.10914070369E+02  0.82250488840E+02  0.00000000000E+00 0.  1.
         11    1    3    3    0    0 -0.21308062426E+02 -0.13516403003E+02  0.10432994859E+01  0.25255002441E+02  0.00000000000E+00 0. -1.
        -15    1    1    2    0    0  0.50273899070E+02 -0.11201181219E+03 -0.55680266900E+01  0.12291570953E+03  0.17770000000E+01 0.  1.
         15    1    1    2    0    0 -0.10107102378E+03  0.87490497456E+02  0.15438797573E+02  0.13457879919E+03  0.17770000000E+01 0. -1.
</event>
<event>
 7    1  0.4166661E-008  0.3650000E+03  0.7546771E-02  0.9765871E-01
        -11   -1    0    0    0    0  0.00000000000E+00  0.00000000000E+00  0.18250000000E+03  0.18250000000E+03  0.00000000000E+00 0.  1.
         11   -1    0    0    0    0 -0.00000000000E+00 -0.00000000000E+00 -0.18250000000E+03  0.18250000000E+03  0.00000000000E+00 0. -1.
         23    2    1    2    0    0 -0.75049035308E+02  0.78571657804E+01  0.54101764270E+02  0.12912045349E+03  0.89727352889E+02 0.  0.
        -11    1    3    3    0    0  0.15684092326E+01 -0.28327830795E+02  0.29408909954E+02  0.40863307376E+02  0.00000000000E+00 0. -1.
         11    1    3    3    0    0 -0.76617444541E+02  0.36184996576E+02  0.24692854316E+02  0.88257146110E+02  0.00000000000E+00 0.  1.
        -15    1    1    2    0    0 -0.42707970512E+02  0.68092393523E+02  0.11380797009E+02  0.81198676531E+02  0.17770000000E+01 0.  1.
         15    1    1    2    0    0  0.11775700582E+03 -0.75949559303E+02 -0.65482561279E+02  0.15468086998E+03  0.17770000000E+01 0. -1.
</event>
<event>
 7    1  0.4166661E-008  0.3650000E+03  0.7546771E-02  0.9765871E-01
        -11   -1    0    0    0    0  0.00000000000E+00  0.00000000000E+00  0.18250000000E+03  0.18250000000E+03  0.00000000000E+00 0. -1.
         11   -1    0    0    0    0 -0.00000000000E+00 -0.00000000000E+00 -0.18250000000E+03  0.18250000000E+03  0.00000000000E+00 0. -1.
         23    2    1    2    0    0 -0.25153346530E-02  0.28291759660E+02  0.76938352097E+02  0.12264257742E+03  0.91220984991E+02 0.  0.
        -11    1    3    3    0    0  0.13044265313E+02  0.34958256848E+02  0.93416643772E+02  0.10059275279E+03  0.00000000000E+00 0. -1.
         11    1    3    3    0    0 -0.13046780648E+02 -0.66664971883E+01 -0.16478291675E+02  0.22049824638E+02  0.00000000000E+00 0. -1.
        -15    1    1    2    0    0  0.47445073277E+02 -0.12892709644E+02 -0.14774898784E+03  0.15572468679E+03  0.17770000000E+01 0. -1.
         15    1    1    2    0    0 -0.47442557942E+02 -0.15399050016E+02  0.70810635744E+02  0.86632735781E+02  0.17770000000E+01 0.  1.
</event>
<event>
 7    1  0.4166661E-008  0.2280685E+03  0.7546771E-02  0.1037046E+00
        -11   -1    0    0    0    0  0.00000000000E+00  0.00000000000E+00  0.18250000000E+03  0.18250000000E+03  0.00000000000E+00 0. -1.
         11   -1    0    0    0    0 -0.00000000000E+00 -0.00000000000E+00 -0.18250000000E+03  0.18250000000E+03  0.00000000000E+00 0.  1.
         23    2    1    2    0    0  0.34270187833E+02 -0.56135258802E+02  0.78367354639E+02  0.13693153714E+03  0.91012035112E+02 0.  0.
        -11    1    3    3    0    0  0.54978493515E+01 -0.17826144328E+02 -0.20102564149E+02  0.27424639550E+02  0.00000000000E+00 0.  1.
         11    1    3    3    0    0  0.28772338482E+02 -0.38309114474E+02  0.98469918787E+02  0.10950689759E+03  0.00000000000E+00 0. -1.
        -15    1    1    2    0    0  0.12765833070E+02  0.10181112284E+03  0.25021815960E+02  0.10563011044E+03  0.17770000000E+01 0. -1.
         15    1    1    2    0    0 -0.47036020903E+02 -0.45675864039E+02 -0.10338917060E+03  0.12243835242E+03  0.17770000000E+01 0.  1.
</event>
<event>
 7    1  0.4166661E-008  0.1845328E+03  0.7546771E-02  0.1066848E+00
        -11   -1    0    0    0    0  0.00000000000E+00  0.00000000000E+00  0.18250000000E+03  0.18250000000E+03  0.00000000000E+00 0.  1.
         11   -1    0    0    0    0 -0.00000000000E+00 -0.00000000000E+00 -0.18250000000E+03  0.18250000000E+03  0.00000000000E+00 0. -1.
         23    2    1    2    0    0  0.88545020058E+02 -0.30424047158E+02 -0.12458172773E+03  0.18046717957E+03  0.91005234985E+02 0.  0.
        -11    1    3    3    0    0  0.56919668809E+02  0.27290598499E+02 -0.46806041823E+02  0.78583910662E+02  0.00000000000E+00 0.  1.
         11    1    3    3    0    0  0.31625351249E+02 -0.57714645657E+02 -0.77775685902E+02  0.10188326890E+03  0.00000000000E+00 0. -1.
        -15    1    1    2    0    0 -0.86626198637E+02  0.49483463901E+02  0.58403478767E+02  0.11561503168E+03  0.17770000000E+01 0.  1.
         15    1    1    2    0    0 -0.19188214207E+01 -0.19059416743E+02  0.66178248958E+02  0.68917788752E+02  0.17770000000E+01 0. -1.
</event>
<event>
 7    1  0.4166661E-008  0.1997241E+03  0.7546771E-02  0.1055515E+00
        -11   -1    0    0    0    0  0.00000000000E+00  0.00000000000E+00  0.18250000000E+03  0.18250000000E+03  0.00000000000E+00 0.  1.
         11   -1    0    0    0    0 -0.00000000000E+00 -0.00000000000E+00 -0.18250000000E+03  0.18250000000E+03  0.00000000000E+00 0. -1.
         23    2    1    2    0    0 -0.55293178442E+02 -0.36084772928E+02  0.12105693351E+03  0.16527589997E+03  0.91114738334E+02 0.  0.
        -11    1    3    3    0    0  0.24190647158E+02  0.13348366083E+01  0.20392449933E+02  0.31667352478E+02  0.00000000000E+00 0. -1.
         11    1    3    3    0    0 -0.79483825600E+02 -0.37419609536E+02  0.10066448358E+03  0.13360854750E+03  0.00000000000E+00 0.  1.
        -15    1    1    2    0    0  0.14963067198E+02  0.61028088988E+02  0.69123849900E+01  0.63239701302E+02  0.17770000000E+01 0.  1.
         15    1    1    2    0    0  0.40330111244E+02 -0.24943316060E+02 -0.12796931850E+03  0.13648439873E+03  0.17770000000E+01 0. -1.
</event>
<event>
 7    1  0.4166661E-008  0.3650000E+03  0.7546771E-02  0.9765871E-01
        -11   -1    0    0    0    0  0.00000000000E+00  0.00000000000E+00  0.18250000000E+03  0.18250000000E+03  0.00000000000E+00 0.  1.
         11   -1    0    0    0    0 -0.00000000000E+00 -0.00000000000E+00 -0.18250000000E+03  0.18250000000E+03  0.00000000000E+00 0. -1.
         23    2    1    2    0    0 -0.16259886618E+02 -0.22050324376E+02  0.37844472968E+02  0.99624583170E+02  0.87990071711E+02 0.  0.
        -11    1    3    3    0    0 -0.38543506717E+02 -0.36673778427E+02  0.47454466397E+02  0.71291614621E+02  0.00000000000E+00 0.  1.
         11    1    3    3    0    0  0.22283620099E+02  0.14623454051E+02 -0.96099934290E+01  0.28332968549E+02  0.00000000000E+00 0. -1.
        -15    1    1    2    0    0  0.22662594530E+02 -0.89667550258E+02  0.65258883310E+02  0.11320663558E+03  0.17770000000E+01 0.  1.
         15    1    1    2    0    0 -0.64027079116E+01  0.11171787463E+03 -0.10310335628E+03  0.15216878125E+03  0.17770000000E+01 0. -1.
</event>
<event>
 7    1  0.4166661E-008  0.3650000E+03  0.7546771E-02  0.9765871E-01
        -11   -1    0    0    0    0  0.00000000000E+00  0.00000000000E+00  0.18250000000E+03  0.18250000000E+03  0.00000000000E+00 0.  1.
         11   -1    0    0    0    0 -0.00000000000E+00 -0.00000000000E+00 -0.18250000000E+03  0.18250000000E+03  0.00000000000E+00 0. -1.
         23    2    1    2    0    0  0.96624610930E+02  0.67939641892E+02 -0.32986753628E+02  0.15203684529E+03  0.89860814775E+02 0.  0.
        -11    1    3    3    0    0 -0.10280949975E+02  0.37669198651E+01  0.14882489200E+02  0.18476366051E+02  0.00000000000E+00 0.  1.
         11    1    3    3    0    0  0.10690556091E+03  0.64172722027E+02 -0.47869242828E+02  0.13356047924E+03  0.00000000000E+00 0. -1.
        -15    1    1    2    0    0 -0.10074475165E+03 -0.82042573721E+02  0.87384819304E+02  0.15658784519E+03  0.17770000000E+01 0.  1.
         15    1    1    2    0    0  0.41201407161E+01  0.14102931829E+02 -0.54398065676E+02  0.56375309524E+02  0.17770000000E+01 0. -1.
</event>
<event>
 7    1  0.4166661E-008  0.3650000E+03  0.7546771E-02  0.9765871E-01
        -11   -1    0    0    0    0  0.00000000000E+00  0.00000000000E+00  0.18250000000E+03  0.18250000000E+03  0.00000000000E+00 0. -1.
         11   -1    0    0    0    0 -0.00000000000E+00 -0.00000000000E+00 -0.18250000000E+03  0.18250000000E+03  0.00000000000E+00 0.  1.
         23    2    1    2    0    0  0.66207262149E+01  0.36998333405E+02 -0.71321590088E+02  0.12208797982E+03  0.91684213002E+02 0.  0.
        -11    1    3    3    0    0 -0.25069386375E+02 -0.17816955790E+01 -0.67306565283E+02  0.71845823139E+02  0.00000000000E+00 0.  1.
         11    1    3    3    0    0  0.31690112589E+02  0.38780028984E+02 -0.40150248056E+01  0.50242156683E+02  0.00000000000E+00 0. -1.
        -15    1    1    2    0    0 -0.11607778416E+02  0.67281590798E+02 -0.48659103569E+02  0.83859519849E+02  0.17770000000E+01 0. -1.
         15    1    1    2    0    0  0.49870522009E+01 -0.10427992420E+03  0.11998069366E+03  0.15905250033E+03  0.17770000000E+01 0.  1.
</event>
<event>
 7    1  0.4166661E-008  0.2548792E+03  0.7546771E-02  0.1022077E+00
        -11   -1    0    0    0    0  0.00000000000E+00  0.00000000000E+00  0.18250000000E+03  0.18250000000E+03  0.00000000000E+00 0. -1.
         11   -1    0    0    0    0 -0.00000000000E+00 -0.00000000000E+00 -0.18250000000E+03  0.18250000000E+03  0.00000000000E+00 0.  1.
         23    2    1    2    0    0  0.97973123877E+01 -0.11545371176E+02 -0.45523175006E+02  0.11012084032E+03  0.99120921523E+02 0.  0.
        -11    1    3    3    0    0 -0.35677974039E+01  0.40595201513E+02 -0.18296911935E+01  0.40792736291E+02  0.00000000000E+00 0. -1.
         11    1    3    3    0    0  0.13365109792E+02 -0.52140572689E+02 -0.43693483812E+02  0.69328104025E+02  0.00000000000E+00 0.  1.
        -15    1    1    2    0    0 -0.11066804460E+03  0.61577125057E+02 -0.14129864281E+02  0.12744398464E+03  0.17770000000E+01 0. -1.
         15    1    1    2    0    0  0.10087073222E+03 -0.50031753881E+02  0.59653039286E+02  0.12743517505E+03  0.17770000000E+01 0.  1.
</event>
<event>
 7    1  0.4166661E-008  0.3650000E+03  0.7546771E-02  0.9765871E-01
        -11   -1    0    0    0    0  0.00000000000E+00  0.00000000000E+00  0.18250000000E+03  0.18250000000E+03  0.00000000000E+00 0. -1.
         11   -1    0    0    0    0 -0.00000000000E+00 -0.00000000000E+00 -0.18250000000E+03  0.18250000000E+03  0.00000000000E+00 0.  1.
         23    2    1    2    0    0 -0.74091948885E+02 -0.21863124262E+02  0.13133209948E+02  0.11934846768E+03  0.90022010875E+02 0.  0.
        -11    1    3    3    0    0 -0.64915338945E+02  0.19951994237E+02 -0.13065838892E+02  0.69157786621E+02  0.00000000000E+00 0.  1.
         11    1    3    3    0    0 -0.91766099404E+01 -0.41815118499E+02  0.26199048839E+02  0.50190681059E+02  0.00000000000E+00 0. -1.
        -15    1    1    2    0    0  0.14267031047E+03  0.10624788171E+02  0.50183970256E+02  0.15162220225E+03  0.17770000000E+01 0. -1.
         15    1    1    2    0    0 -0.68578361588E+02  0.11238336091E+02 -0.63317180204E+02  0.94029330074E+02  0.17770000000E+01 0.  1.
</event>
<event>
 7    1  0.4166661E-008  0.1962160E+03  0.7546771E-02  0.1058033E+00
        -11   -1    0    0    0    0  0.00000000000E+00  0.00000000000E+00  0.18250000000E+03  0.18250000000E+03  0.00000000000E+00 0.  1.
         11   -1    0    0    0    0 -0.00000000000E+00 -0.00000000000E+00 -0.18250000000E+03  0.18250000000E+03  0.00000000000E+00 0. -1.
         23    2    1    2    0    0  0.14556862311E+03  0.15675529412E+02 -0.26564942632E+02  0.16878400614E+03  0.79664284930E+02 0.  0.
        -11    1    3    3    0    0  0.10243425907E+03 -0.25153852481E+02 -0.49978884839E+01  0.10559579828E+03  0.00000000000E+00 0. -1.
         11    1    3    3    0    0  0.43134364044E+02  0.40829381893E+02 -0.21567054148E+02  0.63188207855E+02  0.00000000000E+00 0.  1.
        -15    1    1    2    0    0 -0.54546456800E+02  0.22518129610E+02  0.67203016967E+02  0.89452698836E+02  0.17770000000E+01 0.  1.
         15    1    1    2    0    0 -0.91022166314E+02 -0.38193659022E+02 -0.40638074336E+02  0.10676329503E+03  0.17770000000E+01 0. -1.
</event>
<event>
 7    1  0.4166661E-008  0.2500321E+03  0.7546771E-02  0.1024632E+00
        -11   -1    0    0    0    0  0.00000000000E+00  0.00000000000E+00  0.18250000000E+03  0.18250000000E+03  0.00000000000E+00 0.  1.
         11   -1    0    0    0    0 -0.00000000000E+00 -0.00000000000E+00 -0.18250000000E+03  0.18250000000E+03  0.00000000000E+00 0. -1.
         23    2    1    2    0    0  0.33543682500E+01 -0.36926673269E+02  0.58123598582E+02  0.11496793459E+03  0.92002403699E+02 0.  0.
        -11    1    3    3    0    0  0.29811240936E+02  0.43747757040E+00 -0.11235469728E+02  0.31861218633E+02  0.00000000000E+00 0.  1.
         11    1    3    3    0    0 -0.26456872686E+02 -0.37364150839E+02  0.69359068310E+02  0.83106715956E+02  0.00000000000E+00 0. -1.
        -15    1    1    2    0    0  0.99528565366E+02 -0.19951463038E+02  0.26794095730E+02  0.10500036903E+03  0.17770000000E+01 0.  1.
         15    1    1    2    0    0 -0.10288293362E+03  0.56878136307E+02 -0.84917694312E+02  0.14503169638E+03  0.17770000000E+01 0. -1.
</event>
<event>
 7    1  0.4166661E-008  0.3650000E+03  0.7546771E-02  0.9765871E-01
        -11   -1    0    0    0    0  0.00000000000E+00  0.00000000000E+00  0.18250000000E+03  0.18250000000E+03  0.00000000000E+00 0.  1.
         11   -1    0    0    0    0 -0.00000000000E+00 -0.00000000000E+00 -0.18250000000E+03  0.18250000000E+03  0.00000000000E+00 0. -1.
         23    2    1    2    0    0  0.55925177864E+02  0.74951650876E+02  0.83753903374E+02  0.15524788612E+03  0.91333533422E+02 0.  0.
        -11    1    3    3    0    0  0.63800561134E+02  0.13134178619E+02  0.59988230476E+02  0.88552843233E+02  0.00000000000E+00 0. -1.
         11    1    3    3    0    0 -0.78753832691E+01  0.61817472257E+02  0.23765672897E+02  0.66695042890E+02  0.00000000000E+00 0.  1.
        -15    1    1    2    0    0 -0.33725714837E+02 -0.12679688462E+03 -0.78913473396E+02  0.15311880290E+03  0.17770000000E+01 0. -1.
         15    1    1    2    0    0 -0.22199463028E+02  0.51845233742E+02 -0.48404299776E+01  0.56633310974E+02  0.17770000000E+01 0.  1.
</event>
<event>
 7    1  0.4166661E-008  0.2452244E+03  0.7546771E-02  0.1027228E+00
        -11   -1    0    0    0    0  0.00000000000E+00  0.00000000000E+00  0.18250000000E+03  0.18250000000E+03  0.00000000000E+00 0. -1.
         11   -1    0    0    0    0 -0.00000000000E+00 -0.00000000000E+00 -0.18250000000E+03  0.18250000000E+03  0.00000000000E+00 0.  1.
         23    2    1    2    0    0 -0.12133013087E+02  0.72218430198E+02  0.15393848495E+02  0.11977557864E+03  0.93522761932E+02 0.  0.
        -11    1    3    3    0    0 -0.16889569715E+02  0.92083782244E+02 -0.93465084797E+00  0.93624537861E+02  0.00000000000E+00 0.  1.
         11    1    3    3    0    0  0.47565566276E+01 -0.19865352046E+02  0.16328499343E+02  0.26151040776E+02  0.00000000000E+00 0. -1.
        -15    1    1    2    0    0 -0.10785489104E+03 -0.45357221997E+02  0.16525412369E+02  0.11817868713E+03  0.17770000000E+01 0. -1.
         15    1    1    2    0    0  0.11998790413E+03 -0.26861208201E+02 -0.31919260864E+02  0.12704573423E+03  0.17770000000E+01 0.  1.
</event>
<event>
 7    1  0.4166661E-008  0.3650000E+03  0.7546771E-02  0.9765871E-01
        -11   -1    0    0    0    0  0.00000000000E+00  0.00000000000E+00  0.18250000000E+03  0.18250000000E+03  0.00000000000E+00 0. -1.
         11   -1    0    0    0    0 -0.00000000000E+00 -0.00000000000E+00 -0.18250000000E+03  0.18250000000E+03  0.00000000000E+00 0.  1.
         23    2    1    2    0    0 -0.43854856380E+02 -0.31673321485E+01  0.25696771380E+01  0.10169804477E+03  0.91665744138E+02 0.  0.
        -11    1    3    3    0    0 -0.43006084684E+02  0.39060426337E+02 -0.66224977752E+01  0.58473051077E+02  0.00000000000E+00 0. -1.
         11    1    3    3    0    0 -0.84877169589E+00 -0.42227758486E+02  0.91921749132E+01  0.43224993693E+02  0.00000000000E+00 0.  1.
        -15    1    1    2    0    0 -0.98205650776E+02 -0.51688327868E+02 -0.17516606096E+01  0.11100567159E+03  0.17770000000E+01 0. -1.
         15    1    1    2    0    0  0.14206050716E+03  0.54855660016E+02 -0.81801652841E+00  0.15229628364E+03  0.17770000000E+01 0.  1.
</event>
<event>
 7    1  0.4166661E-008  0.3650000E+03  0.7546771E-02  0.9765871E-01
        -11   -1    0    0    0    0  0.00000000000E+00  0.00000000000E+00  0.18250000000E+03  0.18250000000E+03  0.00000000000E+00 0.  1.
         11   -1    0    0    0    0 -0.00000000000E+00 -0.00000000000E+00 -0.18250000000E+03  0.18250000000E+03  0.00000000000E+00 0. -1.
         23    2    1    2    0    0 -0.21983703620E+02  0.44820010083E+02  0.11269883956E+03  0.15223776475E+03  0.89348710383E+02 0.  0.
        -11    1    3    3    0    0  0.29490866320E+02  0.22119511492E+02  0.15622374523E+02  0.40038014070E+02  0.00000000000E+00 0. -1.
         11    1    3    3    0    0 -0.51474569940E+02  0.22700498590E+02  0.97076465042E+02  0.11219975068E+03  0.00000000000E+00 0.  1.
        -15    1    1    2    0    0 -0.44021181794E+02  0.48682637359E+02 -0.47401574183E+02  0.80981050813E+02  0.17770000000E+01 0.  1.
         15    1    1    2    0    0  0.66004885414E+02 -0.93502647442E+02 -0.65297265382E+02  0.13178118444E+03  0.17770000000E+01 0. -1.
</event>
<event>
 7    1  0.4166661E-008  0.2163469E+03  0.7546771E-02  0.1044310E+00
        -11   -1    0    0    0    0  0.00000000000E+00  0.00000000000E+00  0.18250000000E+03  0.18250000000E+03  0.00000000000E+00 0.  1.
         11   -1    0    0    0    0 -0.00000000000E+00 -0.00000000000E+00 -0.18250000000E+03  0.18250000000E+03  0.00000000000E+00 0. -1.
         23    2    1    2    0    0 -0.43199166168E+02  0.62197690930E+02  0.98204289435E+02  0.14865314912E+03  0.81969235484E+02 0.  0.
        -11    1    3    3    0    0 -0.15239328790E+02 -0.15941207851E+02  0.28425736245E+01  0.22235995020E+02  0.00000000000E+00 0. -1.
         11    1    3    3    0    0 -0.27959837378E+02  0.78138898781E+02  0.95361715810E+02  0.12641715410E+03  0.00000000000E+00 0.  1.
        -15    1    1    2    0    0 -0.54134623245E+02 -0.19807528378E+02 -0.93757303809E+02  0.11007490795E+03  0.17770000000E+01 0. -1.
         15    1    1    2    0    0  0.97333789414E+02 -0.42390162552E+02 -0.44469856260E+01  0.10627194292E+03  0.17770000000E+01 0.  1.
</event>
<event>
 7    1  0.4166661E-008  0.1877263E+03  0.7546771E-02  0.1064369E+00
        -11   -1    0    0    0    0  0.00000000000E+00  0.00000000000E+00  0.18250000000E+03  0.18250000000E+03  0.00000000000E+00 0.  1.
         11   -1    0    0    0    0 -0.00000000000E+00 -0.00000000000E+00 -0.18250000000E+03  0.18250000000E+03  0.00000000000E+00 0. -1.
         23    2    1    2    0    0 -0.10391479382E+03 -0.94424143456E+02  0.61811801584E+02  0.17727366463E+03  0.88831582875E+02 0.  0.
        -11    1    3    3    0    0 -0.11367130419E+03 -0.61242853867E+02  0.60685246076E+02  0.14266937876E+03  0.00000000000E+00 0.  1.
         11    1    3    3    0    0  0.97565103692E+01 -0.33181289588E+02  0.11265555082E+01  0.34604285871E+02  0.00000000000E+00 0. -1.
        -15    1    1    2    0    0 -0.15094979949E+02  0.48150417822E+00  0.11727910631E+02  0.19203954872E+02  0.17770000000E+01 0.  1.
         15    1    1    2    0    0  0.11900977377E+03  0.93942639278E+02 -0.73539712215E+02  0.16852238050E+03  0.17770000000E+01 0. -1.
</event>
<event>
 7    1  0.4166661E-008  0.2440529E+03  0.7546771E-02  0.1027870E+00
        -11   -1    0    0    0    0  0.00000000000E+00  0.00000000000E+00  0.18250000000E+03  0.18250000000E+03  0.00000000000E+00 0. -1.
         11   -1    0    0    0    0 -0.00000000000E+00 -0.00000000000E+00 -0.18250000000E+03  0.18250000000E+03  0.00000000000E+00 0.  1.
         23    2    1    2    0    0 -0.53747501651E+02 -0.56811674856E+02 -0.49511792084E+01  0.12094709395E+03  0.92126679230E+02 0.  0.
        -11    1    3    3    0    0  0.41473407732E+01 -0.60966629289E+02  0.75506320823E+01  0.61572253225E+02  0.00000000000E+00 0. -1.
         11    1    3    3    0    0 -0.57894842425E+02  0.41549544329E+01 -0.12501811291E+02  0.59374840726E+02  0.00000000000E+00 0.  1.
        -15    1    1    2    0    0  0.10776059911E+03  0.49377117088E+02 -0.80056143306E+02  0.14304751037E+03  0.17770000000E+01 0.  1.
         15    1    1    2    0    0 -0.54013097460E+02  0.74345577677E+01  0.85007322514E+02  0.10100539568E+03  0.17770000000E+01 0. -1.
</event>
<event>
 7    1  0.4166661E-008  0.3650000E+03  0.7546771E-02  0.9765871E-01
        -11   -1    0    0    0    0  0.00000000000E+00  0.00000000000E+00  0.18250000000E+03  0.18250000000E+03  0.00000000000E+00 0.  1.
         11   -1    0    0    0    0 -0.00000000000E+00 -0.00000000000E+00 -0.18250000000E+03  0.18250000000E+03  0.00000000000E+00 0. -1.
         23    2    1    2    0    0 -0.50862375489E+02  0.21161362155E+02  0.14777918141E+02  0.10776144030E+03  0.91429517451E+02 0.  0.
        -11    1    3    3    0    0  0.10965307593E+02  0.21460630148E+02 -0.24616320729E+02  0.34449381173E+02  0.00000000000E+00 0. -1.
         11    1    3    3    0    0 -0.61827683082E+02 -0.29926799333E+00  0.39394238870E+02  0.73312059122E+02  0.00000000000E+00 0.  1.
        -15    1    1    2    0    0  0.67546321548E+02 -0.12777909282E+03 -0.31727834898E+02  0.14798586200E+03  0.17770000000E+01 0.  1.
         15    1    1    2    0    0 -0.16683946059E+02  0.10661773066E+03  0.16949916757E+02  0.10925269770E+03  0.17770000000E+01 0. -1.
</event>
<event>
 7    1  0.4166661E-008  0.3650000E+03  0.7546771E-02  0.9765871E-01
        -11   -1    0    0    0    0  0.00000000000E+00  0.00000000000E+00  0.18250000000E+03  0.18250000000E+03  0.00000000000E+00 0.  1.
         11   -1    0    0    0    0 -0.00000000000E+00 -0.00000000000E+00 -0.18250000000E+03  0.18250000000E+03  0.00000000000E+00 0. -1.
         23    2    1    2    0    0  0.23342385943E+02  0.14387111277E+02  0.25877959055E+01  0.94450889268E+02  0.90346100322E+02 0.  0.
        -11    1    3    3    0    0 -0.23686675236E+02  0.97640972130E+01  0.30291382310E+02  0.39673215402E+02  0.00000000000E+00 0.  1.
         11    1    3    3    0    0  0.47029061179E+02  0.46230140636E+01 -0.27703586404E+02  0.54777673865E+02  0.00000000000E+00 0. -1.
        -15    1    1    2    0    0 -0.54268308482E+02 -0.10397929548E+03 -0.85061567801E+02  0.14489779584E+03  0.17770000000E+01 0. -1.
         15    1    1    2    0    0  0.30925922539E+02  0.89592184200E+02  0.82473771896E+02  0.12565131489E+03  0.17770000000E+01 0.  1.
</event>
<event>
 7    1  0.4166661E-008  0.2009407E+03  0.7546771E-02  0.1054655E+00
        -11   -1    0    0    0    0  0.00000000000E+00  0.00000000000E+00  0.18250000000E+03  0.18250000000E+03  0.00000000000E+00 0.  1.
         11   -1    0    0    0    0 -0.00000000000E+00 -0.00000000000E+00 -0.18250000000E+03  0.18250000000E+03  0.00000000000E+00 0. -1.
         23    2    1    2    0    0  0.99705550965E+02  0.30112030895E+02  0.87130798284E+02  0.16405929003E+03  0.92063800364E+02 0.  0.
        -11    1    3    3    0    0  0.10812201716E+03  0.47380503281E+02  0.65022930294E+02  0.13477115474E+03  0.00000000000E+00 0.  1.
         11    1    3    3    0    0 -0.84164661937E+01 -0.17268472386E+02  0.22107867990E+02  0.29288135291E+02  0.00000000000E+00 0. -1.
        -15    1    1    2    0    0 -0.43951050642E+02  0.29727734545E+02 -0.10458776325E+03  0.11729105253E+03  0.17770000000E+01 0.  1.
         15    1    1    2    0    0 -0.55754500322E+02 -0.59839765441E+02  0.17456964967E+02  0.83649657435E+02  0.17770000000E+01 0. -1.
</event>
<event>
 7    1  0.4166661E-008  0.3650000E+03  0.7546771E-02  0.9765871E-01
        -11   -1    0    0    0    0  0.00000000000E+00  0.00000000000E+00  0.18250000000E+03  0.18250000000E+03  0.00000000000E+00 0.  1.
         11   -1    0    0    0    0 -0.00000000000E+00 -0.00000000000E+00 -0.18250000000E+03  0.18250000000E+03  0.00000000000E+00 0. -1.
         23    2    1    2    0    0 -0.90150581504E+02  0.20367550086E+02 -0.19567622356E+02  0.12759484651E+03  0.85764727997E+02 0.  0.
        -11    1    3    3    0    0 -0.74720816730E+02 -0.21581165700E+02 -0.26911069563E+02  0.82299166647E+02  0.00000000000E+00 0. -1.
         11    1    3    3    0    0 -0.15429764775E+02  0.41948715786E+02  0.73434472070E+01  0.45295679860E+02  0.00000000000E+00 0.  1.
        -15    1    1    2    0    0  0.15300950600E+03 -0.57563244665E+02  0.11325305826E+02  0.16388061613E+03  0.17770000000E+01 0.  1.
         15    1    1    2    0    0 -0.62858924493E+02  0.37195694579E+02  0.82423165299E+01  0.73524537363E+02  0.17770000000E+01 0. -1.
</event>
<event>
 7    1  0.4166661E-008  0.2321472E+03  0.7546771E-02  0.1034629E+00
        -11   -1    0    0    0    0  0.00000000000E+00  0.00000000000E+00  0.18250000000E+03  0.18250000000E+03  0.00000000000E+00 0.  1.
         11   -1    0    0    0    0 -0.00000000000E+00 -0.00000000000E+00 -0.18250000000E+03  0.18250000000E+03  0.00000000000E+00 0. -1.
         23    2    1    2    0    0 -0.35457618756E+02 -0.87300914975E+02 -0.28377018806E+02  0.13285282903E+03  0.89252039200E+02 0.  0.
        -11    1    3    3    0    0 -0.63375001605E+02 -0.42589975599E+02 -0.98914732903E+01  0.76994403003E+02  0.00000000000E+00 0.  1.
         11    1    3    3    0    0  0.27917382849E+02 -0.44710939376E+02 -0.18485545516E+02  0.55858426026E+02  0.00000000000E+00 0. -1.
        -15    1    1    2    0    0  0.80353653286E+02 -0.40527248978E+02  0.34786276332E+02  0.96500830339E+02  0.17770000000E+01 0.  1.
         15    1    1    2    0    0 -0.44896034530E+02  0.12782816395E+03 -0.64092575256E+01  0.13564634063E+03  0.17770000000E+01 0. -1.
</event>
<event>
 7    1  0.4166661E-008  0.3650000E+03  0.7546771E-02  0.9765871E-01
        -11   -1    0    0    0    0  0.00000000000E+00  0.00000000000E+00  0.18250000000E+03  0.18250000000E+03  0.00000000000E+00 0.  1.
         11   -1    0    0    0    0 -0.00000000000E+00 -0.00000000000E+00 -0.18250000000E+03  0.18250000000E+03  0.00000000000E+00 0. -1.
         23    2    1    2    0    0  0.37079492190E+02  0.40265410187E+02  0.36044181091E+02  0.10616363525E+03  0.83518515674E+02 0.  0.
        -11    1    3    3    0    0  0.54194163922E+02  0.54753043638E+02  0.23886266410E+02  0.80656412726E+02  0.00000000000E+00 0. -1.
         11    1    3    3    0    0 -0.17114671732E+02 -0.14487633451E+02  0.12157914681E+02  0.25507222524E+02  0.00000000000E+00 0.  1.
        -15    1    1    2    0    0 -0.13887997847E+03 -0.23798466149E+02 -0.59666111630E+02  0.15302685391E+03  0.17770000000E+01 0.  1.
         15    1    1    2    0    0  0.10180048628E+03 -0.16466944039E+02  0.23621930539E+02  0.10580951084E+03  0.17770000000E+01 0. -1.
</event>
<event>
 7    1  0.4166661E-008  0.2680213E+03  0.7546771E-02  0.1015450E+00
        -11   -1    0    0    0    0  0.00000000000E+00  0.00000000000E+00  0.18250000000E+03  0.18250000000E+03  0.00000000000E+00 0.  1.
         11   -1    0    0    0    0 -0.00000000000E+00 -0.00000000000E+00 -0.18250000000E+03  0.18250000000E+03  0.00000000000E+00 0. -1.
         23    2    1    2    0    0  0.24073019159E+02 -0.18596224905E+02  0.29174478673E+00  0.96978689172E+02  0.92083935659E+02 0.  0.
        -11    1    3    3    0    0  0.44435783066E+01 -0.34243170814E+02 -0.37902852773E+02  0.51273447162E+02  0.00000000000E+00 0. -1.
         11    1    3    3    0    0  0.19629440852E+02  0.15646945909E+02  0.38194597560E+02  0.45705242010E+02  0.00000000000E+00 0.  1.
        -15    1    1    2    0    0  0.83180908871E+01  0.14099179463E+03  0.43442166550E+01  0.14131492043E+03  0.17770000000E+01 0.  1.
         15    1    1    2    0    0 -0.32391110046E+02 -0.12239556973E+03 -0.46359614417E+01  0.12670639039E+03  0.17770000000E+01 0. -1.
</event>
<event>
 7    1  0.4166661E-008  0.2702679E+03  0.7546771E-02  0.1014358E+00
        -11   -1    0    0    0    0  0.00000000000E+00  0.00000000000E+00  0.18250000000E+03  0.18250000000E+03  0.00000000000E+00 0. -1.
         11   -1    0    0    0    0 -0.00000000000E+00 -0.00000000000E+00 -0.18250000000E+03  0.18250000000E+03  0.00000000000E+00 0.  1.
         23    2    1    2    0    0  0.34753085073E+02 -0.28588135418E+02 -0.21883364712E+02  0.94732122262E+02  0.80437770533E+02 0.  0.
        -11    1    3    3    0    0 -0.11588639027E+02  0.18218071305E+02  0.71586070334E+01  0.22747314814E+02  0.00000000000E+00 0. -1.
         11    1    3    3    0    0  0.46341724100E+02 -0.46806206724E+02 -0.29041971746E+02  0.71984807448E+02  0.00000000000E+00 0.  1.
        -15    1    1    2    0    0 -0.15934870376E+01  0.12680066661E+02  0.14304966249E+03  0.14363038313E+03  0.17770000000E+01 0. -1.
         15    1    1    2    0    0 -0.33159598035E+02  0.15908068757E+02 -0.12116629778E+03  0.12663749460E+03  0.17770000000E+01 0.  1.
</event>
<event>
 7    1  0.4166661E-008  0.2106309E+03  0.7546771E-02  0.1048035E+00
        -11   -1    0    0    0    0  0.00000000000E+00  0.00000000000E+00  0.18250000000E+03  0.18250000000E+03  0.00000000000E+00 0.  1.
         11   -1    0    0    0    0 -0.00000000000E+00 -0.00000000000E+00 -0.18250000000E+03  0.18250000000E+03  0.00000000000E+00 0. -1.
         23    2    1    2    0    0  0.24290077356E+02 -0.59898438512E+01  0.12223449094E+03  0.15436913122E+03  0.90899239889E+02 0.  0.
        -11    1    3    3    0    0  0.11872617514E+02  0.36022929668E+01 -0.13149526962E+02  0.18078872216E+02  0.00000000000E+00 0. -1.
         11    1    3    3    0    0  0.12417459842E+02 -0.95921368180E+01  0.13538401790E+03  0.13629025901E+03  0.00000000000E+00 0.  1.
        -15    1    1    2    0    0  0.58583832910E+02  0.50292910951E+02 -0.48815092409E+02  0.91364727035E+02  0.17770000000E+01 0.  1.
         15    1    1    2    0    0 -0.82873910266E+02 -0.44303067100E+02 -0.73419398527E+02  0.11926614174E+03  0.17770000000E+01 0. -1.
</event>
<event>
 7    1  0.4166661E-008  0.1958589E+03  0.7546771E-02  0.1058292E+00
        -11   -1    0    0    0    0  0.00000000000E+00  0.00000000000E+00  0.18250000000E+03  0.18250000000E+03  0.00000000000E+00 0. -1.
         11   -1    0    0    0    0 -0.00000000000E+00 -0.00000000000E+00 -0.18250000000E+03  0.18250000000E+03  0.00000000000E+00 0.  1.
         23    2    1    2    0    0  0.52860797248E+02  0.20403380403E+02  0.13283939595E+03  0.16914107640E+03  0.88044515980E+02 0.  0.
        -11    1    3    3    0    0  0.25014161092E+02  0.46260297913E+02  0.11641632634E+03  0.12774382355E+03  0.00000000000E+00 0. -1.
         11    1    3    3    0    0  0.27846636156E+02 -0.25856917510E+02  0.16423069611E+02  0.41397252853E+02  0.00000000000E+00 0.  1.
        -15    1    1    2    0    0 -0.58235629931E+02  0.31668549519E+02 -0.16594097681E+02  0.68357936108E+02  0.17770000000E+01 0. -1.
         15    1    1    2    0    0  0.53748326832E+01 -0.52071929922E+02 -0.11624529827E+03  0.12750098749E+03  0.17770000000E+01 0.  1.
</event>
<event>
 7    1  0.4780122E-008  0.3650000E+03  0.7546771E-02  0.9765871E-01
        -11   -1    0    0    0    0  0.00000000000E+00  0.00000000000E+00  0.18250000000E+03  0.18250000000E+03  0.00000000000E+00 0.  1.
         11   -1    0    0    0    0 -0.00000000000E+00 -0.00000000000E+00 -0.18250000000E+03  0.18250000000E+03  0.00000000000E+00 0. -1.
         23    2    1    2    0    0  0.23432207166E+02 -0.51076176400E+02 -0.60543556094E+02  0.12339825613E+03  0.91672042103E+02 0.  0.
        -11    1    3    3    0    0  0.45983179163E+02 -0.57087246985E+01 -0.25708751071E+01  0.46407453091E+02  0.00000000000E+00 0.  1.
         11    1    3    3    0    0 -0.22550971997E+02 -0.45367451702E+02 -0.57972680987E+02  0.76990803040E+02  0.00000000000E+00 0. -1.
        -15    1    1    2    0    0  0.51730567438E+01  0.12813801532E+03  0.87290634007E+02  0.15514162562E+03  0.17770000000E+01 0.  1.
         15    1    1    2    0    0 -0.28605263909E+02 -0.77061838921E+02 -0.26747077913E+02  0.86460118246E+02  0.17770000000E+01 0. -1.
</event>
<event>
 7    1  0.4166661E-008  0.1842303E+03  0.7546771E-02  0.1067086E+00
        -11   -1    0    0    0    0  0.00000000000E+00  0.00000000000E+00  0.18250000000E+03  0.18250000000E+03  0.00000000000E+00 0. -1.
         11   -1    0    0    0    0 -0.00000000000E+00 -0.00000000000E+00 -0.18250000000E+03  0.18250000000E+03  0.00000000000E+00 0.  1.
         23    2    1    2    0    0 -0.66467920514E+02  0.11381871684E+03  0.90915783616E+02  0.18423032154E+03  0.91117763932E+02 0.  0.
        -11    1    3    3    0    0 -0.12486494866E+02 -0.15477508935E+02  0.80979306271E+01  0.21471895988E+02  0.00000000000E+00 0.  1.
         11    1    3    3    0    0 -0.53981425648E+02  0.12929622578E+03  0.82817852989E+02  0.16275842556E+03  0.00000000000E+00 0. -1.
        -15    1    1    2    0    0  0.66916246195E+02 -0.12657855782E+03 -0.85609918679E+02  0.16682964727E+03  0.17770000000E+01 0.  1.
         15    1    1    2    0    0 -0.44832568037E+00  0.12759840975E+02 -0.53058649371E+01  0.13940031182E+02  0.17770000000E+01 0. -1.
</event>
<event>
 7    1  0.6893018E-008  0.3650000E+03  0.7546771E-02  0.9765871E-01
        -11   -1    0    0    0    0  0.00000000000E+00  0.00000000000E+00  0.18250000000E+03  0.18250000000E+03  0.00000000000E+00 0. -1.
         11   -1    0    0    0    0 -0.00000000000E+00 -0.00000000000E+00 -0.18250000000E+03  0.18250000000E+03  0.00000000000E+00 0.  1.
         23    2    1    2    0    0 -0.13170778962E+02  0.12448733608E+02  0.10100608159E+03  0.13736757410E+03  0.91319119072E+02 0.  0.
        -11    1    3    3    0    0  0.44331989867E+01  0.31955698117E+02  0.10584263725E+03  0.11065027680E+03  0.00000000000E+00 0. -1.
         11    1    3    3    0    0 -0.17603977948E+02 -0.19506964509E+02 -0.48365556663E+01  0.26717297293E+02  0.00000000000E+00 0.  1.
        -15    1    1    2    0    0  0.35634629639E+02  0.72883393522E+02  0.14328933686E+02  0.82403227791E+02  0.17770000000E+01 0. -1.
         15    1    1    2    0    0 -0.22463850677E+02 -0.85332127130E+02 -0.11533501527E+03  0.14522919811E+03  0.17770000000E+01 0.  1.
</event>
<event>
 7    1  0.4166661E-008  0.1937267E+03  0.7546771E-02  0.1059854E+00
        -11   -1    0    0    0    0  0.00000000000E+00  0.00000000000E+00  0.18250000000E+03  0.18250000000E+03  0.00000000000E+00 0.  1.
         11   -1    0    0    0    0 -0.00000000000E+00 -0.00000000000E+00 -0.18250000000E+03  0.18250000000E+03  0.00000000000E+00 0. -1.
         23    2    1    2    0    0  0.41009680631E+02 -0.10084491491E+03  0.96134520672E+02  0.17127334483E+03  0.90781175446E+02 0.  0.
        -11    1    3    3    0    0  0.37786374125E+02 -0.58858304020E+02  0.41012951207E+01  0.70063761270E+02  0.00000000000E+00 0. -1.
         11    1    3    3    0    0  0.32233065062E+01 -0.41986610894E+02  0.92033225552E+02  0.10120958356E+03  0.00000000000E+00 0.  1.
        -15    1    1    2    0    0 -0.43197054120E+01 -0.30495328822E+02 -0.10034471335E+02  0.32441844565E+02  0.17770000000E+01 0.  1.
         15    1    1    2    0    0 -0.36689975219E+02  0.13134024374E+03 -0.86100049338E+02  0.16128481060E+03  0.17770000000E+01 0. -1.
</event>
<event>
 7    1  0.4166661E-008  0.1827986E+03  0.7546771E-02  0.1068217E+00
        -11   -1    0    0    0    0  0.00000000000E+00  0.00000000000E+00  0.18250000000E+03  0.18250000000E+03  0.00000000000E+00 0.  1.
         11   -1    0    0    0    0 -0.00000000000E+00 -0.00000000000E+00 -0.18250000000E+03  0.18250000000E+03  0.00000000000E+00 0. -1.
         23    2    1    2    0    0  0.25166464340E+02  0.73681899171E+01  0.15566794071E+03  0.18220144066E+03  0.90979206781E+02 0.  0.
        -11    1    3    3    0    0  0.46301632051E+02 -0.17426448807E+02  0.13459741351E+03  0.14340148526E+03  0.00000000000E+00 0.  1.
         11    1    3    3    0    0 -0.21135167711E+02  0.24794638724E+02  0.21070527192E+02  0.38799955410E+02  0.00000000000E+00 0. -1.
        -15    1    1    2    0    0  0.34592981374E+02  0.41295387356E+01 -0.53576167617E+02  0.63931924076E+02  0.17770000000E+01 0.  1.
         15    1    1    2    0    0 -0.59759445714E+02 -0.11497728653E+02 -0.10209177309E+03  0.11886663526E+03  0.17770000000E+01 0. -1.
</event>
