<event>
 7    1  0.2288857E-006  0.5108028E+03  0.7546771E-02  0.9375957E-01
        -11   -1    0    0    0    0  0.00000000000E+00  0.00000000000E+00  0.50000000000E+03  0.50000000000E+03  0.00000000000E+00 0.  1.
         11   -1    0    0    0    0 -0.00000000000E+00 -0.00000000000E+00 -0.50000000000E+03  0.50000000000E+03  0.00000000000E+00 0.  1.
         23    2    1    2    0    0 -0.50229798675E+02 -0.10395928158E+02 -0.26621288714E+03  0.28640112936E+03  0.92331996754E+02 0.  0.
        -11    1    1    2    0    0  0.77353515642E+02 -0.50990243463E+02  0.48034400555E+03  0.48919723526E+03  0.00000000000E+00 0.  1.
         11    1    1    2    0    0 -0.27123716966E+02  0.61386171621E+02 -0.21413111842E+03  0.22440163538E+03  0.00000000000E+00 0.  1.
        -15    1    3    3    0    0  0.22755602365E+01 -0.14076082179E+02  0.65733811382E+00  0.14384160952E+02  0.17770000000E+01 0. -1.
         15    1    3    3    0    0 -0.52505358912E+02  0.36801540214E+01 -0.26687022525E+03  0.27201696841E+03  0.17770000000E+01 0.  1.
</event>
<event>
 7    1  0.2288857E-006  0.3859515E+03  0.7546771E-02  0.9698845E-01
        -11   -1    0    0    0    0  0.00000000000E+00  0.00000000000E+00  0.50000000000E+03  0.50000000000E+03  0.00000000000E+00 0.  1.
         11   -1    0    0    0    0 -0.00000000000E+00 -0.00000000000E+00 -0.50000000000E+03  0.50000000000E+03  0.00000000000E+00 0. -1.
         23    2    1    2    0    0 -0.14339332912E+03 -0.36656632077E+02  0.40124562831E+03  0.43742056076E+03  0.91833203272E+02 0.  0.
        -11    1    1    2    0    0  0.92217968744E+02  0.17150685498E+03 -0.80150962840E+02  0.21057761493E+03  0.00000000000E+00 0.  1.
         11    1    1    2    0    0  0.51175360372E+02 -0.13485022290E+03 -0.32109466547E+03  0.35200182431E+03  0.00000000000E+00 0. -1.
        -15    1    3    3    0    0 -0.11858821028E+03 -0.65724950818E+02  0.30136801953E+03  0.33046750779E+03  0.17770000000E+01 0. -1.
         15    1    3    3    0    0 -0.24805118833E+02  0.29068318740E+02  0.99877608783E+02  0.10695305297E+03  0.17770000000E+01 0.  1.
</event>
<event>
 7    1  0.2288857E-006  0.5298588E+03  0.7546771E-02  0.9335370E-01
        -11   -1    0    0    0    0  0.00000000000E+00  0.00000000000E+00  0.50000000000E+03  0.50000000000E+03  0.00000000000E+00 0.  1.
         11   -1    0    0    0    0 -0.00000000000E+00 -0.00000000000E+00 -0.50000000000E+03  0.50000000000E+03  0.00000000000E+00 0. -1.
         23    2    1    2    0    0 -0.16733736447E+02 -0.85936896703E+02  0.15293113163E+03  0.19908075205E+03  0.92628541307E+02 0.  0.
        -11    1    1    2    0    0 -0.16680338193E+03  0.60513664124E+02  0.27915741314E+03  0.33077807225E+03  0.00000000000E+00 0.  1.
         11    1    1    2    0    0  0.18353711838E+03  0.25423232578E+02 -0.43208854476E+03  0.47014117571E+03  0.00000000000E+00 0. -1.
        -15    1    3    3    0    0  0.43187073922E+01 -0.10118137881E+03  0.12496888839E+03  0.16086237424E+03  0.17770000000E+01 0.  1.
         15    1    3    3    0    0 -0.21052443839E+02  0.15244482109E+02  0.27962243238E+02  0.38218377808E+02  0.17770000000E+01 0. -1.
</event>
<event>
 7    1  0.2288857E-006  0.4185176E+03  0.7546771E-02  0.9603216E-01
        -11   -1    0    0    0    0  0.00000000000E+00  0.00000000000E+00  0.50000000000E+03  0.50000000000E+03  0.00000000000E+00 0. -1.
         11   -1    0    0    0    0 -0.00000000000E+00 -0.00000000000E+00 -0.50000000000E+03  0.50000000000E+03  0.00000000000E+00 0.  1.
         23    2    1    2    0    0 -0.68497131715E+02  0.42152813415E+02  0.51507234895E+02  0.15753358951E+03  0.12528016542E+03 0.  0.
        -11    1    1    2    0    0  0.79346792465E+02 -0.11744180323E+03  0.37934123216E+03  0.40495464071E+03  0.00000000000E+00 0. -1.
         11    1    1    2    0    0 -0.10849660750E+02  0.75288989818E+02 -0.43084846705E+03  0.43751176977E+03  0.00000000000E+00 0.  1.
        -15    1    3    3    0    0 -0.81843821763E+02  0.76373368516E+02  0.35760705989E+02  0.11752994683E+03  0.17770000000E+01 0. -1.
         15    1    3    3    0    0  0.13346690049E+02 -0.34220555101E+02  0.15746528906E+02  0.40003642687E+02  0.17770000000E+01 0.  1.
</event>
<event>
 7    1  0.2288857E-006  0.5261111E+03  0.7546771E-02  0.9343208E-01
        -11   -1    0    0    0    0  0.00000000000E+00  0.00000000000E+00  0.50000000000E+03  0.50000000000E+03  0.00000000000E+00 0.  1.
         11   -1    0    0    0    0 -0.00000000000E+00 -0.00000000000E+00 -0.50000000000E+03  0.50000000000E+03  0.00000000000E+00 0. -1.
         23    2    1    2    0    0 -0.36065138113E+02 -0.79539119478E+02  0.16239482016E+03  0.20511901253E+03  0.89858588757E+02 0.  0.
        -11    1    1    2    0    0 -0.50922491352E+02  0.92017858907E+02  0.30327470343E+03  0.32099210617E+03  0.00000000000E+00 0.  1.
         11    1    1    2    0    0  0.86987629464E+02 -0.12478739428E+02 -0.46566952359E+03  0.47388888130E+03  0.00000000000E+00 0. -1.
        -15    1    3    3    0    0 -0.62258259465E+02 -0.70231935298E+02  0.10206141773E+03  0.13866616864E+03  0.17770000000E+01 0. -1.
         15    1    3    3    0    0  0.26193121353E+02 -0.93071841803E+01  0.60333402436E+02  0.66452843898E+02  0.17770000000E+01 0.  1.
</event>
<event>
 7    1  0.2288857E-006  0.5205147E+03  0.7546771E-02  0.9355041E-01
        -11   -1    0    0    0    0  0.00000000000E+00  0.00000000000E+00  0.50000000000E+03  0.50000000000E+03  0.00000000000E+00 0.  1.
         11   -1    0    0    0    0 -0.00000000000E+00 -0.00000000000E+00 -0.50000000000E+03  0.50000000000E+03  0.00000000000E+00 0. -1.
         23    2    1    2    0    0  0.42275608687E+00 -0.13066836091E+02  0.17096493078E+03  0.19401922977E+03  0.90793904193E+02 0.  0.
        -11    1    1    2    0    0  0.78645455332E+02  0.13846964818E+03  0.28502688084E+03  0.32649544241E+03  0.00000000000E+00 0.  1.
         11    1    1    2    0    0 -0.79068211419E+02 -0.12540281209E+03 -0.45599181161E+03  0.47948532782E+03  0.00000000000E+00 0. -1.
        -15    1    3    3    0    0  0.30814785896E+02 -0.39593144596E+02  0.79308772306E+02  0.93862704109E+02  0.17770000000E+01 0.  1.
         15    1    3    3    0    0 -0.30392029809E+02  0.26526308505E+02  0.91656158469E+02  0.10015652566E+03  0.17770000000E+01 0. -1.
</event>
<event>
 7    1  0.2288857E-006  0.4901420E+03  0.7546771E-02  0.9422142E-01
        -11   -1    0    0    0    0  0.00000000000E+00  0.00000000000E+00  0.50000000000E+03  0.50000000000E+03  0.00000000000E+00 0.  1.
         11   -1    0    0    0    0 -0.00000000000E+00 -0.00000000000E+00 -0.50000000000E+03  0.50000000000E+03  0.00000000000E+00 0.  1.
         23    2    1    2    0    0 -0.60085439324E+02  0.28189098261E+02  0.46676077879E+03  0.47998164911E+03  0.90065940204E+02 0.  0.
        -11    1    1    2    0    0 -0.19485174791E+02  0.84492403935E+01  0.17733466627E+02  0.27668349038E+02  0.00000000000E+00 0.  1.
         11    1    1    2    0    0  0.79570614115E+02 -0.36638338654E+02 -0.48449424541E+03  0.49235000186E+03  0.00000000000E+00 0.  1.
        -15    1    3    3    0    0 -0.74564736785E+02  0.38913626567E+02  0.43792841255E+03  0.44593567087E+03  0.17770000000E+01 0.  1.
         15    1    3    3    0    0  0.14479297461E+02 -0.10724528305E+02  0.28832366234E+02  0.34045978235E+02  0.17770000000E+01 0. -1.
</event>
<event>
 7    1  0.2288857E-006  0.3537461E+03  0.7546771E-02  0.9803896E-01
        -11   -1    0    0    0    0  0.00000000000E+00  0.00000000000E+00  0.50000000000E+03  0.50000000000E+03  0.00000000000E+00 0. -1.
         11   -1    0    0    0    0 -0.00000000000E+00 -0.00000000000E+00 -0.50000000000E+03  0.50000000000E+03  0.00000000000E+00 0.  1.
         23    2    1    2    0    0 -0.37116971278E+02  0.18594602621E+03 -0.25689561248E+03  0.33202237012E+03  0.91048911738E+02 0.  0.
        -11    1    1    2    0    0 -0.13022031222E+03 -0.38477138601E+02  0.38674461045E+03  0.40988926995E+03  0.00000000000E+00 0. -1.
         11    1    1    2    0    0  0.16733728350E+03 -0.14746888761E+03 -0.12984899797E+03  0.25808835993E+03  0.00000000000E+00 0.  1.
        -15    1    3    3    0    0  0.19395971661E+02  0.51323091976E+02 -0.11960364529E+03  0.13159959415E+03  0.17770000000E+01 0. -1.
         15    1    3    3    0    0 -0.56512942939E+02  0.13462293423E+03 -0.13729196719E+03  0.20042277596E+03  0.17770000000E+01 0.  1.
</event>
<event>
 7    1  0.2288857E-006  0.5322065E+03  0.7546771E-02  0.9330495E-01
        -11   -1    0    0    0    0  0.00000000000E+00  0.00000000000E+00  0.50000000000E+03  0.50000000000E+03  0.00000000000E+00 0.  1.
         11   -1    0    0    0    0 -0.00000000000E+00 -0.00000000000E+00 -0.50000000000E+03  0.50000000000E+03  0.00000000000E+00 0. -1.
         23    2    1    2    0    0 -0.80567456609E+02  0.34862178499E+02  0.87567298381E+02  0.15395098787E+03  0.91249045839E+02 0.  0.
        -11    1    1    2    0    0  0.59524560722E+02  0.98397573309E+02  0.36034983617E+03  0.37825554879E+03  0.00000000000E+00 0.  1.
         11    1    1    2    0    0  0.21042895888E+02 -0.13325975181E+03 -0.44791713455E+03  0.46779346334E+03  0.00000000000E+00 0. -1.
        -15    1    3    3    0    0  0.16342736331E+02 -0.97471092547E+01  0.19969421826E+02  0.27641033025E+02  0.17770000000E+01 0. -1.
         15    1    3    3    0    0 -0.96910192940E+02  0.44609287754E+02  0.67597876555E+02  0.12630995485E+03  0.17770000000E+01 0.  1.
</event>
<event>
 7    1  0.2288857E-006  0.5126848E+03  0.7546771E-02  0.9371865E-01
        -11   -1    0    0    0    0  0.00000000000E+00  0.00000000000E+00  0.50000000000E+03  0.50000000000E+03  0.00000000000E+00 0.  1.
         11   -1    0    0    0    0 -0.00000000000E+00 -0.00000000000E+00 -0.50000000000E+03  0.50000000000E+03  0.00000000000E+00 0. -1.
         23    2    1    2    0    0  0.21176366387E+02 -0.48250328694E+01  0.18612052898E+03  0.20820612575E+03  0.90759132073E+02 0.  0.
        -11    1    1    2    0    0  0.97320919656E+02 -0.61284520630E+02  0.28192219994E+03  0.30447870318E+03  0.00000000000E+00 0.  1.
         11    1    1    2    0    0 -0.11849728604E+03  0.66109553499E+02 -0.46804272892E+03  0.48731517107E+03  0.00000000000E+00 0. -1.
        -15    1    3    3    0    0  0.26605471473E+02  0.22204936879E+02  0.17502948114E+03  0.17843594742E+03  0.17770000000E+01 0.  1.
         15    1    3    3    0    0 -0.54291050866E+01 -0.27029969749E+02  0.11091047847E+02  0.29770178334E+02  0.17770000000E+01 0. -1.
</event>
<event>
 7    1  0.2288857E-006  0.5244881E+03  0.7546771E-02  0.9346624E-01
        -11   -1    0    0    0    0  0.00000000000E+00  0.00000000000E+00  0.50000000000E+03  0.50000000000E+03  0.00000000000E+00 0.  1.
         11   -1    0    0    0    0 -0.00000000000E+00 -0.00000000000E+00 -0.50000000000E+03  0.50000000000E+03  0.00000000000E+00 0.  1.
         23    2    1    2    0    0  0.26370351159E+02  0.25758221328E+02  0.76025167871E+02  0.13213474190E+03  0.10159174416E+03 0.  0.
        -11    1    1    2    0    0  0.89459610077E+02  0.54977095202E+02  0.37804182619E+03  0.39235331677E+03  0.00000000000E+00 0.  1.
         11    1    1    2    0    0 -0.11582996124E+03 -0.80735316530E+02 -0.45406699406E+03  0.47551194133E+03  0.00000000000E+00 0.  1.
        -15    1    3    3    0    0 -0.20712285394E+02 -0.21006696464E+02  0.55108451979E+02  0.62533025444E+02  0.17770000000E+01 0.  1.
         15    1    3    3    0    0  0.47082636553E+02  0.46764917792E+02  0.20916715892E+02  0.69601716455E+02  0.17770000000E+01 0. -1.
</event>
<event>
 7    1  0.2288857E-006  0.5100201E+03  0.7546771E-02  0.9377664E-01
        -11   -1    0    0    0    0  0.00000000000E+00  0.00000000000E+00  0.50000000000E+03  0.50000000000E+03  0.00000000000E+00 0. -1.
         11   -1    0    0    0    0 -0.00000000000E+00 -0.00000000000E+00 -0.50000000000E+03  0.50000000000E+03  0.00000000000E+00 0. -1.
         23    2    1    2    0    0 -0.56464093964E+02  0.83770312032E+02 -0.37484703307E+03  0.39910179565E+03  0.92554232776E+02 0.  0.
        -11    1    1    2    0    0  0.29721175859E+02 -0.80317191893E+02  0.48243770870E+03  0.48997994080E+03  0.00000000000E+00 0. -1.
         11    1    1    2    0    0  0.26742918105E+02 -0.34531201392E+01 -0.10759067563E+03  0.11091826355E+03  0.00000000000E+00 0. -1.
        -15    1    3    3    0    0 -0.51993434335E+01  0.79009129810E+02 -0.16499622483E+03  0.18302018387E+03  0.17770000000E+01 0.  1.
         15    1    3    3    0    0 -0.51264750530E+02  0.47611822223E+01 -0.20985080824E+03  0.21608161178E+03  0.17770000000E+01 0. -1.
</event>
<event>
 7    1  0.2288857E-006  0.5256272E+03  0.7546771E-02  0.9344225E-01
        -11   -1    0    0    0    0  0.00000000000E+00  0.00000000000E+00  0.50000000000E+03  0.50000000000E+03  0.00000000000E+00 0. -1.
         11   -1    0    0    0    0 -0.00000000000E+00 -0.00000000000E+00 -0.50000000000E+03  0.50000000000E+03  0.00000000000E+00 0.  1.
         23    2    1    2    0    0 -0.21103625082E+02 -0.39470060888E+02  0.16362057059E+03  0.18967936281E+03  0.84872379842E+02 0.  0.
        -11    1    1    2    0    0 -0.44089662756E+02  0.16541969863E+03  0.28905600244E+03  0.33594783465E+03  0.00000000000E+00 0. -1.
         11    1    1    2    0    0  0.65193287838E+02 -0.12594963774E+03 -0.45267657302E+03  0.47437280254E+03  0.00000000000E+00 0.  1.
        -15    1    3    3    0    0  0.23979259060E+02 -0.30981342184E+01  0.11380724788E+02  0.26782119528E+02  0.17770000000E+01 0.  1.
         15    1    3    3    0    0 -0.45082884142E+02 -0.36371926670E+02  0.15223984580E+03  0.16289724328E+03  0.17770000000E+01 0. -1.
</event>
<event>
 7    1  0.2288857E-006  0.3417156E+03  0.7546771E-02  0.9846258E-01
        -11   -1    0    0    0    0  0.00000000000E+00  0.00000000000E+00  0.50000000000E+03  0.50000000000E+03  0.00000000000E+00 0. -1.
         11   -1    0    0    0    0 -0.00000000000E+00 -0.00000000000E+00 -0.50000000000E+03  0.50000000000E+03  0.00000000000E+00 0.  1.
         23    2    1    2    0    0 -0.32163443494E+02 -0.43392091594E+01  0.25279439451E+03  0.27059167626E+03  0.90892978452E+02 0.  0.
        -11    1    1    2    0    0  0.24903352516E+02  0.24320942654E+03  0.13094329355E+03  0.27733940984E+03  0.00000000000E+00 0. -1.
         11    1    1    2    0    0  0.72600909781E+01 -0.23887021738E+03 -0.38373768806E+03  0.45206891390E+03  0.00000000000E+00 0.  1.
        -15    1    3    3    0    0 -0.14556307849E+02 -0.47522659000E+02  0.12392630079E+03  0.13353342268E+03  0.17770000000E+01 0.  1.
         15    1    3    3    0    0 -0.17607135644E+02  0.43183449841E+02  0.12886809372E+03  0.13705825358E+03  0.17770000000E+01 0. -1.
</event>
<event>
 7    1  0.2288857E-006  0.4877740E+03  0.7546771E-02  0.9427590E-01
        -11   -1    0    0    0    0  0.00000000000E+00  0.00000000000E+00  0.50000000000E+03  0.50000000000E+03  0.00000000000E+00 0. -1.
         11   -1    0    0    0    0 -0.00000000000E+00 -0.00000000000E+00 -0.50000000000E+03  0.50000000000E+03  0.00000000000E+00 0.  1.
         23    2    1    2    0    0 -0.48261416768E+02  0.10356791431E+03  0.46236492144E+03  0.48528825395E+03  0.93101512424E+02 0.  0.
        -11    1    1    2    0    0 -0.10677787430E+02 -0.29397636182E+02  0.10080740213E+02  0.32861185018E+02  0.00000000000E+00 0. -1.
         11    1    1    2    0    0  0.58939204198E+02 -0.74170278132E+02 -0.47244566166E+03  0.48185056103E+03  0.00000000000E+00 0.  1.
        -15    1    3    3    0    0 -0.34517263947E+02 -0.42973904899E+01  0.16563338376E+03  0.16925567825E+03  0.17770000000E+01 0.  1.
         15    1    3    3    0    0 -0.13744152821E+02  0.10786530480E+03  0.29673153768E+03  0.31603257570E+03  0.17770000000E+01 0. -1.
</event>
<event>
 7    1  0.2288857E-006  0.4084733E+03  0.7546771E-02  0.9631691E-01
        -11   -1    0    0    0    0  0.00000000000E+00  0.00000000000E+00  0.50000000000E+03  0.50000000000E+03  0.00000000000E+00 0.  1.
         11   -1    0    0    0    0 -0.00000000000E+00 -0.00000000000E+00 -0.50000000000E+03  0.50000000000E+03  0.00000000000E+00 0. -1.
         23    2    1    2    0    0 -0.10978314278E+02 -0.20295122332E+03 -0.28816355189E+03  0.36323909303E+03  0.87147482102E+02 0.  0.
        -11    1    1    2    0    0 -0.20454745840E+02  0.13107055808E+03  0.44340397191E+03  0.46282282801E+03  0.00000000000E+00 0.  1.
         11    1    1    2    0    0  0.31433060118E+02  0.71880665237E+02 -0.15524042002E+03  0.17393807896E+03  0.00000000000E+00 0. -1.
        -15    1    3    3    0    0  0.14646636978E+02 -0.38705956086E+02 -0.16173394140E+02  0.44468094386E+02  0.17770000000E+01 0.  1.
         15    1    3    3    0    0 -0.25624951257E+02 -0.16424526724E+03 -0.27199015775E+03  0.31877099864E+03  0.17770000000E+01 0. -1.
</event>
<event>
 7    1  0.2288857E-006  0.3408477E+03  0.7546771E-02  0.9849386E-01
        -11   -1    0    0    0    0  0.00000000000E+00  0.00000000000E+00  0.50000000000E+03  0.50000000000E+03  0.00000000000E+00 0. -1.
         11   -1    0    0    0    0 -0.00000000000E+00 -0.00000000000E+00 -0.50000000000E+03  0.50000000000E+03  0.00000000000E+00 0.  1.
         23    2    1    2    0    0 -0.25199132115E+03 -0.66592627374E+02 -0.11321483683E+03  0.29858240207E+03  0.91649591335E+02 0.  0.
        -11    1    1    2    0    0  0.17257350089E+03  0.10050781921E+03  0.37548780462E+03  0.42529345910E+03  0.00000000000E+00 0. -1.
         11    1    1    2    0    0  0.79417820259E+02 -0.33915191832E+02 -0.26227296779E+03  0.27612413883E+03  0.00000000000E+00 0.  1.
        -15    1    3    3    0    0 -0.17761416922E+03 -0.87934555363E+02 -0.90771469574E+02  0.21799517553E+03  0.17770000000E+01 0. -1.
         15    1    3    3    0    0 -0.74377151927E+02  0.21341927988E+02 -0.22443367256E+02  0.80587226543E+02  0.17770000000E+01 0.  1.
</event>
<event>
 7    1  0.2288857E-006  0.4454015E+03  0.7546771E-02  0.9531016E-01
        -11   -1    0    0    0    0  0.00000000000E+00  0.00000000000E+00  0.50000000000E+03  0.50000000000E+03  0.00000000000E+00 0.  1.
         11   -1    0    0    0    0 -0.00000000000E+00 -0.00000000000E+00 -0.50000000000E+03  0.50000000000E+03  0.00000000000E+00 0.  1.
         23    2    1    2    0    0 -0.33185105969E+02 -0.63642390822E+02  0.39966914188E+03  0.41635859690E+03  0.92018764785E+02 0.  0.
        -11    1    1    2    0    0 -0.98692752638E+02  0.13525673343E+02  0.50641217200E+02  0.11174853978E+03  0.00000000000E+00 0.  1.
         11    1    1    2    0    0  0.13187785861E+03  0.50116717479E+02 -0.45031035908E+03  0.47189286332E+03  0.00000000000E+00 0.  1.
        -15    1    3    3    0    0 -0.57050754173E+01 -0.77688676820E+02  0.34368412723E+03  0.35240603774E+03  0.17770000000E+01 0.  1.
         15    1    3    3    0    0 -0.27480030552E+02  0.14046285998E+02  0.55985014646E+02  0.63952559162E+02  0.17770000000E+01 0. -1.
</event>
<event>
 7    1  0.2288857E-006  0.5102649E+03  0.7546771E-02  0.9377130E-01
        -11   -1    0    0    0    0  0.00000000000E+00  0.00000000000E+00  0.50000000000E+03  0.50000000000E+03  0.00000000000E+00 0.  1.
         11   -1    0    0    0    0 -0.00000000000E+00 -0.00000000000E+00 -0.50000000000E+03  0.50000000000E+03  0.00000000000E+00 0. -1.
         23    2    1    2    0    0 -0.28418706757E+02 -0.14161844738E+02  0.24969911300E+03  0.26758725452E+03  0.90802593619E+02 0.  0.
        -11    1    1    2    0    0 -0.89990157496E+02 -0.27937801537E+02  0.22363739017E+03  0.24267762872E+03  0.00000000000E+00 0.  1.
         11    1    1    2    0    0  0.11840886425E+03  0.42099646275E+02 -0.47333650317E+03  0.48973511676E+03  0.00000000000E+00 0. -1.
        -15    1    3    3    0    0 -0.17318485493E+02  0.37769493681E+02  0.13323541781E+03  0.13957542363E+03  0.17770000000E+01 0. -1.
         15    1    3    3    0    0 -0.11100221264E+02 -0.51931338419E+02  0.11646369519E+03  0.12801183090E+03  0.17770000000E+01 0.  1.
</event>
<event>
 7    1  0.2288857E-006  0.5093801E+03  0.7546771E-02  0.9379062E-01
        -11   -1    0    0    0    0  0.00000000000E+00  0.00000000000E+00  0.50000000000E+03  0.50000000000E+03  0.00000000000E+00 0.  1.
         11   -1    0    0    0    0 -0.00000000000E+00 -0.00000000000E+00 -0.50000000000E+03  0.50000000000E+03  0.00000000000E+00 0.  1.
         23    2    1    2    0    0 -0.32185798840E+02  0.66594452654E+02 -0.34081466063E+03  0.36128014910E+03  0.94329032979E+02 0.  0.
        -11    1    1    2    0    0  0.73312717650E+02 -0.13348380165E+03  0.46638527926E+03  0.49061992273E+03  0.00000000000E+00 0.  1.
         11    1    1    2    0    0 -0.41126918810E+02  0.66889348997E+02 -0.12557061863E+03  0.14809992817E+03  0.00000000000E+00 0.  1.
        -15    1    3    3    0    0 -0.26628114792E+01 -0.19761773369E+02 -0.22410528773E+02  0.30050087863E+02  0.17770000000E+01 0. -1.
         15    1    3    3    0    0 -0.29522987360E+02  0.86356226023E+02 -0.31840413186E+03  0.33123006124E+03  0.17770000000E+01 0.  1.
</event>
<event>
 7    1  0.2288857E-006  0.4063976E+03  0.7546771E-02  0.9637684E-01
        -11   -1    0    0    0    0  0.00000000000E+00  0.00000000000E+00  0.50000000000E+03  0.50000000000E+03  0.00000000000E+00 0.  1.
         11   -1    0    0    0    0 -0.00000000000E+00 -0.00000000000E+00 -0.50000000000E+03  0.50000000000E+03  0.00000000000E+00 0. -1.
         23    2    1    2    0    0  0.64626912940E+02  0.75103151177E+02  0.44089123422E+03  0.46124523424E+03  0.92438977191E+02 0.  0.
        -11    1    1    2    0    0 -0.77496464052E+02 -0.13572041368E+03 -0.85786548061E+02  0.17828366290E+03  0.00000000000E+00 0.  1.
         11    1    1    2    0    0  0.12869551112E+02  0.60617262498E+02 -0.35510468616E+03  0.36047110286E+03  0.00000000000E+00 0. -1.
        -15    1    3    3    0    0 -0.37901862172E+01  0.61362470546E+02  0.15052183133E+03  0.16260288355E+03  0.17770000000E+01 0.  1.
         15    1    3    3    0    0  0.68417099157E+02  0.13740680631E+02  0.29036940290E+03  0.29864235070E+03  0.17770000000E+01 0. -1.
</event>
<event>
 7    1  0.2288857E-006  0.5216165E+03  0.7546771E-02  0.9352699E-01
        -11   -1    0    0    0    0  0.00000000000E+00  0.00000000000E+00  0.50000000000E+03  0.50000000000E+03  0.00000000000E+00 0. -1.
         11   -1    0    0    0    0 -0.00000000000E+00 -0.00000000000E+00 -0.50000000000E+03  0.50000000000E+03  0.00000000000E+00 0.  1.
         23    2    1    2    0    0 -0.73499787258E+02  0.92163875730E+01 -0.92179981556E+02  0.14878444836E+03  0.90291209688E+02 0.  0.
        -11    1    1    2    0    0  0.13431568975E+03 -0.11437278606E+03  0.44466724978E+03  0.47838352995E+03  0.00000000000E+00 0. -1.
         11    1    1    2    0    0 -0.60815902494E+02  0.10515639849E+03 -0.35248726822E+03  0.37283202169E+03  0.00000000000E+00 0.  1.
        -15    1    3    3    0    0 -0.42535053348E+02  0.23067537381E+02  0.22080000541E+01  0.48470352148E+02  0.17770000000E+01 0. -1.
         15    1    3    3    0    0 -0.30964733910E+02 -0.13851149808E+02 -0.94387981610E+02  0.10031409621E+03  0.17770000000E+01 0.  1.
</event>
<event>
 7    1  0.2288857E-006  0.5295083E+03  0.7546771E-02  0.9336100E-01
        -11   -1    0    0    0    0  0.00000000000E+00  0.00000000000E+00  0.50000000000E+03  0.50000000000E+03  0.00000000000E+00 0.  1.
         11   -1    0    0    0    0 -0.00000000000E+00 -0.00000000000E+00 -0.50000000000E+03  0.50000000000E+03  0.00000000000E+00 0. -1.
         23    2    1    2    0    0  0.81781402357E+02 -0.43199858628E+02 -0.17754799573E+03  0.22018585979E+03  0.91673859445E+02 0.  0.
        -11    1    1    2    0    0  0.10786009785E+02  0.21082657612E+03  0.42047380941E+03  0.47049166582E+03  0.00000000000E+00 0.  1.
         11    1    1    2    0    0 -0.92567412142E+02 -0.16762671749E+03 -0.24292581368E+03  0.30932247439E+03  0.00000000000E+00 0. -1.
        -15    1    3    3    0    0  0.10103020623E+03 -0.36254777393E+02 -0.13143584187E+03  0.16970577395E+03  0.17770000000E+01 0.  1.
         15    1    3    3    0    0 -0.19248803870E+02 -0.69450812352E+01 -0.46112153860E+02  0.50480085840E+02  0.17770000000E+01 0. -1.
</event>
<event>
 7    1  0.2288857E-006  0.4740404E+03  0.7546771E-02  0.9459846E-01
        -11   -1    0    0    0    0  0.00000000000E+00  0.00000000000E+00  0.50000000000E+03  0.50000000000E+03  0.00000000000E+00 0. -1.
         11   -1    0    0    0    0 -0.00000000000E+00 -0.00000000000E+00 -0.50000000000E+03  0.50000000000E+03  0.00000000000E+00 0. -1.
         23    2    1    2    0    0 -0.34713775467E+03  0.14978357252E+03 -0.23985213274E+03  0.45699313737E+03  0.91509249326E+02 0.  0.
        -11    1    1    2    0    0  0.35454365098E+03 -0.14117490142E+03  0.29773385319E+03  0.48402169433E+03  0.00000000000E+00 0. -1.
         11    1    1    2    0    0 -0.74058963171E+01 -0.86086710954E+01 -0.57881720442E+02  0.58985168302E+02  0.00000000000E+00 0. -1.
        -15    1    3    3    0    0 -0.24093478090E+02  0.41320837479E+02 -0.36122459971E+02  0.59965799751E+02  0.17770000000E+01 0.  1.
         15    1    3    3    0    0 -0.32304427658E+03  0.10846273504E+03 -0.20372967277E+03  0.39702733762E+03  0.17770000000E+01 0. -1.
</event>
<event>
 7    1  0.2288857E-006  0.5253638E+03  0.7546771E-02  0.9344779E-01
        -11   -1    0    0    0    0  0.00000000000E+00  0.00000000000E+00  0.50000000000E+03  0.50000000000E+03  0.00000000000E+00 0. -1.
         11   -1    0    0    0    0 -0.00000000000E+00 -0.00000000000E+00 -0.50000000000E+03  0.50000000000E+03  0.00000000000E+00 0.  1.
         23    2    1    2    0    0 -0.14924815081E+01 -0.10132470003E+03  0.28574391291E+03  0.31675402501E+03  0.91731162950E+02 0.  0.
        -11    1    1    2    0    0 -0.11147791423E+03  0.41549912389E+02  0.17136020922E+03  0.20860978377E+03  0.00000000000E+00 0. -1.
         11    1    1    2    0    0  0.11297039574E+03  0.59774787638E+02 -0.45710412213E+03  0.47463619122E+03  0.00000000000E+00 0.  1.
        -15    1    3    3    0    0 -0.31604348005E+02 -0.57114327463E+02  0.23157195014E+03  0.24060259150E+03  0.17770000000E+01 0.  1.
         15    1    3    3    0    0  0.30111866497E+02 -0.44210372564E+02  0.54171962769E+02  0.76151433509E+02  0.17770000000E+01 0. -1.
</event>
<event>
 7    1  0.2288857E-006  0.4099680E+03  0.7546771E-02  0.9627399E-01
        -11   -1    0    0    0    0  0.00000000000E+00  0.00000000000E+00  0.50000000000E+03  0.50000000000E+03  0.00000000000E+00 0. -1.
         11   -1    0    0    0    0 -0.00000000000E+00 -0.00000000000E+00 -0.50000000000E+03  0.50000000000E+03  0.00000000000E+00 0. -1.
         23    2    1    2    0    0  0.79695015967E+02  0.82892881762E+02  0.82081355829E+02  0.16798150637E+03  0.90873054811E+02 0.  0.
        -11    1    1    2    0    0  0.39782539174E+02 -0.22572423995E+03  0.31726143795E+03  0.39139353972E+03  0.00000000000E+00 0. -1.
         11    1    1    2    0    0 -0.11947755514E+03  0.14283135819E+03 -0.39934279378E+03  0.44062495391E+03  0.00000000000E+00 0. -1.
        -15    1    3    3    0    0  0.31666360058E+02  0.57660896938E+02 -0.43132367877E+01  0.65949216338E+02  0.17770000000E+01 0.  1.
         15    1    3    3    0    0  0.48028655909E+02  0.25231984824E+02  0.86394592616E+02  0.10203229003E+03  0.17770000000E+01 0. -1.
</event>
<event>
 7    1  0.2288857E-006  0.3832571E+03  0.7546771E-02  0.9707207E-01
        -11   -1    0    0    0    0  0.00000000000E+00  0.00000000000E+00  0.50000000000E+03  0.50000000000E+03  0.00000000000E+00 0.  1.
         11   -1    0    0    0    0 -0.00000000000E+00 -0.00000000000E+00 -0.50000000000E+03  0.50000000000E+03  0.00000000000E+00 0.  1.
         23    2    1    2    0    0  0.21455267434E+03 -0.25279436786E+03 -0.11162761840E+02  0.34426570223E+03  0.91958816857E+02 0.  0.
        -11    1    1    2    0    0 -0.32672456159E+03  0.22533188656E+03  0.19221416215E+03  0.44098716804E+03  0.00000000000E+00 0.  1.
         11    1    1    2    0    0  0.11217188726E+03  0.27462481297E+02 -0.18105140031E+03  0.21474712972E+03  0.00000000000E+00 0.  1.
        -15    1    3    3    0    0  0.15300194892E+03 -0.23159456937E+03 -0.21147830209E+02  0.27838108662E+03  0.17770000000E+01 0.  1.
         15    1    3    3    0    0  0.61550725419E+02 -0.21199798483E+02  0.99850683682E+01  0.65884615615E+02  0.17770000000E+01 0. -1.
</event>
<event>
 7    1  0.2288857E-006  0.4286003E+03  0.7546771E-02  0.9575477E-01
        -11   -1    0    0    0    0  0.00000000000E+00  0.00000000000E+00  0.50000000000E+03  0.50000000000E+03  0.00000000000E+00 0. -1.
         11   -1    0    0    0    0 -0.00000000000E+00 -0.00000000000E+00 -0.50000000000E+03  0.50000000000E+03  0.00000000000E+00 0.  1.
         23    2    1    2    0    0 -0.57915083564E+02 -0.81377619563E+02 -0.58044075383E+01  0.13698028682E+03  0.93559788152E+02 0.  0.
        -11    1    1    2    0    0 -0.18625580074E+02  0.15158535758E+03  0.41428600153E+03  0.44154039898E+03  0.00000000000E+00 0. -1.
         11    1    1    2    0    0  0.76540663638E+02 -0.70207738021E+02 -0.40848159399E+03  0.42147931420E+03  0.00000000000E+00 0.  1.
        -15    1    3    3    0    0  0.26273630144E+01 -0.66017021993E+02  0.20476622120E+02  0.69192485226E+02  0.17770000000E+01 0. -1.
         15    1    3    3    0    0 -0.60542446578E+02 -0.15360597570E+02 -0.26281029658E+02  0.67787801589E+02  0.17770000000E+01 0.  1.
</event>
<event>
 7    1  0.2288857E-006  0.5072055E+03  0.7546771E-02  0.9383830E-01
        -11   -1    0    0    0    0  0.00000000000E+00  0.00000000000E+00  0.50000000000E+03  0.50000000000E+03  0.00000000000E+00 0.  1.
         11   -1    0    0    0    0 -0.00000000000E+00 -0.00000000000E+00 -0.50000000000E+03  0.50000000000E+03  0.00000000000E+00 0. -1.
         23    2    1    2    0    0  0.22962378740E+03 -0.11504263743E+02 -0.24530228240E+03  0.34702919497E+03  0.86003608003E+02 0.  0.
        -11    1    1    2    0    0 -0.35337683810E+03 -0.16463193278E+02  0.34307467208E+03  0.49279453839E+03  0.00000000000E+00 0.  1.
         11    1    1    2    0    0  0.12375305071E+03  0.27967457021E+02 -0.97772389679E+02  0.16017626664E+03  0.00000000000E+00 0. -1.
        -15    1    3    3    0    0  0.19113735482E+03 -0.36052036095E+02 -0.22386285375E+03  0.29656529253E+03  0.17770000000E+01 0. -1.
         15    1    3    3    0    0  0.38486432578E+02  0.24547772353E+02 -0.21439428648E+02  0.50463902443E+02  0.17770000000E+01 0.  1.
</event>
<event>
 7    1  0.2288857E-006  0.4318089E+03  0.7546771E-02  0.9566820E-01
        -11   -1    0    0    0    0  0.00000000000E+00  0.00000000000E+00  0.50000000000E+03  0.50000000000E+03  0.00000000000E+00 0.  1.
         11   -1    0    0    0    0 -0.00000000000E+00 -0.00000000000E+00 -0.50000000000E+03  0.50000000000E+03  0.00000000000E+00 0.  1.
         23    2    1    2    0    0 -0.73467108920E+02 -0.11897782279E+03  0.37947858179E+03  0.41451587424E+03  0.90919071430E+02 0.  0.
        -11    1    1    2    0    0  0.11989164211E+03  0.24214185402E+02  0.58065170858E+02  0.13539533482E+03  0.00000000000E+00 0.  1.
         11    1    1    2    0    0 -0.46424533193E+02  0.94763637392E+02 -0.43754375265E+03  0.45008879094E+03  0.00000000000E+00 0.  1.
        -15    1    3    3    0    0 -0.81849167344E+02 -0.57111434987E+02  0.18441873154E+03  0.20970080704E+03  0.17770000000E+01 0.  1.
         15    1    3    3    0    0  0.83820584237E+01 -0.61866387807E+02  0.19505985025E+03  0.20481506720E+03  0.17770000000E+01 0. -1.
</event>
<event>
 7    1  0.2288857E-006  0.5323330E+03  0.7546771E-02  0.9330233E-01
        -11   -1    0    0    0    0  0.00000000000E+00  0.00000000000E+00  0.50000000000E+03  0.50000000000E+03  0.00000000000E+00 0. -1.
         11   -1    0    0    0    0 -0.00000000000E+00 -0.00000000000E+00 -0.50000000000E+03  0.50000000000E+03  0.00000000000E+00 0.  1.
         23    2    1    2    0    0  0.13530674257E+03 -0.26805564366E+02  0.27001119534E+03  0.31931401468E+03  0.10014460295E+03 0.  0.
        -11    1    1    2    0    0  0.11737567502E+03 -0.16071477654E+03  0.75965850960E+02  0.21301901088E+03  0.00000000000E+00 0. -1.
         11    1    1    2    0    0 -0.25268241759E+03  0.18752034090E+03 -0.34597704630E+03  0.46766697443E+03  0.00000000000E+00 0.  1.
        -15    1    3    3    0    0 -0.54766353122E+01 -0.12672410794E+02 -0.60859344739E+00  0.13932395510E+02  0.17770000000E+01 0.  1.
         15    1    3    3    0    0  0.14078337788E+03 -0.14133153572E+02  0.27061978879E+03  0.30538161917E+03  0.17770000000E+01 0. -1.
</event>
<event>
 7    1  0.2288857E-006  0.4402904E+03  0.7546771E-02  0.9544317E-01
        -11   -1    0    0    0    0  0.00000000000E+00  0.00000000000E+00  0.50000000000E+03  0.50000000000E+03  0.00000000000E+00 0.  1.
         11   -1    0    0    0    0 -0.00000000000E+00 -0.00000000000E+00 -0.50000000000E+03  0.50000000000E+03  0.00000000000E+00 0. -1.
         23    2    1    2    0    0 -0.16947737707E+03  0.65846577479E+02  0.35385074399E+03  0.40935209329E+03  0.96438758555E+02 0.  0.
        -11    1    1    2    0    0 -0.58794208049E+01 -0.91098399238E+02  0.80401220967E+02  0.12164638205E+03  0.00000000000E+00 0.  1.
         11    1    1    2    0    0  0.17535679788E+03  0.25251821760E+02 -0.43425196496E+03  0.46900152466E+03  0.00000000000E+00 0. -1.
        -15    1    3    3    0    0 -0.17994687887E+03  0.59157414180E+02  0.34624726413E+03  0.39467810240E+03  0.17770000000E+01 0.  1.
         15    1    3    3    0    0  0.10469501800E+02  0.66891632984E+01  0.76034798604E+01  0.14673990887E+02  0.17770000000E+01 0. -1.
</event>
<event>
 7    1  0.2288857E-006  0.5228340E+03  0.7546771E-02  0.9350118E-01
        -11   -1    0    0    0    0  0.00000000000E+00  0.00000000000E+00  0.50000000000E+03  0.50000000000E+03  0.00000000000E+00 0. -1.
         11   -1    0    0    0    0 -0.00000000000E+00 -0.00000000000E+00 -0.50000000000E+03  0.50000000000E+03  0.00000000000E+00 0.  1.
         23    2    1    2    0    0  0.14533530758E+03 -0.11894534203E+03 -0.26150353897E+03  0.33427183722E+03  0.89906697444E+02 0.  0.
        -11    1    1    2    0    0 -0.11174967621E+03  0.12413789760E+03  0.44697785849E+03  0.47716602324E+03  0.00000000000E+00 0. -1.
         11    1    1    2    0    0 -0.33585631372E+02 -0.51925555702E+01 -0.18547431951E+03  0.18856213954E+03  0.00000000000E+00 0.  1.
        -15    1    3    3    0    0  0.79563052168E+02 -0.11725534780E+03 -0.19087108594E+03  0.23772678653E+03  0.17770000000E+01 0.  1.
         15    1    3    3    0    0  0.65772255413E+02 -0.16899942299E+01 -0.70632453031E+02  0.96545050690E+02  0.17770000000E+01 0. -1.
</event>
<event>
 7    1  0.2288857E-006  0.5233074E+03  0.7546771E-02  0.9349117E-01
        -11   -1    0    0    0    0  0.00000000000E+00  0.00000000000E+00  0.50000000000E+03  0.50000000000E+03  0.00000000000E+00 0. -1.
         11   -1    0    0    0    0 -0.00000000000E+00 -0.00000000000E+00 -0.50000000000E+03  0.50000000000E+03  0.00000000000E+00 0. -1.
         23    2    1    2    0    0  0.93701927217E+02  0.78094512244E+02  0.45129172188E+03  0.47669259037E+03  0.93235205092E+02 0.  0.
        -11    1    1    2    0    0 -0.58819868812E+02 -0.13869899762E+03 -0.14487032527E+03  0.20900861239E+03  0.00000000000E+00 0. -1.
         11    1    1    2    0    0 -0.34882058405E+02  0.60604485377E+02 -0.30642139661E+03  0.31429879724E+03  0.00000000000E+00 0. -1.
        -15    1    3    3    0    0 -0.14954915045E+02  0.17391928790E+02  0.13210032415E+03  0.13408870959E+03  0.17770000000E+01 0.  1.
         15    1    3    3    0    0  0.10865684226E+03  0.60702583454E+02  0.31919139774E+03  0.34260388078E+03  0.17770000000E+01 0. -1.
</event>
<event>
 7    1  0.2288857E-006  0.5210807E+03  0.7546771E-02  0.9353838E-01
        -11   -1    0    0    0    0  0.00000000000E+00  0.00000000000E+00  0.50000000000E+03  0.50000000000E+03  0.00000000000E+00 0.  1.
         11   -1    0    0    0    0 -0.00000000000E+00 -0.00000000000E+00 -0.50000000000E+03  0.50000000000E+03  0.00000000000E+00 0. -1.
         23    2    1    2    0    0 -0.82365232485E+02  0.36499515318E+02  0.30676923193E+03  0.33272111141E+03  0.92085450445E+02 0.  0.
        -11    1    1    2    0    0 -0.12974581587E+03 -0.61557332210E+02  0.12188534346E+03  0.18835954671E+03  0.00000000000E+00 0.  1.
         11    1    1    2    0    0  0.21211104835E+03  0.25057816892E+02 -0.42865457539E+03  0.47891934188E+03  0.00000000000E+00 0. -1.
        -15    1    3    3    0    0 -0.53524027071E+01 -0.12089321484E+02  0.66697235712E+00  0.13356739490E+02  0.17770000000E+01 0.  1.
         15    1    3    3    0    0 -0.77012829778E+02  0.48588836803E+02  0.30610225957E+03  0.31936437192E+03  0.17770000000E+01 0. -1.
</event>
<event>
 6    1  0.2288857E-006  0.4100121E+03  0.7546771E-02  0.9627272E-01
        -11   -1    0    0    0    0  0.00000000000E+00  0.00000000000E+00  0.50000000000E+03  0.50000000000E+03  0.00000000000E+00 0. -1.
         11   -1    0    0    0    0 -0.00000000000E+00 -0.00000000000E+00 -0.50000000000E+03  0.50000000000E+03  0.00000000000E+00 0.  1.
        -11    1    1    2    0    0 -0.15320815100E+03 -0.12512061673E+03  0.79584940035E+02  0.21321742177E+03  0.00000000000E+00 0. -1.
         11    1    1    2    0    0 -0.44611440594E+02  0.13432402763E+03 -0.35589309000E+03  0.38300524349E+03  0.00000000000E+00 0.  1.
        -15    1    1    2    0    0  0.32807194760E+02 -0.27975147002E+02  0.22622552679E+03  0.23030429344E+03  0.17770000000E+01 0. -1.
         15    1    1    2    0    0  0.16501239684E+03  0.18771736106E+02  0.50082623174E+02  0.17347304130E+03  0.17770000000E+01 0.  1.
</event>
<event>
 7    1  0.2288857E-006  0.3657519E+03  0.7546771E-02  0.9763383E-01
        -11   -1    0    0    0    0  0.00000000000E+00  0.00000000000E+00  0.50000000000E+03  0.50000000000E+03  0.00000000000E+00 0. -1.
         11   -1    0    0    0    0 -0.00000000000E+00 -0.00000000000E+00 -0.50000000000E+03  0.50000000000E+03  0.00000000000E+00 0.  1.
         23    2    1    2    0    0 -0.68260088017E+01 -0.20580121821E+03  0.65827566539E+02  0.23722093388E+03  0.97671731546E+02 0.  0.
        -11    1    1    2    0    0  0.16933792297E+01  0.10815043421E+03  0.33404681497E+03  0.35112199951E+03  0.00000000000E+00 0. -1.
         11    1    1    2    0    0  0.51326295720E+01  0.97650783998E+02 -0.39987438151E+03  0.41165706661E+03  0.00000000000E+00 0.  1.
        -15    1    3    3    0    0 -0.30169433171E+02 -0.19933715422E+02 -0.57866692457E+01  0.36663210148E+02  0.17770000000E+01 0.  1.
         15    1    3    3    0    0  0.23343424370E+02 -0.18586750279E+03  0.71614235785E+02  0.20055772373E+03  0.17770000000E+01 0. -1.
</event>
<event>
 7    1  0.2288857E-006  0.3559554E+03  0.7546771E-02  0.9796312E-01
        -11   -1    0    0    0    0  0.00000000000E+00  0.00000000000E+00  0.50000000000E+03  0.50000000000E+03  0.00000000000E+00 0.  1.
         11   -1    0    0    0    0 -0.00000000000E+00 -0.00000000000E+00 -0.50000000000E+03  0.50000000000E+03  0.00000000000E+00 0.  1.
         23    2    1    2    0    0  0.92769873744E+02  0.11623076797E+03  0.30380051558E+03  0.35021164812E+03  0.90761248965E+02 0.  0.
        -11    1    1    2    0    0 -0.16494586855E+03 -0.17728147870E+03  0.79607273191E+02  0.25489837227E+03  0.00000000000E+00 0.  1.
         11    1    1    2    0    0  0.72175994805E+02  0.61050710724E+02 -0.38340778877E+03  0.39488997961E+03  0.00000000000E+00 0.  1.
        -15    1    3    3    0    0  0.45623858047E+01  0.72308561709E+02  0.96577457120E+02  0.12074645508E+03  0.17770000000E+01 0.  1.
         15    1    3    3    0    0  0.88207487939E+02  0.43922206262E+02  0.20722305846E+03  0.22946519305E+03  0.17770000000E+01 0. -1.
</event>
<event>
 7    1  0.2288857E-006  0.5105825E+03  0.7546771E-02  0.9376437E-01
        -11   -1    0    0    0    0  0.00000000000E+00  0.00000000000E+00  0.50000000000E+03  0.50000000000E+03  0.00000000000E+00 0.  1.
         11   -1    0    0    0    0 -0.00000000000E+00 -0.00000000000E+00 -0.50000000000E+03  0.50000000000E+03  0.00000000000E+00 0.  1.
         23    2    1    2    0    0  0.34682989517E+02 -0.77876511614E+01  0.21340602345E+03  0.23483873586E+03  0.91343000514E+02 0.  0.
        -11    1    1    2    0    0  0.46721548796E+02 -0.67041659715E+02  0.26335741655E+03  0.27574375081E+03  0.00000000000E+00 0.  1.
         11    1    1    2    0    0 -0.81404538313E+02  0.74829310877E+02 -0.47676344000E+03  0.48941751333E+03  0.00000000000E+00 0.  1.
        -15    1    3    3    0    0  0.52154400660E+01 -0.38851275994E+02  0.16751664033E+03  0.17205116965E+03  0.17770000000E+01 0.  1.
         15    1    3    3    0    0  0.29467549451E+02  0.31063624833E+02  0.45889383121E+02  0.62787566210E+02  0.17770000000E+01 0. -1.
</event>
<event>
 7    1  0.2288857E-006  0.5120464E+03  0.7546771E-02  0.9373251E-01
        -11   -1    0    0    0    0  0.00000000000E+00  0.00000000000E+00  0.50000000000E+03  0.50000000000E+03  0.00000000000E+00 0.  1.
         11   -1    0    0    0    0 -0.00000000000E+00 -0.00000000000E+00 -0.50000000000E+03  0.50000000000E+03  0.00000000000E+00 0. -1.
         23    2    1    2    0    0 -0.94938782962E+02 -0.31618445795E+02 -0.29801096869E+03  0.32680886134E+03  0.89333060870E+02 0.  0.
        -11    1    1    2    0    0  0.15992492687E+03 -0.30434036097E+02  0.45999623084E+03  0.48795363014E+03  0.00000000000E+00 0.  1.
         11    1    1    2    0    0 -0.64986143903E+02  0.62052481892E+02 -0.16198526215E+03  0.18523750851E+03  0.00000000000E+00 0. -1.
        -15    1    3    3    0    0 -0.11066591414E+03 -0.16220242235E+02 -0.24203562939E+03  0.26663541481E+03  0.17770000000E+01 0. -1.
         15    1    3    3    0    0  0.15727131173E+02 -0.15398203560E+02 -0.55975339305E+02  0.60173446529E+02  0.17770000000E+01 0.  1.
</event>
<event>
 7    1  0.2288857E-006  0.3405824E+03  0.7546771E-02  0.9850344E-01
        -11   -1    0    0    0    0  0.00000000000E+00  0.00000000000E+00  0.50000000000E+03  0.50000000000E+03  0.00000000000E+00 0.  1.
         11   -1    0    0    0    0 -0.00000000000E+00 -0.00000000000E+00 -0.50000000000E+03  0.50000000000E+03  0.00000000000E+00 0. -1.
         23    2    1    2    0    0 -0.87280510347E+02 -0.19155103972E+03  0.13692294622E+03  0.27402262931E+03  0.10968509412E+03 0.  0.
        -11    1    1    2    0    0  0.41612228194E+02  0.14042971598E+03  0.27329677574E+03  0.31006968620E+03  0.00000000000E+00 0.  1.
         11    1    1    2    0    0  0.45668282153E+02  0.51121323740E+02 -0.41021972196E+03  0.41590768449E+03  0.00000000000E+00 0. -1.
        -15    1    3    3    0    0 -0.23779013063E+02 -0.22511829241E+02  0.77108780381E+02  0.83792276845E+02  0.17770000000E+01 0.  1.
         15    1    3    3    0    0 -0.63501497284E+02 -0.16903921048E+03  0.59814165834E+02  0.19023035247E+03  0.17770000000E+01 0. -1.
</event>
<event>
 7    1  0.2288857E-006  0.5135077E+03  0.7546771E-02  0.9370082E-01
        -11   -1    0    0    0    0  0.00000000000E+00  0.00000000000E+00  0.50000000000E+03  0.50000000000E+03  0.00000000000E+00 0. -1.
         11   -1    0    0    0    0 -0.00000000000E+00 -0.00000000000E+00 -0.50000000000E+03  0.50000000000E+03  0.00000000000E+00 0. -1.
         23    2    1    2    0    0  0.34118345684E+03  0.21637557031E+03 -0.84930275006E+02  0.42218675290E+03  0.88340047947E+02 0.  0.
        -11    1    1    2    0    0 -0.37674601356E+03 -0.26803496990E+03  0.15130899404E+03  0.48649225636E+03  0.00000000000E+00 0. -1.
         11    1    1    2    0    0  0.35562556720E+02  0.51659399597E+02 -0.66378719039E+02  0.91320990733E+02  0.00000000000E+00 0. -1.
        -15    1    3    3    0    0  0.83844074149E+02  0.75198593893E+02  0.11501814920E+02  0.11322591033E+03  0.17770000000E+01 0.  1.
         15    1    3    3    0    0  0.25733938269E+03  0.14117697641E+03 -0.96432089926E+02  0.30896084258E+03  0.17770000000E+01 0. -1.
</event>
<event>
 7    1  0.2288857E-006  0.5143034E+03  0.7546771E-02  0.9368362E-01
        -11   -1    0    0    0    0  0.00000000000E+00  0.00000000000E+00  0.50000000000E+03  0.50000000000E+03  0.00000000000E+00 0.  1.
         11   -1    0    0    0    0 -0.00000000000E+00 -0.00000000000E+00 -0.50000000000E+03  0.50000000000E+03  0.00000000000E+00 0. -1.
         23    2    1    2    0    0  0.45231265390E+02  0.12716872335E+03 -0.18540967361E+03  0.24656057233E+03  0.90540693562E+02 0.  0.
        -11    1    1    2    0    0 -0.81440204176E+02 -0.17192376783E+03  0.44689027982E+03  0.48569662445E+03  0.00000000000E+00 0.  1.
         11    1    1    2    0    0  0.36208938786E+02  0.44755044476E+02 -0.26148060621E+03  0.26774280323E+03  0.00000000000E+00 0. -1.
        -15    1    3    3    0    0  0.58131244113E+02  0.12075679371E+03 -0.12111313823E+03  0.18064604825E+03  0.17770000000E+01 0. -1.
         15    1    3    3    0    0 -0.12899978723E+02  0.64119296416E+01 -0.64296535380E+02  0.65914524072E+02  0.17770000000E+01 0.  1.
</event>
<event>
 7    1  0.2288857E-006  0.3086576E+03  0.7546771E-02  0.9973017E-01
        -11   -1    0    0    0    0  0.00000000000E+00  0.00000000000E+00  0.50000000000E+03  0.50000000000E+03  0.00000000000E+00 0.  1.
         11   -1    0    0    0    0 -0.00000000000E+00 -0.00000000000E+00 -0.50000000000E+03  0.50000000000E+03  0.00000000000E+00 0. -1.
         23    2    1    2    0    0  0.52918635172E+02  0.27425151563E+03  0.10947904514E+03  0.31364874952E+03  0.91518309537E+02 0.  0.
        -11    1    1    2    0    0  0.21277132484E+02 -0.20844261329E+03  0.24260881412E+03  0.32056212516E+03  0.00000000000E+00 0.  1.
         11    1    1    2    0    0 -0.74195767656E+02 -0.65808902336E+02 -0.35208785925E+03  0.36578912532E+03  0.00000000000E+00 0. -1.
        -15    1    3    3    0    0  0.66625930257E+02  0.26483781106E+03  0.89049459486E+02  0.28724735806E+03  0.17770000000E+01 0.  1.
         15    1    3    3    0    0 -0.13707295085E+02  0.94137045695E+01  0.20429585653E+02  0.26401391464E+02  0.17770000000E+01 0. -1.
</event>
<event>
 7    1  0.2288857E-006  0.5150063E+03  0.7546771E-02  0.9366844E-01
        -11   -1    0    0    0    0  0.00000000000E+00  0.00000000000E+00  0.50000000000E+03  0.50000000000E+03  0.00000000000E+00 0. -1.
         11   -1    0    0    0    0 -0.00000000000E+00 -0.00000000000E+00 -0.50000000000E+03  0.50000000000E+03  0.00000000000E+00 0. -1.
         23    2    1    2    0    0  0.21564998368E+02  0.24269805166E+02  0.37995879282E+03  0.39344349434E+03  0.96824719983E+02 0.  0.
        -11    1    1    2    0    0  0.69470344003E+02 -0.25612770590E+02  0.96412531747E+02  0.12156281911E+03  0.00000000000E+00 0. -1.
         11    1    1    2    0    0 -0.91035342370E+02  0.13429654235E+01 -0.47637132457E+03  0.48499368654E+03  0.00000000000E+00 0. -1.
        -15    1    3    3    0    0  0.56749159575E+02  0.25212136833E+02  0.18040118692E+03  0.19079796888E+03  0.17770000000E+01 0. -1.
         15    1    3    3    0    0 -0.35184161207E+02 -0.94233166735E+00  0.19955760590E+03  0.20264552547E+03  0.17770000000E+01 0.  1.
</event>
<event>
 7    1  0.2288857E-006  0.4611745E+03  0.7546771E-02  0.9491138E-01
        -11   -1    0    0    0    0  0.00000000000E+00  0.00000000000E+00  0.50000000000E+03  0.50000000000E+03  0.00000000000E+00 0. -1.
         11   -1    0    0    0    0 -0.00000000000E+00 -0.00000000000E+00 -0.50000000000E+03  0.50000000000E+03  0.00000000000E+00 0.  1.
         23    2    1    2    0    0  0.11294027119E+02  0.25075553604E+03 -0.35371316625E+03  0.44244345871E+03  0.87391740301E+02 0.  0.
        -11    1    1    2    0    0 -0.82818225692E+02 -0.25184914824E+03  0.39442870656E+03  0.47524820519E+03  0.00000000000E+00 0. -1.
         11    1    1    2    0    0  0.71524198573E+02  0.10936122069E+01 -0.40715540311E+02  0.82308336102E+02  0.00000000000E+00 0.  1.
        -15    1    3    3    0    0 -0.18928997173E+02  0.14902344533E+03 -0.26270540941E+03  0.30262779788E+03  0.17770000000E+01 0.  1.
         15    1    3    3    0    0  0.30223024292E+02  0.10173209070E+03 -0.91007756845E+02  0.13981566082E+03  0.17770000000E+01 0. -1.
</event>
<event>
 7    1  0.2288857E-006  0.3425078E+03  0.7546771E-02  0.9843411E-01
        -11   -1    0    0    0    0  0.00000000000E+00  0.00000000000E+00  0.50000000000E+03  0.50000000000E+03  0.00000000000E+00 0.  1.
         11   -1    0    0    0    0 -0.00000000000E+00 -0.00000000000E+00 -0.50000000000E+03  0.50000000000E+03  0.00000000000E+00 0.  1.
         23    2    1    2    0    0  0.13564697168E+03  0.29052369634E+03  0.26816146845E+03  0.42740725025E+03  0.89231526640E+02 0.  0.
        -11    1    1    2    0    0 -0.18953013544E+03 -0.19675962356E+03  0.10793330052E+02  0.27340906656E+03  0.00000000000E+00 0.  1.
         11    1    1    2    0    0  0.53883163758E+02 -0.93764072776E+02 -0.27895479850E+03  0.29918368319E+03  0.00000000000E+00 0.  1.
        -15    1    3    3    0    0  0.39686216196E+02  0.18890602167E+03  0.15524209945E+03  0.24771707238E+03  0.17770000000E+01 0.  1.
         15    1    3    3    0    0  0.95960755485E+02  0.10161767467E+03  0.11291936900E+03  0.17969017787E+03  0.17770000000E+01 0. -1.
</event>
<event>
 7    1  0.2288857E-006  0.5212949E+03  0.7546771E-02  0.9353382E-01
        -11   -1    0    0    0    0  0.00000000000E+00  0.00000000000E+00  0.50000000000E+03  0.50000000000E+03  0.00000000000E+00 0. -1.
         11   -1    0    0    0    0 -0.00000000000E+00 -0.00000000000E+00 -0.50000000000E+03  0.50000000000E+03  0.00000000000E+00 0.  1.
         23    2    1    2    0    0 -0.42218487477E+02  0.91845239658E+01  0.13873409312E+03  0.16697878890E+03  0.82267923172E+02 0.  0.
        -11    1    1    2    0    0  0.76482574746E+02 -0.11025846682E+03  0.32792279335E+03  0.35431606250E+03  0.00000000000E+00 0. -1.
         11    1    1    2    0    0 -0.34264087269E+02  0.10107394285E+03 -0.46665688648E+03  0.47870514860E+03  0.00000000000E+00 0.  1.
        -15    1    3    3    0    0  0.12493902436E+02  0.37898017417E+01 -0.41968635567E+01  0.13828650984E+02  0.17770000000E+01 0.  1.
         15    1    3    3    0    0 -0.54712389914E+02  0.53947222241E+01  0.14293095668E+03  0.15315013792E+03  0.17770000000E+01 0. -1.
</event>
<event>
 7    1  0.2288857E-006  0.5072402E+03  0.7546771E-02  0.9383753E-01
        -11   -1    0    0    0    0  0.00000000000E+00  0.00000000000E+00  0.50000000000E+03  0.50000000000E+03  0.00000000000E+00 0. -1.
         11   -1    0    0    0    0 -0.00000000000E+00 -0.00000000000E+00 -0.50000000000E+03  0.50000000000E+03  0.00000000000E+00 0. -1.
         23    2    1    2    0    0 -0.55149674640E+02 -0.36568102428E+02  0.38698460733E+03  0.40302077879E+03  0.91049157607E+02 0.  0.
        -11    1    1    2    0    0 -0.36985269635E+02 -0.31137484979E+02  0.92326737098E+02  0.10421938171E+03  0.00000000000E+00 0. -1.
         11    1    1    2    0    0  0.92134944275E+02  0.67705587407E+02 -0.47931134443E+03  0.49275983950E+03  0.00000000000E+00 0. -1.
        -15    1    3    3    0    0 -0.33118136064E+02 -0.53229639197E+02  0.35596253549E+03  0.36144527916E+03  0.17770000000E+01 0. -1.
         15    1    3    3    0    0 -0.22031538576E+02  0.16661536769E+02  0.31022071839E+02  0.41575499633E+02  0.17770000000E+01 0.  1.
</event>
<event>
 7    1  0.2288857E-006  0.4512408E+03  0.7546771E-02  0.9516051E-01
        -11   -1    0    0    0    0  0.00000000000E+00  0.00000000000E+00  0.50000000000E+03  0.50000000000E+03  0.00000000000E+00 0.  1.
         11   -1    0    0    0    0 -0.00000000000E+00 -0.00000000000E+00 -0.50000000000E+03  0.50000000000E+03  0.00000000000E+00 0.  1.
         23    2    1    2    0    0  0.12146557005E+03 -0.32584419750E+00  0.39902454396E+03  0.42696062151E+03  0.91218390459E+02 0.  0.
        -11    1    1    2    0    0  0.65012372631E+02  0.72023336753E+02  0.28510352334E+02  0.10112769068E+03  0.00000000000E+00 0.  1.
         11    1    1    2    0    0 -0.18647794268E+03 -0.71697492556E+02 -0.42753489629E+03  0.47191168781E+03  0.00000000000E+00 0.  1.
        -15    1    3    3    0    0  0.93877657885E+02  0.40520972072E+02  0.25599521712E+03  0.27566587157E+03  0.17770000000E+01 0.  1.
         15    1    3    3    0    0  0.27587912168E+02 -0.40846816269E+02  0.14302932683E+03  0.15129474994E+03  0.17770000000E+01 0. -1.
</event>
<event>
 7    1  0.2288857E-006  0.3236398E+03  0.7546771E-02  0.9913554E-01
        -11   -1    0    0    0    0  0.00000000000E+00  0.00000000000E+00  0.50000000000E+03  0.50000000000E+03  0.00000000000E+00 0. -1.
         11   -1    0    0    0    0 -0.00000000000E+00 -0.00000000000E+00 -0.50000000000E+03  0.50000000000E+03  0.00000000000E+00 0. -1.
         23    2    1    2    0    0  0.10780159242E+03  0.21071124879E+03  0.22592860529E+03  0.33952952937E+03  0.90642997167E+02 0.  0.
        -11    1    1    2    0    0 -0.28163636259E+02 -0.27150925583E+03  0.12157162893E+03  0.29881453675E+03  0.00000000000E+00 0. -1.
         11    1    1    2    0    0 -0.79637956159E+02  0.60798007046E+02 -0.34750023422E+03  0.36165593388E+03  0.00000000000E+00 0. -1.
        -15    1    3    3    0    0  0.45709980402E+02  0.92613165267E+02  0.16061843188E+03  0.19096606787E+03  0.17770000000E+01 0.  1.
         15    1    3    3    0    0  0.62091612016E+02  0.11809808352E+03  0.65310173408E+02  0.14856346150E+03  0.17770000000E+01 0. -1.
</event>
<event>
 7    1  0.2288857E-006  0.5302185E+03  0.7546771E-02  0.9334622E-01
        -11   -1    0    0    0    0  0.00000000000E+00  0.00000000000E+00  0.50000000000E+03  0.50000000000E+03  0.00000000000E+00 0. -1.
         11   -1    0    0    0    0 -0.00000000000E+00 -0.00000000000E+00 -0.50000000000E+03  0.50000000000E+03  0.00000000000E+00 0. -1.
         23    2    1    2    0    0 -0.10991165973E+03  0.67014474937E+02 -0.22220537696E+03  0.27281322051E+03  0.92088603746E+02 0.  0.
        -11    1    1    2    0    0  0.15289802621E+02 -0.93613601778E+02  0.46010587297E+03  0.46978154374E+03  0.00000000000E+00 0. -1.
         11    1    1    2    0    0  0.94621857107E+02  0.26599126841E+02 -0.23790049601E+03  0.25740523575E+03  0.00000000000E+00 0. -1.
        -15    1    3    3    0    0 -0.55502478607E+02  0.70492175879E+02 -0.78950706116E+02  0.11952423904E+03  0.17770000000E+01 0. -1.
         15    1    3    3    0    0 -0.54409181122E+02 -0.34777009427E+01 -0.14325467084E+03  0.15328898147E+03  0.17770000000E+01 0.  1.
</event>
<event>
 7    1  0.2288857E-006  0.5092932E+03  0.7546771E-02  0.9379252E-01
        -11   -1    0    0    0    0  0.00000000000E+00  0.00000000000E+00  0.50000000000E+03  0.50000000000E+03  0.00000000000E+00 0. -1.
         11   -1    0    0    0    0 -0.00000000000E+00 -0.00000000000E+00 -0.50000000000E+03  0.50000000000E+03  0.00000000000E+00 0.  1.
         23    2    1    2    0    0 -0.14964062926E+03 -0.25934269389E+03  0.37780116124E+03  0.49070677878E+03  0.91697734456E+02 0.  0.
        -11    1    1    2    0    0 -0.31456575224E+02  0.64141400374E+02 -0.51134862385E+02  0.87854479213E+02  0.00000000000E+00 0. -1.
         11    1    1    2    0    0  0.18109720449E+03  0.19520129352E+03 -0.32666629885E+03  0.42143874201E+03  0.00000000000E+00 0.  1.
        -15    1    3    3    0    0 -0.13660559374E+03 -0.24870990608E+03  0.37933113687E+03  0.47372246595E+03  0.17770000000E+01 0. -1.
         15    1    3    3    0    0 -0.13035035522E+02 -0.10632787808E+02 -0.15299756282E+01  0.16984312822E+02  0.17770000000E+01 0.  1.
</event>
<event>
 7    1  0.2288857E-006  0.4757234E+03  0.7546771E-02  0.9455831E-01
        -11   -1    0    0    0    0  0.00000000000E+00  0.00000000000E+00  0.50000000000E+03  0.50000000000E+03  0.00000000000E+00 0.  1.
         11   -1    0    0    0    0 -0.00000000000E+00 -0.00000000000E+00 -0.50000000000E+03  0.50000000000E+03  0.00000000000E+00 0.  1.
         23    2    1    2    0    0  0.15062529074E+03  0.49918212644E+01 -0.40793411931E+03  0.44946907998E+03  0.11357513668E+03 0.  0.
        -11    1    1    2    0    0 -0.14893177717E+03  0.77181958780E+01  0.46692508140E+03  0.49016250003E+03  0.00000000000E+00 0.  1.
         11    1    1    2    0    0 -0.16935135642E+01 -0.12710017142E+02 -0.58990962090E+02  0.60368419991E+02  0.00000000000E+00 0.  1.
        -15    1    3    3    0    0  0.96095436982E+02  0.57655757650E+02 -0.26330811108E+03  0.28616924798E+03  0.17770000000E+01 0.  1.
         15    1    3    3    0    0  0.54529853755E+02 -0.52663936385E+02 -0.14462600822E+03  0.16329983200E+03  0.17770000000E+01 0. -1.
</event>
<event>
 7    1  0.2288857E-006  0.5161180E+03  0.7546771E-02  0.9364449E-01
        -11   -1    0    0    0    0  0.00000000000E+00  0.00000000000E+00  0.50000000000E+03  0.50000000000E+03  0.00000000000E+00 0.  1.
         11   -1    0    0    0    0 -0.00000000000E+00 -0.00000000000E+00 -0.50000000000E+03  0.50000000000E+03  0.00000000000E+00 0.  1.
         23    2    1    2    0    0 -0.18378592435E+02  0.15224712404E+03 -0.24262240446E+03  0.30175884199E+03  0.93144018214E+02 0.  0.
        -11    1    1    2    0    0 -0.17601262274E+02 -0.16829664849E+03  0.45333009756E+03  0.48388195222E+03  0.00000000000E+00 0.  1.
         11    1    1    2    0    0  0.35979854708E+02  0.16049524446E+02 -0.21070769310E+03  0.21435920580E+03  0.00000000000E+00 0.  1.
        -15    1    3    3    0    0 -0.41721912065E+02  0.13339208911E+03 -0.23003158395E+03  0.26916882198E+03  0.17770000000E+01 0.  1.
         15    1    3    3    0    0  0.23343319630E+02  0.18855034928E+02 -0.12590820516E+02  0.32590020002E+02  0.17770000000E+01 0. -1.
</event>
<event>
 7    1  0.2288857E-006  0.5407678E+03  0.7546771E-02  0.9312942E-01
        -11   -1    0    0    0    0  0.00000000000E+00  0.00000000000E+00  0.50000000000E+03  0.50000000000E+03  0.00000000000E+00 0. -1.
         11   -1    0    0    0    0 -0.00000000000E+00 -0.00000000000E+00 -0.50000000000E+03  0.50000000000E+03  0.00000000000E+00 0. -1.
         23    2    1    2    0    0  0.37993391463E+02  0.30921998257E+02  0.16896239697E+03  0.19838428162E+03  0.91697130992E+02 0.  0.
        -11    1    1    2    0    0 -0.24541671841E+03  0.13171747021E+02  0.23837710980E+03  0.34238356717E+03  0.00000000000E+00 0. -1.
         11    1    1    2    0    0  0.20742332694E+03 -0.44093745278E+02 -0.40733950677E+03  0.45923215121E+03  0.00000000000E+00 0. -1.
        -15    1    3    3    0    0 -0.93435220876E+01  0.12210945293E+02 -0.56642476494E+01  0.16481808772E+02  0.17770000000E+01 0.  1.
         15    1    3    3    0    0  0.47336913550E+02  0.18711052964E+02  0.17462664462E+03  0.18190247285E+03  0.17770000000E+01 0. -1.
</event>
<event>
 7    1  0.2288857E-006  0.4458180E+03  0.7546771E-02  0.9529941E-01
        -11   -1    0    0    0    0  0.00000000000E+00  0.00000000000E+00  0.50000000000E+03  0.50000000000E+03  0.00000000000E+00 0. -1.
         11   -1    0    0    0    0 -0.00000000000E+00 -0.00000000000E+00 -0.50000000000E+03  0.50000000000E+03  0.00000000000E+00 0.  1.
         23    2    1    2    0    0 -0.17440281532E+02  0.39818420570E+02  0.32515332710E+02  0.10671308859E+03  0.91873643543E+02 0.  0.
        -11    1    1    2    0    0 -0.65900737912E+01 -0.35418562812E+03  0.27834980009E+03  0.45052136403E+03  0.00000000000E+00 0. -1.
         11    1    1    2    0    0  0.24030355324E+02  0.31436720755E+03 -0.31086513280E+03  0.44276554738E+03  0.00000000000E+00 0.  1.
        -15    1    3    3    0    0  0.11090252021E+02  0.57582614139E+02 -0.17362106567E+01  0.58693468950E+02  0.17770000000E+01 0.  1.
         15    1    3    3    0    0 -0.28530533554E+02 -0.17764193569E+02  0.34251543367E+02  0.48019619636E+02  0.17770000000E+01 0. -1.
</event>
<event>
 7    1  0.2288857E-006  0.5399480E+03  0.7546771E-02  0.9314608E-01
        -11   -1    0    0    0    0  0.00000000000E+00  0.00000000000E+00  0.50000000000E+03  0.50000000000E+03  0.00000000000E+00 0. -1.
         11   -1    0    0    0    0 -0.00000000000E+00 -0.00000000000E+00 -0.50000000000E+03  0.50000000000E+03  0.00000000000E+00 0.  1.
         23    2    1    2    0    0  0.76355627040E+02 -0.39395244534E+02  0.22469351634E+03  0.25730929750E+03  0.91316653570E+02 0.  0.
        -11    1    1    2    0    0 -0.17352829319E+03 -0.17718610323E+01  0.22309059400E+03  0.28263867598E+03  0.00000000000E+00 0. -1.
         11    1    1    2    0    0  0.97172666153E+02  0.41167105566E+02 -0.44778411034E+03  0.46005202652E+03  0.00000000000E+00 0.  1.
        -15    1    3    3    0    0  0.61413035985E+01  0.21985633096E+02  0.13863887759E+02  0.26766560954E+02  0.17770000000E+01 0.  1.
         15    1    3    3    0    0  0.70214323441E+02 -0.61380877629E+02  0.21082962858E+03  0.23054273654E+03  0.17770000000E+01 0. -1.
</event>
<event>
 7    1  0.2288857E-006  0.3991165E+03  0.7546771E-02  0.9659015E-01
        -11   -1    0    0    0    0  0.00000000000E+00  0.00000000000E+00  0.50000000000E+03  0.50000000000E+03  0.00000000000E+00 0.  1.
         11   -1    0    0    0    0 -0.00000000000E+00 -0.00000000000E+00 -0.50000000000E+03  0.50000000000E+03  0.00000000000E+00 0. -1.
         23    2    1    2    0    0  0.18766729212E+03 -0.53696045090E+02 -0.32009639159E+03  0.38595413304E+03  0.91633045969E+02 0.  0.
        -11    1    1    2    0    0 -0.85490838959E+02  0.20888592328E+03  0.35914753265E+03  0.42418034219E+03  0.00000000000E+00 0.  1.
         11    1    1    2    0    0 -0.10217645317E+03 -0.15518987819E+03 -0.39051141062E+02  0.18986552476E+03  0.00000000000E+00 0. -1.
        -15    1    3    3    0    0  0.69928948338E+02 -0.55259540557E+02 -0.85798717799E+02  0.12372652239E+03  0.17770000000E+01 0.  1.
         15    1    3    3    0    0  0.11773834379E+03  0.15634954673E+01 -0.23429767379E+03  0.26222761065E+03  0.17770000000E+01 0. -1.
</event>
<event>
 7    1  0.2288857E-006  0.5097827E+03  0.7546771E-02  0.9378182E-01
        -11   -1    0    0    0    0  0.00000000000E+00  0.00000000000E+00  0.50000000000E+03  0.50000000000E+03  0.00000000000E+00 0.  1.
         11   -1    0    0    0    0 -0.00000000000E+00 -0.00000000000E+00 -0.50000000000E+03  0.50000000000E+03  0.00000000000E+00 0.  1.
         23    2    1    2    0    0 -0.46594512462E+02 -0.51859263223E+02  0.22771104873E+03  0.25377699931E+03  0.87692712870E+02 0.  0.
        -11    1    1    2    0    0  0.14089657195E+02 -0.52146057498E+02  0.25024224130E+03  0.25600568174E+03  0.00000000000E+00 0.  1.
         11    1    1    2    0    0  0.32504855267E+02  0.10400532072E+03 -0.47795329003E+03  0.49021731895E+03  0.00000000000E+00 0.  1.
        -15    1    3    3    0    0 -0.69229688722E+02 -0.55550730874E+02  0.17374949997E+03  0.19511709297E+03  0.17770000000E+01 0. -1.
         15    1    3    3    0    0  0.22635176260E+02  0.36914676511E+01  0.53961548757E+02  0.58659906333E+02  0.17770000000E+01 0.  1.
</event>
<event>
 7    1  0.2288857E-006  0.3485908E+03  0.7546771E-02  0.9821824E-01
        -11   -1    0    0    0    0  0.00000000000E+00  0.00000000000E+00  0.50000000000E+03  0.50000000000E+03  0.00000000000E+00 0.  1.
         11   -1    0    0    0    0 -0.00000000000E+00 -0.00000000000E+00 -0.50000000000E+03  0.50000000000E+03  0.00000000000E+00 0.  1.
         23    2    1    2    0    0  0.15425675145E+03  0.36266224525E+02  0.33491365002E+03  0.38179349273E+03  0.92134324257E+02 0.  0.
        -11    1    1    2    0    0 -0.21771985093E+03 -0.15180806149E+03 -0.78049420160E+01  0.26553443871E+03  0.00000000000E+00 0.  1.
         11    1    1    2    0    0  0.63463099480E+02  0.11554183697E+03 -0.32710870801E+03  0.35267206856E+03  0.00000000000E+00 0.  1.
        -15    1    3    3    0    0  0.62056296265E+00 -0.16563341184E+02  0.61767993574E+02  0.63977903441E+02  0.17770000000E+01 0.  1.
         15    1    3    3    0    0  0.15363618849E+03  0.52829565709E+02  0.27314565645E+03  0.31781558929E+03  0.17770000000E+01 0. -1.
</event>
<event>
 7    1  0.2288857E-006  0.4643493E+03  0.7546771E-02  0.9483316E-01
        -11   -1    0    0    0    0  0.00000000000E+00  0.00000000000E+00  0.50000000000E+03  0.50000000000E+03  0.00000000000E+00 0.  1.
         11   -1    0    0    0    0 -0.00000000000E+00 -0.00000000000E+00 -0.50000000000E+03  0.50000000000E+03  0.00000000000E+00 0.  1.
         23    2    1    2    0    0  0.73609850225E+02 -0.21736523304E+02  0.41689724966E+03  0.43319291222E+03  0.89229456619E+02 0.  0.
        -11    1    1    2    0    0  0.21459093571E+02  0.37251061351E+02  0.63590622322E+02  0.76758722735E+02  0.00000000000E+00 0.  1.
         11    1    1    2    0    0 -0.95068943796E+02 -0.15514538047E+02 -0.48048787198E+03  0.49004836505E+03  0.00000000000E+00 0.  1.
        -15    1    3    3    0    0  0.27048190773E+02  0.30467726122E+02  0.23079530294E+03  0.23437046859E+03  0.17770000000E+01 0.  1.
         15    1    3    3    0    0  0.46561659452E+02 -0.52204249426E+02  0.18610194672E+03  0.19882244363E+03  0.17770000000E+01 0. -1.
</event>
<event>
 7    1  0.2288857E-006  0.3667932E+03  0.7546771E-02  0.9759948E-01
        -11   -1    0    0    0    0  0.00000000000E+00  0.00000000000E+00  0.50000000000E+03  0.50000000000E+03  0.00000000000E+00 0. -1.
         11   -1    0    0    0    0 -0.00000000000E+00 -0.00000000000E+00 -0.50000000000E+03  0.50000000000E+03  0.00000000000E+00 0.  1.
         23    2    1    2    0    0 -0.16795873542E+03 -0.22257513039E+02 -0.13562013624E+03  0.23498545647E+03  0.90109986712E+02 0.  0.
        -11    1    1    2    0    0  0.11507081940E+03 -0.51704904077E+02  0.43458683421E+03  0.45252669209E+03  0.00000000000E+00 0. -1.
         11    1    1    2    0    0  0.52887916022E+02  0.73962417116E+02 -0.29896669797E+03  0.31248785145E+03  0.00000000000E+00 0.  1.
        -15    1    3    3    0    0 -0.55819547572E+02  0.12016861556E+02 -0.19447342009E+01  0.57159133766E+02  0.17770000000E+01 0.  1.
         15    1    3    3    0    0 -0.11213918785E+03 -0.34274374595E+02 -0.13367540204E+03  0.17782632270E+03  0.17770000000E+01 0. -1.
</event>
<event>
 7    1  0.2288857E-006  0.4317536E+03  0.7546771E-02  0.9566969E-01
        -11   -1    0    0    0    0  0.00000000000E+00  0.00000000000E+00  0.50000000000E+03  0.50000000000E+03  0.00000000000E+00 0. -1.
         11   -1    0    0    0    0 -0.00000000000E+00 -0.00000000000E+00 -0.50000000000E+03  0.50000000000E+03  0.00000000000E+00 0.  1.
         23    2    1    2    0    0  0.39650379849E+02  0.90609662315E+02  0.41046293598E+03  0.43195210950E+03  0.91216991601E+02 0.  0.
        -11    1    1    2    0    0  0.11681676104E+03 -0.68297179281E+02 -0.78734628319E+01  0.13554575528E+03  0.00000000000E+00 0. -1.
         11    1    1    2    0    0 -0.15646714089E+03 -0.22312483034E+02 -0.40258947315E+03  0.43250213522E+03  0.00000000000E+00 0.  1.
        -15    1    3    3    0    0  0.62973463772E+02  0.46566501568E+02  0.31063320015E+03  0.32035954641E+03  0.17770000000E+01 0. -1.
         15    1    3    3    0    0 -0.23323083923E+02  0.44043160748E+02  0.99829735830E+02  0.11159256309E+03  0.17770000000E+01 0.  1.
</event>
<event>
 7    1  0.2288857E-006  0.5332050E+03  0.7546771E-02  0.9328430E-01
        -11   -1    0    0    0    0  0.00000000000E+00  0.00000000000E+00  0.50000000000E+03  0.50000000000E+03  0.00000000000E+00 0.  1.
         11   -1    0    0    0    0 -0.00000000000E+00 -0.00000000000E+00 -0.50000000000E+03  0.50000000000E+03  0.00000000000E+00 0. -1.
         23    2    1    2    0    0 -0.88399545859E+02 -0.64522624564E+02 -0.12491728495E+03  0.19239711612E+03  0.97132247088E+02 0.  0.
        -11    1    1    2    0    0  0.17500908002E+02  0.93438814821E+02  0.45701254327E+03  0.46679498563E+03  0.00000000000E+00 0.  1.
         11    1    1    2    0    0  0.70898637857E+02 -0.28916190257E+02 -0.33209525833E+03  0.34080789825E+03  0.00000000000E+00 0. -1.
        -15    1    3    3    0    0  0.60477684731E+01 -0.38115884535E+02 -0.70079234852E+02  0.80022828267E+02  0.17770000000E+01 0. -1.
         15    1    3    3    0    0 -0.94447314332E+02 -0.26406740029E+02 -0.54838050095E+02  0.11237428785E+03  0.17770000000E+01 0.  1.
</event>
<event>
 7    1  0.2288857E-006  0.5141370E+03  0.7546771E-02  0.9368721E-01
        -11   -1    0    0    0    0  0.00000000000E+00  0.00000000000E+00  0.50000000000E+03  0.50000000000E+03  0.00000000000E+00 0. -1.
         11   -1    0    0    0    0 -0.00000000000E+00 -0.00000000000E+00 -0.50000000000E+03  0.50000000000E+03  0.00000000000E+00 0. -1.
         23    2    1    2    0    0 -0.48726345744E+02 -0.10364237588E+03  0.35256571213E+03  0.38163934192E+03  0.90719386498E+02 0.  0.
        -11    1    1    2    0    0 -0.85801764039E+02 -0.86705215640E+01  0.10059081819E+03  0.13249767304E+03  0.00000000000E+00 0. -1.
         11    1    1    2    0    0  0.13452810978E+03  0.11231289744E+03 -0.45315653032E+03  0.48586298504E+03  0.00000000000E+00 0. -1.
        -15    1    3    3    0    0 -0.11791337652E+02 -0.41551377321E+02  0.34050537115E+02  0.55028623531E+02  0.17770000000E+01 0.  1.
         15    1    3    3    0    0 -0.36935008091E+02 -0.62090998557E+02  0.31851517502E+03  0.32661071839E+03  0.17770000000E+01 0. -1.
</event>
<event>
 7    1  0.2288857E-006  0.5339162E+03  0.7546771E-02  0.9326962E-01
        -11   -1    0    0    0    0  0.00000000000E+00  0.00000000000E+00  0.50000000000E+03  0.50000000000E+03  0.00000000000E+00 0.  1.
         11   -1    0    0    0    0 -0.00000000000E+00 -0.00000000000E+00 -0.50000000000E+03  0.50000000000E+03  0.00000000000E+00 0. -1.
         23    2    1    2    0    0  0.41775969932E+02  0.60800410938E+02  0.13018732362E+03  0.18010852232E+03  0.10024180238E+03 0.  0.
        -11    1    1    2    0    0  0.40121641375E+02 -0.14263158640E+03  0.32128861683E+03  0.35380770321E+03  0.00000000000E+00 0.  1.
         11    1    1    2    0    0 -0.81897611307E+02  0.81831175460E+02 -0.45147594046E+03  0.46608377447E+03  0.00000000000E+00 0. -1.
        -15    1    3    3    0    0  0.54622917720E+02  0.77524121276E+02  0.74739835852E+02  0.12075948539E+03  0.17770000000E+01 0.  1.
         15    1    3    3    0    0 -0.12846947789E+02 -0.16723710338E+02  0.55447487770E+02  0.59349036926E+02  0.17770000000E+01 0. -1.
</event>
<event>
 7    1  0.2288857E-006  0.5244844E+03  0.7546771E-02  0.9346631E-01
        -11   -1    0    0    0    0  0.00000000000E+00  0.00000000000E+00  0.50000000000E+03  0.50000000000E+03  0.00000000000E+00 0. -1.
         11   -1    0    0    0    0 -0.00000000000E+00 -0.00000000000E+00 -0.50000000000E+03  0.50000000000E+03  0.00000000000E+00 0. -1.
         23    2    1    2    0    0  0.68312730189E+02 -0.31858213711E+02  0.18873977427E+03  0.22343769966E+03  0.92844646318E+02 0.  0.
        -11    1    1    2    0    0  0.32350422035E+02  0.14440030114E+03  0.26216625817E+03  0.30104674670E+03  0.00000000000E+00 0. -1.
         11    1    1    2    0    0 -0.10066315222E+03 -0.11254208743E+03 -0.45090603244E+03  0.47551555364E+03  0.00000000000E+00 0. -1.
        -15    1    3    3    0    0  0.79129026328E+02 -0.31309330979E+02  0.19356203000E+03  0.21144998037E+03  0.17770000000E+01 0. -1.
         15    1    3    3    0    0 -0.10816296138E+02 -0.54888273245E+00 -0.48222557253E+01  0.11987719286E+02  0.17770000000E+01 0.  1.
</event>
<event>
 7    1  0.2288857E-006  0.3813020E+03  0.7546771E-02  0.9713320E-01
        -11   -1    0    0    0    0  0.00000000000E+00  0.00000000000E+00  0.50000000000E+03  0.50000000000E+03  0.00000000000E+00 0. -1.
         11   -1    0    0    0    0 -0.00000000000E+00 -0.00000000000E+00 -0.50000000000E+03  0.50000000000E+03  0.00000000000E+00 0.  1.
         23    2    1    2    0    0 -0.60661170827E+02 -0.10621644960E+03  0.34410134749E+03  0.37712437881E+03  0.94102858287E+02 0.  0.
        -11    1    1    2    0    0 -0.17506444439E+02  0.21407793067E+03  0.38082721397E+02  0.21814245269E+03  0.00000000000E+00 0. -1.
         11    1    1    2    0    0  0.78167615266E+02 -0.10786148107E+03 -0.38218406888E+03  0.40473316850E+03  0.00000000000E+00 0.  1.
        -15    1    3    3    0    0  0.11444771706E+02  0.10439496819E+02  0.21327810942E+02  0.26419673386E+02  0.17770000000E+01 0.  1.
         15    1    3    3    0    0 -0.72105942533E+02 -0.11665594642E+03  0.32277353654E+03  0.35070470542E+03  0.17770000000E+01 0. -1.
</event>
<event>
 7    1  0.2288857E-006  0.4347805E+03  0.7546771E-02  0.9558874E-01
        -11   -1    0    0    0    0  0.00000000000E+00  0.00000000000E+00  0.50000000000E+03  0.50000000000E+03  0.00000000000E+00 0.  1.
         11   -1    0    0    0    0 -0.00000000000E+00 -0.00000000000E+00 -0.50000000000E+03  0.50000000000E+03  0.00000000000E+00 0. -1.
         23    2    1    2    0    0 -0.25650363885E+03 -0.11054882075E+03  0.31028529384E+03  0.42768852832E+03  0.92872790274E+02 0.  0.
        -11    1    1    2    0    0 -0.78521061300E+02 -0.64680638774E+02 -0.81909691207E+02  0.13060757870E+03  0.00000000000E+00 0.  1.
         11    1    1    2    0    0  0.33502470015E+03  0.17522945952E+03 -0.22837560263E+03  0.44170389298E+03  0.00000000000E+00 0. -1.
        -15    1    3    3    0    0 -0.70563993982E+02  0.10901288240E+02  0.89719084821E+02  0.11467688190E+03  0.17770000000E+01 0.  1.
         15    1    3    3    0    0 -0.18593964487E+03 -0.12145010899E+03  0.22056620902E+03  0.31301164642E+03  0.17770000000E+01 0. -1.
</event>
<event>
 7    1  0.2288857E-006  0.3734703E+03  0.7546771E-02  0.9738208E-01
        -11   -1    0    0    0    0  0.00000000000E+00  0.00000000000E+00  0.50000000000E+03  0.50000000000E+03  0.00000000000E+00 0. -1.
         11   -1    0    0    0    0 -0.00000000000E+00 -0.00000000000E+00 -0.50000000000E+03  0.50000000000E+03  0.00000000000E+00 0. -1.
         23    2    1    2    0    0 -0.14092835542E+03 -0.11005288688E+03  0.10170710829E+03  0.22525032490E+03  0.91765645631E+02 0.  0.
        -11    1    1    2    0    0  0.24381982146E+03  0.17372862268E+03  0.25801417609E+03  0.39522279127E+03  0.00000000000E+00 0. -1.
         11    1    1    2    0    0 -0.10289146604E+03 -0.63675735804E+02 -0.35972128438E+03  0.37952688383E+03  0.00000000000E+00 0. -1.
        -15    1    3    3    0    0 -0.12163559517E+03 -0.73553656076E+02  0.11390862209E+03  0.18216391039E+03  0.17770000000E+01 0.  1.
         15    1    3    3    0    0 -0.19292760250E+02 -0.36499230801E+02 -0.12201513794E+02  0.43086414507E+02  0.17770000000E+01 0. -1.
</event>
<event>
 7    1  0.2288857E-006  0.5016325E+03  0.7546771E-02  0.9396164E-01
        -11   -1    0    0    0    0  0.00000000000E+00  0.00000000000E+00  0.50000000000E+03  0.50000000000E+03  0.00000000000E+00 0. -1.
         11   -1    0    0    0    0 -0.00000000000E+00 -0.00000000000E+00 -0.50000000000E+03  0.50000000000E+03  0.00000000000E+00 0. -1.
         23    2    1    2    0    0  0.19475332388E+03 -0.76735378917E+02  0.44651451030E+03  0.50163252170E+03  0.91884728732E+02 0.  0.
        -11    1    1    2    0    0 -0.18534829245E+03  0.88592326002E+02 -0.40383663569E+03  0.45308566306E+03  0.00000000000E+00 0. -1.
         11    1    1    2    0    0 -0.94050314261E+01 -0.11856947085E+02 -0.42677874611E+02  0.45281815242E+02  0.00000000000E+00 0. -1.
        -15    1    3    3    0    0  0.28474243417E+02 -0.39464682301E+02  0.16987006351E+03  0.17671230826E+03  0.17770000000E+01 0.  1.
         15    1    3    3    0    0  0.16627908046E+03 -0.37270696616E+02  0.27664444680E+03  0.32492021344E+03  0.17770000000E+01 0. -1.
</event>
<event>
 7    1  0.2288857E-006  0.5119796E+03  0.7546771E-02  0.9373396E-01
        -11   -1    0    0    0    0  0.00000000000E+00  0.00000000000E+00  0.50000000000E+03  0.50000000000E+03  0.00000000000E+00 0. -1.
         11   -1    0    0    0    0 -0.00000000000E+00 -0.00000000000E+00 -0.50000000000E+03  0.50000000000E+03  0.00000000000E+00 0. -1.
         23    2    1    2    0    0  0.79367244834E+02  0.27031698630E+02 -0.23023068932E+03  0.26146778706E+03  0.91265333411E+02 0.  0.
        -11    1    1    2    0    0 -0.76129496392E+02 -0.72430421726E+02  0.47657322444E+03  0.48802039349E+03  0.00000000000E+00 0. -1.
         11    1    1    2    0    0 -0.32377484414E+01  0.45398723097E+02 -0.24634253511E+03  0.25051181944E+03  0.00000000000E+00 0. -1.
        -15    1    3    3    0    0  0.43074109000E+02  0.31651720793E+02 -0.21541643003E+03  0.22195631632E+03  0.17770000000E+01 0.  1.
         15    1    3    3    0    0  0.36293135833E+02 -0.46200221638E+01 -0.14814259291E+02  0.39511470749E+02  0.17770000000E+01 0. -1.
</event>
<event>
 7    1  0.2288857E-006  0.3401429E+03  0.7546771E-02  0.9851933E-01
        -11   -1    0    0    0    0  0.00000000000E+00  0.00000000000E+00  0.50000000000E+03  0.50000000000E+03  0.00000000000E+00 0.  1.
         11   -1    0    0    0    0 -0.00000000000E+00 -0.00000000000E+00 -0.50000000000E+03  0.50000000000E+03  0.00000000000E+00 0. -1.
         23    2    1    2    0    0  0.16931466395E+03 -0.26165167535E+02 -0.18896375702E+03  0.27346833178E+03  0.98618231591E+02 0.  0.
        -11    1    1    2    0    0 -0.77681296190E+02  0.11941277358E+03  0.42963898371E+03  0.45264053133E+03  0.00000000000E+00 0.  1.
         11    1    1    2    0    0 -0.91633367761E+02 -0.93247606049E+02 -0.24067522670E+03  0.27389113689E+03  0.00000000000E+00 0. -1.
        -15    1    3    3    0    0  0.12666209044E+03 -0.52070792459E+02 -0.93805249279E+02  0.16600372015E+03  0.17770000000E+01 0. -1.
         15    1    3    3    0    0  0.42652573508E+02  0.25905624924E+02 -0.95158507738E+02  0.10746461163E+03  0.17770000000E+01 0.  1.
</event>
<event>
 7    1  0.2288857E-006  0.4885966E+03  0.7546771E-02  0.9425693E-01
        -11   -1    0    0    0    0  0.00000000000E+00  0.00000000000E+00  0.50000000000E+03  0.50000000000E+03  0.00000000000E+00 0.  1.
         11   -1    0    0    0    0 -0.00000000000E+00 -0.00000000000E+00 -0.50000000000E+03  0.50000000000E+03  0.00000000000E+00 0.  1.
         23    2    1    2    0    0 -0.14689535503E+03  0.14942640655E+02  0.46136592936E+03  0.49289284627E+03  0.91012687519E+02 0.  0.
        -11    1    1    2    0    0 -0.32212414332E+01 -0.29149491885E+02 -0.96267430008E+01  0.30866542636E+02  0.00000000000E+00 0.  1.
         11    1    1    2    0    0  0.15011659646E+03  0.14206851230E+02 -0.45173918636E+03  0.47624061109E+03  0.00000000000E+00 0.  1.
        -15    1    3    3    0    0  0.96633838532E+01  0.13474275231E+02  0.37875416418E+02  0.41384078802E+02  0.17770000000E+01 0. -1.
         15    1    3    3    0    0 -0.15655873888E+03  0.14683654232E+01  0.42349051295E+03  0.45150876747E+03  0.17770000000E+01 0.  1.
</event>
<event>
 7    1  0.2288857E-006  0.5229682E+03  0.7546771E-02  0.9349834E-01
        -11   -1    0    0    0    0  0.00000000000E+00  0.00000000000E+00  0.50000000000E+03  0.50000000000E+03  0.00000000000E+00 0. -1.
         11   -1    0    0    0    0 -0.00000000000E+00 -0.00000000000E+00 -0.50000000000E+03  0.50000000000E+03  0.00000000000E+00 0.  1.
         23    2    1    2    0    0  0.78358363437E+01 -0.61023408167E+02  0.17401838736E+03  0.20670117765E+03  0.93046875424E+02 0.  0.
        -11    1    1    2    0    0 -0.92853267086E+02  0.64526912819E+02  0.29536317921E+03  0.31626706961E+03  0.00000000000E+00 0. -1.
         11    1    1    2    0    0  0.85017430742E+02 -0.35035046525E+01 -0.46938156658E+03  0.47703175274E+03  0.00000000000E+00 0.  1.
        -15    1    3    3    0    0 -0.21024332082E+02 -0.75297318504E+02  0.13571611117E+03  0.15663246558E+03  0.17770000000E+01 0. -1.
         15    1    3    3    0    0  0.28860168425E+02  0.14273910338E+02  0.38302276192E+02  0.50068712070E+02  0.17770000000E+01 0.  1.
</event>
<event>
 7    1  0.2288857E-006  0.5023786E+03  0.7546771E-02  0.9394503E-01
        -11   -1    0    0    0    0  0.00000000000E+00  0.00000000000E+00  0.50000000000E+03  0.50000000000E+03  0.00000000000E+00 0.  1.
         11   -1    0    0    0    0 -0.00000000000E+00 -0.00000000000E+00 -0.50000000000E+03  0.50000000000E+03  0.00000000000E+00 0.  1.
         23    2    1    2    0    0 -0.28022872578E+00 -0.37436975342E+02  0.48738220286E+03  0.49762137129E+03  0.93188045596E+02 0.  0.
        -11    1    1    2    0    0  0.14967393151E+02  0.75855874859E+02 -0.25794101541E+03  0.26927997333E+03  0.00000000000E+00 0.  1.
         11    1    1    2    0    0 -0.14687164425E+02 -0.38418899518E+02 -0.22944118745E+03  0.23309865538E+03  0.00000000000E+00 0.  1.
        -15    1    3    3    0    0  0.30660935996E+02 -0.55908602598E+02  0.28535744860E+03  0.29240023262E+03  0.17770000000E+01 0.  1.
         15    1    3    3    0    0 -0.30941164722E+02  0.18471627257E+02  0.20202475427E+03  0.20522113866E+03  0.17770000000E+01 0. -1.
</event>
<event>
 7    1  0.2288857E-006  0.5070451E+03  0.7546771E-02  0.9384182E-01
        -11   -1    0    0    0    0  0.00000000000E+00  0.00000000000E+00  0.50000000000E+03  0.50000000000E+03  0.00000000000E+00 0.  1.
         11   -1    0    0    0    0 -0.00000000000E+00 -0.00000000000E+00 -0.50000000000E+03  0.50000000000E+03  0.00000000000E+00 0.  1.
         23    2    1    2    0    0  0.54399746546E+02 -0.88356342491E+02 -0.38394950521E+03  0.40835006695E+03  0.92554734863E+02 0.  0.
        -11    1    1    2    0    0 -0.39647661127E+02  0.10316454070E+03  0.48040573310E+03  0.49295489438E+03  0.00000000000E+00 0.  1.
         11    1    1    2    0    0 -0.14752085419E+02 -0.14808198211E+02 -0.96456227898E+02  0.98695038674E+02  0.00000000000E+00 0.  1.
        -15    1    3    3    0    0  0.40512712260E+02 -0.66407663373E+02 -0.37137471315E+03  0.37943852322E+03  0.17770000000E+01 0.  1.
         15    1    3    3    0    0  0.13887034285E+02 -0.21948679119E+02 -0.12574792056E+02  0.28911543725E+02  0.17770000000E+01 0. -1.
</event>
<event>
 7    1  0.2288857E-006  0.3814970E+03  0.7546771E-02  0.9712709E-01
        -11   -1    0    0    0    0  0.00000000000E+00  0.00000000000E+00  0.50000000000E+03  0.50000000000E+03  0.00000000000E+00 0.  1.
         11   -1    0    0    0    0 -0.00000000000E+00 -0.00000000000E+00 -0.50000000000E+03  0.50000000000E+03  0.00000000000E+00 0. -1.
         23    2    1    2    0    0  0.48012119396E+02 -0.23274507377E+03  0.29678634296E+03  0.39134399588E+03  0.92696045064E+02 0.  0.
        -11    1    1    2    0    0 -0.10263460580E+03  0.17168714613E+03  0.85614428285E+02  0.21757796025E+03  0.00000000000E+00 0.  1.
         11    1    1    2    0    0  0.54622486400E+02  0.61057927640E+02 -0.38240077125E+03  0.39107804387E+03  0.00000000000E+00 0. -1.
        -15    1    3    3    0    0  0.27280051534E+02 -0.22363728238E+03  0.23518518154E+03  0.32568859764E+03  0.17770000000E+01 0.  1.
         15    1    3    3    0    0  0.20732067862E+02 -0.91077913890E+01  0.61601161418E+02  0.65655398246E+02  0.17770000000E+01 0. -1.
</event>
<event>
 7    1  0.2288857E-006  0.3409399E+03  0.7546771E-02  0.9849053E-01
        -11   -1    0    0    0    0  0.00000000000E+00  0.00000000000E+00  0.50000000000E+03  0.50000000000E+03  0.00000000000E+00 0.  1.
         11   -1    0    0    0    0 -0.00000000000E+00 -0.00000000000E+00 -0.50000000000E+03  0.50000000000E+03  0.00000000000E+00 0. -1.
         23    2    1    2    0    0  0.19330380848E+03 -0.45133313637E+02  0.16105068296E+03  0.27178254473E+03  0.92331201471E+02 0.  0.
        -11    1    1    2    0    0 -0.59664167923E+02  0.68788493972E+02  0.26545535779E+03  0.28063894387E+03  0.00000000000E+00 0.  1.
         11    1    1    2    0    0 -0.13363964055E+03 -0.23655180335E+02 -0.42650604074E+03  0.44757851141E+03  0.00000000000E+00 0. -1.
        -15    1    3    3    0    0  0.54519033730E+02 -0.51474318083E+02  0.29967852962E+02  0.80766084473E+02  0.17770000000E+01 0. -1.
         15    1    3    3    0    0  0.13878477475E+03  0.63410044461E+01  0.13108283000E+03  0.19101646025E+03  0.17770000000E+01 0.  1.
</event>
<event>
 7    1  0.2288857E-006  0.5130015E+03  0.7546771E-02  0.9371179E-01
        -11   -1    0    0    0    0  0.00000000000E+00  0.00000000000E+00  0.50000000000E+03  0.50000000000E+03  0.00000000000E+00 0.  1.
         11   -1    0    0    0    0 -0.00000000000E+00 -0.00000000000E+00 -0.50000000000E+03  0.50000000000E+03  0.00000000000E+00 0. -1.
         23    2    1    2    0    0  0.51922181239E+02  0.58193300834E+02 -0.35142578379E+03  0.37116220762E+03  0.90437435199E+02 0.  0.
        -11    1    1    2    0    0 -0.14109375187E+03 -0.86758034247E+02  0.45796628198E+03  0.48699847922E+03  0.00000000000E+00 0.  1.
         11    1    1    2    0    0  0.89171570632E+02  0.28564733413E+02 -0.10654049820E+03  0.14183931317E+03  0.00000000000E+00 0. -1.
        -15    1    3    3    0    0  0.50241038717E+02  0.75343851546E+01 -0.27350778544E+03  0.27819165221E+03  0.17770000000E+01 0.  1.
         15    1    3    3    0    0  0.16811425226E+01  0.50658915680E+02 -0.77917998345E+02  0.92970555409E+02  0.17770000000E+01 0. -1.
</event>
<event>
 7    1  0.2288857E-006  0.3701102E+03  0.7546771E-02  0.9749087E-01
        -11   -1    0    0    0    0  0.00000000000E+00  0.00000000000E+00  0.50000000000E+03  0.50000000000E+03  0.00000000000E+00 0.  1.
         11   -1    0    0    0    0 -0.00000000000E+00 -0.00000000000E+00 -0.50000000000E+03  0.50000000000E+03  0.00000000000E+00 0. -1.
         23    2    1    2    0    0 -0.27010455706E+02  0.13893576852E+03  0.26916175041E+03  0.31714109863E+03  0.89987310583E+02 0.  0.
        -11    1    1    2    0    0  0.12066304817E+03 -0.10892941103E+03  0.16859039198E+03  0.23419630238E+03  0.00000000000E+00 0.  1.
         11    1    1    2    0    0 -0.93652592463E+02 -0.30006357487E+02 -0.43775214239E+03  0.44866259899E+03  0.00000000000E+00 0. -1.
        -15    1    3    3    0    0 -0.12246839712E+02 -0.81651002754E+01  0.54560003709E+02  0.56538532693E+02  0.17770000000E+01 0. -1.
         15    1    3    3    0    0 -0.14763615994E+02  0.14710086879E+03  0.21460174670E+03  0.26060256594E+03  0.17770000000E+01 0.  1.
</event>
<event>
 7    1  0.2288857E-006  0.5089160E+03  0.7546771E-02  0.9380078E-01
        -11   -1    0    0    0    0  0.00000000000E+00  0.00000000000E+00  0.50000000000E+03  0.50000000000E+03  0.00000000000E+00 0. -1.
         11   -1    0    0    0    0 -0.00000000000E+00 -0.00000000000E+00 -0.50000000000E+03  0.50000000000E+03  0.00000000000E+00 0. -1.
         23    2    1    2    0    0  0.18666313369E+02 -0.11797769237E+03 -0.38408801911E+03  0.41239864147E+03  0.91004757613E+02 0.  0.
        -11    1    1    2    0    0 -0.62851483016E+02  0.13264548211E+03  0.46863459365E+03  0.49108402051E+03  0.00000000000E+00 0. -1.
         11    1    1    2    0    0  0.44185169647E+02 -0.14667789739E+02 -0.84546574536E+02  0.96517338019E+02  0.00000000000E+00 0. -1.
        -15    1    3    3    0    0  0.32306455117E+02 -0.19653115663E+02 -0.43650050321E+02  0.57779205771E+02  0.17770000000E+01 0.  1.
         15    1    3    3    0    0 -0.13640141748E+02 -0.98324576709E+02 -0.34043796879E+03  0.35461943570E+03  0.17770000000E+01 0. -1.
</event>
<event>
 7    1  0.2288857E-006  0.5170426E+03  0.7546771E-02  0.9362463E-01
        -11   -1    0    0    0    0  0.00000000000E+00  0.00000000000E+00  0.50000000000E+03  0.50000000000E+03  0.00000000000E+00 0. -1.
         11   -1    0    0    0    0 -0.00000000000E+00 -0.00000000000E+00 -0.50000000000E+03  0.50000000000E+03  0.00000000000E+00 0.  1.
         23    2    1    2    0    0  0.71055743231E+02 -0.59783453974E+02  0.20031934068E+03  0.23320172149E+03  0.75048148809E+02 0.  0.
        -11    1    1    2    0    0 -0.72072932292E+02 -0.50997406529E+02  0.26975985691E+03  0.28384084174E+03  0.00000000000E+00 0. -1.
         11    1    1    2    0    0  0.10171890609E+01  0.11078086050E+03 -0.47007919759E+03  0.48295743677E+03  0.00000000000E+00 0.  1.
        -15    1    3    3    0    0  0.56126092897E+02 -0.20800816913E+02  0.17352392180E+03  0.18356612284E+03  0.17770000000E+01 0. -1.
         15    1    3    3    0    0  0.14929650334E+02 -0.38982637061E+02  0.26795418877E+02  0.49635598648E+02  0.17770000000E+01 0.  1.
</event>
<event>
 7    1  0.2288857E-006  0.3994667E+03  0.7546771E-02  0.9657978E-01
        -11   -1    0    0    0    0  0.00000000000E+00  0.00000000000E+00  0.50000000000E+03  0.50000000000E+03  0.00000000000E+00 0.  1.
         11   -1    0    0    0    0 -0.00000000000E+00 -0.00000000000E+00 -0.50000000000E+03  0.50000000000E+03  0.00000000000E+00 0. -1.
         23    2    1    2    0    0  0.67961044409E+02 -0.67194670205E+02  0.39670309042E+03  0.41794737010E+03  0.90403733136E+02 0.  0.
        -11    1    1    2    0    0 -0.89945121858E+02  0.16545975145E+03 -0.16849489573E+02  0.18907924158E+03  0.00000000000E+00 0.  1.
         11    1    1    2    0    0  0.21984077449E+02 -0.98265081247E+02 -0.37985360085E+03  0.39297338832E+03  0.00000000000E+00 0. -1.
        -15    1    3    3    0    0  0.42266298590E+02  0.92330579173E+01  0.78152810139E+02  0.89346006159E+02  0.17770000000E+01 0. -1.
         15    1    3    3    0    0  0.25694745819E+02 -0.76427728122E+02  0.31855028028E+03  0.32860136394E+03  0.17770000000E+01 0.  1.
</event>
<event>
 7    1  0.2288857E-006  0.5112686E+03  0.7546771E-02  0.9374942E-01
        -11   -1    0    0    0    0  0.00000000000E+00  0.00000000000E+00  0.50000000000E+03  0.50000000000E+03  0.00000000000E+00 0. -1.
         11   -1    0    0    0    0 -0.00000000000E+00 -0.00000000000E+00 -0.50000000000E+03  0.50000000000E+03  0.00000000000E+00 0. -1.
         23    2    1    2    0    0 -0.17499076860E+03  0.25728238206E+03 -0.14914789287E+03  0.35691944259E+03  0.91271032303E+02 0.  0.
        -11    1    1    2    0    0  0.18929306075E+03 -0.39715551534E+03  0.21282382510E+03  0.48873136460E+03  0.00000000000E+00 0. -1.
         11    1    1    2    0    0 -0.14302292150E+02  0.13987313328E+03 -0.63675932232E+02  0.15434919281E+03  0.00000000000E+00 0. -1.
        -15    1    3    3    0    0 -0.18524201253E+03  0.24861707340E+03 -0.14728866205E+03  0.34325232714E+03  0.17770000000E+01 0. -1.
         15    1    3    3    0    0  0.10251243934E+02  0.86653086559E+01 -0.18592308248E+01  0.13667115444E+02  0.17770000000E+01 0.  1.
</event>
<event>
 7    1  0.2288857E-006  0.5102646E+03  0.7546771E-02  0.9377130E-01
        -11   -1    0    0    0    0  0.00000000000E+00  0.00000000000E+00  0.50000000000E+03  0.50000000000E+03  0.00000000000E+00 0.  1.
         11   -1    0    0    0    0 -0.00000000000E+00 -0.00000000000E+00 -0.50000000000E+03  0.50000000000E+03  0.00000000000E+00 0. -1.
         23    2    1    2    0    0  0.11935374756E+03 -0.10535146842E+03 -0.29772370117E+03  0.34773954204E+03  0.83301488006E+02 0.  0.
        -11    1    1    2    0    0 -0.17662270345E+03  0.21524093555E+03  0.40288527937E+03  0.48973542658E+03  0.00000000000E+00 0.  1.
         11    1    1    2    0    0  0.57268955896E+02 -0.10988946713E+03 -0.10516157820E+03  0.16252503138E+03  0.00000000000E+00 0. -1.
        -15    1    3    3    0    0  0.68418953485E+02 -0.10764602186E+03 -0.22924549555E+03  0.26234609618E+03  0.17770000000E+01 0.  1.
         15    1    3    3    0    0  0.50934794072E+02  0.22945534398E+01 -0.68478205617E+02  0.85393445862E+02  0.17770000000E+01 0. -1.
</event>
<event>
 7    1  0.2288857E-006  0.5008488E+03  0.7546771E-02  0.9397912E-01
        -11   -1    0    0    0    0  0.00000000000E+00  0.00000000000E+00  0.50000000000E+03  0.50000000000E+03  0.00000000000E+00 0. -1.
         11   -1    0    0    0    0 -0.00000000000E+00 -0.00000000000E+00 -0.50000000000E+03  0.50000000000E+03  0.00000000000E+00 0.  1.
         23    2    1    2    0    0  0.26523467999E+02 -0.10761235573E+03  0.48058030711E+03  0.50084884410E+03  0.87225108753E+02 0.  0.
        -11    1    1    2    0    0 -0.13200677761E+02 -0.27432717807E+01 -0.13703172613E+02  0.19223953107E+02  0.00000000000E+00 0. -1.
         11    1    1    2    0    0 -0.13322790238E+02  0.11035562751E+03 -0.46687713450E+03  0.47992720279E+03  0.00000000000E+00 0.  1.
        -15    1    3    3    0    0  0.47039343303E+02 -0.20293376983E+02  0.16753515716E+03  0.17520190519E+03  0.17770000000E+01 0.  1.
         15    1    3    3    0    0 -0.20515875304E+02 -0.87318978743E+02  0.31304514995E+03  0.32564693892E+03  0.17770000000E+01 0. -1.
</event>
<event>
 7    1  0.2288857E-006  0.5205284E+03  0.7546771E-02  0.9355012E-01
        -11   -1    0    0    0    0  0.00000000000E+00  0.00000000000E+00  0.50000000000E+03  0.50000000000E+03  0.00000000000E+00 0. -1.
         11   -1    0    0    0    0 -0.00000000000E+00 -0.00000000000E+00 -0.50000000000E+03  0.50000000000E+03  0.00000000000E+00 0.  1.
         23    2    1    2    0    0 -0.29540505464E+01  0.86534935728E+01 -0.95325950346E+02  0.13282043997E+03  0.92035988062E+02 0.  0.
        -11    1    1    2    0    0  0.32905412092E+02  0.79510764792E+02  0.47168668872E+03  0.47947164690E+03  0.00000000000E+00 0. -1.
         11    1    1    2    0    0 -0.29951361546E+02 -0.88164258365E+02 -0.37636073838E+03  0.38770791313E+03  0.00000000000E+00 0.  1.
        -15    1    3    3    0    0 -0.14754916578E+02 -0.13168552883E+02  0.11629352901E+02  0.23011256509E+02  0.17770000000E+01 0. -1.
         15    1    3    3    0    0  0.11800866031E+02  0.21822046456E+02 -0.10695530325E+03  0.10980918346E+03  0.17770000000E+01 0.  1.
</event>
<event>
 7    1  0.2288857E-006  0.5193552E+03  0.7546771E-02  0.9357513E-01
        -11   -1    0    0    0    0  0.00000000000E+00  0.00000000000E+00  0.50000000000E+03  0.50000000000E+03  0.00000000000E+00 0.  1.
         11   -1    0    0    0    0 -0.00000000000E+00 -0.00000000000E+00 -0.50000000000E+03  0.50000000000E+03  0.00000000000E+00 0. -1.
         23    2    1    2    0    0 -0.18415148851E+02 -0.60496828650E+01  0.24929771326E+03  0.26516242176E+03  0.88238561357E+02 0.  0.
        -11    1    1    2    0    0 -0.15363854304E+03  0.42368908536E+02  0.19802531798E+03  0.25419274749E+03  0.00000000000E+00 0.  1.
         11    1    1    2    0    0  0.17205369189E+03 -0.36319225671E+02 -0.44732303124E+03  0.48064483074E+03  0.00000000000E+00 0. -1.
        -15    1    3    3    0    0 -0.10607041125E+02 -0.46291166716E+02  0.15960896410E+03  0.16653396227E+03  0.17770000000E+01 0. -1.
         15    1    3    3    0    0 -0.78081077266E+01  0.40241483851E+02  0.89688749152E+02  0.98628459495E+02  0.17770000000E+01 0.  1.
</event>
<event>
 7    1  0.2288857E-006  0.5425062E+03  0.7546771E-02  0.9309420E-01
        -11   -1    0    0    0    0  0.00000000000E+00  0.00000000000E+00  0.50000000000E+03  0.50000000000E+03  0.00000000000E+00 0.  1.
         11   -1    0    0    0    0 -0.00000000000E+00 -0.00000000000E+00 -0.50000000000E+03  0.50000000000E+03  0.00000000000E+00 0. -1.
         23    2    1    2    0    0 -0.60524742450E+02  0.84156307289E+02 -0.62991132609E+02  0.16018312702E+03  0.10461941927E+03 0.  0.
        -11    1    1    2    0    0 -0.38352741177E+02 -0.17498190493E+03  0.42096438957E+03  0.45749384378E+03  0.00000000000E+00 0.  1.
         11    1    1    2    0    0  0.98877483628E+02  0.90825597640E+02 -0.35797325696E+03  0.38232302920E+03  0.00000000000E+00 0. -1.
        -15    1    3    3    0    0 -0.79535743569E+02  0.63229215836E+02 -0.78017183828E+02  0.12811599019E+03  0.17770000000E+01 0.  1.
         15    1    3    3    0    0  0.19011001119E+02  0.20927091453E+02  0.15026051220E+02  0.32067136830E+02  0.17770000000E+01 0. -1.
</event>
<event>
 7    1  0.2288857E-006  0.5408483E+03  0.7546771E-02  0.9312779E-01
        -11   -1    0    0    0    0  0.00000000000E+00  0.00000000000E+00  0.50000000000E+03  0.50000000000E+03  0.00000000000E+00 0.  1.
         11   -1    0    0    0    0 -0.00000000000E+00 -0.00000000000E+00 -0.50000000000E+03  0.50000000000E+03  0.00000000000E+00 0. -1.
         23    2    1    2    0    0 -0.69302844272E+02 -0.36470635421E+02  0.28453057045E+03  0.30813957199E+03  0.88653024970E+02 0.  0.
        -11    1    1    2    0    0  0.14979684658E+03 -0.10252924898E+03  0.14560902692E+03  0.23270868239E+03  0.00000000000E+00 0.  1.
         11    1    1    2    0    0 -0.80494002307E+02  0.13899988440E+03 -0.43013959737E+03  0.45915174561E+03  0.00000000000E+00 0. -1.
        -15    1    3    3    0    0 -0.35865938639E+02  0.20457787288E+02  0.17849658386E+03  0.18321865296E+03  0.17770000000E+01 0. -1.
         15    1    3    3    0    0 -0.33436905633E+02 -0.56928422709E+02  0.10603398659E+03  0.12492091903E+03  0.17770000000E+01 0.  1.
</event>
<event>
 7    1  0.2288857E-006  0.4555182E+03  0.7546771E-02  0.9505240E-01
        -11   -1    0    0    0    0  0.00000000000E+00  0.00000000000E+00  0.50000000000E+03  0.50000000000E+03  0.00000000000E+00 0.  1.
         11   -1    0    0    0    0 -0.00000000000E+00 -0.00000000000E+00 -0.50000000000E+03  0.50000000000E+03  0.00000000000E+00 0.  1.
         23    2    1    2    0    0  0.31456794804E+02  0.12826108995E+02  0.42717864966E+03  0.43801547731E+03  0.90674807030E+02 0.  0.
        -11    1    1    2    0    0 -0.57319475565E+02  0.65100157397E+02  0.34288648147E+02  0.93269845951E+02  0.00000000000E+00 0.  1.
         11    1    1    2    0    0  0.25862680761E+02 -0.77926266392E+02 -0.46146729780E+03  0.46871467674E+03  0.00000000000E+00 0.  1.
        -15    1    3    3    0    0  0.58120208770E+02  0.26625965316E+02  0.33514355821E+03  0.34119094806E+03  0.17770000000E+01 0.  1.
         15    1    3    3    0    0 -0.26663413966E+02 -0.13799856321E+02  0.92035091443E+02  0.96824529251E+02  0.17770000000E+01 0. -1.
</event>
<event>
 7    1  0.2288857E-006  0.5368773E+03  0.7546771E-02  0.9320876E-01
        -11   -1    0    0    0    0  0.00000000000E+00  0.00000000000E+00  0.50000000000E+03  0.50000000000E+03  0.00000000000E+00 0.  1.
         11   -1    0    0    0    0 -0.00000000000E+00 -0.00000000000E+00 -0.50000000000E+03  0.50000000000E+03  0.00000000000E+00 0. -1.
         23    2    1    2    0    0  0.13780113280E+01 -0.77586023632E+02  0.24275621589E+03  0.27048333097E+03  0.90604425938E+02 0.  0.
        -11    1    1    2    0    0  0.43557766064E-01  0.16003502127E+03  0.21296604437E+03  0.26639396762E+03  0.00000000000E+00 0.  1.
         11    1    1    2    0    0 -0.14215690941E+01 -0.82448997640E+02 -0.45572226026E+03  0.46312270141E+03  0.00000000000E+00 0. -1.
        -15    1    3    3    0    0 -0.38329082582E+02 -0.65233960992E+02  0.13188917236E+03  0.15206084228E+03  0.17770000000E+01 0. -1.
         15    1    3    3    0    0  0.39707093910E+02 -0.12352062640E+02  0.11086704353E+03  0.11842248869E+03  0.17770000000E+01 0.  1.
</event>
<event>
 7    1  0.2288857E-006  0.5206375E+03  0.7546771E-02  0.9354780E-01
        -11   -1    0    0    0    0  0.00000000000E+00  0.00000000000E+00  0.50000000000E+03  0.50000000000E+03  0.00000000000E+00 0.  1.
         11   -1    0    0    0    0 -0.00000000000E+00 -0.00000000000E+00 -0.50000000000E+03  0.50000000000E+03  0.00000000000E+00 0. -1.
         23    2    1    2    0    0  0.25797360869E+02 -0.85121975121E+02 -0.18394849799E+03  0.22409478276E+03  0.92033511680E+02 0.  0.
        -11    1    1    2    0    0  0.55300194200E+02  0.81349105707E+02  0.46916162469E+03  0.47936251268E+03  0.00000000000E+00 0.  1.
         11    1    1    2    0    0 -0.81097555069E+02  0.37728694146E+01 -0.28521312671E+03  0.29654270456E+03  0.00000000000E+00 0. -1.
        -15    1    3    3    0    0 -0.10854279240E+02 -0.64940788618E+02 -0.47077226050E+02  0.80960140474E+02  0.17770000000E+01 0. -1.
         15    1    3    3    0    0  0.36651640110E+02 -0.20181186504E+02 -0.13687127194E+03  0.14313464229E+03  0.17770000000E+01 0.  1.
</event>
<event>
 7    1  0.2288857E-006  0.4352647E+03  0.7546771E-02  0.9557585E-01
        -11   -1    0    0    0    0  0.00000000000E+00  0.00000000000E+00  0.50000000000E+03  0.50000000000E+03  0.00000000000E+00 0.  1.
         11   -1    0    0    0    0 -0.00000000000E+00 -0.00000000000E+00 -0.50000000000E+03  0.50000000000E+03  0.00000000000E+00 0.  1.
         23    2    1    2    0    0 -0.22493367676E+02 -0.54697318983E+02 -0.58600855910E+02  0.12549832440E+03  0.93904317367E+02 0.  0.
        -11    1    1    2    0    0 -0.13861169795E+03 -0.47939195062E+02  0.43137923865E+03  0.45563078997E+03  0.00000000000E+00 0.  1.
         11    1    1    2    0    0  0.16110506562E+03  0.10263651404E+03 -0.37277838274E+03  0.41887088563E+03  0.00000000000E+00 0.  1.
        -15    1    3    3    0    0 -0.46740633101E+02  0.44407586214E+01 -0.26707549222E+02  0.54044963079E+02  0.17770000000E+01 0. -1.
         15    1    3    3    0    0  0.24247265424E+02 -0.59138077605E+02 -0.31893306688E+02  0.71453361320E+02  0.17770000000E+01 0.  1.
</event>
<event>
 7    1  0.2288857E-006  0.3782648E+03  0.7546771E-02  0.9722895E-01
        -11   -1    0    0    0    0  0.00000000000E+00  0.00000000000E+00  0.50000000000E+03  0.50000000000E+03  0.00000000000E+00 0. -1.
         11   -1    0    0    0    0 -0.00000000000E+00 -0.00000000000E+00 -0.50000000000E+03  0.50000000000E+03  0.00000000000E+00 0.  1.
         23    2    1    2    0    0 -0.18699043845E+03 -0.42822409898E+02 -0.27304912344E+02  0.21905079098E+03  0.10216901650E+03 0.  0.
        -11    1    1    2    0    0  0.12035175770E+03  0.10583333699E+02  0.39128753044E+03  0.40951493747E+03  0.00000000000E+00 0. -1.
         11    1    1    2    0    0  0.66638680752E+02  0.32239076199E+02 -0.36398261809E+03  0.37143427155E+03  0.00000000000E+00 0.  1.
        -15    1    3    3    0    0 -0.18940890154E+03 -0.22772750860E+02 -0.78342619352E+01  0.19094204239E+03  0.17770000000E+01 0. -1.
         15    1    3    3    0    0  0.24184630886E+01 -0.20049659038E+02 -0.19470650409E+02  0.28108748595E+02  0.17770000000E+01 0.  1.
</event>
<event>
 7    1  0.2288857E-006  0.5187073E+03  0.7546771E-02  0.9358897E-01
        -11   -1    0    0    0    0  0.00000000000E+00  0.00000000000E+00  0.50000000000E+03  0.50000000000E+03  0.00000000000E+00 0. -1.
         11   -1    0    0    0    0 -0.00000000000E+00 -0.00000000000E+00 -0.50000000000E+03  0.50000000000E+03  0.00000000000E+00 0.  1.
         23    2    1    2    0    0 -0.18358015923E+02  0.11702529052E+03  0.36269529932E+03  0.39255360000E+03  0.92295792710E+02 0.  0.
        -11    1    1    2    0    0  0.45558425911E+02 -0.38094594595E+02  0.11130130091E+03  0.12615366778E+03  0.00000000000E+00 0. -1.
         11    1    1    2    0    0 -0.27200409987E+02 -0.78930695929E+02 -0.47399660023E+03  0.48129273223E+03  0.00000000000E+00 0.  1.
        -15    1    3    3    0    0  0.21735582543E+02  0.95113491584E+02  0.29615385719E+03  0.31181609433E+03  0.17770000000E+01 0. -1.
         15    1    3    3    0    0 -0.40093598467E+02  0.21911798940E+02  0.66541442131E+02  0.80737505663E+02  0.17770000000E+01 0.  1.
</event>
<event>
 7    1  0.2288857E-006  0.5136465E+03  0.7546771E-02  0.9369782E-01
        -11   -1    0    0    0    0  0.00000000000E+00  0.00000000000E+00  0.50000000000E+03  0.50000000000E+03  0.00000000000E+00 0. -1.
         11   -1    0    0    0    0 -0.00000000000E+00 -0.00000000000E+00 -0.50000000000E+03  0.50000000000E+03  0.00000000000E+00 0. -1.
         23    2    1    2    0    0  0.44022486180E+02 -0.27550564221E+02  0.23711114285E+03  0.25856467875E+03  0.89089764597E+02 0.  0.
        -11    1    1    2    0    0 -0.50208383655E+02 -0.78062518803E+02  0.23759649586E+03  0.25508181722E+03  0.00000000000E+00 0. -1.
         11    1    1    2    0    0  0.61858974756E+01  0.10561308302E+03 -0.47470763871E+03  0.48635350403E+03  0.00000000000E+00 0. -1.
        -15    1    3    3    0    0  0.61837625617E+02 -0.39712654876E+02  0.21664192117E+03  0.22877470716E+03  0.17770000000E+01 0.  1.
         15    1    3    3    0    0 -0.17815139437E+02  0.12162090654E+02  0.20469221681E+02  0.29789971592E+02  0.17770000000E+01 0. -1.
</event>
<event>
 7    1  0.2288857E-006  0.5334116E+03  0.7546771E-02  0.9328004E-01
        -11   -1    0    0    0    0  0.00000000000E+00  0.00000000000E+00  0.50000000000E+03  0.50000000000E+03  0.00000000000E+00 0. -1.
         11   -1    0    0    0    0 -0.00000000000E+00 -0.00000000000E+00 -0.50000000000E+03  0.50000000000E+03  0.00000000000E+00 0.  1.
         23    2    1    2    0    0 -0.76474847113E+02  0.19386562760E+03  0.23000311940E+03  0.32352245076E+03  0.91285581593E+02 0.  0.
        -11    1    1    2    0    0 -0.19399221593E+03  0.60349649991E+02  0.52710375663E+02  0.20988912263E+03  0.00000000000E+00 0. -1.
         11    1    1    2    0    0  0.27046706305E+03 -0.25421527759E+03 -0.28271349506E+03  0.46658842661E+03  0.00000000000E+00 0.  1.
        -15    1    3    3    0    0  0.11195090897E+02 -0.30056902416E+01  0.15662751411E+02  0.19566393249E+02  0.17770000000E+01 0.  1.
         15    1    3    3    0    0 -0.87669938010E+02  0.19687131784E+03  0.21434036799E+03  0.30395605751E+03  0.17770000000E+01 0. -1.
</event>
<event>
 7    1  0.2288857E-006  0.5186824E+03  0.7546771E-02  0.9358950E-01
        -11   -1    0    0    0    0  0.00000000000E+00  0.00000000000E+00  0.50000000000E+03  0.50000000000E+03  0.00000000000E+00 0. -1.
         11   -1    0    0    0    0 -0.00000000000E+00 -0.00000000000E+00 -0.50000000000E+03  0.50000000000E+03  0.00000000000E+00 0.  1.
         23    2    1    2    0    0 -0.12941553171E+03  0.16340560505E+03  0.34462405053E+03  0.41340903169E+03  0.93228320128E+02 0.  0.
        -11    1    1    2    0    0  0.25917825275E+02  0.87122298305E+02  0.53107855188E+02  0.10527332431E+03  0.00000000000E+00 0. -1.
         11    1    1    2    0    0  0.10349770644E+03 -0.25052790335E+03 -0.39773190572E+03  0.48131764399E+03  0.00000000000E+00 0.  1.
        -15    1    3    3    0    0 -0.93860412898E+02  0.12412138509E+03  0.31810257282E+03  0.35413034310E+03  0.17770000000E+01 0. -1.
         15    1    3    3    0    0 -0.35555118817E+02  0.39284219959E+02  0.26521477710E+02  0.59278688588E+02  0.17770000000E+01 0.  1.
</event>
<event>
 7    1  0.2288857E-006  0.5300477E+03  0.7546771E-02  0.9334977E-01
        -11   -1    0    0    0    0  0.00000000000E+00  0.00000000000E+00  0.50000000000E+03  0.50000000000E+03  0.00000000000E+00 0.  1.
         11   -1    0    0    0    0 -0.00000000000E+00 -0.00000000000E+00 -0.50000000000E+03  0.50000000000E+03  0.00000000000E+00 0. -1.
         23    2    1    2    0    0  0.25118593296E+02 -0.65942372733E+02  0.28862210129E+03  0.31119063435E+03  0.92507044603E+02 0.  0.
        -11    1    1    2    0    0 -0.12598386499E+03  0.55145333224E+02  0.17025125033E+03  0.21885710007E+03  0.00000000000E+00 0.  1.
         11    1    1    2    0    0  0.10086527169E+03  0.10797039509E+02 -0.45887335162E+03  0.46995226558E+03  0.00000000000E+00 0. -1.
        -15    1    3    3    0    0  0.11420531443E+02  0.22613555774E+02  0.85077640500E+02  0.88787184240E+02  0.17770000000E+01 0. -1.
         15    1    3    3    0    0  0.13698061853E+02 -0.88555928506E+02  0.20354446079E+03  0.22240345011E+03  0.17770000000E+01 0.  1.
</event>
<event>
 7    1  0.2288857E-006  0.4385290E+03  0.7546771E-02  0.9548946E-01
        -11   -1    0    0    0    0  0.00000000000E+00  0.00000000000E+00  0.50000000000E+03  0.50000000000E+03  0.00000000000E+00 0. -1.
         11   -1    0    0    0    0 -0.00000000000E+00 -0.00000000000E+00 -0.50000000000E+03  0.50000000000E+03  0.00000000000E+00 0. -1.
         23    2    1    2    0    0 -0.16756061761E+03 -0.73092893613E+02  0.42515945557E+03  0.47159641282E+03  0.90683417722E+02 0.  0.
        -11    1    1    2    0    0  0.99503277576E+02  0.68577533406E+02 -0.26197301726E+02  0.12365305881E+03  0.00000000000E+00 0. -1.
         11    1    1    2    0    0  0.68057340037E+02  0.45153602075E+01 -0.39896215385E+03  0.40475052837E+03  0.00000000000E+00 0. -1.
        -15    1    3    3    0    0 -0.34169744583E+02 -0.34550000220E+02  0.20972587620E+03  0.21528904951E+03  0.17770000000E+01 0.  1.
         15    1    3    3    0    0 -0.13339087303E+03 -0.38542893393E+02  0.21543357937E+03  0.25630736331E+03  0.17770000000E+01 0. -1.
</event>
<event>
 6    1  0.2288857E-006  0.4750205E+03  0.7546771E-02  0.9457506E-01
        -11   -1    0    0    0    0  0.00000000000E+00  0.00000000000E+00  0.50000000000E+03  0.50000000000E+03  0.00000000000E+00 0. -1.
         11   -1    0    0    0    0 -0.00000000000E+00 -0.00000000000E+00 -0.50000000000E+03  0.50000000000E+03  0.00000000000E+00 0.  1.
        -11    1    1    2    0    0 -0.72915464598E+02 -0.31242061396E+02  0.12123485792E+03  0.14488140720E+03  0.00000000000E+00 0. -1.
         11    1    1    2    0    0  0.84701243315E+01 -0.12935085845E+03 -0.39337904596E+03  0.41418650556E+03  0.00000000000E+00 0.  1.
        -15    1    1    2    0    0  0.81222949376E+02  0.11366882306E+03  0.33366731104E+03  0.36173858106E+03  0.17770000000E+01 0. -1.
         15    1    1    2    0    0 -0.16777609109E+02  0.46924096796E+02 -0.61523123005E+02  0.79193506178E+02  0.17770000000E+01 0.  1.
</event>
<event>
 7    1  0.2288857E-006  0.5331782E+03  0.7546771E-02  0.9328486E-01
        -11   -1    0    0    0    0  0.00000000000E+00  0.00000000000E+00  0.50000000000E+03  0.50000000000E+03  0.00000000000E+00 0.  1.
         11   -1    0    0    0    0 -0.00000000000E+00 -0.00000000000E+00 -0.50000000000E+03  0.50000000000E+03  0.00000000000E+00 0. -1.
         23    2    1    2    0    0 -0.44353988544E+02  0.94385280796E+01  0.97258909525E+02  0.14128445207E+03  0.91900156708E+02 0.  0.
        -11    1    1    2    0    0  0.13255389902E+03 -0.13101393584E+03  0.34473975352E+03  0.39189371670E+03  0.00000000000E+00 0.  1.
         11    1    1    2    0    0 -0.88199910475E+02  0.12157540776E+03 -0.44199866305E+03  0.46682183123E+03  0.00000000000E+00 0. -1.
        -15    1    3    3    0    0  0.17782384232E+02  0.25826916460E+02  0.10117455272E+02  0.32996415456E+02  0.17770000000E+01 0. -1.
         15    1    3    3    0    0 -0.62136372776E+02 -0.16388388381E+02  0.87141454253E+02  0.10828803661E+03  0.17770000000E+01 0.  1.
</event>
<event>
 7    1  0.2288857E-006  0.3689234E+03  0.7546771E-02  0.9752959E-01
        -11   -1    0    0    0    0  0.00000000000E+00  0.00000000000E+00  0.50000000000E+03  0.50000000000E+03  0.00000000000E+00 0. -1.
         11   -1    0    0    0    0 -0.00000000000E+00 -0.00000000000E+00 -0.50000000000E+03  0.50000000000E+03  0.00000000000E+00 0.  1.
         23    2    1    2    0    0  0.54086787469E+02 -0.15858526532E+03 -0.13126321032E+03  0.23206610867E+03  0.92466109758E+02 0.  0.
        -11    1    1    2    0    0 -0.20435455011E+03  0.76400211693E+02  0.39629291203E+03  0.45237799087E+03  0.00000000000E+00 0. -1.
         11    1    1    2    0    0  0.15026776265E+03  0.82185053632E+02 -0.26502970170E+03  0.31555590046E+03  0.00000000000E+00 0.  1.
        -15    1    3    3    0    0 -0.21147379319E+02 -0.14182014324E+02 -0.49927723587E+01  0.26008204228E+02  0.17770000000E+01 0. -1.
         15    1    3    3    0    0  0.75234166788E+02 -0.14440325100E+03 -0.12627043797E+03  0.20605790445E+03  0.17770000000E+01 0.  1.
</event>
<event>
 7    1  0.2288857E-006  0.5252117E+03  0.7546771E-02  0.9345099E-01
        -11   -1    0    0    0    0  0.00000000000E+00  0.00000000000E+00  0.50000000000E+03  0.50000000000E+03  0.00000000000E+00 0.  1.
         11   -1    0    0    0    0 -0.00000000000E+00 -0.00000000000E+00 -0.50000000000E+03  0.50000000000E+03  0.00000000000E+00 0. -1.
         23    2    1    2    0    0 -0.15972938025E+02  0.59373322857E+01  0.30761932970E+03  0.32835700362E+03  0.11357060868E+03 0.  0.
        -11    1    1    2    0    0  0.10065758383E+03  0.72261534298E+02  0.15296438211E+03  0.19685471983E+03  0.00000000000E+00 0.  1.
         11    1    1    2    0    0 -0.84684645808E+02 -0.78198866584E+02 -0.46058371181E+03  0.47478827656E+03  0.00000000000E+00 0. -1.
        -15    1    3    3    0    0 -0.12904079299E+02  0.53518923513E+02  0.89591035602E+02  0.10516892044E+03  0.17770000000E+01 0.  1.
         15    1    3    3    0    0 -0.30688587264E+01 -0.47581591227E+02  0.21802829410E+03  0.22318808318E+03  0.17770000000E+01 0. -1.
</event>
<event>
 7    1  0.2288857E-006  0.4793812E+03  0.7546771E-02  0.9447166E-01
        -11   -1    0    0    0    0  0.00000000000E+00  0.00000000000E+00  0.50000000000E+03  0.50000000000E+03  0.00000000000E+00 0.  1.
         11   -1    0    0    0    0 -0.00000000000E+00 -0.00000000000E+00 -0.50000000000E+03  0.50000000000E+03  0.00000000000E+00 0. -1.
         23    2    1    2    0    0 -0.35950870867E+02  0.77310725600E+02  0.44863061380E+03  0.46599593782E+03  0.92808259448E+02 0.  0.
        -11    1    1    2    0    0 -0.28634772282E+02  0.35167611434E+02  0.18665438253E+02  0.49041917406E+02  0.00000000000E+00 0.  1.
         11    1    1    2    0    0  0.64585643149E+02 -0.11247833703E+03 -0.46729605205E+03  0.48496214477E+03  0.00000000000E+00 0. -1.
        -15    1    3    3    0    0 -0.48858836168E+02  0.84568954610E+02  0.43485814237E+03  0.44569480104E+03  0.17770000000E+01 0.  1.
         15    1    3    3    0    0  0.12907965301E+02 -0.72582290103E+01  0.13772471424E+02  0.20301136784E+02  0.17770000000E+01 0. -1.
</event>
<event>
 7    1  0.2288857E-006  0.5260396E+03  0.7546771E-02  0.9343358E-01
        -11   -1    0    0    0    0  0.00000000000E+00  0.00000000000E+00  0.50000000000E+03  0.50000000000E+03  0.00000000000E+00 0. -1.
         11   -1    0    0    0    0 -0.00000000000E+00 -0.00000000000E+00 -0.50000000000E+03  0.50000000000E+03  0.00000000000E+00 0.  1.
         23    2    1    2    0    0  0.12825107341E+03 -0.23924244930E+02  0.37208475502E+03  0.40459590263E+03  0.90719745276E+02 0.  0.
        -11    1    1    2    0    0 -0.69225194650E+02 -0.30403431855E+02  0.95037207469E+02  0.12144367849E+03  0.00000000000E+00 0. -1.
         11    1    1    2    0    0 -0.59025878756E+02  0.54327676785E+02 -0.46712196248E+03  0.47396041888E+03  0.00000000000E+00 0.  1.
        -15    1    3    3    0    0  0.12056028240E+02 -0.38563676102E+02  0.74101903868E+02  0.84420109081E+02  0.17770000000E+01 0.  1.
         15    1    3    3    0    0  0.11619504517E+03  0.14639431172E+02  0.29798285115E+03  0.32017579355E+03  0.17770000000E+01 0. -1.
</event>
<event>
 7    1  0.2288857E-006  0.5195823E+03  0.7546771E-02  0.9357028E-01
        -11   -1    0    0    0    0  0.00000000000E+00  0.00000000000E+00  0.50000000000E+03  0.50000000000E+03  0.00000000000E+00 0.  1.
         11   -1    0    0    0    0 -0.00000000000E+00 -0.00000000000E+00 -0.50000000000E+03  0.50000000000E+03  0.00000000000E+00 0.  1.
         23    2    1    2    0    0  0.12788921830E+03  0.11107406166E+02  0.27411173253E+03  0.31802891757E+03  0.97601864072E+02 0.  0.
        -11    1    1    2    0    0 -0.36351978970E+02 -0.17668742021E+02  0.19745912351E+03  0.20155335839E+03  0.00000000000E+00 0.  1.
         11    1    1    2    0    0 -0.91537239335E+02  0.65613358548E+01 -0.47157085604E+03  0.48041772405E+03  0.00000000000E+00 0.  1.
        -15    1    3    3    0    0 -0.52176842811E+01  0.22819818742E+02  0.72027056707E+02  0.75756339561E+02  0.17770000000E+01 0. -1.
         15    1    3    3    0    0  0.13310690259E+03 -0.11712412576E+02  0.20208467582E+03  0.24227257801E+03  0.17770000000E+01 0.  1.
</event>
<event>
 7    1  0.2288857E-006  0.4910803E+03  0.7546771E-02  0.9419992E-01
        -11   -1    0    0    0    0  0.00000000000E+00  0.00000000000E+00  0.50000000000E+03  0.50000000000E+03  0.00000000000E+00 0.  1.
         11   -1    0    0    0    0 -0.00000000000E+00 -0.00000000000E+00 -0.50000000000E+03  0.50000000000E+03  0.00000000000E+00 0. -1.
         23    2    1    2    0    0 -0.44033148016E+02  0.14200611359E+03  0.45039961172E+03  0.48384143316E+03  0.95593241291E+02 0.  0.
        -11    1    1    2    0    0 -0.16871461840E+02  0.19539690247E+02  0.74259843328E+01  0.26862445214E+02  0.00000000000E+00 0.  1.
         11    1    1    2    0    0  0.60904609856E+02 -0.16154580384E+03 -0.45782559605E+03  0.48929612163E+03  0.00000000000E+00 0. -1.
        -15    1    3    3    0    0 -0.75193645950E+01  0.13423887582E+03  0.39282709018E+03  0.41520223643E+03  0.17770000000E+01 0.  1.
         15    1    3    3    0    0 -0.36513783421E+02  0.77672377689E+01  0.57572521543E+02  0.68639196732E+02  0.17770000000E+01 0. -1.
</event>
<event>
 7    1  0.2288857E-006  0.3923535E+03  0.7546771E-02  0.9679267E-01
        -11   -1    0    0    0    0  0.00000000000E+00  0.00000000000E+00  0.50000000000E+03  0.50000000000E+03  0.00000000000E+00 0. -1.
         11   -1    0    0    0    0 -0.00000000000E+00 -0.00000000000E+00 -0.50000000000E+03  0.50000000000E+03  0.00000000000E+00 0.  1.
         23    2    1    2    0    0  0.10267266807E+03 -0.16592466769E+03  0.29192079342E+03  0.36246757877E+03  0.89957344978E+02 0.  0.
        -11    1    1    2    0    0 -0.31903117118E+02  0.14074616619E+03  0.13884717016E+03  0.20026439733E+03  0.00000000000E+00 0. -1.
         11    1    1    2    0    0 -0.70769550956E+02  0.25178501500E+02 -0.43076796357E+03  0.43726802389E+03  0.00000000000E+00 0.  1.
        -15    1    3    3    0    0  0.83237653148E+02 -0.62391381467E+02  0.18569859387E+03  0.21285750369E+03  0.17770000000E+01 0.  1.
         15    1    3    3    0    0  0.19435014926E+02 -0.10353328622E+03  0.10622219955E+03  0.14961007509E+03  0.17770000000E+01 0. -1.
</event>
<event>
 7    1  0.2288857E-006  0.5233003E+03  0.7546771E-02  0.9349132E-01
        -11   -1    0    0    0    0  0.00000000000E+00  0.00000000000E+00  0.50000000000E+03  0.50000000000E+03  0.00000000000E+00 0.  1.
         11   -1    0    0    0    0 -0.00000000000E+00 -0.00000000000E+00 -0.50000000000E+03  0.50000000000E+03  0.00000000000E+00 0.  1.
         23    2    1    2    0    0  0.58922504497E+01 -0.33386339570E+01  0.34767325917E+03  0.35876597026E+03  0.88263589226E+02 0.  0.
        -11    1    1    2    0    0  0.35799639918E+02  0.11266002704E+03  0.11444494573E+03  0.16453431713E+03  0.00000000000E+00 0.  1.
         11    1    1    2    0    0 -0.41691890368E+02 -0.10932139308E+03 -0.46211820490E+03  0.47669971261E+03  0.00000000000E+00 0.  1.
        -15    1    3    3    0    0 -0.91614981474E+01  0.40740863402E+02  0.15530397564E+03  0.16082982801E+03  0.17770000000E+01 0. -1.
         15    1    3    3    0    0  0.15053748597E+02 -0.44079497359E+02  0.19236928353E+03  0.19793614226E+03  0.17770000000E+01 0.  1.
</event>
<event>
 7    1  0.2288857E-006  0.4635761E+03  0.7546771E-02  0.9485215E-01
        -11   -1    0    0    0    0  0.00000000000E+00  0.00000000000E+00  0.50000000000E+03  0.50000000000E+03  0.00000000000E+00 0.  1.
         11   -1    0    0    0    0 -0.00000000000E+00 -0.00000000000E+00 -0.50000000000E+03  0.50000000000E+03  0.00000000000E+00 0.  1.
         23    2    1    2    0    0 -0.21998898327E+03  0.33098937820E+03  0.15647222400E+03  0.43666981428E+03  0.90817666703E+02 0.  0.
        -11    1    1    2    0    0  0.29480804568E+03 -0.34142359830E+03 -0.17775051994E+03  0.48484750656E+03  0.00000000000E+00 0.  1.
         11    1    1    2    0    0 -0.74819062414E+02  0.10434220105E+02  0.21278295942E+02  0.78482679159E+02  0.00000000000E+00 0.  1.
        -15    1    3    3    0    0 -0.17297429472E+03  0.27857592841E+03  0.16251893093E+03  0.36597843538E+03  0.17770000000E+01 0.  1.
         15    1    3    3    0    0 -0.47014688549E+02  0.52413449788E+02 -0.60467069289E+01  0.70691378906E+02  0.17770000000E+01 0. -1.
</event>
<event>
 7    1  0.2288857E-006  0.4603322E+03  0.7546771E-02  0.9493224E-01
        -11   -1    0    0    0    0  0.00000000000E+00  0.00000000000E+00  0.50000000000E+03  0.50000000000E+03  0.00000000000E+00 0.  1.
         11   -1    0    0    0    0 -0.00000000000E+00 -0.00000000000E+00 -0.50000000000E+03  0.50000000000E+03  0.00000000000E+00 0. -1.
         23    2    1    2    0    0  0.74988141815E+02 -0.31121705356E+02  0.42148668923E+03  0.43833287904E+03  0.88842004109E+02 0.  0.
        -11    1    1    2    0    0  0.54456708959E+02  0.51845681297E+02  0.37715743828E+02  0.84118875125E+02  0.00000000000E+00 0.  1.
         11    1    1    2    0    0 -0.12944485077E+03 -0.20723975941E+02 -0.45920243306E+03  0.47754824583E+03  0.00000000000E+00 0. -1.
        -15    1    3    3    0    0  0.25316352328E+01  0.22416926107E+02  0.36533122651E+02  0.42973881983E+02  0.17770000000E+01 0. -1.
         15    1    3    3    0    0  0.72456506582E+02 -0.53538631462E+02  0.38495356658E+03  0.39535899706E+03  0.17770000000E+01 0.  1.
</event>
<event>
 7    1  0.2288857E-006  0.5167421E+03  0.7546771E-02  0.9363108E-01
        -11   -1    0    0    0    0  0.00000000000E+00  0.00000000000E+00  0.50000000000E+03  0.50000000000E+03  0.00000000000E+00 0.  1.
         11   -1    0    0    0    0 -0.00000000000E+00 -0.00000000000E+00 -0.50000000000E+03  0.50000000000E+03  0.00000000000E+00 0. -1.
         23    2    1    2    0    0 -0.26259032112E+02  0.27356654233E+02  0.18340610077E+03  0.20736291858E+03  0.89014936422E+02 0.  0.
        -11    1    1    2    0    0 -0.16720464873E+03 -0.21667307283E+02  0.25940046158E+03  0.30937916257E+03  0.00000000000E+00 0.  1.
         11    1    1    2    0    0  0.19346368084E+03 -0.56893469508E+01 -0.44280656235E+03  0.48325791885E+03  0.00000000000E+00 0. -1.
        -15    1    3    3    0    0 -0.30978250464E+02  0.53891077700E+02  0.85008444501E+02  0.10532565510E+03  0.17770000000E+01 0. -1.
         15    1    3    3    0    0  0.47192183518E+01 -0.26534423467E+02  0.98397656267E+02  0.10203726348E+03  0.17770000000E+01 0.  1.
</event>
<event>
 7    1  0.2288857E-006  0.4205168E+03  0.7546771E-02  0.9597650E-01
        -11   -1    0    0    0    0  0.00000000000E+00  0.00000000000E+00  0.50000000000E+03  0.50000000000E+03  0.00000000000E+00 0. -1.
         11   -1    0    0    0    0 -0.00000000000E+00 -0.00000000000E+00 -0.50000000000E+03  0.50000000000E+03  0.00000000000E+00 0.  1.
         23    2    1    2    0    0  0.16343934018E+02  0.26341127449E+03  0.30840836044E+03  0.41650668096E+03  0.93324566897E+02 0.  0.
        -11    1    1    2    0    0 -0.15441513320E+03  0.10832010930E+02 -0.96583699783E+01  0.15509561546E+03  0.00000000000E+00 0. -1.
         11    1    1    2    0    0  0.13807119919E+03 -0.27424328542E+03 -0.29874999046E+03  0.42839770359E+03  0.00000000000E+00 0.  1.
        -15    1    3    3    0    0 -0.77338451140E+01  0.25078025995E+03  0.29072196543E+03  0.38402209579E+03  0.17770000000E+01 0. -1.
         15    1    3    3    0    0  0.24077779132E+02  0.12631014537E+02  0.17686395010E+02  0.32484585169E+02  0.17770000000E+01 0.  1.
</event>
<event>
 7    1  0.2288857E-006  0.4704662E+03  0.7546771E-02  0.9468432E-01
        -11   -1    0    0    0    0  0.00000000000E+00  0.00000000000E+00  0.50000000000E+03  0.50000000000E+03  0.00000000000E+00 0.  1.
         11   -1    0    0    0    0 -0.00000000000E+00 -0.00000000000E+00 -0.50000000000E+03  0.50000000000E+03  0.00000000000E+00 0. -1.
         23    2    1    2    0    0 -0.93554834237E+02  0.16787967997E+03  0.43801293134E+03  0.48722743254E+03  0.92731596817E+02 0.  0.
        -11    1    1    2    0    0  0.43363223983E+02 -0.48619479167E+02 -0.10350743122E+02  0.65964845424E+02  0.00000000000E+00 0.  1.
         11    1    1    2    0    0  0.50191610254E+02 -0.11926020080E+03 -0.42766218822E+03  0.44680772203E+03  0.00000000000E+00 0. -1.
        -15    1    3    3    0    0 -0.19306311287E+02  0.12676826755E+03  0.27518562497E+03  0.30360041705E+03  0.17770000000E+01 0.  1.
         15    1    3    3    0    0 -0.74248522950E+02  0.41111412417E+02  0.16282730637E+03  0.18362701550E+03  0.17770000000E+01 0. -1.
</event>
<event>
 7    1  0.2288857E-006  0.5081468E+03  0.7546771E-02  0.9381763E-01
        -11   -1    0    0    0    0  0.00000000000E+00  0.00000000000E+00  0.50000000000E+03  0.50000000000E+03  0.00000000000E+00 0.  1.
         11   -1    0    0    0    0 -0.00000000000E+00 -0.00000000000E+00 -0.50000000000E+03  0.50000000000E+03  0.00000000000E+00 0. -1.
         23    2    1    2    0    0  0.13364611771E+02 -0.20371099397E+02  0.48236628422E+03  0.49185322119E+03  0.92998733856E+02 0.  0.
        -11    1    1    2    0    0  0.42697689552E+02 -0.24850651360E+02 -0.51738679007E+02  0.71536972759E+02  0.00000000000E+00 0.  1.
         11    1    1    2    0    0 -0.56062301324E+02  0.45221750756E+02 -0.43062760521E+03  0.43660980606E+03  0.00000000000E+00 0. -1.
        -15    1    3    3    0    0 -0.34579353284E+02  0.11985864432E+02  0.14487695385E+03  0.14943855629E+03  0.17770000000E+01 0. -1.
         15    1    3    3    0    0  0.47943965055E+02 -0.32356963828E+02  0.33748933037E+03  0.34241466489E+03  0.17770000000E+01 0.  1.
</event>
<event>
 7    1  0.2288857E-006  0.4885649E+03  0.7546771E-02  0.9425767E-01
        -11   -1    0    0    0    0  0.00000000000E+00  0.00000000000E+00  0.50000000000E+03  0.50000000000E+03  0.00000000000E+00 0.  1.
         11   -1    0    0    0    0 -0.00000000000E+00 -0.00000000000E+00 -0.50000000000E+03  0.50000000000E+03  0.00000000000E+00 0. -1.
         23    2    1    2    0    0  0.90699414116E+02 -0.74664010980E+01  0.46604273184E+03  0.48356277219E+03  0.91405666571E+02 0.  0.
        -11    1    1    2    0    0  0.21472160905E+02  0.21527779080E+02  0.60464548653E+01  0.31000944865E+02  0.00000000000E+00 0.  1.
         11    1    1    2    0    0 -0.11217157502E+03 -0.14061377982E+02 -0.47208918671E+03  0.48543628294E+03  0.00000000000E+00 0. -1.
        -15    1    3    3    0    0  0.55633480942E+02 -0.44993157821E+02  0.19566664515E+03  0.20834601558E+03  0.17770000000E+01 0.  1.
         15    1    3    3    0    0  0.35065933174E+02  0.37526756723E+02  0.27037608669E+03  0.27521675661E+03  0.17770000000E+01 0. -1.
</event>
<event>
 7    1  0.2288857E-006  0.5170883E+03  0.7546771E-02  0.9362365E-01
        -11   -1    0    0    0    0  0.00000000000E+00  0.00000000000E+00  0.50000000000E+03  0.50000000000E+03  0.00000000000E+00 0.  1.
         11   -1    0    0    0    0 -0.00000000000E+00 -0.00000000000E+00 -0.50000000000E+03  0.50000000000E+03  0.00000000000E+00 0. -1.
         23    2    1    2    0    0  0.43181322424E+02 -0.94979385765E+01  0.41083107517E+03  0.42336802901E+03  0.92214305923E+02 0.  0.
        -11    1    1    2    0    0 -0.34892072217E+01 -0.68260374897E+02  0.64123566491E+02  0.93720249293E+02  0.00000000000E+00 0.  1.
         11    1    1    2    0    0 -0.39692115202E+02  0.77758313474E+02 -0.47495464166E+03  0.48291172170E+03  0.00000000000E+00 0. -1.
        -15    1    3    3    0    0  0.13535352295E+01 -0.45547078241E+02  0.22126738501E+03  0.22591764383E+03  0.17770000000E+01 0.  1.
         15    1    3    3    0    0  0.41827787195E+02  0.36049139664E+02  0.18956369016E+03  0.19745038518E+03  0.17770000000E+01 0. -1.
</event>
<event>
 7    1  0.2288857E-006  0.3728945E+03  0.7546771E-02  0.9740064E-01
        -11   -1    0    0    0    0  0.00000000000E+00  0.00000000000E+00  0.50000000000E+03  0.50000000000E+03  0.00000000000E+00 0.  1.
         11   -1    0    0    0    0 -0.00000000000E+00 -0.00000000000E+00 -0.50000000000E+03  0.50000000000E+03  0.00000000000E+00 0. -1.
         23    2    1    2    0    0  0.27675501739E+03 -0.12475303953E+03 -0.54201241028E+02  0.32230340124E+03  0.93728583698E+02 0.  0.
        -11    1    1    2    0    0 -0.32951662756E+03  0.11623400888E+03  0.27868297016E+03  0.44694043285E+03  0.00000000000E+00 0.  1.
         11    1    1    2    0    0  0.52761610173E+02  0.85190306527E+01 -0.22448172913E+03  0.23075616591E+03  0.00000000000E+00 0. -1.
        -15    1    3    3    0    0  0.24757792589E+03 -0.14010106805E+03 -0.52218748344E+02  0.28922844615E+03  0.17770000000E+01 0. -1.
         15    1    3    3    0    0  0.29177091500E+02  0.15348028522E+02 -0.19824926834E+01  0.33074955089E+02  0.17770000000E+01 0.  1.
</event>
<event>
 7    1  0.2288857E-006  0.3958385E+03  0.7546771E-02  0.9668777E-01
        -11   -1    0    0    0    0  0.00000000000E+00  0.00000000000E+00  0.50000000000E+03  0.50000000000E+03  0.00000000000E+00 0.  1.
         11   -1    0    0    0    0 -0.00000000000E+00 -0.00000000000E+00 -0.50000000000E+03  0.50000000000E+03  0.00000000000E+00 0.  1.
         23    2    1    2    0    0  0.35133069808E+03  0.17198875335E+03  0.22086888378E+03  0.45843955826E+03  0.91489748397E+02 0.  0.
        -11    1    1    2    0    0 -0.20305624963E+03 -0.25243012025E+03 -0.12294553307E+03  0.34650888910E+03  0.00000000000E+00 0.  1.
         11    1    1    2    0    0 -0.14827444845E+03  0.80441366901E+02 -0.97923350712E+02  0.19505155264E+03  0.00000000000E+00 0.  1.
        -15    1    3    3    0    0  0.12317341749E+03  0.18173570044E+02  0.47857606665E+02  0.13339969141E+03  0.17770000000E+01 0. -1.
         15    1    3    3    0    0  0.22815728060E+03  0.15381518330E+03  0.17301127711E+03  0.32503986685E+03  0.17770000000E+01 0.  1.
</event>
<event>
 7    1  0.2288857E-006  0.4265882E+03  0.7546771E-02  0.9580947E-01
        -11   -1    0    0    0    0  0.00000000000E+00  0.00000000000E+00  0.50000000000E+03  0.50000000000E+03  0.00000000000E+00 0. -1.
         11   -1    0    0    0    0 -0.00000000000E+00 -0.00000000000E+00 -0.50000000000E+03  0.50000000000E+03  0.00000000000E+00 0.  1.
         23    2    1    2    0    0  0.36584079554E+02  0.79546123690E+02  0.42143321143E+02  0.14130802033E+03  0.10259588891E+03 0.  0.
        -11    1    1    2    0    0 -0.18616735941E+03 -0.34001414783E+02  0.37125694702E+03  0.41670865437E+03  0.00000000000E+00 0. -1.
         11    1    1    2    0    0  0.14958327986E+03 -0.45544708908E+02 -0.41340026817E+03  0.44198332530E+03  0.00000000000E+00 0.  1.
        -15    1    3    3    0    0  0.18212289116E+02  0.58495669735E+02  0.75832297180E+02  0.97504491575E+02  0.17770000000E+01 0. -1.
         15    1    3    3    0    0  0.18371790438E+02  0.21050453955E+02 -0.33688976037E+02  0.43803528751E+02  0.17770000000E+01 0.  1.
</event>
<event>
 7    1  0.2288857E-006  0.5213903E+03  0.7546771E-02  0.9353180E-01
        -11   -1    0    0    0    0  0.00000000000E+00  0.00000000000E+00  0.50000000000E+03  0.50000000000E+03  0.00000000000E+00 0. -1.
         11   -1    0    0    0    0 -0.00000000000E+00 -0.00000000000E+00 -0.50000000000E+03  0.50000000000E+03  0.00000000000E+00 0.  1.
         23    2    1    2    0    0  0.80685099122E+01  0.29155741292E+02  0.30546384841E+03  0.31963469734E+03  0.89123616154E+02 0.  0.
        -11    1    1    2    0    0  0.12900766557E+02 -0.11568244050E+03  0.16479214601E+03  0.20175556549E+03  0.00000000000E+00 0. -1.
         11    1    1    2    0    0 -0.20969276469E+02  0.86526699205E+02 -0.47025599442E+03  0.47860973718E+03  0.00000000000E+00 0.  1.
        -15    1    3    3    0    0  0.13455902481E+02 -0.27569281102E+02  0.57436243959E+02  0.65139898842E+02  0.17770000000E+01 0. -1.
         15    1    3    3    0    0 -0.53873925688E+01  0.56725022394E+02  0.24802760445E+03  0.25449479850E+03  0.17770000000E+01 0.  1.
</event>
<event>
 7    1  0.2288857E-006  0.5336752E+03  0.7546771E-02  0.9327459E-01
        -11   -1    0    0    0    0  0.00000000000E+00  0.00000000000E+00  0.50000000000E+03  0.50000000000E+03  0.00000000000E+00 0. -1.
         11   -1    0    0    0    0 -0.00000000000E+00 -0.00000000000E+00 -0.50000000000E+03  0.50000000000E+03  0.00000000000E+00 0.  1.
         23    2    1    2    0    0  0.17966775309E+02 -0.61399345113E+02  0.31175734092E+03  0.33037661654E+03  0.88675726927E+02 0.  0.
        -11    1    1    2    0    0  0.56652455617E+01  0.14001998781E+03  0.14728418363E+03  0.20329860487E+03  0.00000000000E+00 0. -1.
         11    1    1    2    0    0 -0.23632020870E+02 -0.78620642698E+02 -0.45904152455E+03  0.46632477859E+03  0.00000000000E+00 0.  1.
        -15    1    3    3    0    0 -0.91606585320E+01  0.19291659422E+02  0.97347648567E+02  0.99678524260E+02  0.17770000000E+01 0.  1.
         15    1    3    3    0    0  0.27127433841E+02 -0.80691004536E+02  0.21440969235E+03  0.23069809228E+03  0.17770000000E+01 0. -1.
</event>
<event>
 7    1  0.2724608E-006  0.5148369E+03  0.7546771E-02  0.9367210E-01
        -11   -1    0    0    0    0  0.00000000000E+00  0.00000000000E+00  0.50000000000E+03  0.50000000000E+03  0.00000000000E+00 0. -1.
         11   -1    0    0    0    0 -0.00000000000E+00 -0.00000000000E+00 -0.50000000000E+03  0.50000000000E+03  0.00000000000E+00 0. -1.
         23    2    1    2    0    0 -0.64995916332E+02 -0.38902726867E+02 -0.28316051601E+03  0.30704984312E+03  0.91443080864E+02 0.  0.
        -11    1    1    2    0    0  0.15215956281E+03  0.15002881630E+03  0.43557096890E+03  0.48516311404E+03  0.00000000000E+00 0. -1.
         11    1    1    2    0    0 -0.87163646482E+02 -0.11112608943E+03 -0.15241045289E+03  0.20778704284E+03  0.00000000000E+00 0. -1.
        -15    1    3    3    0    0 -0.55767339118E+02  0.18845240128E+02 -0.11901459879E+03  0.13278844695E+03  0.17770000000E+01 0. -1.
         15    1    3    3    0    0 -0.92285772135E+01 -0.57747966995E+02 -0.16414591722E+03  0.17426139618E+03  0.17770000000E+01 0.  1.
</event>
<event>
 7    1  0.2288857E-006  0.3039206E+03  0.7546771E-02  0.9992577E-01
        -11   -1    0    0    0    0  0.00000000000E+00  0.00000000000E+00  0.50000000000E+03  0.50000000000E+03  0.00000000000E+00 0.  1.
         11   -1    0    0    0    0 -0.00000000000E+00 -0.00000000000E+00 -0.50000000000E+03  0.50000000000E+03  0.00000000000E+00 0. -1.
         23    2    1    2    0    0  0.18412883149E+03 -0.24450063900E+03 -0.62744707270E+01  0.31941613316E+03  0.91122489445E+02 0.  0.
        -11    1    1    2    0    0 -0.18129348936E+02  0.17283894411E+03  0.29355568803E+03  0.34114061012E+03  0.00000000000E+00 0.  1.
         11    1    1    2    0    0 -0.16599948255E+03  0.71661694884E+02 -0.28728121730E+03  0.33944325673E+03  0.00000000000E+00 0. -1.
        -15    1    3    3    0    0  0.15100073243E+03 -0.21499575381E+03  0.26740741799E+02  0.26408828136E+03  0.17770000000E+01 0.  1.
         15    1    3    3    0    0  0.33128099064E+02 -0.29504885183E+02 -0.33015212526E+02  0.55327851796E+02  0.17770000000E+01 0. -1.
</event>
<event>
 7    1  0.2288857E-006  0.5193572E+03  0.7546771E-02  0.9357509E-01
        -11   -1    0    0    0    0  0.00000000000E+00  0.00000000000E+00  0.50000000000E+03  0.50000000000E+03  0.00000000000E+00 0.  1.
         11   -1    0    0    0    0 -0.00000000000E+00 -0.00000000000E+00 -0.50000000000E+03  0.50000000000E+03  0.00000000000E+00 0. -1.
         23    2    1    2    0    0 -0.34720786464E+02 -0.32280519928E+01  0.27457640924E+03  0.29064497962E+03  0.88692425472E+02 0.  0.
        -11    1    1    2    0    0 -0.31772755004E+01 -0.13590984602E+03  0.18392313907E+03  0.22871226992E+03  0.00000000000E+00 0.  1.
         11    1    1    2    0    0  0.37898061964E+02  0.13913789802E+03 -0.45849954831E+03  0.48064275046E+03  0.00000000000E+00 0. -1.
        -15    1    3    3    0    0 -0.34144690163E+02  0.33074557028E+02  0.83134301647E+02  0.95782336724E+02  0.17770000000E+01 0.  1.
         15    1    3    3    0    0 -0.57609630067E+00 -0.36302609021E+02  0.19144210759E+03  0.19486264290E+03  0.17770000000E+01 0. -1.
</event>
<event>
 7    1  0.2288857E-006  0.5332640E+03  0.7546771E-02  0.9328308E-01
        -11   -1    0    0    0    0  0.00000000000E+00  0.00000000000E+00  0.50000000000E+03  0.50000000000E+03  0.00000000000E+00 0.  1.
         11   -1    0    0    0    0 -0.00000000000E+00 -0.00000000000E+00 -0.50000000000E+03  0.50000000000E+03  0.00000000000E+00 0. -1.
         23    2    1    2    0    0 -0.15234167951E+01  0.59257363438E+01 -0.31162151281E+02  0.97479049685E+02  0.92161002084E+02 0.  0.
        -11    1    1    2    0    0  0.84570110705E+01 -0.18345214931E+03  0.42908776514E+03  0.46673603066E+03  0.00000000000E+00 0.  1.
         11    1    1    2    0    0 -0.69335942754E+01  0.17752641297E+03 -0.39792561386E+03  0.43578491965E+03  0.00000000000E+00 0. -1.
        -15    1    3    3    0    0  0.14812660349E+02 -0.40467761395E+02 -0.13649189102E+02  0.45238398635E+02  0.17770000000E+01 0. -1.
         15    1    3    3    0    0 -0.16336077144E+02  0.46393497738E+02 -0.17512962179E+02  0.52240651050E+02  0.17770000000E+01 0.  1.
</event>
<event>
 6    1  0.2288857E-006  0.4080005E+03  0.7546771E-02  0.9633053E-01
        -11   -1    0    0    0    0  0.00000000000E+00  0.00000000000E+00  0.50000000000E+03  0.50000000000E+03  0.00000000000E+00 0.  1.
         11   -1    0    0    0    0 -0.00000000000E+00 -0.00000000000E+00 -0.50000000000E+03  0.50000000000E+03  0.00000000000E+00 0. -1.
        -11    1    1    2    0    0  0.41341751403E+01  0.60076724322E+02  0.36361033132E+03  0.36856312520E+03  0.00000000000E+00 0.  1.
         11    1    1    2    0    0 -0.49348002011E+02  0.67827484913E+02 -0.45614991598E+03  0.46379795047E+03  0.00000000000E+00 0. -1.
        -15    1    1    2    0    0 -0.53215042473E+01 -0.14179913591E+02  0.84397682432E+01  0.17429164464E+02  0.17770000000E+01 0.  1.
         15    1    1    2    0    0  0.50535331118E+02 -0.11372429564E+03  0.84099816413E+02  0.15020975987E+03  0.17770000000E+01 0. -1.
</event>
<event>
 7    1  0.2288857E-006  0.5262698E+03  0.7546771E-02  0.9342874E-01
        -11   -1    0    0    0    0  0.00000000000E+00  0.00000000000E+00  0.50000000000E+03  0.50000000000E+03  0.00000000000E+00 0. -1.
         11   -1    0    0    0    0 -0.00000000000E+00 -0.00000000000E+00 -0.50000000000E+03  0.50000000000E+03  0.00000000000E+00 0. -1.
         23    2    1    2    0    0  0.85278786953E+01 -0.28956508616E+02  0.11031402436E+03  0.14700834575E+03  0.92363768033E+02 0.  0.
        -11    1    1    2    0    0  0.92417456988E+02  0.14669725463E+03  0.33731021327E+03  0.37926145447E+03  0.00000000000E+00 0. -1.
         11    1    1    2    0    0 -0.10094533568E+03 -0.11774074601E+03 -0.44762423763E+03  0.47373019977E+03  0.00000000000E+00 0. -1.
        -15    1    3    3    0    0  0.39715477515E+02 -0.46631947681E+02  0.69893135961E+02  0.92951954698E+02  0.17770000000E+01 0.  1.
         15    1    3    3    0    0 -0.31187598819E+02  0.17675439065E+02  0.40420888394E+02  0.54056391054E+02  0.17770000000E+01 0. -1.
</event>
<event>
 7    1  0.2288857E-006  0.3924821E+03  0.7546771E-02  0.9678878E-01
        -11   -1    0    0    0    0  0.00000000000E+00  0.00000000000E+00  0.50000000000E+03  0.50000000000E+03  0.00000000000E+00 0.  1.
         11   -1    0    0    0    0 -0.00000000000E+00 -0.00000000000E+00 -0.50000000000E+03  0.50000000000E+03  0.00000000000E+00 0.  1.
         23    2    1    2    0    0  0.18124427366E+03  0.29589377378E+02 -0.50828397836E+01  0.19382402692E+03  0.61781066376E+02 0.  0.
        -11    1    1    2    0    0 -0.88646661463E+02 -0.67498880858E+02  0.39148373019E+03  0.40703051545E+03  0.00000000000E+00 0.  1.
         11    1    1    2    0    0 -0.92597612193E+02  0.37909503480E+02 -0.38640089041E+03  0.39914545763E+03  0.00000000000E+00 0.  1.
        -15    1    3    3    0    0  0.54647949845E+02  0.37391114651E+02  0.58938455270E+01  0.66501045264E+02  0.17770000000E+01 0. -1.
         15    1    3    3    0    0  0.12659632381E+03 -0.78017372738E+01 -0.10976685311E+02  0.12732298165E+03  0.17770000000E+01 0.  1.
</event>
<event>
 7    1  0.2288857E-006  0.5093185E+03  0.7546771E-02  0.9379197E-01
        -11   -1    0    0    0    0  0.00000000000E+00  0.00000000000E+00  0.50000000000E+03  0.50000000000E+03  0.00000000000E+00 0.  1.
         11   -1    0    0    0    0 -0.00000000000E+00 -0.00000000000E+00 -0.50000000000E+03  0.50000000000E+03  0.00000000000E+00 0. -1.
         23    2    1    2    0    0  0.46213245893E+02 -0.18947290753E+02 -0.22104291737E+03  0.24419748777E+03  0.90982293835E+02 0.  0.
        -11    1    1    2    0    0 -0.13264584040E+03  0.49391864291E+02  0.46982326708E+03  0.49068154389E+03  0.00000000000E+00 0.  1.
         11    1    1    2    0    0  0.86432594507E+02 -0.30444573538E+02 -0.24878034971E+03  0.26512096834E+03  0.00000000000E+00 0. -1.
        -15    1    3    3    0    0  0.20567275878E+02 -0.52271296202E+02 -0.85888608099E+02  0.10264166783E+03  0.17770000000E+01 0.  1.
         15    1    3    3    0    0  0.25645970015E+02  0.33324005449E+02 -0.13515430927E+03  0.14155581994E+03  0.17770000000E+01 0. -1.
</event>
<event>
 7    1  0.2288857E-006  0.3725429E+03  0.7546771E-02  0.9741198E-01
        -11   -1    0    0    0    0  0.00000000000E+00  0.00000000000E+00  0.50000000000E+03  0.50000000000E+03  0.00000000000E+00 0. -1.
         11   -1    0    0    0    0 -0.00000000000E+00 -0.00000000000E+00 -0.50000000000E+03  0.50000000000E+03  0.00000000000E+00 0.  1.
         23    2    1    2    0    0 -0.55171060208E+02 -0.23139029775E+01  0.20152899450E+03  0.22616794656E+03  0.86537878387E+02 0.  0.
        -11    1    1    2    0    0  0.26311745187E+03  0.11805205077E+03  0.16840653835E+03  0.33395784514E+03  0.00000000000E+00 0. -1.
         11    1    1    2    0    0 -0.20794639166E+03 -0.11573814779E+03 -0.36993553285E+03  0.43987420830E+03  0.00000000000E+00 0.  1.
        -15    1    3    3    0    0 -0.39123493618E+02 -0.43204772046E+02  0.10519413957E+03  0.12027578646E+03  0.17770000000E+01 0. -1.
         15    1    3    3    0    0 -0.16047566591E+02  0.40890869069E+02  0.96334854935E+02  0.10589216010E+03  0.17770000000E+01 0.  1.
</event>
<event>
 7    1  0.2288857E-006  0.4836956E+03  0.7546771E-02  0.9437050E-01
        -11   -1    0    0    0    0  0.00000000000E+00  0.00000000000E+00  0.50000000000E+03  0.50000000000E+03  0.00000000000E+00 0.  1.
         11   -1    0    0    0    0 -0.00000000000E+00 -0.00000000000E+00 -0.50000000000E+03  0.50000000000E+03  0.00000000000E+00 0.  1.
         23    2    1    2    0    0  0.51662750520E+02  0.33420215657E+02  0.46627265781E+03  0.47888168321E+03  0.90174965968E+02 0.  0.
        -11    1    1    2    0    0  0.31892149867E+02  0.24256615475E+02  0.37607430872E+01  0.40244699105E+02  0.00000000000E+00 0.  1.
         11    1    1    2    0    0 -0.83554900387E+02 -0.57676831133E+02 -0.47003340090E+03  0.48087361769E+03  0.00000000000E+00 0.  1.
        -15    1    3    3    0    0  0.46827920970E+02  0.58017675304E+02  0.41649820337E+03  0.42312269612E+03  0.17770000000E+01 0.  1.
         15    1    3    3    0    0  0.48348295498E+01 -0.24597459647E+02  0.49774454440E+02  0.55758987093E+02  0.17770000000E+01 0. -1.
</event>
<event>
 7    1  0.2288857E-006  0.5023512E+03  0.7546771E-02  0.9394564E-01
        -11   -1    0    0    0    0  0.00000000000E+00  0.00000000000E+00  0.50000000000E+03  0.50000000000E+03  0.00000000000E+00 0. -1.
         11   -1    0    0    0    0 -0.00000000000E+00 -0.00000000000E+00 -0.50000000000E+03  0.50000000000E+03  0.00000000000E+00 0. -1.
         23    2    1    2    0    0  0.28313867922E+02 -0.10961267562E+02  0.48842460543E+03  0.49764883186E+03  0.90409845460E+02 0.  0.
        -11    1    1    2    0    0  0.22394930984E+02 -0.34067918064E+02 -0.99005664730E+02  0.10707136696E+03  0.00000000000E+00 0. -1.
         11    1    1    2    0    0 -0.50708798906E+02  0.45029185626E+02 -0.38941894070E+03  0.39527980118E+03  0.00000000000E+00 0. -1.
        -15    1    3    3    0    0 -0.33146245537E+02 -0.28029303336E+01  0.17714941599E+03  0.18025427409E+03  0.17770000000E+01 0.  1.
         15    1    3    3    0    0  0.61460113460E+02 -0.81583372283E+01  0.31127518944E+03  0.31739455777E+03  0.17770000000E+01 0. -1.
</event>
<event>
 7    1  0.2288857E-006  0.3484887E+03  0.7546771E-02  0.9822182E-01
        -11   -1    0    0    0    0  0.00000000000E+00  0.00000000000E+00  0.50000000000E+03  0.50000000000E+03  0.00000000000E+00 0.  1.
         11   -1    0    0    0    0 -0.00000000000E+00 -0.00000000000E+00 -0.50000000000E+03  0.50000000000E+03  0.00000000000E+00 0.  1.
         23    2    1    2    0    0 -0.44036255668E+02 -0.15623787101E+03  0.34480214648E+03  0.39972744323E+03  0.12059869196E+03 0.  0.
        -11    1    1    2    0    0  0.48755064955E+02  0.26517387004E+03 -0.35047902723E+02  0.27188709641E+03  0.00000000000E+00 0.  1.
         11    1    1    2    0    0 -0.47188092868E+01 -0.10893599903E+03 -0.30975424376E+03  0.32838546036E+03  0.00000000000E+00 0.  1.
        -15    1    3    3    0    0 -0.91303226057E+01 -0.93192441743E+02  0.30132848684E+03  0.31554747456E+03  0.17770000000E+01 0.  1.
         15    1    3    3    0    0 -0.34905933063E+02 -0.63045429264E+02  0.43473659641E+02  0.84179968672E+02  0.17770000000E+01 0. -1.
</event>
<event>
 7    1  0.2288857E-006  0.4512286E+03  0.7546771E-02  0.9516082E-01
        -11   -1    0    0    0    0  0.00000000000E+00  0.00000000000E+00  0.50000000000E+03  0.50000000000E+03  0.00000000000E+00 0.  1.
         11   -1    0    0    0    0 -0.00000000000E+00 -0.00000000000E+00 -0.50000000000E+03  0.50000000000E+03  0.00000000000E+00 0. -1.
         23    2    1    2    0    0 -0.20825842220E+02 -0.22019396081E+03  0.40953047955E+03  0.47601553601E+03  0.99782166544E+02 0.  0.
        -11    1    1    2    0    0  0.57186933150E+02  0.84516562015E+02 -0.12463470144E+02  0.10280434167E+03  0.00000000000E+00 0.  1.
         11    1    1    2    0    0 -0.36361090930E+02  0.13567739880E+03 -0.39706700941E+03  0.42118012232E+03  0.00000000000E+00 0. -1.
        -15    1    3    3    0    0 -0.54349673810E+01 -0.20354716671E+03  0.40429547682E+03  0.45267977451E+03  0.17770000000E+01 0.  1.
         15    1    3    3    0    0 -0.15390874839E+02 -0.16646794100E+02  0.52350027320E+01  0.23335761499E+02  0.17770000000E+01 0. -1.
</event>
<event>
 7    1  0.2288857E-006  0.5228582E+03  0.7546771E-02  0.9350067E-01
        -11   -1    0    0    0    0  0.00000000000E+00  0.00000000000E+00  0.50000000000E+03  0.50000000000E+03  0.00000000000E+00 0. -1.
         11   -1    0    0    0    0 -0.00000000000E+00 -0.00000000000E+00 -0.50000000000E+03  0.50000000000E+03  0.00000000000E+00 0.  1.
         23    2    1    2    0    0 -0.12207265831E+03 -0.32786922924E+01 -0.19742629428E+03  0.24955082401E+03  0.91575042253E+02 0.  0.
        -11    1    1    2    0    0  0.11127598024E+03 -0.83213278676E+02  0.45646196627E+03  0.47714182397E+03  0.00000000000E+00 0. -1.
         11    1    1    2    0    0  0.10796678070E+02  0.86491970968E+02 -0.25903567200E+03  0.27330735202E+03  0.00000000000E+00 0.  1.
        -15    1    3    3    0    0 -0.81708086575E+02  0.11619651516E+02 -0.51252634261E+02  0.97165930041E+02  0.17770000000E+01 0. -1.
         15    1    3    3    0    0 -0.40364571738E+02 -0.14898343808E+02 -0.14617366001E+03  0.15238489397E+03  0.17770000000E+01 0.  1.
</event>
<event>
 7    1  0.2288857E-006  0.5025545E+03  0.7546771E-02  0.9394112E-01
        -11   -1    0    0    0    0  0.00000000000E+00  0.00000000000E+00  0.50000000000E+03  0.50000000000E+03  0.00000000000E+00 0. -1.
         11   -1    0    0    0    0 -0.00000000000E+00 -0.00000000000E+00 -0.50000000000E+03  0.50000000000E+03  0.00000000000E+00 0.  1.
         23    2    1    2    0    0  0.25968707956E+02  0.11763894502E+03  0.47937848363E+03  0.50255447632E+03  0.90796343130E+02 0.  0.
        -11    1    1    2    0    0 -0.34953053514E+02 -0.66190306555E+02 -0.20730709804E+03  0.22040668213E+03  0.00000000000E+00 0. -1.
         11    1    1    2    0    0  0.89843455573E+01 -0.51448638465E+02 -0.27207138559E+03  0.27703884154E+03  0.00000000000E+00 0.  1.
        -15    1    3    3    0    0 -0.46687694398E+01 -0.13971587527E+02  0.65968703124E+02  0.67616789239E+02  0.17770000000E+01 0.  1.
         15    1    3    3    0    0  0.30637477396E+02  0.13161053255E+03  0.41340978051E+03  0.43493768708E+03  0.17770000000E+01 0. -1.
</event>
<event>
 7    1  0.2288857E-006  0.5092814E+03  0.7546771E-02  0.9379278E-01
        -11   -1    0    0    0    0  0.00000000000E+00  0.00000000000E+00  0.50000000000E+03  0.50000000000E+03  0.00000000000E+00 0. -1.
         11   -1    0    0    0    0 -0.00000000000E+00 -0.00000000000E+00 -0.50000000000E+03  0.50000000000E+03  0.00000000000E+00 0.  1.
         23    2    1    2    0    0  0.19530917846E+03  0.16995067535E+03  0.40675260458E+03  0.49071862808E+03  0.91258881047E+02 0.  0.
        -11    1    1    2    0    0 -0.54964291790E+02 -0.84879720198E+02 -0.42357967078E+02  0.10963502017E+03  0.00000000000E+00 0. -1.
         11    1    1    2    0    0 -0.14034488667E+03 -0.85070955151E+02 -0.36439463750E+03  0.39964635175E+03  0.00000000000E+00 0.  1.
        -15    1    3    3    0    0  0.13251509554E+03  0.76700690077E+02  0.17106628921E+03  0.22958675798E+03  0.17770000000E+01 0.  1.
         15    1    3    3    0    0  0.62794082919E+02  0.93249985272E+02  0.23568631537E+03  0.26113187010E+03  0.17770000000E+01 0. -1.
</event>
<event>
 7    1  0.2288857E-006  0.5062591E+03  0.7546771E-02  0.9385912E-01
        -11   -1    0    0    0    0  0.00000000000E+00  0.00000000000E+00  0.50000000000E+03  0.50000000000E+03  0.00000000000E+00 0.  1.
         11   -1    0    0    0    0 -0.00000000000E+00 -0.00000000000E+00 -0.50000000000E+03  0.50000000000E+03  0.00000000000E+00 0.  1.
         23    2    1    2    0    0 -0.10640002719E+03 -0.12162905727E+02  0.47223600620E+03  0.49374088436E+03  0.96458868317E+02 0.  0.
        -11    1    1    2    0    0  0.12711324390E+03  0.52173467895E+02 -0.35643826976E+03  0.38200535032E+03  0.00000000000E+00 0.  1.
         11    1    1    2    0    0 -0.20713216712E+02 -0.40010562168E+02 -0.11579773644E+03  0.12425376532E+03  0.00000000000E+00 0.  1.
        -15    1    3    3    0    0 -0.71033513692E+02  0.19048266589E+02  0.40477606949E+03  0.41140663666E+03  0.17770000000E+01 0.  1.
         15    1    3    3    0    0 -0.35366513501E+02 -0.31211172316E+02  0.67459936702E+02  0.82334247694E+02  0.17770000000E+01 0. -1.
</event>
<event>
 7    1  0.2288857E-006  0.4672425E+03  0.7546771E-02  0.9476246E-01
        -11   -1    0    0    0    0  0.00000000000E+00  0.00000000000E+00  0.50000000000E+03  0.50000000000E+03  0.00000000000E+00 0. -1.
         11   -1    0    0    0    0 -0.00000000000E+00 -0.00000000000E+00 -0.50000000000E+03  0.50000000000E+03  0.00000000000E+00 0.  1.
         23    2    1    2    0    0  0.16409038316E+03 -0.56620413433E+02  0.42702267289E+03  0.47168138154E+03  0.10001718586E+03 0.  0.
        -11    1    1    2    0    0 -0.63027148381E+02 -0.37117723956E+02  0.64772597159E+01  0.73430931889E+02  0.00000000000E+00 0. -1.
         11    1    1    2    0    0 -0.10106323478E+03  0.93738137389E+02 -0.43349993260E+03  0.45488768657E+03  0.00000000000E+00 0.  1.
        -15    1    3    3    0    0  0.15632171015E+03 -0.41783022721E+02  0.42494350041E+03  0.45471137474E+03  0.17770000000E+01 0. -1.
         15    1    3    3    0    0  0.77686730094E+01 -0.14837390712E+02  0.20791724803E+01  0.16970006796E+02  0.17770000000E+01 0.  1.
</event>
<event>
 7    1  0.2288857E-006  0.5213830E+03  0.7546771E-02  0.9353195E-01
        -11   -1    0    0    0    0  0.00000000000E+00  0.00000000000E+00  0.50000000000E+03  0.50000000000E+03  0.00000000000E+00 0.  1.
         11   -1    0    0    0    0 -0.00000000000E+00 -0.00000000000E+00 -0.50000000000E+03  0.50000000000E+03  0.00000000000E+00 0. -1.
         23    2    1    2    0    0 -0.14478880826E+03 -0.60270322111E+02  0.37659336640E+03  0.41955934852E+03  0.98036587998E+02 0.  0.
        -11    1    1    2    0    0  0.23653108261E+02 -0.73104270833E+02  0.66815739495E+02  0.10182360723E+03  0.00000000000E+00 0.  1.
         11    1    1    2    0    0  0.12113570000E+03  0.13337459294E+03 -0.44340910590E+03  0.47861704425E+03  0.00000000000E+00 0. -1.
        -15    1    3    3    0    0 -0.47315862466E+02 -0.44955604684E+02  0.62712722753E+02  0.90530881789E+02  0.17770000000E+01 0. -1.
         15    1    3    3    0    0 -0.97472945794E+02 -0.15314717427E+02  0.31388064365E+03  0.32902846673E+03  0.17770000000E+01 0.  1.
</event>
<event>
 7    1  0.2288857E-006  0.5365389E+03  0.7546771E-02  0.9321569E-01
        -11   -1    0    0    0    0  0.00000000000E+00  0.00000000000E+00  0.50000000000E+03  0.50000000000E+03  0.00000000000E+00 0. -1.
         11   -1    0    0    0    0 -0.00000000000E+00 -0.00000000000E+00 -0.50000000000E+03  0.50000000000E+03  0.00000000000E+00 0.  1.
         23    2    1    2    0    0  0.12819209744E+03 -0.11084146513E+02 -0.47466870441E+02  0.15764888443E+03  0.77743133616E+02 0.  0.
        -11    1    1    2    0    0 -0.29922910011E+03 -0.28679244335E+03  0.20738418920E+03  0.46346106831E+03  0.00000000000E+00 0. -1.
         11    1    1    2    0    0  0.17103700267E+03  0.29787658986E+03 -0.15991731876E+03  0.37889004725E+03  0.00000000000E+00 0.  1.
        -15    1    3    3    0    0  0.13736324718E+03 -0.16363312078E+02 -0.49088868827E+02  0.14679677936E+03  0.17770000000E+01 0.  1.
         15    1    3    3    0    0 -0.91711497466E+01  0.52791655655E+01  0.16219983863E+01  0.10852105073E+02  0.17770000000E+01 0. -1.
</event>
<event>
 7    1  0.2288857E-006  0.5356448E+03  0.7546771E-02  0.9323404E-01
        -11   -1    0    0    0    0  0.00000000000E+00  0.00000000000E+00  0.50000000000E+03  0.50000000000E+03  0.00000000000E+00 0.  1.
         11   -1    0    0    0    0 -0.00000000000E+00 -0.00000000000E+00 -0.50000000000E+03  0.50000000000E+03  0.00000000000E+00 0. -1.
         23    2    1    2    0    0  0.30127794194E+02  0.10465073059E+03  0.33193570174E+03  0.36119041449E+03  0.91748275394E+02 0.  0.
        -11    1    1    2    0    0 -0.12832373985E+03 -0.26587220139E+02  0.11515417602E+03  0.17445442596E+03  0.00000000000E+00 0.  1.
         11    1    1    2    0    0  0.98195945656E+02 -0.78063510446E+02 -0.44708987775E+03  0.46435515955E+03  0.00000000000E+00 0. -1.
        -15    1    3    3    0    0  0.56109506293E+02  0.74500345494E+02  0.16477559348E+03  0.18934817694E+03  0.17770000000E+01 0. -1.
         15    1    3    3    0    0 -0.25981712099E+02  0.30150385092E+02  0.16716010826E+03  0.17184223755E+03  0.17770000000E+01 0.  1.
</event>
<event>
 7    1  0.2288857E-006  0.5225458E+03  0.7546771E-02  0.9350728E-01
        -11   -1    0    0    0    0  0.00000000000E+00  0.00000000000E+00  0.50000000000E+03  0.50000000000E+03  0.00000000000E+00 0.  1.
         11   -1    0    0    0    0 -0.00000000000E+00 -0.00000000000E+00 -0.50000000000E+03  0.50000000000E+03  0.00000000000E+00 0. -1.
         23    2    1    2    0    0  0.69209447556E+02 -0.18702528540E+02  0.39757483964E+03  0.41401253509E+03  0.90558786925E+02 0.  0.
        -11    1    1    2    0    0  0.31827097128E+02  0.80964506822E+02  0.64894166326E+02  0.10853325896E+03  0.00000000000E+00 0.  1.
         11    1    1    2    0    0 -0.10103654468E+03 -0.62261978282E+02 -0.46246900597E+03  0.47745420595E+03  0.00000000000E+00 0. -1.
        -15    1    3    3    0    0  0.25281298838E+01  0.97285899602E+01  0.33938761200E+00  0.10213217724E+02  0.17770000000E+01 0. -1.
         15    1    3    3    0    0  0.66681317672E+02 -0.28431118500E+02  0.39723545203E+03  0.40379931737E+03  0.17770000000E+01 0.  1.
</event>
<event>
 7    1  0.2288857E-006  0.5043621E+03  0.7546771E-02  0.9390102E-01
        -11   -1    0    0    0    0  0.00000000000E+00  0.00000000000E+00  0.50000000000E+03  0.50000000000E+03  0.00000000000E+00 0. -1.
         11   -1    0    0    0    0 -0.00000000000E+00 -0.00000000000E+00 -0.50000000000E+03  0.50000000000E+03  0.00000000000E+00 0. -1.
         23    2    1    2    0    0  0.20643691942E+02 -0.13082505449E+03  0.46861707109E+03  0.49563794994E+03  0.92269503093E+02 0.  0.
        -11    1    1    2    0    0  0.29415448160E+02 -0.46868579174E+01 -0.28820948463E+02  0.41447343677E+02  0.00000000000E+00 0. -1.
         11    1    1    2    0    0 -0.50059140102E+02  0.13551191241E+03 -0.43979612263E+03  0.46291470639E+03  0.00000000000E+00 0. -1.
        -15    1    3    3    0    0  0.52166397578E+02 -0.71021406258E+02  0.19857587956E+03  0.21725770608E+03  0.17770000000E+01 0.  1.
         15    1    3    3    0    0 -0.31522705636E+02 -0.59803648234E+02  0.27004119153E+03  0.27838024385E+03  0.17770000000E+01 0. -1.
</event>
<event>
 7    1  0.2288857E-006  0.5351435E+03  0.7546771E-02  0.9324434E-01
        -11   -1    0    0    0    0  0.00000000000E+00  0.00000000000E+00  0.50000000000E+03  0.50000000000E+03  0.00000000000E+00 0. -1.
         11   -1    0    0    0    0 -0.00000000000E+00 -0.00000000000E+00 -0.50000000000E+03  0.50000000000E+03  0.00000000000E+00 0.  1.
         23    2    1    2    0    0 -0.48807311405E+02 -0.30190233147E+01 -0.72984453270E+02  0.15264954725E+03  0.12483543451E+03 0.  0.
        -11    1    1    2    0    0  0.12316619559E+03  0.17083332539E+02  0.44791720485E+03  0.46485650946E+03  0.00000000000E+00 0. -1.
         11    1    1    2    0    0 -0.74358884180E+02 -0.14064309225E+02 -0.37493275158E+03  0.38249394329E+03  0.00000000000E+00 0.  1.
        -15    1    3    3    0    0 -0.62830243200E+02  0.37431646487E+02 -0.80903430329E+02  0.10907470095E+03  0.17770000000E+01 0. -1.
         15    1    3    3    0    0  0.14022931795E+02 -0.40450669801E+02  0.79189770591E+01  0.43574846301E+02  0.17770000000E+01 0. -1.
</event>
<event>
 7    1  0.2288857E-006  0.4768245E+03  0.7546771E-02  0.9453214E-01
        -11   -1    0    0    0    0  0.00000000000E+00  0.00000000000E+00  0.50000000000E+03  0.50000000000E+03  0.00000000000E+00 0.  1.
         11   -1    0    0    0    0 -0.00000000000E+00 -0.00000000000E+00 -0.50000000000E+03  0.50000000000E+03  0.00000000000E+00 0.  1.
         23    2    1    2    0    0  0.74781861237E+02  0.34157342107E+02  0.45163100931E+03  0.46812349244E+03  0.91705969370E+02 0.  0.
        -11    1    1    2    0    0  0.42684561597E+02 -0.30399390785E+02  0.11850417423E+02  0.53726410190E+02  0.00000000000E+00 0.  1.
         11    1    1    2    0    0 -0.11746642283E+03 -0.37579513224E+01 -0.46348142673E+03  0.47815009737E+03  0.00000000000E+00 0.  1.
        -15    1    3    3    0    0  0.17811446177E+02  0.58375199361E+02  0.23669199432E+03  0.24444052327E+03  0.17770000000E+01 0. -1.
         15    1    3    3    0    0  0.56970415060E+02 -0.24217857254E+02  0.21493901499E+03  0.22368296917E+03  0.17770000000E+01 0.  1.
</event>
<event>
 7    1  0.2288857E-006  0.3597594E+03  0.7546771E-02  0.9783393E-01
        -11   -1    0    0    0    0  0.00000000000E+00  0.00000000000E+00  0.50000000000E+03  0.50000000000E+03  0.00000000000E+00 0. -1.
         11   -1    0    0    0    0 -0.00000000000E+00 -0.00000000000E+00 -0.50000000000E+03  0.50000000000E+03  0.00000000000E+00 0. -1.
         23    2    1    2    0    0 -0.19923435267E+02 -0.98089539082E+02  0.20476259951E+03  0.24524600472E+03  0.90550426413E+02 0.  0.
        -11    1    1    2    0    0  0.43376044638E+02  0.25156713234E+03  0.19802367587E+03  0.32308029889E+03  0.00000000000E+00 0. -1.
         11    1    1    2    0    0 -0.23452609371E+02 -0.15347759326E+03 -0.40278627538E+03  0.43167369639E+03  0.00000000000E+00 0. -1.
        -15    1    3    3    0    0 -0.46377794275E+02 -0.68780915332E+02  0.83545045139E+02  0.11774823316E+03  0.17770000000E+01 0.  1.
         15    1    3    3    0    0  0.26454359008E+02 -0.29308623751E+02  0.12121755437E+03  0.12749777157E+03  0.17770000000E+01 0. -1.
</event>
<event>
 7    1  0.2288857E-006  0.4565827E+03  0.7546771E-02  0.9502570E-01
        -11   -1    0    0    0    0  0.00000000000E+00  0.00000000000E+00  0.50000000000E+03  0.50000000000E+03  0.00000000000E+00 0.  1.
         11   -1    0    0    0    0 -0.00000000000E+00 -0.00000000000E+00 -0.50000000000E+03  0.50000000000E+03  0.00000000000E+00 0. -1.
         23    2    1    2    0    0 -0.10821421818E+03 -0.15942792885E+02  0.42036541789E+03  0.44416880314E+03  0.92813530579E+02 0.  0.
        -11    1    1    2    0    0  0.13506328732E+02  0.86124238841E+02  0.28522393455E+02  0.91724219049E+02  0.00000000000E+00 0.  1.
         11    1    1    2    0    0  0.94707889446E+02 -0.70181445956E+02 -0.44888781135E+03  0.46410697781E+03  0.00000000000E+00 0. -1.
        -15    1    3    3    0    0 -0.10360910485E+03 -0.39898051413E+02  0.38815066972E+03  0.40372119247E+03  0.17770000000E+01 0.  1.
         15    1    3    3    0    0 -0.46051133264E+01  0.23955258528E+02  0.32214748169E+02  0.40447610665E+02  0.17770000000E+01 0. -1.
</event>
<event>
 7    1  0.2288857E-006  0.3970184E+03  0.7546771E-02  0.9665252E-01
        -11   -1    0    0    0    0  0.00000000000E+00  0.00000000000E+00  0.50000000000E+03  0.50000000000E+03  0.00000000000E+00 0.  1.
         11   -1    0    0    0    0 -0.00000000000E+00 -0.00000000000E+00 -0.50000000000E+03  0.50000000000E+03  0.00000000000E+00 0.  1.
         23    2    1    2    0    0  0.80955069962E+02  0.13343459914E+03  0.30607833760E+03  0.35519242664E+03  0.90106579074E+02 0.  0.
        -11    1    1    2    0    0 -0.15699560170E+03  0.56646540039E+02  0.96766933028E+02  0.19292560426E+03  0.00000000000E+00 0.  1.
         11    1    1    2    0    0  0.76040531735E+02 -0.19008113918E+03 -0.40284527063E+03  0.45188196911E+03  0.00000000000E+00 0.  1.
        -15    1    3    3    0    0  0.93304715364E+02  0.13698638796E+03  0.26962189817E+03  0.31649670788E+03  0.17770000000E+01 0.  1.
         15    1    3    3    0    0 -0.12349645401E+02 -0.35517888227E+01  0.36456439426E+02  0.38695718755E+02  0.17770000000E+01 0. -1.
</event>
<event>
 7    1  0.2288857E-006  0.4877472E+03  0.7546771E-02  0.9427651E-01
        -11   -1    0    0    0    0  0.00000000000E+00  0.00000000000E+00  0.50000000000E+03  0.50000000000E+03  0.00000000000E+00 0.  1.
         11   -1    0    0    0    0 -0.00000000000E+00 -0.00000000000E+00 -0.50000000000E+03  0.50000000000E+03  0.00000000000E+00 0. -1.
         23    2    1    2    0    0  0.16329440438E+02  0.74857255569E+02  0.45874082360E+03  0.47386675023E+03  0.90754032403E+02 0.  0.
        -11    1    1    2    0    0  0.95014252006E+01  0.17795119640E+02  0.25453277587E+02  0.32477880223E+02  0.00000000000E+00 0.  1.
         11    1    1    2    0    0 -0.25830865639E+02 -0.92652375209E+02 -0.48419410119E+03  0.49365536955E+03  0.00000000000E+00 0. -1.
        -15    1    3    3    0    0  0.48144221308E+02  0.22407036455E+02  0.15124353679E+03  0.16030504196E+03  0.17770000000E+01 0. -1.
         15    1    3    3    0    0 -0.31814780870E+02  0.52450219114E+02  0.30749728682E+03  0.31356170828E+03  0.17770000000E+01 0.  1.
</event>
<event>
 7    1  0.2288857E-006  0.5319797E+03  0.7546771E-02  0.9330965E-01
        -11   -1    0    0    0    0  0.00000000000E+00  0.00000000000E+00  0.50000000000E+03  0.50000000000E+03  0.00000000000E+00 0.  1.
         11   -1    0    0    0    0 -0.00000000000E+00 -0.00000000000E+00 -0.50000000000E+03  0.50000000000E+03  0.00000000000E+00 0. -1.
         23    2    1    2    0    0  0.73599028853E+02 -0.64231527433E+02  0.24212744649E+03  0.27608457705E+03  0.89746794782E+02 0.  0.
        -11    1    1    2    0    0 -0.53573292891E+02 -0.20932748276E+03  0.13709204692E+03  0.25589513883E+03  0.00000000000E+00 0.  1.
         11    1    1    2    0    0 -0.20025735963E+02  0.27355901020E+03 -0.37921949341E+03  0.46802028412E+03  0.00000000000E+00 0. -1.
        -15    1    3    3    0    0 -0.15180117649E+02 -0.20418768924E+02  0.97697369590E+02  0.10097175769E+03  0.17770000000E+01 0. -1.
         15    1    3    3    0    0  0.88779146502E+02 -0.43812758509E+02  0.14443007690E+03  0.17511281936E+03  0.17770000000E+01 0.  1.
</event>
<event>
 7    1  0.2288857E-006  0.5027927E+03  0.7546771E-02  0.9393582E-01
        -11   -1    0    0    0    0  0.00000000000E+00  0.00000000000E+00  0.50000000000E+03  0.50000000000E+03  0.00000000000E+00 0.  1.
         11   -1    0    0    0    0 -0.00000000000E+00 -0.00000000000E+00 -0.50000000000E+03  0.50000000000E+03  0.00000000000E+00 0.  1.
         23    2    1    2    0    0  0.13374970240E+03 -0.14711760769E+02  0.46992583185E+03  0.49720732814E+03  0.90991323283E+02 0.  0.
        -11    1    1    2    0    0 -0.10079601021E+03  0.49280059293E+02 -0.20592629088E+03  0.23450798961E+03  0.00000000000E+00 0.  1.
         11    1    1    2    0    0 -0.32953692189E+02 -0.34568298524E+02 -0.26399954098E+03  0.26828468225E+03  0.00000000000E+00 0.  1.
        -15    1    3    3    0    0 -0.12968115299E+02 -0.64764401343E+01  0.59437102565E+02  0.61204927755E+02  0.17770000000E+01 0. -1.
         15    1    3    3    0    0  0.14671781770E+03 -0.82353206352E+01  0.41048872929E+03  0.43600240038E+03  0.17770000000E+01 0.  1.
</event>
<event>
 7    1  0.2288857E-006  0.4754333E+03  0.7546771E-02  0.9456522E-01
        -11   -1    0    0    0    0  0.00000000000E+00  0.00000000000E+00  0.50000000000E+03  0.50000000000E+03  0.00000000000E+00 0.  1.
         11   -1    0    0    0    0 -0.00000000000E+00 -0.00000000000E+00 -0.50000000000E+03  0.50000000000E+03  0.00000000000E+00 0. -1.
         23    2    1    2    0    0  0.26127984747E+02  0.19094538856E+03  0.41673500403E+03  0.46800127659E+03  0.90632876558E+02 0.  0.
        -11    1    1    2    0    0  0.23185037799E+02 -0.40068344455E+02  0.31828226206E+02  0.56178769909E+02  0.00000000000E+00 0.  1.
         11    1    1    2    0    0 -0.49313022546E+02 -0.15087704410E+03 -0.44856323023E+03  0.47581995350E+03  0.00000000000E+00 0. -1.
        -15    1    3    3    0    0  0.65655274049E+01  0.10386735467E+02 -0.10349800933E+01  0.12458705252E+02  0.17770000000E+01 0. -1.
         15    1    3    3    0    0  0.19562457342E+02  0.18055865309E+03  0.41776998412E+03  0.45554257134E+03  0.17770000000E+01 0.  1.
</event>
<event>
 7    1  0.2288857E-006  0.3833353E+03  0.7546771E-02  0.9706963E-01
        -11   -1    0    0    0    0  0.00000000000E+00  0.00000000000E+00  0.50000000000E+03  0.50000000000E+03  0.00000000000E+00 0. -1.
         11   -1    0    0    0    0 -0.00000000000E+00 -0.00000000000E+00 -0.50000000000E+03  0.50000000000E+03  0.00000000000E+00 0. -1.
         23    2    1    2    0    0 -0.11593198384E+02  0.17208279690E+03 -0.76472033642E+02  0.21045674122E+03  0.93258655144E+02 0.  0.
        -11    1    1    2    0    0  0.64659546632E+02 -0.79752886009E+02  0.41871269625E+03  0.43111680760E+03  0.00000000000E+00 0. -1.
         11    1    1    2    0    0 -0.53066348248E+02 -0.92329910889E+02 -0.34224066261E+03  0.35842645118E+03  0.00000000000E+00 0. -1.
        -15    1    3    3    0    0 -0.46745362017E+02  0.76349962864E+02 -0.58312278479E+02  0.10685469222E+03  0.17770000000E+01 0. -1.
         15    1    3    3    0    0  0.35152163633E+02  0.95732834034E+02 -0.18159755163E+02  0.10360204900E+03  0.17770000000E+01 0.  1.
</event>
<event>
 7    1  0.2288857E-006  0.5010358E+03  0.7546771E-02  0.9397495E-01
        -11   -1    0    0    0    0  0.00000000000E+00  0.00000000000E+00  0.50000000000E+03  0.50000000000E+03  0.00000000000E+00 0.  1.
         11   -1    0    0    0    0 -0.00000000000E+00 -0.00000000000E+00 -0.50000000000E+03  0.50000000000E+03  0.00000000000E+00 0.  1.
         23    2    1    2    0    0  0.84858926932E+02  0.10081457746E+02  0.48146488263E+03  0.49896420675E+03  0.99268188007E+02 0.  0.
        -11    1    1    2    0    0  0.12352717455E+01 -0.23258044228E+02 -0.17939898766E+02  0.29399021843E+02  0.00000000000E+00 0.  1.
         11    1    1    2    0    0 -0.86094198678E+02  0.13176586482E+02 -0.46352498386E+03  0.47163677140E+03  0.00000000000E+00 0.  1.
        -15    1    3    3    0    0  0.80980411116E+02 -0.94941258657E+01  0.46745702603E+03  0.47451785459E+03  0.17770000000E+01 0.  1.
         15    1    3    3    0    0  0.38785158161E+01  0.19575583612E+02  0.14007856591E+02  0.24446352160E+02  0.17770000000E+01 0. -1.
</event>
<event>
 7    1  0.2288857E-006  0.5414447E+03  0.7546771E-02  0.9311569E-01
        -11   -1    0    0    0    0  0.00000000000E+00  0.00000000000E+00  0.50000000000E+03  0.50000000000E+03  0.00000000000E+00 0. -1.
         11   -1    0    0    0    0 -0.00000000000E+00 -0.00000000000E+00 -0.50000000000E+03  0.50000000000E+03  0.00000000000E+00 0.  1.
         23    2    1    2    0    0 -0.44258748462E+01  0.19154767551E+03  0.20053526207E+03  0.29181089420E+03  0.90714421559E+02 0.  0.
        -11    1    1    2    0    0 -0.25905306494E+02 -0.65819874736E+02  0.23940279775E+03  0.24963381259E+03  0.00000000000E+00 0. -1.
         11    1    1    2    0    0  0.30331181340E+02 -0.12572780078E+03 -0.43993805982E+03  0.45855529321E+03  0.00000000000E+00 0.  1.
        -15    1    3    3    0    0 -0.27941494189E+02  0.18554167184E+03  0.17845479805E+03  0.25895117641E+03  0.17770000000E+01 0.  1.
         15    1    3    3    0    0  0.23515619343E+02  0.60060036734E+01  0.22080464018E+02  0.32859717793E+02  0.17770000000E+01 0. -1.
</event>
<event>
 7    1  0.2288857E-006  0.5344035E+03  0.7546771E-02  0.9325958E-01
        -11   -1    0    0    0    0  0.00000000000E+00  0.00000000000E+00  0.50000000000E+03  0.50000000000E+03  0.00000000000E+00 0. -1.
         11   -1    0    0    0    0 -0.00000000000E+00 -0.00000000000E+00 -0.50000000000E+03  0.50000000000E+03  0.00000000000E+00 0. -1.
         23    2    1    2    0    0 -0.13005685193E+02 -0.30065264767E+02 -0.26613964554E+02  0.10068631832E+03  0.91413147818E+02 0.  0.
        -11    1    1    2    0    0 -0.90500508767E+02  0.17050437858E+03  0.42369568970E+03  0.46559652348E+03  0.00000000000E+00 0. -1.
         11    1    1    2    0    0  0.10350619396E+03 -0.14043911382E+03 -0.39708172515E+03  0.43371715821E+03  0.00000000000E+00 0. -1.
        -15    1    3    3    0    0  0.96296936049E+01 -0.45224369695E+02  0.16946417166E+02  0.49277919974E+02  0.17770000000E+01 0.  1.
         15    1    3    3    0    0 -0.22635378798E+02  0.15159104928E+02 -0.43560381720E+02  0.51408398342E+02  0.17770000000E+01 0. -1.
</event>
<event>
 7    1  0.2288857E-006  0.5078310E+03  0.7546771E-02  0.9382456E-01
        -11   -1    0    0    0    0  0.00000000000E+00  0.00000000000E+00  0.50000000000E+03  0.50000000000E+03  0.00000000000E+00 0.  1.
         11   -1    0    0    0    0 -0.00000000000E+00 -0.00000000000E+00 -0.50000000000E+03  0.50000000000E+03  0.00000000000E+00 0. -1.
         23    2    1    2    0    0 -0.24567904130E+02  0.81324619557E+02  0.33132575798E+03  0.35410621642E+03  0.91636122498E+02 0.  0.
        -11    1    1    2    0    0 -0.32231747550E+02  0.26762540573E+01  0.15028397719E+03  0.15372482456E+03  0.00000000000E+00 0.  1.
         11    1    1    2    0    0  0.56799651680E+02 -0.84000873614E+02 -0.48160973518E+03  0.49216895901E+03  0.00000000000E+00 0. -1.
        -15    1    3    3    0    0 -0.49037227917E+02  0.34685300925E+02  0.25058657404E+03  0.25769072284E+03  0.17770000000E+01 0.  1.
         15    1    3    3    0    0  0.24469323787E+02  0.46639318632E+02  0.80739183942E+02  0.96415493577E+02  0.17770000000E+01 0. -1.
</event>
<event>
 7    1  0.2288857E-006  0.5146298E+03  0.7546771E-02  0.9367656E-01
        -11   -1    0    0    0    0  0.00000000000E+00  0.00000000000E+00  0.50000000000E+03  0.50000000000E+03  0.00000000000E+00 0.  1.
         11   -1    0    0    0    0 -0.00000000000E+00 -0.00000000000E+00 -0.50000000000E+03  0.50000000000E+03  0.00000000000E+00 0. -1.
         23    2    1    2    0    0 -0.78920029165E+01  0.63080797605E+02 -0.15536149166E+03  0.19406110330E+03  0.97370673133E+02 0.  0.
        -11    1    1    2    0    0  0.56219801556E+02 -0.11758111405E+03  0.46754486528E+03  0.48537015309E+03  0.00000000000E+00 0.  1.
         11    1    1    2    0    0 -0.48327798640E+02  0.54500316442E+02 -0.31218337362E+03  0.32056874361E+03  0.00000000000E+00 0. -1.
        -15    1    3    3    0    0 -0.38834766738E+02  0.34851086346E+01 -0.22167319659E+02  0.44886889842E+02  0.17770000000E+01 0.  1.
         15    1    3    3    0    0  0.30942763821E+02  0.59595688970E+02 -0.13319417200E+03  0.14917421345E+03  0.17770000000E+01 0. -1.
</event>
<event>
 6    1  0.2288857E-006  0.5601868E+03  0.7546771E-02  0.9274374E-01
        -11   -1    0    0    0    0  0.00000000000E+00  0.00000000000E+00  0.50000000000E+03  0.50000000000E+03  0.00000000000E+00 0.  1.
         11   -1    0    0    0    0 -0.00000000000E+00 -0.00000000000E+00 -0.50000000000E+03  0.50000000000E+03  0.00000000000E+00 0. -1.
        -11    1    1    2    0    0  0.12250088400E+03  0.13974351395E+02  0.13814836071E+03  0.18516673201E+03  0.00000000000E+00 0.  1.
         11    1    1    2    0    0 -0.70792970398E+02 -0.13868862182E+03 -0.41132652654E+03  0.43981324436E+03  0.00000000000E+00 0. -1.
        -15    1    1    2    0    0  0.79017584741E+02  0.31166083003E+02  0.45703221110E+02  0.96473030309E+02  0.17770000000E+01 0.  1.
         15    1    1    2    0    0 -0.13072549834E+03  0.93548187420E+02  0.22747494472E+03  0.27854699332E+03  0.17770000000E+01 0. -1.
</event>
<event>
 7    1  0.2288857E-006  0.5167175E+03  0.7546771E-02  0.9363161E-01
        -11   -1    0    0    0    0  0.00000000000E+00  0.00000000000E+00  0.50000000000E+03  0.50000000000E+03  0.00000000000E+00 0. -1.
         11   -1    0    0    0    0 -0.00000000000E+00 -0.00000000000E+00 -0.50000000000E+03  0.50000000000E+03  0.00000000000E+00 0. -1.
         23    2    1    2    0    0  0.58809203176E+02  0.13220173287E+03  0.35447736820E+03  0.39355498446E+03  0.91079639182E+02 0.  0.
        -11    1    1    2    0    0 -0.16503799208E+02 -0.34783220258E+02  0.11699041034E+03  0.12316251017E+03  0.00000000000E+00 0. -1.
         11    1    1    2    0    0 -0.42305403968E+02 -0.97418512616E+02 -0.47146777854E+03  0.48328250538E+03  0.00000000000E+00 0. -1.
        -15    1    3    3    0    0  0.74273631255E+02  0.12007840152E+03  0.34252018532E+03  0.37048431801E+03  0.17770000000E+01 0. -1.
         15    1    3    3    0    0 -0.15464428080E+02  0.12123331358E+02  0.11957182883E+02  0.23070666452E+02  0.17770000000E+01 0.  1.
</event>
<event>
 7    1  0.2288857E-006  0.3473031E+03  0.7546771E-02  0.9826354E-01
        -11   -1    0    0    0    0  0.00000000000E+00  0.00000000000E+00  0.50000000000E+03  0.50000000000E+03  0.00000000000E+00 0.  1.
         11   -1    0    0    0    0 -0.00000000000E+00 -0.00000000000E+00 -0.50000000000E+03  0.50000000000E+03  0.00000000000E+00 0. -1.
         23    2    1    2    0    0 -0.17064734368E+03  0.26072695663E+03  0.44378018199E+01  0.32474498996E+03  0.91326625914E+02 0.  0.
        -11    1    1    2    0    0  0.28557701487E+03 -0.18562095008E+03  0.22476396534E+03  0.40807867948E+03  0.00000000000E+00 0.  1.
         11    1    1    2    0    0 -0.11492967119E+03 -0.75106006554E+02 -0.22920176716E+03  0.26717633055E+03  0.00000000000E+00 0. -1.
        -15    1    3    3    0    0 -0.16446939082E+03  0.24251837627E+03  0.27899779709E+02  0.29435845288E+03  0.17770000000E+01 0.  1.
         15    1    3    3    0    0 -0.61779528633E+01  0.18208580358E+02 -0.23461977889E+02  0.30386537080E+02  0.17770000000E+01 0. -1.
</event>
<event>
 7    1  0.2288857E-006  0.4624776E+03  0.7546771E-02  0.9487919E-01
        -11   -1    0    0    0    0  0.00000000000E+00  0.00000000000E+00  0.50000000000E+03  0.50000000000E+03  0.00000000000E+00 0. -1.
         11   -1    0    0    0    0 -0.00000000000E+00 -0.00000000000E+00 -0.50000000000E+03  0.50000000000E+03  0.00000000000E+00 0. -1.
         23    2    1    2    0    0  0.72012384535E+02 -0.18602312725E+03  0.39474612818E+03  0.45242592599E+03  0.95259253592E+02 0.  0.
        -11    1    1    2    0    0  0.46654470476E+02  0.55545275859E+02  0.36828074154E+02  0.81352469732E+02  0.00000000000E+00 0. -1.
         11    1    1    2    0    0 -0.11866685501E+03  0.13047785139E+03 -0.43157420233E+03  0.46622160428E+03  0.00000000000E+00 0. -1.
        -15    1    3    3    0    0  0.46613274482E+02 -0.84940541224E+02  0.28518099921E+03  0.30119603739E+03  0.17770000000E+01 0. -1.
         15    1    3    3    0    0  0.25399110053E+02 -0.10108258603E+03  0.10956512897E+03  0.15122988860E+03  0.17770000000E+01 0.  1.
</event>
<event>
 7    1  0.2288857E-006  0.5105591E+03  0.7546771E-02  0.9376488E-01
        -11   -1    0    0    0    0  0.00000000000E+00  0.00000000000E+00  0.50000000000E+03  0.50000000000E+03  0.00000000000E+00 0.  1.
         11   -1    0    0    0    0 -0.00000000000E+00 -0.00000000000E+00 -0.50000000000E+03  0.50000000000E+03  0.00000000000E+00 0. -1.
         23    2    1    2    0    0  0.44720779991E+02 -0.60300170648E+02 -0.34503233631E+03  0.36495443169E+03  0.92240800983E+02 0.  0.
        -11    1    1    2    0    0 -0.82163978715E+02  0.26986557897E+02  0.48173977993E+03  0.48944091500E+03  0.00000000000E+00 0.  1.
         11    1    1    2    0    0  0.37443198723E+02  0.33313612750E+02 -0.13670744362E+03  0.14560465331E+03  0.00000000000E+00 0. -1.
        -15    1    3    3    0    0 -0.17367727657E+02 -0.26114756908E+02 -0.35486176946E+02  0.47392456948E+02  0.17770000000E+01 0. -1.
         15    1    3    3    0    0  0.62088507649E+02 -0.34185413740E+02 -0.30954615937E+03  0.31756197474E+03  0.17770000000E+01 0.  1.
</event>
<event>
 7    1  0.2288857E-006  0.3718936E+03  0.7546771E-02  0.9743298E-01
        -11   -1    0    0    0    0  0.00000000000E+00  0.00000000000E+00  0.50000000000E+03  0.50000000000E+03  0.00000000000E+00 0. -1.
         11   -1    0    0    0    0 -0.00000000000E+00 -0.00000000000E+00 -0.50000000000E+03  0.50000000000E+03  0.00000000000E+00 0. -1.
         23    2    1    2    0    0 -0.90310472436E+02 -0.62319021297E+02  0.17722399415E+03  0.22755748194E+03  0.91293053610E+02 0.  0.
        -11    1    1    2    0    0  0.15170323416E+03  0.15028537028E+03  0.25183188366E+03  0.33018004392E+03  0.00000000000E+00 0. -1.
         11    1    1    2    0    0 -0.61392761723E+02 -0.87966348987E+02 -0.42905587781E+03  0.44226247414E+03  0.00000000000E+00 0. -1.
        -15    1    3    3    0    0 -0.10705724103E+03 -0.65453427675E+02  0.15286482339E+03  0.19777819903E+03  0.17770000000E+01 0. -1.
         15    1    3    3    0    0  0.16746768594E+02  0.31344063779E+01  0.24359170756E+02  0.29779282910E+02  0.17770000000E+01 0.  1.
</event>
<event>
 7    1  0.2288857E-006  0.3865621E+03  0.7546771E-02  0.9696961E-01
        -11   -1    0    0    0    0  0.00000000000E+00  0.00000000000E+00  0.50000000000E+03  0.50000000000E+03  0.00000000000E+00 0.  1.
         11   -1    0    0    0    0 -0.00000000000E+00 -0.00000000000E+00 -0.50000000000E+03  0.50000000000E+03  0.00000000000E+00 0. -1.
         23    2    1    2    0    0 -0.15532973730E+03 -0.80222694493E+02  0.42760107352E+02  0.20620377308E+03  0.10064075343E+03 0.  0.
        -11    1    1    2    0    0  0.66124536739E+02  0.25424189610E+02  0.36551232767E+03  0.37231452490E+03  0.00000000000E+00 0.  1.
         11    1    1    2    0    0  0.89205200558E+02  0.54798504883E+02 -0.40827243502E+03  0.42148170202E+03  0.00000000000E+00 0. -1.
        -15    1    3    3    0    0 -0.42597165610E+02  0.21153607460E+02  0.24374327086E+02  0.53472041072E+02  0.17770000000E+01 0.  1.
         15    1    3    3    0    0 -0.11273257169E+03 -0.10137630195E+03  0.18385780266E+02  0.15273173201E+03  0.17770000000E+01 0. -1.
</event>
<event>
 7    1  0.2288857E-006  0.5319423E+03  0.7546771E-02  0.9331043E-01
        -11   -1    0    0    0    0  0.00000000000E+00  0.00000000000E+00  0.50000000000E+03  0.50000000000E+03  0.00000000000E+00 0. -1.
         11   -1    0    0    0    0 -0.00000000000E+00 -0.00000000000E+00 -0.50000000000E+03  0.50000000000E+03  0.00000000000E+00 0.  1.
         23    2    1    2    0    0 -0.11633273076E+03 -0.75316459040E+02 -0.13675089352E+03  0.21457840468E+03  0.90206494393E+02 0.  0.
        -11    1    1    2    0    0  0.71903753766E+02  0.11120566797E+03  0.44893334320E+03  0.46805768558E+03  0.00000000000E+00 0. -1.
         11    1    1    2    0    0  0.44428976991E+02 -0.35889208933E+02 -0.31218244968E+03  0.31736390974E+03  0.00000000000E+00 0.  1.
        -15    1    3    3    0    0 -0.11787505930E+03 -0.44394299767E+02 -0.78052556326E+02  0.14819157444E+03  0.17770000000E+01 0.  1.
         15    1    3    3    0    0  0.15423285456E+01 -0.30922159273E+02 -0.58698337192E+02  0.66386830241E+02  0.17770000000E+01 0. -1.
</event>
<event>
 7    1  0.2288857E-006  0.3520192E+03  0.7546771E-02  0.9809864E-01
        -11   -1    0    0    0    0  0.00000000000E+00  0.00000000000E+00  0.50000000000E+03  0.50000000000E+03  0.00000000000E+00 0.  1.
         11   -1    0    0    0    0 -0.00000000000E+00 -0.00000000000E+00 -0.50000000000E+03  0.50000000000E+03  0.00000000000E+00 0. -1.
         23    2    1    2    0    0  0.18419184679E+03  0.10534638762E+03  0.10989267289E+03  0.25651427373E+03  0.93266688944E+02 0.  0.
        -11    1    1    2    0    0  0.24334184939E+03 -0.15772449768E+03  0.27715635727E+02  0.29130813462E+03  0.00000000000E+00 0.  1.
         11    1    1    2    0    0 -0.42753369618E+03  0.52378110063E+02 -0.13760830861E+03  0.45217759164E+03  0.00000000000E+00 0. -1.
        -15    1    3    3    0    0  0.16437108778E+03  0.84945134247E+02  0.12592328937E+03  0.22381546610E+03  0.17770000000E+01 0. -1.
         15    1    3    3    0    0  0.19820759011E+02  0.20401253369E+02 -0.16030616484E+02  0.32698807633E+02  0.17770000000E+01 0.  1.
</event>
<event>
 7    1  0.2288857E-006  0.5300955E+03  0.7546771E-02  0.9334878E-01
        -11   -1    0    0    0    0  0.00000000000E+00  0.00000000000E+00  0.50000000000E+03  0.50000000000E+03  0.00000000000E+00 0. -1.
         11   -1    0    0    0    0 -0.00000000000E+00 -0.00000000000E+00 -0.50000000000E+03  0.50000000000E+03  0.00000000000E+00 0. -1.
         23    2    1    2    0    0 -0.11624042720E+03 -0.12372665875E+02 -0.14102625961E+03  0.20939678730E+03  0.10145781811E+03 0.  0.
        -11    1    1    2    0    0  0.91142201512E+02  0.65202514763E+02  0.45634633150E+03  0.46990450424E+03  0.00000000000E+00 0. -1.
         11    1    1    2    0    0  0.25098225692E+02 -0.52829848888E+02 -0.31532007190E+03  0.32069870846E+03  0.00000000000E+00 0. -1.
        -15    1    3    3    0    0 -0.46149196109E+02  0.44153459189E+02 -0.69327483781E+02  0.94280082712E+02  0.17770000000E+01 0.  1.
         15    1    3    3    0    0 -0.70091231094E+02 -0.56526125064E+02 -0.71698775829E+02  0.11511670459E+03  0.17770000000E+01 0. -1.
</event>
<event>
 7    1  0.2288857E-006  0.5178680E+03  0.7546771E-02  0.9360693E-01
        -11   -1    0    0    0    0  0.00000000000E+00  0.00000000000E+00  0.50000000000E+03  0.50000000000E+03  0.00000000000E+00 0.  1.
         11   -1    0    0    0    0 -0.00000000000E+00 -0.00000000000E+00 -0.50000000000E+03  0.50000000000E+03  0.00000000000E+00 0. -1.
         23    2    1    2    0    0  0.57751915661E+02  0.39142794781E+02  0.36670614641E+03  0.38446168778E+03  0.92032328091E+02 0.  0.
        -11    1    1    2    0    0  0.10074212692E+03  0.23046980290E+02  0.84362947707E+02  0.13340632062E+03  0.00000000000E+00 0.  1.
         11    1    1    2    0    0 -0.15849404258E+03 -0.62189775072E+02 -0.45106909411E+03  0.48213199160E+03  0.00000000000E+00 0. -1.
        -15    1    3    3    0    0 -0.18497241781E+02 -0.12603299632E+02  0.54755773075E+02  0.59180600953E+02  0.17770000000E+01 0. -1.
         15    1    3    3    0    0  0.76249157443E+02  0.51746094413E+02  0.31195037333E+03  0.32528108683E+03  0.17770000000E+01 0.  1.
</event>
<event>
 7    1  0.2288857E-006  0.5285741E+03  0.7546771E-02  0.9338049E-01
        -11   -1    0    0    0    0  0.00000000000E+00  0.00000000000E+00  0.50000000000E+03  0.50000000000E+03  0.00000000000E+00 0.  1.
         11   -1    0    0    0    0 -0.00000000000E+00 -0.00000000000E+00 -0.50000000000E+03  0.50000000000E+03  0.00000000000E+00 0. -1.
         23    2    1    2    0    0 -0.13548271295E+03  0.89056613657E+02 -0.20783988405E+03  0.27561042962E+03  0.80480094245E+02 0.  0.
        -11    1    1    2    0    0  0.82423055764E+02 -0.90938668989E+02  0.45516914534E+03  0.47142587170E+03  0.00000000000E+00 0.  1.
         11    1    1    2    0    0  0.53059657189E+02  0.18820553322E+01 -0.24732926130E+03  0.25296369868E+03  0.00000000000E+00 0. -1.
        -15    1    3    3    0    0 -0.13431439183E+03  0.52240564008E+02 -0.16613431980E+03  0.21993908776E+03  0.17770000000E+01 0. -1.
         15    1    3    3    0    0 -0.11683211186E+01  0.36816049649E+02 -0.41705564249E+02  0.55671341859E+02  0.17770000000E+01 0.  1.
</event>
<event>
 7    1  0.2288857E-006  0.5290063E+03  0.7546771E-02  0.9337147E-01
        -11   -1    0    0    0    0  0.00000000000E+00  0.00000000000E+00  0.50000000000E+03  0.50000000000E+03  0.00000000000E+00 0.  1.
         11   -1    0    0    0    0 -0.00000000000E+00 -0.00000000000E+00 -0.50000000000E+03  0.50000000000E+03  0.00000000000E+00 0. -1.
         23    2    1    2    0    0  0.78995926094E+02  0.17816295112E+03 -0.19495633783E+03  0.29003965781E+03  0.90181128568E+02 0.  0.
        -11    1    1    2    0    0  0.16249940646E+02 -0.23905379555E+03  0.40549270587E+03  0.47099374969E+03  0.00000000000E+00 0.  1.
         11    1    1    2    0    0 -0.95245866739E+02  0.60890844423E+02 -0.21053636803E+03  0.23896659250E+03  0.00000000000E+00 0. -1.
        -15    1    3    3    0    0  0.14511626305E+02  0.16646988102E+02 -0.76414919527E+02  0.79561970603E+02  0.17770000000E+01 0.  1.
         15    1    3    3    0    0  0.64484299788E+02  0.16151596302E+03 -0.11854141831E+03  0.21047768721E+03  0.17770000000E+01 0. -1.
</event>
<event>
 7    1  0.2288857E-006  0.4108698E+03  0.7546771E-02  0.9624818E-01
        -11   -1    0    0    0    0  0.00000000000E+00  0.00000000000E+00  0.50000000000E+03  0.50000000000E+03  0.00000000000E+00 0. -1.
         11   -1    0    0    0    0 -0.00000000000E+00 -0.00000000000E+00 -0.50000000000E+03  0.50000000000E+03  0.00000000000E+00 0.  1.
         23    2    1    2    0    0  0.39105265229E+01  0.12221942839E+03 -0.68932373462E+02  0.16635714397E+03  0.89275676101E+02 0.  0.
        -11    1    1    2    0    0 -0.45355540426E+02 -0.74533860692E+02  0.44440659442E+03  0.45289032072E+03  0.00000000000E+00 0. -1.
         11    1    1    2    0    0  0.41445013903E+02 -0.47685567700E+02 -0.37547422096E+03  0.38075253531E+03  0.00000000000E+00 0.  1.
        -15    1    3    3    0    0  0.28176671868E+02  0.17258104716E+01 -0.16222396578E+02  0.32607163923E+02  0.17770000000E+01 0. -1.
         15    1    3    3    0    0 -0.24266145346E+02  0.12049361792E+03 -0.52709976885E+02  0.13374998004E+03  0.17770000000E+01 0.  1.
</event>
<event>
 7    1  0.2288857E-006  0.4295567E+03  0.7546771E-02  0.9572888E-01
        -11   -1    0    0    0    0  0.00000000000E+00  0.00000000000E+00  0.50000000000E+03  0.50000000000E+03  0.00000000000E+00 0.  1.
         11   -1    0    0    0    0 -0.00000000000E+00 -0.00000000000E+00 -0.50000000000E+03  0.50000000000E+03  0.00000000000E+00 0. -1.
         23    2    1    2    0    0 -0.45423011032E+02 -0.78928964556E+02  0.38117245724E+02  0.13523310904E+03  0.92423146361E+02 0.  0.
        -11    1    1    2    0    0  0.10501063122E+03  0.11292637430E+02  0.40193373168E+03  0.41557848957E+03  0.00000000000E+00 0.  1.
         11    1    1    2    0    0 -0.59587620184E+02  0.67636327126E+02 -0.44005097740E+03  0.44918840139E+03  0.00000000000E+00 0. -1.
        -15    1    3    3    0    0  0.13097837510E+02 -0.35559431414E+02  0.48565814146E+02  0.61626475987E+02  0.17770000000E+01 0.  1.
         15    1    3    3    0    0 -0.58520848542E+02 -0.43369533142E+02 -0.10448568422E+02  0.73606633058E+02  0.17770000000E+01 0. -1.
</event>
<event>
 7    1  0.2288857E-006  0.4550015E+03  0.7546771E-02  0.9506540E-01
        -11   -1    0    0    0    0  0.00000000000E+00  0.00000000000E+00  0.50000000000E+03  0.50000000000E+03  0.00000000000E+00 0.  1.
         11   -1    0    0    0    0 -0.00000000000E+00 -0.00000000000E+00 -0.50000000000E+03  0.50000000000E+03  0.00000000000E+00 0. -1.
         23    2    1    2    0    0  0.19846863687E+02  0.81613373774E+02  0.39143264304E+03  0.41290430585E+03  0.10107329507E+03 0.  0.
        -11    1    1    2    0    0 -0.30184402789E+02  0.85786054098E+01  0.90967499445E+02  0.96227732997E+02  0.00000000000E+00 0.  1.
         11    1    1    2    0    0  0.10337539102E+02 -0.90191979184E+02 -0.48240014248E+03  0.49086796116E+03  0.00000000000E+00 0. -1.
        -15    1    3    3    0    0  0.37858221931E+02  0.81048642957E+02  0.38228789989E+03  0.39261854723E+03  0.17770000000E+01 0.  1.
         15    1    3    3    0    0 -0.18011358244E+02  0.56473081743E+00  0.91447431417E+01  0.20285758621E+02  0.17770000000E+01 0. -1.
</event>
<event>
 7    1  0.2288857E-006  0.5106900E+03  0.7546771E-02  0.9376203E-01
        -11   -1    0    0    0    0  0.00000000000E+00  0.00000000000E+00  0.50000000000E+03  0.50000000000E+03  0.00000000000E+00 0.  1.
         11   -1    0    0    0    0 -0.00000000000E+00 -0.00000000000E+00 -0.50000000000E+03  0.50000000000E+03  0.00000000000E+00 0.  1.
         23    2    1    2    0    0  0.18248446125E+02 -0.15015329278E+01  0.36390416489E+03  0.37585997706E+03  0.92245437520E+02 0.  0.
        -11    1    1    2    0    0  0.63956679825E+02 -0.93136086072E+01  0.11832980271E+03  0.13483005009E+03  0.00000000000E+00 0.  1.
         11    1    1    2    0    0 -0.82205125950E+02  0.10815141535E+02 -0.48223396760E+03  0.48930997285E+03  0.00000000000E+00 0.  1.
        -15    1    3    3    0    0 -0.14282482971E+02 -0.39170304999E+02  0.12377252280E+03  0.13061813520E+03  0.17770000000E+01 0. -1.
         15    1    3    3    0    0  0.32530929096E+02  0.37668772071E+02  0.24013164209E+03  0.24524184186E+03  0.17770000000E+01 0.  1.
</event>
<event>
 7    1  0.2288857E-006  0.5118601E+03  0.7546771E-02  0.9373656E-01
        -11   -1    0    0    0    0  0.00000000000E+00  0.00000000000E+00  0.50000000000E+03  0.50000000000E+03  0.00000000000E+00 0.  1.
         11   -1    0    0    0    0 -0.00000000000E+00 -0.00000000000E+00 -0.50000000000E+03  0.50000000000E+03  0.00000000000E+00 0. -1.
         23    2    1    2    0    0 -0.49714197599E+02  0.35898854998E+02 -0.16902651940E+03  0.20156083890E+03  0.91085554766E+02 0.  0.
        -11    1    1    2    0    0  0.10478762228E+03 -0.50978180095E+02  0.47402675902E+03  0.48813992758E+03  0.00000000000E+00 0.  1.
         11    1    1    2    0    0 -0.55073424683E+02  0.15079325096E+02 -0.30500023962E+03  0.31029923352E+03  0.00000000000E+00 0. -1.
        -15    1    3    3    0    0  0.13931140568E+02  0.39642652317E+02 -0.94709895903E+02  0.10362788559E+03  0.17770000000E+01 0.  1.
         15    1    3    3    0    0 -0.63645338167E+02 -0.37437973193E+01 -0.74316623494E+02  0.97932953317E+02  0.17770000000E+01 0. -1.
</event>
<event>
 7    1  0.2288857E-006  0.5207563E+03  0.7546771E-02  0.9354527E-01
        -11   -1    0    0    0    0  0.00000000000E+00  0.00000000000E+00  0.50000000000E+03  0.50000000000E+03  0.00000000000E+00 0. -1.
         11   -1    0    0    0    0 -0.00000000000E+00 -0.00000000000E+00 -0.50000000000E+03  0.50000000000E+03  0.00000000000E+00 0. -1.
         23    2    1    2    0    0  0.96832896185E+02  0.23984423925E+03 -0.14687258532E+01  0.27678530510E+03  0.98519435026E+02 0.  0.
        -11    1    1    2    0    0 -0.94560759352E+02 -0.45530199480E+03  0.11590045727E+03  0.47924373723E+03  0.00000000000E+00 0. -1.
         11    1    1    2    0    0 -0.22721368331E+01  0.21545775555E+03 -0.11443173142E+03  0.24397095767E+03  0.00000000000E+00 0. -1.
        -15    1    3    3    0    0  0.54798673335E+02  0.51963541651E+02 -0.31646642148E+02  0.81900988690E+02  0.17770000000E+01 0.  1.
         15    1    3    3    0    0  0.42034222850E+02  0.18788069760E+03  0.30177916295E+02  0.19488431641E+03  0.17770000000E+01 0. -1.
</event>
<event>
 7    1  0.2288857E-006  0.4660976E+03  0.7546771E-02  0.9479037E-01
        -11   -1    0    0    0    0  0.00000000000E+00  0.00000000000E+00  0.50000000000E+03  0.50000000000E+03  0.00000000000E+00 0.  1.
         11   -1    0    0    0    0 -0.00000000000E+00 -0.00000000000E+00 -0.50000000000E+03  0.50000000000E+03  0.00000000000E+00 0. -1.
         23    2    1    2    0    0  0.11437092857E+03 -0.20790840923E+03 -0.35050894910E+03  0.43298084731E+03  0.91155223698E+02 0.  0.
        -11    1    1    2    0    0 -0.14202718309E+03  0.26129699802E+03  0.39339818778E+03  0.49316323470E+03  0.00000000000E+00 0.  1.
         11    1    1    2    0    0  0.27656254521E+02 -0.53388588797E+02 -0.42889238676E+02  0.73855917989E+02  0.00000000000E+00 0. -1.
        -15    1    3    3    0    0 -0.36651831696E+01 -0.66685249200E+02 -0.64514696795E+02  0.92874430605E+02  0.17770000000E+01 0.  1.
         15    1    3    3    0    0  0.11803611174E+03 -0.14122316002E+03 -0.28599425231E+03  0.34010641671E+03  0.17770000000E+01 0. -1.
</event>
<event>
 7    1  0.2288857E-006  0.5103331E+03  0.7546771E-02  0.9376981E-01
        -11   -1    0    0    0    0  0.00000000000E+00  0.00000000000E+00  0.50000000000E+03  0.50000000000E+03  0.00000000000E+00 0.  1.
         11   -1    0    0    0    0 -0.00000000000E+00 -0.00000000000E+00 -0.50000000000E+03  0.50000000000E+03  0.00000000000E+00 0. -1.
         23    2    1    2    0    0 -0.97057163663E+02  0.21449928486E+03  0.27678566051E+03  0.37450839592E+03  0.90643259693E+02 0.  0.
        -11    1    1    2    0    0 -0.36155601457E+01  0.11649741079E+03  0.69739748004E+02  0.13582470853E+03  0.00000000000E+00 0.  1.
         11    1    1    2    0    0  0.10067272381E+03 -0.33099669565E+03 -0.34652540851E+03  0.48966689555E+03  0.00000000000E+00 0. -1.
        -15    1    3    3    0    0 -0.58007820615E+02  0.18411659233E+03  0.25644394037E+03  0.32098361189E+03  0.17770000000E+01 0.  1.
         15    1    3    3    0    0 -0.39049343049E+02  0.30382692528E+02  0.20341720142E+02  0.53524784027E+02  0.17770000000E+01 0. -1.
</event>
<event>
 7    1  0.2288857E-006  0.3613719E+03  0.7546771E-02  0.9777967E-01
        -11   -1    0    0    0    0  0.00000000000E+00  0.00000000000E+00  0.50000000000E+03  0.50000000000E+03  0.00000000000E+00 0. -1.
         11   -1    0    0    0    0 -0.00000000000E+00 -0.00000000000E+00 -0.50000000000E+03  0.50000000000E+03  0.00000000000E+00 0.  1.
         23    2    1    2    0    0 -0.14562560840E+03 -0.60827868255E+02 -0.16056250330E+03  0.24300207280E+03  0.91448578671E+02 0.  0.
        -11    1    1    2    0    0  0.25649014331E+02  0.15343303855E+03  0.42479622903E+03  0.45238413483E+03  0.00000000000E+00 0. -1.
         11    1    1    2    0    0  0.11997659407E+03 -0.92605170292E+02 -0.26423372573E+03  0.30461379237E+03  0.00000000000E+00 0.  1.
        -15    1    3    3    0    0 -0.14995757872E+03 -0.34349998973E+02 -0.12391403162E+03  0.19754757100E+03  0.17770000000E+01 0.  1.
         15    1    3    3    0    0  0.43319703253E+01 -0.26477869281E+02 -0.36648471673E+02  0.45454501796E+02  0.17770000000E+01 0. -1.
</event>
<event>
 7    1  0.2288857E-006  0.5350541E+03  0.7546771E-02  0.9324618E-01
        -11   -1    0    0    0    0  0.00000000000E+00  0.00000000000E+00  0.50000000000E+03  0.50000000000E+03  0.00000000000E+00 0. -1.
         11   -1    0    0    0    0 -0.00000000000E+00 -0.00000000000E+00 -0.50000000000E+03  0.50000000000E+03  0.00000000000E+00 0.  1.
         23    2    1    2    0    0  0.86217952445E+02  0.37082735332E+02  0.20822124976E+03  0.24636647527E+03  0.92367129981E+02 0.  0.
        -11    1    1    2    0    0 -0.11780773457E+03  0.15178656516E+03  0.21545928212E+03  0.28868759228E+03  0.00000000000E+00 0. -1.
         11    1    1    2    0    0  0.31589782124E+02 -0.18886930050E+03 -0.42368053188E+03  0.46494593245E+03  0.00000000000E+00 0.  1.
        -15    1    3    3    0    0  0.61431200753E+02  0.66631180639E+02  0.16612272230E+03  0.18924434801E+03  0.17770000000E+01 0. -1.
         15    1    3    3    0    0  0.24786751691E+02 -0.29548445307E+02  0.42098527462E+02  0.57122127262E+02  0.17770000000E+01 0.  1.
</event>
<event>
 7    1  0.2288857E-006  0.4501425E+03  0.7546771E-02  0.9518847E-01
        -11   -1    0    0    0    0  0.00000000000E+00  0.00000000000E+00  0.50000000000E+03  0.50000000000E+03  0.00000000000E+00 0.  1.
         11   -1    0    0    0    0 -0.00000000000E+00 -0.00000000000E+00 -0.50000000000E+03  0.50000000000E+03  0.00000000000E+00 0. -1.
         23    2    1    2    0    0  0.27016770432E+02 -0.18136064431E+02  0.20957541254E+02  0.98883326962E+02  0.90993797030E+02 0.  0.
        -11    1    1    2    0    0 -0.71590095712E+02  0.17217704238E+03  0.40505919516E+03  0.44591818455E+03  0.00000000000E+00 0.  1.
         11    1    1    2    0    0  0.44573325280E+02 -0.15404097795E+03 -0.42601673642E+03  0.45519848849E+03  0.00000000000E+00 0. -1.
        -15    1    3    3    0    0 -0.25900140179E+02 -0.30761899961E+02 -0.81033353524E+00  0.40260726769E+02  0.17770000000E+01 0. -1.
         15    1    3    3    0    0  0.52916910612E+02  0.12625835530E+02  0.21767874790E+02  0.58622600193E+02  0.17770000000E+01 0.  1.
</event>
<event>
 7    1  0.2288857E-006  0.5170367E+03  0.7546771E-02  0.9362475E-01
        -11   -1    0    0    0    0  0.00000000000E+00  0.00000000000E+00  0.50000000000E+03  0.50000000000E+03  0.00000000000E+00 0.  1.
         11   -1    0    0    0    0 -0.00000000000E+00 -0.00000000000E+00 -0.50000000000E+03  0.50000000000E+03  0.00000000000E+00 0. -1.
         23    2    1    2    0    0  0.22909859272E+02  0.30802579623E+02  0.16506803142E+03  0.19772433129E+03  0.10185183172E+03 0.  0.
        -11    1    1    2    0    0  0.13581229686E+03  0.18474815743E+02  0.28839921220E+03  0.31931239311E+03  0.00000000000E+00 0.  1.
         11    1    1    2    0    0 -0.15872215614E+03 -0.49277395366E+02 -0.45346724362E+03  0.48296327560E+03  0.00000000000E+00 0. -1.
        -15    1    3    3    0    0  0.18567965230E+02  0.60049776852E+02  0.15357924254E+03  0.16595326602E+03  0.17770000000E+01 0. -1.
         15    1    3    3    0    0  0.43418940419E+01 -0.29247197229E+02  0.11488788873E+02  0.31771065270E+02  0.17770000000E+01 0.  1.
</event>
<event>
 7    1  0.2288857E-006  0.4440752E+03  0.7546771E-02  0.9534449E-01
        -11   -1    0    0    0    0  0.00000000000E+00  0.00000000000E+00  0.50000000000E+03  0.50000000000E+03  0.00000000000E+00 0.  1.
         11   -1    0    0    0    0 -0.00000000000E+00 -0.00000000000E+00 -0.50000000000E+03  0.50000000000E+03  0.00000000000E+00 0. -1.
         23    2    1    2    0    0  0.22079135669E+02 -0.37623550861E+02  0.48888932401E+02  0.10943597056E+03  0.87653203767E+02 0.  0.
        -11    1    1    2    0    0 -0.18460679706E+01  0.19217667803E+03  0.38457721389E+03  0.42992431542E+03  0.00000000000E+00 0.  1.
         11    1    1    2    0    0 -0.20233067698E+02 -0.15455312717E+03 -0.43346614629E+03  0.46063971402E+03  0.00000000000E+00 0. -1.
        -15    1    3    3    0    0  0.46311302085E+02 -0.36059399956E+02  0.58844648843E+02  0.83131627269E+02  0.17770000000E+01 0.  1.
         15    1    3    3    0    0 -0.24232166416E+02 -0.15641509053E+01 -0.99557164423E+01  0.26304343294E+02  0.17770000000E+01 0. -1.
</event>
<event>
 7    1  0.2288857E-006  0.5162396E+03  0.7546771E-02  0.9364188E-01
        -11   -1    0    0    0    0  0.00000000000E+00  0.00000000000E+00  0.50000000000E+03  0.50000000000E+03  0.00000000000E+00 0.  1.
         11   -1    0    0    0    0 -0.00000000000E+00 -0.00000000000E+00 -0.50000000000E+03  0.50000000000E+03  0.00000000000E+00 0. -1.
         23    2    1    2    0    0  0.66679833575E+02 -0.12066804794E+03 -0.13418518523E+03  0.21251466499E+03  0.90276469247E+02 0.  0.
        -11    1    1    2    0    0 -0.11920372514E+03  0.20735030719E+03  0.42050019370E+03  0.48376036514E+03  0.00000000000E+00 0.  1.
         11    1    1    2    0    0  0.52523891563E+02 -0.86682259250E+02 -0.28631500847E+03  0.30372496988E+03  0.00000000000E+00 0. -1.
        -15    1    3    3    0    0  0.31357906127E+02 -0.11203616580E+01 -0.59218443135E+02  0.67041444072E+02  0.17770000000E+01 0. -1.
         15    1    3    3    0    0  0.35321927448E+02 -0.11954768628E+03 -0.74966742097E+02  0.14547322091E+03  0.17770000000E+01 0.  1.
</event>
<event>
 7    1  0.2288857E-006  0.5148436E+03  0.7546771E-02  0.9367195E-01
        -11   -1    0    0    0    0  0.00000000000E+00  0.00000000000E+00  0.50000000000E+03  0.50000000000E+03  0.00000000000E+00 0.  1.
         11   -1    0    0    0    0 -0.00000000000E+00 -0.00000000000E+00 -0.50000000000E+03  0.50000000000E+03  0.00000000000E+00 0. -1.
         23    2    1    2    0    0 -0.35056180378E+02  0.12099823013E+03  0.35155753579E+03  0.38419683421E+03  0.90249647992E+02 0.  0.
        -11    1    1    2    0    0  0.56141746364E+02 -0.67026323855E+00  0.11796705180E+03  0.13064673838E+03  0.00000000000E+00 0.  1.
         11    1    1    2    0    0 -0.21085565986E+02 -0.12032796689E+03 -0.46952458759E+03  0.48515642742E+03  0.00000000000E+00 0. -1.
        -15    1    3    3    0    0 -0.39927503905E+02  0.10438212557E+03  0.34917503805E+03  0.36662814762E+03  0.17770000000E+01 0.  1.
         15    1    3    3    0    0  0.48713235265E+01  0.16616104561E+02  0.23824977476E+01  0.17568686582E+02  0.17770000000E+01 0. -1.
</event>
<event>
 7    1  0.2288857E-006  0.5255506E+03  0.7546771E-02  0.9344386E-01
        -11   -1    0    0    0    0  0.00000000000E+00  0.00000000000E+00  0.50000000000E+03  0.50000000000E+03  0.00000000000E+00 0.  1.
         11   -1    0    0    0    0 -0.00000000000E+00 -0.00000000000E+00 -0.50000000000E+03  0.50000000000E+03  0.00000000000E+00 0.  1.
         23    2    1    2    0    0 -0.63696821697E+02 -0.33562143110E+02  0.21492253620E+03  0.24547887940E+03  0.94257525536E+02 0.  0.
        -11    1    1    2    0    0  0.68487488767E+01  0.13571136679E+03  0.24489928890E+03  0.28007167322E+03  0.00000000000E+00 0.  1.
         11    1    1    2    0    0  0.56848072821E+02 -0.10214922368E+03 -0.45982182510E+03  0.47444944738E+03  0.00000000000E+00 0.  1.
        -15    1    3    3    0    0 -0.10662690037E+01 -0.27419140494E+02  0.71982506266E+01  0.28423911344E+02  0.17770000000E+01 0.  1.
         15    1    3    3    0    0 -0.62630552694E+02 -0.61430026165E+01  0.20772428557E+03  0.21705496805E+03  0.17770000000E+01 0. -1.
</event>
<event>
 7    1  0.2288857E-006  0.5153747E+03  0.7546771E-02  0.9366050E-01
        -11   -1    0    0    0    0  0.00000000000E+00  0.00000000000E+00  0.50000000000E+03  0.50000000000E+03  0.00000000000E+00 0. -1.
         11   -1    0    0    0    0 -0.00000000000E+00 -0.00000000000E+00 -0.50000000000E+03  0.50000000000E+03  0.00000000000E+00 0.  1.
         23    2    1    2    0    0 -0.24611981694E+02 -0.15717165047E+03 -0.30218632452E+03  0.34687788521E+03  0.60819529499E+02 0.  0.
        -11    1    1    2    0    0  0.13861078061E+03  0.20507664355E+03  0.41664405894E+03  0.48462526768E+03  0.00000000000E+00 0. -1.
         11    1    1    2    0    0 -0.11399879892E+03 -0.47904993077E+02 -0.11445773442E+03  0.16849684711E+03  0.00000000000E+00 0.  1.
        -15    1    3    3    0    0  0.23467387666E+01 -0.13350785253E+03 -0.25153297501E+03  0.28478386387E+03  0.17770000000E+01 0.  1.
         15    1    3    3    0    0 -0.26958720461E+02 -0.23663797936E+02 -0.50653349504E+02  0.62094021344E+02  0.17770000000E+01 0. -1.
</event>
<event>
 7    1  0.2288857E-006  0.4157093E+03  0.7546771E-02  0.9611091E-01
        -11   -1    0    0    0    0  0.00000000000E+00  0.00000000000E+00  0.50000000000E+03  0.50000000000E+03  0.00000000000E+00 0. -1.
         11   -1    0    0    0    0 -0.00000000000E+00 -0.00000000000E+00 -0.50000000000E+03  0.50000000000E+03  0.00000000000E+00 0.  1.
         23    2    1    2    0    0  0.39928149919E+03 -0.16336485281E+03 -0.14757770495E+03  0.46470206000E+03  0.89749845946E+02 0.  0.
        -11    1    1    2    0    0 -0.30272115231E+03  0.49616684075E+02  0.21188517574E+03  0.37282333497E+03  0.00000000000E+00 0.  1.
         11    1    1    2    0    0 -0.96560346872E+02  0.11374816874E+03 -0.64307470795E+02  0.16247460503E+03  0.00000000000E+00 0. -1.
        -15    1    3    3    0    0  0.83499790392E+02 -0.68283961193E+02 -0.60169047776E+02  0.12352484119E+03  0.17770000000E+01 0.  1.
         15    1    3    3    0    0  0.31578170879E+03 -0.95080891619E+02 -0.87408657173E+02  0.34117721881E+03  0.17770000000E+01 0. -1.
</event>
<event>
 7    1  0.2288857E-006  0.5265218E+03  0.7546771E-02  0.9342345E-01
        -11   -1    0    0    0    0  0.00000000000E+00  0.00000000000E+00  0.50000000000E+03  0.50000000000E+03  0.00000000000E+00 0.  1.
         11   -1    0    0    0    0 -0.00000000000E+00 -0.00000000000E+00 -0.50000000000E+03  0.50000000000E+03  0.00000000000E+00 0. -1.
         23    2    1    2    0    0  0.55632670459E+02 -0.19050016803E+03  0.31710361312E+03  0.38493533619E+03  0.90748022288E+02 0.  0.
        -11    1    1    2    0    0 -0.78770810671E+02  0.42207842751E+01  0.11757582368E+03  0.14158647516E+03  0.00000000000E+00 0.  1.
         11    1    1    2    0    0  0.23138140212E+02  0.18627938375E+03 -0.43467943681E+03  0.47347818865E+03  0.00000000000E+00 0. -1.
        -15    1    3    3    0    0 -0.16044756731E+02 -0.71576989636E+01  0.10418685940E+02  0.20503014869E+02  0.17770000000E+01 0. -1.
         15    1    3    3    0    0  0.71677427190E+02 -0.18334246906E+03  0.30668492718E+03  0.36443232132E+03  0.17770000000E+01 0.  1.
</event>
<event>
 7    1  0.2288857E-006  0.5182690E+03  0.7546771E-02  0.9359834E-01
        -11   -1    0    0    0    0  0.00000000000E+00  0.00000000000E+00  0.50000000000E+03  0.50000000000E+03  0.00000000000E+00 0.  1.
         11   -1    0    0    0    0 -0.00000000000E+00 -0.00000000000E+00 -0.50000000000E+03  0.50000000000E+03  0.00000000000E+00 0. -1.
         23    2    1    2    0    0  0.23975753474E+02 -0.11308294752E+02  0.12016564836E+03  0.15333176248E+03  0.91477494809E+02 0.  0.
        -11    1    1    2    0    0  0.10312587440E+03 -0.15647020021E+03  0.31314748418E+03  0.36493727732E+03  0.00000000000E+00 0.  1.
         11    1    1    2    0    0 -0.12710162787E+03  0.16777849496E+03 -0.43331313254E+03  0.48173096020E+03  0.00000000000E+00 0. -1.
        -15    1    3    3    0    0  0.32479473169E+02  0.14533839024E+02  0.62153683906E+01  0.36165414243E+02  0.17770000000E+01 0.  1.
         15    1    3    3    0    0 -0.85037196955E+01 -0.25842133776E+02  0.11395027997E+03  0.11716634824E+03  0.17770000000E+01 0. -1.
</event>
<event>
 7    1  0.2288857E-006  0.4894829E+03  0.7546771E-02  0.9423655E-01
        -11   -1    0    0    0    0  0.00000000000E+00  0.00000000000E+00  0.50000000000E+03  0.50000000000E+03  0.00000000000E+00 0.  1.
         11   -1    0    0    0    0 -0.00000000000E+00 -0.00000000000E+00 -0.50000000000E+03  0.50000000000E+03  0.00000000000E+00 0. -1.
         23    2    1    2    0    0  0.17329002966E+02  0.13229020054E+03  0.45838835712E+03  0.48616242919E+03  0.91831531127E+02 0.  0.
        -11    1    1    2    0    0 -0.26754131486E+02 -0.70384376558E+01  0.96026907362E+01  0.29283695558E+02  0.00000000000E+00 0.  1.
         11    1    1    2    0    0  0.94251285192E+01 -0.12525176289E+03 -0.46799104785E+03  0.48455387525E+03  0.00000000000E+00 0. -1.
        -15    1    3    3    0    0  0.39806784162E+02  0.12772656838E+03  0.42539739502E+03  0.44594254983E+03  0.17770000000E+01 0.  1.
         15    1    3    3    0    0 -0.22477781196E+02  0.45636321672E+01  0.32990962100E+02  0.40219879355E+02  0.17770000000E+01 0. -1.
</event>
<event>
 7    1  0.2288857E-006  0.4321750E+03  0.7546771E-02  0.9565837E-01
        -11   -1    0    0    0    0  0.00000000000E+00  0.00000000000E+00  0.50000000000E+03  0.50000000000E+03  0.00000000000E+00 0.  1.
         11   -1    0    0    0    0 -0.00000000000E+00 -0.00000000000E+00 -0.50000000000E+03  0.50000000000E+03  0.00000000000E+00 0. -1.
         23    2    1    2    0    0  0.29254860017E+02  0.17469050837E+03  0.39144339598E+03  0.43891742636E+03  0.89710391595E+02 0.  0.
        -11    1    1    2    0    0  0.49848425956E+02 -0.12255277041E+03  0.24442825164E+02  0.13454181063E+03  0.00000000000E+00 0.  1.
         11    1    1    2    0    0 -0.79103285973E+02 -0.52137737959E+02 -0.41588622114E+03  0.42654076301E+03  0.00000000000E+00 0. -1.
        -15    1    3    3    0    0 -0.33935658178E+01  0.50896673912E+02  0.39908338219E+02  0.64790592625E+02  0.17770000000E+01 0. -1.
         15    1    3    3    0    0  0.32648425835E+02  0.12379383446E+03  0.35153505776E+03  0.37412683374E+03  0.17770000000E+01 0.  1.
</event>
<event>
 7    1  0.2288857E-006  0.5350812E+03  0.7546771E-02  0.9324563E-01
        -11   -1    0    0    0    0  0.00000000000E+00  0.00000000000E+00  0.50000000000E+03  0.50000000000E+03  0.00000000000E+00 0. -1.
         11   -1    0    0    0    0 -0.00000000000E+00 -0.00000000000E+00 -0.50000000000E+03  0.50000000000E+03  0.00000000000E+00 0.  1.
         23    2    1    2    0    0 -0.96361032228E+02  0.38475847829E+02  0.30444120197E+03  0.33810869420E+03  0.10424588356E+03 0.  0.
        -11    1    1    2    0    0  0.11714107036E+03  0.38659997931E+02  0.15356285887E+03  0.19697252963E+03  0.00000000000E+00 0. -1.
         11    1    1    2    0    0 -0.20780038133E+02 -0.77135845760E+02 -0.45800406084E+03  0.46491877617E+03  0.00000000000E+00 0.  1.
        -15    1    3    3    0    0 -0.97707293721E+02  0.36737080664E+01  0.27693099735E+03  0.29369056233E+03  0.17770000000E+01 0. -1.
         15    1    3    3    0    0  0.13462614930E+01  0.34802139763E+02  0.27510204625E+02  0.44418131879E+02  0.17770000000E+01 0.  1.
</event>
<event>
 7    1  0.2288857E-006  0.4004082E+03  0.7546771E-02  0.9655195E-01
        -11   -1    0    0    0    0  0.00000000000E+00  0.00000000000E+00  0.50000000000E+03  0.50000000000E+03  0.00000000000E+00 0. -1.
         11   -1    0    0    0    0 -0.00000000000E+00 -0.00000000000E+00 -0.50000000000E+03  0.50000000000E+03  0.00000000000E+00 0.  1.
         23    2    1    2    0    0 -0.37271956397E+03  0.76767780788E+02  0.49952515803E+02  0.39445221159E+03  0.91017184432E+02 0.  0.
        -11    1    1    2    0    0  0.40720403019E+03  0.86993711084E+02  0.35011424437E+02  0.41786221152E+03  0.00000000000E+00 0. -1.
         11    1    1    2    0    0 -0.34484466221E+02 -0.16376149187E+03 -0.84963940240E+02  0.18768557689E+03  0.00000000000E+00 0.  1.
        -15    1    3    3    0    0 -0.32557130011E+03  0.96961856547E+02  0.38638292901E+02  0.34189815514E+03  0.17770000000E+01 0.  1.
         15    1    3    3    0    0 -0.47148263859E+02 -0.20194075759E+02  0.11314222902E+02  0.52554056452E+02  0.17770000000E+01 0. -1.
</event>
<event>
 7    1  0.2288857E-006  0.5090702E+03  0.7546771E-02  0.9379740E-01
        -11   -1    0    0    0    0  0.00000000000E+00  0.00000000000E+00  0.50000000000E+03  0.50000000000E+03  0.00000000000E+00 0.  1.
         11   -1    0    0    0    0 -0.00000000000E+00 -0.00000000000E+00 -0.50000000000E+03  0.50000000000E+03  0.00000000000E+00 0. -1.
         23    2    1    2    0    0 -0.84405497435E+02  0.46029772687E+02  0.38666778959E+03  0.40915753944E+03  0.93031632264E+02 0.  0.
        -11    1    1    2    0    0  0.19090668737E+02  0.26205485686E+02  0.94505877581E+02  0.99912671920E+02  0.00000000000E+00 0.  1.
         11    1    1    2    0    0  0.65314828697E+02 -0.72235258373E+02 -0.48117366717E+03  0.49092978864E+03  0.00000000000E+00 0. -1.
        -15    1    3    3    0    0 -0.60658918206E+02  0.34598667933E+02  0.37286879374E+03  0.37935585834E+03  0.17770000000E+01 0.  1.
         15    1    3    3    0    0 -0.23746579229E+02  0.11431104754E+02  0.13798995850E+02  0.29801681101E+02  0.17770000000E+01 0. -1.
</event>
<event>
 7    1  0.2288857E-006  0.3241315E+03  0.7546771E-02  0.9911662E-01
        -11   -1    0    0    0    0  0.00000000000E+00  0.00000000000E+00  0.50000000000E+03  0.50000000000E+03  0.00000000000E+00 0. -1.
         11   -1    0    0    0    0 -0.00000000000E+00 -0.00000000000E+00 -0.50000000000E+03  0.50000000000E+03  0.00000000000E+00 0. -1.
         23    2    1    2    0    0 -0.19549797884E+03 -0.18574357665E+03  0.71087766752E+02  0.29429580501E+03  0.94002203526E+02 0.  0.
        -11    1    1    2    0    0  0.30644825483E+03  0.71704516451E+02  0.21304760896E+03  0.38005440960E+03  0.00000000000E+00 0. -1.
         11    1    1    2    0    0 -0.11095027599E+03  0.11403906020E+03 -0.28413537572E+03  0.32564978539E+03  0.00000000000E+00 0. -1.
        -15    1    3    3    0    0  0.93971689626E+01 -0.16719157911E+02  0.10160681769E+02  0.21776919175E+02  0.17770000000E+01 0.  1.
         15    1    3    3    0    0 -0.20489514780E+03 -0.16902441874E+03  0.60927084983E+02  0.27251888583E+03  0.17770000000E+01 0. -1.
</event>
<event>
 7    1  0.2288857E-006  0.3761353E+03  0.7546771E-02  0.9729666E-01
        -11   -1    0    0    0    0  0.00000000000E+00  0.00000000000E+00  0.50000000000E+03  0.50000000000E+03  0.00000000000E+00 0.  1.
         11   -1    0    0    0    0 -0.00000000000E+00 -0.00000000000E+00 -0.50000000000E+03  0.50000000000E+03  0.00000000000E+00 0. -1.
         23    2    1    2    0    0  0.28940966362E+01  0.64577125724E+02  0.41850590114E+03  0.43370320435E+03  0.93662688483E+02 0.  0.
        -11    1    1    2    0    0 -0.30896113811E+02 -0.19698170579E+03 -0.10615437227E+03  0.22588739012E+03  0.00000000000E+00 0.  1.
         11    1    1    2    0    0  0.28002017175E+02  0.13240458006E+03 -0.31235152886E+03  0.34040940553E+03  0.00000000000E+00 0. -1.
        -15    1    3    3    0    0  0.41218532265E+02  0.48251174672E+02  0.32755799611E+03  0.33365332578E+03  0.17770000000E+01 0.  1.
         15    1    3    3    0    0 -0.38324435628E+02  0.16325951052E+02  0.90947905032E+02  0.10004987857E+03  0.17770000000E+01 0. -1.
</event>
<event>
 7    1  0.2288857E-006  0.3980525E+03  0.7546771E-02  0.9662172E-01
        -11   -1    0    0    0    0  0.00000000000E+00  0.00000000000E+00  0.50000000000E+03  0.50000000000E+03  0.00000000000E+00 0. -1.
         11   -1    0    0    0    0 -0.00000000000E+00 -0.00000000000E+00 -0.50000000000E+03  0.50000000000E+03  0.00000000000E+00 0.  1.
         23    2    1    2    0    0  0.12368838806E+03  0.94903098504E+02  0.50447173245E+02  0.18720627476E+03  0.90530970238E+02 0.  0.
        -11    1    1    2    0    0 -0.20536335027E+01 -0.13042918373E+03  0.36017222167E+03  0.38306659818E+03  0.00000000000E+00 0. -1.
         11    1    1    2    0    0 -0.12163475456E+03  0.35526085225E+02 -0.41061939492E+03  0.42972712706E+03  0.00000000000E+00 0.  1.
        -15    1    3    3    0    0 -0.32680932182E+01  0.35959910575E+02  0.27345761206E+02  0.45329283987E+02  0.17770000000E+01 0.  1.
         15    1    3    3    0    0  0.12695648128E+03  0.58943187929E+02  0.23101412039E+02  0.14187699077E+03  0.17770000000E+01 0. -1.
</event>
<event>
 7    1  0.2288857E-006  0.5358578E+03  0.7546771E-02  0.9322967E-01
        -11   -1    0    0    0    0  0.00000000000E+00  0.00000000000E+00  0.50000000000E+03  0.50000000000E+03  0.00000000000E+00 0. -1.
         11   -1    0    0    0    0 -0.00000000000E+00 -0.00000000000E+00 -0.50000000000E+03  0.50000000000E+03  0.00000000000E+00 0.  1.
         23    2    1    2    0    0  0.23700204845E+02 -0.79352758963E+02  0.20347555076E+03  0.23566103880E+03  0.85295166252E+02 0.  0.
        -11    1    1    2    0    0  0.18099073970E+02  0.16362192290E+03  0.25103463324E+03  0.30019676417E+03  0.00000000000E+00 0. -1.
         11    1    1    2    0    0 -0.41799278815E+02 -0.84269163933E+02 -0.45451018400E+03  0.46414219703E+03  0.00000000000E+00 0.  1.
        -15    1    3    3    0    0  0.14924790572E+02 -0.22817644772E+02  0.16368476136E+03  0.16594954992E+03  0.17770000000E+01 0.  1.
         15    1    3    3    0    0  0.87754142737E+01 -0.56535114192E+02  0.39790789401E+02  0.69711488885E+02  0.17770000000E+01 0. -1.
</event>
<event>
 7    1  0.2288857E-006  0.5055439E+03  0.7546771E-02  0.9387490E-01
        -11   -1    0    0    0    0  0.00000000000E+00  0.00000000000E+00  0.50000000000E+03  0.50000000000E+03  0.00000000000E+00 0.  1.
         11   -1    0    0    0    0 -0.00000000000E+00 -0.00000000000E+00 -0.50000000000E+03  0.50000000000E+03  0.00000000000E+00 0. -1.
         23    2    1    2    0    0 -0.10312959507E+03 -0.86974458069E+00 -0.37691800862E+03  0.40092940638E+03  0.89670139095E+02 0.  0.
        -11    1    1    2    0    0  0.14551370085E+03  0.19885840966E+01  0.47255546462E+03  0.49445612418E+03  0.00000000000E+00 0.  1.
         11    1    1    2    0    0 -0.42384105780E+02 -0.11188395159E+01 -0.95637455997E+02  0.10461446943E+03  0.00000000000E+00 0. -1.
        -15    1    3    3    0    0 -0.96481948479E+02  0.26731353119E+02 -0.33930152735E+03  0.35376830810E+03  0.17770000000E+01 0. -1.
         15    1    3    3    0    0 -0.66476465880E+01 -0.27601097700E+02 -0.37616481270E+02  0.47161098286E+02  0.17770000000E+01 0.  1.
</event>
<event>
 7    1  0.2288857E-006  0.4834790E+03  0.7546771E-02  0.9437555E-01
        -11   -1    0    0    0    0  0.00000000000E+00  0.00000000000E+00  0.50000000000E+03  0.50000000000E+03  0.00000000000E+00 0. -1.
         11   -1    0    0    0    0 -0.00000000000E+00 -0.00000000000E+00 -0.50000000000E+03  0.50000000000E+03  0.00000000000E+00 0.  1.
         23    2    1    2    0    0  0.13212103596E+03 -0.34198052703E+03 -0.28056335612E+03  0.46991580175E+03  0.87740611621E+02 0.  0.
        -11    1    1    2    0    0 -0.11203374122E+03  0.36555312737E+03  0.30623474902E+03  0.48985749928E+03  0.00000000000E+00 0. -1.
         11    1    1    2    0    0 -0.20087294741E+02 -0.23572600332E+02 -0.25671392898E+02  0.40226698966E+02  0.00000000000E+00 0.  1.
        -15    1    3    3    0    0  0.18882314797E+02 -0.58057622045E+02 -0.10388667588E+02  0.61954107474E+02  0.17770000000E+01 0.  1.
         15    1    3    3    0    0  0.11323872116E+03 -0.28392290499E+03 -0.27017468853E+03  0.40796169428E+03  0.17770000000E+01 0. -1.
</event>
<event>
 7    1  0.2288857E-006  0.5126395E+03  0.7546771E-02  0.9371964E-01
        -11   -1    0    0    0    0  0.00000000000E+00  0.00000000000E+00  0.50000000000E+03  0.50000000000E+03  0.00000000000E+00 0.  1.
         11   -1    0    0    0    0 -0.00000000000E+00 -0.00000000000E+00 -0.50000000000E+03  0.50000000000E+03  0.00000000000E+00 0. -1.
         23    2    1    2    0    0 -0.11287116629E+02  0.12042095987E+03 -0.33686134795E+03  0.36942376095E+03  0.91486287654E+02 0.  0.
        -11    1    1    2    0    0  0.17121417591E+01 -0.96413631593E+02  0.47772555557E+03  0.48736046847E+03  0.00000000000E+00 0.  1.
         11    1    1    2    0    0  0.95749748697E+01 -0.24007328282E+02 -0.14086420762E+03  0.14321577058E+03  0.00000000000E+00 0. -1.
        -15    1    3    3    0    0 -0.37047293849E+02  0.28398218992E+02 -0.17799801150E+03  0.18402557065E+03  0.17770000000E+01 0.  1.
         15    1    3    3    0    0  0.25760177220E+02  0.92022740883E+02 -0.15886333645E+03  0.18539819030E+03  0.17770000000E+01 0. -1.
</event>
<event>
 7    1  0.2288857E-006  0.5171272E+03  0.7546771E-02  0.9362281E-01
        -11   -1    0    0    0    0  0.00000000000E+00  0.00000000000E+00  0.50000000000E+03  0.50000000000E+03  0.00000000000E+00 0.  1.
         11   -1    0    0    0    0 -0.00000000000E+00 -0.00000000000E+00 -0.50000000000E+03  0.50000000000E+03  0.00000000000E+00 0. -1.
         23    2    1    2    0    0 -0.33942274083E+02  0.12835897555E+03  0.36828746528E+03  0.40185953676E+03  0.90704606449E+02 0.  0.
        -11    1    1    2    0    0 -0.57676480704E+02 -0.29400709044E+02  0.95371204420E+02  0.11526770906E+03  0.00000000000E+00 0.  1.
         11    1    1    2    0    0  0.91618754787E+02 -0.98958266508E+02 -0.46365866970E+03  0.48287275418E+03  0.00000000000E+00 0. -1.
        -15    1    3    3    0    0 -0.21888319944E+02  0.70021696642E+02  0.30974578256E+03  0.31832019115E+03  0.17770000000E+01 0.  1.
         15    1    3    3    0    0 -0.12053954139E+02  0.58337278910E+02  0.58541682719E+02  0.83539345614E+02  0.17770000000E+01 0. -1.
</event>
<event>
 7    1  0.2288857E-006  0.4585975E+03  0.7546771E-02  0.9497536E-01
        -11   -1    0    0    0    0  0.00000000000E+00  0.00000000000E+00  0.50000000000E+03  0.50000000000E+03  0.00000000000E+00 0. -1.
         11   -1    0    0    0    0 -0.00000000000E+00 -0.00000000000E+00 -0.50000000000E+03  0.50000000000E+03  0.00000000000E+00 0. -1.
         23    2    1    2    0    0 -0.18015564403E+03 -0.83771608018E+02  0.40009128171E+03  0.45606576045E+03  0.91919561438E+02 0.  0.
        -11    1    1    2    0    0  0.75934309304E+02 -0.34281879089E+02  0.27923496050E+02  0.87869153831E+02  0.00000000000E+00 0. -1.
         11    1    1    2    0    0  0.10422133472E+03  0.11805348711E+03 -0.42801477776E+03  0.45606508572E+03  0.00000000000E+00 0. -1.
        -15    1    3    3    0    0 -0.14440476255E+03 -0.75848442380E+02  0.38160435973E+03  0.41500694784E+03  0.17770000000E+01 0. -1.
         15    1    3    3    0    0 -0.35750881479E+02 -0.79231656377E+01  0.18486921974E+02  0.41058812614E+02  0.17770000000E+01 0.  1.
</event>
<event>
 7    1  0.2288857E-006  0.5254322E+03  0.7546771E-02  0.9344635E-01
        -11   -1    0    0    0    0  0.00000000000E+00  0.00000000000E+00  0.50000000000E+03  0.50000000000E+03  0.00000000000E+00 0.  1.
         11   -1    0    0    0    0 -0.00000000000E+00 -0.00000000000E+00 -0.50000000000E+03  0.50000000000E+03  0.00000000000E+00 0.  1.
         23    2    1    2    0    0 -0.17985571246E+02 -0.10444045802E+03  0.30145332711E+03  0.33214526777E+03  0.90637080869E+02 0.  0.
        -11    1    1    2    0    0  0.10300481280E+03  0.33693755430E+02  0.16004555853E+03  0.19328694064E+03  0.00000000000E+00 0.  1.
         11    1    1    2    0    0 -0.85019241554E+02  0.70746702592E+02 -0.46149888565E+03  0.47456779159E+03  0.00000000000E+00 0.  1.
        -15    1    3    3    0    0  0.41032377155E+00 -0.99550703904E+02  0.29595217679E+03  0.31225207716E+03  0.17770000000E+01 0.  1.
         15    1    3    3    0    0 -0.18395895018E+02 -0.48897541175E+01  0.55011503244E+01  0.19893190612E+02  0.17770000000E+01 0. -1.
</event>
<event>
 7    1  0.2288857E-006  0.5363941E+03  0.7546771E-02  0.9321866E-01
        -11   -1    0    0    0    0  0.00000000000E+00  0.00000000000E+00  0.50000000000E+03  0.50000000000E+03  0.00000000000E+00 0. -1.
         11   -1    0    0    0    0 -0.00000000000E+00 -0.00000000000E+00 -0.50000000000E+03  0.50000000000E+03  0.00000000000E+00 0.  1.
         23    2    1    2    0    0  0.39738997958E+02  0.11897215364E+03  0.15973075774E+03  0.23315314805E+03  0.11451163337E+03 0.  0.
        -11    1    1    2    0    0 -0.67119688179E+02 -0.29195842133E+02  0.29427471467E+03  0.30324092308E+03  0.00000000000E+00 0. -1.
         11    1    1    2    0    0  0.27380690221E+02 -0.89776311505E+02 -0.45400547241E+03  0.46360592887E+03  0.00000000000E+00 0.  1.
        -15    1    3    3    0    0  0.40490565967E+02  0.62842090443E+02  0.16041259261E+03  0.17698579564E+03  0.17770000000E+01 0. -1.
         15    1    3    3    0    0 -0.75156800818E+00  0.56130063195E+02 -0.68183486322E+00  0.56167352408E+02  0.17770000000E+01 0.  1.
</event>
<event>
 7    1  0.2288857E-006  0.5214948E+03  0.7546771E-02  0.9352957E-01
        -11   -1    0    0    0    0  0.00000000000E+00  0.00000000000E+00  0.50000000000E+03  0.50000000000E+03  0.00000000000E+00 0. -1.
         11   -1    0    0    0    0 -0.00000000000E+00 -0.00000000000E+00 -0.50000000000E+03  0.50000000000E+03  0.00000000000E+00 0.  1.
         23    2    1    2    0    0 -0.25622654202E+02  0.46047492381E+02  0.65826762557E+02  0.12236090158E+03  0.88668684462E+02 0.  0.
        -11    1    1    2    0    0 -0.23089225894E+03  0.24624997319E+03  0.21297329245E+03  0.39913394723E+03  0.00000000000E+00 0. -1.
         11    1    1    2    0    0  0.25651491314E+03 -0.29229746557E+03 -0.27880005500E+03  0.47850515119E+03  0.00000000000E+00 0.  1.
        -15    1    3    3    0    0  0.28354704763E+02  0.32695366880E+02  0.46296932526E+02  0.63399842176E+02  0.17770000000E+01 0.  1.
         15    1    3    3    0    0 -0.53977358965E+02  0.13352125501E+02  0.19529830031E+02  0.58961059406E+02  0.17770000000E+01 0. -1.
</event>
<event>
 7    1  0.2288857E-006  0.5263976E+03  0.7546771E-02  0.9342606E-01
        -11   -1    0    0    0    0  0.00000000000E+00  0.00000000000E+00  0.50000000000E+03  0.50000000000E+03  0.00000000000E+00 0.  1.
         11   -1    0    0    0    0 -0.00000000000E+00 -0.00000000000E+00 -0.50000000000E+03  0.50000000000E+03  0.00000000000E+00 0. -1.
         23    2    1    2    0    0 -0.13542601348E+02  0.13881821657E+02  0.74743671122E+02  0.12126422045E+03  0.93500201949E+02 0.  0.
        -11    1    1    2    0    0  0.13418650814E+03  0.32406771511E+02  0.38088955061E+03  0.40513339479E+03  0.00000000000E+00 0.  1.
         11    1    1    2    0    0 -0.12064390680E+03 -0.46288593168E+02 -0.45563322173E+03  0.47360238476E+03  0.00000000000E+00 0. -1.
        -15    1    3    3    0    0 -0.32455999879E+01 -0.19751506312E+02  0.82742886508E+02  0.85148099906E+02  0.17770000000E+01 0.  1.
         15    1    3    3    0    0 -0.10297001360E+02  0.33633327969E+02 -0.79992153863E+01  0.36116120543E+02  0.17770000000E+01 0. -1.
</event>
<event>
 7    1  0.2288857E-006  0.5128807E+03  0.7546771E-02  0.9371441E-01
        -11   -1    0    0    0    0  0.00000000000E+00  0.00000000000E+00  0.50000000000E+03  0.50000000000E+03  0.00000000000E+00 0. -1.
         11   -1    0    0    0    0 -0.00000000000E+00 -0.00000000000E+00 -0.50000000000E+03  0.50000000000E+03  0.00000000000E+00 0. -1.
         23    2    1    2    0    0  0.30821137272E+02  0.48597576357E+02 -0.18724532440E+03  0.21722091233E+03  0.93874630827E+02 0.  0.
        -11    1    1    2    0    0 -0.11505371405E+03 -0.50393771630E+02  0.47064671864E+03  0.48711931096E+03  0.00000000000E+00 0. -1.
         11    1    1    2    0    0  0.84232576780E+02  0.17961952729E+01 -0.28340139424E+03  0.29565977671E+03  0.00000000000E+00 0. -1.
        -15    1    3    3    0    0  0.20745404895E+02  0.15778384351E+02  0.72342957503E+00  0.26134466062E+02  0.17770000000E+01 0.  1.
         15    1    3    3    0    0  0.10075732376E+02  0.32819192005E+02 -0.18796875398E+03  0.19108644627E+03  0.17770000000E+01 0. -1.
</event>
<event>
 7    1  0.2288857E-006  0.5259275E+03  0.7546771E-02  0.9343594E-01
        -11   -1    0    0    0    0  0.00000000000E+00  0.00000000000E+00  0.50000000000E+03  0.50000000000E+03  0.00000000000E+00 0.  1.
         11   -1    0    0    0    0 -0.00000000000E+00 -0.00000000000E+00 -0.50000000000E+03  0.50000000000E+03  0.00000000000E+00 0.  1.
         23    2    1    2    0    0 -0.25630929990E+02 -0.22039490678E+02  0.14889314746E+03  0.19731421647E+03  0.12498418676E+03 0.  0.
        -11    1    1    2    0    0 -0.56083280555E+02  0.74314429009E+02  0.31514872398E+03  0.32861327870E+03  0.00000000000E+00 0.  1.
         11    1    1    2    0    0  0.81714210545E+02 -0.52274938330E+02 -0.46404187144E+03  0.47407250482E+03  0.00000000000E+00 0.  1.
        -15    1    3    3    0    0 -0.49816163960E+02 -0.55314025842E+02  0.48651845322E+02  0.88946340165E+02  0.17770000000E+01 0.  1.
         15    1    3    3    0    0  0.24185233970E+02  0.33274535163E+02  0.10024130214E+03  0.10836787631E+03  0.17770000000E+01 0.  1.
</event>
<event>
 7    1  0.2288857E-006  0.5372542E+03  0.7546771E-02  0.9320104E-01
        -11   -1    0    0    0    0  0.00000000000E+00  0.00000000000E+00  0.50000000000E+03  0.50000000000E+03  0.00000000000E+00 0. -1.
         11   -1    0    0    0    0 -0.00000000000E+00 -0.00000000000E+00 -0.50000000000E+03  0.50000000000E+03  0.00000000000E+00 0.  1.
         23    2    1    2    0    0 -0.11659557535E+02 -0.66678418195E+02 -0.45881462178E+02  0.12306363127E+03  0.91965167508E+02 0.  0.
        -11    1    1    2    0    0 -0.66614107107E+02  0.69652797935E+02  0.45259779648E+03  0.46274584482E+03  0.00000000000E+00 0. -1.
         11    1    1    2    0    0  0.78273664641E+02 -0.29743797406E+01 -0.40671633430E+03  0.41419052391E+03  0.00000000000E+00 0.  1.
        -15    1    3    3    0    0  0.50767341228E+01 -0.28019178558E+02  0.26731301697E+02  0.39096902893E+02  0.17770000000E+01 0.  1.
         15    1    3    3    0    0 -0.16736291658E+02 -0.38659239637E+02 -0.72612763875E+02  0.83966728377E+02  0.17770000000E+01 0. -1.
</event>
<event>
 7    1  0.2288857E-006  0.3874284E+03  0.7546771E-02  0.9694293E-01
        -11   -1    0    0    0    0  0.00000000000E+00  0.00000000000E+00  0.50000000000E+03  0.50000000000E+03  0.00000000000E+00 0.  1.
         11   -1    0    0    0    0 -0.00000000000E+00 -0.00000000000E+00 -0.50000000000E+03  0.50000000000E+03  0.00000000000E+00 0.  1.
         23    2    1    2    0    0  0.10536229298E+03 -0.61702493779E+02  0.13698782829E+03  0.20371044511E+03  0.88452641711E+02 0.  0.
        -11    1    1    2    0    0 -0.24196253548E+02  0.19128300042E+03  0.28690000387E+03  0.34566784224E+03  0.00000000000E+00 0.  1.
         11    1    1    2    0    0 -0.81166039428E+02 -0.12958050664E+03 -0.42388783217E+03  0.45062171265E+03  0.00000000000E+00 0.  1.
        -15    1    3    3    0    0  0.95622238553E+01 -0.44991851624E+02  0.76169600304E+02  0.88998138054E+02  0.17770000000E+01 0.  1.
         15    1    3    3    0    0  0.95800069121E+02 -0.16710642155E+02  0.60818227988E+02  0.11471230705E+03  0.17770000000E+01 0. -1.
</event>
<event>
 7    1  0.2288857E-006  0.5273057E+03  0.7546771E-02  0.9340702E-01
        -11   -1    0    0    0    0  0.00000000000E+00  0.00000000000E+00  0.50000000000E+03  0.50000000000E+03  0.00000000000E+00 0.  1.
         11   -1    0    0    0    0 -0.00000000000E+00 -0.00000000000E+00 -0.50000000000E+03  0.50000000000E+03  0.00000000000E+00 0. -1.
         23    2    1    2    0    0 -0.11206349490E+02  0.11464072756E+02 -0.47111321432E+02  0.10280040996E+03  0.89952434363E+02 0.  0.
        -11    1    1    2    0    0  0.86470468581E+02  0.57905763009E+00  0.46471759487E+03  0.47269432007E+03  0.00000000000E+00 0.  1.
         11    1    1    2    0    0 -0.75264119091E+02 -0.12043130386E+02 -0.41760627344E+03  0.42450526997E+03  0.00000000000E+00 0. -1.
        -15    1    3    3    0    0 -0.23882150231E+02 -0.18650931332E+02 -0.60308910465E+02  0.67516936762E+02  0.17770000000E+01 0.  1.
         15    1    3    3    0    0  0.12675800741E+02  0.30115004088E+02  0.13197589032E+02  0.35283473198E+02  0.17770000000E+01 0. -1.
</event>
<event>
 7    1  0.2288857E-006  0.5201839E+03  0.7546771E-02  0.9355746E-01
        -11   -1    0    0    0    0  0.00000000000E+00  0.00000000000E+00  0.50000000000E+03  0.50000000000E+03  0.00000000000E+00 0. -1.
         11   -1    0    0    0    0 -0.00000000000E+00 -0.00000000000E+00 -0.50000000000E+03  0.50000000000E+03  0.00000000000E+00 0.  1.
         23    2    1    2    0    0 -0.15272567742E+03  0.74041896525E+02  0.55252069487E+02  0.19477746120E+03  0.77962383385E+02 0.  0.
        -11    1    1    2    0    0 -0.18837468821E+03  0.40194726298E+02  0.26227597571E+03  0.32540640223E+03  0.00000000000E+00 0. -1.
         11    1    1    2    0    0  0.34110036563E+03 -0.11423662282E+03 -0.31752804519E+03  0.47981613657E+03  0.00000000000E+00 0.  1.
        -15    1    3    3    0    0 -0.77951891037E+02 -0.56131732454E+00  0.59562298705E+01  0.78201322218E+02  0.17770000000E+01 0.  1.
         15    1    3    3    0    0 -0.74773786387E+02  0.74603213849E+02  0.49295839616E+02  0.11657613898E+03  0.17770000000E+01 0. -1.
</event>
<event>
 7    1  0.2288857E-006  0.4136439E+03  0.7546771E-02  0.9616925E-01
        -11   -1    0    0    0    0  0.00000000000E+00  0.00000000000E+00  0.50000000000E+03  0.50000000000E+03  0.00000000000E+00 0.  1.
         11   -1    0    0    0    0 -0.00000000000E+00 -0.00000000000E+00 -0.50000000000E+03  0.50000000000E+03  0.00000000000E+00 0.  1.
         23    2    1    2    0    0  0.10675485617E+03  0.19547037948E+02 -0.69791218099E+02  0.16270986535E+03  0.99121138772E+02 0.  0.
        -11    1    1    2    0    0 -0.75307369545E+02 -0.98145852179E+02  0.44024021621E+03  0.45729121594E+03  0.00000000000E+00 0.  1.
         11    1    1    2    0    0 -0.31447486624E+02  0.78598814231E+02 -0.37044899811E+03  0.37999891870E+03  0.00000000000E+00 0.  1.
        -15    1    3    3    0    0  0.34430724428E+02  0.93275521742E+00 -0.80185301546E+02  0.87287943783E+02  0.17770000000E+01 0. -1.
         15    1    3    3    0    0  0.72324131741E+02  0.18614282731E+02  0.10394083447E+02  0.75421921570E+02  0.17770000000E+01 0.  1.
</event>
<event>
 7    1  0.2288857E-006  0.5246628E+03  0.7546771E-02  0.9346255E-01
        -11   -1    0    0    0    0  0.00000000000E+00  0.00000000000E+00  0.50000000000E+03  0.50000000000E+03  0.00000000000E+00 0. -1.
         11   -1    0    0    0    0 -0.00000000000E+00 -0.00000000000E+00 -0.50000000000E+03  0.50000000000E+03  0.00000000000E+00 0.  1.
         23    2    1    2    0    0  0.14341285523E+03  0.30731517092E+03  0.32033387611E+03  0.47533723209E+03  0.91224068642E+02 0.  0.
        -11    1    1    2    0    0 -0.73934036378E+02 -0.22886970826E+03 -0.65726798502E+02  0.24933430798E+03  0.00000000000E+00 0. -1.
         11    1    1    2    0    0 -0.69478818856E+02 -0.78445462658E+02 -0.25460707761E+03  0.27532845994E+03  0.00000000000E+00 0.  1.
        -15    1    3    3    0    0  0.62076594791E+02  0.76524603715E+02  0.14065812197E+03  0.17174802357E+03  0.17770000000E+01 0.  1.
         15    1    3    3    0    0  0.81336260442E+02  0.23079056720E+03  0.17967575414E+03  0.30358920852E+03  0.17770000000E+01 0. -1.
</event>
<event>
 6    1  0.2288857E-006  0.5236260E+03  0.7546771E-02  0.9348443E-01
        -11   -1    0    0    0    0  0.00000000000E+00  0.00000000000E+00  0.50000000000E+03  0.50000000000E+03  0.00000000000E+00 0.  1.
         11   -1    0    0    0    0 -0.00000000000E+00 -0.00000000000E+00 -0.50000000000E+03  0.50000000000E+03  0.00000000000E+00 0. -1.
        -11    1    1    2    0    0  0.10109011131E+03  0.20328735974E+01  0.11786436605E+03  0.15529118444E+03  0.00000000000E+00 0.  1.
         11    1    1    2    0    0 -0.13645107160E+03  0.33296844512E+02 -0.45519735554E+03  0.47637402037E+03  0.00000000000E+00 0. -1.
        -15    1    1    2    0    0  0.75336863190E+02  0.71645920194E+01  0.26383051994E+03  0.27447527269E+03  0.17770000000E+01 0.  1.
         15    1    1    2    0    0 -0.39975902901E+02 -0.42494310129E+02  0.73502469545E+02  0.93859522502E+02  0.17770000000E+01 0. -1.
</event>
<event>
 7    1  0.2288857E-006  0.5173857E+03  0.7546771E-02  0.9361727E-01
        -11   -1    0    0    0    0  0.00000000000E+00  0.00000000000E+00  0.50000000000E+03  0.50000000000E+03  0.00000000000E+00 0. -1.
         11   -1    0    0    0    0 -0.00000000000E+00 -0.00000000000E+00 -0.50000000000E+03  0.50000000000E+03  0.00000000000E+00 0.  1.
         23    2    1    2    0    0 -0.27565679079E+02  0.46471437754E+01  0.21393786146E+03  0.23474764809E+03  0.92496416740E+02 0.  0.
        -11    1    1    2    0    0  0.95002795286E+02 -0.46440716072E+02  0.26211060526E+03  0.28263800278E+03  0.00000000000E+00 0. -1.
         11    1    1    2    0    0 -0.67437116207E+02  0.41793572297E+02 -0.47604846672E+03  0.48261434914E+03  0.00000000000E+00 0.  1.
        -15    1    3    3    0    0 -0.40838650578E+02 -0.87668872491E+00  0.21624740427E+03  0.22007876214E+03  0.17770000000E+01 0. -1.
         15    1    3    3    0    0  0.13272971499E+02  0.55238325003E+01 -0.23095428116E+01  0.14668885946E+02  0.17770000000E+01 0.  1.
</event>
<event>
 7    1  0.2288857E-006  0.4616289E+03  0.7546771E-02  0.9490014E-01
        -11   -1    0    0    0    0  0.00000000000E+00  0.00000000000E+00  0.50000000000E+03  0.50000000000E+03  0.00000000000E+00 0.  1.
         11   -1    0    0    0    0 -0.00000000000E+00 -0.00000000000E+00 -0.50000000000E+03  0.50000000000E+03  0.00000000000E+00 0. -1.
         23    2    1    2    0    0 -0.10039785429E+03 -0.24560906822E+02 -0.40022137811E+03  0.42356303157E+03  0.92441997660E+02 0.  0.
        -11    1    1    2    0    0  0.12349280653E+03  0.11552090869E+02  0.47822762945E+03  0.49405018939E+03  0.00000000000E+00 0.  1.
         11    1    1    2    0    0 -0.23094952242E+02  0.13008815953E+02 -0.78006251345E+02  0.82386779039E+02  0.00000000000E+00 0. -1.
        -15    1    3    3    0    0 -0.98430058382E+01  0.93352648000E+01 -0.20725871531E+01  0.13837820613E+02  0.17770000000E+01 0.  1.
         15    1    3    3    0    0 -0.90554848447E+02 -0.33896171622E+02 -0.39814879095E+03  0.40972521096E+03  0.17770000000E+01 0. -1.
</event>
<event>
 7    1  0.2288857E-006  0.3788443E+03  0.7546771E-02  0.9721061E-01
        -11   -1    0    0    0    0  0.00000000000E+00  0.00000000000E+00  0.50000000000E+03  0.50000000000E+03  0.00000000000E+00 0.  1.
         11   -1    0    0    0    0 -0.00000000000E+00 -0.00000000000E+00 -0.50000000000E+03  0.50000000000E+03  0.00000000000E+00 0. -1.
         23    2    1    2    0    0  0.18662144931E+02 -0.24932588978E+03 -0.18207746518E+03  0.32301508011E+03  0.93138948262E+02 0.  0.
        -11    1    1    2    0    0 -0.77504782621E+02  0.21602127878E+03  0.39321167633E+03  0.45528848725E+03  0.00000000000E+00 0.  1.
         11    1    1    2    0    0  0.58842637690E+02  0.33304610999E+02 -0.21113421116E+03  0.22169643264E+03  0.00000000000E+00 0. -1.
        -15    1    3    3    0    0  0.60240466188E+01 -0.25177604091E+03 -0.18064540029E+03  0.30994093355E+03  0.17770000000E+01 0. -1.
         15    1    3    3    0    0  0.12638098312E+02  0.24501511242E+01 -0.14320648829E+01  0.13074146561E+02  0.17770000000E+01 0.  1.
</event>
<event>
 7    1  0.2288857E-006  0.5295936E+03  0.7546771E-02  0.9335923E-01
        -11   -1    0    0    0    0  0.00000000000E+00  0.00000000000E+00  0.50000000000E+03  0.50000000000E+03  0.00000000000E+00 0. -1.
         11   -1    0    0    0    0 -0.00000000000E+00 -0.00000000000E+00 -0.50000000000E+03  0.50000000000E+03  0.00000000000E+00 0.  1.
         23    2    1    2    0    0 -0.54356585790E+02  0.23551069921E+02 -0.61434123004E+02  0.12429487731E+03  0.90364670882E+02 0.  0.
        -11    1    1    2    0    0  0.12889557388E+03 -0.36288396804E+03  0.27015436688E+03  0.47040644678E+03  0.00000000000E+00 0. -1.
         11    1    1    2    0    0 -0.74538988087E+02  0.33933289812E+03 -0.20872024387E+03  0.40529867591E+03  0.00000000000E+00 0.  1.
        -15    1    3    3    0    0 -0.35050462025E+02  0.18636825763E+02 -0.84733425781E+02  0.93588339745E+02  0.17770000000E+01 0.  1.
         15    1    3    3    0    0 -0.19306123765E+02  0.49142441588E+01  0.23299302777E+02  0.30706537567E+02  0.17770000000E+01 0. -1.
</event>
<event>
 7    1  0.2288857E-006  0.4835898E+03  0.7546771E-02  0.9437296E-01
        -11   -1    0    0    0    0  0.00000000000E+00  0.00000000000E+00  0.50000000000E+03  0.50000000000E+03  0.00000000000E+00 0.  1.
         11   -1    0    0    0    0 -0.00000000000E+00 -0.00000000000E+00 -0.50000000000E+03  0.50000000000E+03  0.00000000000E+00 0. -1.
         23    2    1    2    0    0  0.80175196482E+02  0.81856074305E+02 -0.45031201721E+03  0.47327539218E+03  0.89889960321E+02 0.  0.
        -11    1    1    2    0    0 -0.59381853940E+02 -0.61999173424E+02  0.47868981659E+03  0.48632709423E+03  0.00000000000E+00 0.  1.
         11    1    1    2    0    0 -0.20793342543E+02 -0.19856900881E+02 -0.28377799374E+02  0.40397513587E+02  0.00000000000E+00 0. -1.
        -15    1    3    3    0    0  0.94682909802E+02  0.46468919499E+02 -0.36115997736E+03  0.37624978520E+03  0.17770000000E+01 0. -1.
         15    1    3    3    0    0 -0.14507713320E+02  0.35387154806E+02 -0.89152039848E+02  0.97025606976E+02  0.17770000000E+01 0.  1.
</event>
<event>
 7    1  0.2288857E-006  0.5197542E+03  0.7546771E-02  0.9356662E-01
        -11   -1    0    0    0    0  0.00000000000E+00  0.00000000000E+00  0.50000000000E+03  0.50000000000E+03  0.00000000000E+00 0.  1.
         11   -1    0    0    0    0 -0.00000000000E+00 -0.00000000000E+00 -0.50000000000E+03  0.50000000000E+03  0.00000000000E+00 0. -1.
         23    2    1    2    0    0  0.21179129236E+02 -0.19364138523E+02  0.36005445298E+03  0.37237547224E+03  0.90558035755E+02 0.  0.
        -11    1    1    2    0    0  0.10529207792E+03 -0.15815170958E+02  0.10190167720E+03  0.14737874040E+03  0.00000000000E+00 0.  1.
         11    1    1    2    0    0 -0.12647120715E+03  0.35179309480E+02 -0.46195613019E+03  0.48024578736E+03  0.00000000000E+00 0. -1.
        -15    1    3    3    0    0  0.27402990038E+02 -0.53477053567E+02  0.21768945850E+03  0.22583750174E+03  0.17770000000E+01 0.  1.
         15    1    3    3    0    0 -0.62238608023E+01  0.34112915044E+02  0.14236499449E+03  0.14653797051E+03  0.17770000000E+01 0. -1.
</event>
<event>
 7    1  0.2288857E-006  0.5303840E+03  0.7546771E-02  0.9334277E-01
        -11   -1    0    0    0    0  0.00000000000E+00  0.00000000000E+00  0.50000000000E+03  0.50000000000E+03  0.00000000000E+00 0.  1.
         11   -1    0    0    0    0 -0.00000000000E+00 -0.00000000000E+00 -0.50000000000E+03  0.50000000000E+03  0.00000000000E+00 0. -1.
         23    2    1    2    0    0  0.74167897142E+02  0.11560131894E+03  0.27538043236E+03  0.32099246792E+03  0.91308488244E+02 0.  0.
        -11    1    1    2    0    0  0.16593586564E+03 -0.40410565509E+02  0.12114911134E+03  0.20939157693E+03  0.00000000000E+00 0.  1.
         11    1    1    2    0    0 -0.24010376278E+03 -0.75190753433E+02 -0.39652954370E+03  0.46961595515E+03  0.00000000000E+00 0. -1.
        -15    1    3    3    0    0 -0.10623563822E+01 -0.13318999226E+02  0.11072638541E+02  0.17443778109E+02  0.17770000000E+01 0. -1.
         15    1    3    3    0    0  0.75230253524E+02  0.12892031817E+03  0.26430779382E+03  0.30354868981E+03  0.17770000000E+01 0.  1.
</event>
<event>
 7    1  0.2288857E-006  0.5118808E+03  0.7546771E-02  0.9373611E-01
        -11   -1    0    0    0    0  0.00000000000E+00  0.00000000000E+00  0.50000000000E+03  0.50000000000E+03  0.00000000000E+00 0. -1.
         11   -1    0    0    0    0 -0.00000000000E+00 -0.00000000000E+00 -0.50000000000E+03  0.50000000000E+03  0.00000000000E+00 0.  1.
         23    2    1    2    0    0  0.11629723291E+02 -0.35834847466E+02  0.18915448925E+03  0.21304522642E+03  0.90495640445E+02 0.  0.
        -11    1    1    2    0    0  0.90400033681E+02 -0.48270167525E+02  0.28071427862E+03  0.29883554237E+03  0.00000000000E+00 0. -1.
         11    1    1    2    0    0 -0.10202975697E+03  0.84105014990E+02 -0.46986876787E+03  0.48811923121E+03  0.00000000000E+00 0.  1.
        -15    1    3    3    0    0  0.42408618123E+02  0.75632962600E+01  0.65471360492E+02  0.78392289895E+02  0.17770000000E+01 0. -1.
         15    1    3    3    0    0 -0.30778894832E+02 -0.43398143726E+02  0.12368312876E+03  0.13465293652E+03  0.17770000000E+01 0.  1.
</event>
<event>
 7    1  0.2288857E-006  0.5361104E+03  0.7546771E-02  0.9322448E-01
        -11   -1    0    0    0    0  0.00000000000E+00  0.00000000000E+00  0.50000000000E+03  0.50000000000E+03  0.00000000000E+00 0. -1.
         11   -1    0    0    0    0 -0.00000000000E+00 -0.00000000000E+00 -0.50000000000E+03  0.50000000000E+03  0.00000000000E+00 0. -1.
         23    2    1    2    0    0  0.63665272526E+02  0.13371977334E+03  0.13896717803E+03  0.21814648634E+03  0.79635219740E+02 0.  0.
        -11    1    1    2    0    0  0.19256575815E+02 -0.60558634523E+02  0.31154916869E+03  0.31796391060E+03  0.00000000000E+00 0. -1.
         11    1    1    2    0    0 -0.82921848341E+02 -0.73161138816E+02 -0.45051634673E+03  0.46388960307E+03  0.00000000000E+00 0. -1.
        -15    1    3    3    0    0  0.41669954723E+02  0.92822868017E+02  0.40990814885E+02  0.10970813364E+03  0.17770000000E+01 0.  1.
         15    1    3    3    0    0  0.21995317803E+02  0.40896905322E+02  0.97976363148E+02  0.10843835269E+03  0.17770000000E+01 0. -1.
</event>
<event>
 7    1  0.2288857E-006  0.5122669E+03  0.7546771E-02  0.9372772E-01
        -11   -1    0    0    0    0  0.00000000000E+00  0.00000000000E+00  0.50000000000E+03  0.50000000000E+03  0.00000000000E+00 0.  1.
         11   -1    0    0    0    0 -0.00000000000E+00 -0.00000000000E+00 -0.50000000000E+03  0.50000000000E+03  0.00000000000E+00 0. -1.
         23    2    1    2    0    0  0.20783679064E+01 -0.68906421976E+02  0.15416365974E+03  0.17991191022E+03  0.62043910687E+02 0.  0.
        -11    1    1    2    0    0  0.62385775111E+02  0.13901087848E+02  0.32615120664E+03  0.33235498307E+03  0.00000000000E+00 0.  1.
         11    1    1    2    0    0 -0.64464143017E+02  0.55005334129E+02 -0.48031486638E+03  0.48773310671E+03  0.00000000000E+00 0. -1.
        -15    1    3    3    0    0  0.31597859113E+02 -0.41618798346E+02  0.80895833241E+02  0.96321558547E+02  0.17770000000E+01 0.  1.
         15    1    3    3    0    0 -0.29519491207E+02 -0.27287623630E+02  0.73267826498E+02  0.83590351675E+02  0.17770000000E+01 0. -1.
</event>
<event>
 7    1  0.2288857E-006  0.4556054E+03  0.7546771E-02  0.9505021E-01
        -11   -1    0    0    0    0  0.00000000000E+00  0.00000000000E+00  0.50000000000E+03  0.50000000000E+03  0.00000000000E+00 0.  1.
         11   -1    0    0    0    0 -0.00000000000E+00 -0.00000000000E+00 -0.50000000000E+03  0.50000000000E+03  0.00000000000E+00 0.  1.
         23    2    1    2    0    0  0.39250721264E+02  0.33891698237E+02  0.43164697504E+03  0.44430023246E+03  0.91620517192E+02 0.  0.
        -11    1    1    2    0    0 -0.80992689807E+02  0.40237422543E+02  0.22874535860E+02  0.93285102593E+02  0.00000000000E+00 0.  1.
         11    1    1    2    0    0  0.41741968542E+02 -0.74129120780E+02 -0.45452151090E+03  0.46241466495E+03  0.00000000000E+00 0.  1.
        -15    1    3    3    0    0  0.31108696541E+02  0.62154742345E+02  0.36296585360E+03  0.36956505734E+03  0.17770000000E+01 0.  1.
         15    1    3    3    0    0  0.81420247236E+01 -0.28263044107E+02  0.68681121443E+02  0.74735175122E+02  0.17770000000E+01 0. -1.
</event>
<event>
 7    1  0.2288857E-006  0.5124213E+03  0.7546771E-02  0.9372437E-01
        -11   -1    0    0    0    0  0.00000000000E+00  0.00000000000E+00  0.50000000000E+03  0.50000000000E+03  0.00000000000E+00 0. -1.
         11   -1    0    0    0    0 -0.00000000000E+00 -0.00000000000E+00 -0.50000000000E+03  0.50000000000E+03  0.00000000000E+00 0.  1.
         23    2    1    2    0    0  0.24776428792E+02 -0.37685300752E+01  0.25607976440E+03  0.27252933578E+03  0.89818260307E+02 0.  0.
        -11    1    1    2    0    0  0.84209742773E+02  0.63916094998E+02  0.21534069880E+03  0.23989198515E+03  0.00000000000E+00 0. -1.
         11    1    1    2    0    0 -0.10898617156E+03 -0.60147564923E+02 -0.47142046320E+03  0.48757867907E+03  0.00000000000E+00 0.  1.
        -15    1    3    3    0    0  0.45172432168E+02 -0.30113298863E+02  0.10990801414E+03  0.12259807787E+03  0.17770000000E+01 0.  1.
         15    1    3    3    0    0 -0.20396003376E+02  0.26344768788E+02  0.14617175025E+03  0.14993125791E+03  0.17770000000E+01 0. -1.
</event>
<event>
 7    1  0.2288857E-006  0.5119837E+03  0.7546771E-02  0.9373387E-01
        -11   -1    0    0    0    0  0.00000000000E+00  0.00000000000E+00  0.50000000000E+03  0.50000000000E+03  0.00000000000E+00 0.  1.
         11   -1    0    0    0    0 -0.00000000000E+00 -0.00000000000E+00 -0.50000000000E+03  0.50000000000E+03  0.00000000000E+00 0.  1.
         23    2    1    2    0    0 -0.39733880763E+01  0.12345290048E+02  0.17150212502E+03  0.19466486548E+03  0.91176954152E+02 0.  0.
        -11    1    1    2    0    0 -0.43249981460E+02  0.54360043267E+02  0.30962182235E+03  0.31731884293E+03  0.00000000000E+00 0.  1.
         11    1    1    2    0    0  0.47223369536E+02 -0.66705333315E+02 -0.48112394737E+03  0.48801629159E+03  0.00000000000E+00 0.  1.
        -15    1    3    3    0    0  0.42775197968E+02  0.88276442645E+00  0.95857063840E+02  0.10498681465E+03  0.17770000000E+01 0. -1.
         15    1    3    3    0    0 -0.46748586044E+02  0.11462525622E+02  0.75645061178E+02  0.89678050828E+02  0.17770000000E+01 0.  1.
</event>
<event>
 7    1  0.2288857E-006  0.3488017E+03  0.7546771E-02  0.9821084E-01
        -11   -1    0    0    0    0  0.00000000000E+00  0.00000000000E+00  0.50000000000E+03  0.50000000000E+03  0.00000000000E+00 0.  1.
         11   -1    0    0    0    0 -0.00000000000E+00 -0.00000000000E+00 -0.50000000000E+03  0.50000000000E+03  0.00000000000E+00 0. -1.
         23    2    1    2    0    0 -0.54882112610E+02 -0.18027665903E+02  0.23879084491E+03  0.26039967968E+03  0.86312702111E+02 0.  0.
        -11    1    1    2    0    0  0.12934491074E+02 -0.25936186085E+03  0.11840554251E+03  0.28540453468E+03  0.00000000000E+00 0.  1.
         11    1    1    2    0    0  0.41947621536E+02  0.27738952675E+03 -0.35719638741E+03  0.45419578563E+03  0.00000000000E+00 0. -1.
        -15    1    3    3    0    0  0.23058191837E+02  0.12137092467E+01  0.63515101959E+02  0.67605319367E+02  0.17770000000E+01 0. -1.
         15    1    3    3    0    0 -0.77940304446E+02 -0.19241375150E+02  0.17527574295E+03  0.19279436032E+03  0.17770000000E+01 0.  1.
</event>
<event>
 7    1  0.2288857E-006  0.5420740E+03  0.7546771E-02  0.9310294E-01
        -11   -1    0    0    0    0  0.00000000000E+00  0.00000000000E+00  0.50000000000E+03  0.50000000000E+03  0.00000000000E+00 0.  1.
         11   -1    0    0    0    0 -0.00000000000E+00 -0.00000000000E+00 -0.50000000000E+03  0.50000000000E+03  0.00000000000E+00 0. -1.
         23    2    1    2    0    0  0.80561503479E+02  0.45758114955E+02  0.17999158418E+03  0.22244140951E+03  0.92191373564E+02 0.  0.
        -11    1    1    2    0    0 -0.18577587920E+03  0.51079094312E+02  0.25503571342E+03  0.31963254885E+03  0.00000000000E+00 0.  1.
         11    1    1    2    0    0  0.10521437572E+03 -0.96837209267E+02 -0.43502729760E+03  0.45792604164E+03  0.00000000000E+00 0. -1.
        -15    1    3    3    0    0  0.85602417277E+02  0.56511789100E+02  0.18323797199E+03  0.21000159109E+03  0.17770000000E+01 0.  1.
         15    1    3    3    0    0 -0.50409137981E+01 -0.10753674145E+02 -0.32463878069E+01  0.12439818420E+02  0.17770000000E+01 0. -1.
</event>
<event>
 7    1  0.2288857E-006  0.3730177E+03  0.7546771E-02  0.9739666E-01
        -11   -1    0    0    0    0  0.00000000000E+00  0.00000000000E+00  0.50000000000E+03  0.50000000000E+03  0.00000000000E+00 0.  1.
         11   -1    0    0    0    0 -0.00000000000E+00 -0.00000000000E+00 -0.50000000000E+03  0.50000000000E+03  0.00000000000E+00 0. -1.
         23    2    1    2    0    0 -0.82517387989E+01 -0.15489491557E+03  0.13601408390E+03  0.22596561421E+03  0.92195996235E+02 0.  0.
        -11    1    1    2    0    0 -0.94031802755E+02  0.22457406050E+03  0.26174156546E+03  0.35746906953E+03  0.00000000000E+00 0.  1.
         11    1    1    2    0    0  0.10228354155E+03 -0.69679144927E+02 -0.39775564936E+03  0.41656531626E+03  0.00000000000E+00 0. -1.
        -15    1    3    3    0    0 -0.83010241399E+01 -0.49892782509E+02  0.10484442296E+03  0.11642039127E+03  0.17770000000E+01 0.  1.
         15    1    3    3    0    0  0.49285340952E-01 -0.10500213307E+03  0.31169660941E+02  0.10954522294E+03  0.17770000000E+01 0. -1.
</event>
<event>
 7    1  0.2288857E-006  0.5054578E+03  0.7546771E-02  0.9387680E-01
        -11   -1    0    0    0    0  0.00000000000E+00  0.00000000000E+00  0.50000000000E+03  0.50000000000E+03  0.00000000000E+00 0.  1.
         11   -1    0    0    0    0 -0.00000000000E+00 -0.00000000000E+00 -0.50000000000E+03  0.50000000000E+03  0.00000000000E+00 0. -1.
         23    2    1    2    0    0  0.21639659686E+02 -0.61425153336E+02  0.48150477544E+03  0.49454217026E+03  0.92107464702E+02 0.  0.
        -11    1    1    2    0    0 -0.36082937151E+02 -0.13386496828E+02 -0.33511259821E+02  0.51031178564E+02  0.00000000000E+00 0.  1.
         11    1    1    2    0    0  0.14443277465E+02  0.74811650164E+02 -0.44799351562E+03  0.45442665118E+03  0.00000000000E+00 0. -1.
        -15    1    3    3    0    0  0.27458930136E+02 -0.83841707717E+02  0.34685087327E+03  0.35789958203E+03  0.17770000000E+01 0. -1.
         15    1    3    3    0    0 -0.58192704500E+01  0.22416554381E+02  0.13465390217E+03  0.13664258823E+03  0.17770000000E+01 0.  1.
</event>
<event>
 7    1  0.2288857E-006  0.5381861E+03  0.7546771E-02  0.9318199E-01
        -11   -1    0    0    0    0  0.00000000000E+00  0.00000000000E+00  0.50000000000E+03  0.50000000000E+03  0.00000000000E+00 0.  1.
         11   -1    0    0    0    0 -0.00000000000E+00 -0.00000000000E+00 -0.50000000000E+03  0.50000000000E+03  0.00000000000E+00 0.  1.
         23    2    1    2    0    0  0.14723208750E+02  0.14961224003E+03  0.20627846483E+03  0.28075417300E+03  0.11692521269E+03 0.  0.
        -11    1    1    2    0    0  0.31565941350E+02 -0.68808964038E+02  0.24604905368E+03  0.25743196966E+03  0.00000000000E+00 0.  1.
         11    1    1    2    0    0 -0.46289150101E+02 -0.80803275993E+02 -0.45232751851E+03  0.46181385734E+03  0.00000000000E+00 0.  1.
        -15    1    3    3    0    0 -0.51086050100E+02  0.63037929032E+02  0.77858792113E+02  0.11246650279E+03  0.17770000000E+01 0. -1.
         15    1    3    3    0    0  0.65809258850E+02  0.86574311000E+02  0.12841967272E+03  0.16828767021E+03  0.17770000000E+01 0.  1.
</event>
<event>
 7    1  0.2288857E-006  0.4745461E+03  0.7546771E-02  0.9458638E-01
        -11   -1    0    0    0    0  0.00000000000E+00  0.00000000000E+00  0.50000000000E+03  0.50000000000E+03  0.00000000000E+00 0.  1.
         11   -1    0    0    0    0 -0.00000000000E+00 -0.00000000000E+00 -0.50000000000E+03  0.50000000000E+03  0.00000000000E+00 0. -1.
         23    2    1    2    0    0 -0.84064062874E+02 -0.35931136377E+02  0.43826738676E+03  0.45691600279E+03  0.91302344356E+02 0.  0.
        -11    1    1    2    0    0  0.32780765742E+02 -0.26058894181E+02  0.40111062177E+02  0.57987428617E+02  0.00000000000E+00 0.  1.
         11    1    1    2    0    0  0.51283297132E+02  0.61990030558E+02 -0.47837844893E+03  0.48509656859E+03  0.00000000000E+00 0. -1.
        -15    1    3    3    0    0 -0.66368971529E+02 -0.27615237745E+02  0.42939109150E+03  0.43537031240E+03  0.17770000000E+01 0.  1.
         15    1    3    3    0    0 -0.17695091345E+02 -0.83158986318E+01  0.88762952615E+01  0.21545690389E+02  0.17770000000E+01 0. -1.
</event>
<event>
 7    1  0.2288857E-006  0.5242617E+03  0.7546771E-02  0.9347101E-01
        -11   -1    0    0    0    0  0.00000000000E+00  0.00000000000E+00  0.50000000000E+03  0.50000000000E+03  0.00000000000E+00 0.  1.
         11   -1    0    0    0    0 -0.00000000000E+00 -0.00000000000E+00 -0.50000000000E+03  0.50000000000E+03  0.00000000000E+00 0. -1.
         23    2    1    2    0    0  0.21437690891E+02  0.32489300054E+01  0.19104154901E+03  0.21319053315E+03  0.92104287848E+02 0.  0.
        -11    1    1    2    0    0 -0.25176512063E+02  0.19398834790E+03  0.24186764654E+03  0.31107120459E+03  0.00000000000E+00 0.  1.
         11    1    1    2    0    0  0.37388211716E+01 -0.19723727791E+03 -0.43290919555E+03  0.47573826226E+03  0.00000000000E+00 0. -1.
        -15    1    3    3    0    0 -0.21192482596E+02 -0.75728307980E+01  0.65290753975E+01  0.23500119987E+02  0.17770000000E+01 0.  1.
         15    1    3    3    0    0  0.42630173487E+02  0.10821760803E+02  0.18451247361E+03  0.18969041316E+03  0.17770000000E+01 0. -1.
</event>
<event>
 7    1  0.2288857E-006  0.4161108E+03  0.7546771E-02  0.9609961E-01
        -11   -1    0    0    0    0  0.00000000000E+00  0.00000000000E+00  0.50000000000E+03  0.50000000000E+03  0.00000000000E+00 0.  1.
         11   -1    0    0    0    0 -0.00000000000E+00 -0.00000000000E+00 -0.50000000000E+03  0.50000000000E+03  0.00000000000E+00 0. -1.
         23    2    1    2    0    0 -0.23072482726E+03  0.26383508090E+03 -0.22335052951E+03  0.42576275086E+03  0.92442226090E+02 0.  0.
        -11    1    1    2    0    0  0.17225913031E+03 -0.16338204538E+03  0.33663452087E+03  0.41193409833E+03  0.00000000000E+00 0.  1.
         11    1    1    2    0    0  0.58465696948E+02 -0.10045303551E+03 -0.11328399136E+03  0.16230315081E+03  0.00000000000E+00 0. -1.
        -15    1    3    3    0    0 -0.64014680517E+02  0.22303440803E+02 -0.28947479144E+02  0.73732198334E+02  0.17770000000E+01 0.  1.
         15    1    3    3    0    0 -0.16671014674E+03  0.24153164009E+03 -0.19440305036E+03  0.35203055253E+03  0.17770000000E+01 0. -1.
</event>
<event>
 7    1  0.2288857E-006  0.5342988E+03  0.7546771E-02  0.9326173E-01
        -11   -1    0    0    0    0  0.00000000000E+00  0.00000000000E+00  0.50000000000E+03  0.50000000000E+03  0.00000000000E+00 0.  1.
         11   -1    0    0    0    0 -0.00000000000E+00 -0.00000000000E+00 -0.50000000000E+03  0.50000000000E+03  0.00000000000E+00 0.  1.
         23    2    1    2    0    0 -0.32616241309E+02 -0.59999916742E+02 -0.10353564424E+03  0.17093779331E+03  0.11762776180E+03 0.  0.
        -11    1    1    2    0    0  0.79455403134E+02  0.22765195458E+00  0.45887294847E+03  0.46570118719E+03  0.00000000000E+00 0.  1.
         11    1    1    2    0    0 -0.46839161825E+02  0.59772264788E+02 -0.35533730423E+03  0.36336101951E+03  0.00000000000E+00 0.  1.
        -15    1    3    3    0    0  0.96364033307E+01 -0.46399719624E+02 -0.11556327939E+03  0.12491526537E+03  0.17770000000E+01 0.  1.
         15    1    3    3    0    0 -0.42252644640E+02 -0.13600197118E+02  0.12027635157E+02  0.46022527931E+02  0.17770000000E+01 0. -1.
</event>
<event>
 7    1  0.2288857E-006  0.5216285E+03  0.7546771E-02  0.9352674E-01
        -11   -1    0    0    0    0  0.00000000000E+00  0.00000000000E+00  0.50000000000E+03  0.50000000000E+03  0.00000000000E+00 0.  1.
         11   -1    0    0    0    0 -0.00000000000E+00 -0.00000000000E+00 -0.50000000000E+03  0.50000000000E+03  0.00000000000E+00 0. -1.
         23    2    1    2    0    0 -0.86572012295E+01 -0.63795454264E+02 -0.12424686422E+03  0.16725806134E+03  0.91614238511E+02 0.  0.
        -11    1    1    2    0    0 -0.12916446018E+03  0.10849305703E+03  0.44764397704E+03  0.47837154115E+03  0.00000000000E+00 0.  1.
         11    1    1    2    0    0  0.13782166141E+03 -0.44697602770E+02 -0.32339711283E+03  0.35437039751E+03  0.00000000000E+00 0. -1.
        -15    1    3    3    0    0 -0.11390346836E+02 -0.86631028406E+02 -0.86122676520E+02  0.12269860726E+03  0.17770000000E+01 0.  1.
         15    1    3    3    0    0  0.27331456066E+01  0.22835574143E+02 -0.38124187699E+02  0.44559454081E+02  0.17770000000E+01 0. -1.
</event>
<event>
 7    1  0.2288857E-006  0.5082399E+03  0.7546771E-02  0.9381559E-01
        -11   -1    0    0    0    0  0.00000000000E+00  0.00000000000E+00  0.50000000000E+03  0.50000000000E+03  0.00000000000E+00 0. -1.
         11   -1    0    0    0    0 -0.00000000000E+00 -0.00000000000E+00 -0.50000000000E+03  0.50000000000E+03  0.00000000000E+00 0.  1.
         23    2    1    2    0    0 -0.15934785715E+03 -0.52893893472E+02  0.45319170582E+03  0.49176012094E+03  0.90861382216E+02 0.  0.
        -11    1    1    2    0    0  0.84726917015E+02  0.53871143479E+02 -0.82035918644E+02  0.12965586186E+03  0.00000000000E+00 0. -1.
         11    1    1    2    0    0  0.74620940135E+02 -0.97725000714E+00 -0.37115578718E+03  0.37858401720E+03  0.00000000000E+00 0.  1.
        -15    1    3    3    0    0 -0.19851272835E+02  0.21910880635E+02  0.44237635276E+02  0.53238011112E+02  0.17770000000E+01 0.  1.
         15    1    3    3    0    0 -0.13949658432E+03 -0.74804774107E+02  0.40895407055E+03  0.43852210983E+03  0.17770000000E+01 0. -1.
</event>
<event>
 7    1  0.2288857E-006  0.5236714E+03  0.7546771E-02  0.9348347E-01
        -11   -1    0    0    0    0  0.00000000000E+00  0.00000000000E+00  0.50000000000E+03  0.50000000000E+03  0.00000000000E+00 0.  1.
         11   -1    0    0    0    0 -0.00000000000E+00 -0.00000000000E+00 -0.50000000000E+03  0.50000000000E+03  0.00000000000E+00 0. -1.
         23    2    1    2    0    0  0.11769156887E+02 -0.44183654189E+02  0.27617992949E+03  0.29472053888E+03  0.92163627484E+02 0.  0.
        -11    1    1    2    0    0 -0.10215387899E+03  0.75607881865E+02  0.19043773988E+03  0.22895086714E+03  0.00000000000E+00 0.  1.
         11    1    1    2    0    0  0.90384722099E+02 -0.31424227676E+02 -0.46661766937E+03  0.47632859398E+03  0.00000000000E+00 0. -1.
        -15    1    3    3    0    0 -0.29580645964E+02 -0.32175171445E+02  0.21784775107E+03  0.22219598702E+03  0.17770000000E+01 0.  1.
         15    1    3    3    0    0  0.41349802851E+02 -0.12008482744E+02  0.58332178423E+02  0.72524551858E+02  0.17770000000E+01 0. -1.
</event>
<event>
 7    1  0.2288857E-006  0.4600675E+03  0.7546771E-02  0.9493881E-01
        -11   -1    0    0    0    0  0.00000000000E+00  0.00000000000E+00  0.50000000000E+03  0.50000000000E+03  0.00000000000E+00 0.  1.
         11   -1    0    0    0    0 -0.00000000000E+00 -0.00000000000E+00 -0.50000000000E+03  0.50000000000E+03  0.00000000000E+00 0. -1.
         23    2    1    2    0    0 -0.14787432421E+03  0.88939772673E+02  0.40148012185E+03  0.44674088793E+03  0.92811819174E+02 0.  0.
        -11    1    1    2    0    0 -0.67870244667E+02  0.50663478069E+02 -0.10432031024E+02  0.85334549817E+02  0.00000000000E+00 0.  1.
         11    1    1    2    0    0  0.21574456888E+03 -0.13960325074E+03 -0.39104809083E+03  0.46792456225E+03  0.00000000000E+00 0. -1.
        -15    1    3    3    0    0 -0.99414996778E+02  0.78580747688E+02  0.36141597410E+03  0.38299208811E+03  0.17770000000E+01 0.  1.
         15    1    3    3    0    0 -0.48459327435E+02  0.10359024985E+02  0.40064147758E+02  0.63748799821E+02  0.17770000000E+01 0. -1.
</event>
<event>
 7    1  0.2288857E-006  0.3563689E+03  0.7546771E-02  0.9794899E-01
        -11   -1    0    0    0    0  0.00000000000E+00  0.00000000000E+00  0.50000000000E+03  0.50000000000E+03  0.00000000000E+00 0.  1.
         11   -1    0    0    0    0 -0.00000000000E+00 -0.00000000000E+00 -0.50000000000E+03  0.50000000000E+03  0.00000000000E+00 0. -1.
         23    2    1    2    0    0  0.10223999679E+03 -0.15589880938E+03  0.13930990746E+03  0.25022670218E+03  0.91916790948E+02 0.  0.
        -11    1    1    2    0    0 -0.17669551741E+03  0.10134326764E+03  0.26546393086E+03  0.33460852105E+03  0.00000000000E+00 0.  1.
         11    1    1    2    0    0  0.74455520626E+02  0.54555541742E+02 -0.40477383832E+03  0.41516477677E+03  0.00000000000E+00 0. -1.
        -15    1    3    3    0    0  0.87521404090E+02 -0.13985296303E+03  0.15252808090E+03  0.22469272492E+03  0.17770000000E+01 0.  1.
         15    1    3    3    0    0  0.14718592696E+02 -0.16045846357E+02 -0.13218173446E+02  0.25533977256E+02  0.17770000000E+01 0. -1.
</event>
<event>
 7    1  0.2288857E-006  0.3945749E+03  0.7546771E-02  0.9672567E-01
        -11   -1    0    0    0    0  0.00000000000E+00  0.00000000000E+00  0.50000000000E+03  0.50000000000E+03  0.00000000000E+00 0.  1.
         11   -1    0    0    0    0 -0.00000000000E+00 -0.00000000000E+00 -0.50000000000E+03  0.50000000000E+03  0.00000000000E+00 0. -1.
         23    2    1    2    0    0 -0.18296422966E+03 -0.22838205062E+03  0.30483181479E+03  0.43240202207E+03  0.91732235346E+02 0.  0.
        -11    1    1    2    0    0  0.95787795111E+02  0.16494540864E+03  0.49638088697E+02  0.19709446815E+03  0.00000000000E+00 0.  1.
         11    1    1    2    0    0  0.87176434548E+02  0.63436641973E+02 -0.35446990349E+03  0.37050350979E+03  0.00000000000E+00 0. -1.
        -15    1    3    3    0    0 -0.17890702850E+03 -0.16633358656E+03  0.23693922562E+03  0.34032035089E+03  0.17770000000E+01 0.  1.
         15    1    3    3    0    0 -0.40572011563E+01 -0.62048464060E+02  0.67892589172E+02  0.92081671178E+02  0.17770000000E+01 0. -1.
</event>
<event>
 7    1  0.2288857E-006  0.4572777E+03  0.7546771E-02  0.9500830E-01
        -11   -1    0    0    0    0  0.00000000000E+00  0.00000000000E+00  0.50000000000E+03  0.50000000000E+03  0.00000000000E+00 0.  1.
         11   -1    0    0    0    0 -0.00000000000E+00 -0.00000000000E+00 -0.50000000000E+03  0.50000000000E+03  0.00000000000E+00 0. -1.
         23    2    1    2    0    0  0.25095387599E+01 -0.71767441737E+02  0.40957906837E+03  0.42754272401E+03  0.99402737023E+02 0.  0.
        -11    1    1    2    0    0 -0.68499800127E+02 -0.19866845513E+02  0.57692163129E+02  0.91734943476E+02  0.00000000000E+00 0.  1.
         11    1    1    2    0    0  0.65990261367E+02  0.91634287250E+02 -0.46727123150E+03  0.48072233252E+03  0.00000000000E+00 0. -1.
        -15    1    3    3    0    0  0.31686870317E+02  0.11794291444E+02  0.12574237436E+03  0.13022083359E+03  0.17770000000E+01 0.  1.
         15    1    3    3    0    0 -0.29177331557E+02 -0.83561733180E+02  0.28383669401E+03  0.29732189042E+03  0.17770000000E+01 0. -1.
</event>
<event>
 7    1  0.2288857E-006  0.5384026E+03  0.7546771E-02  0.9317757E-01
        -11   -1    0    0    0    0  0.00000000000E+00  0.00000000000E+00  0.50000000000E+03  0.50000000000E+03  0.00000000000E+00 0.  1.
         11   -1    0    0    0    0 -0.00000000000E+00 -0.00000000000E+00 -0.50000000000E+03  0.50000000000E+03  0.00000000000E+00 0. -1.
         23    2    1    2    0    0  0.60035179504E+02  0.26971991151E+02 -0.35558412300E+01  0.11419627661E+03  0.93254675487E+02 0.  0.
        -11    1    1    2    0    0  0.24157610418E+03  0.41393777029E+02  0.34623483906E+03  0.42420634444E+03  0.00000000000E+00 0.  1.
         11    1    1    2    0    0 -0.30161128368E+03 -0.68365768180E+02 -0.34267899783E+03  0.46159737895E+03  0.00000000000E+00 0. -1.
        -15    1    3    3    0    0  0.71444521681E+01 -0.19404800337E+02 -0.32129555771E+02  0.38249909228E+02  0.17770000000E+01 0. -1.
         15    1    3    3    0    0  0.52890727336E+02  0.46376791488E+02  0.28573714541E+02  0.75946367382E+02  0.17770000000E+01 0.  1.
</event>
<event>
 7    1  0.2288857E-006  0.4402211E+03  0.7546771E-02  0.9544499E-01
        -11   -1    0    0    0    0  0.00000000000E+00  0.00000000000E+00  0.50000000000E+03  0.50000000000E+03  0.00000000000E+00 0. -1.
         11   -1    0    0    0    0 -0.00000000000E+00 -0.00000000000E+00 -0.50000000000E+03  0.50000000000E+03  0.00000000000E+00 0.  1.
         23    2    1    2    0    0 -0.30483094557E+02 -0.75559961926E+02  0.42238071372E+03  0.43977434948E+03  0.91419277182E+02 0.  0.
        -11    1    1    2    0    0  0.12046328839E+03  0.88529046814E+01  0.25146220291E+01  0.12081432487E+03  0.00000000000E+00 0. -1.
         11    1    1    2    0    0 -0.89980193830E+02  0.66707057244E+02 -0.42489533575E+03  0.43941132565E+03  0.00000000000E+00 0.  1.
        -15    1    3    3    0    0 -0.45643819735E+02 -0.44565807858E+02  0.37890955966E+03  0.38424612118E+03  0.17770000000E+01 0. -1.
         15    1    3    3    0    0  0.15160725178E+02 -0.30994154068E+02  0.43471154061E+02  0.55528228305E+02  0.17770000000E+01 0.  1.
</event>
<event>
 7    1  0.2288857E-006  0.5294960E+03  0.7546771E-02  0.9336126E-01
        -11   -1    0    0    0    0  0.00000000000E+00  0.00000000000E+00  0.50000000000E+03  0.50000000000E+03  0.00000000000E+00 0.  1.
         11   -1    0    0    0    0 -0.00000000000E+00 -0.00000000000E+00 -0.50000000000E+03  0.50000000000E+03  0.00000000000E+00 0. -1.
         23    2    1    2    0    0  0.31142505679E+02  0.15123795648E+02  0.36100315942E+03  0.37394441068E+03  0.91173221474E+02 0.  0.
        -11    1    1    2    0    0 -0.61402794539E+02  0.10967474736E+03  0.91637584112E+02  0.15555159983E+03  0.00000000000E+00 0.  1.
         11    1    1    2    0    0  0.30260288859E+02 -0.12479854301E+03 -0.45264074353E+03  0.47050398949E+03  0.00000000000E+00 0. -1.
        -15    1    3    3    0    0 -0.30404925229E+02  0.14596165354E+00  0.16991450857E+03  0.17262264838E+03  0.17770000000E+01 0. -1.
         15    1    3    3    0    0  0.61547430908E+02  0.14977833995E+02  0.19108865085E+03  0.20132176230E+03  0.17770000000E+01 0.  1.
</event>
<event>
 7    1  0.2288857E-006  0.5372327E+03  0.7546771E-02  0.9320148E-01
        -11   -1    0    0    0    0  0.00000000000E+00  0.00000000000E+00  0.50000000000E+03  0.50000000000E+03  0.00000000000E+00 0. -1.
         11   -1    0    0    0    0 -0.00000000000E+00 -0.00000000000E+00 -0.50000000000E+03  0.50000000000E+03  0.00000000000E+00 0. -1.
         23    2    1    2    0    0 -0.17724464727E+02  0.76525957108E+01  0.21419522214E+03  0.23363568267E+03  0.91287020758E+02 0.  0.
        -11    1    1    2    0    0  0.17272584760E+03 -0.15393748577E+03  0.19657101542E+03  0.30359698954E+03  0.00000000000E+00 0. -1.
         11    1    1    2    0    0 -0.15500138287E+03  0.14628489006E+03 -0.41076623756E+03  0.46276732779E+03  0.00000000000E+00 0. -1.
        -15    1    3    3    0    0 -0.29240877621E+02 -0.24318096631E+02  0.36607658533E+02  0.52817394294E+02  0.17770000000E+01 0.  1.
         15    1    3    3    0    0  0.11516412894E+02  0.31970692342E+02  0.17758756361E+03  0.18081828838E+03  0.17770000000E+01 0. -1.
</event>
<event>
 7    1  0.2288857E-006  0.3661054E+03  0.7546771E-02  0.9762216E-01
        -11   -1    0    0    0    0  0.00000000000E+00  0.00000000000E+00  0.50000000000E+03  0.50000000000E+03  0.00000000000E+00 0.  1.
         11   -1    0    0    0    0 -0.00000000000E+00 -0.00000000000E+00 -0.50000000000E+03  0.50000000000E+03  0.00000000000E+00 0. -1.
         23    2    1    2    0    0 -0.15579969389E+03  0.70697906020E+02  0.13469562726E+03  0.23609733314E+03  0.91254041992E+02 0.  0.
        -11    1    1    2    0    0  0.11046692990E+03 -0.63247402822E+01  0.30123789530E+03  0.32091621104E+03  0.00000000000E+00 0.  1.
         11    1    1    2    0    0  0.45332763992E+02 -0.64373165738E+02 -0.43593352255E+03  0.44298645583E+03  0.00000000000E+00 0. -1.
        -15    1    3    3    0    0 -0.15082240247E+03  0.85134702090E+02  0.13662748471E+03  0.22060267881E+03  0.17770000000E+01 0.  1.
         15    1    3    3    0    0 -0.49772914211E+01 -0.14436796070E+02 -0.19318574586E+01  0.15494654333E+02  0.17770000000E+01 0. -1.
</event>
<event>
 7    1  0.2288857E-006  0.5419119E+03  0.7546771E-02  0.9310622E-01
        -11   -1    0    0    0    0  0.00000000000E+00  0.00000000000E+00  0.50000000000E+03  0.50000000000E+03  0.00000000000E+00 0.  1.
         11   -1    0    0    0    0 -0.00000000000E+00 -0.00000000000E+00 -0.50000000000E+03  0.50000000000E+03  0.00000000000E+00 0.  1.
         23    2    1    2    0    0 -0.10310129375E+01 -0.49558961375E+02 -0.36608115472E+02  0.11980733532E+03  0.10274478010E+03 0.  0.
        -11    1    1    2    0    0  0.78152568603E+02  0.23251791710E+02  0.45077291271E+03  0.45808807955E+03  0.00000000000E+00 0.  1.
         11    1    1    2    0    0 -0.77121555665E+02  0.26307169665E+02 -0.41416479723E+03  0.42210458513E+03  0.00000000000E+00 0.  1.
        -15    1    3    3    0    0 -0.31492242414E+02 -0.27758575981E+02  0.24109170152E+02  0.48442849701E+02  0.17770000000E+01 0. -1.
         15    1    3    3    0    0  0.30461229477E+02 -0.21800385394E+02 -0.60717285623E+02  0.71364485614E+02  0.17770000000E+01 0.  1.
</event>
<event>
 7    1  0.2288857E-006  0.5112306E+03  0.7546771E-02  0.9375025E-01
        -11   -1    0    0    0    0  0.00000000000E+00  0.00000000000E+00  0.50000000000E+03  0.50000000000E+03  0.00000000000E+00 0.  1.
         11   -1    0    0    0    0 -0.00000000000E+00 -0.00000000000E+00 -0.50000000000E+03  0.50000000000E+03  0.00000000000E+00 0. -1.
         23    2    1    2    0    0  0.70840376258E+02  0.58104460915E+01  0.37956806083E+03  0.39758093266E+03  0.94586283460E+02 0.  0.
        -11    1    1    2    0    0  0.28579159609E+02  0.55346047026E+02  0.95059375409E+02  0.11364962885E+03  0.00000000000E+00 0.  1.
         11    1    1    2    0    0 -0.99419535867E+02 -0.61156493117E+02 -0.47462743624E+03  0.48876943848E+03  0.00000000000E+00 0. -1.
        -15    1    3    3    0    0  0.77749064601E+02 -0.48143354716E+01  0.37642287580E+03  0.38440269774E+03  0.17770000000E+01 0.  1.
         15    1    3    3    0    0 -0.69086883423E+01  0.10624781563E+02  0.31451850348E+01  0.13178234927E+02  0.17770000000E+01 0. -1.
</event>
<event>
 7    1  0.2288857E-006  0.5219132E+03  0.7546771E-02  0.9352070E-01
        -11   -1    0    0    0    0  0.00000000000E+00  0.00000000000E+00  0.50000000000E+03  0.50000000000E+03  0.00000000000E+00 0.  1.
         11   -1    0    0    0    0 -0.00000000000E+00 -0.00000000000E+00 -0.50000000000E+03  0.50000000000E+03  0.00000000000E+00 0.  1.
         23    2    1    2    0    0 -0.10599388532E+02 -0.25792997078E+02 -0.87600627873E+02  0.13021048423E+03  0.92213201138E+02 0.  0.
        -11    1    1    2    0    0  0.65826291962E+01  0.26390730497E+03  0.39859329628E+03  0.47808682523E+03  0.00000000000E+00 0.  1.
         11    1    1    2    0    0  0.40167593362E+01 -0.23811430789E+03 -0.31099266840E+03  0.39170269054E+03  0.00000000000E+00 0.  1.
        -15    1    3    3    0    0 -0.37352578179E+02  0.18757964156E+02 -0.24633594700E+02  0.48549439057E+02  0.17770000000E+01 0. -1.
         15    1    3    3    0    0  0.26753189647E+02 -0.44550961234E+02 -0.62967033173E+02  0.81661045173E+02  0.17770000000E+01 0.  1.
</event>
<event>
 7    1  0.2288857E-006  0.5273353E+03  0.7546771E-02  0.9340640E-01
        -11   -1    0    0    0    0  0.00000000000E+00  0.00000000000E+00  0.50000000000E+03  0.50000000000E+03  0.00000000000E+00 0.  1.
         11   -1    0    0    0    0 -0.00000000000E+00 -0.00000000000E+00 -0.50000000000E+03  0.50000000000E+03  0.00000000000E+00 0.  1.
         23    2    1    2    0    0  0.55923337847E+01 -0.54378979163E+02  0.77770368036E+02  0.13186335279E+03  0.91385809037E+02 0.  0.
        -11    1    1    2    0    0 -0.13064882127E+03 -0.13014196908E+02  0.37304102861E+03  0.39547198744E+03  0.00000000000E+00 0.  1.
         11    1    1    2    0    0  0.12505648749E+03  0.67393176071E+02 -0.45081139665E+03  0.47266465977E+03  0.00000000000E+00 0.  1.
        -15    1    3    3    0    0  0.20364903999E+02 -0.42477680002E+02  0.95077877975E+02  0.10612277429E+03  0.17770000000E+01 0.  1.
         15    1    3    3    0    0 -0.14772570215E+02 -0.11901299161E+02 -0.17307509939E+02  0.25740578505E+02  0.17770000000E+01 0. -1.
</event>
<event>
 7    1  0.2288857E-006  0.3828474E+03  0.7546771E-02  0.9708485E-01
        -11   -1    0    0    0    0  0.00000000000E+00  0.00000000000E+00  0.50000000000E+03  0.50000000000E+03  0.00000000000E+00 0. -1.
         11   -1    0    0    0    0 -0.00000000000E+00 -0.00000000000E+00 -0.50000000000E+03  0.50000000000E+03  0.00000000000E+00 0.  1.
         23    2    1    2    0    0 -0.29193096187E+02  0.29450824132E+03  0.29227778012E+03  0.42591031252E+03  0.91574846378E+02 0.  0.
        -11    1    1    2    0    0  0.61755589029E+02 -0.19954775075E+03  0.52177914461E+02  0.21530348897E+03  0.00000000000E+00 0. -1.
         11    1    1    2    0    0 -0.32562492842E+02 -0.94960490564E+02 -0.34445569458E+03  0.35878619851E+03  0.00000000000E+00 0.  1.
        -15    1    3    3    0    0 -0.43495365508E+02  0.25396034687E+03  0.28135609801E+03  0.38151293060E+03  0.17770000000E+01 0. -1.
         15    1    3    3    0    0  0.14302269321E+02  0.40547894448E+02  0.10921682116E+02  0.44397381918E+02  0.17770000000E+01 0.  1.
</event>
<event>
 7    1  0.2288857E-006  0.5283797E+03  0.7546771E-02  0.9338455E-01
        -11   -1    0    0    0    0  0.00000000000E+00  0.00000000000E+00  0.50000000000E+03  0.50000000000E+03  0.00000000000E+00 0.  1.
         11   -1    0    0    0    0 -0.00000000000E+00 -0.00000000000E+00 -0.50000000000E+03  0.50000000000E+03  0.00000000000E+00 0. -1.
         23    2    1    2    0    0  0.15568239462E+02 -0.15471397541E+02 -0.82451052693E+02  0.12637525075E+03  0.93224426465E+02 0.  0.
        -11    1    1    2    0    0  0.16852520472E+03  0.27478928178E+02  0.43962468711E+03  0.47162029392E+03  0.00000000000E+00 0.  1.
         11    1    1    2    0    0 -0.18409344418E+03 -0.12007530637E+02 -0.35717363442E+03  0.40200445533E+03  0.00000000000E+00 0. -1.
        -15    1    3    3    0    0 -0.13388445180E+02  0.12026007580E+02 -0.84439127024E+02  0.86353918407E+02  0.17770000000E+01 0.  1.
         15    1    3    3    0    0  0.28956684643E+02 -0.27497405121E+02  0.19880743308E+01  0.40021332342E+02  0.17770000000E+01 0. -1.
</event>
<event>
 7    1  0.2288857E-006  0.5230387E+03  0.7546771E-02  0.9349685E-01
        -11   -1    0    0    0    0  0.00000000000E+00  0.00000000000E+00  0.50000000000E+03  0.50000000000E+03  0.00000000000E+00 0.  1.
         11   -1    0    0    0    0 -0.00000000000E+00 -0.00000000000E+00 -0.50000000000E+03  0.50000000000E+03  0.00000000000E+00 0. -1.
         23    2    1    2    0    0 -0.37822116296E+02  0.55614374103E+02  0.51374196027E+02  0.12364257452E+03  0.90137157316E+02 0.  0.
        -11    1    1    2    0    0 -0.64885037935E+01  0.31161426352E+03  0.24974332589E+03  0.39939614262E+03  0.00000000000E+00 0.  1.
         11    1    1    2    0    0  0.44310620089E+02 -0.36722863762E+03 -0.30111752192E+03  0.47696128286E+03  0.00000000000E+00 0. -1.
        -15    1    3    3    0    0 -0.66812966070E+02  0.41205333184E+02  0.26821990292E+02  0.82972458142E+02  0.17770000000E+01 0.  1.
         15    1    3    3    0    0  0.28990849775E+02  0.14409040919E+02  0.24552205734E+02  0.40670116379E+02  0.17770000000E+01 0. -1.
</event>
<event>
 7    1  0.2288857E-006  0.5246883E+03  0.7546771E-02  0.9346201E-01
        -11   -1    0    0    0    0  0.00000000000E+00  0.00000000000E+00  0.50000000000E+03  0.50000000000E+03  0.00000000000E+00 0.  1.
         11   -1    0    0    0    0 -0.00000000000E+00 -0.00000000000E+00 -0.50000000000E+03  0.50000000000E+03  0.00000000000E+00 0. -1.
         23    2    1    2    0    0 -0.11972868323E+02 -0.21774290114E+03  0.24866765258E+03  0.34089251737E+03  0.82563832234E+02 0.  0.
        -11    1    1    2    0    0 -0.10399521926E+03 -0.11750876283E+02  0.15108875966E+03  0.18379581610E+03  0.00000000000E+00 0.  1.
         11    1    1    2    0    0  0.11596808758E+03  0.22949377742E+03 -0.39975641223E+03  0.47531166652E+03  0.00000000000E+00 0. -1.
        -15    1    3    3    0    0 -0.44899132027E+01 -0.10300351255E+02 -0.55750140928E+01  0.12668664795E+02  0.17770000000E+01 0. -1.
         15    1    3    3    0    0 -0.74829551204E+01 -0.20744254988E+03  0.25424266667E+03  0.32822385258E+03  0.17770000000E+01 0.  1.
</event>
<event>
 7    1  0.2288857E-006  0.4325673E+03  0.7546771E-02  0.9564785E-01
        -11   -1    0    0    0    0  0.00000000000E+00  0.00000000000E+00  0.50000000000E+03  0.50000000000E+03  0.00000000000E+00 0.  1.
         11   -1    0    0    0    0 -0.00000000000E+00 -0.00000000000E+00 -0.50000000000E+03  0.50000000000E+03  0.00000000000E+00 0.  1.
         23    2    1    2    0    0 -0.94496989295E+02  0.14032531494E+02  0.38779348040E+03  0.41012321507E+03  0.93223790826E+02 0.  0.
        -11    1    1    2    0    0 -0.58199661583E+02 -0.11788794896E+03  0.28444039352E+02  0.13451331716E+03  0.00000000000E+00 0.  1.
         11    1    1    2    0    0  0.15269665088E+03  0.10385541747E+03 -0.41623751975E+03  0.45536346777E+03  0.00000000000E+00 0.  1.
        -15    1    3    3    0    0 -0.90108209630E+01  0.21946322450E+02  0.16310799935E+02  0.28845032276E+02  0.17770000000E+01 0. -1.
         15    1    3    3    0    0 -0.85486168332E+02 -0.79137909558E+01  0.37148268046E+03  0.38127818280E+03  0.17770000000E+01 0.  1.
</event>
<event>
 7    1  0.2288857E-006  0.5179512E+03  0.7546771E-02  0.9360515E-01
        -11   -1    0    0    0    0  0.00000000000E+00  0.00000000000E+00  0.50000000000E+03  0.50000000000E+03  0.00000000000E+00 0.  1.
         11   -1    0    0    0    0 -0.00000000000E+00 -0.00000000000E+00 -0.50000000000E+03  0.50000000000E+03  0.00000000000E+00 0. -1.
         23    2    1    2    0    0  0.36558027840E+02 -0.70513397280E+02  0.19695869821E+03  0.23163535071E+03  0.92485557253E+02 0.  0.
        -11    1    1    2    0    0  0.95401075818E+02  0.45903276489E+02  0.26602312010E+03  0.28631586838E+03  0.00000000000E+00 0.  1.
         11    1    1    2    0    0 -0.13195910366E+03  0.24610120791E+02 -0.46298181832E+03  0.48204878091E+03  0.00000000000E+00 0. -1.
        -15    1    3    3    0    0  0.32936459427E+02 -0.44340923531E+02  0.19756308293E+03  0.20514691645E+03  0.17770000000E+01 0.  1.
         15    1    3    3    0    0  0.36215684129E+01 -0.26172473749E+02 -0.60438472029E+00  0.26488434264E+02  0.17770000000E+01 0. -1.
</event>
<event>
 7    1  0.2288857E-006  0.5329199E+03  0.7546771E-02  0.9329019E-01
        -11   -1    0    0    0    0  0.00000000000E+00  0.00000000000E+00  0.50000000000E+03  0.50000000000E+03  0.00000000000E+00 0.  1.
         11   -1    0    0    0    0 -0.00000000000E+00 -0.00000000000E+00 -0.50000000000E+03  0.50000000000E+03  0.00000000000E+00 0.  1.
         23    2    1    2    0    0 -0.13536780821E+03  0.15723330342E+02 -0.21401730623E+03  0.27876090770E+03  0.11546674708E+03 0.  0.
        -11    1    1    2    0    0  0.74626000743E+02 -0.15742749850E+02  0.46081119085E+03  0.46708010852E+03  0.00000000000E+00 0.  1.
         11    1    1    2    0    0  0.60741807463E+02  0.19419507891E-01 -0.24679388462E+03  0.25415898378E+03  0.00000000000E+00 0.  1.
        -15    1    3    3    0    0 -0.87828290674E+02 -0.13099839826E+02 -0.42524196101E+02  0.98472734445E+02  0.17770000000E+01 0.  1.
         15    1    3    3    0    0 -0.47539517532E+02  0.28823170168E+02 -0.17149311013E+03  0.18028817326E+03  0.17770000000E+01 0. -1.
</event>
<event>
 7    1  0.2288857E-006  0.5108684E+03  0.7546771E-02  0.9375814E-01
        -11   -1    0    0    0    0  0.00000000000E+00  0.00000000000E+00  0.50000000000E+03  0.50000000000E+03  0.00000000000E+00 0.  1.
         11   -1    0    0    0    0 -0.00000000000E+00 -0.00000000000E+00 -0.50000000000E+03  0.50000000000E+03  0.00000000000E+00 0.  1.
         23    2    1    2    0    0  0.66058109211E+02 -0.65899168863E+02  0.28712603134E+03  0.31505389090E+03  0.90062323141E+02 0.  0.
        -11    1    1    2    0    0  0.84304505930E+02 -0.92734483573E+02  0.15045390217E+03  0.19581448068E+03  0.00000000000E+00 0.  1.
         11    1    1    2    0    0 -0.15036261514E+03  0.15863365244E+03 -0.43757993351E+03  0.48913162843E+03  0.00000000000E+00 0.  1.
        -15    1    3    3    0    0  0.36857486974E+02  0.47363073311E+01  0.33182880537E+02  0.49851461793E+02  0.17770000000E+01 0. -1.
         15    1    3    3    0    0  0.29200622237E+02 -0.70635476194E+02  0.25394315080E+03  0.26520242910E+03  0.17770000000E+01 0.  1.
</event>
<event>
 7    1  0.2288857E-006  0.3410525E+03  0.7546771E-02  0.9848647E-01
        -11   -1    0    0    0    0  0.00000000000E+00  0.00000000000E+00  0.50000000000E+03  0.50000000000E+03  0.00000000000E+00 0.  1.
         11   -1    0    0    0    0 -0.00000000000E+00 -0.00000000000E+00 -0.50000000000E+03  0.50000000000E+03  0.00000000000E+00 0. -1.
         23    2    1    2    0    0 -0.53882165302E+02  0.11514375584E+03  0.22186233179E+03  0.27154176893E+03  0.91381977199E+02 0.  0.
        -11    1    1    2    0    0 -0.22989335765E+01 -0.25363133359E+03  0.17249063484E+03  0.30673629975E+03  0.00000000000E+00 0.  1.
         11    1    1    2    0    0  0.56181098879E+02  0.13848757775E+03 -0.39435296664E+03  0.42172193132E+03  0.00000000000E+00 0. -1.
        -15    1    3    3    0    0 -0.76494782872E+02  0.65558998793E+02  0.15995395236E+03  0.18904459457E+03  0.17770000000E+01 0.  1.
         15    1    3    3    0    0  0.22612617569E+02  0.49584757048E+02  0.61908379427E+02  0.82497174358E+02  0.17770000000E+01 0. -1.
</event>
<event>
 7    1  0.2288857E-006  0.4038135E+03  0.7546771E-02  0.9645200E-01
        -11   -1    0    0    0    0  0.00000000000E+00  0.00000000000E+00  0.50000000000E+03  0.50000000000E+03  0.00000000000E+00 0. -1.
         11   -1    0    0    0    0 -0.00000000000E+00 -0.00000000000E+00 -0.50000000000E+03  0.50000000000E+03  0.00000000000E+00 0. -1.
         23    2    1    2    0    0 -0.22243656813E+02 -0.15087748916E+03 -0.13507165111E+01  0.17809847554E+03  0.91969807812E+02 0.  0.
        -11    1    1    2    0    0  0.85860664770E+02  0.11192845680E+03  0.39594209330E+03  0.42032151318E+03  0.00000000000E+00 0. -1.
         11    1    1    2    0    0 -0.63617007957E+02  0.38949032368E+02 -0.39459137679E+03  0.40158001128E+03  0.00000000000E+00 0. -1.
        -15    1    3    3    0    0 -0.45228666013E+02 -0.10491750804E+03 -0.31455997093E+02  0.11851562431E+03  0.17770000000E+01 0.  1.
         15    1    3    3    0    0  0.22985009200E+02 -0.45959981120E+02  0.30105280582E+02  0.59582851228E+02  0.17770000000E+01 0. -1.
</event>
<event>
 7    1  0.2288857E-006  0.3829260E+03  0.7546771E-02  0.9708239E-01
        -11   -1    0    0    0    0  0.00000000000E+00  0.00000000000E+00  0.50000000000E+03  0.50000000000E+03  0.00000000000E+00 0. -1.
         11   -1    0    0    0    0 -0.00000000000E+00 -0.00000000000E+00 -0.50000000000E+03  0.50000000000E+03  0.00000000000E+00 0.  1.
         23    2    1    2    0    0  0.12444986475E+03 -0.13966363080E+03  0.34132122220E+02  0.21089420799E+03  0.91201242281E+02 0.  0.
        -11    1    1    2    0    0  0.26223890175E+02  0.21038141435E+03  0.32800048412E+03  0.39055390090E+03  0.00000000000E+00 0. -1.
         11    1    1    2    0    0 -0.15067375492E+03 -0.70717783551E+02 -0.36213260634E+03  0.39855189111E+03  0.00000000000E+00 0.  1.
        -15    1    3    3    0    0 -0.11008691912E+02 -0.72064252547E+01  0.15659551312E+02  0.20530541612E+02  0.17770000000E+01 0. -1.
         15    1    3    3    0    0  0.13545855666E+03 -0.13245720555E+03  0.18472570907E+02  0.19036366638E+03  0.17770000000E+01 0.  1.
</event>
<event>
 7    1  0.2288857E-006  0.4010918E+03  0.7546771E-02  0.9653180E-01
        -11   -1    0    0    0    0  0.00000000000E+00  0.00000000000E+00  0.50000000000E+03  0.50000000000E+03  0.00000000000E+00 0.  1.
         11   -1    0    0    0    0 -0.00000000000E+00 -0.00000000000E+00 -0.50000000000E+03  0.50000000000E+03  0.00000000000E+00 0. -1.
         23    2    1    2    0    0  0.68027300612E+02 -0.77122676897E+01  0.34022685822E+03  0.36099084690E+03  0.99362386221E+02 0.  0.
        -11    1    1    2    0    0 -0.23403823510E+03  0.89355092580E+02 -0.37479196481E+03  0.45080732574E+03  0.00000000000E+00 0. -1.
         11    1    1    2    0    0  0.16601093448E+03 -0.81642824890E+02  0.34565106597E+02  0.18820182735E+03  0.00000000000E+00 0.  1.
        -15    1    3    3    0    0  0.93501154912E+02  0.14287734587E+01  0.26145799286E+03  0.27768317760E+03  0.17770000000E+01 0.  1.
         15    1    3    3    0    0 -0.25473854300E+02 -0.91410411484E+01  0.78768865359E+02  0.83307669306E+02  0.17770000000E+01 0. -1.
</event>
<event>
 7    1  0.2288857E-006  0.3476632E+03  0.7546771E-02  0.9825085E-01
        -11   -1    0    0    0    0  0.00000000000E+00  0.00000000000E+00  0.50000000000E+03  0.50000000000E+03  0.00000000000E+00 0.  1.
         11   -1    0    0    0    0 -0.00000000000E+00 -0.00000000000E+00 -0.50000000000E+03  0.50000000000E+03  0.00000000000E+00 0.  1.
         23    2    1    2    0    0 -0.26581907610E+03 -0.93993075434E+02  0.22309843876E+03  0.37111988166E+03  0.91992248261E+02 0.  0.
        -11    1    1    2    0    0  0.22988079989E+03  0.31420352984E+02  0.13171861507E+03  0.26679995183E+03  0.00000000000E+00 0.  1.
         11    1    1    2    0    0  0.35938276205E+02  0.62572722450E+02 -0.35481705383E+03  0.36208016651E+03  0.00000000000E+00 0.  1.
        -15    1    3    3    0    0 -0.23502137664E+03 -0.94977851293E+02  0.15701069421E+03  0.29818007234E+03  0.17770000000E+01 0.  1.
         15    1    3    3    0    0 -0.30797699460E+02  0.98477585967E+00  0.66087744551E+02  0.72939809325E+02  0.17770000000E+01 0. -1.
</event>
<event>
 7    1  0.2288857E-006  0.5006459E+03  0.7546771E-02  0.9398366E-01
        -11   -1    0    0    0    0  0.00000000000E+00  0.00000000000E+00  0.50000000000E+03  0.50000000000E+03  0.00000000000E+00 0.  1.
         11   -1    0    0    0    0 -0.00000000000E+00 -0.00000000000E+00 -0.50000000000E+03  0.50000000000E+03  0.00000000000E+00 0. -1.
         23    2    1    2    0    0  0.13193464596E+03  0.30224156185E+01  0.47334803200E+03  0.49935414589E+03  0.88771154218E+02 0.  0.
        -11    1    1    2    0    0 -0.19333428756E+02  0.31517721652E+01 -0.69138825626E+01  0.20772985036E+02  0.00000000000E+00 0.  1.
         11    1    1    2    0    0 -0.11260121720E+03 -0.61741877837E+01 -0.46643414944E+03  0.47987286907E+03  0.00000000000E+00 0. -1.
        -15    1    3    3    0    0  0.17043647481E+02 -0.29652489944E+02  0.16829747479E+03  0.17174677240E+03  0.17770000000E+01 0. -1.
         15    1    3    3    0    0  0.11489099848E+03  0.32674905563E+02  0.30505055721E+03  0.32760737349E+03  0.17770000000E+01 0.  1.
</event>
<event>
 7    1  0.2288857E-006  0.4673121E+03  0.7546771E-02  0.9476077E-01
        -11   -1    0    0    0    0  0.00000000000E+00  0.00000000000E+00  0.50000000000E+03  0.50000000000E+03  0.00000000000E+00 0.  1.
         11   -1    0    0    0    0 -0.00000000000E+00 -0.00000000000E+00 -0.50000000000E+03  0.50000000000E+03  0.00000000000E+00 0. -1.
         23    2    1    2    0    0  0.37289701124E+02  0.88467724278E+01  0.42714600796E+03  0.43834965333E+03  0.90707878740E+02 0.  0.
        -11    1    1    2    0    0  0.36727075066E+02  0.24558268682E+02  0.56224242462E+02  0.71506307722E+02  0.00000000000E+00 0.  1.
         11    1    1    2    0    0 -0.74016776190E+02 -0.33405041110E+02 -0.48337025042E+03  0.49014403895E+03  0.00000000000E+00 0. -1.
        -15    1    3    3    0    0 -0.22900192345E+02 -0.19764412609E+02  0.17134510495E+03  0.17400388942E+03  0.17770000000E+01 0.  1.
         15    1    3    3    0    0  0.60189893469E+02  0.28611185037E+02  0.25580090301E+03  0.26434576390E+03  0.17770000000E+01 0. -1.
</event>
<event>
 7    1  0.2288857E-006  0.5241526E+03  0.7546771E-02  0.9347331E-01
        -11   -1    0    0    0    0  0.00000000000E+00  0.00000000000E+00  0.50000000000E+03  0.50000000000E+03  0.00000000000E+00 0.  1.
         11   -1    0    0    0    0 -0.00000000000E+00 -0.00000000000E+00 -0.50000000000E+03  0.50000000000E+03  0.00000000000E+00 0. -1.
         23    2    1    2    0    0  0.11954604213E+03 -0.14008167590E+03 -0.24744373261E+03  0.31805217605E+03  0.77554198908E+02 0.  0.
        -11    1    1    2    0    0 -0.59452138336E+02  0.16234932688E+03  0.44332703877E+03  0.47584737469E+03  0.00000000000E+00 0.  1.
         11    1    1    2    0    0 -0.60093903795E+02 -0.22267650976E+02 -0.19588330616E+03  0.20610044926E+03  0.00000000000E+00 0. -1.
        -15    1    3    3    0    0  0.12836658387E+03 -0.12871739444E+03 -0.20919800922E+03  0.27715178563E+03  0.17770000000E+01 0. -1.
         15    1    3    3    0    0 -0.88205417436E+01 -0.11364281465E+02 -0.38245723390E+02  0.40900390420E+02  0.17770000000E+01 0.  1.
</event>
<event>
 7    1  0.2288857E-006  0.5326501E+03  0.7546771E-02  0.9329577E-01
        -11   -1    0    0    0    0  0.00000000000E+00  0.00000000000E+00  0.50000000000E+03  0.50000000000E+03  0.00000000000E+00 0.  1.
         11   -1    0    0    0    0 -0.00000000000E+00 -0.00000000000E+00 -0.50000000000E+03  0.50000000000E+03  0.00000000000E+00 0. -1.
         23    2    1    2    0    0  0.52185229008E+02  0.51672787160E+02  0.24470413591E+03  0.26958726319E+03  0.86045355978E+02 0.  0.
        -11    1    1    2    0    0  0.11855263234E+03 -0.15263756648E+03  0.17846320769E+03  0.26306286289E+03  0.00000000000E+00 0.  1.
         11    1    1    2    0    0 -0.17073786135E+03  0.10096477932E+03 -0.42316734360E+03  0.46734987391E+03  0.00000000000E+00 0. -1.
        -15    1    3    3    0    0  0.55793907994E+02  0.56236948612E+01  0.18926466243E+03  0.19740530967E+03  0.17770000000E+01 0. -1.
         15    1    3    3    0    0 -0.36086789854E+01  0.46049092299E+02  0.55439473484E+02  0.72181953526E+02  0.17770000000E+01 0.  1.
</event>
<event>
 7    1  0.2288857E-006  0.3685832E+03  0.7546771E-02  0.9754072E-01
        -11   -1    0    0    0    0  0.00000000000E+00  0.00000000000E+00  0.50000000000E+03  0.50000000000E+03  0.00000000000E+00 0.  1.
         11   -1    0    0    0    0 -0.00000000000E+00 -0.00000000000E+00 -0.50000000000E+03  0.50000000000E+03  0.00000000000E+00 0. -1.
         23    2    1    2    0    0  0.68925099670E+02  0.11221003219E+03  0.16780173798E+03  0.23259295692E+03  0.92737800555E+02 0.  0.
        -11    1    1    2    0    0  0.23228355463E+02 -0.18706924556E+03  0.26129101645E+03  0.32219164237E+03  0.00000000000E+00 0.  1.
         11    1    1    2    0    0 -0.92153455133E+02  0.74859213369E+02 -0.42909275444E+03  0.44521540071E+03  0.00000000000E+00 0. -1.
        -15    1    3    3    0    0  0.86413324924E+02  0.10601400891E+03  0.12254385733E+03  0.18364745440E+03  0.17770000000E+01 0. -1.
         15    1    3    3    0    0 -0.17488225254E+02  0.61960232817E+01  0.45257880653E+02  0.48945502524E+02  0.17770000000E+01 0.  1.
</event>
<event>
 7    1  0.2288857E-006  0.5251031E+03  0.7546771E-02  0.9345328E-01
        -11   -1    0    0    0    0  0.00000000000E+00  0.00000000000E+00  0.50000000000E+03  0.50000000000E+03  0.00000000000E+00 0.  1.
         11   -1    0    0    0    0 -0.00000000000E+00 -0.00000000000E+00 -0.50000000000E+03  0.50000000000E+03  0.00000000000E+00 0. -1.
         23    2    1    2    0    0 -0.85661176186E+02 -0.32105338681E+02 -0.10021505674E+03  0.16836825795E+03  0.99680603981E+02 0.  0.
        -11    1    1    2    0    0  0.16670342348E+03 -0.14912197550E+02  0.44442616450E+03  0.47489685272E+03  0.00000000000E+00 0.  1.
         11    1    1    2    0    0 -0.81042247293E+02  0.47017536232E+02 -0.34421110776E+03  0.35673488933E+03  0.00000000000E+00 0. -1.
        -15    1    3    3    0    0 -0.53459287656E+02 -0.59622100309E+02 -0.28421451392E+02  0.84991922618E+02  0.17770000000E+01 0.  1.
         15    1    3    3    0    0 -0.32201888529E+02  0.27516761628E+02 -0.71793605350E+02  0.83376335333E+02  0.17770000000E+01 0. -1.
</event>
<event>
 7    1  0.2288857E-006  0.5104629E+03  0.7546771E-02  0.9376698E-01
        -11   -1    0    0    0    0  0.00000000000E+00  0.00000000000E+00  0.50000000000E+03  0.50000000000E+03  0.00000000000E+00 0. -1.
         11   -1    0    0    0    0 -0.00000000000E+00 -0.00000000000E+00 -0.50000000000E+03  0.50000000000E+03  0.00000000000E+00 0. -1.
         23    2    1    2    0    0  0.12322149860E+03 -0.17092617306E+03  0.12450095566E+03  0.26138039317E+03  0.91760163563E+02 0.  0.
        -11    1    1    2    0    0  0.10726450300E+03 -0.13737167059E+03  0.17794781275E+03  0.24908246335E+03  0.00000000000E+00 0. -1.
         11    1    1    2    0    0 -0.23048600160E+03  0.30829784365E+03 -0.30244876841E+03  0.48953714348E+03  0.00000000000E+00 0. -1.
        -15    1    3    3    0    0  0.46893501436E+02 -0.13931744120E+03  0.74672221913E+02  0.16488616786E+03  0.17770000000E+01 0. -1.
         15    1    3    3    0    0  0.76327997161E+02 -0.31608731866E+02  0.49828733747E+02  0.96494225302E+02  0.17770000000E+01 0.  1.
</event>
<event>
 7    1  0.2288857E-006  0.5247526E+03  0.7546771E-02  0.9346066E-01
        -11   -1    0    0    0    0  0.00000000000E+00  0.00000000000E+00  0.50000000000E+03  0.50000000000E+03  0.00000000000E+00 0.  1.
         11   -1    0    0    0    0 -0.00000000000E+00 -0.00000000000E+00 -0.50000000000E+03  0.50000000000E+03  0.00000000000E+00 0. -1.
         23    2    1    2    0    0 -0.22758892766E+02 -0.42926587583E+02 -0.20114738366E+03  0.22564611848E+03  0.89973561186E+02 0.  0.
        -11    1    1    2    0    0  0.46355546838E+01 -0.95950906935E+02  0.46543748437E+03  0.47524742689E+03  0.00000000000E+00 0.  1.
         11    1    1    2    0    0  0.18123338082E+02  0.13887749452E+03 -0.26429010071E+03  0.29910645463E+03  0.00000000000E+00 0. -1.
        -15    1    3    3    0    0  0.12858914206E+02  0.20342326092E+02 -0.23314247685E+02  0.33554042670E+02  0.17770000000E+01 0.  1.
         15    1    3    3    0    0 -0.35617806972E+02 -0.63268913675E+02 -0.17783313597E+03  0.19209207581E+03  0.17770000000E+01 0. -1.
</event>
<event>
 7    1  0.2288857E-006  0.5346977E+03  0.7546771E-02  0.9325352E-01
        -11   -1    0    0    0    0  0.00000000000E+00  0.00000000000E+00  0.50000000000E+03  0.50000000000E+03  0.00000000000E+00 0. -1.
         11   -1    0    0    0    0 -0.00000000000E+00 -0.00000000000E+00 -0.50000000000E+03  0.50000000000E+03  0.00000000000E+00 0. -1.
         23    2    1    2    0    0  0.35634543872E+01  0.71137510636E+02  0.21166214920E+03  0.24072046943E+03  0.89845619669E+02 0.  0.
        -11    1    1    2    0    0  0.18408925190E+03 -0.82134471867E+02  0.21398059641E+03  0.29397724363E+03  0.00000000000E+00 0. -1.
         11    1    1    2    0    0 -0.18765270628E+03  0.10996961231E+02 -0.42564274561E+03  0.46530228693E+03  0.00000000000E+00 0. -1.
        -15    1    3    3    0    0  0.32022702598E+02  0.68319436238E+02  0.19106744143E+03  0.20543350202E+03  0.17770000000E+01 0. -1.
         15    1    3    3    0    0 -0.28459248211E+02  0.28180743982E+01  0.20594707773E+02  0.35286967414E+02  0.17770000000E+01 0.  1.
</event>
<event>
 7    1  0.2288857E-006  0.5247084E+03  0.7546771E-02  0.9346159E-01
        -11   -1    0    0    0    0  0.00000000000E+00  0.00000000000E+00  0.50000000000E+03  0.50000000000E+03  0.00000000000E+00 0.  1.
         11   -1    0    0    0    0 -0.00000000000E+00 -0.00000000000E+00 -0.50000000000E+03  0.50000000000E+03  0.00000000000E+00 0.  1.
         23    2    1    2    0    0 -0.10163011966E+02  0.26980955203E+02  0.82833040942E+02  0.12368276831E+03  0.87205824057E+02 0.  0.
        -11    1    1    2    0    0 -0.62600226965E+02 -0.11950468862E+03  0.37765251465E+03  0.40102566108E+03  0.00000000000E+00 0.  1.
         11    1    1    2    0    0  0.72763238931E+02  0.92523733418E+02 -0.46048555559E+03  0.47529157061E+03  0.00000000000E+00 0.  1.
        -15    1    3    3    0    0 -0.47511301541E+02  0.11954028973E+02  0.59584336265E+02  0.77160050803E+02  0.17770000000E+01 0.  1.
         15    1    3    3    0    0  0.37348289575E+02  0.15026926230E+02  0.23248704677E+02  0.46522717508E+02  0.17770000000E+01 0. -1.
</event>
<event>
 7    1  0.2288857E-006  0.4857900E+03  0.7546771E-02  0.9432179E-01
        -11   -1    0    0    0    0  0.00000000000E+00  0.00000000000E+00  0.50000000000E+03  0.50000000000E+03  0.00000000000E+00 0. -1.
         11   -1    0    0    0    0 -0.00000000000E+00 -0.00000000000E+00 -0.50000000000E+03  0.50000000000E+03  0.00000000000E+00 0. -1.
         23    2    1    2    0    0 -0.19321854425E+01 -0.58112312107E+02  0.46143755623E+03  0.47487549143E+03  0.95923614938E+02 0.  0.
        -11    1    1    2    0    0  0.22913483302E+02 -0.22141680171E+02  0.19319956392E+02  0.37263151139E+02  0.00000000000E+00 0. -1.
         11    1    1    2    0    0 -0.20981297860E+02  0.80253992277E+02 -0.48075751262E+03  0.48786135743E+03  0.00000000000E+00 0. -1.
        -15    1    3    3    0    0 -0.60620632901E+00 -0.85060825424E+02  0.34405200289E+03  0.35441592787E+03  0.17770000000E+01 0. -1.
         15    1    3    3    0    0 -0.13259791135E+01  0.26948513318E+02  0.11738555334E+03  0.12045956356E+03  0.17770000000E+01 0.  1.
</event>
<event>
 6    1  0.2288857E-006  0.5624729E+03  0.7546771E-02  0.9269942E-01
        -11   -1    0    0    0    0  0.00000000000E+00  0.00000000000E+00  0.50000000000E+03  0.50000000000E+03  0.00000000000E+00 0.  1.
         11   -1    0    0    0    0 -0.00000000000E+00 -0.00000000000E+00 -0.50000000000E+03  0.50000000000E+03  0.00000000000E+00 0. -1.
        -11    1    1    2    0    0 -0.79320837397E+02  0.94944441973E+02  0.41967094075E+03  0.43752707438E+03  0.00000000000E+00 0.  1.
         11    1    1    2    0    0  0.21845251230E+02 -0.49295670225E+02 -0.31203326070E+03  0.31665759723E+03  0.00000000000E+00 0. -1.
        -15    1    1    2    0    0  0.74849095676E+02  0.26179708789E+01  0.43202920080E+02  0.86480581217E+02  0.17770000000E+01 0.  1.
         15    1    1    2    0    0 -0.17373509509E+02 -0.48266742626E+02 -0.15084060014E+03  0.15933474717E+03  0.17770000000E+01 0. -1.
</event>
<event>
 7    1  0.2288857E-006  0.5110112E+03  0.7546771E-02  0.9375503E-01
        -11   -1    0    0    0    0  0.00000000000E+00  0.00000000000E+00  0.50000000000E+03  0.50000000000E+03  0.00000000000E+00 0.  1.
         11   -1    0    0    0    0 -0.00000000000E+00 -0.00000000000E+00 -0.50000000000E+03  0.50000000000E+03  0.00000000000E+00 0. -1.
         23    2    1    2    0    0  0.81194222252E+02  0.23631303189E+02 -0.23224219564E+03  0.26852428384E+03  0.10496624866E+03 0.  0.
        -11    1    1    2    0    0 -0.18226823675E+03 -0.36269879860E+02  0.45229725263E+03  0.48898877191E+03  0.00000000000E+00 0.  1.
         11    1    1    2    0    0  0.10107401450E+03  0.12638576671E+02 -0.22005505699E+03  0.24248694425E+03  0.00000000000E+00 0. -1.
        -15    1    3    3    0    0  0.74153474072E+02 -0.30008143637E+02 -0.15122140180E+03  0.17108564082E+03  0.17770000000E+01 0.  1.
         15    1    3    3    0    0  0.70407481802E+01  0.53639446826E+02 -0.81020793843E+02  0.97438643025E+02  0.17770000000E+01 0. -1.
</event>
<event>
 7    1  0.2288857E-006  0.3098727E+03  0.7546771E-02  0.9968061E-01
        -11   -1    0    0    0    0  0.00000000000E+00  0.00000000000E+00  0.50000000000E+03  0.50000000000E+03  0.00000000000E+00 0.  1.
         11   -1    0    0    0    0 -0.00000000000E+00 -0.00000000000E+00 -0.50000000000E+03  0.50000000000E+03  0.00000000000E+00 0. -1.
         23    2    1    2    0    0 -0.28495104063E+03  0.83222408833E+02 -0.33531320665E+02  0.31200893453E+03  0.90012004069E+02 0.  0.
        -11    1    1    2    0    0  0.12192284578E+03 -0.19557546039E+03  0.28589991103E+03  0.36722431858E+03  0.00000000000E+00 0.  1.
         11    1    1    2    0    0  0.16302819484E+03  0.11235305155E+03 -0.25236859036E+03  0.32076674689E+03  0.00000000000E+00 0. -1.
        -15    1    3    3    0    0 -0.18900722521E+03  0.78379587219E+02  0.13433297204E+02  0.20506267841E+03  0.17770000000E+01 0.  1.
         15    1    3    3    0    0 -0.95943815415E+02  0.48428216139E+01 -0.46964617869E+02  0.10694625612E+03  0.17770000000E+01 0. -1.
</event>
<event>
 7    1  0.2288857E-006  0.4525262E+03  0.7546771E-02  0.9512789E-01
        -11   -1    0    0    0    0  0.00000000000E+00  0.00000000000E+00  0.50000000000E+03  0.50000000000E+03  0.00000000000E+00 0.  1.
         11   -1    0    0    0    0 -0.00000000000E+00 -0.00000000000E+00 -0.50000000000E+03  0.50000000000E+03  0.00000000000E+00 0. -1.
         23    2    1    2    0    0 -0.41293521706E+02  0.49227799549E+02  0.40638847795E+03  0.42727664988E+03  0.11526148246E+03 0.  0.
        -11    1    1    2    0    0  0.82817815646E+02  0.32719434842E+02  0.53410567856E+02  0.10383660609E+03  0.00000000000E+00 0.  1.
         11    1    1    2    0    0 -0.41524293940E+02 -0.81947234391E+02 -0.45979904580E+03  0.46888674404E+03  0.00000000000E+00 0. -1.
        -15    1    3    3    0    0 -0.43776328835E+02  0.83656430572E+02  0.33342949390E+03  0.34654458656E+03  0.17770000000E+01 0.  1.
         15    1    3    3    0    0  0.24828071289E+01 -0.34428631023E+02  0.72958984043E+02  0.80732063314E+02  0.17770000000E+01 0. -1.
</event>
<event>
 7    1  0.2288857E-006  0.4645554E+03  0.7546771E-02  0.9482811E-01
        -11   -1    0    0    0    0  0.00000000000E+00  0.00000000000E+00  0.50000000000E+03  0.50000000000E+03  0.00000000000E+00 0. -1.
         11   -1    0    0    0    0 -0.00000000000E+00 -0.00000000000E+00 -0.50000000000E+03  0.50000000000E+03  0.00000000000E+00 0.  1.
         23    2    1    2    0    0  0.45347564629E+01 -0.25422312456E+03 -0.34633557953E+03  0.43916879718E+03  0.90944695789E+02 0.  0.
        -11    1    1    2    0    0  0.34346031864E+02  0.31809365502E+03  0.36336137487E+03  0.48414327633E+03  0.00000000000E+00 0. -1.
         11    1    1    2    0    0 -0.38880788327E+02 -0.63870530455E+02 -0.17025795339E+02  0.76687926484E+02  0.00000000000E+00 0.  1.
        -15    1    3    3    0    0 -0.14980286459E+02 -0.18397874929E+03 -0.30162099913E+03  0.35362547140E+03  0.17770000000E+01 0.  1.
         15    1    3    3    0    0  0.19515042922E+02 -0.70244375274E+02 -0.44714580399E+02  0.85543325790E+02  0.17770000000E+01 0. -1.
</event>
<event>
 7    1  0.2288857E-006  0.4007144E+03  0.7546771E-02  0.9654292E-01
        -11   -1    0    0    0    0  0.00000000000E+00  0.00000000000E+00  0.50000000000E+03  0.50000000000E+03  0.00000000000E+00 0.  1.
         11   -1    0    0    0    0 -0.00000000000E+00 -0.00000000000E+00 -0.50000000000E+03  0.50000000000E+03  0.00000000000E+00 0. -1.
         23    2    1    2    0    0  0.81405239372E+01  0.15661631668E+03 -0.30804351265E+02  0.18279021982E+03  0.88704101508E+02 0.  0.
        -11    1    1    2    0    0  0.19608118377E+02 -0.69957857269E+02  0.41554850918E+03  0.42185203991E+03  0.00000000000E+00 0.  1.
         11    1    1    2    0    0 -0.27748642314E+02 -0.86658459414E+02 -0.38474415791E+03  0.39535774026E+03  0.00000000000E+00 0. -1.
        -15    1    3    3    0    0 -0.11969838848E+02  0.28569325243E+02 -0.42516327417E+02  0.52633441963E+02  0.17770000000E+01 0.  1.
         15    1    3    3    0    0  0.20110362785E+02  0.12804699144E+03  0.11711976152E+02  0.13015677786E+03  0.17770000000E+01 0. -1.
</event>
<event>
 7    1  0.2288857E-006  0.3557305E+03  0.7546771E-02  0.9797081E-01
        -11   -1    0    0    0    0  0.00000000000E+00  0.00000000000E+00  0.50000000000E+03  0.50000000000E+03  0.00000000000E+00 0. -1.
         11   -1    0    0    0    0 -0.00000000000E+00 -0.00000000000E+00 -0.50000000000E+03  0.50000000000E+03  0.00000000000E+00 0. -1.
         23    2    1    2    0    0 -0.32251060742E+02  0.18491003193E+03  0.14103908804E+03  0.25079993702E+03  0.88185788115E+02 0.  0.
        -11    1    1    2    0    0 -0.17099954899E+03 -0.10889363502E+03  0.23787789640E+03  0.31254529768E+03  0.00000000000E+00 0. -1.
         11    1    1    2    0    0  0.20325060973E+03 -0.76016396917E+02 -0.37891698445E+03  0.43665476530E+03  0.00000000000E+00 0. -1.
        -15    1    3    3    0    0 -0.48336082660E+02  0.16534011343E+03  0.14490938851E+03  0.22511245768E+03  0.17770000000E+01 0.  1.
         15    1    3    3    0    0  0.16085021918E+02  0.19569918506E+02 -0.38703004627E+01  0.25687479345E+02  0.17770000000E+01 0. -1.
</event>
<event>
 7    1  0.2288857E-006  0.5111875E+03  0.7546771E-02  0.9375119E-01
        -11   -1    0    0    0    0  0.00000000000E+00  0.00000000000E+00  0.50000000000E+03  0.50000000000E+03  0.00000000000E+00 0.  1.
         11   -1    0    0    0    0 -0.00000000000E+00 -0.00000000000E+00 -0.50000000000E+03  0.50000000000E+03  0.00000000000E+00 0. -1.
         23    2    1    2    0    0 -0.15134312025E+02  0.43834934500E+02  0.18984094581E+03  0.21551835328E+03  0.90873687115E+02 0.  0.
        -11    1    1    2    0    0 -0.72471091130E+02  0.36087832830E+02  0.28436923266E+03  0.29566915837E+03  0.00000000000E+00 0.  1.
         11    1    1    2    0    0  0.87605403154E+02 -0.79922767330E+02 -0.47421017847E+03  0.48881248835E+03  0.00000000000E+00 0. -1.
        -15    1    3    3    0    0  0.21282688423E+02  0.52453857173E+02  0.70478462385E+02  0.90414220938E+02  0.17770000000E+01 0.  1.
         15    1    3    3    0    0 -0.36417000448E+02 -0.86189226724E+01  0.11936248343E+03  0.12510413234E+03  0.17770000000E+01 0. -1.
</event>
<event>
 7    1  0.2288857E-006  0.5244444E+03  0.7546771E-02  0.9346716E-01
        -11   -1    0    0    0    0  0.00000000000E+00  0.00000000000E+00  0.50000000000E+03  0.50000000000E+03  0.00000000000E+00 0. -1.
         11   -1    0    0    0    0 -0.00000000000E+00 -0.00000000000E+00 -0.50000000000E+03  0.50000000000E+03  0.00000000000E+00 0.  1.
         23    2    1    2    0    0 -0.41178358699E+02  0.52250731966E+02  0.29070761325E+03  0.31198926837E+03  0.91654737782E+02 0.  0.
        -11    1    1    2    0    0 -0.66980197394E+02 -0.11037949003E+03  0.16872232081E+03  0.21245517222E+03  0.00000000000E+00 0. -1.
         11    1    1    2    0    0  0.10815855609E+03  0.58128758066E+02 -0.45942993407E+03  0.47555555941E+03  0.00000000000E+00 0.  1.
        -15    1    3    3    0    0  0.17894321230E+02  0.78128289913E+01  0.10603668538E+02  0.22289965110E+02  0.17770000000E+01 0.  1.
         15    1    3    3    0    0 -0.59072679930E+02  0.44437902975E+02  0.28010394472E+03  0.28969930326E+03  0.17770000000E+01 0. -1.
</event>
<event>
 7    1  0.2288857E-006  0.3646472E+03  0.7546771E-02  0.9767041E-01
        -11   -1    0    0    0    0  0.00000000000E+00  0.00000000000E+00  0.50000000000E+03  0.50000000000E+03  0.00000000000E+00 0. -1.
         11   -1    0    0    0    0 -0.00000000000E+00 -0.00000000000E+00 -0.50000000000E+03  0.50000000000E+03  0.00000000000E+00 0. -1.
         23    2    1    2    0    0 -0.11287504923E+03 -0.21335727140E+03  0.27445418728E+03  0.37655035665E+03  0.90570238913E+02 0.  0.
        -11    1    1    2    0    0  0.17289848600E+03  0.33195831485E+03 -0.71830673176E+02  0.38111658960E+03  0.00000000000E+00 0. -1.
         11    1    1    2    0    0 -0.60023436774E+02 -0.11860104345E+03 -0.20262351411E+03  0.24233305375E+03  0.00000000000E+00 0. -1.
        -15    1    3    3    0    0 -0.24005492097E+02 -0.10390987369E+03  0.67825121285E+02  0.12639988254E+03  0.17770000000E+01 0. -1.
         15    1    3    3    0    0 -0.88869557130E+02 -0.10944739771E+03  0.20662906600E+03  0.25015047411E+03  0.17770000000E+01 0.  1.
</event>
<event>
 7    1  0.2288857E-006  0.3769944E+03  0.7546771E-02  0.9726929E-01
        -11   -1    0    0    0    0  0.00000000000E+00  0.00000000000E+00  0.50000000000E+03  0.50000000000E+03  0.00000000000E+00 0.  1.
         11   -1    0    0    0    0 -0.00000000000E+00 -0.00000000000E+00 -0.50000000000E+03  0.50000000000E+03  0.00000000000E+00 0. -1.
         23    2    1    2    0    0  0.64922644890E+01  0.24420712070E+02  0.19954245943E+03  0.21964444992E+03  0.88249479250E+02 0.  0.
        -11    1    1    2    0    0 -0.36368774230E+02  0.30935262046E+03  0.10382161057E+03  0.32833010576E+03  0.00000000000E+00 0.  1.
         11    1    1    2    0    0  0.29876509741E+02 -0.33377333253E+03 -0.30336407000E+03  0.45202544432E+03  0.00000000000E+00 0. -1.
        -15    1    3    3    0    0  0.40403941829E+02  0.44674659235E+01  0.47315667651E+02  0.62404862802E+02  0.17770000000E+01 0.  1.
         15    1    3    3    0    0 -0.33911677340E+02  0.19953246147E+02  0.15222679178E+03  0.15723958712E+03  0.17770000000E+01 0. -1.
</event>
<event>
 7    1  0.2288857E-006  0.4576623E+03  0.7546771E-02  0.9499869E-01
        -11   -1    0    0    0    0  0.00000000000E+00  0.00000000000E+00  0.50000000000E+03  0.50000000000E+03  0.00000000000E+00 0. -1.
         11   -1    0    0    0    0 -0.00000000000E+00 -0.00000000000E+00 -0.50000000000E+03  0.50000000000E+03  0.00000000000E+00 0.  1.
         23    2    1    2    0    0  0.96292545008E+02 -0.11839063731E+02  0.40611088002E+03  0.42769458430E+03  0.92650919658E+02 0.  0.
        -11    1    1    2    0    0  0.13154618581E+02  0.64521681258E+02  0.60938427227E+02  0.89719469767E+02  0.00000000000E+00 0. -1.
         11    1    1    2    0    0 -0.10944716359E+03 -0.52682617527E+02 -0.46704930725E+03  0.48258594593E+03  0.00000000000E+00 0.  1.
        -15    1    3    3    0    0  0.11382103533E+03 -0.20204932505E+01  0.35143368053E+03  0.36941589032E+03  0.17770000000E+01 0. -1.
         15    1    3    3    0    0 -0.17528490325E+02 -0.98185704805E+01  0.54677199489E+02  0.58278693983E+02  0.17770000000E+01 0.  1.
</event>
<event>
 7    1  0.2288857E-006  0.5311802E+03  0.7546771E-02  0.9332623E-01
        -11   -1    0    0    0    0  0.00000000000E+00  0.00000000000E+00  0.50000000000E+03  0.50000000000E+03  0.00000000000E+00 0. -1.
         11   -1    0    0    0    0 -0.00000000000E+00 -0.00000000000E+00 -0.50000000000E+03  0.50000000000E+03  0.00000000000E+00 0.  1.
         23    2    1    2    0    0  0.24193478847E+02  0.57686166400E+02  0.10645642132E+03  0.15490653249E+03  0.93541680312E+02 0.  0.
        -11    1    1    2    0    0 -0.14477775724E+03 -0.31776287168E+02  0.34584896260E+03  0.37627361899E+03  0.00000000000E+00 0. -1.
         11    1    1    2    0    0  0.12058427839E+03 -0.25909879231E+02 -0.45230538392E+03  0.46881984852E+03  0.00000000000E+00 0.  1.
        -15    1    3    3    0    0 -0.32201006969E+02  0.31718077097E+02  0.68589595722E+02  0.82162227543E+02  0.17770000000E+01 0.  1.
         15    1    3    3    0    0  0.56394485817E+02  0.25968089303E+02  0.37866825600E+02  0.72744304949E+02  0.17770000000E+01 0. -1.
</event>
<event>
 7    1  0.2288857E-006  0.5256134E+03  0.7546771E-02  0.9344254E-01
        -11   -1    0    0    0    0  0.00000000000E+00  0.00000000000E+00  0.50000000000E+03  0.50000000000E+03  0.00000000000E+00 0.  1.
         11   -1    0    0    0    0 -0.00000000000E+00 -0.00000000000E+00 -0.50000000000E+03  0.50000000000E+03  0.00000000000E+00 0. -1.
         23    2    1    2    0    0  0.66158626916E+02  0.11106795070E+02  0.15518888324E+03  0.19163718847E+03  0.90226923432E+02 0.  0.
        -11    1    1    2    0    0 -0.32707795177E+02 -0.14706077811E+03  0.29806620047E+03  0.33397624495E+03  0.00000000000E+00 0.  1.
         11    1    1    2    0    0 -0.33450831738E+02  0.13595398304E+03 -0.45325508371E+03  0.47438656659E+03  0.00000000000E+00 0. -1.
        -15    1    3    3    0    0  0.68812812426E+02 -0.26038073618E+02  0.11734121464E+03  0.13851102055E+03  0.17770000000E+01 0.  1.
         15    1    3    3    0    0 -0.26541855105E+01  0.37144868688E+02  0.37847668598E+02  0.53126167920E+02  0.17770000000E+01 0. -1.
</event>
<event>
 7    1  0.2288857E-006  0.4060968E+03  0.7546771E-02  0.9638556E-01
        -11   -1    0    0    0    0  0.00000000000E+00  0.00000000000E+00  0.50000000000E+03  0.50000000000E+03  0.00000000000E+00 0. -1.
         11   -1    0    0    0    0 -0.00000000000E+00 -0.00000000000E+00 -0.50000000000E+03  0.50000000000E+03  0.00000000000E+00 0.  1.
         23    2    1    2    0    0 -0.35339914155E+02 -0.10555634111E+03  0.98567446832E+02  0.17430930202E+03  0.90978791571E+02 0.  0.
        -11    1    1    2    0    0  0.14359484086E+03  0.12689074884E+03  0.33084252808E+03  0.38233168695E+03  0.00000000000E+00 0. -1.
         11    1    1    2    0    0 -0.10825492670E+03 -0.21334407726E+02 -0.42940997491E+03  0.44335901103E+03  0.00000000000E+00 0.  1.
        -15    1    3    3    0    0 -0.46057728335E+02 -0.96255366181E+01  0.28812500781E+02  0.55202203079E+02  0.17770000000E+01 0. -1.
         15    1    3    3    0    0  0.10717814180E+02 -0.95930804492E+02  0.69754946051E+02  0.11910709894E+03  0.17770000000E+01 0.  1.
</event>
<event>
 7    1  0.2288857E-006  0.3456506E+03  0.7546771E-02  0.9832198E-01
        -11   -1    0    0    0    0  0.00000000000E+00  0.00000000000E+00  0.50000000000E+03  0.50000000000E+03  0.00000000000E+00 0.  1.
         11   -1    0    0    0    0 -0.00000000000E+00 -0.00000000000E+00 -0.50000000000E+03  0.50000000000E+03  0.00000000000E+00 0. -1.
         23    2    1    2    0    0 -0.11144760803E+02  0.14848459067E+02  0.26728295234E+03  0.28743345736E+03  0.10408233936E+03 0.  0.
        -11    1    1    2    0    0  0.23838736141E+03  0.89868402548E+02  0.95322125494E+02  0.27201318252E+03  0.00000000000E+00 0.  1.
         11    1    1    2    0    0 -0.22724260061E+03 -0.10471686162E+03 -0.36260507784E+03  0.44055336012E+03  0.00000000000E+00 0. -1.
        -15    1    3    3    0    0  0.33148684388E+02  0.35036564233E+02  0.19037435862E+03  0.19639742936E+03  0.17770000000E+01 0. -1.
         15    1    3    3    0    0 -0.44293445191E+02 -0.20188105166E+02  0.76908593726E+02  0.91036028006E+02  0.17770000000E+01 0.  1.
</event>
<event>
 7    1  0.5113431E-006  0.5130720E+03  0.7546771E-02  0.9371026E-01
        -11   -1    0    0    0    0  0.00000000000E+00  0.00000000000E+00  0.50000000000E+03  0.50000000000E+03  0.00000000000E+00 0. -1.
         11   -1    0    0    0    0 -0.00000000000E+00 -0.00000000000E+00 -0.50000000000E+03  0.50000000000E+03  0.00000000000E+00 0.  1.
         23    2    1    2    0    0  0.15838061300E+02  0.14481573192E+02 -0.30552222392E+03  0.31968366256E+03  0.91614707608E+02 0.  0.
        -11    1    1    2    0    0 -0.60409447095E+02  0.56335347147E+02  0.47987072685E+03  0.48692801020E+03  0.00000000000E+00 0. -1.
         11    1    1    2    0    0  0.44571385795E+02 -0.70816920340E+02 -0.17434850293E+03  0.19338832724E+03  0.00000000000E+00 0.  1.
        -15    1    3    3    0    0  0.28767419479E+02  0.43840794561E+02 -0.11411319316E+03  0.12559680837E+03  0.17770000000E+01 0.  1.
         15    1    3    3    0    0 -0.12929358179E+02 -0.29359221369E+02 -0.19140903076E+03  0.19408685419E+03  0.17770000000E+01 0. -1.
</event>
<event>
 7    1  0.2288857E-006  0.4891532E+03  0.7546771E-02  0.9424413E-01
        -11   -1    0    0    0    0  0.00000000000E+00  0.00000000000E+00  0.50000000000E+03  0.50000000000E+03  0.00000000000E+00 0. -1.
         11   -1    0    0    0    0 -0.00000000000E+00 -0.00000000000E+00 -0.50000000000E+03  0.50000000000E+03  0.00000000000E+00 0.  1.
         23    2    1    2    0    0  0.22391180083E+02  0.10343039963E+03  0.46274898429E+03  0.48323672905E+03  0.90453862960E+02 0.  0.
        -11    1    1    2    0    0 -0.23804124321E+02 -0.92132120251E+01  0.15137270599E+02  0.29675858399E+02  0.00000000000E+00 0. -1.
         11    1    1    2    0    0  0.14129442383E+01 -0.94217187609E+02 -0.47788625489E+03  0.48708741255E+03  0.00000000000E+00 0.  1.
        -15    1    3    3    0    0 -0.92187316066E+01  0.12581178653E+02  0.65605488009E+01  0.17013806109E+02  0.17770000000E+01 0.  1.
         15    1    3    3    0    0  0.31609911690E+02  0.90849220981E+02  0.45618843549E+03  0.46622292294E+03  0.17770000000E+01 0. -1.
</event>
<event>
 7    1  0.2288857E-006  0.3679767E+03  0.7546771E-02  0.9756059E-01
        -11   -1    0    0    0    0  0.00000000000E+00  0.00000000000E+00  0.50000000000E+03  0.50000000000E+03  0.00000000000E+00 0.  1.
         11   -1    0    0    0    0 -0.00000000000E+00 -0.00000000000E+00 -0.50000000000E+03  0.50000000000E+03  0.00000000000E+00 0. -1.
         23    2    1    2    0    0  0.65326360828E+02  0.26246985956E+02  0.30190418159E+03  0.32295909873E+03  0.90553889483E+02 0.  0.
        -11    1    1    2    0    0 -0.20811560026E+03  0.32052001917E+02  0.10974167652E+03  0.23745035157E+03  0.00000000000E+00 0.  1.
         11    1    1    2    0    0  0.14278923943E+03 -0.58298987872E+02 -0.41164585811E+03  0.43959054969E+03  0.00000000000E+00 0. -1.
        -15    1    3    3    0    0  0.74544485772E+02  0.48544307455E+02  0.21335221445E+03  0.23116175134E+03  0.17770000000E+01 0.  1.
         15    1    3    3    0    0 -0.92181249444E+01 -0.22297321500E+02  0.88551967146E+02  0.91797347391E+02  0.17770000000E+01 0. -1.
</event>
<event>
 7    1  0.2288857E-006  0.4816118E+03  0.7546771E-02  0.9441922E-01
        -11   -1    0    0    0    0  0.00000000000E+00  0.00000000000E+00  0.50000000000E+03  0.50000000000E+03  0.00000000000E+00 0.  1.
         11   -1    0    0    0    0 -0.00000000000E+00 -0.00000000000E+00 -0.50000000000E+03  0.50000000000E+03  0.00000000000E+00 0. -1.
         23    2    1    2    0    0  0.13053964978E+03 -0.16859408426E+03  0.43269554470E+03  0.49140260220E+03  0.93736426399E+02 0.  0.
        -11    1    1    2    0    0 -0.38273621457E+02 -0.15832011780E+02 -0.17409719872E+02  0.44929066788E+02  0.00000000000E+00 0.  1.
         11    1    1    2    0    0 -0.92266028323E+02  0.18442609604E+03 -0.41528582482E+03  0.46366833101E+03  0.00000000000E+00 0. -1.
        -15    1    3    3    0    0  0.91261227511E+02 -0.16813541500E+03  0.38214551434E+03  0.42735989667E+03  0.17770000000E+01 0.  1.
         15    1    3    3    0    0  0.39278422269E+02 -0.45866926817E+00  0.50550030360E+02  0.64042705532E+02  0.17770000000E+01 0. -1.
</event>
<event>
 7    1  0.2288857E-006  0.3789800E+03  0.7546771E-02  0.9720632E-01
        -11   -1    0    0    0    0  0.00000000000E+00  0.00000000000E+00  0.50000000000E+03  0.50000000000E+03  0.00000000000E+00 0. -1.
         11   -1    0    0    0    0 -0.00000000000E+00 -0.00000000000E+00 -0.50000000000E+03  0.50000000000E+03  0.00000000000E+00 0. -1.
         23    2    1    2    0    0  0.28911058499E+02 -0.37238083065E+02  0.34031234814E+03  0.35475527696E+03  0.88409773772E+02 0.  0.
        -11    1    1    2    0    0 -0.11910425359E+03  0.23834556742E+03 -0.33062407510E+03  0.42462537815E+03  0.00000000000E+00 0. -1.
         11    1    1    2    0    0  0.90193195093E+02 -0.20110748436E+03 -0.96882730395E+01  0.22061934489E+03  0.00000000000E+00 0. -1.
        -15    1    3    3    0    0  0.20318884496E+02  0.23538341163E+02  0.18745428872E+03  0.19002415284E+03  0.17770000000E+01 0.  1.
         15    1    3    3    0    0  0.85921740029E+01 -0.60776424228E+02  0.15285805942E+03  0.16473112412E+03  0.17770000000E+01 0. -1.
</event>
<event>
 7    1  0.3269066E-006  0.5109785E+03  0.7546771E-02  0.9375574E-01
        -11   -1    0    0    0    0  0.00000000000E+00  0.00000000000E+00  0.50000000000E+03  0.50000000000E+03  0.00000000000E+00 0.  1.
         11   -1    0    0    0    0 -0.00000000000E+00 -0.00000000000E+00 -0.50000000000E+03  0.50000000000E+03  0.00000000000E+00 0. -1.
         23    2    1    2    0    0  0.20932463764E+02  0.73170452711E+02 -0.26335921611E+03  0.28853581839E+03  0.90015324231E+02 0.  0.
        -11    1    1    2    0    0 -0.15026624486E+02 -0.20002611327E+03  0.44598859320E+03  0.48902154421E+03  0.00000000000E+00 0.  1.
         11    1    1    2    0    0 -0.59058392783E+01  0.12685566056E+03 -0.18262937709E+03  0.22244263740E+03  0.00000000000E+00 0. -1.
        -15    1    3    3    0    0 -0.23206409648E+02  0.57450645500E+02 -0.20209715543E+03  0.21138952689E+03  0.17770000000E+01 0.  1.
         15    1    3    3    0    0  0.44138873412E+02  0.15719807212E+02 -0.61262060683E+02  0.77146291505E+02  0.17770000000E+01 0. -1.
</event>
<event>
 7    1  0.2288857E-006  0.5152220E+03  0.7546771E-02  0.9366379E-01
        -11   -1    0    0    0    0  0.00000000000E+00  0.00000000000E+00  0.50000000000E+03  0.50000000000E+03  0.00000000000E+00 0.  1.
         11   -1    0    0    0    0 -0.00000000000E+00 -0.00000000000E+00 -0.50000000000E+03  0.50000000000E+03  0.00000000000E+00 0. -1.
         23    2    1    2    0    0 -0.91560056786E+01 -0.98971261332E+02 -0.12049519706E+03  0.18147731045E+03  0.92389277981E+02 0.  0.
        -11    1    1    2    0    0 -0.70081768364E+02  0.28081271021E+03  0.38889900906E+03  0.48477796126E+03  0.00000000000E+00 0.  1.
         11    1    1    2    0    0  0.79237774043E+02 -0.18184144888E+03 -0.26840381200E+03  0.33374472829E+03  0.00000000000E+00 0. -1.
        -15    1    3    3    0    0 -0.37114760045E+02 -0.80698715670E+02 -0.46504223275E+02  0.10027755799E+03  0.17770000000E+01 0.  1.
         15    1    3    3    0    0  0.27958754367E+02 -0.18272545662E+02 -0.73990973782E+02  0.81199752468E+02  0.17770000000E+01 0. -1.
</event>
<event>
 7    1  0.2288857E-006  0.3928327E+03  0.7546771E-02  0.9677818E-01
        -11   -1    0    0    0    0  0.00000000000E+00  0.00000000000E+00  0.50000000000E+03  0.50000000000E+03  0.00000000000E+00 0.  1.
         11   -1    0    0    0    0 -0.00000000000E+00 -0.00000000000E+00 -0.50000000000E+03  0.50000000000E+03  0.00000000000E+00 0.  1.
         23    2    1    2    0    0  0.71006841991E+02 -0.83123386870E+02  0.13387919627E+03  0.19554655135E+03  0.91451328563E+02 0.  0.
        -11    1    1    2    0    0  0.40234887947E+01  0.43343160340E+03 -0.48403776306E+02  0.43614455041E+03  0.00000000000E+00 0.  1.
         11    1    1    2    0    0 -0.75030330786E+02 -0.35030821653E+03 -0.85475419965E+02  0.36830889824E+03  0.00000000000E+00 0.  1.
        -15    1    3    3    0    0 -0.10084829213E+02 -0.55088549887E+02  0.43698638982E+02  0.71057588524E+02  0.17770000000E+01 0.  1.
         15    1    3    3    0    0  0.81091671204E+02 -0.28034836982E+02  0.90180557289E+02  0.12448896283E+03  0.17770000000E+01 0. -1.
</event>
<event>
 7    1  0.2288857E-006  0.3430146E+03  0.7546771E-02  0.9841594E-01
        -11   -1    0    0    0    0  0.00000000000E+00  0.00000000000E+00  0.50000000000E+03  0.50000000000E+03  0.00000000000E+00 0.  1.
         11   -1    0    0    0    0 -0.00000000000E+00 -0.00000000000E+00 -0.50000000000E+03  0.50000000000E+03  0.00000000000E+00 0. -1.
         23    2    1    2    0    0 -0.99826113524E+02 -0.94021267846E+02  0.22469623020E+03  0.27818709604E+03  0.89968954581E+02 0.  0.
        -11    1    1    2    0    0 -0.69583487916E+02  0.19390104159E+03  0.17890444104E+03  0.27284844648E+03  0.00000000000E+00 0.  1.
         11    1    1    2    0    0  0.16940960144E+03 -0.99879773741E+02 -0.40360067124E+03  0.44896445749E+03  0.00000000000E+00 0. -1.
        -15    1    3    3    0    0 -0.11132162786E+03 -0.75673821261E+02  0.21655680216E+03  0.25498831021E+03  0.17770000000E+01 0.  1.
         15    1    3    3    0    0  0.11495514337E+02 -0.18347446585E+02  0.81394280382E+01  0.23198785827E+02  0.17770000000E+01 0. -1.
</event>
<event>
 7    1  0.2288857E-006  0.3502210E+03  0.7546771E-02  0.9816119E-01
        -11   -1    0    0    0    0  0.00000000000E+00  0.00000000000E+00  0.50000000000E+03  0.50000000000E+03  0.00000000000E+00 0.  1.
         11   -1    0    0    0    0 -0.00000000000E+00 -0.00000000000E+00 -0.50000000000E+03  0.50000000000E+03  0.00000000000E+00 0. -1.
         23    2    1    2    0    0 -0.26411362260E+03  0.28595232531E+03  0.23790741511E+02  0.40018857512E+03  0.89778384242E+02 0.  0.
        -11    1    1    2    0    0  0.46713895675E+02 -0.16178648020E+03  0.20178412427E+03  0.26281911276E+03  0.00000000000E+00 0.  1.
         11    1    1    2    0    0  0.21739972692E+03 -0.12416584511E+03 -0.22557486578E+03  0.33699231212E+03  0.00000000000E+00 0. -1.
        -15    1    3    3    0    0 -0.74607623265E+02  0.28725970233E+02  0.60555256613E+01  0.80195423405E+02  0.17770000000E+01 0.  1.
         15    1    3    3    0    0 -0.18950599933E+03  0.25722635508E+03  0.17735215850E+02  0.31999315171E+03  0.17770000000E+01 0. -1.
</event>
<event>
 7    1  0.2288857E-006  0.5310404E+03  0.7546771E-02  0.9332913E-01
        -11   -1    0    0    0    0  0.00000000000E+00  0.00000000000E+00  0.50000000000E+03  0.50000000000E+03  0.00000000000E+00 0.  1.
         11   -1    0    0    0    0 -0.00000000000E+00 -0.00000000000E+00 -0.50000000000E+03  0.50000000000E+03  0.00000000000E+00 0. -1.
         23    2    1    2    0    0  0.11220676835E+03  0.35771871494E+02  0.28373579346E+03  0.31879299602E+03  0.85164477112E+02 0.  0.
        -11    1    1    2    0    0 -0.18845764411E+02 -0.13111746043E+03  0.16583734891E+03  0.21224744418E+03  0.00000000000E+00 0.  1.
         11    1    1    2    0    0 -0.93361003943E+02  0.95345588936E+02 -0.44957314238E+03  0.46895955981E+03  0.00000000000E+00 0. -1.
        -15    1    3    3    0    0  0.48143081983E+02 -0.19264836522E+02  0.58275809576E+02  0.78026392842E+02  0.17770000000E+01 0. -1.
         15    1    3    3    0    0  0.64063686370E+02  0.55036708017E+02  0.22545998389E+03  0.24076660317E+03  0.17770000000E+01 0.  1.
</event>
<event>
 7    1  0.2288857E-006  0.5089852E+03  0.7546771E-02  0.9379926E-01
        -11   -1    0    0    0    0  0.00000000000E+00  0.00000000000E+00  0.50000000000E+03  0.50000000000E+03  0.00000000000E+00 0.  1.
         11   -1    0    0    0    0 -0.00000000000E+00 -0.00000000000E+00 -0.50000000000E+03  0.50000000000E+03  0.00000000000E+00 0.  1.
         23    2    1    2    0    0  0.27534062477E+02  0.48473900435E+02  0.30042619174E+03  0.31878344496E+03  0.90879835367E+02 0.  0.
        -11    1    1    2    0    0  0.24059382394E+02  0.81048062192E+02  0.17037918790E+03  0.19020176112E+03  0.00000000000E+00 0.  1.
         11    1    1    2    0    0 -0.51593444870E+02 -0.12952196263E+03 -0.47080537963E+03  0.49101479392E+03  0.00000000000E+00 0.  1.
        -15    1    3    3    0    0  0.40109630192E+02  0.68894743730E+02  0.25769458840E+03  0.26974974841E+03  0.17770000000E+01 0.  1.
         15    1    3    3    0    0 -0.12575567715E+02 -0.20420843295E+02  0.42731603342E+02  0.49033696550E+02  0.17770000000E+01 0. -1.
</event>
<event>
 7    1  0.2288857E-006  0.3871430E+03  0.7546771E-02  0.9695171E-01
        -11   -1    0    0    0    0  0.00000000000E+00  0.00000000000E+00  0.50000000000E+03  0.50000000000E+03  0.00000000000E+00 0. -1.
         11   -1    0    0    0    0 -0.00000000000E+00 -0.00000000000E+00 -0.50000000000E+03  0.50000000000E+03  0.00000000000E+00 0.  1.
         23    2    1    2    0    0 -0.30827249521E+03 -0.24216433886E+03  0.11759351891E+03  0.41914055265E+03  0.90416087427E+02 0.  0.
        -11    1    1    2    0    0  0.29685425471E+03  0.20706939039E+03  0.87586835241E+02  0.37238640507E+03  0.00000000000E+00 0. -1.
         11    1    1    2    0    0  0.11418240506E+02  0.35094948477E+02 -0.20518035416E+03  0.20847304228E+03  0.00000000000E+00 0.  1.
        -15    1    3    3    0    0 -0.21402241701E+03 -0.19919162615E+03  0.53260903741E+02  0.29719148795E+03  0.17770000000E+01 0.  1.
         15    1    3    3    0    0 -0.94250078201E+02 -0.42972712717E+02  0.64332615173E+02  0.12194906471E+03  0.17770000000E+01 0. -1.
</event>
<event>
 7    1  0.2288857E-006  0.4223902E+03  0.7546771E-02  0.9592464E-01
        -11   -1    0    0    0    0  0.00000000000E+00  0.00000000000E+00  0.50000000000E+03  0.50000000000E+03  0.00000000000E+00 0. -1.
         11   -1    0    0    0    0 -0.00000000000E+00 -0.00000000000E+00 -0.50000000000E+03  0.50000000000E+03  0.00000000000E+00 0.  1.
         23    2    1    2    0    0  0.17812816828E+03  0.12430189248E+03  0.35282341276E+03  0.42500913312E+03  0.94698457416E+02 0.  0.
        -11    1    1    2    0    0 -0.14125088249E+03  0.46738388399E+02  0.32064356538E+02  0.15219859301E+03  0.00000000000E+00 0. -1.
         11    1    1    2    0    0 -0.36877285791E+02 -0.17104028087E+03 -0.38488776930E+03  0.42279227387E+03  0.00000000000E+00 0.  1.
        -15    1    3    3    0    0  0.96326778879E+02  0.11974911632E+03  0.20822066313E+03  0.25880050516E+03  0.17770000000E+01 0. -1.
         15    1    3    3    0    0  0.81801389398E+02  0.45527761558E+01  0.14460274964E+03  0.16620862796E+03  0.17770000000E+01 0.  1.
</event>
<event>
 7    1  0.2288857E-006  0.3896973E+03  0.7546771E-02  0.9687342E-01
        -11   -1    0    0    0    0  0.00000000000E+00  0.00000000000E+00  0.50000000000E+03  0.50000000000E+03  0.00000000000E+00 0. -1.
         11   -1    0    0    0    0 -0.00000000000E+00 -0.00000000000E+00 -0.50000000000E+03  0.50000000000E+03  0.00000000000E+00 0.  1.
         23    2    1    2    0    0 -0.17469485529E+03 -0.35758068762E+02 -0.86182445743E+01  0.20042062272E+03  0.91089076872E+02 0.  0.
        -11    1    1    2    0    0  0.49694789360E+02  0.66756621644E+02  0.38909586600E+03  0.39789648348E+03  0.00000000000E+00 0. -1.
         11    1    1    2    0    0  0.12500006593E+03 -0.30998552882E+02 -0.38047762143E+03  0.40168289380E+03  0.00000000000E+00 0.  1.
        -15    1    3    3    0    0 -0.74856303665E+02  0.26450706976E+02 -0.20950223608E+02  0.82129018600E+02  0.17770000000E+01 0.  1.
         15    1    3    3    0    0 -0.99838551627E+02 -0.62208775738E+02  0.12331979034E+02  0.11829160412E+03  0.17770000000E+01 0. -1.
</event>
<event>
 7    1  0.2288857E-006  0.4730844E+03  0.7546771E-02  0.9462135E-01
        -11   -1    0    0    0    0  0.00000000000E+00  0.00000000000E+00  0.50000000000E+03  0.50000000000E+03  0.00000000000E+00 0. -1.
         11   -1    0    0    0    0 -0.00000000000E+00 -0.00000000000E+00 -0.50000000000E+03  0.50000000000E+03  0.00000000000E+00 0. -1.
         23    2    1    2    0    0  0.25409642013E+03 -0.56963176190E+02 -0.37515369299E+03  0.46588471891E+03  0.92187221365E+02 0.  0.
        -11    1    1    2    0    0 -0.21997768981E+03  0.95312589644E+02  0.40796716993E+03  0.47319328556E+03  0.00000000000E+00 0. -1.
         11    1    1    2    0    0 -0.34118730322E+02 -0.38349413454E+02 -0.32813476940E+02  0.60921995535E+02  0.00000000000E+00 0. -1.
        -15    1    3    3    0    0  0.81841755795E+02 -0.30505517655E+02 -0.60750232233E+02  0.10640680450E+03  0.17770000000E+01 0.  1.
         15    1    3    3    0    0  0.17225466434E+03 -0.26457658535E+02 -0.31440346076E+03  0.35947791440E+03  0.17770000000E+01 0. -1.
</event>
<event>
 7    1  0.2288857E-006  0.5236267E+03  0.7546771E-02  0.9348442E-01
        -11   -1    0    0    0    0  0.00000000000E+00  0.00000000000E+00  0.50000000000E+03  0.50000000000E+03  0.00000000000E+00 0. -1.
         11   -1    0    0    0    0 -0.00000000000E+00 -0.00000000000E+00 -0.50000000000E+03  0.50000000000E+03  0.00000000000E+00 0.  1.
         23    2    1    2    0    0  0.25486991331E+02 -0.76719114865E+01 -0.19304708653E+03  0.21402908314E+03  0.88503253398E+02 0.  0.
        -11    1    1    2    0    0 -0.95514293574E+02 -0.17598624472E+03  0.43224689236E+03  0.47637329330E+03  0.00000000000E+00 0. -1.
         11    1    1    2    0    0  0.70027302243E+02  0.18365815621E+03 -0.23919980584E+03  0.30959762356E+03  0.00000000000E+00 0.  1.
        -15    1    3    3    0    0  0.56609314735E+02 -0.16107804620E+02 -0.10717767844E+03  0.12228772780E+03  0.17770000000E+01 0.  1.
         15    1    3    3    0    0 -0.31122323405E+02  0.84358931336E+01 -0.85869408084E+02  0.91741355347E+02  0.17770000000E+01 0. -1.
</event>
<event>
 7    1  0.2288857E-006  0.5388322E+03  0.7546771E-02  0.9316880E-01
        -11   -1    0    0    0    0  0.00000000000E+00  0.00000000000E+00  0.50000000000E+03  0.50000000000E+03  0.00000000000E+00 0. -1.
         11   -1    0    0    0    0 -0.00000000000E+00 -0.00000000000E+00 -0.50000000000E+03  0.50000000000E+03  0.00000000000E+00 0.  1.
         23    2    1    2    0    0 -0.10400487697E+03 -0.62666889686E+02  0.28280171323E+03  0.32037965028E+03  0.89006504319E+02 0.  0.
        -11    1    1    2    0    0 -0.21382573828E+03 -0.48753712024E+01  0.44455760026E+02  0.21845258111E+03  0.00000000000E+00 0. -1.
         11    1    1    2    0    0  0.31783061525E+03  0.67542260888E+02 -0.32725747326E+03  0.46116776860E+03  0.00000000000E+00 0.  1.
        -15    1    3    3    0    0 -0.14869624287E+02  0.22013112255E+02  0.37552697116E+02  0.46033092741E+02  0.17770000000E+01 0.  1.
         15    1    3    3    0    0 -0.89135252679E+02 -0.84680001941E+02  0.24524901612E+03  0.27434655754E+03  0.17770000000E+01 0. -1.
</event>
<event>
 7    1  0.2288857E-006  0.5166259E+03  0.7546771E-02  0.9363358E-01
        -11   -1    0    0    0    0  0.00000000000E+00  0.00000000000E+00  0.50000000000E+03  0.50000000000E+03  0.00000000000E+00 0.  1.
         11   -1    0    0    0    0 -0.00000000000E+00 -0.00000000000E+00 -0.50000000000E+03  0.50000000000E+03  0.00000000000E+00 0.  1.
         23    2    1    2    0    0 -0.56966923508E+02  0.61724652315E+01  0.35254061342E+03  0.36931267921E+03  0.93934238796E+02 0.  0.
        -11    1    1    2    0    0 -0.10571171880E+03 -0.18792931077E+00  0.10259715288E+03  0.14731319896E+03  0.00000000000E+00 0.  1.
         11    1    1    2    0    0  0.16267864231E+03 -0.59845359207E+01 -0.45513776630E+03  0.48337412182E+03  0.00000000000E+00 0.  1.
        -15    1    3    3    0    0 -0.62820391833E+02  0.35284796951E+02  0.17441055075E+03  0.18871570276E+03  0.17770000000E+01 0.  1.
         15    1    3    3    0    0  0.58534683257E+01 -0.29112331719E+02  0.17813006267E+03  0.18059697646E+03  0.17770000000E+01 0. -1.
</event>
<event>
 7    1  0.2288857E-006  0.5203261E+03  0.7546771E-02  0.9355443E-01
        -11   -1    0    0    0    0  0.00000000000E+00  0.00000000000E+00  0.50000000000E+03  0.50000000000E+03  0.00000000000E+00 0.  1.
         11   -1    0    0    0    0 -0.00000000000E+00 -0.00000000000E+00 -0.50000000000E+03  0.50000000000E+03  0.00000000000E+00 0.  1.
         23    2    1    2    0    0 -0.50434734685E+02 -0.87394345780E+02 -0.95784591633E+01  0.13693992528E+03  0.92083451929E+02 0.  0.
        -11    1    1    2    0    0 -0.26849187849E+03 -0.24936486920E+03 -0.11275746753E+03  0.38338619340E+03  0.00000000000E+00 0.  1.
         11    1    1    2    0    0  0.31892661317E+03  0.33675921498E+03  0.12233592670E+03  0.47967388132E+03  0.00000000000E+00 0.  1.
        -15    1    3    3    0    0 -0.44753168109E+02 -0.10160866450E+03  0.10603468833E+02  0.11154711130E+03  0.17770000000E+01 0.  1.
         15    1    3    3    0    0 -0.56815665754E+01  0.14214318723E+02 -0.20181927996E+02  0.25392813987E+02  0.17770000000E+01 0. -1.
</event>
<event>
 7    1  0.2288857E-006  0.4324246E+03  0.7546771E-02  0.9565168E-01
        -11   -1    0    0    0    0  0.00000000000E+00  0.00000000000E+00  0.50000000000E+03  0.50000000000E+03  0.00000000000E+00 0.  1.
         11   -1    0    0    0    0 -0.00000000000E+00 -0.00000000000E+00 -0.50000000000E+03  0.50000000000E+03  0.00000000000E+00 0. -1.
         23    2    1    2    0    0 -0.18065127812E+03  0.21288561081E+03  0.30812350054E+03  0.42569918006E+03  0.91238877361E+02 0.  0.
        -11    1    1    2    0    0  0.35224774371E+01 -0.10753527668E+03  0.80525818782E+02  0.13438992175E+03  0.00000000000E+00 0.  1.
         11    1    1    2    0    0  0.17712880068E+03 -0.10535033413E+03 -0.38864931932E+03  0.43991089819E+03  0.00000000000E+00 0. -1.
        -15    1    3    3    0    0 -0.16939816743E+03  0.22132582514E+03  0.29939530972E+03  0.40904959261E+03  0.17770000000E+01 0.  1.
         15    1    3    3    0    0 -0.11253110686E+02 -0.84402143363E+01  0.87281908266E+01  0.16649587450E+02  0.17770000000E+01 0. -1.
</event>
<event>
 7    1  0.2288857E-006  0.4118674E+03  0.7546771E-02  0.9621972E-01
        -11   -1    0    0    0    0  0.00000000000E+00  0.00000000000E+00  0.50000000000E+03  0.50000000000E+03  0.00000000000E+00 0.  1.
         11   -1    0    0    0    0 -0.00000000000E+00 -0.00000000000E+00 -0.50000000000E+03  0.50000000000E+03  0.00000000000E+00 0. -1.
         23    2    1    2    0    0  0.15813791934E+03 -0.10609076958E+03  0.32758795660E+03  0.38948853869E+03  0.90136560492E+02 0.  0.
        -11    1    1    2    0    0 -0.77226813995E+02  0.10589365184E+03  0.10654303007E+03  0.16890489500E+03  0.00000000000E+00 0.  1.
         11    1    1    2    0    0 -0.80911105341E+02  0.19711774339E+00 -0.43413098667E+03  0.44160656631E+03  0.00000000000E+00 0. -1.
        -15    1    3    3    0    0  0.16995902527E+03 -0.99179012569E+02  0.30875844088E+03  0.36613860674E+03  0.17770000000E+01 0.  1.
         15    1    3    3    0    0 -0.11821105934E+02 -0.69117570124E+01  0.18829515722E+02  0.23349931945E+02  0.17770000000E+01 0. -1.
</event>
<event>
 7    1  0.2288857E-006  0.4601936E+03  0.7546771E-02  0.9493568E-01
        -11   -1    0    0    0    0  0.00000000000E+00  0.00000000000E+00  0.50000000000E+03  0.50000000000E+03  0.00000000000E+00 0.  1.
         11   -1    0    0    0    0 -0.00000000000E+00 -0.00000000000E+00 -0.50000000000E+03  0.50000000000E+03  0.00000000000E+00 0. -1.
         23    2    1    2    0    0  0.99693293235E+02 -0.46212392351E+02  0.41804117041E+03  0.44156598825E+03  0.90264964958E+02 0.  0.
        -11    1    1    2    0    0 -0.56971668858E+01  0.71015974403E+02  0.45681096788E+02  0.84631489026E+02  0.00000000000E+00 0.  1.
         11    1    1    2    0    0 -0.93996126350E+02 -0.24803582053E+02 -0.46372226719E+03  0.47380252273E+03  0.00000000000E+00 0. -1.
        -15    1    3    3    0    0  0.10078713594E+03 -0.64639659811E+02  0.38981153604E+03  0.40778980339E+03  0.17770000000E+01 0.  1.
         15    1    3    3    0    0 -0.10938427037E+01  0.18427267460E+02  0.28229634366E+02  0.33776184855E+02  0.17770000000E+01 0. -1.
</event>
<event>
 7    1  0.2288857E-006  0.5090817E+03  0.7546771E-02  0.9379715E-01
        -11   -1    0    0    0    0  0.00000000000E+00  0.00000000000E+00  0.50000000000E+03  0.50000000000E+03  0.00000000000E+00 0. -1.
         11   -1    0    0    0    0 -0.00000000000E+00 -0.00000000000E+00 -0.50000000000E+03  0.50000000000E+03  0.00000000000E+00 0. -1.
         23    2    1    2    0    0  0.84113021567E+02 -0.14449610445E+02  0.34705057014E+03  0.36955294112E+03  0.94029178550E+02 0.  0.
        -11    1    1    2    0    0  0.40483799396E+02 -0.51515640940E+02  0.12318875114E+03  0.13952873425E+03  0.00000000000E+00 0. -1.
         11    1    1    2    0    0 -0.12459682096E+03  0.65965251386E+02 -0.47023932127E+03  0.49091832463E+03  0.00000000000E+00 0. -1.
        -15    1    3    3    0    0  0.69445250253E+02 -0.25095007901E+02  0.34304557102E+03  0.35090714403E+03  0.17770000000E+01 0. -1.
         15    1    3    3    0    0  0.14667771314E+02  0.10645397456E+02  0.40049991184E+01  0.18645797094E+02  0.17770000000E+01 0.  1.
</event>
<event>
 7    1  0.2288857E-006  0.5205760E+03  0.7546771E-02  0.9354911E-01
        -11   -1    0    0    0    0  0.00000000000E+00  0.00000000000E+00  0.50000000000E+03  0.50000000000E+03  0.00000000000E+00 0. -1.
         11   -1    0    0    0    0 -0.00000000000E+00 -0.00000000000E+00 -0.50000000000E+03  0.50000000000E+03  0.00000000000E+00 0.  1.
         23    2    1    2    0    0 -0.14814045509E+02 -0.19729422058E+03  0.42670923423E+03  0.47942396445E+03  0.92855272846E+02 0.  0.
        -11    1    1    2    0    0 -0.60529637804E+02  0.15463854756E+03 -0.12827575625E+03  0.20983704889E+03  0.00000000000E+00 0. -1.
         11    1    1    2    0    0  0.75343683313E+02  0.42655673018E+02 -0.29843347798E+03  0.31073898667E+03  0.00000000000E+00 0.  1.
        -15    1    3    3    0    0  0.10558624838E+02 -0.14074520295E+02  0.41698796738E+01  0.18169268161E+02  0.17770000000E+01 0.  1.
         15    1    3    3    0    0 -0.25372670347E+02 -0.18321970028E+03  0.42253935455E+03  0.46125469629E+03  0.17770000000E+01 0. -1.
</event>
<event>
 7    1  0.2288857E-006  0.4739406E+03  0.7546771E-02  0.9460085E-01
        -11   -1    0    0    0    0  0.00000000000E+00  0.00000000000E+00  0.50000000000E+03  0.50000000000E+03  0.00000000000E+00 0.  1.
         11   -1    0    0    0    0 -0.00000000000E+00 -0.00000000000E+00 -0.50000000000E+03  0.50000000000E+03  0.00000000000E+00 0. -1.
         23    2    1    2    0    0 -0.10436654134E+03  0.26745280418E+02  0.42551639283E+03  0.44834576517E+03  0.91334766658E+02 0.  0.
        -11    1    1    2    0    0 -0.28144110928E+02  0.24086505590E+02  0.46103484857E+02  0.59142049740E+02  0.00000000000E+00 0.  1.
         11    1    1    2    0    0  0.13251065226E+03 -0.50831786008E+02 -0.47161987769E+03  0.49251218509E+03  0.00000000000E+00 0. -1.
        -15    1    3    3    0    0 -0.11339239172E+03  0.26307010171E+01  0.31342603989E+03  0.33332235944E+03  0.17770000000E+01 0.  1.
         15    1    3    3    0    0  0.90258503888E+01  0.24114579401E+02  0.11209035294E+03  0.11502340573E+03  0.17770000000E+01 0. -1.
</event>
<event>
 7    1  0.2288857E-006  0.4068850E+03  0.7546771E-02  0.9636274E-01
        -11   -1    0    0    0    0  0.00000000000E+00  0.00000000000E+00  0.50000000000E+03  0.50000000000E+03  0.00000000000E+00 0. -1.
         11   -1    0    0    0    0 -0.00000000000E+00 -0.00000000000E+00 -0.50000000000E+03  0.50000000000E+03  0.00000000000E+00 0. -1.
         23    2    1    2    0    0 -0.33830800073E+01  0.17543934790E+02 -0.14611502894E+03  0.17302327622E+03  0.90929739650E+02 0.  0.
        -11    1    1    2    0    0 -0.29051100122E+03  0.20390994208E+03  0.26201684730E+03  0.44116746772E+03  0.00000000000E+00 0. -1.
         11    1    1    2    0    0  0.29389408122E+03 -0.22145387687E+03 -0.11590181836E+03  0.38580925606E+03  0.00000000000E+00 0. -1.
        -15    1    3    3    0    0  0.35782759241E+02  0.34500104383E+02 -0.72704003824E+02  0.88089119432E+02  0.17770000000E+01 0.  1.
         15    1    3    3    0    0 -0.39165839248E+02 -0.16956169593E+02 -0.73411025116E+02  0.84934156785E+02  0.17770000000E+01 0. -1.
</event>
<event>
 7    1  0.2288857E-006  0.5286542E+03  0.7546771E-02  0.9337882E-01
        -11   -1    0    0    0    0  0.00000000000E+00  0.00000000000E+00  0.50000000000E+03  0.50000000000E+03  0.00000000000E+00 0. -1.
         11   -1    0    0    0    0 -0.00000000000E+00 -0.00000000000E+00 -0.50000000000E+03  0.50000000000E+03  0.00000000000E+00 0.  1.
         23    2    1    2    0    0 -0.75781938516E-01  0.47328933524E+02  0.17673384509E+03  0.20099483922E+03  0.83210814811E+02 0.  0.
        -11    1    1    2    0    0 -0.79078761165E+02 -0.16219367074E+03  0.27349666042E+03  0.32765936666E+03  0.00000000000E+00 0. -1.
         11    1    1    2    0    0  0.79154543104E+02  0.11486473722E+03 -0.45023050551E+03  0.47134579413E+03  0.00000000000E+00 0.  1.
        -15    1    3    3    0    0  0.15117636474E+02  0.64578678039E+02  0.93648471319E+02  0.11476995469E+03  0.17770000000E+01 0.  1.
         15    1    3    3    0    0 -0.15193418412E+02 -0.17249744515E+02  0.83085373770E+02  0.86224884531E+02  0.17770000000E+01 0. -1.
</event>
<event>
 7    1  0.2288857E-006  0.5257124E+03  0.7546771E-02  0.9344046E-01
        -11   -1    0    0    0    0  0.00000000000E+00  0.00000000000E+00  0.50000000000E+03  0.50000000000E+03  0.00000000000E+00 0.  1.
         11   -1    0    0    0    0 -0.00000000000E+00 -0.00000000000E+00 -0.50000000000E+03  0.50000000000E+03  0.00000000000E+00 0. -1.
         23    2    1    2    0    0  0.48482379839E+02 -0.12416067762E+02  0.39731058651E+03  0.41087608357E+03  0.91971484721E+02 0.  0.
        -11    1    1    2    0    0  0.32086277246E+02  0.90081526239E+02  0.63585854346E+02  0.11483628098E+03  0.00000000000E+00 0.  1.
         11    1    1    2    0    0 -0.80568657085E+02 -0.77665458476E+02 -0.46089644086E+03  0.47428763545E+03  0.00000000000E+00 0. -1.
        -15    1    3    3    0    0  0.75587802524E+02 -0.16039324214E+02  0.29592346993E+03  0.30585067206E+03  0.17770000000E+01 0.  1.
         15    1    3    3    0    0 -0.27105422685E+02  0.36232564511E+01  0.10138711658E+03  0.10502541151E+03  0.17770000000E+01 0. -1.
</event>
<event>
 7    1  0.2288857E-006  0.5311280E+03  0.7546771E-02  0.9332732E-01
        -11   -1    0    0    0    0  0.00000000000E+00  0.00000000000E+00  0.50000000000E+03  0.50000000000E+03  0.00000000000E+00 0. -1.
         11   -1    0    0    0    0 -0.00000000000E+00 -0.00000000000E+00 -0.50000000000E+03  0.50000000000E+03  0.00000000000E+00 0. -1.
         23    2    1    2    0    0 -0.16208618435E+03  0.43857599809E+01  0.34279261721E+03  0.39004888048E+03  0.91324611697E+02 0.  0.
        -11    1    1    2    0    0  0.71121638273E+02 -0.37293863927E+02  0.11599218686E+03  0.14107908112E+03  0.00000000000E+00 0. -1.
         11    1    1    2    0    0  0.90964546078E+02  0.32908103946E+02 -0.45878480407E+03  0.46887203840E+03  0.00000000000E+00 0. -1.
        -15    1    3    3    0    0 -0.69830544753E+01 -0.26464430336E+02  0.41004891407E+02  0.49332423122E+02  0.17770000000E+01 0.  1.
         15    1    3    3    0    0 -0.15510312988E+03  0.30850190317E+02  0.30178772581E+03  0.34071645736E+03  0.17770000000E+01 0. -1.
</event>
<event>
 7    1  0.2288857E-006  0.4253678E+03  0.7546771E-02  0.9584281E-01
        -11   -1    0    0    0    0  0.00000000000E+00  0.00000000000E+00  0.50000000000E+03  0.50000000000E+03  0.00000000000E+00 0.  1.
         11   -1    0    0    0    0 -0.00000000000E+00 -0.00000000000E+00 -0.50000000000E+03  0.50000000000E+03  0.00000000000E+00 0. -1.
         23    2    1    2    0    0 -0.21094273109E+02  0.74670451361E+02  0.77374175852E+02  0.14223634584E+03  0.90685006070E+02 0.  0.
        -11    1    1    2    0    0 -0.16192603960E+03 -0.13152000881E+03  0.33977149881E+03  0.39870067271E+03  0.00000000000E+00 0.  1.
         11    1    1    2    0    0  0.18302031271E+03  0.56849557446E+02 -0.41714567466E+03  0.45906298145E+03  0.00000000000E+00 0. -1.
        -15    1    3    3    0    0 -0.25942165531E+02  0.86153954825E+02  0.87920543091E+02  0.12581208015E+03  0.17770000000E+01 0.  1.
         15    1    3    3    0    0  0.48478924229E+01 -0.11483503464E+02 -0.10546367239E+02  0.16424265697E+02  0.17770000000E+01 0. -1.
</event>
<event>
 7    1  0.2288857E-006  0.3768272E+03  0.7546771E-02  0.9727461E-01
        -11   -1    0    0    0    0  0.00000000000E+00  0.00000000000E+00  0.50000000000E+03  0.50000000000E+03  0.00000000000E+00 0.  1.
         11   -1    0    0    0    0 -0.00000000000E+00 -0.00000000000E+00 -0.50000000000E+03  0.50000000000E+03  0.00000000000E+00 0. -1.
         23    2    1    2    0    0  0.20247580425E+02  0.19146336298E+03  0.34576817030E+03  0.40686156799E+03  0.94406165255E+02 0.  0.
        -11    1    1    2    0    0 -0.79459167860E+02 -0.20979078061E+03  0.17127611192E+02  0.22498730197E+03  0.00000000000E+00 0.  1.
         11    1    1    2    0    0  0.59211587436E+02  0.18327417628E+02 -0.36289578149E+03  0.36815113004E+03  0.00000000000E+00 0. -1.
        -15    1    3    3    0    0  0.53513368411E+01  0.19355012140E+03  0.33871070080E+03  0.39015174338E+03  0.17770000000E+01 0.  1.
         15    1    3    3    0    0  0.14896243583E+02 -0.20867584202E+01  0.70574694978E+01  0.16709824604E+02  0.17770000000E+01 0. -1.
</event>
<event>
 7    1  0.2288857E-006  0.5409787E+03  0.7546771E-02  0.9312514E-01
        -11   -1    0    0    0    0  0.00000000000E+00  0.00000000000E+00  0.50000000000E+03  0.50000000000E+03  0.00000000000E+00 0. -1.
         11   -1    0    0    0    0 -0.00000000000E+00 -0.00000000000E+00 -0.50000000000E+03  0.50000000000E+03  0.00000000000E+00 0. -1.
         23    2    1    2    0    0  0.70416363194E+01 -0.17139129315E+02 -0.18912937852E+02  0.96386597462E+02  0.92678706056E+02 0.  0.
        -11    1    1    2    0    0  0.46881108381E+02 -0.76648258168E+02  0.45014190713E+03  0.45902127441E+03  0.00000000000E+00 0. -1.
         11    1    1    2    0    0 -0.53922744701E+02  0.93787387483E+02 -0.43122896928E+03  0.44459212813E+03  0.00000000000E+00 0. -1.
        -15    1    3    3    0    0  0.22110951221E+02 -0.23132955719E+02 -0.51089547652E+02  0.60310259596E+02  0.17770000000E+01 0. -1.
         15    1    3    3    0    0 -0.15069314902E+02  0.59938264035E+01  0.32176609800E+02  0.36076337866E+02  0.17770000000E+01 0.  1.
</event>
<event>
 7    1  0.2288857E-006  0.5332581E+03  0.7546771E-02  0.9328321E-01
        -11   -1    0    0    0    0  0.00000000000E+00  0.00000000000E+00  0.50000000000E+03  0.50000000000E+03  0.00000000000E+00 0. -1.
         11   -1    0    0    0    0 -0.00000000000E+00 -0.00000000000E+00 -0.50000000000E+03  0.50000000000E+03  0.00000000000E+00 0.  1.
         23    2    1    2    0    0 -0.13546397712E+03 -0.67694856205E+02 -0.19971172152E+03  0.26712202759E+03  0.92392225094E+02 0.  0.
        -11    1    1    2    0    0  0.11481877827E+03 -0.13910919708E+02  0.45218484989E+03  0.46674190299E+03  0.00000000000E+00 0. -1.
         11    1    1    2    0    0  0.20645198851E+02  0.81605775913E+02 -0.25247312837E+03  0.26613606942E+03  0.00000000000E+00 0.  1.
        -15    1    3    3    0    0 -0.10205968694E+03 -0.84001121194E+02 -0.18437991229E+03  0.22687326384E+03  0.17770000000E+01 0. -1.
         15    1    3    3    0    0 -0.33404290177E+02  0.16306264990E+02 -0.15331809232E+02  0.40248763751E+02  0.17770000000E+01 0.  1.
</event>
<event>
 7    1  0.2288857E-006  0.4673480E+03  0.7546771E-02  0.9475989E-01
        -11   -1    0    0    0    0  0.00000000000E+00  0.00000000000E+00  0.50000000000E+03  0.50000000000E+03  0.00000000000E+00 0. -1.
         11   -1    0    0    0    0 -0.00000000000E+00 -0.00000000000E+00 -0.50000000000E+03  0.50000000000E+03  0.00000000000E+00 0.  1.
         23    2    1    2    0    0  0.58128611985E+02 -0.82699257765E+02  0.45745993885E+03  0.47787276643E+03  0.94205533177E+02 0.  0.
        -11    1    1    2    0    0  0.59574824735E+02 -0.19905675282E+02 -0.35382256125E+02  0.72092299860E+02  0.00000000000E+00 0. -1.
         11    1    1    2    0    0 -0.11770343672E+03  0.10260493305E+03 -0.42207768272E+03  0.45003493371E+03  0.00000000000E+00 0.  1.
        -15    1    3    3    0    0 -0.17504642429E+02 -0.44505416801E+02  0.10539996108E+03  0.11575601131E+03  0.17770000000E+01 0.  1.
         15    1    3    3    0    0  0.75633254414E+02 -0.38193840964E+02  0.35205997777E+03  0.36211675512E+03  0.17770000000E+01 0. -1.
</event>
<event>
 7    1  0.2288857E-006  0.4733815E+03  0.7546771E-02  0.9461423E-01
        -11   -1    0    0    0    0  0.00000000000E+00  0.00000000000E+00  0.50000000000E+03  0.50000000000E+03  0.00000000000E+00 0.  1.
         11   -1    0    0    0    0 -0.00000000000E+00 -0.00000000000E+00 -0.50000000000E+03  0.50000000000E+03  0.00000000000E+00 0.  1.
         23    2    1    2    0    0  0.23613987906E+02  0.10074773217E+03  0.43364429270E+03  0.45516756139E+03  0.91773691161E+02 0.  0.
        -11    1    1    2    0    0 -0.43898518909E+02 -0.52851103023E+01  0.40975454544E+02  0.60282669387E+02  0.00000000000E+00 0.  1.
         11    1    1    2    0    0  0.20284531004E+02 -0.95462621865E+02 -0.47461974725E+03  0.48454976922E+03  0.00000000000E+00 0.  1.
        -15    1    3    3    0    0  0.57300164052E+02  0.44359822580E+02  0.23681403597E+03  0.24765933866E+03  0.17770000000E+01 0.  1.
         15    1    3    3    0    0 -0.33686176147E+02  0.56387909588E+02  0.19683025673E+03  0.20750822274E+03  0.17770000000E+01 0. -1.
</event>
<event>
 7    1  0.2288857E-006  0.5171667E+03  0.7546771E-02  0.9362196E-01
        -11   -1    0    0    0    0  0.00000000000E+00  0.00000000000E+00  0.50000000000E+03  0.50000000000E+03  0.00000000000E+00 0.  1.
         11   -1    0    0    0    0 -0.00000000000E+00 -0.00000000000E+00 -0.50000000000E+03  0.50000000000E+03  0.00000000000E+00 0. -1.
         23    2    1    2    0    0 -0.51186897305E+02  0.64914454645E+02  0.16803738355E+03  0.20822343562E+03  0.91029951076E+02 0.  0.
        -11    1    1    2    0    0 -0.98510180559E+02  0.22375798526E+03  0.18887576384E+03  0.30894327280E+03  0.00000000000E+00 0.  1.
         11    1    1    2    0    0  0.14969707786E+03 -0.28867243990E+03 -0.35691314739E+03  0.48283329158E+03  0.00000000000E+00 0. -1.
        -15    1    3    3    0    0 -0.10675158976E+02  0.68269266267E+02  0.14694904633E+03  0.16239406295E+03  0.17770000000E+01 0. -1.
         15    1    3    3    0    0 -0.40511738329E+02 -0.33548116219E+01  0.21088337224E+02  0.45829372670E+02  0.17770000000E+01 0.  1.
</event>
<event>
 7    1  0.2288857E-006  0.5224096E+03  0.7546771E-02  0.9351017E-01
        -11   -1    0    0    0    0  0.00000000000E+00  0.00000000000E+00  0.50000000000E+03  0.50000000000E+03  0.00000000000E+00 0.  1.
         11   -1    0    0    0    0 -0.00000000000E+00 -0.00000000000E+00 -0.50000000000E+03  0.50000000000E+03  0.00000000000E+00 0. -1.
         23    2    1    2    0    0 -0.48163221443E+02  0.73841076419E+02  0.21289746697E+03  0.26121765551E+03  0.12303305102E+03 0.  0.
        -11    1    1    2    0    0 -0.39646734222E+02 -0.38762810945E+02  0.25523874320E+03  0.26119195064E+03  0.00000000000E+00 0.  1.
         11    1    1    2    0    0  0.87809955665E+02 -0.35078265474E+02 -0.46813621017E+03  0.47759039385E+03  0.00000000000E+00 0. -1.
        -15    1    3    3    0    0 -0.44530106991E+02  0.86567013696E+02  0.22374623168E+03  0.24401293451E+03  0.17770000000E+01 0.  1.
         15    1    3    3    0    0 -0.36331144516E+01 -0.12725937277E+02 -0.10848764706E+02  0.17204721004E+02  0.17770000000E+01 0. -1.
</event>
<event>
 7    1  0.2288857E-006  0.5254598E+03  0.7546771E-02  0.9344577E-01
        -11   -1    0    0    0    0  0.00000000000E+00  0.00000000000E+00  0.50000000000E+03  0.50000000000E+03  0.00000000000E+00 0. -1.
         11   -1    0    0    0    0 -0.00000000000E+00 -0.00000000000E+00 -0.50000000000E+03  0.50000000000E+03  0.00000000000E+00 0. -1.
         23    2    1    2    0    0 -0.15285813750E+02  0.31225078238E+02 -0.23115173323E+03  0.25236846559E+03  0.95131787714E+02 0.  0.
        -11    1    1    2    0    0  0.44224169077E+02 -0.23633029294E+03  0.40912172419E+03  0.47454016658E+03  0.00000000000E+00 0. -1.
         11    1    1    2    0    0 -0.28938355326E+02  0.20510521470E+03 -0.17796999096E+03  0.27309136784E+03  0.00000000000E+00 0. -1.
        -15    1    3    3    0    0 -0.11612554701E+02 -0.33091905219E+02 -0.60488563377E+02  0.69942473835E+02  0.17770000000E+01 0.  1.
         15    1    3    3    0    0 -0.36732590496E+01  0.64316983457E+02 -0.17066316986E+03  0.18242599175E+03  0.17770000000E+01 0. -1.
</event>
<event>
 7    1  0.2288857E-006  0.3165896E+03  0.7546771E-02  0.9941095E-01
        -11   -1    0    0    0    0  0.00000000000E+00  0.00000000000E+00  0.50000000000E+03  0.50000000000E+03  0.00000000000E+00 0. -1.
         11   -1    0    0    0    0 -0.00000000000E+00 -0.00000000000E+00 -0.50000000000E+03  0.50000000000E+03  0.00000000000E+00 0. -1.
         23    2    1    2    0    0 -0.41788615511E+02 -0.23366774286E+03  0.25689714236E+03  0.36112420807E+03  0.89820094980E+02 0.  0.
        -11    1    1    2    0    0  0.15455901466E+03  0.26066102395E+03  0.53321107447E+02  0.30769432708E+03  0.00000000000E+00 0. -1.
         11    1    1    2    0    0 -0.11277039915E+03 -0.26993281085E+02 -0.31021824980E+03  0.33118146485E+03  0.00000000000E+00 0. -1.
        -15    1    3    3    0    0 -0.35948396948E+02 -0.21672858619E+03  0.18563686332E+03  0.28762435583E+03  0.17770000000E+01 0. -1.
         15    1    3    3    0    0 -0.58402185628E+01 -0.16939156674E+02  0.71260279040E+02  0.73499852242E+02  0.17770000000E+01 0.  1.
</event>
<event>
 7    1  0.2288857E-006  0.4823650E+03  0.7546771E-02  0.9440158E-01
        -11   -1    0    0    0    0  0.00000000000E+00  0.00000000000E+00  0.50000000000E+03  0.50000000000E+03  0.00000000000E+00 0. -1.
         11   -1    0    0    0    0 -0.00000000000E+00 -0.00000000000E+00 -0.50000000000E+03  0.50000000000E+03  0.00000000000E+00 0. -1.
         23    2    1    2    0    0  0.53350049311E+02 -0.62985293514E+02  0.45385371651E+03  0.46886574045E+03  0.83895837909E+02 0.  0.
        -11    1    1    2    0    0 -0.26512145234E+02 -0.14805713350E+02  0.28599283058E+02  0.41713570743E+02  0.00000000000E+00 0. -1.
         11    1    1    2    0    0 -0.26837904077E+02  0.77791006864E+02 -0.48245299957E+03  0.48942068881E+03  0.00000000000E+00 0. -1.
        -15    1    3    3    0    0 -0.17155131405E+02 -0.36996142925E+02  0.12356701428E+03  0.13013446074E+03  0.17770000000E+01 0.  1.
         15    1    3    3    0    0  0.70505180716E+02 -0.25989150588E+02  0.33028670223E+03  0.33873127971E+03  0.17770000000E+01 0. -1.
</event>
<event>
 7    1  0.2288857E-006  0.3488442E+03  0.7546771E-02  0.9820935E-01
        -11   -1    0    0    0    0  0.00000000000E+00  0.00000000000E+00  0.50000000000E+03  0.50000000000E+03  0.00000000000E+00 0.  1.
         11   -1    0    0    0    0 -0.00000000000E+00 -0.00000000000E+00 -0.50000000000E+03  0.50000000000E+03  0.00000000000E+00 0. -1.
         23    2    1    2    0    0  0.62841237218E+02 -0.27687401579E+02 -0.23418338157E+03  0.26086095643E+03  0.92146454561E+02 0.  0.
        -11    1    1    2    0    0  0.16774970487E+03  0.96804705226E+02  0.40163848807E+03  0.44589751013E+03  0.00000000000E+00 0.  1.
         11    1    1    2    0    0 -0.23059094209E+03 -0.69117303647E+02 -0.16745510650E+03  0.29324153344E+03  0.00000000000E+00 0. -1.
        -15    1    3    3    0    0  0.69816872946E+02  0.12800630727E+02 -0.17439919767E+03  0.18829893726E+03  0.17770000000E+01 0.  1.
         15    1    3    3    0    0 -0.69756357275E+01 -0.40488032307E+02 -0.59784183895E+02  0.72562019176E+02  0.17770000000E+01 0. -1.
</event>
<event>
 7    1  0.2288857E-006  0.5392364E+03  0.7546771E-02  0.9316057E-01
        -11   -1    0    0    0    0  0.00000000000E+00  0.00000000000E+00  0.50000000000E+03  0.50000000000E+03  0.00000000000E+00 0. -1.
         11   -1    0    0    0    0 -0.00000000000E+00 -0.00000000000E+00 -0.50000000000E+03  0.50000000000E+03  0.00000000000E+00 0. -1.
         23    2    1    2    0    0  0.62791607937E+01 -0.18555376826E+02  0.15113683254E+03  0.17925823029E+03  0.94379240867E+02 0.  0.
        -11    1    1    2    0    0  0.30997479924E+03 -0.93591425122E+01  0.18279030191E+03  0.35997814403E+03  0.00000000000E+00 0. -1.
         11    1    1    2    0    0 -0.31625396003E+03  0.27914519338E+02 -0.33392713445E+03  0.46076362568E+03  0.00000000000E+00 0. -1.
        -15    1    3    3    0    0  0.31624725977E+02 -0.26299886702E+02  0.14665089061E+03  0.15232021790E+03  0.17770000000E+01 0. -1.
         15    1    3    3    0    0 -0.25345565184E+02  0.77445098754E+01  0.44859419284E+01  0.26938012393E+02  0.17770000000E+01 0.  1.
</event>
<event>
 7    1  0.2288857E-006  0.3782523E+03  0.7546771E-02  0.9722935E-01
        -11   -1    0    0    0    0  0.00000000000E+00  0.00000000000E+00  0.50000000000E+03  0.50000000000E+03  0.00000000000E+00 0. -1.
         11   -1    0    0    0    0 -0.00000000000E+00 -0.00000000000E+00 -0.50000000000E+03  0.50000000000E+03  0.00000000000E+00 0. -1.
         23    2    1    2    0    0  0.40564425593E+02 -0.11671643846E+03  0.31939626061E+03  0.35370015846E+03  0.88439986284E+02 0.  0.
        -11    1    1    2    0    0 -0.17081639749E+03  0.11319256796E+03  0.84688022886E+02  0.22172699500E+03  0.00000000000E+00 0. -1.
         11    1    1    2    0    0  0.13025197189E+03  0.35238705052E+01 -0.40408428350E+03  0.42457284654E+03  0.00000000000E+00 0. -1.
        -15    1    3    3    0    0  0.30970595463E+02 -0.46914380089E+02  0.50059833905E+02  0.75294631562E+02  0.17770000000E+01 0.  1.
         15    1    3    3    0    0  0.95938301302E+01 -0.69802058374E+02  0.26933642671E+03  0.27840552690E+03  0.17770000000E+01 0. -1.
</event>
<event>
 7    1  0.2288857E-006  0.4630761E+03  0.7546771E-02  0.9486445E-01
        -11   -1    0    0    0    0  0.00000000000E+00  0.00000000000E+00  0.50000000000E+03  0.50000000000E+03  0.00000000000E+00 0.  1.
         11   -1    0    0    0    0 -0.00000000000E+00 -0.00000000000E+00 -0.50000000000E+03  0.50000000000E+03  0.00000000000E+00 0. -1.
         23    2    1    2    0    0  0.83841108008E+02 -0.18649450588E+03  0.42199513932E+03  0.47764557927E+03  0.90861816347E+02 0.  0.
        -11    1    1    2    0    0 -0.37370940743E+02  0.70018556100E+02  0.28189764560E+01  0.79417454244E+02  0.00000000000E+00 0.  1.
         11    1    1    2    0    0 -0.46470167265E+02  0.11647594978E+03 -0.42481411577E+03  0.44293696649E+03  0.00000000000E+00 0. -1.
        -15    1    3    3    0    0  0.46903814526E+02 -0.12074387412E+03  0.35064999483E+03  0.37381496433E+03  0.17770000000E+01 0. -1.
         15    1    3    3    0    0  0.36937293482E+02 -0.65750631763E+02  0.71345144486E+02  0.10383061493E+03  0.17770000000E+01 0.  1.
</event>
<event>
 7    1  0.2288857E-006  0.3861706E+03  0.7546771E-02  0.9698168E-01
        -11   -1    0    0    0    0  0.00000000000E+00  0.00000000000E+00  0.50000000000E+03  0.50000000000E+03  0.00000000000E+00 0. -1.
         11   -1    0    0    0    0 -0.00000000000E+00 -0.00000000000E+00 -0.50000000000E+03  0.50000000000E+03  0.00000000000E+00 0.  1.
         23    2    1    2    0    0  0.13638320224E+03 -0.83468192885E+02  0.88355844148E+02  0.20634697025E+03  0.95942690510E+02 0.  0.
        -11    1    1    2    0    0 -0.92601434564E+02  0.12448424769E+01  0.34149227752E+03  0.35382700706E+03  0.00000000000E+00 0. -1.
         11    1    1    2    0    0 -0.43781767672E+02  0.82223350408E+02 -0.42984812167E+03  0.43982602269E+03  0.00000000000E+00 0.  1.
        -15    1    3    3    0    0  0.56822664404E+02 -0.41637093661E+02  0.92574941714E+02  0.11634320058E+03  0.17770000000E+01 0. -1.
         15    1    3    3    0    0  0.79560537832E+02 -0.41831099225E+02 -0.42190975668E+01  0.90003769675E+02  0.17770000000E+01 0.  1.
</event>
<event>
 7    1  0.2288857E-006  0.5142901E+03  0.7546771E-02  0.9368390E-01
        -11   -1    0    0    0    0  0.00000000000E+00  0.00000000000E+00  0.50000000000E+03  0.50000000000E+03  0.00000000000E+00 0.  1.
         11   -1    0    0    0    0 -0.00000000000E+00 -0.00000000000E+00 -0.50000000000E+03  0.50000000000E+03  0.00000000000E+00 0.  1.
         23    2    1    2    0    0 -0.87932456256E+02 -0.29918539990E+02 -0.26441906487E+03  0.29478259325E+03  0.91389821737E+02 0.  0.
        -11    1    1    2    0    0  0.19053327156E+03 -0.41516182384E+02  0.44484553997E+03  0.48570986752E+03  0.00000000000E+00 0.  1.
         11    1    1    2    0    0 -0.10260081531E+03  0.71434722374E+02 -0.18042647511E+03  0.21950753924E+03  0.00000000000E+00 0.  1.
        -15    1    3    3    0    0 -0.99776718634E+02 -0.42373200787E+02 -0.19363576038E+03  0.22192081280E+03  0.17770000000E+01 0.  1.
         15    1    3    3    0    0  0.11844262378E+02  0.12454660797E+02 -0.70783304486E+02  0.72861780446E+02  0.17770000000E+01 0. -1.
</event>
<event>
 7    1  0.2288857E-006  0.5066051E+03  0.7546771E-02  0.9385150E-01
        -11   -1    0    0    0    0  0.00000000000E+00  0.00000000000E+00  0.50000000000E+03  0.50000000000E+03  0.00000000000E+00 0. -1.
         11   -1    0    0    0    0 -0.00000000000E+00 -0.00000000000E+00 -0.50000000000E+03  0.50000000000E+03  0.00000000000E+00 0. -1.
         23    2    1    2    0    0  0.73027085460E+02  0.21093664427E+02  0.32099354293E+03  0.34253302975E+03  0.92272010797E+02 0.  0.
        -11    1    1    2    0    0  0.38380093911E+02  0.26593638386E+02  0.15728762257E+03  0.16407208607E+03  0.00000000000E+00 0. -1.
         11    1    1    2    0    0 -0.11140717937E+03 -0.47687302812E+02 -0.47828116550E+03  0.49339488419E+03  0.00000000000E+00 0. -1.
        -15    1    3    3    0    0  0.23920258175E+02  0.41872851948E+02  0.64524172558E+02  0.80573203081E+02  0.17770000000E+01 0. -1.
         15    1    3    3    0    0  0.49106827285E+02 -0.20779187521E+02  0.25646937037E+03  0.26195982667E+03  0.17770000000E+01 0.  1.
</event>
<event>
 7    1  0.2288857E-006  0.4261400E+03  0.7546771E-02  0.9582170E-01
        -11   -1    0    0    0    0  0.00000000000E+00  0.00000000000E+00  0.50000000000E+03  0.50000000000E+03  0.00000000000E+00 0. -1.
         11   -1    0    0    0    0 -0.00000000000E+00 -0.00000000000E+00 -0.50000000000E+03  0.50000000000E+03  0.00000000000E+00 0.  1.
         23    2    1    2    0    0 -0.12177853521E+03 -0.60995768985E+02  0.37275825908E+03  0.40722425602E+03  0.91281868478E+02 0.  0.
        -11    1    1    2    0    0  0.50405300728E+02  0.11953217352E+03  0.65204956609E+02  0.14519063749E+03  0.00000000000E+00 0. -1.
         11    1    1    2    0    0  0.71373234480E+02 -0.58536404536E+02 -0.43796321569E+03  0.44758510649E+03  0.00000000000E+00 0.  1.
        -15    1    3    3    0    0 -0.18370945396E+02 -0.50557541257E+02  0.78781600974E+02  0.95410979419E+02  0.17770000000E+01 0.  1.
         15    1    3    3    0    0 -0.10340758981E+03 -0.10438227728E+02  0.29397665810E+03  0.31181327660E+03  0.17770000000E+01 0. -1.
</event>
<event>
 7    1  0.2288857E-006  0.5339379E+03  0.7546771E-02  0.9326917E-01
        -11   -1    0    0    0    0  0.00000000000E+00  0.00000000000E+00  0.50000000000E+03  0.50000000000E+03  0.00000000000E+00 0.  1.
         11   -1    0    0    0    0 -0.00000000000E+00 -0.00000000000E+00 -0.50000000000E+03  0.50000000000E+03  0.00000000000E+00 0.  1.
         23    2    1    2    0    0  0.89733476559E+02 -0.14478439681E+03  0.25862487741E+03  0.33006412464E+03  0.11419667588E+03 0.  0.
        -11    1    1    2    0    0  0.29606785185E+02  0.76409718798E+02  0.18668025886E+03  0.20387379896E+03  0.00000000000E+00 0.  1.
         11    1    1    2    0    0 -0.11934026174E+03  0.68374678009E+02 -0.44530513627E+03  0.46606207640E+03  0.00000000000E+00 0.  1.
        -15    1    3    3    0    0  0.20602551384E+02 -0.78463178342E+02  0.20451753990E+03  0.22002617420E+03  0.17770000000E+01 0.  1.
         15    1    3    3    0    0  0.69130925176E+02 -0.66321218465E+02  0.54107337513E+02  0.11003795044E+03  0.17770000000E+01 0. -1.
</event>
<event>
 7    1  0.2288857E-006  0.5144742E+03  0.7546771E-02  0.9367993E-01
        -11   -1    0    0    0    0  0.00000000000E+00  0.00000000000E+00  0.50000000000E+03  0.50000000000E+03  0.00000000000E+00 0.  1.
         11   -1    0    0    0    0 -0.00000000000E+00 -0.00000000000E+00 -0.50000000000E+03  0.50000000000E+03  0.00000000000E+00 0. -1.
         23    2    1    2    0    0 -0.21143808706E+01 -0.39707037458E+02  0.26875507199E+03  0.28915303530E+03  0.98990250403E+02 0.  0.
        -11    1    1    2    0    0  0.41850603842E+02 -0.11291288250E+03  0.19044373020E+03  0.22532111851E+03  0.00000000000E+00 0.  1.
         11    1    1    2    0    0 -0.39736222971E+02  0.15261991996E+03 -0.45919880219E+03  0.48552584618E+03  0.00000000000E+00 0. -1.
        -15    1    3    3    0    0  0.13367955764E+02 -0.63436261090E+02  0.24053309925E+03  0.24912284325E+03  0.17770000000E+01 0.  1.
         15    1    3    3    0    0 -0.15482336634E+02  0.23729223632E+02  0.28221972735E+02  0.40030192054E+02  0.17770000000E+01 0. -1.
</event>
<event>
 7    1  0.2288857E-006  0.5294559E+03  0.7546771E-02  0.9336210E-01
        -11   -1    0    0    0    0  0.00000000000E+00  0.00000000000E+00  0.50000000000E+03  0.50000000000E+03  0.00000000000E+00 0.  1.
         11   -1    0    0    0    0 -0.00000000000E+00 -0.00000000000E+00 -0.50000000000E+03  0.50000000000E+03  0.00000000000E+00 0. -1.
         23    2    1    2    0    0 -0.68556440010E+01  0.59491464410E+02  0.21921487912E+03  0.24501286985E+03  0.91596446286E+02 0.  0.
        -11    1    1    2    0    0 -0.86352375528E+01 -0.14819838456E+03  0.24263240057E+03  0.28444298255E+03  0.00000000000E+00 0.  1.
         11    1    1    2    0    0  0.15490881554E+02  0.88706920150E+02 -0.46184727969E+03  0.47054414761E+03  0.00000000000E+00 0. -1.
        -15    1    3    3    0    0  0.39600916246E+02  0.40026388585E+02  0.88394455868E+02  0.10481928214E+03  0.17770000000E+01 0.  1.
         15    1    3    3    0    0 -0.46456560247E+02  0.19465075825E+02  0.13082042325E+03  0.14019358771E+03  0.17770000000E+01 0. -1.
</event>
<event>
 7    1  0.2288857E-006  0.5103232E+03  0.7546771E-02  0.9377002E-01
        -11   -1    0    0    0    0  0.00000000000E+00  0.00000000000E+00  0.50000000000E+03  0.50000000000E+03  0.00000000000E+00 0.  1.
         11   -1    0    0    0    0 -0.00000000000E+00 -0.00000000000E+00 -0.50000000000E+03  0.50000000000E+03  0.00000000000E+00 0. -1.
         23    2    1    2    0    0 -0.82591032409E+02 -0.68667906893E+02  0.46899301438E+03  0.48967680048E+03  0.91062403435E+02 0.  0.
        -11    1    1    2    0    0 -0.31865427393E+02 -0.30667195482E+02 -0.63057554371E+02  0.77020370714E+02  0.00000000000E+00 0.  1.
         11    1    1    2    0    0  0.11445645980E+03  0.99335102375E+02 -0.40593546001E+03  0.43330282880E+03  0.00000000000E+00 0. -1.
        -15    1    3    3    0    0 -0.10265534126E+03 -0.55019925078E+02  0.38836767678E+03  0.40546013533E+03  0.17770000000E+01 0.  1.
         15    1    3    3    0    0  0.20064308847E+02 -0.13647981815E+02  0.80625337599E+02  0.84216665151E+02  0.17770000000E+01 0. -1.
</event>
<event>
 7    1  0.2288857E-006  0.3932442E+03  0.7546771E-02  0.9676575E-01
        -11   -1    0    0    0    0  0.00000000000E+00  0.00000000000E+00  0.50000000000E+03  0.50000000000E+03  0.00000000000E+00 0. -1.
         11   -1    0    0    0    0 -0.00000000000E+00 -0.00000000000E+00 -0.50000000000E+03  0.50000000000E+03  0.00000000000E+00 0.  1.
         23    2    1    2    0    0  0.49655899119E+02 -0.12194804115E+03  0.32271793865E+03  0.36072131349E+03  0.92929893024E+02 0.  0.
        -11    1    1    2    0    0  0.30047675819E+02  0.16511731230E+03  0.10770391874E+03  0.19941595662E+03  0.00000000000E+00 0. -1.
         11    1    1    2    0    0 -0.79703574938E+02 -0.43169271147E+02 -0.43042185739E+03  0.43986272989E+03  0.00000000000E+00 0.  1.
        -15    1    3    3    0    0  0.20910221065E+02  0.72856377272E+01  0.18391116242E+02  0.28839361084E+02  0.17770000000E+01 0.  1.
         15    1    3    3    0    0  0.28745678053E+02 -0.12923367888E+03  0.30432682241E+03  0.33188195240E+03  0.17770000000E+01 0. -1.
</event>
<event>
 7    1  0.2288857E-006  0.5294083E+03  0.7546771E-02  0.9336309E-01
        -11   -1    0    0    0    0  0.00000000000E+00  0.00000000000E+00  0.50000000000E+03  0.50000000000E+03  0.00000000000E+00 0.  1.
         11   -1    0    0    0    0 -0.00000000000E+00 -0.00000000000E+00 -0.50000000000E+03  0.50000000000E+03  0.00000000000E+00 0. -1.
         23    2    1    2    0    0 -0.83000911338E+01 -0.26786619471E+02 -0.45331911465E+02  0.10707515152E+03  0.92863832464E+02 0.  0.
        -11    1    1    2    0    0  0.23277183975E+03  0.12771771043E+03  0.38853830526E+03  0.47059171008E+03  0.00000000000E+00 0.  1.
         11    1    1    2    0    0 -0.22447174862E+03 -0.10093109095E+03 -0.34320639380E+03  0.42233313840E+03  0.00000000000E+00 0. -1.
        -15    1    3    3    0    0  0.21885438140E+02  0.26015768310E+02 -0.58541881556E+01  0.34543043458E+02  0.17770000000E+01 0.  1.
         15    1    3    3    0    0 -0.30185529274E+02 -0.52802387782E+02 -0.39477723310E+02  0.72532108060E+02  0.17770000000E+01 0. -1.
</event>
<event>
 7    1  0.2288857E-006  0.4422898E+03  0.7546771E-02  0.9539091E-01
        -11   -1    0    0    0    0  0.00000000000E+00  0.00000000000E+00  0.50000000000E+03  0.50000000000E+03  0.00000000000E+00 0.  1.
         11   -1    0    0    0    0 -0.00000000000E+00 -0.00000000000E+00 -0.50000000000E+03  0.50000000000E+03  0.00000000000E+00 0. -1.
         23    2    1    2    0    0 -0.13869789210E+02  0.20978680770E+03  0.39296862980E+03  0.45563179372E+03  0.94726510010E+02 0.  0.
        -11    1    1    2    0    0  0.45937699480E+02 -0.10665097246E+03  0.19714816910E+02  0.11778529690E+03  0.00000000000E+00 0.  1.
         11    1    1    2    0    0 -0.32067910271E+02 -0.10313583524E+03 -0.41268344671E+03  0.42658290938E+03  0.00000000000E+00 0. -1.
        -15    1    3    3    0    0  0.19362786323E+02  0.15046922371E+03  0.32883187636E+03  0.36214564117E+03  0.17770000000E+01 0.  1.
         15    1    3    3    0    0 -0.33232575532E+02  0.59317583994E+02  0.64136753444E+02  0.93486152551E+02  0.17770000000E+01 0. -1.
</event>
<event>
 7    1  0.2288857E-006  0.3638792E+03  0.7546771E-02  0.9769592E-01
        -11   -1    0    0    0    0  0.00000000000E+00  0.00000000000E+00  0.50000000000E+03  0.50000000000E+03  0.00000000000E+00 0.  1.
         11   -1    0    0    0    0 -0.00000000000E+00 -0.00000000000E+00 -0.50000000000E+03  0.50000000000E+03  0.00000000000E+00 0. -1.
         23    2    1    2    0    0  0.14280961521E+03 -0.89243165240E+01  0.16899518618E+03  0.23929907106E+03  0.90721788098E+02 0.  0.
        -11    1    1    2    0    0 -0.17886322800E+03  0.78541562381E+02  0.25965896027E+03  0.32493631222E+03  0.00000000000E+00 0.  1.
         11    1    1    2    0    0  0.36053612783E+02 -0.69617245857E+02 -0.42865414645E+03  0.43576461672E+03  0.00000000000E+00 0. -1.
        -15    1    3    3    0    0  0.22730993866E+01  0.22776272418E+02  0.10945673148E+02  0.25434053074E+02  0.17770000000E+01 0. -1.
         15    1    3    3    0    0  0.14053651583E+03 -0.31700588942E+02  0.15804951303E+03  0.21386501799E+03  0.17770000000E+01 0.  1.
</event>
<event>
 7    1  0.2288857E-006  0.5158046E+03  0.7546771E-02  0.9365124E-01
        -11   -1    0    0    0    0  0.00000000000E+00  0.00000000000E+00  0.50000000000E+03  0.50000000000E+03  0.00000000000E+00 0. -1.
         11   -1    0    0    0    0 -0.00000000000E+00 -0.00000000000E+00 -0.50000000000E+03  0.50000000000E+03  0.00000000000E+00 0.  1.
         23    2    1    2    0    0  0.96389324834E+02  0.88676109061E+02  0.37059015506E+03  0.40374201518E+03  0.92283246226E+02 0.  0.
        -11    1    1    2    0    0 -0.48877876895E+02  0.20575308665E+02  0.98719960551E+02  0.11206257532E+03  0.00000000000E+00 0. -1.
         11    1    1    2    0    0 -0.47511447939E+02 -0.10925141773E+03 -0.46931011561E+03  0.48419540950E+03  0.00000000000E+00 0.  1.
        -15    1    3    3    0    0  0.11288482324E+03  0.64024807681E+02  0.28562303860E+03  0.31372892315E+03  0.17770000000E+01 0. -1.
         15    1    3    3    0    0 -0.16495498404E+02  0.24651301380E+02  0.84967116465E+02  0.90013092030E+02  0.17770000000E+01 0.  1.
</event>
<event>
 7    1  0.2288857E-006  0.5017281E+03  0.7546771E-02  0.9395951E-01
        -11   -1    0    0    0    0  0.00000000000E+00  0.00000000000E+00  0.50000000000E+03  0.50000000000E+03  0.00000000000E+00 0.  1.
         11   -1    0    0    0    0 -0.00000000000E+00 -0.00000000000E+00 -0.50000000000E+03  0.50000000000E+03  0.00000000000E+00 0.  1.
         23    2    1    2    0    0  0.66607940260E+02  0.57956558104E+02  0.48540180503E+03  0.50172805968E+03  0.91217066448E+02 0.  0.
        -11    1    1    2    0    0  0.20688971514E+00 -0.42159975423E+02 -0.14448693563E+03  0.15051239451E+03  0.00000000000E+00 0.  1.
         11    1    1    2    0    0 -0.66814829975E+02 -0.15796582682E+02 -0.34091486940E+03  0.34775954581E+03  0.00000000000E+00 0.  1.
        -15    1    3    3    0    0 -0.21329970687E+02  0.10024153171E+02  0.55729374653E+02  0.60534058385E+02  0.17770000000E+01 0. -1.
         15    1    3    3    0    0  0.87937910947E+02  0.47932404933E+02  0.42967243038E+03  0.44119400130E+03  0.17770000000E+01 0.  1.
</event>
<event>
 7    1  0.2288857E-006  0.5346972E+03  0.7546771E-02  0.9325353E-01
        -11   -1    0    0    0    0  0.00000000000E+00  0.00000000000E+00  0.50000000000E+03  0.50000000000E+03  0.00000000000E+00 0.  1.
         11   -1    0    0    0    0 -0.00000000000E+00 -0.00000000000E+00 -0.50000000000E+03  0.50000000000E+03  0.00000000000E+00 0.  1.
         23    2    1    2    0    0 -0.32800835309E+02  0.10161353955E+03  0.22796213758E+03  0.26745348180E+03  0.90351660422E+02 0.  0.
        -11    1    1    2    0    0 -0.39979234899E+02 -0.12862101082E+03  0.23081922015E+03  0.26724373900E+03  0.00000000000E+00 0.  1.
         11    1    1    2    0    0  0.72780070208E+02  0.27007471266E+02 -0.45878135773E+03  0.46530277919E+03  0.00000000000E+00 0.  1.
        -15    1    3    3    0    0  0.23606483858E+02  0.30508378664E+02  0.12177812627E+03  0.12775404892E+03  0.17770000000E+01 0. -1.
         15    1    3    3    0    0 -0.56407319167E+02  0.71105160887E+02  0.10618401131E+03  0.13969943288E+03  0.17770000000E+01 0.  1.
</event>
<event>
 7    1  0.2288857E-006  0.5161931E+03  0.7546771E-02  0.9364288E-01
        -11   -1    0    0    0    0  0.00000000000E+00  0.00000000000E+00  0.50000000000E+03  0.50000000000E+03  0.00000000000E+00 0.  1.
         11   -1    0    0    0    0 -0.00000000000E+00 -0.00000000000E+00 -0.50000000000E+03  0.50000000000E+03  0.00000000000E+00 0. -1.
         23    2    1    2    0    0 -0.64829462836E+02 -0.19455761922E+02  0.39840303175E+03  0.41436110373E+03  0.91590188649E+02 0.  0.
        -11    1    1    2    0    0 -0.70449778533E+02  0.32573619909E+02  0.65920738536E+02  0.10183199781E+03  0.00000000000E+00 0.  1.
         11    1    1    2    0    0  0.13527924137E+03 -0.13117857987E+02 -0.46432377028E+03  0.48380689846E+03  0.00000000000E+00 0. -1.
        -15    1    3    3    0    0 -0.49632710643E+01  0.11299191362E+02  0.24275955304E+01  0.12702627057E+02  0.17770000000E+01 0. -1.
         15    1    3    3    0    0 -0.59866191772E+02 -0.30754953284E+02  0.39597543622E+03  0.40165847667E+03  0.17770000000E+01 0.  1.
</event>
<event>
 7    1  0.2288857E-006  0.4009718E+03  0.7546771E-02  0.9653534E-01
        -11   -1    0    0    0    0  0.00000000000E+00  0.00000000000E+00  0.50000000000E+03  0.50000000000E+03  0.00000000000E+00 0.  1.
         11   -1    0    0    0    0 -0.00000000000E+00 -0.00000000000E+00 -0.50000000000E+03  0.50000000000E+03  0.00000000000E+00 0. -1.
         23    2    1    2    0    0 -0.46104285642E+02 -0.14667251296E+03 -0.31913965995E+02  0.18282781216E+03  0.93643347123E+02 0.  0.
        -11    1    1    2    0    0  0.36371320137E+03  0.61382120060E+02  0.22862961530E+03  0.43396607991E+03  0.00000000000E+00 0.  1.
         11    1    1    2    0    0 -0.31760891573E+03  0.85290392903E+02 -0.19671564931E+03  0.38320610793E+03  0.00000000000E+00 0. -1.
        -15    1    3    3    0    0 -0.16823630304E+01 -0.10762852809E+02  0.26233776750E+02  0.28461168590E+02  0.17770000000E+01 0.  1.
         15    1    3    3    0    0 -0.44421922612E+02 -0.13590966015E+03 -0.58147742745E+02  0.15436664357E+03  0.17770000000E+01 0. -1.
</event>
<event>
 7    1  0.2288857E-006  0.5103491E+03  0.7546771E-02  0.9376946E-01
        -11   -1    0    0    0    0  0.00000000000E+00  0.00000000000E+00  0.50000000000E+03  0.50000000000E+03  0.00000000000E+00 0.  1.
         11   -1    0    0    0    0 -0.00000000000E+00 -0.00000000000E+00 -0.50000000000E+03  0.50000000000E+03  0.00000000000E+00 0.  1.
         23    2    1    2    0    0 -0.41028567596E+02 -0.58962535204E+02 -0.21405487959E+03  0.24341961111E+03  0.90959835526E+02 0.  0.
        -11    1    1    2    0    0  0.33232917572E+02  0.11092338024E+03  0.47576208461E+03  0.48965087996E+03  0.00000000000E+00 0.  1.
         11    1    1    2    0    0  0.77956500238E+01 -0.51960845036E+02 -0.26170720502E+03  0.26692950893E+03  0.00000000000E+00 0.  1.
        -15    1    3    3    0    0 -0.13385559516E+02  0.18855923522E+02 -0.99639687847E+02  0.10230319730E+03  0.17770000000E+01 0.  1.
         15    1    3    3    0    0 -0.27643008080E+02 -0.77818458726E+02 -0.11441519175E+03  0.14111641381E+03  0.17770000000E+01 0. -1.
</event>
<event>
 7    1  0.2288857E-006  0.4699869E+03  0.7546771E-02  0.9469590E-01
        -11   -1    0    0    0    0  0.00000000000E+00  0.00000000000E+00  0.50000000000E+03  0.50000000000E+03  0.00000000000E+00 0. -1.
         11   -1    0    0    0    0 -0.00000000000E+00 -0.00000000000E+00 -0.50000000000E+03  0.50000000000E+03  0.00000000000E+00 0.  1.
         23    2    1    2    0    0  0.10593899611E+03  0.81232681523E+02  0.44839377771E+03  0.47703637514E+03  0.93192831685E+02 0.  0.
        -11    1    1    2    0    0  0.19677447444E+02  0.55484076956E+02 -0.31890870866E+02  0.66953061007E+02  0.00000000000E+00 0. -1.
         11    1    1    2    0    0 -0.12561644355E+03 -0.13671675848E+03 -0.41650290684E+03  0.45601056385E+03  0.00000000000E+00 0.  1.
        -15    1    3    3    0    0  0.12301133216E+03  0.71540886000E+02  0.40759517250E+03  0.43172545511E+03  0.17770000000E+01 0. -1.
         15    1    3    3    0    0 -0.17072336054E+02  0.96917955236E+01  0.40798605203E+02  0.45310920033E+02  0.17770000000E+01 0.  1.
</event>
<event>
 7    1  0.2288857E-006  0.4634645E+03  0.7546771E-02  0.9485489E-01
        -11   -1    0    0    0    0  0.00000000000E+00  0.00000000000E+00  0.50000000000E+03  0.50000000000E+03  0.00000000000E+00 0.  1.
         11   -1    0    0    0    0 -0.00000000000E+00 -0.00000000000E+00 -0.50000000000E+03  0.50000000000E+03  0.00000000000E+00 0. -1.
         23    2    1    2    0    0  0.10676342727E+02  0.40454633720E+02  0.43391320799E+03  0.44524281293E+03  0.90608656966E+02 0.  0.
        -11    1    1    2    0    0  0.45351985356E+02  0.57533975390E+02  0.28618957378E+02  0.78651164145E+02  0.00000000000E+00 0.  1.
         11    1    1    2    0    0 -0.56028328084E+02 -0.97988609110E+02 -0.46253216537E+03  0.47610602292E+03  0.00000000000E+00 0. -1.
        -15    1    3    3    0    0 -0.97793031976E-02 -0.26334980871E+02  0.64631218886E+02  0.69813204315E+02  0.17770000000E+01 0. -1.
         15    1    3    3    0    0  0.10686122031E+02  0.66789614591E+02  0.36928198910E+03  0.37542960862E+03  0.17770000000E+01 0.  1.
</event>
<event>
 7    1  0.2288857E-006  0.5426684E+03  0.7546771E-02  0.9309092E-01
        -11   -1    0    0    0    0  0.00000000000E+00  0.00000000000E+00  0.50000000000E+03  0.50000000000E+03  0.00000000000E+00 0.  1.
         11   -1    0    0    0    0 -0.00000000000E+00 -0.00000000000E+00 -0.50000000000E+03  0.50000000000E+03  0.00000000000E+00 0. -1.
         23    2    1    2    0    0  0.75304016062E+01 -0.20790377584E+02  0.18043469056E+03  0.20472073602E+03  0.94153892397E+02 0.  0.
        -11    1    1    2    0    0  0.17230660047E+03 -0.25766241203E+03  0.13464449137E+03  0.33794766192E+03  0.00000000000E+00 0.  1.
         11    1    1    2    0    0 -0.17983700208E+03  0.27845278961E+03 -0.31507918193E+03  0.45733160206E+03  0.00000000000E+00 0. -1.
        -15    1    3    3    0    0  0.29362100078E+01  0.37703699251E+02  0.76461659769E+02  0.85321353775E+02  0.17770000000E+01 0.  1.
         15    1    3    3    0    0  0.45941915984E+01 -0.58494076835E+02  0.10397303079E+03  0.11939938225E+03  0.17770000000E+01 0. -1.
</event>
<event>
 7    1  0.2288857E-006  0.5197747E+03  0.7546771E-02  0.9356618E-01
        -11   -1    0    0    0    0  0.00000000000E+00  0.00000000000E+00  0.50000000000E+03  0.50000000000E+03  0.00000000000E+00 0.  1.
         11   -1    0    0    0    0 -0.00000000000E+00 -0.00000000000E+00 -0.50000000000E+03  0.50000000000E+03  0.00000000000E+00 0.  1.
         23    2    1    2    0    0  0.10973509140E+02  0.46207221487E+02  0.18262516667E+03  0.20988416376E+03  0.91890616922E+02 0.  0.
        -11    1    1    2    0    0  0.11265765534E+03 -0.66263060492E+02  0.28097969092E+03  0.30989050841E+03  0.00000000000E+00 0.  1.
         11    1    1    2    0    0 -0.12363116448E+03  0.20055839004E+02 -0.46360485759E+03  0.48022532783E+03  0.00000000000E+00 0.  1.
        -15    1    3    3    0    0  0.28155297311E+02  0.69171021583E+02  0.13195482533E+03  0.15163305922E+03  0.17770000000E+01 0.  1.
         15    1    3    3    0    0 -0.17181788172E+02 -0.22963800096E+02  0.50670341340E+02  0.58251104540E+02  0.17770000000E+01 0. -1.
</event>
<event>
 7    1  0.2288857E-006  0.5255556E+03  0.7546771E-02  0.9344375E-01
        -11   -1    0    0    0    0  0.00000000000E+00  0.00000000000E+00  0.50000000000E+03  0.50000000000E+03  0.00000000000E+00 0.  1.
         11   -1    0    0    0    0 -0.00000000000E+00 -0.00000000000E+00 -0.50000000000E+03  0.50000000000E+03  0.00000000000E+00 0.  1.
         23    2    1    2    0    0 -0.20275556200E+02  0.10405501448E+03  0.32040790771E+03  0.34905691438E+03  0.89112052715E+02 0.  0.
        -11    1    1    2    0    0  0.12186309226E+03  0.20175362516E+02  0.12607194169E+03  0.17649870535E+03  0.00000000000E+00 0.  1.
         11    1    1    2    0    0 -0.10158753606E+03 -0.12423037700E+03 -0.44647984940E+03  0.47444438027E+03  0.00000000000E+00 0.  1.
        -15    1    3    3    0    0 -0.33494861621E+02  0.96104452741E+02  0.31729160349E+03  0.33321928360E+03  0.17770000000E+01 0.  1.
         15    1    3    3    0    0  0.13219305421E+02  0.79505617386E+01  0.31163042214E+01  0.15837630782E+02  0.17770000000E+01 0. -1.
</event>
<event>
 7    1  0.2288857E-006  0.4167621E+03  0.7546771E-02  0.9608131E-01
        -11   -1    0    0    0    0  0.00000000000E+00  0.00000000000E+00  0.50000000000E+03  0.50000000000E+03  0.00000000000E+00 0. -1.
         11   -1    0    0    0    0 -0.00000000000E+00 -0.00000000000E+00 -0.50000000000E+03  0.50000000000E+03  0.00000000000E+00 0.  1.
         23    2    1    2    0    0 -0.35049934809E+02 -0.89317874488E+02  0.86376138296E+02  0.15653719709E+03  0.88526132703E+02 0.  0.
        -11    1    1    2    0    0  0.18718071670E+03  0.12791262314E+03  0.32892889990E+03  0.39949027654E+03  0.00000000000E+00 0. -1.
         11    1    1    2    0    0 -0.15213078189E+03 -0.38594748653E+02 -0.41530503820E+03  0.44397252637E+03  0.00000000000E+00 0.  1.
        -15    1    3    3    0    0 -0.12726478334E+02 -0.45458771025E+02 -0.10019608984E+02  0.48290924687E+02  0.17770000000E+01 0.  1.
         15    1    3    3    0    0 -0.22323456475E+02 -0.43859103463E+02  0.96395747280E+02  0.10824627240E+03  0.17770000000E+01 0. -1.
</event>
<event>
 7    1  0.2288857E-006  0.4044014E+03  0.7546771E-02  0.9643485E-01
        -11   -1    0    0    0    0  0.00000000000E+00  0.00000000000E+00  0.50000000000E+03  0.50000000000E+03  0.00000000000E+00 0. -1.
         11   -1    0    0    0    0 -0.00000000000E+00 -0.00000000000E+00 -0.50000000000E+03  0.50000000000E+03  0.00000000000E+00 0.  1.
         23    2    1    2    0    0  0.21463745288E+02 -0.54834644403E+02  0.33570789827E+03  0.35811025425E+03  0.10988917439E+03 0.  0.
        -11    1    1    2    0    0  0.53452001939E+00  0.14822635742E+03  0.11088072683E+03  0.18511043819E+03  0.00000000000E+00 0. -1.
         11    1    1    2    0    0 -0.21998265308E+02 -0.93391713017E+02 -0.44658862511E+03  0.45677930756E+03  0.00000000000E+00 0.  1.
        -15    1    3    3    0    0  0.65933731525E+02 -0.29366827181E+02  0.22013623352E+03  0.23167387968E+03  0.17770000000E+01 0. -1.
         15    1    3    3    0    0 -0.44469986237E+02 -0.25467817222E+02  0.11557166476E+03  0.12643637457E+03  0.17770000000E+01 0.  1.
</event>
<event>
 7    1  0.2288857E-006  0.3254172E+03  0.7546771E-02  0.9906730E-01
        -11   -1    0    0    0    0  0.00000000000E+00  0.00000000000E+00  0.50000000000E+03  0.50000000000E+03  0.00000000000E+00 0. -1.
         11   -1    0    0    0    0 -0.00000000000E+00 -0.00000000000E+00 -0.50000000000E+03  0.50000000000E+03  0.00000000000E+00 0.  1.
         23    2    1    2    0    0 -0.95904206980E+02 -0.21709787340E+03  0.24616631975E+03  0.35383158958E+03  0.90938623539E+02 0.  0.
        -11    1    1    2    0    0  0.28804871288E+03  0.19699021155E+03 -0.21167037947E+02  0.34960727671E+03  0.00000000000E+00 0. -1.
         11    1    1    2    0    0 -0.19214450590E+03  0.20107661858E+02 -0.22499928181E+03  0.29656113371E+03  0.00000000000E+00 0.  1.
        -15    1    3    3    0    0 -0.27191060454E+02 -0.42864466836E+02  0.89349755426E+01  0.51572355024E+02  0.17770000000E+01 0.  1.
         15    1    3    3    0    0 -0.68713146525E+02 -0.17423340657E+03  0.23723134421E+03  0.30225923456E+03  0.17770000000E+01 0. -1.
</event>
<event>
 7    1  0.2288857E-006  0.5128838E+03  0.7546771E-02  0.9371434E-01
        -11   -1    0    0    0    0  0.00000000000E+00  0.00000000000E+00  0.50000000000E+03  0.50000000000E+03  0.00000000000E+00 0.  1.
         11   -1    0    0    0    0 -0.00000000000E+00 -0.00000000000E+00 -0.50000000000E+03  0.50000000000E+03  0.00000000000E+00 0.  1.
         23    2    1    2    0    0  0.40289953648E+02 -0.36168744560E+02  0.31163152162E+03  0.32961149802E+03  0.92725810408E+02 0.  0.
        -11    1    1    2    0    0  0.37331576009E+02  0.61398510471E+02  0.16859812322E+03  0.18327234054E+03  0.00000000000E+00 0.  1.
         11    1    1    2    0    0 -0.77621529657E+02 -0.25229765910E+02 -0.48022964483E+03  0.48711616144E+03  0.00000000000E+00 0.  1.
        -15    1    3    3    0    0 -0.28112323827E+02  0.31902149540E+00  0.11090197697E+03  0.11442382073E+03  0.17770000000E+01 0.  1.
         15    1    3    3    0    0  0.68402277475E+02 -0.36487766056E+02  0.20072954465E+03  0.21518767729E+03  0.17770000000E+01 0. -1.
</event>
<event>
 7    1  0.2288857E-006  0.5351237E+03  0.7546771E-02  0.9324475E-01
        -11   -1    0    0    0    0  0.00000000000E+00  0.00000000000E+00  0.50000000000E+03  0.50000000000E+03  0.00000000000E+00 0.  1.
         11   -1    0    0    0    0 -0.00000000000E+00 -0.00000000000E+00 -0.50000000000E+03  0.50000000000E+03  0.00000000000E+00 0. -1.
         23    2    1    2    0    0  0.92904039466E+02  0.86769775589E+02 -0.11248703825E+03  0.19179951278E+03  0.89294819695E+02 0.  0.
        -11    1    1    2    0    0 -0.16558715125E+03  0.82032201789E+01  0.43430812709E+03  0.46487627035E+03  0.00000000000E+00 0.  1.
         11    1    1    2    0    0  0.72683111787E+02 -0.94972995768E+02 -0.32182108884E+03  0.34332421687E+03  0.00000000000E+00 0. -1.
        -15    1    3    3    0    0  0.26171315474E+02 -0.56530907091E+01  0.58633033385E+01  0.27466911790E+02  0.17770000000E+01 0.  1.
         15    1    3    3    0    0  0.66732723992E+02  0.92422866299E+02 -0.11835034158E+03  0.16433260099E+03  0.17770000000E+01 0. -1.
</event>
<event>
 7    1  0.2288857E-006  0.5127737E+03  0.7546771E-02  0.9371673E-01
        -11   -1    0    0    0    0  0.00000000000E+00  0.00000000000E+00  0.50000000000E+03  0.50000000000E+03  0.00000000000E+00 0.  1.
         11   -1    0    0    0    0 -0.00000000000E+00 -0.00000000000E+00 -0.50000000000E+03  0.50000000000E+03  0.00000000000E+00 0. -1.
         23    2    1    2    0    0 -0.65064157232E+02 -0.16160439870E+01 -0.16893620508E+03  0.20232325081E+03  0.90328845218E+02 0.  0.
        -11    1    1    2    0    0  0.10220427965E+03  0.41281681431E+02  0.47459409273E+03  0.48722627685E+03  0.00000000000E+00 0.  1.
         11    1    1    2    0    0 -0.37140122422E+02 -0.39665637444E+02 -0.30565788765E+03  0.31045047233E+03  0.00000000000E+00 0. -1.
        -15    1    3    3    0    0 -0.82957397513E+01 -0.37299785339E+02 -0.32120419929E+02  0.49949698595E+02  0.17770000000E+01 0.  1.
         15    1    3    3    0    0 -0.56768417481E+02  0.35683741352E+02 -0.13681578515E+03  0.15237355222E+03  0.17770000000E+01 0. -1.
</event>
<event>
 7    1  0.2288857E-006  0.5264631E+03  0.7546771E-02  0.9342469E-01
        -11   -1    0    0    0    0  0.00000000000E+00  0.00000000000E+00  0.50000000000E+03  0.50000000000E+03  0.00000000000E+00 0.  1.
         11   -1    0    0    0    0 -0.00000000000E+00 -0.00000000000E+00 -0.50000000000E+03  0.50000000000E+03  0.00000000000E+00 0.  1.
         23    2    1    2    0    0 -0.61452332968E+01 -0.21884191677E+02  0.40666053669E+03  0.41792268304E+03  0.93647718396E+02 0.  0.
        -11    1    1    2    0    0  0.89802444183E+02  0.13891140156E+02  0.59359658821E+02  0.10854036969E+03  0.00000000000E+00 0.  1.
         11    1    1    2    0    0 -0.83657210886E+02  0.79930515215E+01 -0.46602019551E+03  0.47353694727E+03  0.00000000000E+00 0.  1.
        -15    1    3    3    0    0 -0.17728195208E+02 -0.53053078302E+02  0.32415831197E+03  0.32895392834E+03  0.17770000000E+01 0.  1.
         15    1    3    3    0    0  0.11582961911E+02  0.31168886624E+02  0.82502224725E+02  0.88968754704E+02  0.17770000000E+01 0. -1.
</event>
<event>
 7    1  0.2288857E-006  0.5118562E+03  0.7546771E-02  0.9373664E-01
        -11   -1    0    0    0    0  0.00000000000E+00  0.00000000000E+00  0.50000000000E+03  0.50000000000E+03  0.00000000000E+00 0. -1.
         11   -1    0    0    0    0 -0.00000000000E+00 -0.00000000000E+00 -0.50000000000E+03  0.50000000000E+03  0.00000000000E+00 0.  1.
         23    2    1    2    0    0  0.35009136510E+01  0.40957775189E+02  0.34194537735E+03  0.35645359884E+03  0.91884336499E+02 0.  0.
        -11    1    1    2    0    0  0.67277097670E+02  0.40356896660E+02  0.13414575154E+03  0.15540260498E+03  0.00000000000E+00 0. -1.
         11    1    1    2    0    0 -0.70778011321E+02 -0.81314671849E+02 -0.47609112888E+03  0.48814379618E+03  0.00000000000E+00 0.  1.
        -15    1    3    3    0    0 -0.24463902295E+02  0.56957374117E+02  0.15864893995E+03  0.17033868867E+03  0.17770000000E+01 0. -1.
         15    1    3    3    0    0  0.27964815946E+02 -0.15999598928E+02  0.18329643740E+03  0.18611491017E+03  0.17770000000E+01 0.  1.
</event>
<event>
 7    1  0.2288857E-006  0.3798714E+03  0.7546771E-02  0.9717818E-01
        -11   -1    0    0    0    0  0.00000000000E+00  0.00000000000E+00  0.50000000000E+03  0.50000000000E+03  0.00000000000E+00 0.  1.
         11   -1    0    0    0    0 -0.00000000000E+00 -0.00000000000E+00 -0.50000000000E+03  0.50000000000E+03  0.00000000000E+00 0. -1.
         23    2    1    2    0    0 -0.65836138521E+02  0.31275864600E+03  0.23829782143E+03  0.41003536630E+03  0.95868566995E+02 0.  0.
        -11    1    1    2    0    0 -0.10848200909E+03 -0.18251726919E+03  0.60089408063E+02  0.22066181548E+03  0.00000000000E+00 0.  1.
         11    1    1    2    0    0  0.17431814761E+03 -0.13024137681E+03 -0.29838722949E+03  0.36930281822E+03  0.00000000000E+00 0. -1.
        -15    1    3    3    0    0  0.96322956098E+01  0.40114439977E+02  0.18514742143E+01  0.41334429948E+02  0.17770000000E+01 0. -1.
         15    1    3    3    0    0 -0.75468434131E+02  0.27264420602E+03  0.23644634722E+03  0.36870093635E+03  0.17770000000E+01 0.  1.
</event>
<event>
 7    1  0.2288857E-006  0.4755853E+03  0.7546771E-02  0.9456160E-01
        -11   -1    0    0    0    0  0.00000000000E+00  0.00000000000E+00  0.50000000000E+03  0.50000000000E+03  0.00000000000E+00 0. -1.
         11   -1    0    0    0    0 -0.00000000000E+00 -0.00000000000E+00 -0.50000000000E+03  0.50000000000E+03  0.00000000000E+00 0.  1.
         23    2    1    2    0    0  0.22520401396E+03 -0.11194543819E+03  0.38348354164E+03  0.46781354936E+03  0.92418944057E+02 0.  0.
        -11    1    1    2    0    0 -0.38765542854E+02 -0.24190859199E+02  0.32751923788E+02  0.56219689552E+02  0.00000000000E+00 0. -1.
         11    1    1    2    0    0 -0.18643847111E+03  0.13613629739E+03 -0.41623546543E+03  0.47596676109E+03  0.00000000000E+00 0.  1.
        -15    1    3    3    0    0 -0.51923749263E+00 -0.20226029655E+02  0.56452884463E+02  0.59995397960E+02  0.17770000000E+01 0.  1.
         15    1    3    3    0    0  0.22572325146E+03 -0.91719408539E+02  0.32703065718E+03  0.40781815140E+03  0.17770000000E+01 0. -1.
</event>
<event>
 7    1  0.2288857E-006  0.5272213E+03  0.7546771E-02  0.9340879E-01
        -11   -1    0    0    0    0  0.00000000000E+00  0.00000000000E+00  0.50000000000E+03  0.50000000000E+03  0.00000000000E+00 0. -1.
         11   -1    0    0    0    0 -0.00000000000E+00 -0.00000000000E+00 -0.50000000000E+03  0.50000000000E+03  0.00000000000E+00 0. -1.
         23    2    1    2    0    0  0.69370966766E+02 -0.47447149973E+02 -0.97988584907E+02  0.15191420904E+03  0.80078717924E+02 0.  0.
        -11    1    1    2    0    0 -0.81946128654E+02 -0.32358043071E+02  0.46449700726E+03  0.47277868047E+03  0.00000000000E+00 0. -1.
         11    1    1    2    0    0  0.12575161889E+02  0.79805193044E+02 -0.36650842235E+03  0.37530711050E+03  0.00000000000E+00 0. -1.
        -15    1    3    3    0    0 -0.82075327727E+01 -0.32678840163E+02 -0.47142175870E+02  0.57972516448E+02  0.17770000000E+01 0. -1.
         15    1    3    3    0    0  0.77578499538E+02 -0.14768309810E+02 -0.50846409037E+02  0.93941692588E+02  0.17770000000E+01 0.  1.
</event>
<event>
 7    1  0.2288857E-006  0.5180802E+03  0.7546771E-02  0.9360239E-01
        -11   -1    0    0    0    0  0.00000000000E+00  0.00000000000E+00  0.50000000000E+03  0.50000000000E+03  0.00000000000E+00 0.  1.
         11   -1    0    0    0    0 -0.00000000000E+00 -0.00000000000E+00 -0.50000000000E+03  0.50000000000E+03  0.00000000000E+00 0.  1.
         23    2    1    2    0    0 -0.23355588093E+02 -0.18174749295E+03 -0.30826274708E+03  0.36831827974E+03  0.83992852461E+02 0.  0.
        -11    1    1    2    0    0 -0.13605190006E+01  0.16044177583E+03  0.45442635972E+03  0.48191983862E+03  0.00000000000E+00 0.  1.
         11    1    1    2    0    0  0.24716107093E+02  0.21305717122E+02 -0.14616361264E+03  0.14976188164E+03  0.00000000000E+00 0.  1.
        -15    1    3    3    0    0  0.22501389671E+01 -0.15140657082E+03 -0.18652367520E+03  0.24025663769E+03  0.17770000000E+01 0.  1.
         15    1    3    3    0    0 -0.25605727060E+02 -0.30340922123E+02 -0.12173907188E+03  0.12806164205E+03  0.17770000000E+01 0. -1.
</event>
<event>
 7    1  0.2288857E-006  0.5402490E+03  0.7546771E-02  0.9313996E-01
        -11   -1    0    0    0    0  0.00000000000E+00  0.00000000000E+00  0.50000000000E+03  0.50000000000E+03  0.00000000000E+00 0.  1.
         11   -1    0    0    0    0 -0.00000000000E+00 -0.00000000000E+00 -0.50000000000E+03  0.50000000000E+03  0.00000000000E+00 0. -1.
         23    2    1    2    0    0 -0.49208186287E+01  0.13856692861E+02  0.16683759767E+02  0.95870375502E+02  0.93255341219E+02 0.  0.
        -11    1    1    2    0    0  0.17592157890E+03  0.60186740638E+02  0.40361056592E+03  0.44437859376E+03  0.00000000000E+00 0.  1.
         11    1    1    2    0    0 -0.17100076027E+03 -0.74043433499E+02 -0.42029432569E+03  0.45975103074E+03  0.00000000000E+00 0. -1.
        -15    1    3    3    0    0  0.20025051108E+02 -0.23193421830E+02 -0.21177226939E+02  0.37290349393E+02  0.17770000000E+01 0.  1.
         15    1    3    3    0    0 -0.24945869737E+02  0.37050114691E+02  0.37860986706E+02  0.58580026109E+02  0.17770000000E+01 0. -1.
</event>
<event>
 7    1  0.2288857E-006  0.3330936E+03  0.7546771E-02  0.9877785E-01
        -11   -1    0    0    0    0  0.00000000000E+00  0.00000000000E+00  0.50000000000E+03  0.50000000000E+03  0.00000000000E+00 0. -1.
         11   -1    0    0    0    0 -0.00000000000E+00 -0.00000000000E+00 -0.50000000000E+03  0.50000000000E+03  0.00000000000E+00 0. -1.
         23    2    1    2    0    0  0.56489498786E+01  0.23686513691E+03 -0.19996060682E+03  0.32578233685E+03  0.10006439428E+03 0.  0.
        -11    1    1    2    0    0 -0.28200049474E+03 -0.15594000405E+03  0.21247598337E+03  0.38598912861E+03  0.00000000000E+00 0. -1.
         11    1    1    2    0    0  0.27635154486E+03 -0.80925132863E+02 -0.12515376550E+02  0.28822853454E+03  0.00000000000E+00 0. -1.
        -15    1    3    3    0    0  0.16766530309E+02  0.47130515727E+02 -0.21322532973E+00  0.50056021070E+02  0.17770000000E+01 0.  1.
         15    1    3    3    0    0 -0.11117580431E+02  0.18973462119E+03 -0.19974738149E+03  0.27572631578E+03  0.17770000000E+01 0. -1.
</event>
<event>
 7    1  0.2288857E-006  0.4197015E+03  0.7546771E-02  0.9599916E-01
        -11   -1    0    0    0    0  0.00000000000E+00  0.00000000000E+00  0.50000000000E+03  0.50000000000E+03  0.00000000000E+00 0.  1.
         11   -1    0    0    0    0 -0.00000000000E+00 -0.00000000000E+00 -0.50000000000E+03  0.50000000000E+03  0.00000000000E+00 0. -1.
         23    2    1    2    0    0 -0.51033015919E+02  0.65188440201E+02 -0.88268708577E+02  0.15191827909E+03  0.91836251882E+02 0.  0.
        -11    1    1    2    0    0  0.13824068151E+03  0.12252276809E+03  0.41900626813E+03  0.45791764266E+03  0.00000000000E+00 0.  1.
         11    1    1    2    0    0 -0.87207665593E+02 -0.18771120829E+03 -0.33073755955E+03  0.39016407825E+03  0.00000000000E+00 0. -1.
        -15    1    3    3    0    0 -0.34199689380E+02  0.54379276545E+02 -0.30192746443E+01  0.64335046589E+02  0.17770000000E+01 0.  1.
         15    1    3    3    0    0 -0.16833326539E+02  0.10809163656E+02 -0.85249433932E+02  0.87583232505E+02  0.17770000000E+01 0. -1.
</event>
<event>
 7    1  0.2288857E-006  0.4478845E+03  0.7546771E-02  0.9524623E-01
        -11   -1    0    0    0    0  0.00000000000E+00  0.00000000000E+00  0.50000000000E+03  0.50000000000E+03  0.00000000000E+00 0.  1.
         11   -1    0    0    0    0 -0.00000000000E+00 -0.00000000000E+00 -0.50000000000E+03  0.50000000000E+03  0.00000000000E+00 0. -1.
         23    2    1    2    0    0 -0.99384135181E+01  0.34412435323E+02 -0.56262782341E+01  0.10349746027E+03  0.96938545009E+02 0.  0.
        -11    1    1    2    0    0 -0.73731281616E+02 -0.31306580807E+02  0.44351017793E+03  0.45068579057E+03  0.00000000000E+00 0.  1.
         11    1    1    2    0    0  0.83669695134E+02 -0.31058545155E+01 -0.43788389970E+03  0.44581674916E+03  0.00000000000E+00 0. -1.
        -15    1    3    3    0    0  0.25883497563E+02 -0.36370389540E+01 -0.34847941420E+02  0.43597250471E+02  0.17770000000E+01 0. -1.
         15    1    3    3    0    0 -0.35821911081E+02  0.38049474277E+02  0.29221663185E+02  0.59900209804E+02  0.17770000000E+01 0.  1.
</event>
<event>
 7    1  0.2288857E-006  0.4171264E+03  0.7546771E-02  0.9607109E-01
        -11   -1    0    0    0    0  0.00000000000E+00  0.00000000000E+00  0.50000000000E+03  0.50000000000E+03  0.00000000000E+00 0.  1.
         11   -1    0    0    0    0 -0.00000000000E+00 -0.00000000000E+00 -0.50000000000E+03  0.50000000000E+03  0.00000000000E+00 0.  1.
         23    2    1    2    0    0 -0.29998188824E+02  0.53802136533E+02  0.11037225951E+03  0.15622612633E+03  0.91815062230E+02 0.  0.
        -11    1    1    2    0    0  0.16043271499E+03 -0.13586414142E+03  0.32211619866E+03  0.38465122697E+03  0.00000000000E+00 0.  1.
         11    1    1    2    0    0 -0.13043452617E+03  0.82062004885E+02 -0.43248845817E+03  0.45912264670E+03  0.00000000000E+00 0.  1.
        -15    1    3    3    0    0 -0.24416811738E+02  0.75877324058E+02  0.56518274689E+02  0.97729330830E+02  0.17770000000E+01 0.  1.
         15    1    3    3    0    0 -0.55813770865E+01 -0.22075187525E+02  0.53853984817E+02  0.58496795503E+02  0.17770000000E+01 0. -1.
</event>
<event>
 7    1  0.2288857E-006  0.4171710E+03  0.7546771E-02  0.9606984E-01
        -11   -1    0    0    0    0  0.00000000000E+00  0.00000000000E+00  0.50000000000E+03  0.50000000000E+03  0.00000000000E+00 0.  1.
         11   -1    0    0    0    0 -0.00000000000E+00 -0.00000000000E+00 -0.50000000000E+03  0.50000000000E+03  0.00000000000E+00 0.  1.
         23    2    1    2    0    0  0.16285883041E+03  0.26682463894E+03 -0.24321530433E+03  0.40604868903E+03  0.89462098189E+02 0.  0.
        -11    1    1    2    0    0 -0.30982558191E+03 -0.20716748365E+03  0.22229391635E+03  0.43396410305E+03  0.00000000000E+00 0.  1.
         11    1    1    2    0    0  0.14696675150E+03 -0.59657155290E+02  0.20921387979E+02  0.15998720792E+03  0.00000000000E+00 0.  1.
        -15    1    3    3    0    0  0.98051416029E+02  0.88564436630E+02 -0.71799742890E+02  0.15038650348E+03  0.17770000000E+01 0. -1.
         15    1    3    3    0    0  0.64807414385E+02  0.17826020231E+03 -0.17141556144E+03  0.25566218555E+03  0.17770000000E+01 0.  1.
</event>
<event>
 7    1  0.2288857E-006  0.5205912E+03  0.7546771E-02  0.9354879E-01
        -11   -1    0    0    0    0  0.00000000000E+00  0.00000000000E+00  0.50000000000E+03  0.50000000000E+03  0.00000000000E+00 0. -1.
         11   -1    0    0    0    0 -0.00000000000E+00 -0.00000000000E+00 -0.50000000000E+03  0.50000000000E+03  0.00000000000E+00 0.  1.
         23    2    1    2    0    0 -0.35454129000E+02  0.49943460460E+02 -0.24397306141E+03  0.26705854120E+03  0.89699861931E+02 0.  0.
        -11    1    1    2    0    0  0.19614745511E+03 -0.16174125272E+02  0.43714683207E+03  0.47940878096E+03  0.00000000000E+00 0. -1.
         11    1    1    2    0    0 -0.16069332611E+03 -0.33769335188E+02 -0.19317377066E+03  0.25353267783E+03  0.00000000000E+00 0.  1.
        -15    1    3    3    0    0 -0.33986009548E+02  0.21618296241E+01 -0.19729766328E+03  0.20022299572E+03  0.17770000000E+01 0.  1.
         15    1    3    3    0    0 -0.14681194522E+01  0.47781630836E+02 -0.46675398133E+02  0.66835545483E+02  0.17770000000E+01 0. -1.
</event>
<event>
 7    1  0.2288857E-006  0.4138239E+03  0.7546771E-02  0.9616415E-01
        -11   -1    0    0    0    0  0.00000000000E+00  0.00000000000E+00  0.50000000000E+03  0.50000000000E+03  0.00000000000E+00 0.  1.
         11   -1    0    0    0    0 -0.00000000000E+00 -0.00000000000E+00 -0.50000000000E+03  0.50000000000E+03  0.00000000000E+00 0. -1.
         23    2    1    2    0    0 -0.11778283670E+03 -0.13101125970E+02 -0.42432791803E+02  0.16283459619E+03  0.10329631055E+03 0.  0.
        -11    1    1    2    0    0  0.15186891358E+03 -0.14208725559E+03  0.39724983148E+03  0.44839757328E+03  0.00000000000E+00 0.  1.
         11    1    1    2    0    0 -0.34086076881E+02  0.15518838156E+03 -0.35481703968E+03  0.38876783053E+03  0.00000000000E+00 0. -1.
        -15    1    3    3    0    0 -0.66204095751E+02 -0.83595469756E+01  0.30476915231E+02  0.73381635379E+02  0.17770000000E+01 0.  1.
         15    1    3    3    0    0 -0.51578740947E+02 -0.47415789944E+01 -0.72909707034E+02  0.89452960811E+02  0.17770000000E+01 0. -1.
</event>
<event>
 7    1  0.2288857E-006  0.3547015E+03  0.7546771E-02  0.9800609E-01
        -11   -1    0    0    0    0  0.00000000000E+00  0.00000000000E+00  0.50000000000E+03  0.50000000000E+03  0.00000000000E+00 0.  1.
         11   -1    0    0    0    0 -0.00000000000E+00 -0.00000000000E+00 -0.50000000000E+03  0.50000000000E+03  0.00000000000E+00 0. -1.
         23    2    1    2    0    0  0.18015616716E+03  0.25622063133E+03  0.26731303444E+03  0.42141619223E+03  0.89610781775E+02 0.  0.
        -11    1    1    2    0    0 -0.26536241072E+03 -0.17854799801E+03 -0.38219866859E+02  0.32211388489E+03  0.00000000000E+00 0.  1.
         11    1    1    2    0    0  0.85206243558E+02 -0.77672633323E+02 -0.22909316758E+03  0.25646992287E+03  0.00000000000E+00 0. -1.
        -15    1    3    3    0    0  0.12430418465E+01  0.55665032700E+02  0.32317009262E+02  0.64402545254E+02  0.17770000000E+01 0. -1.
         15    1    3    3    0    0  0.17891312532E+03  0.20055559863E+03  0.23499602517E+03  0.35701364698E+03  0.17770000000E+01 0.  1.
</event>
<event>
 7    1  0.2288857E-006  0.5308733E+03  0.7546771E-02  0.9333260E-01
        -11   -1    0    0    0    0  0.00000000000E+00  0.00000000000E+00  0.50000000000E+03  0.50000000000E+03  0.00000000000E+00 0.  1.
         11   -1    0    0    0    0 -0.00000000000E+00 -0.00000000000E+00 -0.50000000000E+03  0.50000000000E+03  0.00000000000E+00 0. -1.
         23    2    1    2    0    0  0.44686616831E+02 -0.53959843045E+02  0.12041631881E+03  0.16631448267E+03  0.90839743084E+02 0.  0.
        -11    1    1    2    0    0 -0.13239965303E+03  0.19191529660E+02  0.33912412399E+03  0.36455884903E+03  0.00000000000E+00 0.  1.
         11    1    1    2    0    0  0.87713036200E+02  0.34768313386E+02 -0.45954044281E+03  0.46912666830E+03  0.00000000000E+00 0. -1.
        -15    1    3    3    0    0  0.13123614289E+02  0.25754418276E+02  0.31074313315E+02  0.42476934797E+02  0.17770000000E+01 0. -1.
         15    1    3    3    0    0  0.31563002542E+02 -0.79714261321E+02  0.89342005496E+02  0.12383754787E+03  0.17770000000E+01 0.  1.
</event>
<event>
 7    1  0.2288857E-006  0.4127402E+03  0.7546771E-02  0.9619489E-01
        -11   -1    0    0    0    0  0.00000000000E+00  0.00000000000E+00  0.50000000000E+03  0.50000000000E+03  0.00000000000E+00 0.  1.
         11   -1    0    0    0    0 -0.00000000000E+00 -0.00000000000E+00 -0.50000000000E+03  0.50000000000E+03  0.00000000000E+00 0. -1.
         23    2    1    2    0    0  0.21707170681E+02  0.28027371659E+02  0.35677520728E+03  0.37000970187E+03  0.91443403981E+02 0.  0.
        -11    1    1    2    0    0  0.12623491502E+03 -0.77775968837E+02  0.78363189093E+02  0.16770552914E+03  0.00000000000E+00 0.  1.
         11    1    1    2    0    0 -0.14794208570E+03  0.49748597178E+02 -0.43513839637E+03  0.46228476899E+03  0.00000000000E+00 0. -1.
        -15    1    3    3    0    0  0.53660952999E+00  0.59674386737E+02  0.23054593521E+03  0.23815101586E+03  0.17770000000E+01 0.  1.
         15    1    3    3    0    0  0.21170561151E+02 -0.31647015077E+02  0.12622927207E+03  0.13185868602E+03  0.17770000000E+01 0. -1.
</event>
<event>
 7    1  0.2288857E-006  0.4111440E+03  0.7546771E-02  0.9624035E-01
        -11   -1    0    0    0    0  0.00000000000E+00  0.00000000000E+00  0.50000000000E+03  0.50000000000E+03  0.00000000000E+00 0.  1.
         11   -1    0    0    0    0 -0.00000000000E+00 -0.00000000000E+00 -0.50000000000E+03  0.50000000000E+03  0.00000000000E+00 0. -1.
         23    2    1    2    0    0 -0.22729752944E+03 -0.22063968284E+02  0.36469575635E+03  0.43984155816E+03  0.91140638579E+02 0.  0.
        -11    1    1    2    0    0  0.16778170517E+03 -0.22826429291E+02  0.17989153653E+02  0.17028022819E+03  0.00000000000E+00 0.  1.
         11    1    1    2    0    0  0.59515824268E+02  0.44890397575E+02 -0.38268491000E+03  0.38987821365E+03  0.00000000000E+00 0. -1.
        -15    1    3    3    0    0 -0.15625183204E+03  0.78962683596E+01  0.17324269853E+03  0.23343773558E+03  0.17770000000E+01 0.  1.
         15    1    3    3    0    0 -0.71045697401E+02 -0.29960236643E+02  0.19145305782E+03  0.20640382258E+03  0.17770000000E+01 0. -1.
</event>
<event>
 7    1  0.2288857E-006  0.5111572E+03  0.7546771E-02  0.9375185E-01
        -11   -1    0    0    0    0  0.00000000000E+00  0.00000000000E+00  0.50000000000E+03  0.50000000000E+03  0.00000000000E+00 0.  1.
         11   -1    0    0    0    0 -0.00000000000E+00 -0.00000000000E+00 -0.50000000000E+03  0.50000000000E+03  0.00000000000E+00 0. -1.
         23    2    1    2    0    0  0.14377942156E+03 -0.94870541721E+02 -0.30860326421E+03  0.36520655352E+03  0.92015815495E+02 0.  0.
        -11    1    1    2    0    0 -0.13907111881E+03  0.14353351094E+03  0.44612177085E+03  0.48884279607E+03  0.00000000000E+00 0.  1.
         11    1    1    2    0    0 -0.47083027539E+01 -0.48662969218E+02 -0.13751850664E+03  0.14595065041E+03  0.00000000000E+00 0. -1.
        -15    1    3    3    0    0  0.17299445568E+02 -0.62214320510E+02 -0.10622582514E+03  0.12432608797E+03  0.17770000000E+01 0.  1.
         15    1    3    3    0    0  0.12647997599E+03 -0.32656221211E+02 -0.20237743907E+03  0.24088046555E+03  0.17770000000E+01 0. -1.
</event>
<event>
 7    1  0.2288857E-006  0.5225486E+03  0.7546771E-02  0.9350722E-01
        -11   -1    0    0    0    0  0.00000000000E+00  0.00000000000E+00  0.50000000000E+03  0.50000000000E+03  0.00000000000E+00 0. -1.
         11   -1    0    0    0    0 -0.00000000000E+00 -0.00000000000E+00 -0.50000000000E+03  0.50000000000E+03  0.00000000000E+00 0.  1.
         23    2    1    2    0    0 -0.35934033631E+02 -0.72641156780E+02  0.25794896373E+03  0.28522676289E+03  0.90822056519E+02 0.  0.
        -11    1    1    2    0    0  0.10640991203E+03  0.19294707469E+02  0.21124941237E+03  0.23732186866E+03  0.00000000000E+00 0. -1.
         11    1    1    2    0    0 -0.70475878403E+02  0.53346449311E+02 -0.46919837611E+03  0.47745136845E+03  0.00000000000E+00 0.  1.
        -15    1    3    3    0    0 -0.37626243698E+02  0.45914606468E+01  0.46003391532E+02  0.59634599748E+02  0.17770000000E+01 0.  1.
         15    1    3    3    0    0  0.16922100672E+01 -0.77232617427E+02  0.21194557220E+03  0.22559216315E+03  0.17770000000E+01 0. -1.
</event>
<event>
 7    1  0.2288857E-006  0.3694119E+03  0.7546771E-02  0.9751363E-01
        -11   -1    0    0    0    0  0.00000000000E+00  0.00000000000E+00  0.50000000000E+03  0.50000000000E+03  0.00000000000E+00 0.  1.
         11   -1    0    0    0    0 -0.00000000000E+00 -0.00000000000E+00 -0.50000000000E+03  0.50000000000E+03  0.00000000000E+00 0. -1.
         23    2    1    2    0    0  0.10812703794E+03 -0.16738559722E+03  0.72377074014E+02  0.23135927889E+03  0.92624406039E+02 0.  0.
        -11    1    1    2    0    0  0.86746662928E+02  0.31784569315E+03  0.21254893697E+03  0.39208152059E+03  0.00000000000E+00 0.  1.
         11    1    1    2    0    0 -0.19487370087E+03 -0.15046009593E+03 -0.28492601099E+03  0.37655920052E+03  0.00000000000E+00 0. -1.
        -15    1    3    3    0    0  0.96709236249E+02 -0.11330906243E+03  0.11962485076E+02  0.14945861896E+03  0.17770000000E+01 0. -1.
         15    1    3    3    0    0  0.11417801693E+02 -0.54076534794E+02  0.60414588938E+02  0.81900659927E+02  0.17770000000E+01 0.  1.
</event>
<event>
 7    1  0.2288857E-006  0.5106252E+03  0.7546771E-02  0.9376344E-01
        -11   -1    0    0    0    0  0.00000000000E+00  0.00000000000E+00  0.50000000000E+03  0.50000000000E+03  0.00000000000E+00 0. -1.
         11   -1    0    0    0    0 -0.00000000000E+00 -0.00000000000E+00 -0.50000000000E+03  0.50000000000E+03  0.00000000000E+00 0.  1.
         23    2    1    2    0    0  0.93162949136E+02 -0.31084251548E+02 -0.15746577454E+03  0.20063686054E+03  0.76250336843E+02 0.  0.
        -11    1    1    2    0    0 -0.17564073398E+03  0.23240735335E+02  0.45617746588E+03  0.48937478438E+03  0.00000000000E+00 0. -1.
         11    1    1    2    0    0  0.82477784845E+02  0.78435162131E+01 -0.29871169134E+03  0.30998835508E+03  0.00000000000E+00 0.  1.
        -15    1    3    3    0    0  0.40195131277E+02 -0.49587225276E+02 -0.10969048680E+03  0.12692400133E+03  0.17770000000E+01 0.  1.
         15    1    3    3    0    0  0.52967817859E+02  0.18502973728E+02 -0.47775287740E+02  0.73712859211E+02  0.17770000000E+01 0. -1.
</event>
<event>
 7    1  0.2288857E-006  0.3982889E+03  0.7546771E-02  0.9661470E-01
        -11   -1    0    0    0    0  0.00000000000E+00  0.00000000000E+00  0.50000000000E+03  0.50000000000E+03  0.00000000000E+00 0.  1.
         11   -1    0    0    0    0 -0.00000000000E+00 -0.00000000000E+00 -0.50000000000E+03  0.50000000000E+03  0.00000000000E+00 0. -1.
         23    2    1    2    0    0  0.14610989657E+03 -0.13868322002E+02  0.28677079361E+02  0.18950692391E+03  0.11640475549E+03 0.  0.
        -11    1    1    2    0    0 -0.99271964591E+02 -0.65541272682E+02  0.37655920700E+03  0.39490178241E+03  0.00000000000E+00 0.  1.
         11    1    1    2    0    0 -0.46837931977E+02  0.79409594684E+02 -0.40523628636E+03  0.41559129368E+03  0.00000000000E+00 0. -1.
        -15    1    3    3    0    0  0.48026593066E+02  0.26307105168E+02  0.57730717810E+02  0.79590269077E+02  0.17770000000E+01 0.  1.
         15    1    3    3    0    0  0.98083303501E+02 -0.40175427169E+02 -0.29053638449E+02  0.10991665484E+03  0.17770000000E+01 0. -1.
</event>
<event>
 7    1  0.2288857E-006  0.4635885E+03  0.7546771E-02  0.9485184E-01
        -11   -1    0    0    0    0  0.00000000000E+00  0.00000000000E+00  0.50000000000E+03  0.50000000000E+03  0.00000000000E+00 0.  1.
         11   -1    0    0    0    0 -0.00000000000E+00 -0.00000000000E+00 -0.50000000000E+03  0.50000000000E+03  0.00000000000E+00 0. -1.
         23    2    1    2    0    0  0.18145436070E+03 -0.26812288183E+02  0.38510271965E+03  0.43626329871E+03  0.91525828622E+02 0.  0.
        -11    1    1    2    0    0  0.16096565167E+02  0.51295540427E+02  0.57324135424E+02  0.78590001781E+02  0.00000000000E+00 0.  1.
         11    1    1    2    0    0 -0.19755092587E+03 -0.24483252243E+02 -0.44242685507E+03  0.48514669951E+03  0.00000000000E+00 0. -1.
        -15    1    3    3    0    0  0.74969858725E+02 -0.56693451498E+02  0.19004559184E+03  0.21202620561E+03  0.17770000000E+01 0.  1.
         15    1    3    3    0    0  0.10648450198E+03  0.29881163315E+02  0.19505712781E+03  0.22423709310E+03  0.17770000000E+01 0. -1.
</event>
<event>
 7    1  0.2288857E-006  0.5087997E+03  0.7546771E-02  0.9380332E-01
        -11   -1    0    0    0    0  0.00000000000E+00  0.00000000000E+00  0.50000000000E+03  0.50000000000E+03  0.00000000000E+00 0. -1.
         11   -1    0    0    0    0 -0.00000000000E+00 -0.00000000000E+00 -0.50000000000E+03  0.50000000000E+03  0.00000000000E+00 0. -1.
         23    2    1    2    0    0  0.97132555147E+02  0.27152090444E+02 -0.29850758993E+03  0.32868797885E+03  0.93579040963E+02 0.  0.
        -11    1    1    2    0    0 -0.19424080831E+03 -0.29848746861E+02  0.45017477550E+03  0.49120033367E+03  0.00000000000E+00 0. -1.
         11    1    1    2    0    0  0.97108253159E+02  0.26966564172E+01 -0.15166718557E+03  0.18011168748E+03  0.00000000000E+00 0. -1.
        -15    1    3    3    0    0  0.34962268504E+01  0.40679909227E+02 -0.65560177518E+02  0.77255247214E+02  0.17770000000E+01 0.  1.
         15    1    3    3    0    0  0.93636328297E+02 -0.13527818783E+02 -0.23294741241E+03  0.25143273163E+03  0.17770000000E+01 0. -1.
</event>
<event>
 7    1  0.2288857E-006  0.5303752E+03  0.7546771E-02  0.9334296E-01
        -11   -1    0    0    0    0  0.00000000000E+00  0.00000000000E+00  0.50000000000E+03  0.50000000000E+03  0.00000000000E+00 0.  1.
         11   -1    0    0    0    0 -0.00000000000E+00 -0.00000000000E+00 -0.50000000000E+03  0.50000000000E+03  0.00000000000E+00 0. -1.
         23    2    1    2    0    0 -0.60008657974E+02 -0.42828359182E+02 -0.11986088946E+03  0.16711370131E+03  0.90139053479E+02 0.  0.
        -11    1    1    2    0    0  0.12133418503E+03  0.37312055760E+03  0.25808235284E+03  0.46962478194E+03  0.00000000000E+00 0.  1.
         11    1    1    2    0    0 -0.61325527060E+02 -0.33029219842E+03 -0.13822146338E+03  0.36326151674E+03  0.00000000000E+00 0. -1.
        -15    1    3    3    0    0 -0.21274705600E+02 -0.32920475795E+02 -0.12087143132E+03  0.12708041337E+03  0.17770000000E+01 0. -1.
         15    1    3    3    0    0 -0.38733952374E+02 -0.99078833868E+01  0.10105418540E+01  0.40033287943E+02  0.17770000000E+01 0.  1.
</event>
<event>
 7    1  0.2288857E-006  0.4612382E+03  0.7546771E-02  0.9490980E-01
        -11   -1    0    0    0    0  0.00000000000E+00  0.00000000000E+00  0.50000000000E+03  0.50000000000E+03  0.00000000000E+00 0.  1.
         11   -1    0    0    0    0 -0.00000000000E+00 -0.00000000000E+00 -0.50000000000E+03  0.50000000000E+03  0.00000000000E+00 0. -1.
         23    2    1    2    0    0  0.58546409986E+02  0.54074323012E+02  0.46628686095E+03  0.48195329504E+03  0.92216199068E+02 0.  0.
        -11    1    1    2    0    0  0.18949047914E+02  0.60347782729E+02 -0.53842402180E+02  0.83065790610E+02  0.00000000000E+00 0.  1.
         11    1    1    2    0    0 -0.77495457900E+02 -0.11442210574E+03 -0.41244445877E+03  0.43498091435E+03  0.00000000000E+00 0. -1.
        -15    1    3    3    0    0  0.21026890664E+02 -0.21379346973E+02  0.61005422362E+02  0.68000190401E+02  0.17770000000E+01 0. -1.
         15    1    3    3    0    0  0.37519519322E+02  0.75453669985E+02  0.40528143859E+03  0.41395310464E+03  0.17770000000E+01 0.  1.
</event>
<event>
 7    1  0.2288857E-006  0.3890367E+03  0.7546771E-02  0.9689360E-01
        -11   -1    0    0    0    0  0.00000000000E+00  0.00000000000E+00  0.50000000000E+03  0.50000000000E+03  0.00000000000E+00 0.  1.
         11   -1    0    0    0    0 -0.00000000000E+00 -0.00000000000E+00 -0.50000000000E+03  0.50000000000E+03  0.00000000000E+00 0. -1.
         23    2    1    2    0    0  0.28268547893E+03 -0.97190160460E+02  0.24007367691E+03  0.39383078124E+03  0.90057240787E+02 0.  0.
        -11    1    1    2    0    0 -0.15826997795E+03 -0.97918847404E+02  0.87058602945E+02  0.20546699721E+03  0.00000000000E+00 0.  1.
         11    1    1    2    0    0 -0.12441550098E+03  0.19510900786E+03 -0.32713227985E+03  0.40070222155E+03  0.00000000000E+00 0. -1.
        -15    1    3    3    0    0  0.11662474374E+03 -0.25365202305E+02  0.15004770223E+03  0.19173469956E+03  0.17770000000E+01 0.  1.
         15    1    3    3    0    0  0.16606073519E+03 -0.71824958155E+02  0.90025974680E+02  0.20209608168E+03  0.17770000000E+01 0. -1.
</event>
<event>
 7    1  0.2288857E-006  0.3746356E+03  0.7546771E-02  0.9734464E-01
        -11   -1    0    0    0    0  0.00000000000E+00  0.00000000000E+00  0.50000000000E+03  0.50000000000E+03  0.00000000000E+00 0.  1.
         11   -1    0    0    0    0 -0.00000000000E+00 -0.00000000000E+00 -0.50000000000E+03  0.50000000000E+03  0.00000000000E+00 0.  1.
         23    2    1    2    0    0  0.12613430637E+03 -0.20538811937E+03  0.29094491045E+03  0.38763744604E+03  0.86716237406E+02 0.  0.
        -11    1    1    2    0    0 -0.46374618008E+02  0.20466212126E+03  0.86207748006E+02  0.22686772554E+03  0.00000000000E+00 0.  1.
         11    1    1    2    0    0 -0.79759688364E+02  0.72599810829E+00 -0.37715265846E+03  0.38549482843E+03  0.00000000000E+00 0.  1.
        -15    1    3    3    0    0  0.12049661269E+03 -0.21392350533E+03  0.27558191731E+03  0.36909517835E+03  0.17770000000E+01 0.  1.
         15    1    3    3    0    0  0.56376936797E+01  0.85353859662E+01  0.15362993143E+02  0.18542267685E+02  0.17770000000E+01 0. -1.
</event>
<event>
 7    1  0.2288857E-006  0.4538141E+03  0.7546771E-02  0.9509532E-01
        -11   -1    0    0    0    0  0.00000000000E+00  0.00000000000E+00  0.50000000000E+03  0.50000000000E+03  0.00000000000E+00 0.  1.
         11   -1    0    0    0    0 -0.00000000000E+00 -0.00000000000E+00 -0.50000000000E+03  0.50000000000E+03  0.00000000000E+00 0. -1.
         23    2    1    2    0    0  0.45730478633E+02  0.30282320027E+02  0.46228152538E+03  0.47543940127E+03  0.96592546271E+02 0.  0.
        -11    1    1    2    0    0  0.78988166382E+02 -0.18709515290E+02 -0.53991314719E+02  0.97489683843E+02  0.00000000000E+00 0.  1.
         11    1    1    2    0    0 -0.12471864502E+03 -0.11572804737E+02 -0.40829021066E+03  0.42707091489E+03  0.00000000000E+00 0. -1.
        -15    1    3    3    0    0  0.57372877614E+02  0.54648353112E+02  0.39586766633E+03  0.40372324253E+03  0.17770000000E+01 0.  1.
         15    1    3    3    0    0 -0.11642398981E+02 -0.24366033086E+02  0.66413859044E+02  0.71716158740E+02  0.17770000000E+01 0. -1.
</event>
<event>
 7    1  0.2288857E-006  0.3166912E+03  0.7546771E-02  0.9940693E-01
        -11   -1    0    0    0    0  0.00000000000E+00  0.00000000000E+00  0.50000000000E+03  0.50000000000E+03  0.00000000000E+00 0.  1.
         11   -1    0    0    0    0 -0.00000000000E+00 -0.00000000000E+00 -0.50000000000E+03  0.50000000000E+03  0.00000000000E+00 0. -1.
         23    2    1    2    0    0 -0.69304626708E+02 -0.25702431683E+02  0.27967998165E+03  0.30368262898E+03  0.92404008189E+02 0.  0.
        -11    1    1    2    0    0  0.23338889503E+03 -0.23309337039E+03 -0.12193302707E+03  0.35166825096E+03  0.00000000000E+00 0.  1.
         11    1    1    2    0    0 -0.16408426832E+03  0.25879580207E+03 -0.15774695458E+03  0.34464912006E+03  0.00000000000E+00 0. -1.
        -15    1    3    3    0    0  0.18409610490E+02  0.11141622112E+02  0.34671629678E+02  0.40845184970E+02  0.17770000000E+01 0. -1.
         15    1    3    3    0    0 -0.87714237198E+02 -0.36844053795E+02  0.24500835197E+03  0.26283744401E+03  0.17770000000E+01 0.  1.
</event>
<event>
 7    1  0.2288857E-006  0.4078665E+03  0.7546771E-02  0.9633439E-01
        -11   -1    0    0    0    0  0.00000000000E+00  0.00000000000E+00  0.50000000000E+03  0.50000000000E+03  0.00000000000E+00 0. -1.
         11   -1    0    0    0    0 -0.00000000000E+00 -0.00000000000E+00 -0.50000000000E+03  0.50000000000E+03  0.00000000000E+00 0.  1.
         23    2    1    2    0    0 -0.41062232890E+02  0.63165702553E+02  0.43037016798E+03  0.44629672539E+03  0.91028966024E+02 0.  0.
        -11    1    1    2    0    0  0.13911265835E+03  0.62098073937E+02 -0.87390230293E+02  0.17562902622E+03  0.00000000000E+00 0. -1.
         11    1    1    2    0    0 -0.98050425463E+02 -0.12526377649E+03 -0.34297993769E+03  0.37807424839E+03  0.00000000000E+00 0.  1.
        -15    1    3    3    0    0 -0.25042819933E+02  0.86289291878E+02  0.31926435759E+03  0.33167133202E+03  0.17770000000E+01 0.  1.
         15    1    3    3    0    0 -0.16019412957E+02 -0.23123589325E+02  0.11110581039E+03  0.11462539337E+03  0.17770000000E+01 0. -1.
</event>
<event>
 7    1  0.2288857E-006  0.4292310E+03  0.7546771E-02  0.9573769E-01
        -11   -1    0    0    0    0  0.00000000000E+00  0.00000000000E+00  0.50000000000E+03  0.50000000000E+03  0.00000000000E+00 0. -1.
         11   -1    0    0    0    0 -0.00000000000E+00 -0.00000000000E+00 -0.50000000000E+03  0.50000000000E+03  0.00000000000E+00 0.  1.
         23    2    1    2    0    0  0.68686221981E+02 -0.97458737927E+02  0.37499287354E+03  0.40404049212E+03  0.91722741912E+02 0.  0.
        -11    1    1    2    0    0  0.97061380050E+02 -0.10086665102E+03  0.65160125739E+00  0.13998363250E+03  0.00000000000E+00 0. -1.
         11    1    1    2    0    0 -0.16574760203E+03  0.19832538894E+03 -0.37564447480E+03  0.45597587537E+03  0.00000000000E+00 0.  1.
        -15    1    3    3    0    0  0.90722032853E+02 -0.87258191405E+02  0.30630565019E+03  0.33116580179E+03  0.17770000000E+01 0. -1.
         15    1    3    3    0    0 -0.22035810872E+02 -0.10200546522E+02  0.68687223353E+02  0.72874690332E+02  0.17770000000E+01 0.  1.
</event>
<event>
 6    1  0.2288857E-006  0.5480791E+03  0.7546771E-02  0.9298222E-01
        -11   -1    0    0    0    0  0.00000000000E+00  0.00000000000E+00  0.50000000000E+03  0.50000000000E+03  0.00000000000E+00 0.  1.
         11   -1    0    0    0    0 -0.00000000000E+00 -0.00000000000E+00 -0.50000000000E+03  0.50000000000E+03  0.00000000000E+00 0. -1.
        -11    1    1    2    0    0 -0.63945354921E+02  0.72620690280E+02  0.36620721140E+03  0.37877499225E+03  0.00000000000E+00 0.  1.
         11    1    1    2    0    0  0.80273326111E+01 -0.11217055124E+03 -0.43770514957E+03  0.45192086541E+03  0.00000000000E+00 0. -1.
        -15    1    1    2    0    0  0.36648840159E+02  0.84419108249E+02  0.77163235225E+02  0.12011263848E+03  0.17770000000E+01 0.  1.
         15    1    1    2    0    0  0.19269182151E+02 -0.44869247286E+02 -0.56652970539E+01  0.49191503865E+02  0.17770000000E+01 0. -1.
</event>
<event>
 7    1  0.2288857E-006  0.3959803E+03  0.7546771E-02  0.9668353E-01
        -11   -1    0    0    0    0  0.00000000000E+00  0.00000000000E+00  0.50000000000E+03  0.50000000000E+03  0.00000000000E+00 0.  1.
         11   -1    0    0    0    0 -0.00000000000E+00 -0.00000000000E+00 -0.50000000000E+03  0.50000000000E+03  0.00000000000E+00 0. -1.
         23    2    1    2    0    0  0.69512139945E+02 -0.19338993958E+03  0.28514251012E+03  0.36391791158E+03  0.94331272440E+02 0.  0.
        -11    1    1    2    0    0  0.27600115601E+02  0.13293670886E+03  0.14047273181E+03  0.19536254330E+03  0.00000000000E+00 0.  1.
         11    1    1    2    0    0 -0.97112255546E+02  0.60453230726E+02 -0.42561524193E+03  0.44071954512E+03  0.00000000000E+00 0. -1.
        -15    1    3    3    0    0  0.45188763832E+02 -0.43207702328E+02  0.36501332520E+02  0.72418470861E+02  0.17770000000E+01 0. -1.
         15    1    3    3    0    0  0.24323376113E+02 -0.15018223726E+03  0.24864117760E+03  0.29149944072E+03  0.17770000000E+01 0.  1.
</event>
<event>
 7    1  0.2288857E-006  0.5148702E+03  0.7546771E-02  0.9367138E-01
        -11   -1    0    0    0    0  0.00000000000E+00  0.00000000000E+00  0.50000000000E+03  0.50000000000E+03  0.00000000000E+00 0. -1.
         11   -1    0    0    0    0 -0.00000000000E+00 -0.00000000000E+00 -0.50000000000E+03  0.50000000000E+03  0.00000000000E+00 0.  1.
         23    2    1    2    0    0 -0.70268628760E+02  0.11221003622E+01  0.28408057141E+03  0.30630604286E+03  0.90458175654E+02 0.  0.
        -11    1    1    2    0    0 -0.13961525411E+03  0.28528805249E+02  0.15229144022E+03  0.20856412605E+03  0.00000000000E+00 0. -1.
         11    1    1    2    0    0  0.20988388287E+03 -0.29650905611E+02 -0.43637201162E+03  0.48512983110E+03  0.00000000000E+00 0.  1.
        -15    1    3    3    0    0 -0.44859977207E+02 -0.11654782948E+02  0.27101892210E+03  0.27495938861E+03  0.17770000000E+01 0. -1.
         15    1    3    3    0    0 -0.25408651553E+02  0.12776883310E+02  0.13061649311E+02  0.31346654249E+02  0.17770000000E+01 0.  1.
</event>
<event>
 7    1  0.2288857E-006  0.4580461E+03  0.7546771E-02  0.9498911E-01
        -11   -1    0    0    0    0  0.00000000000E+00  0.00000000000E+00  0.50000000000E+03  0.50000000000E+03  0.00000000000E+00 0.  1.
         11   -1    0    0    0    0 -0.00000000000E+00 -0.00000000000E+00 -0.50000000000E+03  0.50000000000E+03  0.00000000000E+00 0.  1.
         23    2    1    2    0    0  0.71607381181E+01  0.27975451376E+02  0.47381080832E+03  0.48400856556E+03  0.94518291366E+02 0.  0.
        -11    1    1    2    0    0  0.44733732508E+02  0.51366081598E+02 -0.57856703224E+02  0.89369901370E+02  0.00000000000E+00 0.  1.
         11    1    1    2    0    0 -0.51894470626E+02 -0.79341532974E+02 -0.41595410509E+03  0.42662153307E+03  0.00000000000E+00 0.  1.
        -15    1    3    3    0    0  0.41336463492E+02 -0.14896431721E+02  0.20972422388E+03  0.21428489145E+03  0.17770000000E+01 0.  1.
         15    1    3    3    0    0 -0.34175725374E+02  0.42871883097E+02  0.26408658444E+03  0.26972367411E+03  0.17770000000E+01 0. -1.
</event>
<event>
 7    1  0.2288857E-006  0.3597762E+03  0.7546771E-02  0.9783336E-01
        -11   -1    0    0    0    0  0.00000000000E+00  0.00000000000E+00  0.50000000000E+03  0.50000000000E+03  0.00000000000E+00 0.  1.
         11   -1    0    0    0    0 -0.00000000000E+00 -0.00000000000E+00 -0.50000000000E+03  0.50000000000E+03  0.00000000000E+00 0. -1.
         23    2    1    2    0    0 -0.17058336541E+03 -0.96299730147E+02 -0.20740151243E+03  0.30034540223E+03  0.93912995403E+02 0.  0.
        -11    1    1    2    0    0  0.76292477145E+02  0.70329785442E+02  0.43749839057E+03  0.44963503260E+03  0.00000000000E+00 0.  1.
         11    1    1    2    0    0  0.94290888262E+02  0.25969944705E+02 -0.23009687814E+03  0.25001956517E+03  0.00000000000E+00 0. -1.
        -15    1    3    3    0    0 -0.73763510389E+02 -0.90323072543E+02 -0.13997342716E+03  0.18219503544E+03  0.17770000000E+01 0.  1.
         15    1    3    3    0    0 -0.96819855017E+02 -0.59766576039E+01 -0.67428085266E+02  0.11815036679E+03  0.17770000000E+01 0. -1.
</event>
<event>
 7    1  0.2288857E-006  0.5266315E+03  0.7546771E-02  0.9342115E-01
        -11   -1    0    0    0    0  0.00000000000E+00  0.00000000000E+00  0.50000000000E+03  0.50000000000E+03  0.00000000000E+00 0.  1.
         11   -1    0    0    0    0 -0.00000000000E+00 -0.00000000000E+00 -0.50000000000E+03  0.50000000000E+03  0.00000000000E+00 0. -1.
         23    2    1    2    0    0  0.16779758899E+02  0.76090507566E+02  0.24668434957E+03  0.27424658013E+03  0.91031273427E+02 0.  0.
        -11    1    1    2    0    0  0.18535325429E+03  0.76745074228E+02  0.15314216921E+03  0.25238494267E+03  0.00000000000E+00 0.  1.
         11    1    1    2    0    0 -0.20213301319E+03 -0.15283558179E+03 -0.39982651878E+03  0.47336847720E+03  0.00000000000E+00 0. -1.
        -15    1    3    3    0    0 -0.17071882574E+02  0.22909979164E+02  0.11663581293E+02  0.30911376182E+02  0.17770000000E+01 0. -1.
         15    1    3    3    0    0  0.33851641473E+02  0.53180528402E+02  0.23502076827E+03  0.24333520395E+03  0.17770000000E+01 0.  1.
</event>
<event>
 7    1  0.2288857E-006  0.3887354E+03  0.7546771E-02  0.9690282E-01
        -11   -1    0    0    0    0  0.00000000000E+00  0.00000000000E+00  0.50000000000E+03  0.50000000000E+03  0.00000000000E+00 0. -1.
         11   -1    0    0    0    0 -0.00000000000E+00 -0.00000000000E+00 -0.50000000000E+03  0.50000000000E+03  0.00000000000E+00 0.  1.
         23    2    1    2    0    0  0.24286084381E+02 -0.17252259706E+03 -0.52078526121E+02  0.20154725250E+03  0.86921008470E+02 0.  0.
        -11    1    1    2    0    0 -0.82495592581E+02  0.10238951765E+03  0.40924037973E+03  0.42984511690E+03  0.00000000000E+00 0. -1.
         11    1    1    2    0    0  0.58209508200E+02  0.70133079409E+02 -0.35716185361E+03  0.36860763061E+03  0.00000000000E+00 0.  1.
        -15    1    3    3    0    0  0.42976223808E+02 -0.16810315692E+03 -0.37901832702E+02  0.17761006118E+03  0.17770000000E+01 0.  1.
         15    1    3    3    0    0 -0.18690139427E+02 -0.44194401422E+01 -0.14176693419E+02  0.23937191320E+02  0.17770000000E+01 0. -1.
</event>
<event>
 7    1  0.2288857E-006  0.5142960E+03  0.7546771E-02  0.9368377E-01
        -11   -1    0    0    0    0  0.00000000000E+00  0.00000000000E+00  0.50000000000E+03  0.50000000000E+03  0.00000000000E+00 0.  1.
         11   -1    0    0    0    0 -0.00000000000E+00 -0.00000000000E+00 -0.50000000000E+03  0.50000000000E+03  0.00000000000E+00 0.  1.
         23    2    1    2    0    0  0.28599526019E+02 -0.80724378449E+02  0.46287380200E+03  0.48570397834E+03  0.11967388953E+03 0.  0.
        -11    1    1    2    0    0  0.38497169508E+02  0.11593032478E+03 -0.15561979964E+03  0.19783678704E+03  0.00000000000E+00 0.  1.
         11    1    1    2    0    0 -0.67096695527E+02 -0.35205946335E+02 -0.30725400236E+03  0.31645923462E+03  0.00000000000E+00 0.  1.
        -15    1    3    3    0    0 -0.88325846724E+01  0.28539024354E+02  0.68281680694E+02  0.74552237461E+02  0.17770000000E+01 0.  1.
         15    1    3    3    0    0  0.37432110691E+02 -0.10926340280E+03  0.39459212131E+03  0.41115174088E+03  0.17770000000E+01 0. -1.
</event>
<event>
 7    1  0.2288857E-006  0.5075535E+03  0.7546771E-02  0.9383065E-01
        -11   -1    0    0    0    0  0.00000000000E+00  0.00000000000E+00  0.50000000000E+03  0.50000000000E+03  0.00000000000E+00 0.  1.
         11   -1    0    0    0    0 -0.00000000000E+00 -0.00000000000E+00 -0.50000000000E+03  0.50000000000E+03  0.00000000000E+00 0. -1.
         23    2    1    2    0    0 -0.52265751137E+02  0.60658627343E+02 -0.38347133872E+03  0.40168268154E+03  0.88811774105E+02 0.  0.
        -11    1    1    2    0    0  0.34359709215E+02 -0.95203539751E+02  0.48193279892E+03  0.49244647046E+03  0.00000000000E+00 0.  1.
         11    1    1    2    0    0  0.17906041922E+02  0.34544912408E+02 -0.98461460202E+02  0.10587084800E+03  0.00000000000E+00 0. -1.
        -15    1    3    3    0    0 -0.74923074293E+02  0.50646791570E+02 -0.33774591120E+03  0.34964842745E+03  0.17770000000E+01 0. -1.
         15    1    3    3    0    0  0.22657323155E+02  0.10011835773E+02 -0.45725427518E+02  0.52034254091E+02  0.17770000000E+01 0.  1.
</event>
<event>
 6    1  0.2288857E-006  0.4112997E+03  0.7546771E-02  0.9623591E-01
        -11   -1    0    0    0    0  0.00000000000E+00  0.00000000000E+00  0.50000000000E+03  0.50000000000E+03  0.00000000000E+00 0.  1.
         11   -1    0    0    0    0 -0.00000000000E+00 -0.00000000000E+00 -0.50000000000E+03  0.50000000000E+03  0.00000000000E+00 0. -1.
        -11    1    1    2    0    0  0.14870989018E+03  0.11829509686E+02  0.11063790437E+03  0.18572914316E+03  0.00000000000E+00 0.  1.
         11    1    1    2    0    0  0.76658234261E+02  0.41170072483E+02 -0.40219417570E+03  0.41149922809E+03  0.00000000000E+00 0. -1.
        -15    1    1    2    0    0 -0.15136239466E+03 -0.26163881727E+02  0.28499224265E+03  0.32375740814E+03  0.17770000000E+01 0.  1.
         15    1    1    2    0    0 -0.74005729776E+02 -0.26835700443E+02  0.65640286868E+01  0.79014220616E+02  0.17770000000E+01 0. -1.
</event>
<event>
 7    1  0.2288857E-006  0.3626552E+03  0.7546771E-02  0.9773672E-01
        -11   -1    0    0    0    0  0.00000000000E+00  0.00000000000E+00  0.50000000000E+03  0.50000000000E+03  0.00000000000E+00 0.  1.
         11   -1    0    0    0    0 -0.00000000000E+00 -0.00000000000E+00 -0.50000000000E+03  0.50000000000E+03  0.00000000000E+00 0.  1.
         23    2    1    2    0    0  0.15024030641E+02  0.53448871068E+02  0.43797010941E+03  0.45071541719E+03  0.90796845950E+02 0.  0.
        -11    1    1    2    0    0 -0.15184231764E+02 -0.18278551614E+03 -0.16284304153E+03  0.24527323943E+03  0.00000000000E+00 0.  1.
         11    1    1    2    0    0  0.16020112275E+00  0.12933664507E+03 -0.27512706788E+03  0.30401134338E+03  0.00000000000E+00 0.  1.
        -15    1    3    3    0    0  0.36118849643E+02  0.64906961950E+02  0.39033440973E+03  0.39734316926E+03  0.17770000000E+01 0.  1.
         15    1    3    3    0    0 -0.21094819002E+02 -0.11458090882E+02  0.47635699684E+02  0.53372247927E+02  0.17770000000E+01 0. -1.
</event>
<event>
 7    1  0.2288857E-006  0.5360532E+03  0.7546771E-02  0.9322566E-01
        -11   -1    0    0    0    0  0.00000000000E+00  0.00000000000E+00  0.50000000000E+03  0.50000000000E+03  0.00000000000E+00 0. -1.
         11   -1    0    0    0    0 -0.00000000000E+00 -0.00000000000E+00 -0.50000000000E+03  0.50000000000E+03  0.00000000000E+00 0.  1.
         23    2    1    2    0    0  0.40202791700E+02  0.15529554298E+03 -0.10615815644E+03  0.22880657022E+03  0.12389480323E+03 0.  0.
        -11    1    1    2    0    0 -0.13596818048E+03 -0.20364071593E+03  0.39406822977E+03  0.46394682562E+03  0.00000000000E+00 0. -1.
         11    1    1    2    0    0  0.95765388780E+02  0.48345172950E+02 -0.28791007334E+03  0.30724660415E+03  0.00000000000E+00 0.  1.
        -15    1    3    3    0    0  0.15528220753E+02 -0.11035805246E+02  0.12626087681E+02  0.22923578610E+02  0.17770000000E+01 0. -1.
         15    1    3    3    0    0  0.24674570946E+02  0.16633134823E+03 -0.11878424412E+03  0.20588299161E+03  0.17770000000E+01 0.  1.
</event>
<event>
 7    1  0.2288857E-006  0.5313954E+03  0.7546771E-02  0.9332177E-01
        -11   -1    0    0    0    0  0.00000000000E+00  0.00000000000E+00  0.50000000000E+03  0.50000000000E+03  0.00000000000E+00 0. -1.
         11   -1    0    0    0    0 -0.00000000000E+00 -0.00000000000E+00 -0.50000000000E+03  0.50000000000E+03  0.00000000000E+00 0.  1.
         23    2    1    2    0    0 -0.93855008490E+02 -0.99345260021E+02  0.18187955739E+03  0.24526136776E+03  0.91622714501E+02 0.  0.
        -11    1    1    2    0    0  0.31046253774E+02  0.50518364734E+02  0.27992266018E+03  0.28613400835E+03  0.00000000000E+00 0. -1.
         11    1    1    2    0    0  0.62808754717E+02  0.48826895287E+02 -0.46180221758E+03  0.46860462389E+03  0.00000000000E+00 0.  1.
        -15    1    3    3    0    0 -0.75242140109E+02 -0.11379221708E+03  0.17227788783E+03  0.21975640305E+03  0.17770000000E+01 0. -1.
         15    1    3    3    0    0 -0.18612868382E+02  0.14446957062E+02  0.96016695637E+01  0.25504964716E+02  0.17770000000E+01 0.  1.
</event>
<event>
 7    1  0.2288857E-006  0.3350347E+03  0.7546771E-02  0.9870599E-01
        -11   -1    0    0    0    0  0.00000000000E+00  0.00000000000E+00  0.50000000000E+03  0.50000000000E+03  0.00000000000E+00 0.  1.
         11   -1    0    0    0    0 -0.00000000000E+00 -0.00000000000E+00 -0.50000000000E+03  0.50000000000E+03  0.00000000000E+00 0.  1.
         23    2    1    2    0    0  0.13729277846E+03  0.22251317276E+03 -0.37011233544E+02  0.27977482749E+03  0.92426747302E+02 0.  0.
        -11    1    1    2    0    0 -0.14547182235E+03 -0.16752149552E+03  0.34339691250E+03  0.40883608216E+03  0.00000000000E+00 0.  1.
         11    1    1    2    0    0  0.81790438935E+01 -0.54991677240E+02 -0.30638567895E+03  0.31138909036E+03  0.00000000000E+00 0.  1.
        -15    1    3    3    0    0  0.13012252593E+03  0.15455356053E+03 -0.11485816512E-01  0.20204413550E+03  0.17770000000E+01 0.  1.
         15    1    3    3    0    0  0.71702525224E+01  0.67959612232E+02 -0.36999747728E+02  0.77730691987E+02  0.17770000000E+01 0. -1.
</event>
<event>
 7    1  0.2288857E-006  0.5242117E+03  0.7546771E-02  0.9347206E-01
        -11   -1    0    0    0    0  0.00000000000E+00  0.00000000000E+00  0.50000000000E+03  0.50000000000E+03  0.00000000000E+00 0.  1.
         11   -1    0    0    0    0 -0.00000000000E+00 -0.00000000000E+00 -0.50000000000E+03  0.50000000000E+03  0.00000000000E+00 0. -1.
         23    2    1    2    0    0  0.78814818942E+02  0.59900012250E+02 -0.12700082350E+03  0.18353697530E+03  0.88072839058E+02 0.  0.
        -11    1    1    2    0    0 -0.41281485925E+02 -0.10110767050E+03  0.46308483300E+03  0.47578827714E+03  0.00000000000E+00 0.  1.
         11    1    1    2    0    0 -0.37533333017E+02  0.41207658251E+02 -0.33608400949E+03  0.34067474756E+03  0.00000000000E+00 0. -1.
        -15    1    3    3    0    0  0.48072863307E+02  0.15951142040E+02 -0.58307900019E+01  0.51015634466E+02  0.17770000000E+01 0. -1.
         15    1    3    3    0    0  0.30741955634E+02  0.43948870210E+02 -0.12117003350E+03  0.13252134083E+03  0.17770000000E+01 0.  1.
</event>
<event>
 7    1  0.2288857E-006  0.5250949E+03  0.7546771E-02  0.9345345E-01
        -11   -1    0    0    0    0  0.00000000000E+00  0.00000000000E+00  0.50000000000E+03  0.50000000000E+03  0.00000000000E+00 0.  1.
         11   -1    0    0    0    0 -0.00000000000E+00 -0.00000000000E+00 -0.50000000000E+03  0.50000000000E+03  0.00000000000E+00 0. -1.
         23    2    1    2    0    0 -0.30547182066E+02  0.91839458711E+02  0.24367645071E+03  0.27750614240E+03  0.90905609992E+02 0.  0.
        -11    1    1    2    0    0 -0.18699453423E+03  0.72596296366E+02  0.14513108924E+03  0.24758879446E+03  0.00000000000E+00 0.  1.
         11    1    1    2    0    0  0.21754171629E+03 -0.16443575508E+03 -0.38880753995E+03  0.47490506314E+03  0.00000000000E+00 0. -1.
        -15    1    3    3    0    0 -0.49737955794E+02  0.86837014138E+02  0.14097312422E+03  0.17289045882E+03  0.17770000000E+01 0.  1.
         15    1    3    3    0    0  0.19190773728E+02  0.50024445728E+01  0.10270332649E+03  0.10461568357E+03  0.17770000000E+01 0. -1.
</event>
<event>
 7    1  0.2288857E-006  0.5294217E+03  0.7546771E-02  0.9336281E-01
        -11   -1    0    0    0    0  0.00000000000E+00  0.00000000000E+00  0.50000000000E+03  0.50000000000E+03  0.00000000000E+00 0.  1.
         11   -1    0    0    0    0 -0.00000000000E+00 -0.00000000000E+00 -0.50000000000E+03  0.50000000000E+03  0.00000000000E+00 0. -1.
         23    2    1    2    0    0  0.71152553834E+02  0.10298125438E+03  0.14438403190E+03  0.19984113055E+03  0.58497043722E+02 0.  0.
        -11    1    1    2    0    0 -0.79398320828E+02 -0.22064414286E+02  0.31911187373E+03  0.32958052079E+03  0.00000000000E+00 0.  1.
         11    1    1    2    0    0  0.82457669938E+01 -0.80916840091E+02 -0.46349590563E+03  0.47057834865E+03  0.00000000000E+00 0. -1.
        -15    1    3    3    0    0  0.63017234392E+02  0.82735744129E+02  0.14438375128E+03  0.17794999452E+03  0.17770000000E+01 0. -1.
         15    1    3    3    0    0  0.81353194423E+01  0.20245510248E+02  0.28061243061E-03  0.21891136031E+02  0.17770000000E+01 0.  1.
</event>
<event>
 7    1  0.2288857E-006  0.4089720E+03  0.7546771E-02  0.9630257E-01
        -11   -1    0    0    0    0  0.00000000000E+00  0.00000000000E+00  0.50000000000E+03  0.50000000000E+03  0.00000000000E+00 0.  1.
         11   -1    0    0    0    0 -0.00000000000E+00 -0.00000000000E+00 -0.50000000000E+03  0.50000000000E+03  0.00000000000E+00 0. -1.
         23    2    1    2    0    0 -0.12029198704E+03  0.33679685404E+02  0.69404705737E+02  0.16966642780E+03  0.91461468323E+02 0.  0.
        -11    1    1    2    0    0  0.30850138047E+03 -0.23856041527E+03  0.20413472666E+03  0.44017628300E+03  0.00000000000E+00 0.  1.
         11    1    1    2    0    0 -0.18820939342E+03  0.20488072987E+03 -0.27353943240E+03  0.39015728920E+03  0.00000000000E+00 0. -1.
        -15    1    3    3    0    0 -0.62527343686E+02  0.44117635209E+02 -0.27974817682E+01  0.76596462569E+02  0.17770000000E+01 0.  1.
         15    1    3    3    0    0 -0.57764643359E+02 -0.10437949805E+02  0.72202187505E+02  0.93069965230E+02  0.17770000000E+01 0. -1.
</event>
<event>
 7    1  0.2288857E-006  0.5183393E+03  0.7546771E-02  0.9359684E-01
        -11   -1    0    0    0    0  0.00000000000E+00  0.00000000000E+00  0.50000000000E+03  0.50000000000E+03  0.00000000000E+00 0.  1.
         11   -1    0    0    0    0 -0.00000000000E+00 -0.00000000000E+00 -0.50000000000E+03  0.50000000000E+03  0.00000000000E+00 0.  1.
         23    2    1    2    0    0 -0.84798625932E+02  0.19003617976E+02  0.22037012471E+03  0.25501243643E+03  0.94426725106E+02 0.  0.
        -11    1    1    2    0    0  0.34877704013E+02  0.80800752997E+02  0.24818508855E+03  0.26332689589E+03  0.00000000000E+00 0.  1.
         11    1    1    2    0    0  0.49920921919E+02 -0.99804370973E+02 -0.46855521326E+03  0.48166066767E+03  0.00000000000E+00 0.  1.
        -15    1    3    3    0    0 -0.10471833020E+03  0.21540051770E+02  0.19701349559E+03  0.22415926856E+03  0.17770000000E+01 0. -1.
         15    1    3    3    0    0  0.19919704269E+02 -0.25364337935E+01  0.23356629123E+02  0.30853167869E+02  0.17770000000E+01 0.  1.
</event>
<event>
 7    1  0.2288857E-006  0.3986611E+03  0.7546771E-02  0.9660365E-01
        -11   -1    0    0    0    0  0.00000000000E+00  0.00000000000E+00  0.50000000000E+03  0.50000000000E+03  0.00000000000E+00 0. -1.
         11   -1    0    0    0    0 -0.00000000000E+00 -0.00000000000E+00 -0.50000000000E+03  0.50000000000E+03  0.00000000000E+00 0.  1.
         23    2    1    2    0    0  0.27861372506E+03  0.30576287455E+02  0.27652572548E+03  0.40427231170E+03  0.91701188682E+02 0.  0.
        -11    1    1    2    0    0  0.27800605090E+02 -0.17962106987E+03 -0.57390272506E+02  0.19060494685E+03  0.00000000000E+00 0. -1.
         11    1    1    2    0    0 -0.30641433015E+03  0.14904478242E+03 -0.21913545298E+03  0.40512274145E+03  0.00000000000E+00 0.  1.
        -15    1    3    3    0    0  0.27602088915E+03  0.44930188022E+02  0.25682535151E+03  0.37969549899E+03  0.17770000000E+01 0. -1.
         15    1    3    3    0    0  0.25928359125E+01 -0.14353900567E+02  0.19700373969E+02  0.24576812712E+02  0.17770000000E+01 0.  1.
</event>
<event>
 7    1  0.2288857E-006  0.3992973E+03  0.7546771E-02  0.9658479E-01
        -11   -1    0    0    0    0  0.00000000000E+00  0.00000000000E+00  0.50000000000E+03  0.50000000000E+03  0.00000000000E+00 0.  1.
         11   -1    0    0    0    0 -0.00000000000E+00 -0.00000000000E+00 -0.50000000000E+03  0.50000000000E+03  0.00000000000E+00 0. -1.
         23    2    1    2    0    0 -0.74934538165E+02 -0.12271776026E+03 -0.63171496777E+02  0.18610888796E+03  0.99855127461E+02 0.  0.
        -11    1    1    2    0    0 -0.71579957351E+01  0.14144236316E+03  0.42209646979E+03  0.44522197700E+03  0.00000000000E+00 0.  1.
         11    1    1    2    0    0  0.82092533901E+02 -0.18724602892E+02 -0.35892497301E+03  0.36866913503E+03  0.00000000000E+00 0. -1.
        -15    1    3    3    0    0 -0.86187333991E+02 -0.77281036154E+02 -0.11468090868E+02  0.11634126493E+03  0.17770000000E+01 0.  1.
         15    1    3    3    0    0  0.11252795825E+02 -0.45436724110E+02 -0.51703405908E+02  0.69767623030E+02  0.17770000000E+01 0. -1.
</event>
<event>
 7    1  0.2288857E-006  0.4928890E+03  0.7546771E-02  0.9415863E-01
        -11   -1    0    0    0    0  0.00000000000E+00  0.00000000000E+00  0.50000000000E+03  0.50000000000E+03  0.00000000000E+00 0. -1.
         11   -1    0    0    0    0 -0.00000000000E+00 -0.00000000000E+00 -0.50000000000E+03  0.50000000000E+03  0.00000000000E+00 0.  1.
         23    2    1    2    0    0 -0.84691360987E+02  0.94760440690E+02  0.45786571359E+03  0.48376393068E+03  0.90743381035E+02 0.  0.
        -11    1    1    2    0    0  0.11019042473E+01  0.15389675253E+02  0.16226084388E+02  0.22390670198E+02  0.00000000000E+00 0. -1.
         11    1    1    2    0    0  0.83589456739E+02 -0.11015011594E+03 -0.47409179798E+03  0.49384539912E+03  0.00000000000E+00 0.  1.
        -15    1    3    3    0    0 -0.75564775273E+02  0.66009494376E+02  0.43345163293E+03  0.44491658142E+03  0.17770000000E+01 0. -1.
         15    1    3    3    0    0 -0.91265857134E+01  0.28750946314E+02  0.24414080664E+02  0.38847349258E+02  0.17770000000E+01 0.  1.
</event>
<event>
 7    1  0.2288857E-006  0.5142086E+03  0.7546771E-02  0.9368566E-01
        -11   -1    0    0    0    0  0.00000000000E+00  0.00000000000E+00  0.50000000000E+03  0.50000000000E+03  0.00000000000E+00 0. -1.
         11   -1    0    0    0    0 -0.00000000000E+00 -0.00000000000E+00 -0.50000000000E+03  0.50000000000E+03  0.00000000000E+00 0. -1.
         23    2    1    2    0    0 -0.50538192611E+02 -0.24707725475E+02  0.32840968212E+03  0.34537999793E+03  0.90938677391E+02 0.  0.
        -11    1    1    2    0    0  0.20322384216E+02 -0.86606681589E+02  0.14349004665E+03  0.16882864118E+03  0.00000000000E+00 0. -1.
         11    1    1    2    0    0  0.30215808396E+02  0.11131440706E+03 -0.47189972877E+03  0.48579136089E+03  0.00000000000E+00 0. -1.
        -15    1    3    3    0    0 -0.36891375833E+02  0.25029057775E+02  0.79376921168E+02  0.91056469770E+02  0.17770000000E+01 0.  1.
         15    1    3    3    0    0 -0.13646816778E+02 -0.49736783250E+02  0.24903276096E+03  0.25432352816E+03  0.17770000000E+01 0. -1.
</event>
<event>
 7    1  0.2288857E-006  0.5293762E+03  0.7546771E-02  0.9336376E-01
        -11   -1    0    0    0    0  0.00000000000E+00  0.00000000000E+00  0.50000000000E+03  0.50000000000E+03  0.00000000000E+00 0. -1.
         11   -1    0    0    0    0 -0.00000000000E+00 -0.00000000000E+00 -0.50000000000E+03  0.50000000000E+03  0.00000000000E+00 0.  1.
         23    2    1    2    0    0 -0.38419085014E+02 -0.58534398879E+00 -0.68928335821E+02  0.12229205743E+03  0.93423033080E+02 0.  0.
        -11    1    1    2    0    0  0.15417065327E+03  0.25878709317E+03  0.36159012595E+03  0.47062380848E+03  0.00000000000E+00 0. -1.
         11    1    1    2    0    0 -0.11575156825E+03 -0.25820174918E+03 -0.29266179013E+03  0.40708413410E+03  0.00000000000E+00 0.  1.
        -15    1    3    3    0    0 -0.60682925008E+02 -0.16267948659E+02 -0.19458775268E+02  0.65794112236E+02  0.17770000000E+01 0. -1.
         15    1    3    3    0    0  0.22263839994E+02  0.15682604670E+02 -0.49469560553E+02  0.56497945191E+02  0.17770000000E+01 0.  1.
</event>
<event>
 6    1  0.2288857E-006  0.5490513E+03  0.7546771E-02  0.9296283E-01
        -11   -1    0    0    0    0  0.00000000000E+00  0.00000000000E+00  0.50000000000E+03  0.50000000000E+03  0.00000000000E+00 0.  1.
         11   -1    0    0    0    0 -0.00000000000E+00 -0.00000000000E+00 -0.50000000000E+03  0.50000000000E+03  0.00000000000E+00 0. -1.
        -11    1    1    2    0    0  0.54787968375E+02 -0.57670306902E+02  0.23789161368E+03  0.25083860475E+03  0.00000000000E+00 0.  1.
         11    1    1    2    0    0  0.94318095893E+02 -0.24991432488E+02 -0.44026608944E+03  0.45094867160E+03  0.00000000000E+00 0. -1.
        -15    1    1    2    0    0 -0.16172569163E+03  0.97035730605E+02  0.20529310893E+03  0.27878226387E+03  0.17770000000E+01 0.  1.
         15    1    1    2    0    0  0.12619627367E+02 -0.14373991214E+02 -0.29186331627E+01  0.19430459769E+02  0.17770000000E+01 0. -1.
</event>
<event>
 7    1  0.2288857E-006  0.5166970E+03  0.7546771E-02  0.9363205E-01
        -11   -1    0    0    0    0  0.00000000000E+00  0.00000000000E+00  0.50000000000E+03  0.50000000000E+03  0.00000000000E+00 0. -1.
         11   -1    0    0    0    0 -0.00000000000E+00 -0.00000000000E+00 -0.50000000000E+03  0.50000000000E+03  0.00000000000E+00 0.  1.
         23    2    1    2    0    0  0.43306543215E+02 -0.69311377244E+01  0.13847578107E+03  0.17162987800E+03  0.91420871377E+02 0.  0.
        -11    1    1    2    0    0  0.33222624073E+02 -0.12284066362E+03  0.32074564922E+03  0.34506715706E+03  0.00000000000E+00 0. -1.
         11    1    1    2    0    0 -0.76529167287E+02  0.12977180134E+03 -0.45922143030E+03  0.48330296493E+03  0.00000000000E+00 0.  1.
        -15    1    3    3    0    0  0.56748097973E+02  0.20794902054E+02  0.12310086061E+03  0.13714865725E+03  0.17770000000E+01 0.  1.
         15    1    3    3    0    0 -0.13441554758E+02 -0.27726039778E+02  0.15374920470E+02  0.34481220752E+02  0.17770000000E+01 0. -1.
</event>
<event>
 7    1  0.2288857E-006  0.4624902E+03  0.7546771E-02  0.9487888E-01
        -11   -1    0    0    0    0  0.00000000000E+00  0.00000000000E+00  0.50000000000E+03  0.50000000000E+03  0.00000000000E+00 0. -1.
         11   -1    0    0    0    0 -0.00000000000E+00 -0.00000000000E+00 -0.50000000000E+03  0.50000000000E+03  0.00000000000E+00 0. -1.
         23    2    1    2    0    0 -0.10242123557E+03  0.13425144562E+03  0.42597191051E+03  0.46814212715E+03  0.95871906852E+02 0.  0.
        -11    1    1    2    0    0  0.45632715092E+02 -0.65648165443E+02  0.15546039653E+02  0.81447563878E+02  0.00000000000E+00 0. -1.
         11    1    1    2    0    0  0.56788520474E+02 -0.68603280180E+02 -0.44151795016E+03  0.45041030897E+03  0.00000000000E+00 0. -1.
        -15    1    3    3    0    0  0.11785099061E+02  0.45543953840E+02  0.75122551116E+02  0.88654924886E+02  0.17770000000E+01 0.  1.
         15    1    3    3    0    0 -0.11420633463E+03  0.88707491782E+02  0.35084935940E+03  0.37948720227E+03  0.17770000000E+01 0. -1.
</event>
<event>
 7    1  0.2288857E-006  0.4279945E+03  0.7546771E-02  0.9577121E-01
        -11   -1    0    0    0    0  0.00000000000E+00  0.00000000000E+00  0.50000000000E+03  0.50000000000E+03  0.00000000000E+00 0.  1.
         11   -1    0    0    0    0 -0.00000000000E+00 -0.00000000000E+00 -0.50000000000E+03  0.50000000000E+03  0.00000000000E+00 0.  1.
         23    2    1    2    0    0  0.48330996332E+01 -0.21829906466E+02 -0.10140705678E+03  0.13773518798E+03  0.90485839632E+02 0.  0.
        -11    1    1    2    0    0  0.86042355595E+02  0.39541109436E+03  0.21910963487E+03  0.46017632772E+03  0.00000000000E+00 0.  1.
         11    1    1    2    0    0 -0.90875455228E+02 -0.37358118790E+03 -0.11770257809E+03  0.40208848430E+03  0.00000000000E+00 0.  1.
        -15    1    3    3    0    0 -0.17517062379E+02  0.14739310219E+02 -0.90648372703E+02  0.93511389375E+02  0.17770000000E+01 0.  1.
         15    1    3    3    0    0  0.22350162012E+02 -0.36569216685E+02 -0.10758684081E+02  0.44223798605E+02  0.17770000000E+01 0. -1.
</event>
<event>
 7    1  0.2288857E-006  0.4817219E+03  0.7546771E-02  0.9441664E-01
        -11   -1    0    0    0    0  0.00000000000E+00  0.00000000000E+00  0.50000000000E+03  0.50000000000E+03  0.00000000000E+00 0. -1.
         11   -1    0    0    0    0 -0.00000000000E+00 -0.00000000000E+00 -0.50000000000E+03  0.50000000000E+03  0.00000000000E+00 0.  1.
         23    2    1    2    0    0 -0.35574238573E+02 -0.10015677077E+03  0.45090393022E+03  0.47209461373E+03  0.90895901100E+02 0.  0.
        -11    1    1    2    0    0 -0.24029822250E+02  0.28481875833E+02  0.23746439197E+02  0.44187588562E+02  0.00000000000E+00 0. -1.
         11    1    1    2    0    0  0.59604060824E+02  0.71674894936E+02 -0.47465036942E+03  0.48371779771E+03  0.00000000000E+00 0.  1.
        -15    1    3    3    0    0  0.19867448327E+02 -0.18942351175E+01  0.28228336044E+02  0.34616474611E+02  0.17770000000E+01 0.  1.
         15    1    3    3    0    0 -0.55441686900E+02 -0.98262535651E+02  0.42267559418E+03  0.43747813912E+03  0.17770000000E+01 0. -1.
</event>
<event>
 7    1  0.2288857E-006  0.5186263E+03  0.7546771E-02  0.9359070E-01
        -11   -1    0    0    0    0  0.00000000000E+00  0.00000000000E+00  0.50000000000E+03  0.50000000000E+03  0.00000000000E+00 0.  1.
         11   -1    0    0    0    0 -0.00000000000E+00 -0.00000000000E+00 -0.50000000000E+03  0.50000000000E+03  0.00000000000E+00 0. -1.
         23    2    1    2    0    0  0.11874704380E+03  0.21939434746E+03  0.27141449189E+03  0.38039193587E+03  0.93794767203E+02 0.  0.
        -11    1    1    2    0    0 -0.52526527288E+02  0.76564575685E+02  0.10240877819E+03  0.13823432341E+03  0.00000000000E+00 0.  1.
         11    1    1    2    0    0 -0.66220516512E+02 -0.29595892314E+03 -0.37382327009E+03  0.48137374072E+03  0.00000000000E+00 0. -1.
        -15    1    3    3    0    0  0.10050985116E+03  0.22340211458E+03  0.23519345963E+03  0.33960249728E+03  0.17770000000E+01 0.  1.
         15    1    3    3    0    0  0.18237192644E+02 -0.40077671218E+01  0.36221032262E+02  0.40789438584E+02  0.17770000000E+01 0. -1.
</event>
<event>
 7    1  0.2288857E-006  0.3345384E+03  0.7546771E-02  0.9872431E-01
        -11   -1    0    0    0    0  0.00000000000E+00  0.00000000000E+00  0.50000000000E+03  0.50000000000E+03  0.00000000000E+00 0.  1.
         11   -1    0    0    0    0 -0.00000000000E+00 -0.00000000000E+00 -0.50000000000E+03  0.50000000000E+03  0.00000000000E+00 0. -1.
         23    2    1    2    0    0  0.17697326752E+03 -0.23931688801E+03 -0.63441821307E+02  0.31631199581E+03  0.86234005442E+02 0.  0.
        -11    1    1    2    0    0  0.43554933596E+02  0.33520276650E+03  0.21391081040E+03  0.40001970166E+03  0.00000000000E+00 0.  1.
         11    1    1    2    0    0 -0.22052820112E+03 -0.95885878495E+02 -0.15046898909E+03  0.28366830253E+03  0.00000000000E+00 0. -1.
        -15    1    3    3    0    0  0.45469110453E+01 -0.48210668492E+02 -0.29375518653E+02  0.56665878460E+02  0.17770000000E+01 0.  1.
         15    1    3    3    0    0  0.17242635648E+03 -0.19110621952E+03 -0.34066302655E+02  0.25964611735E+03  0.17770000000E+01 0. -1.
</event>
<event>
 7    1  0.2288857E-006  0.5125166E+03  0.7546771E-02  0.9372230E-01
        -11   -1    0    0    0    0  0.00000000000E+00  0.00000000000E+00  0.50000000000E+03  0.50000000000E+03  0.00000000000E+00 0. -1.
         11   -1    0    0    0    0 -0.00000000000E+00 -0.00000000000E+00 -0.50000000000E+03  0.50000000000E+03  0.00000000000E+00 0. -1.
         23    2    1    2    0    0 -0.12840975662E+03 -0.19741221827E+02 -0.22077047527E+03  0.27205616739E+03  0.91630639142E+02 0.  0.
        -11    1    1    2    0    0  0.18112859822E+03 -0.18796635688E+02  0.45219379669E+03  0.48748344831E+03  0.00000000000E+00 0. -1.
         11    1    1    2    0    0 -0.52718841599E+02  0.38537857515E+02 -0.23142332143E+03  0.24046038431E+03  0.00000000000E+00 0. -1.
        -15    1    3    3    0    0 -0.66879028271E+02 -0.53867383753E+02 -0.14583627111E+03  0.16925092365E+03  0.17770000000E+01 0. -1.
         15    1    3    3    0    0 -0.61530728347E+02  0.34126161926E+02 -0.74934204151E+02  0.10280524373E+03  0.17770000000E+01 0.  1.
</event>
<event>
 7    1  0.2288857E-006  0.3927612E+03  0.7546771E-02  0.9678034E-01
        -11   -1    0    0    0    0  0.00000000000E+00  0.00000000000E+00  0.50000000000E+03  0.50000000000E+03  0.00000000000E+00 0.  1.
         11   -1    0    0    0    0 -0.00000000000E+00 -0.00000000000E+00 -0.50000000000E+03  0.50000000000E+03  0.00000000000E+00 0. -1.
         23    2    1    2    0    0 -0.26834197500E+03  0.14192093096E+03  0.30740855835E+03  0.44153477672E+03  0.91126127513E+02 0.  0.
        -11    1    1    2    0    0  0.30514164871E+03 -0.15206929160E+03 -0.11124970459E+03  0.35862653555E+03  0.00000000000E+00 0.  1.
         11    1    1    2    0    0 -0.36799673712E+02  0.10148360636E+02 -0.19615885376E+03  0.19983868774E+03  0.00000000000E+00 0. -1.
        -15    1    3    3    0    0 -0.23900573488E+03  0.12299491968E+03  0.21985910200E+03  0.34726455913E+03  0.17770000000E+01 0.  1.
         15    1    3    3    0    0 -0.29336240125E+02  0.18926011288E+02  0.87549456348E+02  0.94270217586E+02  0.17770000000E+01 0. -1.
</event>
<event>
 7    1  0.2288857E-006  0.3395659E+03  0.7546771E-02  0.9854024E-01
        -11   -1    0    0    0    0  0.00000000000E+00  0.00000000000E+00  0.50000000000E+03  0.50000000000E+03  0.00000000000E+00 0.  1.
         11   -1    0    0    0    0 -0.00000000000E+00 -0.00000000000E+00 -0.50000000000E+03  0.50000000000E+03  0.00000000000E+00 0.  1.
         23    2    1    2    0    0 -0.79315822863E+02 -0.11853485978E+03  0.21421646454E+03  0.27374238358E+03  0.93298907524E+02 0.  0.
        -11    1    1    2    0    0 -0.17702588570E+03  0.20912946528E+03  0.11684149433E+03  0.29786781003E+03  0.00000000000E+00 0.  1.
         11    1    1    2    0    0  0.25634170856E+03 -0.90594605496E+02 -0.33105795887E+03  0.42838980640E+03  0.00000000000E+00 0.  1.
        -15    1    3    3    0    0 -0.58257102344E+01 -0.68406969526E+02  0.43683914587E+02  0.81393454910E+02  0.17770000000E+01 0. -1.
         15    1    3    3    0    0 -0.73490112629E+02 -0.50127890253E+02  0.17053254996E+03  0.19234892867E+03  0.17770000000E+01 0.  1.
</event>
<event>
 7    1  0.2288857E-006  0.5124215E+03  0.7546771E-02  0.9372437E-01
        -11   -1    0    0    0    0  0.00000000000E+00  0.00000000000E+00  0.50000000000E+03  0.50000000000E+03  0.00000000000E+00 0.  1.
         11   -1    0    0    0    0 -0.00000000000E+00 -0.00000000000E+00 -0.50000000000E+03  0.50000000000E+03  0.00000000000E+00 0. -1.
         23    2    1    2    0    0 -0.81248622558E+02 -0.42637004115E+02 -0.28557045224E+03  0.31494266712E+03  0.96016392302E+02 0.  0.
        -11    1    1    2    0    0  0.13994754394E+03 -0.87715047206E+01  0.46698021040E+03  0.48757847703E+03  0.00000000000E+00 0.  1.
         11    1    1    2    0    0 -0.58698921387E+02  0.51408508836E+02 -0.18140975817E+03  0.19747885586E+03  0.00000000000E+00 0. -1.
        -15    1    3    3    0    0 -0.29618829654E+02 -0.29626366678E+02 -0.24343615517E+03  0.24702088180E+03  0.17770000000E+01 0. -1.
         15    1    3    3    0    0 -0.51629792904E+02 -0.13010637438E+02 -0.42134297067E+02  0.67921785313E+02  0.17770000000E+01 0.  1.
</event>
<event>
 7    1  0.2288857E-006  0.4408905E+03  0.7546771E-02  0.9542746E-01
        -11   -1    0    0    0    0  0.00000000000E+00  0.00000000000E+00  0.50000000000E+03  0.50000000000E+03  0.00000000000E+00 0.  1.
         11   -1    0    0    0    0 -0.00000000000E+00 -0.00000000000E+00 -0.50000000000E+03  0.50000000000E+03  0.00000000000E+00 0. -1.
         23    2    1    2    0    0  0.39635106263E+02  0.22319217987E+02  0.44023135545E+03  0.45577931083E+03  0.10891301447E+03 0.  0.
        -11    1    1    2    0    0  0.74906205273E+01 -0.11843821914E+03 -0.33033615797E+02  0.12318661016E+03  0.00000000000E+00 0.  1.
         11    1    1    2    0    0 -0.47125726791E+02  0.96119001154E+02 -0.40719773965E+03  0.42103407901E+03  0.00000000000E+00 0. -1.
        -15    1    3    3    0    0  0.22331417435E+02 -0.37537034448E+02  0.90117907443E+02  0.10016045193E+03  0.17770000000E+01 0.  1.
         15    1    3    3    0    0  0.17303688829E+02  0.59856252435E+02  0.35011344801E+03  0.35561885890E+03  0.17770000000E+01 0. -1.
</event>
<event>
 7    1  0.2288857E-006  0.4895893E+03  0.7546771E-02  0.9423411E-01
        -11   -1    0    0    0    0  0.00000000000E+00  0.00000000000E+00  0.50000000000E+03  0.50000000000E+03  0.00000000000E+00 0. -1.
         11   -1    0    0    0    0 -0.00000000000E+00 -0.00000000000E+00 -0.50000000000E+03  0.50000000000E+03  0.00000000000E+00 0.  1.
         23    2    1    2    0    0 -0.20014622431E+02 -0.81825307596E+02  0.46494449233E+03  0.48112911496E+03  0.90641481871E+02 0.  0.
        -11    1    1    2    0    0  0.49018880881E+01 -0.25303092410E+02  0.12977427267E+02  0.28856344377E+02  0.00000000000E+00 0. -1.
         11    1    1    2    0    0  0.15112734343E+02  0.10712840001E+03 -0.47792191960E+03  0.49001454066E+03  0.00000000000E+00 0.  1.
        -15    1    3    3    0    0 -0.11329305888E+02  0.12597044075E+02  0.20382690967E+02  0.26564083108E+02  0.17770000000E+01 0.  1.
         15    1    3    3    0    0 -0.86853165432E+01 -0.94422351670E+02  0.44456180137E+03  0.45456503185E+03  0.17770000000E+01 0. -1.
</event>
<event>
 7    1  0.2288857E-006  0.4718791E+03  0.7546771E-02  0.9465029E-01
        -11   -1    0    0    0    0  0.00000000000E+00  0.00000000000E+00  0.50000000000E+03  0.50000000000E+03  0.00000000000E+00 0.  1.
         11   -1    0    0    0    0 -0.00000000000E+00 -0.00000000000E+00 -0.50000000000E+03  0.50000000000E+03  0.00000000000E+00 0. -1.
         23    2    1    2    0    0  0.12432706607E+03  0.15075653061E+01  0.44153284869E+03  0.46672338597E+03  0.86139250205E+02 0.  0.
        -11    1    1    2    0    0 -0.40921854350E+02 -0.42028409169E+02  0.20417427828E+02  0.62111647054E+02  0.00000000000E+00 0.  1.
         11    1    1    2    0    0 -0.83405211718E+02  0.40520843863E+02 -0.46195027652E+03  0.47116496698E+03  0.00000000000E+00 0. -1.
        -15    1    3    3    0    0  0.10996109953E+02  0.31993862321E+02  0.10102401921E+03  0.10655295325E+03  0.17770000000E+01 0. -1.
         15    1    3    3    0    0  0.11333095611E+03 -0.30486297015E+02  0.34050882948E+03  0.36017043272E+03  0.17770000000E+01 0.  1.
</event>
<event>
 7    1  0.2288857E-006  0.5093515E+03  0.7546771E-02  0.9379125E-01
        -11   -1    0    0    0    0  0.00000000000E+00  0.00000000000E+00  0.50000000000E+03  0.50000000000E+03  0.00000000000E+00 0.  1.
         11   -1    0    0    0    0 -0.00000000000E+00 -0.00000000000E+00 -0.50000000000E+03  0.50000000000E+03  0.00000000000E+00 0. -1.
         23    2    1    2    0    0 -0.54161394210E+02 -0.48174816905E+02  0.21122205762E+03  0.24170470425E+03  0.92477763945E+02 0.  0.
        -11    1    1    2    0    0 -0.46995753460E+02 -0.64077314547E+02  0.25557837192E+03  0.26764679575E+03  0.00000000000E+00 0.  1.
         11    1    1    2    0    0  0.10115714767E+03  0.11225213145E+03 -0.46680042954E+03  0.49064850000E+03  0.00000000000E+00 0. -1.
        -15    1    3    3    0    0  0.24796172504E+02 -0.23179298600E+02  0.73699459293E+02  0.81159707266E+02  0.17770000000E+01 0.  1.
         15    1    3    3    0    0 -0.78957566714E+02 -0.24995518305E+02  0.13752259832E+03  0.16054499698E+03  0.17770000000E+01 0. -1.
</event>
<event>
 7    1  0.2288857E-006  0.5361129E+03  0.7546771E-02  0.9322443E-01
        -11   -1    0    0    0    0  0.00000000000E+00  0.00000000000E+00  0.50000000000E+03  0.50000000000E+03  0.00000000000E+00 0.  1.
         11   -1    0    0    0    0 -0.00000000000E+00 -0.00000000000E+00 -0.50000000000E+03  0.50000000000E+03  0.00000000000E+00 0. -1.
         23    2    1    2    0    0  0.13109107423E+02  0.86421762422E+02 -0.36279761318E+02  0.13303497051E+03  0.93496056499E+02 0.  0.
        -11    1    1    2    0    0 -0.85353488826E+02 -0.16552988719E+03  0.42485983368E+03  0.46388709821E+03  0.00000000000E+00 0.  1.
         11    1    1    2    0    0  0.72244381403E+02  0.79108124768E+02 -0.38858007236E+03  0.40307793128E+03  0.00000000000E+00 0. -1.
        -15    1    3    3    0    0 -0.57809272173E+01  0.73639157000E+02  0.16326536337E+02  0.75669399898E+02  0.17770000000E+01 0. -1.
         15    1    3    3    0    0  0.18890034640E+02  0.12782605421E+02 -0.52606297655E+02  0.57365570616E+02  0.17770000000E+01 0.  1.
</event>
<event>
 7    1  0.2288857E-006  0.4486432E+03  0.7546771E-02  0.9522678E-01
        -11   -1    0    0    0    0  0.00000000000E+00  0.00000000000E+00  0.50000000000E+03  0.50000000000E+03  0.00000000000E+00 0. -1.
         11   -1    0    0    0    0 -0.00000000000E+00 -0.00000000000E+00 -0.50000000000E+03  0.50000000000E+03  0.00000000000E+00 0.  1.
         23    2    1    2    0    0  0.14990081787E+02  0.94118673884E+02  0.38260927031E+03  0.41323187769E+03  0.12364345388E+03 0.  0.
        -11    1    1    2    0    0 -0.83560003448E+02  0.48405889820E+01  0.75733316551E+02  0.11287710447E+03  0.00000000000E+00 0. -1.
         11    1    1    2    0    0  0.68569921660E+02 -0.98959262866E+02 -0.45834258686E+03  0.47389101784E+03  0.00000000000E+00 0.  1.
        -15    1    3    3    0    0 -0.39077629444E+02  0.29790434457E+02  0.25981342316E+03  0.26442523271E+03  0.17770000000E+01 0. -1.
         15    1    3    3    0    0  0.54067711231E+02  0.64328239428E+02  0.12279584714E+03  0.14880664498E+03  0.17770000000E+01 0.  1.
</event>
<event>
 7    1  0.2288857E-006  0.4415182E+03  0.7546771E-02  0.9541105E-01
        -11   -1    0    0    0    0  0.00000000000E+00  0.00000000000E+00  0.50000000000E+03  0.50000000000E+03  0.00000000000E+00 0.  1.
         11   -1    0    0    0    0 -0.00000000000E+00 -0.00000000000E+00 -0.50000000000E+03  0.50000000000E+03  0.00000000000E+00 0.  1.
         23    2    1    2    0    0  0.14374969662E+03  0.84355191465E+02  0.42478567998E+03  0.46504133903E+03  0.89670505150E+02 0.  0.
        -11    1    1    2    0    0 -0.11527511162E+03 -0.22310070171E+02 -0.13662811934E+02  0.11820644238E+03  0.00000000000E+00 0.  1.
         11    1    1    2    0    0 -0.28474584994E+02 -0.62045121294E+02 -0.41112286804E+03  0.41675221858E+03  0.00000000000E+00 0.  1.
        -15    1    3    3    0    0  0.34612473061E+02 -0.95660231240E+01  0.37966002139E+02  0.52288690338E+02  0.17770000000E+01 0. -1.
         15    1    3    3    0    0  0.10913722356E+03  0.93921214589E+02  0.38681967784E+03  0.41275264870E+03  0.17770000000E+01 0.  1.
</event>
<event>
 7    1  0.2288857E-006  0.5149345E+03  0.7546771E-02  0.9366999E-01
        -11   -1    0    0    0    0  0.00000000000E+00  0.00000000000E+00  0.50000000000E+03  0.50000000000E+03  0.00000000000E+00 0.  1.
         11   -1    0    0    0    0 -0.00000000000E+00 -0.00000000000E+00 -0.50000000000E+03  0.50000000000E+03  0.00000000000E+00 0. -1.
         23    2    1    2    0    0  0.47105070614E-01 -0.31699875299E+01  0.23181974644E+03  0.24809840820E+03  0.88331049295E+02 0.  0.
        -11    1    1    2    0    0  0.10600571395E+03 -0.61135939238E+02  0.23712168826E+03  0.26683610981E+03  0.00000000000E+00 0.  1.
         11    1    1    2    0    0 -0.10605281902E+03  0.64305926768E+02 -0.46894143470E+03  0.48506548199E+03  0.00000000000E+00 0. -1.
        -15    1    3    3    0    0 -0.31729658284E+02 -0.31130269252E+02  0.14167740015E+03  0.14849750274E+03  0.17770000000E+01 0. -1.
         15    1    3    3    0    0  0.31776763354E+02  0.27960281723E+02  0.90142346295E+02  0.99600905457E+02  0.17770000000E+01 0.  1.
</event>
<event>
 7    1  0.2288857E-006  0.5126575E+03  0.7546771E-02  0.9371925E-01
        -11   -1    0    0    0    0  0.00000000000E+00  0.00000000000E+00  0.50000000000E+03  0.50000000000E+03  0.00000000000E+00 0.  1.
         11   -1    0    0    0    0 -0.00000000000E+00 -0.00000000000E+00 -0.50000000000E+03  0.50000000000E+03  0.00000000000E+00 0. -1.
         23    2    1    2    0    0  0.56190149891E+01  0.53964551808E+02 -0.17132808623E+03  0.20147468853E+03  0.91076840113E+02 0.  0.
        -11    1    1    2    0    0 -0.75682639571E+02 -0.98727701086E+02  0.47119817721E+03  0.48734253160E+03  0.00000000000E+00 0.  1.
         11    1    1    2    0    0  0.70063624582E+02  0.44763149278E+02 -0.29987009099E+03  0.31118277988E+03  0.00000000000E+00 0. -1.
        -15    1    3    3    0    0  0.38448919710E+02  0.59444601609E+02 -0.97831015661E+02  0.12077270156E+03  0.17770000000E+01 0.  1.
         15    1    3    3    0    0 -0.32829904721E+02 -0.54800498011E+01 -0.73497070565E+02  0.80701986967E+02  0.17770000000E+01 0. -1.
</event>
<event>
 7    1  0.2288857E-006  0.5096000E+03  0.7546771E-02  0.9378582E-01
        -11   -1    0    0    0    0  0.00000000000E+00  0.00000000000E+00  0.50000000000E+03  0.50000000000E+03  0.00000000000E+00 0.  1.
         11   -1    0    0    0    0 -0.00000000000E+00 -0.00000000000E+00 -0.50000000000E+03  0.50000000000E+03  0.00000000000E+00 0. -1.
         23    2    1    2    0    0  0.91478110411E+02  0.79122535811E+02 -0.33683174931E+03  0.36807841118E+03  0.86008540707E+02 0.  0.
        -11    1    1    2    0    0 -0.11417370201E+03 -0.16384452503E+03  0.44789679166E+03  0.49040003934E+03  0.00000000000E+00 0.  1.
         11    1    1    2    0    0  0.22695591600E+02  0.84721989217E+02 -0.11106504234E+03  0.14152154947E+03  0.00000000000E+00 0. -1.
        -15    1    3    3    0    0  0.67418097969E+02  0.58855530899E+01 -0.11775647240E+03  0.13582924645E+03  0.17770000000E+01 0. -1.
         15    1    3    3    0    0  0.24060012442E+02  0.73236982721E+02 -0.21907527691E+03  0.23224916473E+03  0.17770000000E+01 0.  1.
</event>
<event>
 7    1  0.2288857E-006  0.5273105E+03  0.7546771E-02  0.9340692E-01
        -11   -1    0    0    0    0  0.00000000000E+00  0.00000000000E+00  0.50000000000E+03  0.50000000000E+03  0.00000000000E+00 0.  1.
         11   -1    0    0    0    0 -0.00000000000E+00 -0.00000000000E+00 -0.50000000000E+03  0.50000000000E+03  0.00000000000E+00 0.  1.
         23    2    1    2    0    0  0.79742490742E+02 -0.85350858867E+02  0.23117008460E+03  0.27981445986E+03  0.10589093442E+03 0.  0.
        -11    1    1    2    0    0  0.15421707490E+03  0.72793753485E+02  0.17936685217E+03  0.24749606945E+03  0.00000000000E+00 0.  1.
         11    1    1    2    0    0 -0.23395956564E+03  0.12557105382E+02 -0.41053693677E+03  0.47268947069E+03  0.00000000000E+00 0.  1.
        -15    1    3    3    0    0  0.64450751973E+02 -0.21829556363E+02  0.19178042630E+03  0.20350262554E+03  0.17770000000E+01 0.  1.
         15    1    3    3    0    0  0.15291738770E+02 -0.63521302504E+02  0.39389658295E+02  0.76311834312E+02  0.17770000000E+01 0. -1.
</event>
<event>
 7    1  0.2288857E-006  0.3391566E+03  0.7546771E-02  0.9855510E-01
        -11   -1    0    0    0    0  0.00000000000E+00  0.00000000000E+00  0.50000000000E+03  0.50000000000E+03  0.00000000000E+00 0.  1.
         11   -1    0    0    0    0 -0.00000000000E+00 -0.00000000000E+00 -0.50000000000E+03  0.50000000000E+03  0.00000000000E+00 0. -1.
         23    2    1    2    0    0  0.20511013871E+03 -0.13783917347E+03  0.11163572297E+03  0.28636249600E+03  0.92038783799E+02 0.  0.
        -11    1    1    2    0    0 -0.10295378706E+03 -0.97991221244E+02  0.23949781378E+03  0.27849769212E+03  0.00000000000E+00 0.  1.
         11    1    1    2    0    0 -0.10215635165E+03  0.23583039472E+03 -0.35113353675E+03  0.43513981188E+03  0.00000000000E+00 0. -1.
        -15    1    3    3    0    0  0.11478101726E+03 -0.12908455090E+03  0.67965748575E+02  0.18563405914E+03  0.17770000000E+01 0.  1.
         15    1    3    3    0    0  0.90329121453E+02 -0.87546225743E+01  0.43669974391E+02  0.10072843686E+03  0.17770000000E+01 0. -1.
</event>
<event>
 7    1  0.2288857E-006  0.3195445E+03  0.7546771E-02  0.9929459E-01
        -11   -1    0    0    0    0  0.00000000000E+00  0.00000000000E+00  0.50000000000E+03  0.50000000000E+03  0.00000000000E+00 0. -1.
         11   -1    0    0    0    0 -0.00000000000E+00 -0.00000000000E+00 -0.50000000000E+03  0.50000000000E+03  0.00000000000E+00 0.  1.
         23    2    1    2    0    0  0.28789588392E+03  0.10525116612E+03  0.80542288655E+01  0.32365783255E+03  0.10357448537E+03 0.  0.
        -11    1    1    2    0    0 -0.24307747723E+03 -0.55877073051E+01  0.27847382234E+03  0.36968304280E+03  0.00000000000E+00 0. -1.
         11    1    1    2    0    0 -0.44818406693E+02 -0.99663458818E+02 -0.28652805121E+03  0.30665912465E+03  0.00000000000E+00 0.  1.
        -15    1    3    3    0    0  0.68433666921E+02 -0.17080676461E+02  0.15699026488E+02  0.72280934128E+02  0.17770000000E+01 0. -1.
         15    1    3    3    0    0  0.21946221700E+03  0.12233184258E+03 -0.76447976228E+01  0.25137689842E+03  0.17770000000E+01 0.  1.
</event>
<event>
 7    1  0.2288857E-006  0.5153507E+03  0.7546771E-02  0.9366102E-01
        -11   -1    0    0    0    0  0.00000000000E+00  0.00000000000E+00  0.50000000000E+03  0.50000000000E+03  0.00000000000E+00 0.  1.
         11   -1    0    0    0    0 -0.00000000000E+00 -0.00000000000E+00 -0.50000000000E+03  0.50000000000E+03  0.00000000000E+00 0. -1.
         23    2    1    2    0    0 -0.45831547291E+02 -0.52682641905E+02  0.22941602405E+03  0.25657172008E+03  0.91221400809E+02 0.  0.
        -11    1    1    2    0    0  0.71289857401E+02 -0.42646327309E+02  0.24508286727E+03  0.25877898838E+03  0.00000000000E+00 0.  1.
         11    1    1    2    0    0 -0.25458310110E+02  0.95328969214E+02 -0.47449889132E+03  0.48464929154E+03  0.00000000000E+00 0. -1.
        -15    1    3    3    0    0 -0.10372381809E+02 -0.49392690236E+02  0.20997016417E+03  0.21595798602E+03  0.17770000000E+01 0.  1.
         15    1    3    3    0    0 -0.35459165482E+02 -0.32899516690E+01  0.19445859880E+02  0.40613734058E+02  0.17770000000E+01 0. -1.
</event>
<event>
 7    1  0.2288857E-006  0.5086288E+03  0.7546771E-02  0.9380706E-01
        -11   -1    0    0    0    0  0.00000000000E+00  0.00000000000E+00  0.50000000000E+03  0.50000000000E+03  0.00000000000E+00 0. -1.
         11   -1    0    0    0    0 -0.00000000000E+00 -0.00000000000E+00 -0.50000000000E+03  0.50000000000E+03  0.00000000000E+00 0.  1.
         23    2    1    2    0    0  0.75328617831E+02 -0.24635074910E+02  0.24306744362E+03  0.27151870782E+03  0.91429420702E+02 0.  0.
        -11    1    1    2    0    0  0.35568421149E+02 -0.17145629236E+02  0.23379928974E+03  0.23711008639E+03  0.00000000000E+00 0. -1.
         11    1    1    2    0    0 -0.11089703898E+03  0.41780704146E+02 -0.47686673336E+03  0.49137120579E+03  0.00000000000E+00 0.  1.
        -15    1    3    3    0    0  0.42145381645E+02 -0.48211843032E+02  0.75245143875E+02  0.98821072693E+02  0.17770000000E+01 0. -1.
         15    1    3    3    0    0  0.33183236186E+02  0.23576768122E+02  0.16782229974E+03  0.17269763513E+03  0.17770000000E+01 0.  1.
</event>
<event>
 7    1  0.2288857E-006  0.3291180E+03  0.7546771E-02  0.9892670E-01
        -11   -1    0    0    0    0  0.00000000000E+00  0.00000000000E+00  0.50000000000E+03  0.50000000000E+03  0.00000000000E+00 0. -1.
         11   -1    0    0    0    0 -0.00000000000E+00 -0.00000000000E+00 -0.50000000000E+03  0.50000000000E+03  0.00000000000E+00 0. -1.
         23    2    1    2    0    0  0.23172878075E+03  0.41595486469E+02  0.16148993296E+03  0.29382118326E+03  0.69451255975E+02 0.  0.
        -11    1    1    2    0    0 -0.96280390271E+02 -0.16868299565E+03  0.21293949601E+03  0.28821362829E+03  0.00000000000E+00 0. -1.
         11    1    1    2    0    0 -0.13544839048E+03  0.12708750918E+03 -0.37442942898E+03  0.41796518845E+03  0.00000000000E+00 0. -1.
        -15    1    3    3    0    0  0.20649461612E+03  0.43559905403E+02  0.11372983793E+03  0.23973970386E+03  0.17770000000E+01 0. -1.
         15    1    3    3    0    0  0.25234164638E+02 -0.19644189341E+01  0.47760095031E+02  0.54081479391E+02  0.17770000000E+01 0.  1.
</event>
<event>
 7    1  0.2288857E-006  0.4741000E+03  0.7546771E-02  0.9459704E-01
        -11   -1    0    0    0    0  0.00000000000E+00  0.00000000000E+00  0.50000000000E+03  0.50000000000E+03  0.00000000000E+00 0.  1.
         11   -1    0    0    0    0 -0.00000000000E+00 -0.00000000000E+00 -0.50000000000E+03  0.50000000000E+03  0.00000000000E+00 0. -1.
         23    2    1    2    0    0  0.27718063609E+02 -0.77449769024E+02  0.43463681758E+03  0.45213769133E+03  0.93555175998E+02 0.  0.
        -11    1    1    2    0    0  0.33655080732E+02 -0.30718813101E+02  0.37878373962E+02  0.59254376644E+02  0.00000000000E+00 0.  1.
         11    1    1    2    0    0 -0.61373144342E+02  0.10816858212E+03 -0.47251519154E+03  0.48860793203E+03  0.00000000000E+00 0. -1.
        -15    1    3    3    0    0  0.21663444139E+02 -0.96534147053E+02  0.40031428786E+03  0.41236250212E+03  0.17770000000E+01 0.  1.
         15    1    3    3    0    0  0.60546194708E+01  0.19084378029E+02  0.34322529716E+02  0.39775189212E+02  0.17770000000E+01 0. -1.
</event>
<event>
 7    1  0.2288857E-006  0.3991177E+03  0.7546771E-02  0.9659011E-01
        -11   -1    0    0    0    0  0.00000000000E+00  0.00000000000E+00  0.50000000000E+03  0.50000000000E+03  0.00000000000E+00 0.  1.
         11   -1    0    0    0    0 -0.00000000000E+00 -0.00000000000E+00 -0.50000000000E+03  0.50000000000E+03  0.00000000000E+00 0.  1.
         23    2    1    2    0    0 -0.11231090998E+03 -0.92577659534E+02  0.32674246382E+03  0.36915638198E+03  0.91276684558E+02 0.  0.
        -11    1    1    2    0    0  0.15855224155E+03 -0.62477202077E+02  0.83551769556E+02  0.18979755603E+03  0.00000000000E+00 0.  1.
         11    1    1    2    0    0 -0.46241331562E+02  0.15505486161E+03 -0.41029423338E+03  0.44104606199E+03  0.00000000000E+00 0.  1.
        -15    1    3    3    0    0 -0.11697868570E+03 -0.10573699800E+03  0.30187376667E+03  0.34058076044E+03  0.17770000000E+01 0.  1.
         15    1    3    3    0    0  0.46677757112E+01  0.13159338465E+02  0.24868697154E+02  0.28575621534E+02  0.17770000000E+01 0. -1.
</event>
<event>
 7    1  0.2288857E-006  0.5145655E+03  0.7546771E-02  0.9367795E-01
        -11   -1    0    0    0    0  0.00000000000E+00  0.00000000000E+00  0.50000000000E+03  0.50000000000E+03  0.00000000000E+00 0. -1.
         11   -1    0    0    0    0 -0.00000000000E+00 -0.00000000000E+00 -0.50000000000E+03  0.50000000000E+03  0.00000000000E+00 0.  1.
         23    2    1    2    0    0  0.24067142390E+02 -0.54824491754E+02  0.18167798051E+03  0.21182138377E+03  0.90975039329E+02 0.  0.
        -11    1    1    2    0    0  0.14536485579E+03 -0.54152529566E+02  0.25998188171E+03  0.30274414375E+03  0.00000000000E+00 0. -1.
         11    1    1    2    0    0 -0.16943199818E+03  0.10897702132E+03 -0.44165986221E+03  0.48543447248E+03  0.00000000000E+00 0.  1.
        -15    1    3    3    0    0 -0.31321975299E+01  0.19569768914E+02  0.90098938381E+01  0.21843132392E+02  0.17770000000E+01 0.  1.
         15    1    3    3    0    0  0.27199339920E+02 -0.74394260668E+02  0.17266808667E+03  0.18997825137E+03  0.17770000000E+01 0. -1.
</event>
<event>
 7    1  0.2288857E-006  0.3723674E+03  0.7546771E-02  0.9741765E-01
        -11   -1    0    0    0    0  0.00000000000E+00  0.00000000000E+00  0.50000000000E+03  0.50000000000E+03  0.00000000000E+00 0. -1.
         11   -1    0    0    0    0 -0.00000000000E+00 -0.00000000000E+00 -0.50000000000E+03  0.50000000000E+03  0.00000000000E+00 0. -1.
         23    2    1    2    0    0  0.18388684239E+03 -0.61448351872E+02 -0.13806211643E+01  0.23044028317E+03  0.12454134752E+03 0.  0.
        -11    1    1    2    0    0 -0.23118703596E+02  0.15342464756E+03  0.34551142946E+03  0.37875024069E+03  0.00000000000E+00 0. -1.
         11    1    1    2    0    0 -0.16076813879E+03 -0.91976295685E+02 -0.34413080830E+03  0.39080947614E+03  0.00000000000E+00 0. -1.
        -15    1    3    3    0    0  0.14653538845E+03  0.12990431608E+02  0.25591356626E+00  0.14712102026E+03  0.17770000000E+01 0. -1.
         15    1    3    3    0    0  0.37351453940E+02 -0.74438783480E+02 -0.16365347306E+01  0.83319262913E+02  0.17770000000E+01 0.  1.
</event>
<event>
 7    1  0.2288857E-006  0.5072195E+03  0.7546771E-02  0.9383799E-01
        -11   -1    0    0    0    0  0.00000000000E+00  0.00000000000E+00  0.50000000000E+03  0.50000000000E+03  0.00000000000E+00 0. -1.
         11   -1    0    0    0    0 -0.00000000000E+00 -0.00000000000E+00 -0.50000000000E+03  0.50000000000E+03  0.00000000000E+00 0.  1.
         23    2    1    2    0    0 -0.92970308616E+02 -0.49980573961E+02 -0.36149647412E+03  0.38757678598E+03  0.91621657770E+02 0.  0.
        -11    1    1    2    0    0  0.96779098113E+02  0.86412013503E+02  0.47539391370E+03  0.49278048165E+03  0.00000000000E+00 0. -1.
         11    1    1    2    0    0 -0.38087894963E+01 -0.36431439542E+02 -0.11389743959E+03  0.11964273237E+03  0.00000000000E+00 0.  1.
        -15    1    3    3    0    0 -0.74099731299E+02 -0.11917567660E+01 -0.12475042988E+03  0.14511381032E+03  0.17770000000E+01 0.  1.
         15    1    3    3    0    0 -0.18870577317E+02 -0.48788817195E+02 -0.23674604424E+03  0.24246297566E+03  0.17770000000E+01 0. -1.
</event>
<event>
 7    1  0.2288857E-006  0.5108263E+03  0.7546771E-02  0.9375906E-01
        -11   -1    0    0    0    0  0.00000000000E+00  0.00000000000E+00  0.50000000000E+03  0.50000000000E+03  0.00000000000E+00 0. -1.
         11   -1    0    0    0    0 -0.00000000000E+00 -0.00000000000E+00 -0.50000000000E+03  0.50000000000E+03  0.00000000000E+00 0. -1.
         23    2    1    2    0    0  0.35073578913E+02  0.16938157271E+03 -0.20743406455E+03  0.28508817910E+03  0.91247496475E+02 0.  0.
        -11    1    1    2    0    0 -0.81501318774E+01 -0.27077673967E+03  0.40731366726E+03  0.48917368177E+03  0.00000000000E+00 0. -1.
         11    1    1    2    0    0 -0.26923447036E+02  0.10139516696E+03 -0.19987960271E+03  0.22573813914E+03  0.00000000000E+00 0. -1.
        -15    1    3    3    0    0  0.20229754006E+02  0.16682756724E+03 -0.14861106709E+03  0.22434145209E+03  0.17770000000E+01 0. -1.
         15    1    3    3    0    0  0.14843824907E+02  0.25540054716E+01 -0.58822997467E+02  0.60746727005E+02  0.17770000000E+01 0.  1.
</event>
<event>
 7    1  0.2288857E-006  0.4121280E+03  0.7546771E-02  0.9621230E-01
        -11   -1    0    0    0    0  0.00000000000E+00  0.00000000000E+00  0.50000000000E+03  0.50000000000E+03  0.00000000000E+00 0.  1.
         11   -1    0    0    0    0 -0.00000000000E+00 -0.00000000000E+00 -0.50000000000E+03  0.50000000000E+03  0.00000000000E+00 0. -1.
         23    2    1    2    0    0 -0.12725909739E+03  0.11104825922E+03  0.32296067288E+03  0.37666628117E+03  0.95117282349E+02 0.  0.
        -11    1    1    2    0    0  0.11004926318E+03  0.10346481382E+03  0.76707324834E+02  0.16941021725E+03  0.00000000000E+00 0.  1.
         11    1    1    2    0    0  0.17209834209E+02 -0.21451307304E+03 -0.39966799771E+03  0.45392350158E+03  0.00000000000E+00 0. -1.
        -15    1    3    3    0    0 -0.20499874787E+02  0.11212609922E+02  0.14419369531E+01  0.23477742624E+02  0.17770000000E+01 0.  1.
         15    1    3    3    0    0 -0.10675922260E+03  0.99835649295E+02  0.32151873592E+03  0.35318853854E+03  0.17770000000E+01 0. -1.
</event>
<event>
 7    1  0.2288857E-006  0.4576882E+03  0.7546771E-02  0.9499804E-01
        -11   -1    0    0    0    0  0.00000000000E+00  0.00000000000E+00  0.50000000000E+03  0.50000000000E+03  0.00000000000E+00 0.  1.
         11   -1    0    0    0    0 -0.00000000000E+00 -0.00000000000E+00 -0.50000000000E+03  0.50000000000E+03  0.00000000000E+00 0. -1.
         23    2    1    2    0    0  0.92011374621E+01 -0.36975907600E+02  0.45141149605E+03  0.46229259867E+03  0.92142440530E+02 0.  0.
        -11    1    1    2    0    0 -0.53263042106E+02 -0.69635899411E+02 -0.18383557316E+02  0.89577147314E+02  0.00000000000E+00 0.  1.
         11    1    1    2    0    0  0.44061904644E+02  0.10661180701E+03 -0.43302793874E+03  0.44813025401E+03  0.00000000000E+00 0. -1.
        -15    1    3    3    0    0 -0.28096601066E+01  0.28336040626E+02  0.78805603002E+02  0.83811133996E+02  0.17770000000E+01 0. -1.
         15    1    3    3    0    0  0.12010797569E+02 -0.65311948226E+02  0.37260589305E+03  0.37848146468E+03  0.17770000000E+01 0.  1.
</event>
<event>
 7    1  0.2288857E-006  0.3869763E+03  0.7546771E-02  0.9695684E-01
        -11   -1    0    0    0    0  0.00000000000E+00  0.00000000000E+00  0.50000000000E+03  0.50000000000E+03  0.00000000000E+00 0.  1.
         11   -1    0    0    0    0 -0.00000000000E+00 -0.00000000000E+00 -0.50000000000E+03  0.50000000000E+03  0.00000000000E+00 0. -1.
         23    2    1    2    0    0  0.79390856148E+02 -0.52839116739E+02  0.15741982668E+03  0.20446335959E+03  0.89047084647E+02 0.  0.
        -11    1    1    2    0    0 -0.24521542198E+03 -0.15757062563E+02  0.24988072241E+03  0.35045579412E+03  0.00000000000E+00 0.  1.
         11    1    1    2    0    0  0.16582456583E+03  0.68596179302E+02 -0.40730054909E+03  0.44508084630E+03  0.00000000000E+00 0. -1.
        -15    1    3    3    0    0  0.53577065513E+02  0.14477427911E+02  0.47907014643E+02  0.73337150538E+02  0.17770000000E+01 0. -1.
         15    1    3    3    0    0  0.25813790634E+02 -0.67316544650E+02  0.10951281204E+03  0.13112620905E+03  0.17770000000E+01 0.  1.
</event>
<event>
 7    1  0.2288857E-006  0.5181842E+03  0.7546771E-02  0.9360016E-01
        -11   -1    0    0    0    0  0.00000000000E+00  0.00000000000E+00  0.50000000000E+03  0.50000000000E+03  0.00000000000E+00 0.  1.
         11   -1    0    0    0    0 -0.00000000000E+00 -0.00000000000E+00 -0.50000000000E+03  0.50000000000E+03  0.00000000000E+00 0. -1.
         23    2    1    2    0    0  0.25304490558E+02  0.20284836473E+03 -0.32971047649E+03  0.39834387624E+03  0.90449262659E+02 0.  0.
        -11    1    1    2    0    0  0.15963563219E+02 -0.19185422636E+03  0.44168269004E+03  0.48181581356E+03  0.00000000000E+00 0.  1.
         11    1    1    2    0    0 -0.41268053778E+02 -0.10994138369E+02 -0.11197221354E+03  0.11984031019E+03  0.00000000000E+00 0. -1.
        -15    1    3    3    0    0 -0.29415242802E+02  0.10845625342E+03 -0.14047736230E+03  0.17990292511E+03  0.17770000000E+01 0. -1.
         15    1    3    3    0    0  0.54719733360E+02  0.94392111309E+02 -0.18923311419E+03  0.21844095113E+03  0.17770000000E+01 0.  1.
</event>
<event>
 7    1  0.2288857E-006  0.4912239E+03  0.7546771E-02  0.9419664E-01
        -11   -1    0    0    0    0  0.00000000000E+00  0.00000000000E+00  0.50000000000E+03  0.50000000000E+03  0.00000000000E+00 0.  1.
         11   -1    0    0    0    0 -0.00000000000E+00 -0.00000000000E+00 -0.50000000000E+03  0.50000000000E+03  0.00000000000E+00 0. -1.
         23    2    1    2    0    0  0.18851457467E+02 -0.96149318250E+02  0.46373538459E+03  0.48332263008E+03  0.94605438431E+02 0.  0.
        -11    1    1    2    0    0  0.18373776120E+02 -0.14222093986E+02  0.12514051606E+02  0.26390625113E+02  0.00000000000E+00 0.  1.
         11    1    1    2    0    0 -0.37225233587E+02  0.11037141224E+03 -0.47624943620E+03  0.49028674480E+03  0.00000000000E+00 0. -1.
        -15    1    3    3    0    0  0.39603287750E+02 -0.10420193178E+03  0.34698901282E+03  0.36445986848E+03  0.17770000000E+01 0.  1.
         15    1    3    3    0    0 -0.20751830283E+02  0.80526135312E+01  0.11674637177E+03  0.11886276160E+03  0.17770000000E+01 0. -1.
</event>
<event>
 7    1  0.2288857E-006  0.4717929E+03  0.7546771E-02  0.9465236E-01
        -11   -1    0    0    0    0  0.00000000000E+00  0.00000000000E+00  0.50000000000E+03  0.50000000000E+03  0.00000000000E+00 0.  1.
         11   -1    0    0    0    0 -0.00000000000E+00 -0.00000000000E+00 -0.50000000000E+03  0.50000000000E+03  0.00000000000E+00 0.  1.
         23    2    1    2    0    0 -0.23680381006E+02 -0.37260589544E+02  0.45825611077E+03  0.46929505781E+03  0.91049855838E+02 0.  0.
        -11    1    1    2    0    0 -0.52738322220E+02  0.34610259904E+02  0.30015739490E+01  0.63152277610E+02  0.00000000000E+00 0.  1.
         11    1    1    2    0    0  0.76418703226E+02  0.26503296396E+01 -0.46125768472E+03  0.46755266458E+03  0.00000000000E+00 0.  1.
        -15    1    3    3    0    0  0.25681498692E+02  0.14524158355E+02  0.14185695733E+03  0.14490357008E+03  0.17770000000E+01 0. -1.
         15    1    3    3    0    0 -0.49361879698E+02 -0.51784747899E+02  0.31639915344E+03  0.32439148772E+03  0.17770000000E+01 0.  1.
</event>
<event>
 7    1  0.2288857E-006  0.4968300E+03  0.7546771E-02  0.9406931E-01
        -11   -1    0    0    0    0  0.00000000000E+00  0.00000000000E+00  0.50000000000E+03  0.50000000000E+03  0.00000000000E+00 0.  1.
         11   -1    0    0    0    0 -0.00000000000E+00 -0.00000000000E+00 -0.50000000000E+03  0.50000000000E+03  0.00000000000E+00 0.  1.
         23    2    1    2    0    0 -0.52139987945E+02  0.41791602900E+02  0.48429022559E+03  0.49727771306E+03  0.91010905332E+02 0.  0.
        -11    1    1    2    0    0 -0.77433765920E+01  0.12079610483E+02 -0.28986104381E+01  0.14638265366E+02  0.00000000000E+00 0.  1.
         11    1    1    2    0    0  0.59883364537E+02 -0.53871213383E+02 -0.48139161515E+03  0.48808402157E+03  0.00000000000E+00 0.  1.
        -15    1    3    3    0    0  0.68684159660E+01 -0.12571651622E+02  0.13726851453E+02  0.19919983489E+02  0.17770000000E+01 0. -1.
         15    1    3    3    0    0 -0.59008403911E+02  0.54363254522E+02  0.47056337413E+03  0.47735772957E+03  0.17770000000E+01 0.  1.
</event>
<event>
 7    1  0.2288857E-006  0.5202535E+03  0.7546771E-02  0.9355598E-01
        -11   -1    0    0    0    0  0.00000000000E+00  0.00000000000E+00  0.50000000000E+03  0.50000000000E+03  0.00000000000E+00 0.  1.
         11   -1    0    0    0    0 -0.00000000000E+00 -0.00000000000E+00 -0.50000000000E+03  0.50000000000E+03  0.00000000000E+00 0. -1.
         23    2    1    2    0    0  0.63054317213E+02 -0.79362963466E+02 -0.12115019199E+03  0.18397531043E+03  0.94314468332E+02 0.  0.
        -11    1    1    2    0    0 -0.57835209675E+02  0.16933183774E+03  0.44512758527E+03  0.47974654759E+03  0.00000000000E+00 0.  1.
         11    1    1    2    0    0 -0.52191075374E+01 -0.89968874273E+02 -0.32397739328E+03  0.33627814199E+03  0.00000000000E+00 0. -1.
        -15    1    3    3    0    0 -0.25029161054E+02 -0.18922607175E+02 -0.31625256918E+02  0.44585183295E+02  0.17770000000E+01 0.  1.
         15    1    3    3    0    0  0.88083478266E+02 -0.60440356292E+02 -0.89524935077E+02  0.13939012713E+03  0.17770000000E+01 0. -1.
</event>
<event>
 7    1  0.2288857E-006  0.5232742E+03  0.7546771E-02  0.9349187E-01
        -11   -1    0    0    0    0  0.00000000000E+00  0.00000000000E+00  0.50000000000E+03  0.50000000000E+03  0.00000000000E+00 0. -1.
         11   -1    0    0    0    0 -0.00000000000E+00 -0.00000000000E+00 -0.50000000000E+03  0.50000000000E+03  0.00000000000E+00 0.  1.
         23    2    1    2    0    0 -0.14272065668E+03 -0.10069023057E+02 -0.30374897433E+03  0.34792916938E+03  0.91217851498E+02 0.  0.
        -11    1    1    2    0    0  0.13094252076E+03  0.11501391766E+03  0.44372661036E+03  0.47672575947E+03  0.00000000000E+00 0. -1.
         11    1    1    2    0    0  0.11778135920E+02 -0.10494489460E+03 -0.13997763603E+03  0.17534507115E+03  0.00000000000E+00 0.  1.
        -15    1    3    3    0    0 -0.14149436108E+03 -0.27663394900E+02 -0.22518257355E+03  0.26738785835E+03  0.17770000000E+01 0.  1.
         15    1    3    3    0    0 -0.12262955968E+01  0.17594371843E+02 -0.78566400784E+02  0.80541311031E+02  0.17770000000E+01 0. -1.
</event>
<event>
 7    1  0.2288857E-006  0.4588303E+03  0.7546771E-02  0.9496956E-01
        -11   -1    0    0    0    0  0.00000000000E+00  0.00000000000E+00  0.50000000000E+03  0.50000000000E+03  0.00000000000E+00 0.  1.
         11   -1    0    0    0    0 -0.00000000000E+00 -0.00000000000E+00 -0.50000000000E+03  0.50000000000E+03  0.00000000000E+00 0. -1.
         23    2    1    2    0    0 -0.20101586284E+02 -0.20640931213E+03 -0.41535755027E+03  0.47277461274E+03  0.89359173986E+02 0.  0.
        -11    1    1    2    0    0 -0.56828568590E+02  0.16774744531E+03  0.40305491785E+03  0.44025215322E+03  0.00000000000E+00 0.  1.
         11    1    1    2    0    0  0.76930154874E+02  0.38661866819E+02  0.12302632422E+02  0.86973234040E+02  0.00000000000E+00 0. -1.
        -15    1    3    3    0    0 -0.36580321830E+02 -0.96932886550E+02 -0.27583266872E+03  0.29465390427E+03  0.17770000000E+01 0. -1.
         15    1    3    3    0    0  0.16478735547E+02 -0.10947642558E+03 -0.13952488155E+03  0.17812070846E+03  0.17770000000E+01 0.  1.
</event>
<event>
 7    1  0.2288857E-006  0.3739586E+03  0.7546771E-02  0.9736637E-01
        -11   -1    0    0    0    0  0.00000000000E+00  0.00000000000E+00  0.50000000000E+03  0.50000000000E+03  0.00000000000E+00 0.  1.
         11   -1    0    0    0    0 -0.00000000000E+00 -0.00000000000E+00 -0.50000000000E+03  0.50000000000E+03  0.00000000000E+00 0. -1.
         23    2    1    2    0    0  0.47167230773E+01 -0.14756651830E+03  0.28208592596E+03  0.33168660275E+03  0.92980686275E+02 0.  0.
        -11    1    1    2    0    0 -0.12499238773E+03  0.13115482121E+03  0.14009804136E+03  0.22902433345E+03  0.00000000000E+00 0.  1.
         11    1    1    2    0    0  0.12027566466E+03  0.16411697094E+02 -0.42218396732E+03  0.43928906380E+03  0.00000000000E+00 0. -1.
        -15    1    3    3    0    0  0.48838826456E+02 -0.80200208387E+02  0.14971958319E+03  0.17673826896E+03  0.17770000000E+01 0. -1.
         15    1    3    3    0    0 -0.44122103378E+02 -0.67366309918E+02  0.13236634277E+03  0.15494833380E+03  0.17770000000E+01 0.  1.
</event>
<event>
 7    1  0.2288857E-006  0.5189746E+03  0.7546771E-02  0.9358326E-01
        -11   -1    0    0    0    0  0.00000000000E+00  0.00000000000E+00  0.50000000000E+03  0.50000000000E+03  0.00000000000E+00 0. -1.
         11   -1    0    0    0    0 -0.00000000000E+00 -0.00000000000E+00 -0.50000000000E+03  0.50000000000E+03  0.00000000000E+00 0. -1.
         23    2    1    2    0    0  0.57662964115E+01 -0.79144621108E+00  0.13875073640E+03  0.17149018917E+03  0.10061432089E+03 0.  0.
        -11    1    1    2    0    0 -0.47368445779E+02 -0.95858422715E+02  0.33062489451E+03  0.34748442804E+03  0.00000000000E+00 0. -1.
         11    1    1    2    0    0  0.41602149367E+02  0.96649868927E+02 -0.46937563091E+03  0.48102538279E+03  0.00000000000E+00 0. -1.
        -15    1    3    3    0    0 -0.39616165200E+02 -0.69393165526E+01  0.11061071148E+03  0.11770931094E+03  0.17770000000E+01 0. -1.
         15    1    3    3    0    0  0.45382461611E+02  0.61478703416E+01  0.28140024924E+02  0.53780878231E+02  0.17770000000E+01 0.  1.
</event>
<event>
 7    1  0.2288857E-006  0.5309049E+03  0.7546771E-02  0.9333195E-01
        -11   -1    0    0    0    0  0.00000000000E+00  0.00000000000E+00  0.50000000000E+03  0.50000000000E+03  0.00000000000E+00 0. -1.
         11   -1    0    0    0    0 -0.00000000000E+00 -0.00000000000E+00 -0.50000000000E+03  0.50000000000E+03  0.00000000000E+00 0.  1.
         23    2    1    2    0    0  0.59533255799E+02 -0.12831100189E+01 -0.18565657548E+03  0.21505709988E+03  0.90748759060E+02 0.  0.
        -11    1    1    2    0    0 -0.36893624755E+02 -0.21365145736E+03  0.41598332606E+03  0.46909509946E+03  0.00000000000E+00 0. -1.
         11    1    1    2    0    0 -0.22639631045E+02  0.21493456738E+03 -0.23032675058E+03  0.31584780066E+03  0.00000000000E+00 0.  1.
        -15    1    3    3    0    0 -0.16091398085E+02  0.73041391601E+01 -0.95128131310E+02  0.96771910371E+02  0.17770000000E+01 0.  1.
         15    1    3    3    0    0  0.75624653885E+02 -0.85872491790E+01 -0.90528444171E+02  0.11828518951E+03  0.17770000000E+01 0. -1.
</event>
<event>
 7    1  0.2288857E-006  0.3733723E+03  0.7546771E-02  0.9738524E-01
        -11   -1    0    0    0    0  0.00000000000E+00  0.00000000000E+00  0.50000000000E+03  0.50000000000E+03  0.00000000000E+00 0.  1.
         11   -1    0    0    0    0 -0.00000000000E+00 -0.00000000000E+00 -0.50000000000E+03  0.50000000000E+03  0.00000000000E+00 0. -1.
         23    2    1    2    0    0 -0.14603046725E+03 -0.18193265054E+03  0.25192234755E+03  0.35511741268E+03  0.90659367378E+02 0.  0.
        -11    1    1    2    0    0  0.32498695410E+02  0.17269114366E+03  0.14757056171E+03  0.22946779074E+03  0.00000000000E+00 0.  1.
         11    1    1    2    0    0  0.11353177184E+03  0.92415068788E+01 -0.39949290926E+03  0.41541479658E+03  0.00000000000E+00 0. -1.
        -15    1    3    3    0    0 -0.17614185665E+01 -0.61869148714E+02  0.74013091846E+02  0.96498651035E+02  0.17770000000E+01 0.  1.
         15    1    3    3    0    0 -0.14426904869E+03 -0.12006350183E+03  0.17790925570E+03  0.25861876164E+03  0.17770000000E+01 0. -1.
</event>
<event>
 7    1  0.2288857E-006  0.5374075E+03  0.7546771E-02  0.9319790E-01
        -11   -1    0    0    0    0  0.00000000000E+00  0.00000000000E+00  0.50000000000E+03  0.50000000000E+03  0.00000000000E+00 0.  1.
         11   -1    0    0    0    0 -0.00000000000E+00 -0.00000000000E+00 -0.50000000000E+03  0.50000000000E+03  0.00000000000E+00 0. -1.
         23    2    1    2    0    0  0.10551732441E+03 -0.54239720968E+02 -0.19756853625E+03  0.24666001701E+03  0.87931703030E+02 0.  0.
        -11    1    1    2    0    0  0.30707846178E+02  0.10877498845E+03  0.44857197659E+03  0.46259246439E+03  0.00000000000E+00 0.  1.
         11    1    1    2    0    0 -0.13622517059E+03 -0.54535267481E+02 -0.25100344035E+03  0.29074751859E+03  0.00000000000E+00 0. -1.
        -15    1    3    3    0    0  0.11157066310E+03 -0.67935086330E+02 -0.16259824109E+03  0.20857740662E+03  0.17770000000E+01 0. -1.
         15    1    3    3    0    0 -0.60533386928E+01  0.13695365362E+02 -0.34970295161E+02  0.38082610393E+02  0.17770000000E+01 0.  1.
</event>
<event>
 7    1  0.2288857E-006  0.5149705E+03  0.7546771E-02  0.9366921E-01
        -11   -1    0    0    0    0  0.00000000000E+00  0.00000000000E+00  0.50000000000E+03  0.50000000000E+03  0.00000000000E+00 0. -1.
         11   -1    0    0    0    0 -0.00000000000E+00 -0.00000000000E+00 -0.50000000000E+03  0.50000000000E+03  0.00000000000E+00 0. -1.
         23    2    1    2    0    0 -0.23353163665E+02 -0.24919698026E+02  0.14367044833E+03  0.17022080696E+03  0.84661465817E+02 0.  0.
        -11    1    1    2    0    0 -0.36132074970E+02 -0.17929792671E+03  0.29223122452E+03  0.34474970913E+03  0.00000000000E+00 0. -1.
         11    1    1    2    0    0  0.59485238635E+02  0.20421762473E+03 -0.43590167285E+03  0.48502948391E+03  0.00000000000E+00 0. -1.
        -15    1    3    3    0    0 -0.50325474893E+02 -0.60615738498E+01  0.11801819432E+03  0.12845562666E+03  0.17770000000E+01 0.  1.
         15    1    3    3    0    0  0.26972311228E+02 -0.18858124176E+02  0.25652254010E+02  0.41765180296E+02  0.17770000000E+01 0. -1.
</event>
<event>
 7    1  0.2288857E-006  0.3791014E+03  0.7546771E-02  0.9720248E-01
        -11   -1    0    0    0    0  0.00000000000E+00  0.00000000000E+00  0.50000000000E+03  0.50000000000E+03  0.00000000000E+00 0. -1.
         11   -1    0    0    0    0 -0.00000000000E+00 -0.00000000000E+00 -0.50000000000E+03  0.50000000000E+03  0.00000000000E+00 0.  1.
         23    2    1    2    0    0 -0.12969053412E+03  0.94741140062E+02  0.11303093672E+03  0.21677401592E+03  0.91757632168E+02 0.  0.
        -11    1    1    2    0    0  0.14993175249E+03  0.18499012892E+01  0.31238799924E+03  0.34651004980E+03  0.00000000000E+00 0. -1.
         11    1    1    2    0    0 -0.20241218372E+02 -0.96591041351E+02 -0.42541893596E+03  0.43671593429E+03  0.00000000000E+00 0.  1.
        -15    1    3    3    0    0 -0.59248083906E+02  0.49666000029E+02  0.14822463303E+01  0.77345987541E+02  0.17770000000E+01 0.  1.
         15    1    3    3    0    0 -0.70442450216E+02  0.45075140032E+02  0.11154869039E+03  0.13942802838E+03  0.17770000000E+01 0. -1.
</event>
<event>
 7    1  0.2288857E-006  0.3845688E+03  0.7546771E-02  0.9703127E-01
        -11   -1    0    0    0    0  0.00000000000E+00  0.00000000000E+00  0.50000000000E+03  0.50000000000E+03  0.00000000000E+00 0. -1.
         11   -1    0    0    0    0 -0.00000000000E+00 -0.00000000000E+00 -0.50000000000E+03  0.50000000000E+03  0.00000000000E+00 0.  1.
         23    2    1    2    0    0 -0.48466143635E+02  0.15119526769E+03 -0.98700877649E+02  0.20846756980E+03  0.92238215291E+02 0.  0.
        -11    1    1    2    0    0  0.39885969605E+02 -0.75608220149E+02  0.43674613314E+03  0.44503334520E+03  0.00000000000E+00 0. -1.
         11    1    1    2    0    0  0.85801740295E+01 -0.75587047537E+02 -0.33804525550E+03  0.34649908500E+03  0.00000000000E+00 0.  1.
        -15    1    3    3    0    0 -0.67485021396E+02  0.13328334258E+03 -0.58414276118E+02  0.16041839952E+03  0.17770000000E+01 0. -1.
         15    1    3    3    0    0  0.19018877761E+02  0.17911925104E+02 -0.40286601532E+02  0.48049170276E+02  0.17770000000E+01 0.  1.
</event>
<event>
 7    1  0.2288857E-006  0.3458792E+03  0.7546771E-02  0.9831388E-01
        -11   -1    0    0    0    0  0.00000000000E+00  0.00000000000E+00  0.50000000000E+03  0.50000000000E+03  0.00000000000E+00 0.  1.
         11   -1    0    0    0    0 -0.00000000000E+00 -0.00000000000E+00 -0.50000000000E+03  0.50000000000E+03  0.00000000000E+00 0.  1.
         23    2    1    2    0    0 -0.62868760558E+02 -0.29606177112E+02  0.28945411694E+03  0.30972926305E+03  0.85554215554E+02 0.  0.
        -11    1    1    2    0    0  0.23300611998E+03  0.96419299386E+02  0.91080938916E+02  0.26811242172E+03  0.00000000000E+00 0.  1.
         11    1    1    2    0    0 -0.17013735943E+03 -0.66813122274E+02 -0.38053505586E+03  0.42215831523E+03  0.00000000000E+00 0.  1.
        -15    1    3    3    0    0  0.99082150105E+01 -0.34940709602E+02  0.11526363610E+03  0.12086310209E+03  0.17770000000E+01 0. -1.
         15    1    3    3    0    0 -0.72776975568E+02  0.53345324892E+01  0.17419048085E+03  0.18886616096E+03  0.17770000000E+01 0.  1.
</event>
<event>
 7    1  0.2288857E-006  0.4240950E+03  0.7546771E-02  0.9587770E-01
        -11   -1    0    0    0    0  0.00000000000E+00  0.00000000000E+00  0.50000000000E+03  0.50000000000E+03  0.00000000000E+00 0. -1.
         11   -1    0    0    0    0 -0.00000000000E+00 -0.00000000000E+00 -0.50000000000E+03  0.50000000000E+03  0.00000000000E+00 0.  1.
         23    2    1    2    0    0  0.56724933153E+00 -0.49398374779E+02 -0.95536126182E+02  0.14501819713E+03  0.97275921438E+02 0.  0.
        -11    1    1    2    0    0  0.17911903446E+03 -0.25356288873E+03  0.31314051291E+03  0.44094755683E+03  0.00000000000E+00 0. -1.
         11    1    1    2    0    0 -0.17968628379E+03  0.30296126351E+03 -0.21760438673E+03  0.41403424604E+03  0.00000000000E+00 0.  1.
        -15    1    3    3    0    0 -0.37828898236E+01 -0.79006259248E+02 -0.69974344634E+02  0.10562133256E+03  0.17770000000E+01 0. -1.
         15    1    3    3    0    0  0.43501391552E+01  0.29607884469E+02 -0.25561781548E+02  0.39396864575E+02  0.17770000000E+01 0.  1.
</event>
<event>
 7    1  0.2288857E-006  0.5093399E+03  0.7546771E-02  0.9379150E-01
        -11   -1    0    0    0    0  0.00000000000E+00  0.00000000000E+00  0.50000000000E+03  0.50000000000E+03  0.00000000000E+00 0. -1.
         11   -1    0    0    0    0 -0.00000000000E+00 -0.00000000000E+00 -0.50000000000E+03  0.50000000000E+03  0.00000000000E+00 0. -1.
         23    2    1    2    0    0 -0.78735635562E+01  0.72435274115E+02  0.32728027610E+03  0.34752299197E+03  0.91383745210E+02 0.  0.
        -11    1    1    2    0    0 -0.51479962654E+02  0.70454810301E+01  0.15324783424E+03  0.16181694614E+03  0.00000000000E+00 0. -1.
         11    1    1    2    0    0  0.59353526211E+02 -0.79480755145E+02 -0.48052811034E+03  0.49066006189E+03  0.00000000000E+00 0. -1.
        -15    1    3    3    0    0  0.70365013143E+01  0.91702292044E+02  0.24530730691E+03  0.26198789146E+03  0.17770000000E+01 0.  1.
         15    1    3    3    0    0 -0.14910064871E+02 -0.19267017928E+02  0.81972969185E+02  0.85535100516E+02  0.17770000000E+01 0. -1.
</event>
<event>
 6    1  0.2288857E-006  0.4333693E+03  0.7546771E-02  0.9562639E-01
        -11   -1    0    0    0    0  0.00000000000E+00  0.00000000000E+00  0.50000000000E+03  0.50000000000E+03  0.00000000000E+00 0.  1.
         11   -1    0    0    0    0 -0.00000000000E+00 -0.00000000000E+00 -0.50000000000E+03  0.50000000000E+03  0.00000000000E+00 0.  1.
        -11    1    1    2    0    0 -0.25355655297E+03 -0.90058100899E+02  0.33280801420E+03  0.42797495418E+03  0.00000000000E+00 0.  1.
         11    1    1    2    0    0 -0.80163382871E+02  0.13354005285E+02 -0.11964325781E+03  0.14463404354E+03  0.00000000000E+00 0.  1.
        -15    1    1    2    0    0  0.28582805976E+03  0.83210473926E+02 -0.11722051834E+03  0.31994604290E+03  0.17770000000E+01 0.  1.
         15    1    1    2    0    0  0.47891876086E+02 -0.65063783119E+01 -0.95944238046E+02  0.10744495938E+03  0.17770000000E+01 0. -1.
</event>
<event>
 7    1  0.2288857E-006  0.5200672E+03  0.7546771E-02  0.9355995E-01
        -11   -1    0    0    0    0  0.00000000000E+00  0.00000000000E+00  0.50000000000E+03  0.50000000000E+03  0.00000000000E+00 0. -1.
         11   -1    0    0    0    0 -0.00000000000E+00 -0.00000000000E+00 -0.50000000000E+03  0.50000000000E+03  0.00000000000E+00 0. -1.
         23    2    1    2    0    0 -0.16645304493E+02 -0.66166644236E+02 -0.11469040012E+03  0.16131765392E+03  0.90633363698E+02 0.  0.
        -11    1    1    2    0    0 -0.38426165294E+02  0.10216848681E+03  0.46735484882E+03  0.47993283342E+03  0.00000000000E+00 0. -1.
         11    1    1    2    0    0  0.55071469787E+02 -0.36001842570E+02 -0.35266444871E+03  0.35874951266E+03  0.00000000000E+00 0. -1.
        -15    1    3    3    0    0 -0.51796497073E+02 -0.50667926776E+02 -0.58076389597E+02  0.92877019065E+02  0.17770000000E+01 0. -1.
         15    1    3    3    0    0  0.35151192580E+02 -0.15498717460E+02 -0.56614010521E+02  0.68440634852E+02  0.17770000000E+01 0.  1.
</event>
<event>
 7    1  0.2288857E-006  0.5295876E+03  0.7546771E-02  0.9335935E-01
        -11   -1    0    0    0    0  0.00000000000E+00  0.00000000000E+00  0.50000000000E+03  0.50000000000E+03  0.00000000000E+00 0.  1.
         11   -1    0    0    0    0 -0.00000000000E+00 -0.00000000000E+00 -0.50000000000E+03  0.50000000000E+03  0.00000000000E+00 0. -1.
         23    2    1    2    0    0  0.23493543435E+02 -0.13262469241E+01 -0.34047727252E+02  0.99273592372E+02  0.90234654636E+02 0.  0.
        -11    1    1    2    0    0 -0.29858891211E+03 -0.87089095009E+02  0.35291355062E+03  0.47041239686E+03  0.00000000000E+00 0.  1.
         11    1    1    2    0    0  0.27509536867E+03  0.88415341933E+02 -0.31886582337E+03  0.43031401077E+03  0.00000000000E+00 0. -1.
        -15    1    3    3    0    0  0.57954321011E+02 -0.57172986882E+01 -0.24482126371E+02  0.63197492583E+02  0.17770000000E+01 0.  1.
         15    1    3    3    0    0 -0.34460777576E+02  0.43910517641E+01 -0.95656008809E+01  0.36076099789E+02  0.17770000000E+01 0. -1.
</event>
<event>
 7    1  0.2288857E-006  0.3346364E+03  0.7546771E-02  0.9872069E-01
        -11   -1    0    0    0    0  0.00000000000E+00  0.00000000000E+00  0.50000000000E+03  0.50000000000E+03  0.00000000000E+00 0.  1.
         11   -1    0    0    0    0 -0.00000000000E+00 -0.00000000000E+00 -0.50000000000E+03  0.50000000000E+03  0.00000000000E+00 0. -1.
         23    2    1    2    0    0  0.11902438155E+03 -0.15144241939E+03  0.23451484049E+03  0.31672002430E+03  0.90624243953E+02 0.  0.
        -11    1    1    2    0    0 -0.57034157647E+02  0.23419458228E+03  0.15080580783E+03  0.28432796061E+03  0.00000000000E+00 0.  1.
         11    1    1    2    0    0 -0.61990223900E+02 -0.82752162890E+02 -0.38532064832E+03  0.39895201509E+03  0.00000000000E+00 0. -1.
        -15    1    3    3    0    0  0.35647547674E+02  0.42469299518E+01  0.33471573705E+02  0.49115049064E+02  0.17770000000E+01 0. -1.
         15    1    3    3    0    0  0.83376833872E+02 -0.15568934935E+03  0.20104326678E+03  0.26760497524E+03  0.17770000000E+01 0.  1.
</event>
<event>
 7    1  0.2288857E-006  0.5125272E+03  0.7546771E-02  0.9372207E-01
        -11   -1    0    0    0    0  0.00000000000E+00  0.00000000000E+00  0.50000000000E+03  0.50000000000E+03  0.00000000000E+00 0. -1.
         11   -1    0    0    0    0 -0.00000000000E+00 -0.00000000000E+00 -0.50000000000E+03  0.50000000000E+03  0.00000000000E+00 0. -1.
         23    2    1    2    0    0 -0.55200316202E+01  0.35108368443E+03  0.39736254242E+02  0.36498381777E+03  0.91345460250E+02 0.  0.
        -11    1    1    2    0    0 -0.23894301690E+02 -0.47219497207E+03 -0.11870407174E+03  0.48747275406E+03  0.00000000000E+00 0. -1.
         11    1    1    2    0    0  0.29414333310E+02  0.12111128763E+03  0.78967817503E+02  0.14754342818E+03  0.00000000000E+00 0. -1.
        -15    1    3    3    0    0  0.11305456258E+02  0.24299350216E+03 -0.12837187493E+02  0.24360132706E+03  0.17770000000E+01 0. -1.
         15    1    3    3    0    0 -0.16825487879E+02  0.10809018227E+03  0.52573441735E+02  0.12138249071E+03  0.17770000000E+01 0.  1.
</event>
<event>
 7    1  0.2288857E-006  0.5121212E+03  0.7546771E-02  0.9373089E-01
        -11   -1    0    0    0    0  0.00000000000E+00  0.00000000000E+00  0.50000000000E+03  0.50000000000E+03  0.00000000000E+00 0.  1.
         11   -1    0    0    0    0 -0.00000000000E+00 -0.00000000000E+00 -0.50000000000E+03  0.50000000000E+03  0.00000000000E+00 0. -1.
         23    2    1    2    0    0 -0.46971305884E+02 -0.41817747771E+02 -0.23597839234E+03  0.26016473328E+03  0.89693139013E+02 0.  0.
        -11    1    1    2    0    0  0.95684660933E+01  0.11677784798E+03  0.47360012139E+03  0.48787877214E+03  0.00000000000E+00 0.  1.
         11    1    1    2    0    0  0.37402839790E+02 -0.74960100208E+02 -0.23762172905E+03  0.25195649459E+03  0.00000000000E+00 0. -1.
        -15    1    3    3    0    0  0.24363620517E+02 -0.11733098052E+02 -0.10076630076E+03  0.10434680969E+03  0.17770000000E+01 0. -1.
         15    1    3    3    0    0 -0.71334926401E+02 -0.30084649719E+02 -0.13521209158E+03  0.15581792359E+03  0.17770000000E+01 0.  1.
</event>
<event>
 7    1  0.2288857E-006  0.5280148E+03  0.7546771E-02  0.9339218E-01
        -11   -1    0    0    0    0  0.00000000000E+00  0.00000000000E+00  0.50000000000E+03  0.50000000000E+03  0.00000000000E+00 0.  1.
         11   -1    0    0    0    0 -0.00000000000E+00 -0.00000000000E+00 -0.50000000000E+03  0.50000000000E+03  0.00000000000E+00 0.  1.
         23    2    1    2    0    0 -0.55416218662E+02 -0.84334817906E+01 -0.22849013486E+03  0.25168000626E+03  0.89403595664E+02 0.  0.
        -11    1    1    2    0    0  0.27779947334E+03 -0.62415247240E+02  0.37643297465E+03  0.47198516384E+03  0.00000000000E+00 0.  1.
         11    1    1    2    0    0 -0.22238325468E+03  0.70848729030E+02 -0.14794283979E+03  0.27633482990E+03  0.00000000000E+00 0.  1.
        -15    1    3    3    0    0  0.24481459440E+02  0.22296098543E+01 -0.61126296488E+02  0.65908230653E+02  0.17770000000E+01 0. -1.
         15    1    3    3    0    0 -0.79897678101E+02 -0.10663091645E+02 -0.16736383837E+03  0.18577177561E+03  0.17770000000E+01 0.  1.
</event>
<event>
 7    1  0.2288857E-006  0.3712163E+03  0.7546771E-02  0.9745492E-01
        -11   -1    0    0    0    0  0.00000000000E+00  0.00000000000E+00  0.50000000000E+03  0.50000000000E+03  0.00000000000E+00 0. -1.
         11   -1    0    0    0    0 -0.00000000000E+00 -0.00000000000E+00 -0.50000000000E+03  0.50000000000E+03  0.00000000000E+00 0. -1.
         23    2    1    2    0    0  0.22139695602E+03 -0.95189282151E+01  0.29436749714E+03  0.37923010619E+03  0.89755378321E+02 0.  0.
        -11    1    1    2    0    0 -0.13033671457E+03  0.18881073503E+03  0.37755057997E+02  0.23251364956E+03  0.00000000000E+00 0. -1.
         11    1    1    2    0    0 -0.91060241451E+02 -0.17929180681E+03 -0.33212255514E+03  0.38825624425E+03  0.00000000000E+00 0. -1.
        -15    1    3    3    0    0  0.34401711673E+01 -0.16115423192E+02  0.58518158522E+01  0.17576777865E+02  0.17770000000E+01 0.  1.
         15    1    3    3    0    0  0.21795678486E+03  0.65964949773E+01  0.28851568129E+03  0.36165332833E+03  0.17770000000E+01 0. -1.
</event>
<event>
 7    1  0.2288857E-006  0.3293372E+03  0.7546771E-02  0.9891844E-01
        -11   -1    0    0    0    0  0.00000000000E+00  0.00000000000E+00  0.50000000000E+03  0.50000000000E+03  0.00000000000E+00 0.  1.
         11   -1    0    0    0    0 -0.00000000000E+00 -0.00000000000E+00 -0.50000000000E+03  0.50000000000E+03  0.00000000000E+00 0. -1.
         23    2    1    2    0    0  0.26085712864E+03  0.28749061532E+02  0.15042063141E+03  0.31418787865E+03  0.84939429218E+02 0.  0.
        -11    1    1    2    0    0 -0.17046544498E+03  0.10255935691E+03  0.21148691739E+03  0.29035083235E+03  0.00000000000E+00 0.  1.
         11    1    1    2    0    0 -0.90391683657E+02 -0.13130841844E+03 -0.36190754879E+03  0.39546128900E+03  0.00000000000E+00 0. -1.
        -15    1    3    3    0    0  0.23897364486E+03  0.51164926799E+02  0.13547593731E+03  0.27943360569E+03  0.17770000000E+01 0. -1.
         15    1    3    3    0    0  0.21883483778E+02 -0.22415865266E+02  0.14944694099E+02  0.34754272955E+02  0.17770000000E+01 0.  1.
</event>
<event>
 7    1  0.2288857E-006  0.3865852E+03  0.7546771E-02  0.9696889E-01
        -11   -1    0    0    0    0  0.00000000000E+00  0.00000000000E+00  0.50000000000E+03  0.50000000000E+03  0.00000000000E+00 0. -1.
         11   -1    0    0    0    0 -0.00000000000E+00 -0.00000000000E+00 -0.50000000000E+03  0.50000000000E+03  0.00000000000E+00 0. -1.
         23    2    1    2    0    0  0.71083824332E+02 -0.24241307486E+02  0.31539754440E+03  0.33990338041E+03  0.10206931923E+03 0.  0.
        -11    1    1    2    0    0 -0.17225936085E+03  0.18684172244E+02  0.12148633889E+03  0.21161596402E+03  0.00000000000E+00 0. -1.
         11    1    1    2    0    0  0.10117553651E+03  0.55571352420E+01 -0.43688388329E+03  0.44848065557E+03  0.00000000000E+00 0. -1.
        -15    1    3    3    0    0  0.89070444368E+02 -0.14494866153E+02  0.30244270855E+03  0.31562381864E+03  0.17770000000E+01 0. -1.
         15    1    3    3    0    0 -0.17986620036E+02 -0.97464413322E+01  0.12954835848E+02  0.24279561771E+02  0.17770000000E+01 0.  1.
</event>
<event>
 7    1  0.2288857E-006  0.5150715E+03  0.7546771E-02  0.9366703E-01
        -11   -1    0    0    0    0  0.00000000000E+00  0.00000000000E+00  0.50000000000E+03  0.50000000000E+03  0.00000000000E+00 0.  1.
         11   -1    0    0    0    0 -0.00000000000E+00 -0.00000000000E+00 -0.50000000000E+03  0.50000000000E+03  0.00000000000E+00 0. -1.
         23    2    1    2    0    0 -0.21176988022E+02 -0.80657695930E+02  0.27190621497E+03  0.29876050594E+03  0.91491646821E+02 0.  0.
        -11    1    1    2    0    0  0.74502882840E+02 -0.12427894531E+01  0.20307198440E+03  0.21631101434E+03  0.00000000000E+00 0.  1.
         11    1    1    2    0    0 -0.53325894818E+02  0.81900485383E+02 -0.47497819937E+03  0.48492847972E+03  0.00000000000E+00 0. -1.
        -15    1    3    3    0    0  0.22968194027E+02 -0.13663959508E+02  0.15287572647E+03  0.15520434015E+03  0.17770000000E+01 0.  1.
         15    1    3    3    0    0 -0.44145182048E+02 -0.66993736422E+02  0.11903048849E+03  0.14355616580E+03  0.17770000000E+01 0. -1.
</event>
<event>
 7    1  0.2288857E-006  0.5180015E+03  0.7546771E-02  0.9360407E-01
        -11   -1    0    0    0    0  0.00000000000E+00  0.00000000000E+00  0.50000000000E+03  0.50000000000E+03  0.00000000000E+00 0.  1.
         11   -1    0    0    0    0 -0.00000000000E+00 -0.00000000000E+00 -0.50000000000E+03  0.50000000000E+03  0.00000000000E+00 0. -1.
         23    2    1    2    0    0 -0.17181603297E+02  0.21443418151E+02  0.47239975514E+03  0.48199848205E+03  0.91684133684E+02 0.  0.
        -11    1    1    2    0    0 -0.57178932541E+02 -0.88005076245E+02 -0.17234189862E+03  0.20178219394E+03  0.00000000000E+00 0.  1.
         11    1    1    2    0    0  0.74360535839E+02  0.66561658095E+02 -0.30005785652E+03  0.31621932401E+03  0.00000000000E+00 0. -1.
        -15    1    3    3    0    0 -0.54465882330E+02  0.43917733451E+01  0.26749915592E+03  0.27302889254E+03  0.17770000000E+01 0.  1.
         15    1    3    3    0    0  0.37284279032E+02  0.17051644806E+02  0.20490059922E+03  0.20896958951E+03  0.17770000000E+01 0. -1.
</event>
<event>
 7    1  0.2288857E-006  0.3634346E+03  0.7546771E-02  0.9771072E-01
        -11   -1    0    0    0    0  0.00000000000E+00  0.00000000000E+00  0.50000000000E+03  0.50000000000E+03  0.00000000000E+00 0. -1.
         11   -1    0    0    0    0 -0.00000000000E+00 -0.00000000000E+00 -0.50000000000E+03  0.50000000000E+03  0.00000000000E+00 0.  1.
         23    2    1    2    0    0 -0.16290143240E+03  0.37246722073E+02 -0.14625329378E+03  0.23996503693E+03  0.90934031166E+02 0.  0.
        -11    1    1    2    0    0  0.66677491099E+02 -0.32715648845E+02  0.44241229926E+03  0.44860321447E+03  0.00000000000E+00 0. -1.
         11    1    1    2    0    0  0.96223941306E+02 -0.45310732282E+01 -0.29615900548E+03  0.31143174859E+03  0.00000000000E+00 0.  1.
        -15    1    3    3    0    0 -0.14787970579E+03  0.60856452996E+02 -0.10985426026E+03  0.19401812153E+03  0.17770000000E+01 0.  1.
         15    1    3    3    0    0 -0.15021726614E+02 -0.23609730923E+02 -0.36399033525E+02  0.45946915406E+02  0.17770000000E+01 0. -1.
</event>
<event>
 7    1  0.2288857E-006  0.3901339E+03  0.7546771E-02  0.9686010E-01
        -11   -1    0    0    0    0  0.00000000000E+00  0.00000000000E+00  0.50000000000E+03  0.50000000000E+03  0.00000000000E+00 0. -1.
         11   -1    0    0    0    0 -0.00000000000E+00 -0.00000000000E+00 -0.50000000000E+03  0.50000000000E+03  0.00000000000E+00 0.  1.
         23    2    1    2    0    0  0.39829477630E+02  0.14778104861E+03 -0.90540685194E+02  0.19972437288E+03  0.90920755788E+02 0.  0.
        -11    1    1    2    0    0  0.21558643347E+03  0.83400767797E+01  0.34532261227E+03  0.40717904382E+03  0.00000000000E+00 0. -1.
         11    1    1    2    0    0 -0.25541591110E+03 -0.15612112539E+03 -0.25478192708E+03  0.39309658330E+03  0.00000000000E+00 0.  1.
        -15    1    3    3    0    0  0.56514270510E+02  0.14977166391E+03 -0.75076471468E+02  0.17681925342E+03  0.17770000000E+01 0.  1.
         15    1    3    3    0    0 -0.16684792880E+02 -0.19906153017E+01 -0.15464213726E+02  0.22905119469E+02  0.17770000000E+01 0. -1.
</event>
<event>
 7    1  0.2288857E-006  0.5058466E+03  0.7546771E-02  0.9386822E-01
        -11   -1    0    0    0    0  0.00000000000E+00  0.00000000000E+00  0.50000000000E+03  0.50000000000E+03  0.00000000000E+00 0.  1.
         11   -1    0    0    0    0 -0.00000000000E+00 -0.00000000000E+00 -0.50000000000E+03  0.50000000000E+03  0.00000000000E+00 0. -1.
         23    2    1    2    0    0  0.47722370813E+01 -0.94844209106E+02  0.47631684659E+03  0.49415337973E+03  0.91058366473E+02 0.  0.
        -11    1    1    2    0    0  0.57885096046E+02  0.44069070182E+02 -0.11847230546E+03  0.13902681199E+03  0.00000000000E+00 0.  1.
         11    1    1    2    0    0 -0.62657333127E+02  0.50775138924E+02 -0.35784454113E+03  0.36681980828E+03  0.00000000000E+00 0. -1.
        -15    1    3    3    0    0 -0.34466706290E+02 -0.31000659458E+02  0.97278172905E+02  0.10777381585E+03  0.17770000000E+01 0.  1.
         15    1    3    3    0    0  0.39238943372E+02 -0.63843549648E+02  0.37903867369E+03  0.38637956389E+03  0.17770000000E+01 0. -1.
</event>
<event>
 7    1  0.2288857E-006  0.3727140E+03  0.7546771E-02  0.9740646E-01
        -11   -1    0    0    0    0  0.00000000000E+00  0.00000000000E+00  0.50000000000E+03  0.50000000000E+03  0.00000000000E+00 0.  1.
         11   -1    0    0    0    0 -0.00000000000E+00 -0.00000000000E+00 -0.50000000000E+03  0.50000000000E+03  0.00000000000E+00 0.  1.
         23    2    1    2    0    0 -0.94971921500E+02  0.13027158804E+03  0.38167222362E+03  0.42481124907E+03  0.93811292139E+02 0.  0.
        -11    1    1    2    0    0  0.22632884484E+02 -0.22247030732E+03 -0.58092125199E+02  0.23104107883E+03  0.00000000000E+00 0.  1.
         11    1    1    2    0    0  0.72339037016E+02  0.92198719280E+02 -0.32358009842E+03  0.34414767209E+03  0.00000000000E+00 0.  1.
        -15    1    3    3    0    0 -0.10671594415E+03  0.87507741620E+02  0.32292684538E+03  0.35118485556E+03  0.17770000000E+01 0.  1.
         15    1    3    3    0    0  0.11744022646E+02  0.42763846416E+02  0.58745378243E+02  0.73626393516E+02  0.17770000000E+01 0. -1.
</event>
<event>
 7    1  0.2288857E-006  0.4595568E+03  0.7546771E-02  0.9495149E-01
        -11   -1    0    0    0    0  0.00000000000E+00  0.00000000000E+00  0.50000000000E+03  0.50000000000E+03  0.00000000000E+00 0.  1.
         11   -1    0    0    0    0 -0.00000000000E+00 -0.00000000000E+00 -0.50000000000E+03  0.50000000000E+03  0.00000000000E+00 0. -1.
         23    2    1    2    0    0  0.29351089379E+02 -0.12488569418E+03  0.42832122081E+03  0.45619257898E+03  0.90524460001E+02 0.  0.
        -11    1    1    2    0    0  0.31018448295E+02 -0.77041355256E+02 -0.21743226806E+02  0.85850349250E+02  0.00000000000E+00 0.  1.
         11    1    1    2    0    0 -0.60369537674E+02  0.20192704944E+03 -0.40657799401E+03  0.45795707177E+03  0.00000000000E+00 0. -1.
        -15    1    3    3    0    0  0.24485152020E+02 -0.27897544660E+02  0.34971570344E+02  0.51029051811E+02  0.17770000000E+01 0. -1.
         15    1    3    3    0    0  0.48659373596E+01 -0.96988149521E+02  0.39334965047E+03  0.40516352717E+03  0.17770000000E+01 0.  1.
</event>
<event>
 7    1  0.2288857E-006  0.3619944E+03  0.7546771E-02  0.9775882E-01
        -11   -1    0    0    0    0  0.00000000000E+00  0.00000000000E+00  0.50000000000E+03  0.50000000000E+03  0.00000000000E+00 0.  1.
         11   -1    0    0    0    0 -0.00000000000E+00 -0.00000000000E+00 -0.50000000000E+03  0.50000000000E+03  0.00000000000E+00 0.  1.
         23    2    1    2    0    0  0.18642066239E+03 -0.84203572948E+00  0.26462367454E+03  0.33676470454E+03  0.92905353485E+02 0.  0.
        -11    1    1    2    0    0 -0.18006506665E+03 -0.91373667320E+02  0.14160279734E+03  0.24662507481E+03  0.00000000000E+00 0.  1.
         11    1    1    2    0    0 -0.63555957396E+01  0.92215703049E+02 -0.40622647189E+03  0.41661022065E+03  0.00000000000E+00 0.  1.
        -15    1    3    3    0    0  0.15866412178E+03 -0.36600363488E+02  0.20168526737E+03  0.25921804519E+03  0.17770000000E+01 0.  1.
         15    1    3    3    0    0  0.27756540616E+02  0.35758327758E+02  0.62938407174E+02  0.77546659358E+02  0.17770000000E+01 0. -1.
</event>
<event>
 7    1  0.2288857E-006  0.5132059E+03  0.7546771E-02  0.9370736E-01
        -11   -1    0    0    0    0  0.00000000000E+00  0.00000000000E+00  0.50000000000E+03  0.50000000000E+03  0.00000000000E+00 0.  1.
         11   -1    0    0    0    0 -0.00000000000E+00 -0.00000000000E+00 -0.50000000000E+03  0.50000000000E+03  0.00000000000E+00 0. -1.
         23    2    1    2    0    0 -0.32608764558E+02  0.20352814972E+03  0.23789964851E+03  0.32878503793E+03  0.94954300341E+02 0.  0.
        -11    1    1    2    0    0 -0.66538147829E+02  0.53419500671E+02  0.16349333771E+03  0.18442082215E+03  0.00000000000E+00 0.  1.
         11    1    1    2    0    0  0.99146912387E+02 -0.25694765039E+03 -0.40139298622E+03  0.48679413992E+03  0.00000000000E+00 0. -1.
        -15    1    3    3    0    0 -0.12927692981E+02  0.19629211519E+03  0.23659827680E+03  0.30770053956E+03  0.17770000000E+01 0.  1.
         15    1    3    3    0    0 -0.19681071577E+02  0.72360345299E+01  0.13013717026E+01  0.21084498368E+02  0.17770000000E+01 0. -1.
</event>
<event>
 7    1  0.2288857E-006  0.5262203E+03  0.7546771E-02  0.9342978E-01
        -11   -1    0    0    0    0  0.00000000000E+00  0.00000000000E+00  0.50000000000E+03  0.50000000000E+03  0.00000000000E+00 0.  1.
         11   -1    0    0    0    0 -0.00000000000E+00 -0.00000000000E+00 -0.50000000000E+03  0.50000000000E+03  0.00000000000E+00 0.  1.
         23    2    1    2    0    0 -0.66694562999E+02 -0.12896634616E+03 -0.16243326664E+03  0.23610012999E+03  0.90984735510E+02 0.  0.
        -11    1    1    2    0    0  0.11496179731E+03  0.10487991374E+03  0.44749435848E+03  0.47377970832E+03  0.00000000000E+00 0.  1.
         11    1    1    2    0    0 -0.48267234310E+02  0.24086432416E+02 -0.28506109184E+03  0.29012016169E+03  0.00000000000E+00 0.  1.
        -15    1    3    3    0    0 -0.29931696768E+01 -0.78937086807E+02 -0.38150448815E+02  0.87741878325E+02  0.17770000000E+01 0. -1.
         15    1    3    3    0    0 -0.63701393322E+02 -0.50029259353E+02 -0.12428281782E+03  0.14835825166E+03  0.17770000000E+01 0.  1.
</event>
<event>
 7    1  0.2288857E-006  0.4817316E+03  0.7546771E-02  0.9441641E-01
        -11   -1    0    0    0    0  0.00000000000E+00  0.00000000000E+00  0.50000000000E+03  0.50000000000E+03  0.00000000000E+00 0.  1.
         11   -1    0    0    0    0 -0.00000000000E+00 -0.00000000000E+00 -0.50000000000E+03  0.50000000000E+03  0.00000000000E+00 0.  1.
         23    2    1    2    0    0  0.92454855652E+02 -0.30283031245E+02  0.44201318465E+03  0.46894371360E+03  0.12275010714E+03 0.  0.
        -11    1    1    2    0    0  0.53333115517E+01 -0.45917465235E+02  0.21693715526E+02  0.51063442100E+02  0.00000000000E+00 0.  1.
         11    1    1    2    0    0 -0.97788167203E+02  0.76200496480E+02 -0.46370690018E+03  0.47999284430E+03  0.00000000000E+00 0.  1.
        -15    1    3    3    0    0  0.10925574402E+03 -0.32951184904E+02  0.43619232086E+03  0.45087636520E+03  0.17770000000E+01 0.  1.
         15    1    3    3    0    0 -0.16800888371E+02  0.26681536589E+01  0.58208637942E+01  0.18067348403E+02  0.17770000000E+01 0. -1.
</event>
<event>
 7    1  0.2288857E-006  0.5205212E+03  0.7546771E-02  0.9355028E-01
        -11   -1    0    0    0    0  0.00000000000E+00  0.00000000000E+00  0.50000000000E+03  0.50000000000E+03  0.00000000000E+00 0. -1.
         11   -1    0    0    0    0 -0.00000000000E+00 -0.00000000000E+00 -0.50000000000E+03  0.50000000000E+03  0.00000000000E+00 0.  1.
         23    2    1    2    0    0  0.40400670743E+02  0.15047168323E+02 -0.95202243312E+02  0.13645043736E+03  0.87730400962E+02 0.  0.
        -11    1    1    2    0    0 -0.11328199056E+03  0.92533526022E+02  0.45662311622E+03  0.47947881402E+03  0.00000000000E+00 0. -1.
         11    1    1    2    0    0  0.72881319820E+02 -0.10758069435E+03 -0.36142087291E+03  0.38407074862E+03  0.00000000000E+00 0.  1.
        -15    1    3    3    0    0  0.72842732407E+00 -0.16693519604E+02 -0.82303662548E+02  0.84001516658E+02  0.17770000000E+01 0.  1.
         15    1    3    3    0    0  0.39672243419E+02  0.31740687927E+02 -0.12898580765E+02  0.52448920701E+02  0.17770000000E+01 0. -1.
</event>
<event>
 7    1  0.2288857E-006  0.5176205E+03  0.7546771E-02  0.9361223E-01
        -11   -1    0    0    0    0  0.00000000000E+00  0.00000000000E+00  0.50000000000E+03  0.50000000000E+03  0.00000000000E+00 0.  1.
         11   -1    0    0    0    0 -0.00000000000E+00 -0.00000000000E+00 -0.50000000000E+03  0.50000000000E+03  0.00000000000E+00 0. -1.
         23    2    1    2    0    0  0.66655695053E+02  0.11077457146E+03  0.27056400593E+03  0.31439544907E+03  0.94475550955E+02 0.  0.
        -11    1    1    2    0    0 -0.27596136821E+01  0.16287195431E+03  0.12151356250E+03  0.20322508418E+03  0.00000000000E+00 0.  1.
         11    1    1    2    0    0 -0.63896081371E+02 -0.27364652577E+03 -0.39207756843E+03  0.48237946675E+03  0.00000000000E+00 0. -1.
        -15    1    3    3    0    0  0.84910946781E+02  0.88764302320E+02  0.25173379272E+03  0.28011074663E+03  0.17770000000E+01 0.  1.
         15    1    3    3    0    0 -0.18255251728E+02  0.22010269139E+02  0.18830213207E+02  0.34284702444E+02  0.17770000000E+01 0. -1.
</event>
<event>
 7    1  0.2288857E-006  0.5253083E+03  0.7546771E-02  0.9344896E-01
        -11   -1    0    0    0    0  0.00000000000E+00  0.00000000000E+00  0.50000000000E+03  0.50000000000E+03  0.00000000000E+00 0. -1.
         11   -1    0    0    0    0 -0.00000000000E+00 -0.00000000000E+00 -0.50000000000E+03  0.50000000000E+03  0.00000000000E+00 0. -1.
         23    2    1    2    0    0 -0.32679177146E+02 -0.11269453022E+02  0.10878946804E+03  0.14666130479E+03  0.92083987619E+02 0.  0.
        -11    1    1    2    0    0  0.87981395888E+02  0.10221326112E+03  0.35381526228E+03  0.37864695508E+03  0.00000000000E+00 0. -1.
         11    1    1    2    0    0 -0.55302218742E+02 -0.90943808099E+02 -0.46260473032E+03  0.47469174013E+03  0.00000000000E+00 0. -1.
        -15    1    3    3    0    0 -0.61799179497E+02 -0.23720231380E+02  0.67055594108E+02  0.94241171435E+02  0.17770000000E+01 0.  1.
         15    1    3    3    0    0  0.29120002351E+02  0.12450778358E+02  0.41733873935E+02  0.52420133358E+02  0.17770000000E+01 0. -1.
</event>
<event>
 7    1  0.2288857E-006  0.4270608E+03  0.7546771E-02  0.9579660E-01
        -11   -1    0    0    0    0  0.00000000000E+00  0.00000000000E+00  0.50000000000E+03  0.50000000000E+03  0.00000000000E+00 0.  1.
         11   -1    0    0    0    0 -0.00000000000E+00 -0.00000000000E+00 -0.50000000000E+03  0.50000000000E+03  0.00000000000E+00 0. -1.
         23    2    1    2    0    0 -0.13575765185E+03 -0.63929205734E+02 -0.34939441573E+03  0.39115982909E+03  0.91719522287E+02 0.  0.
        -11    1    1    2    0    0  0.14483411464E+03  0.20020435283E+03  0.39407656921E+03  0.46513981345E+03  0.00000000000E+00 0.  1.
         11    1    1    2    0    0 -0.90764627900E+01 -0.13627514710E+03 -0.44682153488E+02  0.14370035746E+03  0.00000000000E+00 0. -1.
        -15    1    3    3    0    0 -0.10993977763E+03 -0.18471676115E+02 -0.29649668407E+03  0.31676710517E+03  0.17770000000E+01 0. -1.
         15    1    3    3    0    0 -0.25817874220E+02 -0.45457529619E+02 -0.52897731653E+02  0.74392723914E+02  0.17770000000E+01 0.  1.
</event>
<event>
 7    1  0.2288857E-006  0.5211787E+03  0.7546771E-02  0.9353629E-01
        -11   -1    0    0    0    0  0.00000000000E+00  0.00000000000E+00  0.50000000000E+03  0.50000000000E+03  0.00000000000E+00 0.  1.
         11   -1    0    0    0    0 -0.00000000000E+00 -0.00000000000E+00 -0.50000000000E+03  0.50000000000E+03  0.00000000000E+00 0.  1.
         23    2    1    2    0    0  0.48046340917E+02  0.81001548651E-01  0.13653293205E+03  0.17149581209E+03  0.91984317104E+02 0.  0.
        -11    1    1    2    0    0 -0.59077449228E+02  0.77457925321E+02  0.33583963831E+03  0.34968291045E+03  0.00000000000E+00 0.  1.
         11    1    1    2    0    0  0.11031108311E+02 -0.77538926870E+02 -0.47237257035E+03  0.47882127746E+03  0.00000000000E+00 0.  1.
        -15    1    3    3    0    0  0.60355313982E+02 -0.26569860284E+02  0.12199477772E+03  0.13868887815E+03  0.17770000000E+01 0. -1.
         15    1    3    3    0    0 -0.12308973065E+02  0.26650861832E+02  0.14538154326E+02  0.32806933940E+02  0.17770000000E+01 0.  1.
</event>
<event>
 7    1  0.2288857E-006  0.5129038E+03  0.7546771E-02  0.9371391E-01
        -11   -1    0    0    0    0  0.00000000000E+00  0.00000000000E+00  0.50000000000E+03  0.50000000000E+03  0.00000000000E+00 0.  1.
         11   -1    0    0    0    0 -0.00000000000E+00 -0.00000000000E+00 -0.50000000000E+03  0.50000000000E+03  0.00000000000E+00 0.  1.
         23    2    1    2    0    0  0.15974951677E+02 -0.36693330547E+02  0.47664432804E+03  0.48709623641E+03  0.92039820097E+02 0.  0.
        -11    1    1    2    0    0 -0.85976181466E+02 -0.18275806729E+02 -0.14533559259E+03  0.16984800077E+03  0.00000000000E+00 0.  1.
         11    1    1    2    0    0  0.70001229789E+02  0.54969137276E+02 -0.33130873545E+03  0.34305576283E+03  0.00000000000E+00 0.  1.
        -15    1    3    3    0    0  0.23184000187E+02  0.27004963100E+02  0.14560171112E+03  0.14989923918E+03  0.17770000000E+01 0. -1.
         15    1    3    3    0    0 -0.72090485100E+01 -0.63698293648E+02  0.33104261691E+03  0.33719699722E+03  0.17770000000E+01 0.  1.
</event>
<event>
 7    1  0.2288857E-006  0.4743795E+03  0.7546771E-02  0.9459036E-01
        -11   -1    0    0    0    0  0.00000000000E+00  0.00000000000E+00  0.50000000000E+03  0.50000000000E+03  0.00000000000E+00 0.  1.
         11   -1    0    0    0    0 -0.00000000000E+00 -0.00000000000E+00 -0.50000000000E+03  0.50000000000E+03  0.00000000000E+00 0. -1.
         23    2    1    2    0    0 -0.96313498427E+01 -0.98703206235E+02  0.42804296021E+03  0.44888251889E+03  0.91867590357E+02 0.  0.
        -11    1    1    2    0    0  0.12811598696E+02  0.85589754246E+01  0.56339421233E+02  0.58408248616E+02  0.00000000000E+00 0.  1.
         11    1    1    2    0    0 -0.31802488532E+01  0.90144230810E+02 -0.48438238144E+03  0.49270923249E+03  0.00000000000E+00 0. -1.
        -15    1    3    3    0    0 -0.38031859344E+02 -0.53382530825E+02  0.33664281264E+03  0.34296888774E+03  0.17770000000E+01 0.  1.
         15    1    3    3    0    0  0.28400509502E+02 -0.45320675410E+02  0.91400147570E+02  0.10591363115E+03  0.17770000000E+01 0. -1.
</event>
<event>
 7    1  0.2288857E-006  0.4758928E+03  0.7546771E-02  0.9455428E-01
        -11   -1    0    0    0    0  0.00000000000E+00  0.00000000000E+00  0.50000000000E+03  0.50000000000E+03  0.00000000000E+00 0. -1.
         11   -1    0    0    0    0 -0.00000000000E+00 -0.00000000000E+00 -0.50000000000E+03  0.50000000000E+03  0.00000000000E+00 0.  1.
         23    2    1    2    0    0  0.34553796312E+02 -0.10244192163E+03  0.44532433678E+03  0.46712293259E+03  0.90563552698E+02 0.  0.
        -11    1    1    2    0    0  0.50517377933E+02 -0.20952398619E+02  0.81340680558E+01  0.55291695075E+02  0.00000000000E+00 0. -1.
         11    1    1    2    0    0 -0.85071174244E+02  0.12339432025E+03 -0.45345840483E+03  0.47758537234E+03  0.00000000000E+00 0.  1.
        -15    1    3    3    0    0 -0.29770836516E+02 -0.37746449776E+02  0.18954667984E+03  0.19555612684E+03  0.17770000000E+01 0.  1.
         15    1    3    3    0    0  0.64324632828E+02 -0.64695471850E+02  0.25577765694E+03  0.27156680575E+03  0.17770000000E+01 0. -1.
</event>
<event>
 7    1  0.2288857E-006  0.5272122E+03  0.7546771E-02  0.9340898E-01
        -11   -1    0    0    0    0  0.00000000000E+00  0.00000000000E+00  0.50000000000E+03  0.50000000000E+03  0.00000000000E+00 0. -1.
         11   -1    0    0    0    0 -0.00000000000E+00 -0.00000000000E+00 -0.50000000000E+03  0.50000000000E+03  0.00000000000E+00 0.  1.
         23    2    1    2    0    0  0.33062853358E+02  0.39392480170E+01  0.32615958383E+03  0.33984804286E+03  0.89487139635E+02 0.  0.
        -11    1    1    2    0    0  0.39826745784E+02  0.13968933037E+03  0.11834715481E+03  0.18736415813E+03  0.00000000000E+00 0. -1.
         11    1    1    2    0    0 -0.72889599142E+02 -0.14362857839E+03 -0.44450673865E+03  0.47278779901E+03  0.00000000000E+00 0.  1.
        -15    1    3    3    0    0 -0.30541263630E+02  0.75815097772E+01  0.11927503148E+03  0.12336911663E+03  0.17770000000E+01 0.  1.
         15    1    3    3    0    0  0.63604116988E+02 -0.36422617602E+01  0.20688455235E+03  0.21647892622E+03  0.17770000000E+01 0. -1.
</event>
<event>
 7    1  0.2288857E-006  0.5153877E+03  0.7546771E-02  0.9366022E-01
        -11   -1    0    0    0    0  0.00000000000E+00  0.00000000000E+00  0.50000000000E+03  0.50000000000E+03  0.00000000000E+00 0. -1.
         11   -1    0    0    0    0 -0.00000000000E+00 -0.00000000000E+00 -0.50000000000E+03  0.50000000000E+03  0.00000000000E+00 0.  1.
         23    2    1    2    0    0  0.38609289332E+01 -0.73621875245E+01  0.31627152351E+03  0.32820328725E+03  0.87296120189E+02 0.  0.
        -11    1    1    2    0    0 -0.59162044138E+02 -0.84115957908E+02  0.15640448890E+03  0.18718441706E+03  0.00000000000E+00 0. -1.
         11    1    1    2    0    0  0.55301115205E+02  0.91478145432E+02 -0.47267601241E+03  0.48461229570E+03  0.00000000000E+00 0.  1.
        -15    1    3    3    0    0  0.28956718851E+02 -0.37403624016E+02  0.14603171530E+03  0.15351202643E+03  0.17770000000E+01 0.  1.
         15    1    3    3    0    0 -0.25095789918E+02  0.30041436491E+02  0.17023980821E+03  0.17469126082E+03  0.17770000000E+01 0. -1.
</event>
<event>
 7    1  0.2288857E-006  0.5218215E+03  0.7546771E-02  0.9352264E-01
        -11   -1    0    0    0    0  0.00000000000E+00  0.00000000000E+00  0.50000000000E+03  0.50000000000E+03  0.00000000000E+00 0.  1.
         11   -1    0    0    0    0 -0.00000000000E+00 -0.00000000000E+00 -0.50000000000E+03  0.50000000000E+03  0.00000000000E+00 0. -1.
         23    2    1    2    0    0  0.80401788322E+02  0.12718837027E+03 -0.20857550690E+03  0.27079857203E+03  0.84774969423E+02 0.  0.
        -11    1    1    2    0    0 -0.12740401408E+03 -0.89099364514E+02  0.45219927057E+03  0.47817848118E+03  0.00000000000E+00 0.  1.
         11    1    1    2    0    0  0.47002225754E+02 -0.38089005754E+02 -0.24362376367E+03  0.25102294678E+03  0.00000000000E+00 0. -1.
        -15    1    3    3    0    0  0.66393141239E+02  0.61464899998E+02 -0.62446176557E+02  0.10994846898E+03  0.17770000000E+01 0. -1.
         15    1    3    3    0    0  0.14008647082E+02  0.65723470270E+02 -0.14612933034E+03  0.16085010305E+03  0.17770000000E+01 0.  1.
</event>
<event>
 7    1  0.2288857E-006  0.5316783E+03  0.7546771E-02  0.9331590E-01
        -11   -1    0    0    0    0  0.00000000000E+00  0.00000000000E+00  0.50000000000E+03  0.50000000000E+03  0.00000000000E+00 0. -1.
         11   -1    0    0    0    0 -0.00000000000E+00 -0.00000000000E+00 -0.50000000000E+03  0.50000000000E+03  0.00000000000E+00 0. -1.
         23    2    1    2    0    0  0.23446983049E+02 -0.55254894584E+01  0.34327046263E+03  0.35639968861E+03  0.92767642447E+02 0.  0.
        -11    1    1    2    0    0 -0.22435100181E+02  0.13779189577E+03  0.10598422630E+03  0.17527862529E+03  0.00000000000E+00 0. -1.
         11    1    1    2    0    0 -0.10118828683E+01 -0.13226640631E+03 -0.44925468893E+03  0.46832168610E+03  0.00000000000E+00 0. -1.
        -15    1    3    3    0    0 -0.22477062221E+02 -0.31391879245E+02  0.20070550952E+03  0.20439307153E+03  0.17770000000E+01 0.  1.
         15    1    3    3    0    0  0.45924045269E+02  0.25866389787E+02  0.14256495311E+03  0.15200661709E+03  0.17770000000E+01 0. -1.
</event>
<event>
 7    1  0.2288857E-006  0.5273635E+03  0.7546771E-02  0.9340581E-01
        -11   -1    0    0    0    0  0.00000000000E+00  0.00000000000E+00  0.50000000000E+03  0.50000000000E+03  0.00000000000E+00 0.  1.
         11   -1    0    0    0    0 -0.00000000000E+00 -0.00000000000E+00 -0.50000000000E+03  0.50000000000E+03  0.00000000000E+00 0. -1.
         23    2    1    2    0    0 -0.12304711065E+03 -0.13274476338E+03  0.26682605412E+03  0.33521851418E+03  0.91725380622E+02 0.  0.
        -11    1    1    2    0    0 -0.48171603491E+02  0.75543526779E+02  0.16997757552E+03  0.19214500774E+03  0.00000000000E+00 0.  1.
         11    1    1    2    0    0  0.17121871415E+03  0.57201236599E+02 -0.43680362964E+03  0.47263647807E+03  0.00000000000E+00 0. -1.
        -15    1    3    3    0    0 -0.13221009183E+03 -0.13887003930E+03  0.25164672299E+03  0.31637576885E+03  0.17770000000E+01 0.  1.
         15    1    3    3    0    0  0.91629811763E+01  0.61252759185E+01  0.15179331133E+02  0.18842745335E+02  0.17770000000E+01 0. -1.
</event>
<event>
 7    1  0.2288857E-006  0.3675738E+03  0.7546771E-02  0.9757381E-01
        -11   -1    0    0    0    0  0.00000000000E+00  0.00000000000E+00  0.50000000000E+03  0.50000000000E+03  0.00000000000E+00 0.  1.
         11   -1    0    0    0    0 -0.00000000000E+00 -0.00000000000E+00 -0.50000000000E+03  0.50000000000E+03  0.00000000000E+00 0. -1.
         23    2    1    2    0    0  0.82636707815E+02  0.19696674620E+03 -0.61476160012E+01  0.23442543272E+03  0.96398992404E+02 0.  0.
        -11    1    1    2    0    0  0.84936305772E+02 -0.11074786743E+03  0.34815225280E+03  0.37508566663E+03  0.00000000000E+00 0.  1.
         11    1    1    2    0    0 -0.16757301359E+03 -0.86218878764E+02 -0.34200463680E+03  0.39048890065E+03  0.00000000000E+00 0. -1.
        -15    1    3    3    0    0  0.74663339941E+02  0.17635411028E+03  0.28160989489E+02  0.19357578774E+03  0.17770000000E+01 0.  1.
         15    1    3    3    0    0  0.79733678747E+01  0.20612635920E+02 -0.34308605490E+02  0.40849644974E+02  0.17770000000E+01 0. -1.
</event>
<event>
 7    1  0.2288857E-006  0.3613224E+03  0.7546771E-02  0.9778134E-01
        -11   -1    0    0    0    0  0.00000000000E+00  0.00000000000E+00  0.50000000000E+03  0.50000000000E+03  0.00000000000E+00 0.  1.
         11   -1    0    0    0    0 -0.00000000000E+00 -0.00000000000E+00 -0.50000000000E+03  0.50000000000E+03  0.00000000000E+00 0. -1.
         23    2    1    2    0    0  0.14315067344E+02 -0.81427694941E+02  0.27158116198E+03  0.29846281740E+03  0.92132161465E+02 0.  0.
        -11    1    1    2    0    0 -0.19041793603E+03 -0.13024762873E+03  0.89493237851E+02  0.24745196458E+03  0.00000000000E+00 0.  1.
         11    1    1    2    0    0  0.17610286869E+03  0.21167532367E+03 -0.36107439983E+03  0.45408521802E+03  0.00000000000E+00 0. -1.
        -15    1    3    3    0    0 -0.27794698771E+02 -0.41110685545E+01  0.29110719852E+02  0.40497381443E+02  0.17770000000E+01 0.  1.
         15    1    3    3    0    0  0.42109766115E+02 -0.77316626387E+02  0.24247044212E+03  0.25796543596E+03  0.17770000000E+01 0. -1.
</event>
<event>
 7    1  0.2288857E-006  0.3812090E+03  0.7546771E-02  0.9713612E-01
        -11   -1    0    0    0    0  0.00000000000E+00  0.00000000000E+00  0.50000000000E+03  0.50000000000E+03  0.00000000000E+00 0.  1.
         11   -1    0    0    0    0 -0.00000000000E+00 -0.00000000000E+00 -0.50000000000E+03  0.50000000000E+03  0.00000000000E+00 0.  1.
         23    2    1    2    0    0  0.14829618243E+03 -0.17038261831E+02  0.30541459338E+03  0.35186485109E+03  0.90822571488E+02 0.  0.
        -11    1    1    2    0    0 -0.17220629786E+03 -0.64175586847E+02  0.11664489452E+03  0.21766843223E+03  0.00000000000E+00 0.  1.
         11    1    1    2    0    0  0.23910115429E+02  0.81213848678E+02 -0.42205948791E+03  0.43046671668E+03  0.00000000000E+00 0.  1.
        -15    1    3    3    0    0  0.11112584513E+03  0.10270179597E+02  0.13425652041E+03  0.17459209904E+03  0.17770000000E+01 0.  1.
         15    1    3    3    0    0  0.37170337308E+02 -0.27308441428E+02  0.17115807297E+03  0.17727275206E+03  0.17770000000E+01 0. -1.
</event>
<event>
 7    1  0.2288857E-006  0.4674771E+03  0.7546771E-02  0.9475675E-01
        -11   -1    0    0    0    0  0.00000000000E+00  0.00000000000E+00  0.50000000000E+03  0.50000000000E+03  0.00000000000E+00 0. -1.
         11   -1    0    0    0    0 -0.00000000000E+00 -0.00000000000E+00 -0.50000000000E+03  0.50000000000E+03  0.00000000000E+00 0.  1.
         23    2    1    2    0    0 -0.14440671381E+03  0.16937866636E+03 -0.36780200318E+03  0.43936813837E+03  0.90684154421E+02 0.  0.
        -11    1    1    2    0    0  0.12683586207E+03 -0.18507042779E+03  0.43498472879E+03  0.48943856962E+03  0.00000000000E+00 0. -1.
         11    1    1    2    0    0  0.17570851736E+02  0.15691761428E+02 -0.67182725607E+02  0.71193292012E+02  0.00000000000E+00 0.  1.
        -15    1    3    3    0    0 -0.11232858853E+03  0.11118314487E+03 -0.17691257515E+03  0.23723536937E+03  0.17770000000E+01 0.  1.
         15    1    3    3    0    0 -0.32078125275E+02  0.58195521495E+02 -0.19088942802E+03  0.20213276900E+03  0.17770000000E+01 0. -1.
</event>
<event>
 7    1  0.2288857E-006  0.3922142E+03  0.7546771E-02  0.9679689E-01
        -11   -1    0    0    0    0  0.00000000000E+00  0.00000000000E+00  0.50000000000E+03  0.50000000000E+03  0.00000000000E+00 0.  1.
         11   -1    0    0    0    0 -0.00000000000E+00 -0.00000000000E+00 -0.50000000000E+03  0.50000000000E+03  0.00000000000E+00 0. -1.
         23    2    1    2    0    0 -0.42350152856E+03 -0.14469187614E+03 -0.62942443151E+02  0.46068719987E+03  0.89340143645E+02 0.  0.
        -11    1    1    2    0    0  0.10258219687E+03  0.81325134571E+02  0.15169563668E+03  0.20037078333E+03  0.00000000000E+00 0.  1.
         11    1    1    2    0    0  0.32091933169E+03  0.63366741567E+02 -0.88753193526E+02  0.33894201680E+03  0.00000000000E+00 0. -1.
        -15    1    3    3    0    0 -0.41540599509E+03 -0.13490676687E+03 -0.45631463210E+02  0.43914389973E+03  0.17770000000E+01 0.  1.
         15    1    3    3    0    0 -0.80955334602E+01 -0.97851092671E+01 -0.17310979941E+02  0.21543300139E+02  0.17770000000E+01 0. -1.
</event>
<event>
 7    1  0.2288857E-006  0.4022340E+03  0.7546771E-02  0.9649823E-01
        -11   -1    0    0    0    0  0.00000000000E+00  0.00000000000E+00  0.50000000000E+03  0.50000000000E+03  0.00000000000E+00 0. -1.
         11   -1    0    0    0    0 -0.00000000000E+00 -0.00000000000E+00 -0.50000000000E+03  0.50000000000E+03  0.00000000000E+00 0.  1.
         23    2    1    2    0    0  0.25552820296E+03 -0.71154897062E+02  0.34275828044E+03  0.44328238397E+03  0.93050261929E+02 0.  0.
        -11    1    1    2    0    0 -0.18390481478E+03  0.12644519872E+02  0.17132574339E+02  0.18513343805E+03  0.00000000000E+00 0. -1.
         11    1    1    2    0    0 -0.71623388188E+02  0.58510377191E+02 -0.35989085477E+03  0.37158417798E+03  0.00000000000E+00 0.  1.
        -15    1    3    3    0    0  0.24790749524E+03 -0.62534541380E+02  0.34688489044E+03  0.43093036561E+03  0.17770000000E+01 0. -1.
         15    1    3    3    0    0  0.76207077257E+01 -0.86203556829E+01 -0.41266100073E+01  0.12352018357E+02  0.17770000000E+01 0.  1.
</event>
<event>
 7    1  0.2288857E-006  0.4309686E+03  0.7546771E-02  0.9569080E-01
        -11   -1    0    0    0    0  0.00000000000E+00  0.00000000000E+00  0.50000000000E+03  0.50000000000E+03  0.00000000000E+00 0.  1.
         11   -1    0    0    0    0 -0.00000000000E+00 -0.00000000000E+00 -0.50000000000E+03  0.50000000000E+03  0.00000000000E+00 0. -1.
         23    2    1    2    0    0  0.70389310852E+01 -0.93661284572E+02  0.90630035990E+01  0.13291303195E+03  0.93604237347E+02 0.  0.
        -11    1    1    2    0    0 -0.13190537984E+03  0.25085227924E+03  0.35323967807E+03  0.45288427374E+03  0.00000000000E+00 0.  1.
         11    1    1    2    0    0  0.12486644875E+03 -0.15719099467E+03 -0.36230268167E+03  0.41420269431E+03  0.00000000000E+00 0. -1.
        -15    1    3    3    0    0 -0.41088076088E+02 -0.59353647751E+02 -0.41343019622E+01  0.72327973010E+02  0.17770000000E+01 0. -1.
         15    1    3    3    0    0  0.48127007173E+02 -0.34307636821E+02  0.13197305561E+02  0.60585058940E+02  0.17770000000E+01 0.  1.
</event>
<event>
 7    1  0.2288857E-006  0.5105595E+03  0.7546771E-02  0.9376487E-01
        -11   -1    0    0    0    0  0.00000000000E+00  0.00000000000E+00  0.50000000000E+03  0.50000000000E+03  0.00000000000E+00 0. -1.
         11   -1    0    0    0    0 -0.00000000000E+00 -0.00000000000E+00 -0.50000000000E+03  0.50000000000E+03  0.00000000000E+00 0. -1.
         23    2    1    2    0    0 -0.39334909639E+02 -0.12145997583E+03 -0.25593105642E+03  0.30498831631E+03  0.10591225896E+03 0.  0.
        -11    1    1    2    0    0  0.49609778112E+02  0.23931131588E+03  0.42405303015E+03  0.48944050545E+03  0.00000000000E+00 0. -1.
         11    1    1    2    0    0 -0.10274868473E+02 -0.11785134004E+03 -0.16812197373E+03  0.20557117824E+03  0.00000000000E+00 0. -1.
        -15    1    3    3    0    0 -0.64564496207E+02 -0.39079519094E+02 -0.85841756530E+02  0.11431425054E+03  0.17770000000E+01 0.  1.
         15    1    3    3    0    0  0.25229586568E+02 -0.82380456739E+02 -0.17008929989E+03  0.19067406577E+03  0.17770000000E+01 0. -1.
</event>
<event>
 7    1  0.2288857E-006  0.5111989E+03  0.7546771E-02  0.9375094E-01
        -11   -1    0    0    0    0  0.00000000000E+00  0.00000000000E+00  0.50000000000E+03  0.50000000000E+03  0.00000000000E+00 0.  1.
         11   -1    0    0    0    0 -0.00000000000E+00 -0.00000000000E+00 -0.50000000000E+03  0.50000000000E+03  0.00000000000E+00 0.  1.
         23    2    1    2    0    0 -0.19931111068E+02 -0.50993659206E+02  0.39111027903E+03  0.40539794401E+03  0.91556759331E+02 0.  0.
        -11    1    1    2    0    0  0.23115116411E+02 -0.58089892979E+02  0.85352845419E+02  0.10580100422E+03  0.00000000000E+00 0.  1.
         11    1    1    2    0    0 -0.31840053431E+01  0.10908355219E+03 -0.47646312445E+03  0.48880105177E+03  0.00000000000E+00 0.  1.
        -15    1    3    3    0    0 -0.48283671334E+02 -0.17013187555E+00  0.16717780749E+03  0.17401988078E+03  0.17770000000E+01 0.  1.
         15    1    3    3    0    0  0.28352560266E+02 -0.50823527331E+02  0.22393247154E+03  0.23137806323E+03  0.17770000000E+01 0. -1.
</event>
<event>
 7    1  0.2288857E-006  0.3916549E+03  0.7546771E-02  0.9681384E-01
        -11   -1    0    0    0    0  0.00000000000E+00  0.00000000000E+00  0.50000000000E+03  0.50000000000E+03  0.00000000000E+00 0. -1.
         11   -1    0    0    0    0 -0.00000000000E+00 -0.00000000000E+00 -0.50000000000E+03  0.50000000000E+03  0.00000000000E+00 0. -1.
         23    2    1    2    0    0  0.22467832700E+01  0.65812972484E+02  0.42983914135E+03  0.44479362097E+03  0.93505520915E+02 0.  0.
        -11    1    1    2    0    0 -0.47394943690E+02  0.13487538704E+03 -0.14273944804E+03  0.20202029786E+03  0.00000000000E+00 0. -1.
         11    1    1    2    0    0  0.45148160420E+02 -0.20068835953E+03 -0.28709969330E+03  0.35318608117E+03  0.00000000000E+00 0. -1.
        -15    1    3    3    0    0 -0.14291414297E+02 -0.20304415164E+02  0.13121301100E+03  0.13355345665E+03  0.17770000000E+01 0.  1.
         15    1    3    3    0    0  0.16538197567E+02  0.86117387648E+02  0.29862613035E+03  0.31124016432E+03  0.17770000000E+01 0. -1.
</event>
<event>
 7    1  0.2288857E-006  0.5135140E+03  0.7546771E-02  0.9370069E-01
        -11   -1    0    0    0    0  0.00000000000E+00  0.00000000000E+00  0.50000000000E+03  0.50000000000E+03  0.00000000000E+00 0. -1.
         11   -1    0    0    0    0 -0.00000000000E+00 -0.00000000000E+00 -0.50000000000E+03  0.50000000000E+03  0.00000000000E+00 0.  1.
         23    2    1    2    0    0 -0.36279007736E+01 -0.16167798757E+03  0.44973905994E+03  0.48648604834E+03  0.90832372343E+02 0.  0.
        -11    1    1    2    0    0 -0.49235833101E+02 -0.20982701490E+02 -0.63832933627E+02  0.83301167089E+02  0.00000000000E+00 0. -1.
         11    1    1    2    0    0  0.52863733875E+02  0.18266068906E+03 -0.38590612631E+03  0.43021278457E+03  0.00000000000E+00 0.  1.
        -15    1    3    3    0    0  0.29852567875E+02 -0.10223767331E+03  0.34832129526E+03  0.36424524721E+03  0.17770000000E+01 0. -1.
         15    1    3    3    0    0 -0.33480468649E+02 -0.59440314253E+02  0.10141776468E+03  0.12224080113E+03  0.17770000000E+01 0.  1.
</event>
<event>
 7    1  0.2288857E-006  0.5137343E+03  0.7546771E-02  0.9369592E-01
        -11   -1    0    0    0    0  0.00000000000E+00  0.00000000000E+00  0.50000000000E+03  0.50000000000E+03  0.00000000000E+00 0.  1.
         11   -1    0    0    0    0 -0.00000000000E+00 -0.00000000000E+00 -0.50000000000E+03  0.50000000000E+03  0.00000000000E+00 0.  1.
         23    2    1    2    0    0 -0.73264966902E+02  0.11951645785E+02  0.17042904011E+03  0.20694406951E+03  0.90935103133E+02 0.  0.
        -11    1    1    2    0    0 -0.48139047977E+02 -0.49278003692E+02  0.29895579374E+03  0.30679024789E+03  0.00000000000E+00 0.  1.
         11    1    1    2    0    0  0.12140401488E+03  0.37326357907E+02 -0.46938483385E+03  0.48626568260E+03  0.00000000000E+00 0.  1.
        -15    1    3    3    0    0 -0.42011265333E+02  0.26960117736E+02  0.16425680743E+03  0.17168357778E+03  0.17770000000E+01 0.  1.
         15    1    3    3    0    0 -0.31253701570E+02 -0.15008471951E+02  0.61722326808E+01  0.35260491735E+02  0.17770000000E+01 0. -1.
</event>
<event>
 7    1  0.2288857E-006  0.5136727E+03  0.7546771E-02  0.9369725E-01
        -11   -1    0    0    0    0  0.00000000000E+00  0.00000000000E+00  0.50000000000E+03  0.50000000000E+03  0.00000000000E+00 0. -1.
         11   -1    0    0    0    0 -0.00000000000E+00 -0.00000000000E+00 -0.50000000000E+03  0.50000000000E+03  0.00000000000E+00 0.  1.
         23    2    1    2    0    0  0.55828957779E+02 -0.37087074005E+02  0.12264819184E+03  0.16178215524E+03  0.81477378513E+02 0.  0.
        -11    1    1    2    0    0  0.39888964692E+02 -0.52925901742E+02  0.34559320316E+03  0.35189052651E+03  0.00000000000E+00 0. -1.
         11    1    1    2    0    0 -0.95717922470E+02  0.90012975747E+02 -0.46824139499E+03  0.48632731825E+03  0.00000000000E+00 0.  1.
        -15    1    3    3    0    0  0.74330613642E+02 -0.24853350229E+02  0.11299408184E+03  0.13752654072E+03  0.17770000000E+01 0.  1.
         15    1    3    3    0    0 -0.18501655863E+02 -0.12233723776E+02  0.96541099934E+01  0.24255614523E+02  0.17770000000E+01 0. -1.
</event>
<event>
 7    1  0.2288857E-006  0.5348453E+03  0.7546771E-02  0.9325048E-01
        -11   -1    0    0    0    0  0.00000000000E+00  0.00000000000E+00  0.50000000000E+03  0.50000000000E+03  0.00000000000E+00 0.  1.
         11   -1    0    0    0    0 -0.00000000000E+00 -0.00000000000E+00 -0.50000000000E+03  0.50000000000E+03  0.00000000000E+00 0. -1.
         23    2    1    2    0    0 -0.32778859095E+02 -0.97964417870E+01  0.19236029404E+02  0.99878787738E+02  0.91844017428E+02 0.  0.
        -11    1    1    2    0    0 -0.16632252113E+03  0.34518415157E+02  0.40042619840E+03  0.43496648421E+03  0.00000000000E+00 0.  1.
         11    1    1    2    0    0  0.19910138023E+03 -0.24721973370E+02 -0.41966222781E+03  0.46515472805E+03  0.00000000000E+00 0. -1.
        -15    1    3    3    0    0 -0.94390119660E+01 -0.48265229779E+02 -0.36866958228E+01  0.49349537056E+02  0.17770000000E+01 0.  1.
         15    1    3    3    0    0 -0.23339847130E+02  0.38468787992E+02  0.22922725227E+02  0.50529250682E+02  0.17770000000E+01 0. -1.
</event>
<event>
 7    1  0.2288857E-006  0.5190102E+03  0.7546771E-02  0.9358250E-01
        -11   -1    0    0    0    0  0.00000000000E+00  0.00000000000E+00  0.50000000000E+03  0.50000000000E+03  0.00000000000E+00 0.  1.
         11   -1    0    0    0    0 -0.00000000000E+00 -0.00000000000E+00 -0.50000000000E+03  0.50000000000E+03  0.00000000000E+00 0. -1.
         23    2    1    2    0    0  0.11246445189E+03 -0.31009125169E+02 -0.20450802784E+03  0.25366917027E+03  0.94417666329E+02 0.  0.
        -11    1    1    2    0    0 -0.16644335354E+03  0.19204267999E+03  0.40837160256E+03  0.48098975733E+03  0.00000000000E+00 0.  1.
         11    1    1    2    0    0  0.53978901655E+02 -0.16103355482E+03 -0.20386357473E+03  0.26534107240E+03  0.00000000000E+00 0. -1.
        -15    1    3    3    0    0 -0.12485433680E+02  0.12466616690E+02 -0.26085298482E+02  0.31542084772E+02  0.17770000000E+01 0.  1.
         15    1    3    3    0    0  0.12494988557E+03 -0.43475741859E+02 -0.17842272935E+03  0.22212708550E+03  0.17770000000E+01 0. -1.
</event>
<event>
 7    1  0.2288857E-006  0.3457463E+03  0.7546771E-02  0.9831859E-01
        -11   -1    0    0    0    0  0.00000000000E+00  0.00000000000E+00  0.50000000000E+03  0.50000000000E+03  0.00000000000E+00 0.  1.
         11   -1    0    0    0    0 -0.00000000000E+00 -0.00000000000E+00 -0.50000000000E+03  0.50000000000E+03  0.00000000000E+00 0. -1.
         23    2    1    2    0    0 -0.13258321226E+03  0.20195546174E+03  0.17783964781E+03  0.31350707556E+03  0.91079247863E+02 0.  0.
        -11    1    1    2    0    0 -0.77794003239E+02 -0.18267170447E+03  0.18192229546E+03  0.26928902714E+03  0.00000000000E+00 0.  1.
         11    1    1    2    0    0  0.21037721550E+03 -0.19283757273E+02 -0.35976194327E+03  0.41720389730E+03  0.00000000000E+00 0. -1.
        -15    1    3    3    0    0 -0.14279685466E+03  0.19949057200E+03  0.16056228839E+03  0.29320783789E+03  0.17770000000E+01 0.  1.
         15    1    3    3    0    0  0.10213642396E+02  0.24648897420E+01  0.17277359426E+02  0.20299237675E+02  0.17770000000E+01 0. -1.
</event>
<event>
 6    1  0.2288857E-006  0.3160260E+03  0.7546771E-02  0.9943330E-01
        -11   -1    0    0    0    0  0.00000000000E+00  0.00000000000E+00  0.50000000000E+03  0.50000000000E+03  0.00000000000E+00 0. -1.
         11   -1    0    0    0    0 -0.00000000000E+00 -0.00000000000E+00 -0.50000000000E+03  0.50000000000E+03  0.00000000000E+00 0.  1.
        -11    1    1    2    0    0  0.14591582536E+03  0.18117839345E+03  0.28745430888E+03  0.36979320983E+03  0.00000000000E+00 0. -1.
         11    1    1    2    0    0  0.74806298141E+02 -0.16758680242E+02 -0.31065607053E+03  0.31997504553E+03  0.00000000000E+00 0.  1.
        -15    1    1    2    0    0 -0.62943451593E+02 -0.50852743078E+02  0.73598246219E+02  0.10939716245E+03  0.17770000000E+01 0. -1.
         15    1    1    2    0    0 -0.15777867191E+03 -0.11356697013E+03 -0.50396484565E+02  0.20083458218E+03  0.17770000000E+01 0.  1.
</event>
<event>
 7    1  0.2288857E-006  0.4151594E+03  0.7546771E-02  0.9612640E-01
        -11   -1    0    0    0    0  0.00000000000E+00  0.00000000000E+00  0.50000000000E+03  0.50000000000E+03  0.00000000000E+00 0.  1.
         11   -1    0    0    0    0 -0.00000000000E+00 -0.00000000000E+00 -0.50000000000E+03  0.50000000000E+03  0.00000000000E+00 0.  1.
         23    2    1    2    0    0 -0.57296308468E+02 -0.10943285274E+03  0.44874379962E+02  0.15934456798E+03  0.90103080670E+02 0.  0.
        -11    1    1    2    0    0  0.34688048744E+03  0.44762244469E+02  0.24406702325E+03  0.42649553683E+03  0.00000000000E+00 0.  1.
         11    1    1    2    0    0 -0.28958417897E+03  0.64670608272E+02 -0.28894140322E+03  0.41415989518E+03  0.00000000000E+00 0.  1.
        -15    1    3    3    0    0 -0.36520327734E+02 -0.34610641749E+02  0.61937713843E+02  0.79818976348E+02  0.17770000000E+01 0.  1.
         15    1    3    3    0    0 -0.20775980733E+02 -0.74822210992E+02 -0.17063333880E+02  0.79525591637E+02  0.17770000000E+01 0. -1.
</event>
<event>
 7    1  0.2288857E-006  0.5341956E+03  0.7546771E-02  0.9326386E-01
        -11   -1    0    0    0    0  0.00000000000E+00  0.00000000000E+00  0.50000000000E+03  0.50000000000E+03  0.00000000000E+00 0.  1.
         11   -1    0    0    0    0 -0.00000000000E+00 -0.00000000000E+00 -0.50000000000E+03  0.50000000000E+03  0.00000000000E+00 0. -1.
         23    2    1    2    0    0 -0.39375266678E+02 -0.79546719538E+02  0.21730033365E+03  0.25103480837E+03  0.88999706707E+02 0.  0.
        -11    1    1    2    0    0 -0.15310402817E+03  0.12167549528E+03  0.20477858850E+03  0.28316080220E+03  0.00000000000E+00 0.  1.
         11    1    1    2    0    0  0.19247929485E+03 -0.42128775746E+02 -0.42207892215E+03  0.46580438943E+03  0.00000000000E+00 0. -1.
        -15    1    3    3    0    0 -0.27318222359E+02  0.73443530078E+01  0.10365006983E+03  0.10745566295E+03  0.17770000000E+01 0.  1.
         15    1    3    3    0    0 -0.12057044319E+02 -0.86891072546E+02  0.11365026382E+03  0.14357914542E+03  0.17770000000E+01 0. -1.
</event>
<event>
 7    1  0.2288857E-006  0.3863335E+03  0.7546771E-02  0.9697666E-01
        -11   -1    0    0    0    0  0.00000000000E+00  0.00000000000E+00  0.50000000000E+03  0.50000000000E+03  0.00000000000E+00 0. -1.
         11   -1    0    0    0    0 -0.00000000000E+00 -0.00000000000E+00 -0.50000000000E+03  0.50000000000E+03  0.00000000000E+00 0.  1.
         23    2    1    2    0    0 -0.45119664770E+02  0.16575069353E+03  0.56116461962E+02  0.20648101268E+03  0.99881303251E+02 0.  0.
        -11    1    1    2    0    0  0.11590439356E+03 -0.14178179795E+03  0.34227128789E+03  0.38818235560E+03  0.00000000000E+00 0. -1.
         11    1    1    2    0    0 -0.70784728795E+02 -0.23968895573E+02 -0.39838774986E+03  0.40533663173E+03  0.00000000000E+00 0.  1.
        -15    1    3    3    0    0 -0.62009548096E+02  0.13403425533E+03  0.75221040651E+02  0.16574597534E+03  0.17770000000E+01 0. -1.
         15    1    3    3    0    0  0.16889883326E+02  0.31716438197E+02 -0.19104578689E+02  0.40735037334E+02  0.17770000000E+01 0.  1.
</event>
<event>
 7    1  0.2288857E-006  0.3722736E+03  0.7546771E-02  0.9742069E-01
        -11   -1    0    0    0    0  0.00000000000E+00  0.00000000000E+00  0.50000000000E+03  0.50000000000E+03  0.00000000000E+00 0.  1.
         11   -1    0    0    0    0 -0.00000000000E+00 -0.00000000000E+00 -0.50000000000E+03  0.50000000000E+03  0.00000000000E+00 0. -1.
         23    2    1    2    0    0 -0.18655274457E+03  0.23237232879E+03  0.17147755427E+03  0.35532827943E+03  0.89748586903E+02 0.  0.
        -11    1    1    2    0    0  0.12289539736E+03 -0.42889389691E+02  0.19076274781E+03  0.23093982850E+03  0.00000000000E+00 0.  1.
         11    1    1    2    0    0  0.63657347217E+02 -0.18948293910E+03 -0.36224030207E+03  0.41373189206E+03  0.00000000000E+00 0. -1.
        -15    1    3    3    0    0 -0.44814994137E+02  0.11933260571E+02  0.43745849344E+02  0.63778079864E+02  0.17770000000E+01 0. -1.
         15    1    3    3    0    0 -0.14173775044E+03  0.22043906822E+03  0.12773170492E+03  0.29155019957E+03  0.17770000000E+01 0.  1.
</event>
<event>
 7    1  0.2288857E-006  0.5353162E+03  0.7546771E-02  0.9324079E-01
        -11   -1    0    0    0    0  0.00000000000E+00  0.00000000000E+00  0.50000000000E+03  0.50000000000E+03  0.00000000000E+00 0.  1.
         11   -1    0    0    0    0 -0.00000000000E+00 -0.00000000000E+00 -0.50000000000E+03  0.50000000000E+03  0.00000000000E+00 0.  1.
         23    2    1    2    0    0 -0.80302039480E+02  0.37658395000E+02 -0.21996579025E+02  0.12878665366E+03  0.90750098690E+02 0.  0.
        -11    1    1    2    0    0  0.20767937918E+03 -0.10591198428E+03  0.40197384542E+03  0.46468381224E+03  0.00000000000E+00 0.  1.
         11    1    1    2    0    0 -0.12737733970E+03  0.68253589284E+02 -0.37997726640E+03  0.40652953411E+03  0.00000000000E+00 0.  1.
        -15    1    3    3    0    0 -0.57893446232E+02 -0.20688827038E+02 -0.24509931805E+02  0.66208558109E+02  0.17770000000E+01 0.  1.
         15    1    3    3    0    0 -0.22408593249E+02  0.58347222038E+02  0.25133527808E+01  0.62578095546E+02  0.17770000000E+01 0. -1.
</event>
<event>
 7    1  0.2288857E-006  0.5377782E+03  0.7546771E-02  0.9319032E-01
        -11   -1    0    0    0    0  0.00000000000E+00  0.00000000000E+00  0.50000000000E+03  0.50000000000E+03  0.00000000000E+00 0.  1.
         11   -1    0    0    0    0 -0.00000000000E+00 -0.00000000000E+00 -0.50000000000E+03  0.50000000000E+03  0.00000000000E+00 0.  1.
         23    2    1    2    0    0  0.75881717841E+01  0.29142109043E+02  0.11257737593E+03  0.17115034723E+03  0.12534724933E+03 0.  0.
        -11    1    1    2    0    0 -0.15018922894E+03 -0.84532839212E+02  0.32359441888E+03  0.36662781308E+03  0.00000000000E+00 0.  1.
         11    1    1    2    0    0  0.14260105716E+03  0.55390730169E+02 -0.43617179481E+03  0.46222183968E+03  0.00000000000E+00 0.  1.
        -15    1    3    3    0    0  0.13135333287E+02  0.70950844056E+02  0.10627744737E+03  0.12847027983E+03  0.17770000000E+01 0.  1.
         15    1    3    3    0    0 -0.55471615031E+01 -0.41808735013E+02  0.62999285654E+01  0.42680067398E+02  0.17770000000E+01 0. -1.
</event>
<event>
 7    1  0.2288857E-006  0.5257786E+03  0.7546771E-02  0.9343907E-01
        -11   -1    0    0    0    0  0.00000000000E+00  0.00000000000E+00  0.50000000000E+03  0.50000000000E+03  0.00000000000E+00 0.  1.
         11   -1    0    0    0    0 -0.00000000000E+00 -0.00000000000E+00 -0.50000000000E+03  0.50000000000E+03  0.00000000000E+00 0.  1.
         23    2    1    2    0    0 -0.11734075665E+03 -0.16263383367E+03  0.42020242623E+03  0.47422143885E+03  0.89984871098E+02 0.  0.
        -11    1    1    2    0    0  0.81129809393E+02  0.19297635604E+03 -0.16584274837E+03  0.26706878730E+03  0.00000000000E+00 0.  1.
         11    1    1    2    0    0  0.36210947256E+02 -0.30342522374E+02 -0.25435967786E+03  0.25870977385E+03  0.00000000000E+00 0.  1.
        -15    1    3    3    0    0 -0.67199759576E+02 -0.57601184909E+02  0.10019169768E+03  0.13369831040E+03  0.17770000000E+01 0. -1.
         15    1    3    3    0    0 -0.50140997073E+02 -0.10503264876E+03  0.32001072855E+03  0.34052312845E+03  0.17770000000E+01 0.  1.
</event>
<event>
 7    1  0.2288857E-006  0.5154427E+03  0.7546771E-02  0.9365903E-01
        -11   -1    0    0    0    0  0.00000000000E+00  0.00000000000E+00  0.50000000000E+03  0.50000000000E+03  0.00000000000E+00 0.  1.
         11   -1    0    0    0    0 -0.00000000000E+00 -0.00000000000E+00 -0.50000000000E+03  0.50000000000E+03  0.00000000000E+00 0. -1.
         23    2    1    2    0    0 -0.29472023691E+02 -0.92796015063E+02  0.25969677092E+03  0.29253775379E+03  0.93038830482E+02 0.  0.
        -11    1    1    2    0    0 -0.12611841327E+03 -0.80584121598E+02  0.16518761881E+03  0.22290492194E+03  0.00000000000E+00 0.  1.
         11    1    1    2    0    0  0.15559043696E+03  0.17338013666E+03 -0.42488438973E+03  0.48455732426E+03  0.00000000000E+00 0. -1.
        -15    1    3    3    0    0 -0.34357587110E-01  0.18723774655E+02  0.45963138478E+02  0.49662347362E+02  0.17770000000E+01 0.  1.
         15    1    3    3    0    0 -0.29437666104E+02 -0.11151978972E+03  0.21373363244E+03  0.24287540643E+03  0.17770000000E+01 0. -1.
</event>
<event>
 7    1  0.2288857E-006  0.5272760E+03  0.7546771E-02  0.9340764E-01
        -11   -1    0    0    0    0  0.00000000000E+00  0.00000000000E+00  0.50000000000E+03  0.50000000000E+03  0.00000000000E+00 0. -1.
         11   -1    0    0    0    0 -0.00000000000E+00 -0.00000000000E+00 -0.50000000000E+03  0.50000000000E+03  0.00000000000E+00 0. -1.
         23    2    1    2    0    0  0.12215858286E+03  0.67205283042E+00 -0.19036349470E+03  0.24380144969E+03  0.90981952787E+02 0.  0.
        -11    1    1    2    0    0 -0.18189598245E+03  0.18705043194E+03  0.39420046348E+03  0.47272403993E+03  0.00000000000E+00 0. -1.
         11    1    1    2    0    0  0.59737399590E+02 -0.18772248477E+03 -0.20383696877E+03  0.28347451038E+03  0.00000000000E+00 0. -1.
        -15    1    3    3    0    0  0.61394760600E+02  0.41567259824E+02 -0.12636114778E+03  0.14651775017E+03  0.17770000000E+01 0.  1.
         15    1    3    3    0    0  0.60763822258E+02 -0.40895206994E+02 -0.64002346924E+02  0.97283699515E+02  0.17770000000E+01 0. -1.
</event>
<event>
 7    1  0.2288857E-006  0.5124095E+03  0.7546771E-02  0.9372463E-01
        -11   -1    0    0    0    0  0.00000000000E+00  0.00000000000E+00  0.50000000000E+03  0.50000000000E+03  0.00000000000E+00 0. -1.
         11   -1    0    0    0    0 -0.00000000000E+00 -0.00000000000E+00 -0.50000000000E+03  0.50000000000E+03  0.00000000000E+00 0.  1.
         23    2    1    2    0    0 -0.13285903267E+02  0.12478424957E+02 -0.22250646494E+03  0.24090834428E+03  0.90528874342E+02 0.  0.
        -11    1    1    2    0    0 -0.14958039362E+02 -0.10687075211E+03  0.47549907392E+03  0.48759047355E+03  0.00000000000E+00 0. -1.
         11    1    1    2    0    0  0.28243942630E+02  0.94392327157E+02 -0.25299260898E+03  0.27150118217E+03  0.00000000000E+00 0.  1.
        -15    1    3    3    0    0 -0.26701428990E+02  0.47573047389E+02 -0.13838891413E+03  0.14876427807E+03  0.17770000000E+01 0.  1.
         15    1    3    3    0    0  0.13415525722E+02 -0.35094622432E+02 -0.84117550809E+02  0.92144066207E+02  0.17770000000E+01 0. -1.
</event>
<event>
 7    1  0.2288857E-006  0.4367174E+03  0.7546771E-02  0.9553731E-01
        -11   -1    0    0    0    0  0.00000000000E+00  0.00000000000E+00  0.50000000000E+03  0.50000000000E+03  0.00000000000E+00 0. -1.
         11   -1    0    0    0    0 -0.00000000000E+00 -0.00000000000E+00 -0.50000000000E+03  0.50000000000E+03  0.00000000000E+00 0. -1.
         23    2    1    2    0    0  0.50859590965E+02 -0.51728012801E+02  0.29731292819E+02  0.12305364516E+03  0.94846004197E+02 0.  0.
        -11    1    1    2    0    0 -0.91166742189E+02 -0.26374420496E+02  0.41392629936E+03  0.42466688856E+03  0.00000000000E+00 0. -1.
         11    1    1    2    0    0  0.40307151224E+02  0.78102433297E+02 -0.44365759218E+03  0.45227946628E+03  0.00000000000E+00 0. -1.
        -15    1    3    3    0    0  0.58951286907E+02 -0.62213265867E+02  0.49651407404E+02  0.99066465890E+02  0.17770000000E+01 0. -1.
         15    1    3    3    0    0 -0.80916959416E+01  0.10485253066E+02 -0.19920114585E+02  0.23987179266E+02  0.17770000000E+01 0.  1.
</event>
<event>
 7    1  0.2288857E-006  0.4519233E+03  0.7546771E-02  0.9514317E-01
        -11   -1    0    0    0    0  0.00000000000E+00  0.00000000000E+00  0.50000000000E+03  0.50000000000E+03  0.00000000000E+00 0. -1.
         11   -1    0    0    0    0 -0.00000000000E+00 -0.00000000000E+00 -0.50000000000E+03  0.50000000000E+03  0.00000000000E+00 0. -1.
         23    2    1    2    0    0  0.19219723202E+03 -0.10780566303E+02  0.42962642862E+03  0.47693918852E+03  0.76394533623E+02 0.  0.
        -11    1    1    2    0    0 -0.96057627191E+02  0.57319169101E+01 -0.14983144345E+02  0.97387972704E+02  0.00000000000E+00 0. -1.
         11    1    1    2    0    0 -0.96139604827E+02  0.50486493934E+01 -0.41464328428E+03  0.42567283878E+03  0.00000000000E+00 0. -1.
        -15    1    3    3    0    0 -0.42604153476E+01 -0.95397774522E+01  0.20079721735E+02  0.22704877157E+02  0.17770000000E+01 0.  1.
         15    1    3    3    0    0  0.19645764737E+03 -0.12407888513E+01  0.40954670689E+03  0.45423431136E+03  0.17770000000E+01 0. -1.
</event>
<event>
 7    1  0.2288857E-006  0.5395894E+03  0.7546771E-02  0.9315338E-01
        -11   -1    0    0    0    0  0.00000000000E+00  0.00000000000E+00  0.50000000000E+03  0.50000000000E+03  0.00000000000E+00 0.  1.
         11   -1    0    0    0    0 -0.00000000000E+00 -0.00000000000E+00 -0.50000000000E+03  0.50000000000E+03  0.00000000000E+00 0.  1.
         23    2    1    2    0    0 -0.66662611598E+02 -0.14893395422E+03 -0.69404481145E+02  0.20058334999E+03  0.93762848650E+02 0.  0.
        -11    1    1    2    0    0  0.17760919629E+03  0.17060393667E+03  0.38900794668E+03  0.46041059110E+03  0.00000000000E+00 0.  1.
         11    1    1    2    0    0 -0.11094658469E+03 -0.21669982455E+02 -0.31960346554E+03  0.33900605891E+03  0.00000000000E+00 0.  1.
        -15    1    3    3    0    0 -0.39965219361E+02 -0.12577959045E+03 -0.11193789781E+02  0.13246200509E+03  0.17770000000E+01 0.  1.
         15    1    3    3    0    0 -0.26697392237E+02 -0.23154363765E+02 -0.58210691364E+02  0.68121344905E+02  0.17770000000E+01 0. -1.
</event>
<event>
 7    1  0.2288857E-006  0.4353751E+03  0.7546771E-02  0.9557292E-01
        -11   -1    0    0    0    0  0.00000000000E+00  0.00000000000E+00  0.50000000000E+03  0.50000000000E+03  0.00000000000E+00 0.  1.
         11   -1    0    0    0    0 -0.00000000000E+00 -0.00000000000E+00 -0.50000000000E+03  0.50000000000E+03  0.00000000000E+00 0. -1.
         23    2    1    2    0    0  0.20643956656E+03  0.11445855597E+03  0.35127835556E+03  0.43386246137E+03  0.95509667674E+02 0.  0.
        -11    1    1    2    0    0 -0.11612080810E+03  0.30929134559E+02  0.49789128240E+02  0.13007540401E+03  0.00000000000E+00 0.  1.
         11    1    1    2    0    0 -0.90318758466E+02 -0.14538769053E+03 -0.40106748380E+03  0.43606213462E+03  0.00000000000E+00 0. -1.
        -15    1    3    3    0    0  0.10782566737E+03  0.23541163983E+02  0.22017493891E+03  0.24629397556E+03  0.17770000000E+01 0.  1.
         15    1    3    3    0    0  0.98613899195E+02  0.90917391986E+02  0.13110341665E+03  0.18756848580E+03  0.17770000000E+01 0. -1.
</event>
<event>
 7    1  0.2288857E-006  0.5183220E+03  0.7546771E-02  0.9359721E-01
        -11   -1    0    0    0    0  0.00000000000E+00  0.00000000000E+00  0.50000000000E+03  0.50000000000E+03  0.00000000000E+00 0.  1.
         11   -1    0    0    0    0 -0.00000000000E+00 -0.00000000000E+00 -0.50000000000E+03  0.50000000000E+03  0.00000000000E+00 0. -1.
         23    2    1    2    0    0  0.76369572605E+02  0.36047166284E+02  0.40226029754E+03  0.42081765483E+03  0.90235479804E+02 0.  0.
        -11    1    1    2    0    0  0.79488122389E+02  0.28129064462E+02  0.48964150795E+02  0.97504327759E+02  0.00000000000E+00 0.  1.
         11    1    1    2    0    0 -0.15585769499E+03 -0.64176230746E+02 -0.45122444834E+03  0.48167801742E+03  0.00000000000E+00 0. -1.
        -15    1    3    3    0    0  0.68513555882E+02  0.62307190158E+02  0.26194630918E+03  0.27784045765E+03  0.17770000000E+01 0.  1.
         15    1    3    3    0    0  0.78560167227E+01 -0.26260023874E+02  0.14031398836E+03  0.14297719717E+03  0.17770000000E+01 0. -1.
</event>
<event>
 7    1  0.2288857E-006  0.5049465E+03  0.7546771E-02  0.9388809E-01
        -11   -1    0    0    0    0  0.00000000000E+00  0.00000000000E+00  0.50000000000E+03  0.50000000000E+03  0.00000000000E+00 0. -1.
         11   -1    0    0    0    0 -0.00000000000E+00 -0.00000000000E+00 -0.50000000000E+03  0.50000000000E+03  0.00000000000E+00 0.  1.
         23    2    1    2    0    0 -0.97817069513E+01 -0.14479313386E+03  0.46342868039E+03  0.49505347287E+03  0.96182460945E+02 0.  0.
        -11    1    1    2    0    0  0.30491783175E+02  0.87638557157E+02 -0.99806050211E+02  0.13627733928E+03  0.00000000000E+00 0. -1.
         11    1    1    2    0    0 -0.20710076223E+02  0.57154576705E+02 -0.36362263018E+03  0.36866918785E+03  0.00000000000E+00 0.  1.
        -15    1    3    3    0    0 -0.47823885035E+02 -0.93459036955E+02  0.34302702336E+03  0.35873724654E+03  0.17770000000E+01 0. -1.
         15    1    3    3    0    0  0.38042178084E+02 -0.51334096908E+02  0.12040165703E+03  0.13631622634E+03  0.17770000000E+01 0.  1.
</event>
<event>
 7    1  0.2288857E-006  0.4322333E+03  0.7546771E-02  0.9565681E-01
        -11   -1    0    0    0    0  0.00000000000E+00  0.00000000000E+00  0.50000000000E+03  0.50000000000E+03  0.00000000000E+00 0.  1.
         11   -1    0    0    0    0 -0.00000000000E+00 -0.00000000000E+00 -0.50000000000E+03  0.50000000000E+03  0.00000000000E+00 0. -1.
         23    2    1    2    0    0  0.11962269446E+02 -0.16453755325E+03  0.37989167371E+03  0.42391647461E+03  0.90397961097E+02 0.  0.
        -11    1    1    2    0    0  0.12856253560E+03 -0.37454841635E+02 -0.13300179381E+02  0.13456628662E+03  0.00000000000E+00 0.  1.
         11    1    1    2    0    0 -0.14052480505E+03  0.20199239488E+03 -0.36659149433E+03  0.44151723878E+03  0.00000000000E+00 0. -1.
        -15    1    3    3    0    0 -0.36827770230E+02 -0.59060616213E+02  0.17520898091E+03  0.18853590048E+03  0.17770000000E+01 0.  1.
         15    1    3    3    0    0  0.48790039677E+02 -0.10547693703E+03  0.20468269280E+03  0.23538057413E+03  0.17770000000E+01 0. -1.
</event>
<event>
 7    1  0.2288857E-006  0.5260809E+03  0.7546771E-02  0.9343271E-01
        -11   -1    0    0    0    0  0.00000000000E+00  0.00000000000E+00  0.50000000000E+03  0.50000000000E+03  0.00000000000E+00 0. -1.
         11   -1    0    0    0    0 -0.00000000000E+00 -0.00000000000E+00 -0.50000000000E+03  0.50000000000E+03  0.00000000000E+00 0. -1.
         23    2    1    2    0    0 -0.35854985353E+02  0.20673237071E+03 -0.27357142396E+03  0.35607058236E+03  0.89000463704E+02 0.  0.
        -11    1    1    2    0    0  0.82040851660E+02 -0.17274929366E+03  0.43361995840E+03  0.47391907339E+03  0.00000000000E+00 0. -1.
         11    1    1    2    0    0 -0.46185866307E+02 -0.33983077054E+02 -0.16004853444E+03  0.17001034424E+03  0.00000000000E+00 0. -1.
        -15    1    3    3    0    0  0.20536294047E+02  0.46998115221E+02 -0.10609507751E+03  0.11785535799E+03  0.17770000000E+01 0.  1.
         15    1    3    3    0    0 -0.56391279400E+02  0.15973425549E+03 -0.16747634646E+03  0.23821522437E+03  0.17770000000E+01 0. -1.
</event>
<event>
 7    1  0.2288857E-006  0.5222375E+03  0.7546771E-02  0.9351382E-01
        -11   -1    0    0    0    0  0.00000000000E+00  0.00000000000E+00  0.50000000000E+03  0.50000000000E+03  0.00000000000E+00 0. -1.
         11   -1    0    0    0    0 -0.00000000000E+00 -0.00000000000E+00 -0.50000000000E+03  0.50000000000E+03  0.00000000000E+00 0.  1.
         23    2    1    2    0    0 -0.27815820528E+02  0.74244009641E+02  0.35092460645E+03  0.37105735194E+03  0.90827232566E+02 0.  0.
        -11    1    1    2    0    0 -0.65700366335E+02 -0.68686102053E+02  0.11756323174E+03  0.15118013166E+03  0.00000000000E+00 0. -1.
         11    1    1    2    0    0  0.93516186862E+02 -0.55579075879E+01 -0.46848783819E+03  0.47776251640E+03  0.00000000000E+00 0.  1.
        -15    1    3    3    0    0 -0.59257990468E+02  0.39393469204E+02  0.17381391235E+03  0.18782382359E+03  0.17770000000E+01 0.  1.
         15    1    3    3    0    0  0.31442169941E+02  0.34850540437E+02  0.17711069410E+03  0.18323352835E+03  0.17770000000E+01 0. -1.
</event>
<event>
 7    1  0.2288857E-006  0.4294879E+03  0.7546771E-02  0.9573074E-01
        -11   -1    0    0    0    0  0.00000000000E+00  0.00000000000E+00  0.50000000000E+03  0.50000000000E+03  0.00000000000E+00 0.  1.
         11   -1    0    0    0    0 -0.00000000000E+00 -0.00000000000E+00 -0.50000000000E+03  0.50000000000E+03  0.00000000000E+00 0.  1.
         23    2    1    2    0    0  0.11010437208E+02 -0.21485761993E+02  0.39571900619E+03  0.40696731762E+03  0.91902111233E+02 0.  0.
        -11    1    1    2    0    0 -0.51723711758E+02 -0.12582639280E+03  0.31205650976E+02  0.13957584367E+03  0.00000000000E+00 0.  1.
         11    1    1    2    0    0  0.40713274550E+02  0.14731215480E+03 -0.42692465717E+03  0.45345683871E+03  0.00000000000E+00 0.  1.
        -15    1    3    3    0    0 -0.14630059261E+02  0.32050698475E+02  0.13079304265E+03  0.13546683595E+03  0.17770000000E+01 0. -1.
         15    1    3    3    0    0  0.25640496468E+02 -0.53536460468E+02  0.26492596354E+03  0.27150048167E+03  0.17770000000E+01 0.  1.
</event>
<event>
 7    1  0.2288857E-006  0.4650222E+03  0.7546771E-02  0.9481667E-01
        -11   -1    0    0    0    0  0.00000000000E+00  0.00000000000E+00  0.50000000000E+03  0.50000000000E+03  0.00000000000E+00 0.  1.
         11   -1    0    0    0    0 -0.00000000000E+00 -0.00000000000E+00 -0.50000000000E+03  0.50000000000E+03  0.00000000000E+00 0.  1.
         23    2    1    2    0    0 -0.37751680715E+02  0.66112042291E+02  0.43157373012E+03  0.44765633897E+03  0.91347259147E+02 0.  0.
        -11    1    1    2    0    0 -0.65788303466E+02  0.29636951788E+02  0.23525976075E+02  0.75894145588E+02  0.00000000000E+00 0.  1.
         11    1    1    2    0    0  0.10353998418E+03 -0.95748994079E+02 -0.45509970619E+03  0.47644951545E+03  0.00000000000E+00 0.  1.
        -15    1    3    3    0    0 -0.66565556533E+02  0.36406261480E+02  0.24248597493E+03  0.25408462165E+03  0.17770000000E+01 0. -1.
         15    1    3    3    0    0  0.28813875818E+02  0.29705780811E+02  0.18908775519E+03  0.19357171732E+03  0.17770000000E+01 0.  1.
</event>
<event>
 7    1  0.2288857E-006  0.5110848E+03  0.7546771E-02  0.9375343E-01
        -11   -1    0    0    0    0  0.00000000000E+00  0.00000000000E+00  0.50000000000E+03  0.50000000000E+03  0.00000000000E+00 0. -1.
         11   -1    0    0    0    0 -0.00000000000E+00 -0.00000000000E+00 -0.50000000000E+03  0.50000000000E+03  0.00000000000E+00 0.  1.
         23    2    1    2    0    0 -0.58980114584E+02  0.11757181134E+03 -0.21044383897E+03  0.26376987857E+03  0.89365288252E+02 0.  0.
        -11    1    1    2    0    0  0.37970418236E+02 -0.24336216515E+03  0.42234013864E+03  0.48891521636E+03  0.00000000000E+00 0. -1.
         11    1    1    2    0    0  0.21009696348E+02  0.12579035381E+03 -0.21189629967E+03  0.24731490506E+03  0.00000000000E+00 0.  1.
        -15    1    3    3    0    0 -0.34801700512E+02  0.12054606465E+03 -0.13427687189E+03  0.18378233897E+03  0.17770000000E+01 0. -1.
         15    1    3    3    0    0 -0.24178414071E+02 -0.29742533126E+01 -0.76166967078E+02  0.79987539608E+02  0.17770000000E+01 0.  1.
</event>
<event>
 7    1  0.2288857E-006  0.5094330E+03  0.7546771E-02  0.9378947E-01
        -11   -1    0    0    0    0  0.00000000000E+00  0.00000000000E+00  0.50000000000E+03  0.50000000000E+03  0.00000000000E+00 0.  1.
         11   -1    0    0    0    0 -0.00000000000E+00 -0.00000000000E+00 -0.50000000000E+03  0.50000000000E+03  0.00000000000E+00 0. -1.
         23    2    1    2    0    0  0.85361088016E+02 -0.62907367702E+01  0.39091190622E+03  0.41049858834E+03  0.91492534622E+02 0.  0.
        -11    1    1    2    0    0  0.26896940742E+02  0.42339396960E+02  0.85275693518E+02  0.98934391701E+02  0.00000000000E+00 0.  1.
         11    1    1    2    0    0 -0.11225802876E+03 -0.36048660190E+02 -0.47618759974E+03  0.49056701995E+03  0.00000000000E+00 0. -1.
        -15    1    3    3    0    0  0.89946332210E+02 -0.20145450227E+02  0.38272305212E+03  0.39367026074E+03  0.17770000000E+01 0.  1.
         15    1    3    3    0    0 -0.45852441937E+01  0.13854713457E+02  0.81888541016E+01  0.16828327600E+02  0.17770000000E+01 0. -1.
</event>
<event>
 7    1  0.2288857E-006  0.3516241E+03  0.7546771E-02  0.9811235E-01
        -11   -1    0    0    0    0  0.00000000000E+00  0.00000000000E+00  0.50000000000E+03  0.50000000000E+03  0.00000000000E+00 0. -1.
         11   -1    0    0    0    0 -0.00000000000E+00 -0.00000000000E+00 -0.50000000000E+03  0.50000000000E+03  0.00000000000E+00 0.  1.
         23    2    1    2    0    0 -0.19557252404E+02  0.10567227597E+02  0.23868483767E+03  0.25701772685E+03  0.92701174548E+02 0.  0.
        -11    1    1    2    0    0 -0.31233629226E+03  0.75935113753E+01  0.32346658955E+02  0.31409859475E+03  0.00000000000E+00 0. -1.
         11    1    1    2    0    0  0.33189354467E+03 -0.18160738972E+02 -0.27103149663E+03  0.42888367840E+03  0.00000000000E+00 0.  1.
        -15    1    3    3    0    0  0.18709789668E+02  0.99391170489E+01  0.72944810992E+01  0.22476865009E+02  0.17770000000E+01 0.  1.
         15    1    3    3    0    0 -0.38267042071E+02  0.62811054782E+00  0.23139035657E+03  0.23454086185E+03  0.17770000000E+01 0. -1.
</event>
<event>
 7    1  0.2288857E-006  0.5286502E+03  0.7546771E-02  0.9337890E-01
        -11   -1    0    0    0    0  0.00000000000E+00  0.00000000000E+00  0.50000000000E+03  0.50000000000E+03  0.00000000000E+00 0.  1.
         11   -1    0    0    0    0 -0.00000000000E+00 -0.00000000000E+00 -0.50000000000E+03  0.50000000000E+03  0.00000000000E+00 0.  1.
         23    2    1    2    0    0 -0.49657454025E+02  0.23051475981E+02  0.13912427972E+03  0.17478725250E+03  0.90541621055E+02 0.  0.
        -11    1    1    2    0    0 -0.57964490668E+02 -0.20630840038E+03  0.28159538273E+03  0.35386296475E+03  0.00000000000E+00 0.  1.
         11    1    1    2    0    0  0.10762194469E+03  0.18325692440E+03 -0.42071966246E+03  0.47134978275E+03  0.00000000000E+00 0.  1.
        -15    1    3    3    0    0  0.15604835050E+02  0.13347638303E+02 -0.20768156478E+00  0.20612403689E+02  0.17770000000E+01 0. -1.
         15    1    3    3    0    0 -0.65262289075E+02  0.97038376783E+01  0.13933196129E+03  0.15417484881E+03  0.17770000000E+01 0.  1.
</event>
<event>
 7    1  0.2288857E-006  0.3315096E+03  0.7546771E-02  0.9883689E-01
        -11   -1    0    0    0    0  0.00000000000E+00  0.00000000000E+00  0.50000000000E+03  0.50000000000E+03  0.00000000000E+00 0.  1.
         11   -1    0    0    0    0 -0.00000000000E+00 -0.00000000000E+00 -0.50000000000E+03  0.50000000000E+03  0.00000000000E+00 0. -1.
         23    2    1    2    0    0  0.50369727207E+02 -0.19117229733E+03  0.18252920345E+03  0.28446158723E+03  0.92290453542E+02 0.  0.
        -11    1    1    2    0    0 -0.11887931260E+03  0.37892335458E+03  0.59597638099E+02  0.40158072423E+03  0.00000000000E+00 0.  1.
         11    1    1    2    0    0  0.68509585396E+02 -0.18775105725E+03 -0.24212684155E+03  0.31395768853E+03  0.00000000000E+00 0. -1.
        -15    1    3    3    0    0  0.25629772739E+02 -0.92352658426E+01  0.53428068914E+02  0.59999097182E+02  0.17770000000E+01 0.  1.
         15    1    3    3    0    0  0.24739954468E+02 -0.18193703148E+03  0.12910113454E+03  0.22446249005E+03  0.17770000000E+01 0. -1.
</event>
<event>
 7    1  0.2288857E-006  0.3573608E+03  0.7546771E-02  0.9791519E-01
        -11   -1    0    0    0    0  0.00000000000E+00  0.00000000000E+00  0.50000000000E+03  0.50000000000E+03  0.00000000000E+00 0.  1.
         11   -1    0    0    0    0 -0.00000000000E+00 -0.00000000000E+00 -0.50000000000E+03  0.50000000000E+03  0.00000000000E+00 0. -1.
         23    2    1    2    0    0 -0.37019760125E+02 -0.30594002820E+03 -0.81539982941E+02  0.33152503354E+03  0.91051169941E+02 0.  0.
        -11    1    1    2    0    0  0.50495982234E+02  0.25019323269E+03  0.32789859905E+03  0.41552856601E+03  0.00000000000E+00 0.  1.
         11    1    1    2    0    0 -0.13476222109E+02  0.55746795512E+02 -0.24635861611E+03  0.25294640046E+03  0.00000000000E+00 0. -1.
        -15    1    3    3    0    0  0.10908155632E+02 -0.36257550434E+02  0.15469743753E+02  0.40939815871E+02  0.17770000000E+01 0.  1.
         15    1    3    3    0    0 -0.47927915756E+02 -0.26968247777E+03 -0.97009726694E+02  0.29058521767E+03  0.17770000000E+01 0. -1.
</event>
<event>
 7    1  0.2288857E-006  0.5423455E+03  0.7546771E-02  0.9309745E-01
        -11   -1    0    0    0    0  0.00000000000E+00  0.00000000000E+00  0.50000000000E+03  0.50000000000E+03  0.00000000000E+00 0. -1.
         11   -1    0    0    0    0 -0.00000000000E+00 -0.00000000000E+00 -0.50000000000E+03  0.50000000000E+03  0.00000000000E+00 0.  1.
         23    2    1    2    0    0  0.12687551081E+03 -0.13348579596E+03 -0.20047436669E+03  0.28644714927E+03  0.89141150179E+02 0.  0.
        -11    1    1    2    0    0 -0.24330800376E+03  0.34478652698E+01  0.38760417067E+03  0.45765452646E+03  0.00000000000E+00 0. -1.
         11    1    1    2    0    0  0.11643249294E+03  0.13003793069E+03 -0.18712980397E+03  0.25589832428E+03  0.00000000000E+00 0.  1.
        -15    1    3    3    0    0  0.83738814581E+02 -0.12871162914E+03 -0.11959028256E+03  0.19463778142E+03  0.17770000000E+01 0.  1.
         15    1    3    3    0    0  0.43136696230E+02 -0.47741668245E+01 -0.80884084129E+02  0.91809367850E+02  0.17770000000E+01 0. -1.
</event>
<event>
 7    1  0.2288857E-006  0.4049309E+03  0.7546771E-02  0.9641943E-01
        -11   -1    0    0    0    0  0.00000000000E+00  0.00000000000E+00  0.50000000000E+03  0.50000000000E+03  0.00000000000E+00 0. -1.
         11   -1    0    0    0    0 -0.00000000000E+00 -0.00000000000E+00 -0.50000000000E+03  0.50000000000E+03  0.00000000000E+00 0.  1.
         23    2    1    2    0    0 -0.26827459020E+02  0.12198191713E+03 -0.75462371126E+02  0.17709651380E+03  0.10034592708E+03 0.  0.
        -11    1    1    2    0    0  0.91704875277E+02 -0.82589146561E+02  0.43668693913E+03  0.45379095858E+03  0.00000000000E+00 0. -1.
         11    1    1    2    0    0 -0.64877416257E+02 -0.39392770571E+02 -0.36122456801E+03  0.36911252762E+03  0.00000000000E+00 0.  1.
        -15    1    3    3    0    0 -0.64462399323E+02  0.62975429906E+02 -0.45048289437E+02  0.10076612431E+03  0.17770000000E+01 0. -1.
         15    1    3    3    0    0  0.37634940303E+02  0.59006487226E+02 -0.30414081690E+02  0.76330389495E+02  0.17770000000E+01 0.  1.
</event>
<event>
 7    1  0.2288857E-006  0.4396024E+03  0.7546771E-02  0.9546123E-01
        -11   -1    0    0    0    0  0.00000000000E+00  0.00000000000E+00  0.50000000000E+03  0.50000000000E+03  0.00000000000E+00 0.  1.
         11   -1    0    0    0    0 -0.00000000000E+00 -0.00000000000E+00 -0.50000000000E+03  0.50000000000E+03  0.00000000000E+00 0. -1.
         23    2    1    2    0    0 -0.29425021107E+01  0.38788414515E+01  0.45899154455E+03  0.46758144932E+03  0.89081255337E+02 0.  0.
        -11    1    1    2    0    0 -0.89287698215E+02  0.53460677537E+02 -0.62659458170E+02  0.12147651951E+03  0.00000000000E+00 0.  1.
         11    1    1    2    0    0  0.92230200326E+02 -0.57339518988E+02 -0.39633208637E+03  0.41094203117E+03  0.00000000000E+00 0. -1.
        -15    1    3    3    0    0  0.66647314106E+01 -0.41441276385E+02  0.18641400054E+03  0.19108933869E+03  0.17770000000E+01 0. -1.
         15    1    3    3    0    0 -0.96072335213E+01  0.45320117836E+02  0.27257754400E+03  0.27649211063E+03  0.17770000000E+01 0.  1.
</event>
<event>
 7    1  0.2288857E-006  0.5149380E+03  0.7546771E-02  0.9366991E-01
        -11   -1    0    0    0    0  0.00000000000E+00  0.00000000000E+00  0.50000000000E+03  0.50000000000E+03  0.00000000000E+00 0.  1.
         11   -1    0    0    0    0 -0.00000000000E+00 -0.00000000000E+00 -0.50000000000E+03  0.50000000000E+03  0.00000000000E+00 0. -1.
         23    2    1    2    0    0  0.12243277825E+03  0.13646038213E+02 -0.18256733025E+03  0.23854910149E+03  0.91645208279E+02 0.  0.
        -11    1    1    2    0    0 -0.16836219996E+03 -0.64859992816E+02  0.45025826483E+03  0.48506201056E+03  0.00000000000E+00 0.  1.
         11    1    1    2    0    0  0.45929421713E+02  0.51213954602E+02 -0.26769093458E+03  0.27638888795E+03  0.00000000000E+00 0. -1.
        -15    1    3    3    0    0  0.55945863115E+02  0.24644457550E+02 -0.15331259357E+03  0.16506119460E+03  0.17770000000E+01 0.  1.
         15    1    3    3    0    0  0.66486915132E+02 -0.10998419336E+02 -0.29254736676E+02  0.73487906887E+02  0.17770000000E+01 0. -1.
</event>
<event>
 7    1  0.2288857E-006  0.5193963E+03  0.7546771E-02  0.9357425E-01
        -11   -1    0    0    0    0  0.00000000000E+00  0.00000000000E+00  0.50000000000E+03  0.50000000000E+03  0.00000000000E+00 0.  1.
         11   -1    0    0    0    0 -0.00000000000E+00 -0.00000000000E+00 -0.50000000000E+03  0.50000000000E+03  0.00000000000E+00 0. -1.
         23    2    1    2    0    0  0.69795829843E+02 -0.14935669868E+02 -0.60384562913E+02  0.12976089558E+03  0.89983678991E+02 0.  0.
        -11    1    1    2    0    0 -0.32144049166E+03 -0.37708529107E+01  0.35726974246E+03  0.48060365988E+03  0.00000000000E+00 0.  1.
         11    1    1    2    0    0  0.25164466182E+03  0.18706522779E+02 -0.29688517955E+03  0.38963544455E+03  0.00000000000E+00 0. -1.
        -15    1    3    3    0    0  0.23448498821E+02 -0.49855615348E+02 -0.40466301608E+02  0.68381969652E+02  0.17770000000E+01 0. -1.
         15    1    3    3    0    0  0.46347331022E+02  0.34919945480E+02 -0.19918261305E+02  0.61378925924E+02  0.17770000000E+01 0.  1.
</event>
<event>
 7    1  0.2288857E-006  0.5288166E+03  0.7546771E-02  0.9337543E-01
        -11   -1    0    0    0    0  0.00000000000E+00  0.00000000000E+00  0.50000000000E+03  0.50000000000E+03  0.00000000000E+00 0.  1.
         11   -1    0    0    0    0 -0.00000000000E+00 -0.00000000000E+00 -0.50000000000E+03  0.50000000000E+03  0.00000000000E+00 0. -1.
         23    2    1    2    0    0 -0.36461335683E+01  0.39783002212E+02  0.11017250501E+03  0.14868968761E+03  0.91513172757E+02 0.  0.
        -11    1    1    2    0    0 -0.25995862914E+03  0.10293667858E+02  0.27714986591E+03  0.38012694806E+03  0.00000000000E+00 0.  1.
         11    1    1    2    0    0  0.26360476271E+03 -0.50076670070E+02 -0.38732237092E+03  0.47118336433E+03  0.00000000000E+00 0. -1.
        -15    1    3    3    0    0 -0.37036237578E+02  0.31948767144E+02  0.10237408557E+03  0.11347254179E+03  0.17770000000E+01 0.  1.
         15    1    3    3    0    0  0.33390104010E+02  0.78342350686E+01  0.77984194363E+01  0.35217145819E+02  0.17770000000E+01 0. -1.
</event>
<event>
 7    1  0.2288857E-006  0.3296480E+03  0.7546771E-02  0.9890673E-01
        -11   -1    0    0    0    0  0.00000000000E+00  0.00000000000E+00  0.50000000000E+03  0.50000000000E+03  0.00000000000E+00 0. -1.
         11   -1    0    0    0    0 -0.00000000000E+00 -0.00000000000E+00 -0.50000000000E+03  0.50000000000E+03  0.00000000000E+00 0. -1.
         23    2    1    2    0    0 -0.32523030743E+02 -0.15523746573E+03  0.23489650283E+03  0.29758072969E+03  0.90672517056E+02 0.  0.
        -11    1    1    2    0    0  0.25612823002E+02  0.23580170523E+03  0.16853238119E+03  0.29096670668E+03  0.00000000000E+00 0. -1.
         11    1    1    2    0    0  0.69102077413E+01 -0.80564239496E+02 -0.40342888401E+03  0.41145256362E+03  0.00000000000E+00 0. -1.
        -15    1    3    3    0    0 -0.21963560125E+01  0.12190866277E+02  0.17234591466E+02  0.21298593200E+02  0.17770000000E+01 0.  1.
         15    1    3    3    0    0 -0.30326674731E+02 -0.16742833201E+03  0.21766191136E+03  0.27628213649E+03  0.17770000000E+01 0. -1.
</event>
<event>
 7    1  0.2288857E-006  0.4054209E+03  0.7546771E-02  0.9640518E-01
        -11   -1    0    0    0    0  0.00000000000E+00  0.00000000000E+00  0.50000000000E+03  0.50000000000E+03  0.00000000000E+00 0. -1.
         11   -1    0    0    0    0 -0.00000000000E+00 -0.00000000000E+00 -0.50000000000E+03  0.50000000000E+03  0.00000000000E+00 0.  1.
         23    2    1    2    0    0  0.15941681094E+02 -0.44958169950E+03  0.12516330725E+01  0.46261367194E+03  0.10785175549E+03 0.  0.
        -11    1    1    2    0    0  0.10873911993E+03  0.33152533704E+03  0.62063157680E+02  0.35437985389E+03  0.00000000000E+00 0. -1.
         11    1    1    2    0    0 -0.12468080102E+03  0.11805636245E+03 -0.63314790752E+02  0.18300647417E+03  0.00000000000E+00 0.  1.
        -15    1    3    3    0    0 -0.14782230383E+02 -0.86598109730E+01 -0.11022003970E+02  0.20448690953E+02  0.17770000000E+01 0. -1.
         15    1    3    3    0    0  0.30723911476E+02 -0.44092188852E+03  0.12273637042E+02  0.44216498099E+03  0.17770000000E+01 0.  1.
</event>
<event>
 7    1  0.2288857E-006  0.4334762E+03  0.7546771E-02  0.9562353E-01
        -11   -1    0    0    0    0  0.00000000000E+00  0.00000000000E+00  0.50000000000E+03  0.50000000000E+03  0.00000000000E+00 0.  1.
         11   -1    0    0    0    0 -0.00000000000E+00 -0.00000000000E+00 -0.50000000000E+03  0.50000000000E+03  0.00000000000E+00 0. -1.
         23    2    1    2    0    0  0.50566467012E+02  0.67311709612E+02  0.21921604480E+02  0.12869356718E+03  0.94834823004E+02 0.  0.
        -11    1    1    2    0    0 -0.24884940062E+03  0.31331325353E+03  0.12255962631E+03  0.41846395427E+03  0.00000000000E+00 0.  1.
         11    1    1    2    0    0  0.19828293360E+03 -0.38062496314E+03 -0.14448123079E+03  0.45284247855E+03  0.00000000000E+00 0. -1.
        -15    1    3    3    0    0  0.38306907622E+02  0.90307245120E+02  0.64240491801E+01  0.98322143130E+02  0.17770000000E+01 0.  1.
         15    1    3    3    0    0  0.12259559390E+02 -0.22995535508E+02  0.15497555300E+02  0.30371424053E+02  0.17770000000E+01 0. -1.
</event>
<event>
 7    1  0.2288857E-006  0.5171463E+03  0.7546771E-02  0.9362240E-01
        -11   -1    0    0    0    0  0.00000000000E+00  0.00000000000E+00  0.50000000000E+03  0.50000000000E+03  0.00000000000E+00 0.  1.
         11   -1    0    0    0    0 -0.00000000000E+00 -0.00000000000E+00 -0.50000000000E+03  0.50000000000E+03  0.00000000000E+00 0. -1.
         23    2    1    2    0    0 -0.26043795315E+02 -0.28128549480E+02 -0.12027903492E+03  0.15629261025E+03  0.92145749800E+02 0.  0.
        -11    1    1    2    0    0  0.63126483640E+00  0.15043988413E+03  0.45881930463E+03  0.48285371649E+03  0.00000000000E+00 0.  1.
         11    1    1    2    0    0  0.25412530479E+02 -0.12231133465E+03 -0.33854026971E+03  0.36085367326E+03  0.00000000000E+00 0. -1.
        -15    1    3    3    0    0  0.30075015716E+01 -0.54872354384E+02 -0.93764126915E+02  0.10869631809E+03  0.17770000000E+01 0.  1.
         15    1    3    3    0    0 -0.29051296887E+02  0.26743804903E+02 -0.26514908004E+02  0.47596292156E+02  0.17770000000E+01 0. -1.
</event>
<event>
 7    1  0.2288857E-006  0.5256571E+03  0.7546771E-02  0.9344162E-01
        -11   -1    0    0    0    0  0.00000000000E+00  0.00000000000E+00  0.50000000000E+03  0.50000000000E+03  0.00000000000E+00 0. -1.
         11   -1    0    0    0    0 -0.00000000000E+00 -0.00000000000E+00 -0.50000000000E+03  0.50000000000E+03  0.00000000000E+00 0.  1.
         23    2    1    2    0    0  0.86236145850E+00 -0.46173844613E+02  0.24055070197E+03  0.26168432032E+03  0.92093841768E+02 0.  0.
        -11    1    1    2    0    0 -0.44904210805E+02  0.13265659661E+03  0.22375762536E+03  0.26397279345E+03  0.00000000000E+00 0. -1.
         11    1    1    2    0    0  0.44041849347E+02 -0.86482752000E+02 -0.46430832733E+03  0.47434288623E+03  0.00000000000E+00 0.  1.
        -15    1    3    3    0    0 -0.33183945121E+02 -0.44893184342E+02  0.80128655045E+02  0.97674619541E+02  0.17770000000E+01 0. -1.
         15    1    3    3    0    0  0.34046306579E+02 -0.12806602714E+01  0.16042204692E+03  0.16400970078E+03  0.17770000000E+01 0.  1.
</event>
<event>
 7    1  0.2288857E-006  0.5209225E+03  0.7546771E-02  0.9354174E-01
        -11   -1    0    0    0    0  0.00000000000E+00  0.00000000000E+00  0.50000000000E+03  0.50000000000E+03  0.00000000000E+00 0. -1.
         11   -1    0    0    0    0 -0.00000000000E+00 -0.00000000000E+00 -0.50000000000E+03  0.50000000000E+03  0.00000000000E+00 0.  1.
         23    2    1    2    0    0 -0.38956993171E+02  0.67998218301E+02  0.20960619752E+03  0.24169401198E+03  0.91322682721E+02 0.  0.
        -11    1    1    2    0    0  0.12098041505E+03  0.81519406657E+02  0.23809002821E+03  0.27922846564E+03  0.00000000000E+00 0. -1.
         11    1    1    2    0    0 -0.82023421882E+02 -0.14951762496E+03 -0.44769622574E+03  0.47907752238E+03  0.00000000000E+00 0.  1.
        -15    1    3    3    0    0 -0.66962902293E+02  0.59314649693E+02  0.14007017430E+03  0.16620791019E+03  0.17770000000E+01 0.  1.
         15    1    3    3    0    0  0.28005909122E+02  0.86835686083E+01  0.69536023222E+02  0.75486101794E+02  0.17770000000E+01 0. -1.
</event>
<event>
 7    1  0.2288857E-006  0.4117735E+03  0.7546771E-02  0.9622239E-01
        -11   -1    0    0    0    0  0.00000000000E+00  0.00000000000E+00  0.50000000000E+03  0.50000000000E+03  0.00000000000E+00 0. -1.
         11   -1    0    0    0    0 -0.00000000000E+00 -0.00000000000E+00 -0.50000000000E+03  0.50000000000E+03  0.00000000000E+00 0.  1.
         23    2    1    2    0    0  0.97976139613E+02 -0.19085256373E+03  0.30732199768E+03  0.38292520385E+03  0.78491250936E+02 0.  0.
        -11    1    1    2    0    0  0.24503045577E+01  0.11178572056E+03  0.12414439464E+03  0.16707448050E+03  0.00000000000E+00 0. -1.
         11    1    1    2    0    0 -0.10042644417E+03  0.79066843172E+02 -0.43146639232E+03  0.45000031564E+03  0.00000000000E+00 0.  1.
        -15    1    3    3    0    0  0.10881812219E+03 -0.14925359117E+03  0.23697043645E+03  0.30045992025E+03  0.17770000000E+01 0. -1.
         15    1    3    3    0    0 -0.10841982577E+02 -0.41598972557E+02  0.70351561223E+02  0.82465283602E+02  0.17770000000E+01 0.  1.
</event>
<event>
 7    1  0.2288857E-006  0.4707872E+03  0.7546771E-02  0.9467658E-01
        -11   -1    0    0    0    0  0.00000000000E+00  0.00000000000E+00  0.50000000000E+03  0.50000000000E+03  0.00000000000E+00 0. -1.
         11   -1    0    0    0    0 -0.00000000000E+00 -0.00000000000E+00 -0.50000000000E+03  0.50000000000E+03  0.00000000000E+00 0.  1.
         23    2    1    2    0    0 -0.10799050274E+03  0.45827016304E+02 -0.43876600036E+03  0.45978675411E+03  0.71597430617E+02 0.  0.
        -11    1    1    2    0    0  0.81801917858E+02 -0.19924176268E+00  0.47130700102E+03  0.47835330319E+03  0.00000000000E+00 0. -1.
         11    1    1    2    0    0  0.26188584878E+02 -0.45627774541E+02 -0.32541000657E+02  0.61859942703E+02  0.00000000000E+00 0.  1.
        -15    1    3    3    0    0 -0.75370278017E+02  0.60811986392E+02 -0.26029403735E+03  0.27773174127E+03  0.17770000000E+01 0.  1.
         15    1    3    3    0    0 -0.32620224718E+02 -0.14984970088E+02 -0.17847196301E+03  0.18205501284E+03  0.17770000000E+01 0. -1.
</event>
<event>
 7    1  0.2288857E-006  0.4652978E+03  0.7546771E-02  0.9480992E-01
        -11   -1    0    0    0    0  0.00000000000E+00  0.00000000000E+00  0.50000000000E+03  0.50000000000E+03  0.00000000000E+00 0.  1.
         11   -1    0    0    0    0 -0.00000000000E+00 -0.00000000000E+00 -0.50000000000E+03  0.50000000000E+03  0.00000000000E+00 0.  1.
         23    2    1    2    0    0  0.60465536745E-02  0.22338580782E+02  0.44083478985E+03  0.45583254637E+03  0.11379361212E+03 0.  0.
        -11    1    1    2    0    0  0.78327000944E+02  0.46143661305E+01  0.15835071713E+02  0.80044743412E+02  0.00000000000E+00 0.  1.
         11    1    1    2    0    0 -0.78333047498E+02 -0.26952946913E+02 -0.45666986157E+03  0.46412271022E+03  0.00000000000E+00 0.  1.
        -15    1    3    3    0    0 -0.40923419109E+02  0.51407872997E+02  0.25042741310E+03  0.25891029837E+03  0.17770000000E+01 0.  1.
         15    1    3    3    0    0  0.40929465663E+02 -0.29069292215E+02  0.19040737675E+03  0.19692224800E+03  0.17770000000E+01 0. -1.
</event>
<event>
 7    1  0.2288857E-006  0.5090712E+03  0.7546771E-02  0.9379738E-01
        -11   -1    0    0    0    0  0.00000000000E+00  0.00000000000E+00  0.50000000000E+03  0.50000000000E+03  0.00000000000E+00 0.  1.
         11   -1    0    0    0    0 -0.00000000000E+00 -0.00000000000E+00 -0.50000000000E+03  0.50000000000E+03  0.00000000000E+00 0. -1.
         23    2    1    2    0    0  0.15028069114E+02  0.89227820522E+02 -0.27091048013E+03  0.30039723192E+03  0.93051393764E+02 0.  0.
        -11    1    1    2    0    0  0.19287450725E+02 -0.13531469790E+03  0.47151775454E+03  0.49092877902E+03  0.00000000000E+00 0.  1.
         11    1    1    2    0    0 -0.34315519839E+02  0.46086877381E+02 -0.20060727440E+03  0.20867398906E+03  0.00000000000E+00 0. -1.
        -15    1    3    3    0    0 -0.20449703723E+02 -0.10925781911E+02 -0.56476263425E+02  0.61076093131E+02  0.17770000000E+01 0.  1.
         15    1    3    3    0    0  0.35477772838E+02  0.10015360243E+03 -0.21443421671E+03  0.23932113879E+03  0.17770000000E+01 0. -1.
</event>
<event>
 7    1  0.2288857E-006  0.4350912E+03  0.7546771E-02  0.9558047E-01
        -11   -1    0    0    0    0  0.00000000000E+00  0.00000000000E+00  0.50000000000E+03  0.50000000000E+03  0.00000000000E+00 0. -1.
         11   -1    0    0    0    0 -0.00000000000E+00 -0.00000000000E+00 -0.50000000000E+03  0.50000000000E+03  0.00000000000E+00 0. -1.
         23    2    1    2    0    0  0.19453236066E+03  0.15073929917E+02  0.36198642383E+03  0.42091850584E+03  0.89822908078E+02 0.  0.
        -11    1    1    2    0    0 -0.99702544300E+02 -0.29393559949E+02  0.77243336516E+02  0.12950332715E+03  0.00000000000E+00 0. -1.
         11    1    1    2    0    0 -0.94829816363E+02  0.14319630032E+02 -0.43922976035E+03  0.44957816701E+03  0.00000000000E+00 0. -1.
        -15    1    3    3    0    0  0.13700803359E+02 -0.22384884826E+02  0.76586824939E+02  0.80978358619E+02  0.17770000000E+01 0.  1.
         15    1    3    3    0    0  0.18083155730E+03  0.37458814742E+02  0.28539959889E+03  0.33994014722E+03  0.17770000000E+01 0. -1.
</event>
<event>
 7    1  0.2288857E-006  0.4662471E+03  0.7546771E-02  0.9478672E-01
        -11   -1    0    0    0    0  0.00000000000E+00  0.00000000000E+00  0.50000000000E+03  0.50000000000E+03  0.00000000000E+00 0. -1.
         11   -1    0    0    0    0 -0.00000000000E+00 -0.00000000000E+00 -0.50000000000E+03  0.50000000000E+03  0.00000000000E+00 0. -1.
         23    2    1    2    0    0 -0.60631503194E+02  0.14850881830E+03  0.39894908902E+03  0.44198197115E+03  0.10225770825E+03 0.  0.
        -11    1    1    2    0    0 -0.28738756031E+02 -0.34445418042E+02  0.61036213499E+02  0.75748414376E+02  0.00000000000E+00 0. -1.
         11    1    1    2    0    0  0.89370259225E+02 -0.11406340025E+03 -0.45998530252E+03  0.48226961448E+03  0.00000000000E+00 0. -1.
        -15    1    3    3    0    0 -0.67590321630E+02  0.57746656207E+02  0.26897939754E+03  0.28329525572E+03  0.17770000000E+01 0. -1.
         15    1    3    3    0    0  0.69588184368E+01  0.90762162089E+02  0.12996969148E+03  0.15868671543E+03  0.17770000000E+01 0.  1.
</event>
<event>
 7    1  0.2288857E-006  0.3319241E+03  0.7546771E-02  0.9882141E-01
        -11   -1    0    0    0    0  0.00000000000E+00  0.00000000000E+00  0.50000000000E+03  0.50000000000E+03  0.00000000000E+00 0.  1.
         11   -1    0    0    0    0 -0.00000000000E+00 -0.00000000000E+00 -0.50000000000E+03  0.50000000000E+03  0.00000000000E+00 0.  1.
         23    2    1    2    0    0  0.17531927612E+03 -0.11670358515E+03  0.17294211717E+03  0.28239295780E+03  0.74028584731E+02 0.  0.
        -11    1    1    2    0    0 -0.29238806443E+03  0.57961132003E+02  0.17512220861E+03  0.34571384264E+03  0.00000000000E+00 0.  1.
         11    1    1    2    0    0  0.11706878832E+03  0.58742453151E+02 -0.34806432578E+03  0.37189319956E+03  0.00000000000E+00 0.  1.
        -15    1    3    3    0    0  0.14626605753E+03 -0.12473814539E+03  0.14077276489E+03  0.23827189000E+03  0.17770000000E+01 0. -1.
         15    1    3    3    0    0  0.29053218588E+02  0.80345602387E+01  0.32169352274E+02  0.44121067794E+02  0.17770000000E+01 0.  1.
</event>
<event>
 7    1  0.2288857E-006  0.3804182E+03  0.7546771E-02  0.9716097E-01
        -11   -1    0    0    0    0  0.00000000000E+00  0.00000000000E+00  0.50000000000E+03  0.50000000000E+03  0.00000000000E+00 0.  1.
         11   -1    0    0    0    0 -0.00000000000E+00 -0.00000000000E+00 -0.50000000000E+03  0.50000000000E+03  0.00000000000E+00 0.  1.
         23    2    1    2    0    0  0.12614389894E+03 -0.81809486866E+02  0.30758521957E+03  0.35442542636E+03  0.91671370541E+02 0.  0.
        -11    1    1    2    0    0 -0.19268890626E+03 -0.96217643213E+01  0.10369560173E+03  0.21903052473E+03  0.00000000000E+00 0.  1.
         11    1    1    2    0    0  0.66545007322E+02  0.91431251187E+02 -0.41128082130E+03  0.42654404891E+03  0.00000000000E+00 0.  1.
        -15    1    3    3    0    0 -0.13745222596E+02  0.10232338340E+00  0.20916404983E+02  0.25091738495E+02  0.17770000000E+01 0. -1.
         15    1    3    3    0    0  0.13988912153E+03 -0.81911810249E+02  0.28666881458E+03  0.32933368787E+03  0.17770000000E+01 0.  1.
</event>
<event>
 7    1  0.2288857E-006  0.5171739E+03  0.7546771E-02  0.9362181E-01
        -11   -1    0    0    0    0  0.00000000000E+00  0.00000000000E+00  0.50000000000E+03  0.50000000000E+03  0.00000000000E+00 0.  1.
         11   -1    0    0    0    0 -0.00000000000E+00 -0.00000000000E+00 -0.50000000000E+03  0.50000000000E+03  0.00000000000E+00 0.  1.
         23    2    1    2    0    0 -0.49545174597E+02  0.15173961409E+03  0.44631791114E+03  0.48282611804E+03  0.91878983703E+02 0.  0.
        -11    1    1    2    0    0 -0.70239951602E+02 -0.46050792440E+01 -0.14337778284E+03  0.15972490779E+03  0.00000000000E+00 0.  1.
         11    1    1    2    0    0  0.11978512620E+03 -0.14713453484E+03 -0.30294012830E+03  0.35744897417E+03  0.00000000000E+00 0.  1.
        -15    1    3    3    0    0 -0.81496887703E+01  0.57390726366E+02  0.61840565169E+02  0.84779278891E+02  0.17770000000E+01 0. -1.
         15    1    3    3    0    0 -0.41395485827E+02  0.94348887721E+02  0.38447734597E+03  0.39804683915E+03  0.17770000000E+01 0.  1.
</event>
<event>
 7    1  0.2288857E-006  0.5290459E+03  0.7546771E-02  0.9337064E-01
        -11   -1    0    0    0    0  0.00000000000E+00  0.00000000000E+00  0.50000000000E+03  0.50000000000E+03  0.00000000000E+00 0. -1.
         11   -1    0    0    0    0 -0.00000000000E+00 -0.00000000000E+00 -0.50000000000E+03  0.50000000000E+03  0.00000000000E+00 0.  1.
         23    2    1    2    0    0 -0.18070830187E+03  0.32276423256E+02 -0.19221236185E+03  0.27273815786E+03  0.61182128451E+02 0.  0.
        -11    1    1    2    0    0  0.14630247015E+03 -0.11127110017E+03  0.43360361576E+03  0.47095410191E+03  0.00000000000E+00 0. -1.
         11    1    1    2    0    0  0.34405831717E+02  0.78994676910E+02 -0.24139125392E+03  0.25630774023E+03  0.00000000000E+00 0.  1.
        -15    1    3    3    0    0 -0.35367443541E+02  0.15748372486E+02 -0.11889678525E+02  0.40538740521E+02  0.17770000000E+01 0. -1.
         15    1    3    3    0    0 -0.14534085833E+03  0.16528050770E+02 -0.18032268332E+03  0.23219941734E+03  0.17770000000E+01 0.  1.
</event>
<event>
 7    1  0.2288857E-006  0.5427241E+03  0.7546771E-02  0.9308979E-01
        -11   -1    0    0    0    0  0.00000000000E+00  0.00000000000E+00  0.50000000000E+03  0.50000000000E+03  0.00000000000E+00 0. -1.
         11   -1    0    0    0    0 -0.00000000000E+00 -0.00000000000E+00 -0.50000000000E+03  0.50000000000E+03  0.00000000000E+00 0.  1.
         23    2    1    2    0    0 -0.33079947030E+02  0.26514231893E+02  0.21816827693E+03  0.24102965243E+03  0.93277054538E+02 0.  0.
        -11    1    1    2    0    0  0.21918960825E+03 -0.61143141655E+02  0.19808321097E+03  0.30169442587E+03  0.00000000000E+00 0. -1.
         11    1    1    2    0    0 -0.18610966122E+03  0.34628909762E+02 -0.41625148790E+03  0.45727592170E+03  0.00000000000E+00 0.  1.
        -15    1    3    3    0    0 -0.28423265084E+02 -0.12194499429E+02  0.15506087910E+02  0.34643676272E+02  0.17770000000E+01 0.  1.
         15    1    3    3    0    0 -0.46566819467E+01  0.38708731322E+02  0.20266218902E+03  0.20638597616E+03  0.17770000000E+01 0. -1.
</event>
<event>
 7    1  0.2288857E-006  0.5183228E+03  0.7546771E-02  0.9359719E-01
        -11   -1    0    0    0    0  0.00000000000E+00  0.00000000000E+00  0.50000000000E+03  0.50000000000E+03  0.00000000000E+00 0.  1.
         11   -1    0    0    0    0 -0.00000000000E+00 -0.00000000000E+00 -0.50000000000E+03  0.50000000000E+03  0.00000000000E+00 0. -1.
         23    2    1    2    0    0 -0.17292884639E+03 -0.51697725459E+02 -0.19684606947E+03  0.28156728834E+03  0.89189248589E+02 0.  0.
        -11    1    1    2    0    0  0.19930076075E+03  0.94655944083E+02  0.42817330319E+03  0.48167719330E+03  0.00000000000E+00 0.  1.
         11    1    1    2    0    0 -0.26371914357E+02 -0.42958218625E+02 -0.23132723372E+03  0.23675551836E+03  0.00000000000E+00 0. -1.
        -15    1    3    3    0    0 -0.46099498886E+02  0.14411072093E+02 -0.15827699544E+02  0.50857807643E+02  0.17770000000E+01 0. -1.
         15    1    3    3    0    0 -0.12682934751E+03 -0.66108797552E+02 -0.18101836993E+03  0.23070948070E+03  0.17770000000E+01 0.  1.
</event>
<event>
 7    1  0.2288857E-006  0.4751718E+03  0.7546771E-02  0.9457145E-01
        -11   -1    0    0    0    0  0.00000000000E+00  0.00000000000E+00  0.50000000000E+03  0.50000000000E+03  0.00000000000E+00 0.  1.
         11   -1    0    0    0    0 -0.00000000000E+00 -0.00000000000E+00 -0.50000000000E+03  0.50000000000E+03  0.00000000000E+00 0. -1.
         23    2    1    2    0    0 -0.62792753534E+02  0.37050445404E+02  0.43441851233E+03  0.44977148379E+03  0.90880572042E+02 0.  0.
        -11    1    1    2    0    0 -0.44126498601E+00  0.24556569578E+02  0.51128059287E+02  0.56721232979E+02  0.00000000000E+00 0.  1.
         11    1    1    2    0    0  0.63234018520E+02 -0.61607014981E+02 -0.48554657162E+03  0.49350728323E+03  0.00000000000E+00 0. -1.
        -15    1    3    3    0    0 -0.37204004595E+02 -0.25373560751E+02  0.23384178182E+03  0.23814510744E+03  0.17770000000E+01 0.  1.
         15    1    3    3    0    0 -0.25588748939E+02  0.62424006155E+02  0.20057673051E+03  0.21162637635E+03  0.17770000000E+01 0. -1.
</event>
<event>
 7    1  0.2288857E-006  0.3700602E+03  0.7546771E-02  0.9749250E-01
        -11   -1    0    0    0    0  0.00000000000E+00  0.00000000000E+00  0.50000000000E+03  0.50000000000E+03  0.00000000000E+00 0.  1.
         11   -1    0    0    0    0 -0.00000000000E+00 -0.00000000000E+00 -0.50000000000E+03  0.50000000000E+03  0.00000000000E+00 0. -1.
         23    2    1    2    0    0  0.10716698634E+03 -0.31753470980E+02 -0.17997344089E+03  0.23015472518E+03  0.89931708642E+02 0.  0.
        -11    1    1    2    0    0  0.10584771829E+03  0.14380299749E+03  0.40358114116E+03  0.44131709581E+03  0.00000000000E+00 0.  1.
         11    1    1    2    0    0 -0.21301470462E+03 -0.11204952651E+03 -0.22360770028E+03  0.32852817901E+03  0.00000000000E+00 0. -1.
        -15    1    3    3    0    0  0.11316691517E+03 -0.47074898816E+02 -0.13558815267E+03  0.18278430365E+03  0.17770000000E+01 0. -1.
         15    1    3    3    0    0 -0.59999288346E+01  0.15321427836E+02 -0.44385288213E+02  0.47370421527E+02  0.17770000000E+01 0.  1.
</event>
<event>
 6    1  0.2288857E-006  0.5267246E+03  0.7546771E-02  0.9341920E-01
        -11   -1    0    0    0    0  0.00000000000E+00  0.00000000000E+00  0.50000000000E+03  0.50000000000E+03  0.00000000000E+00 0. -1.
         11   -1    0    0    0    0 -0.00000000000E+00 -0.00000000000E+00 -0.50000000000E+03  0.50000000000E+03  0.00000000000E+00 0.  1.
        -11    1    1    2    0    0 -0.15233127749E+03  0.30278812200E+02  0.18326149386E+03  0.24022156377E+03  0.00000000000E+00 0. -1.
         11    1    1    2    0    0  0.98644292168E+02 -0.36179087302E+02 -0.46146500193E+03  0.47327536460E+03  0.00000000000E+00 0.  1.
        -15    1    1    2    0    0  0.43073991243E+02 -0.13537291066E+02  0.16143021031E+03  0.16763501275E+03  0.17770000000E+01 0.  1.
         15    1    1    2    0    0  0.10612994077E+02  0.19437566169E+02  0.11677329776E+03  0.11886805888E+03  0.17770000000E+01 0. -1.
</event>
<event>
 7    1  0.2288857E-006  0.5139468E+03  0.7546771E-02  0.9369132E-01
        -11   -1    0    0    0    0  0.00000000000E+00  0.00000000000E+00  0.50000000000E+03  0.50000000000E+03  0.00000000000E+00 0.  1.
         11   -1    0    0    0    0 -0.00000000000E+00 -0.00000000000E+00 -0.50000000000E+03  0.50000000000E+03  0.00000000000E+00 0. -1.
         23    2    1    2    0    0 -0.57466719195E+02  0.61283572368E+02  0.29197445388E+03  0.31761470265E+03  0.92584650777E+02 0.  0.
        -11    1    1    2    0    0 -0.80774375582E+02 -0.43197647943E+02  0.17365414775E+03  0.19633211548E+03  0.00000000000E+00 0.  1.
         11    1    1    2    0    0  0.13824109478E+03 -0.18085924425E+02 -0.46562860163E+03  0.48605318187E+03  0.00000000000E+00 0. -1.
        -15    1    3    3    0    0 -0.16062132109E+02  0.51487871289E+02  0.25672025085E+03  0.26233077956E+03  0.17770000000E+01 0.  1.
         15    1    3    3    0    0 -0.41404587086E+02  0.97957010797E+01  0.35254203028E+02  0.55283923084E+02  0.17770000000E+01 0. -1.
</event>
<event>
 7    1  0.2288857E-006  0.5245703E+03  0.7546771E-02  0.9346450E-01
        -11   -1    0    0    0    0  0.00000000000E+00  0.00000000000E+00  0.50000000000E+03  0.50000000000E+03  0.00000000000E+00 0.  1.
         11   -1    0    0    0    0 -0.00000000000E+00 -0.00000000000E+00 -0.50000000000E+03  0.50000000000E+03  0.00000000000E+00 0. -1.
         23    2    1    2    0    0  0.17098743838E+02 -0.30121061606E+02 -0.26506152960E+03  0.28296725741E+03  0.92807375238E+02 0.  0.
        -11    1    1    2    0    0 -0.16752870242E+03 -0.31413241119E+02  0.44382508098E+03  0.47542965869E+03  0.00000000000E+00 0.  1.
         11    1    1    2    0    0  0.15042995858E+03  0.61534302725E+02 -0.17876355138E+03  0.24160308391E+03  0.00000000000E+00 0. -1.
        -15    1    3    3    0    0 -0.26725554234E+02  0.18813637903E+02 -0.73845532147E+02  0.80774553960E+02  0.17770000000E+01 0.  1.
         15    1    3    3    0    0  0.43824298072E+02 -0.48934699508E+02 -0.19121599745E+03  0.20219270345E+03  0.17770000000E+01 0. -1.
</event>
<event>
 7    1  0.2288857E-006  0.5093311E+03  0.7546771E-02  0.9379169E-01
        -11   -1    0    0    0    0  0.00000000000E+00  0.00000000000E+00  0.50000000000E+03  0.50000000000E+03  0.00000000000E+00 0.  1.
         11   -1    0    0    0    0 -0.00000000000E+00 -0.00000000000E+00 -0.50000000000E+03  0.50000000000E+03  0.00000000000E+00 0. -1.
         23    2    1    2    0    0  0.92179615842E+02 -0.78847018053E+02  0.37642490683E+03  0.40580344413E+03  0.90921894785E+02 0.  0.
        -11    1    1    2    0    0  0.24034539257E+02  0.25841869367E+02  0.97326828415E+02  0.10352764278E+03  0.00000000000E+00 0.  1.
         11    1    1    2    0    0 -0.11621415510E+03  0.53005148685E+02 -0.47375173524E+03  0.49066891310E+03  0.00000000000E+00 0. -1.
        -15    1    3    3    0    0 -0.10329566409E+02  0.76166214903E+01  0.12712304582E+02  0.18151398897E+02  0.17770000000E+01 0. -1.
         15    1    3    3    0    0  0.10250918225E+03 -0.86463639543E+02  0.36371260225E+03  0.38765204523E+03  0.17770000000E+01 0.  1.
</event>
<event>
 7    1  0.2288857E-006  0.4007778E+03  0.7546771E-02  0.9654106E-01
        -11   -1    0    0    0    0  0.00000000000E+00  0.00000000000E+00  0.50000000000E+03  0.50000000000E+03  0.00000000000E+00 0. -1.
         11   -1    0    0    0    0 -0.00000000000E+00 -0.00000000000E+00 -0.50000000000E+03  0.50000000000E+03  0.00000000000E+00 0.  1.
         23    2    1    2    0    0  0.14179111512E+02 -0.28373864902E+03  0.29187303194E+03  0.41779477125E+03  0.93026533593E+02 0.  0.
        -11    1    1    2    0    0 -0.42873635077E+02  0.16266587060E+03  0.82740530633E+02  0.18746820918E+03  0.00000000000E+00 0. -1.
         11    1    1    2    0    0  0.28694523565E+02  0.12107277842E+03 -0.37461356258E+03  0.39473701958E+03  0.00000000000E+00 0.  1.
        -15    1    3    3    0    0 -0.19025145026E+02 -0.16107926301E+03  0.21478871064E+03  0.26915763608E+03  0.17770000000E+01 0. -1.
         15    1    3    3    0    0  0.33204256539E+02 -0.12265938602E+03  0.77084321306E+02  0.14863713517E+03  0.17770000000E+01 0.  1.
</event>
<event>
 7    1  0.2288857E-006  0.5238655E+03  0.7546771E-02  0.9347937E-01
        -11   -1    0    0    0    0  0.00000000000E+00  0.00000000000E+00  0.50000000000E+03  0.50000000000E+03  0.00000000000E+00 0.  1.
         11   -1    0    0    0    0 -0.00000000000E+00 -0.00000000000E+00 -0.50000000000E+03  0.50000000000E+03  0.00000000000E+00 0.  1.
         23    2    1    2    0    0 -0.50067197842E+02  0.34576561155E+02 -0.19403632787E+03  0.21091905249E+03  0.55986492029E+02 0.  0.
        -11    1    1    2    0    0 -0.13407715776E+02  0.11386645627E+03  0.46212415132E+03  0.47613450614E+03  0.00000000000E+00 0.  1.
         11    1    1    2    0    0  0.63474913618E+02 -0.14844301742E+03 -0.26808782345E+03  0.31294644137E+03  0.00000000000E+00 0.  1.
        -15    1    3    3    0    0 -0.44101872248E+02  0.49275183167E+02 -0.14568184636E+03  0.15999805280E+03  0.17770000000E+01 0.  1.
         15    1    3    3    0    0 -0.59653255939E+01 -0.14698622012E+02 -0.48354481509E+02  0.50920999691E+02  0.17770000000E+01 0. -1.
</event>
<event>
 7    1  0.2288857E-006  0.3349500E+03  0.7546771E-02  0.9870911E-01
        -11   -1    0    0    0    0  0.00000000000E+00  0.00000000000E+00  0.50000000000E+03  0.50000000000E+03  0.00000000000E+00 0.  1.
         11   -1    0    0    0    0 -0.00000000000E+00 -0.00000000000E+00 -0.50000000000E+03  0.50000000000E+03  0.00000000000E+00 0. -1.
         23    2    1    2    0    0  0.37914307660E+03 -0.94874264502E+02  0.56541544622E+02  0.41161758824E+03  0.11610983627E+03 0.  0.
        -11    1    1    2    0    0 -0.24387000900E+03 -0.19978443270E+02  0.17195954760E+03  0.29906822883E+03  0.00000000000E+00 0.  1.
         11    1    1    2    0    0 -0.13527306760E+03  0.11485270777E+03 -0.22850109222E+03  0.28931418293E+03  0.00000000000E+00 0. -1.
        -15    1    3    3    0    0  0.32997205384E+03 -0.10607192952E+03  0.80386624013E+02  0.35580609550E+03  0.17770000000E+01 0.  1.
         15    1    3    3    0    0  0.49171022759E+02  0.11197665015E+02 -0.23845079391E+02  0.55811492734E+02  0.17770000000E+01 0. -1.
</event>
<event>
 7    1  0.2288857E-006  0.4037242E+03  0.7546771E-02  0.9645460E-01
        -11   -1    0    0    0    0  0.00000000000E+00  0.00000000000E+00  0.50000000000E+03  0.50000000000E+03  0.00000000000E+00 0.  1.
         11   -1    0    0    0    0 -0.00000000000E+00 -0.00000000000E+00 -0.50000000000E+03  0.50000000000E+03  0.00000000000E+00 0. -1.
         23    2    1    2    0    0  0.14922140834E+03  0.26011149608E+02  0.30538029772E+02  0.17789954407E+03  0.88159332503E+02 0.  0.
        -11    1    1    2    0    0 -0.70533861591E+02 -0.67525972039E+02  0.38497700790E+03  0.39716757061E+03  0.00000000000E+00 0.  1.
         11    1    1    2    0    0 -0.78687546750E+02  0.41514822430E+02 -0.41551503767E+03  0.42493288532E+03  0.00000000000E+00 0. -1.
        -15    1    3    3    0    0  0.61353440538E+02 -0.30959152396E+02 -0.20446338420E+00  0.68745278508E+02  0.17770000000E+01 0.  1.
         15    1    3    3    0    0  0.87867967803E+02  0.56970302004E+02  0.30742493156E+02  0.10915426556E+03  0.17770000000E+01 0. -1.
</event>
<event>
 7    1  0.2288857E-006  0.5093667E+03  0.7546771E-02  0.9379091E-01
        -11   -1    0    0    0    0  0.00000000000E+00  0.00000000000E+00  0.50000000000E+03  0.50000000000E+03  0.00000000000E+00 0.  1.
         11   -1    0    0    0    0 -0.00000000000E+00 -0.00000000000E+00 -0.50000000000E+03  0.50000000000E+03  0.00000000000E+00 0. -1.
         23    2    1    2    0    0 -0.71205941344E+02 -0.65913105559E+01  0.27836622457E+03  0.30108282110E+03  0.89718329894E+02 0.  0.
        -11    1    1    2    0    0 -0.36701498272E+02  0.53337612251E+02  0.19796535992E+03  0.20828390381E+03  0.00000000000E+00 0.  1.
         11    1    1    2    0    0  0.10790743962E+03 -0.46746301695E+02 -0.47633158449E+03  0.49063327510E+03  0.00000000000E+00 0. -1.
        -15    1    3    3    0    0 -0.96273670319E+01  0.26237853822E+02  0.22673741077E+02  0.36032866006E+02  0.17770000000E+01 0. -1.
         15    1    3    3    0    0 -0.61578574312E+02 -0.32829164378E+02  0.25569248350E+03  0.26504995509E+03  0.17770000000E+01 0.  1.
</event>
<event>
 7    1  0.2288857E-006  0.5256715E+03  0.7546771E-02  0.9344132E-01
        -11   -1    0    0    0    0  0.00000000000E+00  0.00000000000E+00  0.50000000000E+03  0.50000000000E+03  0.00000000000E+00 0.  1.
         11   -1    0    0    0    0 -0.00000000000E+00 -0.00000000000E+00 -0.50000000000E+03  0.50000000000E+03  0.00000000000E+00 0. -1.
         23    2    1    2    0    0 -0.81850560142E+02  0.74227033343E+02 -0.95029024673E+02  0.17172896882E+03  0.90835876865E+02 0.  0.
        -11    1    1    2    0    0  0.10203442954E+03 -0.13488721581E+03  0.44315005063E+03  0.47432852874E+03  0.00000000000E+00 0.  1.
         11    1    1    2    0    0 -0.20183869399E+02  0.60660182467E+02 -0.34812102596E+03  0.35394250244E+03  0.00000000000E+00 0. -1.
        -15    1    3    3    0    0  0.14865026766E+02  0.93268764821E+00  0.35028889408E+01  0.15403469964E+02  0.17770000000E+01 0.  1.
         15    1    3    3    0    0 -0.96715586908E+02  0.73294345695E+02 -0.98531913614E+02  0.15632549885E+03  0.17770000000E+01 0. -1.
</event>
<event>
 7    1  0.2288857E-006  0.4581073E+03  0.7546771E-02  0.9498758E-01
        -11   -1    0    0    0    0  0.00000000000E+00  0.00000000000E+00  0.50000000000E+03  0.50000000000E+03  0.00000000000E+00 0. -1.
         11   -1    0    0    0    0 -0.00000000000E+00 -0.00000000000E+00 -0.50000000000E+03  0.50000000000E+03  0.00000000000E+00 0. -1.
         23    2    1    2    0    0  0.75178786330E+01  0.75681784962E+02  0.46201821115E+03  0.47648788214E+03  0.88292827095E+02 0.  0.
        -11    1    1    2    0    0  0.68338170840E+02 -0.43641825486E+02 -0.34471579108E+02  0.88107912764E+02  0.00000000000E+00 0. -1.
         11    1    1    2    0    0 -0.75856049473E+02 -0.32039959477E+02 -0.42754663204E+03  0.43540420510E+03  0.00000000000E+00 0. -1.
        -15    1    3    3    0    0 -0.18594614304E+02 -0.13516997393E+02  0.75127525879E+02  0.78586078750E+02  0.17770000000E+01 0.  1.
         15    1    3    3    0    0  0.26112492937E+02  0.89198782356E+02  0.38689068527E+03  0.39790180339E+03  0.17770000000E+01 0. -1.
</event>
<event>
 7    1  0.2288857E-006  0.3498595E+03  0.7546771E-02  0.9817381E-01
        -11   -1    0    0    0    0  0.00000000000E+00  0.00000000000E+00  0.50000000000E+03  0.50000000000E+03  0.00000000000E+00 0. -1.
         11   -1    0    0    0    0 -0.00000000000E+00 -0.00000000000E+00 -0.50000000000E+03  0.50000000000E+03  0.00000000000E+00 0.  1.
         23    2    1    2    0    0 -0.19707317137E+03  0.27229128901E+02  0.13835520557E+03  0.25950827920E+03  0.92860776048E+02 0.  0.
        -11    1    1    2    0    0  0.23622480491E+03  0.27814750496E+02  0.25072054065E+03  0.34559601893E+03  0.00000000000E+00 0. -1.
         11    1    1    2    0    0 -0.39151633534E+02 -0.55043879397E+02 -0.38907574621E+03  0.39489570187E+03  0.00000000000E+00 0.  1.
        -15    1    3    3    0    0 -0.92440075890E+02  0.15977816964E+01  0.11671803790E+02  0.93204663347E+02  0.17770000000E+01 0.  1.
         15    1    3    3    0    0 -0.10463309548E+03  0.25631347204E+02  0.12668340178E+03  0.16630361585E+03  0.17770000000E+01 0. -1.
</event>
<event>
 7    1  0.2288857E-006  0.5216033E+03  0.7546771E-02  0.9352727E-01
        -11   -1    0    0    0    0  0.00000000000E+00  0.00000000000E+00  0.50000000000E+03  0.50000000000E+03  0.00000000000E+00 0.  1.
         11   -1    0    0    0    0 -0.00000000000E+00 -0.00000000000E+00 -0.50000000000E+03  0.50000000000E+03  0.00000000000E+00 0. -1.
         23    2    1    2    0    0 -0.23834627034E+02  0.61952186681E+02  0.40983069424E+03  0.42485835086E+03  0.90206748500E+02 0.  0.
        -11    1    1    2    0    0  0.74922645532E+02  0.70518932883E+01  0.60798495786E+02  0.96744969390E+02  0.00000000000E+00 0.  1.
         11    1    1    2    0    0 -0.51088018498E+02 -0.69004079969E+02 -0.47062919003E+03  0.47839667975E+03  0.00000000000E+00 0. -1.
        -15    1    3    3    0    0  0.24899331931E+01  0.71416738863E+02  0.36538684819E+03  0.37231338535E+03  0.17770000000E+01 0.  1.
         15    1    3    3    0    0 -0.26324560227E+02 -0.94645521819E+01  0.44443846056E+02  0.52544965510E+02  0.17770000000E+01 0. -1.
</event>
<event>
 7    1  0.2288857E-006  0.5120843E+03  0.7546771E-02  0.9373169E-01
        -11   -1    0    0    0    0  0.00000000000E+00  0.00000000000E+00  0.50000000000E+03  0.50000000000E+03  0.00000000000E+00 0. -1.
         11   -1    0    0    0    0 -0.00000000000E+00 -0.00000000000E+00 -0.50000000000E+03  0.50000000000E+03  0.00000000000E+00 0. -1.
         23    2    1    2    0    0  0.10041040415E+03 -0.72654529112E+02  0.46266275696E+03  0.48791569520E+03  0.92972948149E+02 0.  0.
        -11    1    1    2    0    0 -0.56192559666E+02 -0.30493333525E+02 -0.41489853706E+02  0.76215845543E+02  0.00000000000E+00 0. -1.
         11    1    1    2    0    0 -0.44217844482E+02  0.10314786264E+03 -0.42117290325E+03  0.43586845925E+03  0.00000000000E+00 0. -1.
        -15    1    3    3    0    0  0.83950848560E+02 -0.92587532360E+02  0.41792096931E+03  0.43621243728E+03  0.17770000000E+01 0. -1.
         15    1    3    3    0    0  0.16459555587E+02  0.19933003247E+02  0.44741787652E+02  0.51703257924E+02  0.17770000000E+01 0.  1.
</event>
<event>
 7    1  0.2288857E-006  0.5074221E+03  0.7546771E-02  0.9383354E-01
        -11   -1    0    0    0    0  0.00000000000E+00  0.00000000000E+00  0.50000000000E+03  0.50000000000E+03  0.00000000000E+00 0.  1.
         11   -1    0    0    0    0 -0.00000000000E+00 -0.00000000000E+00 -0.50000000000E+03  0.50000000000E+03  0.00000000000E+00 0. -1.
         23    2    1    2    0    0 -0.99970654224E+02 -0.34753284975E+02 -0.27565709706E+03  0.30915603609E+03  0.91589830023E+02 0.  0.
        -11    1    1    2    0    0  0.19006766999E+03  0.60295876549E+02  0.45041276380E+03  0.49257788186E+03  0.00000000000E+00 0.  1.
         11    1    1    2    0    0 -0.90097015765E+02 -0.25542591575E+02 -0.17475566674E+03  0.19826608205E+03  0.00000000000E+00 0. -1.
        -15    1    3    3    0    0 -0.23139283211E+02  0.19329233831E+02 -0.14560538622E+03  0.14870484838E+03  0.17770000000E+01 0.  1.
         15    1    3    3    0    0 -0.76831371012E+02 -0.54082518806E+02 -0.13005171085E+03  0.16045118770E+03  0.17770000000E+01 0. -1.
</event>
<event>
 7    1  0.2288857E-006  0.5159916E+03  0.7546771E-02  0.9364722E-01
        -11   -1    0    0    0    0  0.00000000000E+00  0.00000000000E+00  0.50000000000E+03  0.50000000000E+03  0.00000000000E+00 0. -1.
         11   -1    0    0    0    0 -0.00000000000E+00 -0.00000000000E+00 -0.50000000000E+03  0.50000000000E+03  0.00000000000E+00 0.  1.
         23    2    1    2    0    0 -0.26878657195E+02  0.11784665349E+03 -0.28034013319E+03  0.31847673144E+03  0.90700287984E+02 0.  0.
        -11    1    1    2    0    0 -0.47095031808E+02 -0.13366840774E+03  0.46279473305E+03  0.48400841954E+03  0.00000000000E+00 0. -1.
         11    1    1    2    0    0  0.73973689003E+02  0.15821754242E+02 -0.18245459986E+03  0.19751484901E+03  0.00000000000E+00 0.  1.
        -15    1    3    3    0    0 -0.14413821495E+02  0.74799037008E+02 -0.70202656066E+02  0.10360610424E+03  0.17770000000E+01 0. -1.
         15    1    3    3    0    0 -0.12464835700E+02  0.43047616486E+02 -0.21013747713E+03  0.21487062721E+03  0.17770000000E+01 0.  1.
</event>
<event>
 7    1  0.2288857E-006  0.3726749E+03  0.7546771E-02  0.9740772E-01
        -11   -1    0    0    0    0  0.00000000000E+00  0.00000000000E+00  0.50000000000E+03  0.50000000000E+03  0.00000000000E+00 0.  1.
         11   -1    0    0    0    0 -0.00000000000E+00 -0.00000000000E+00 -0.50000000000E+03  0.50000000000E+03  0.00000000000E+00 0. -1.
         23    2    1    2    0    0  0.21801171492E+02  0.25158671786E+02  0.40491792103E+03  0.41630486174E+03  0.90790777556E+02 0.  0.
        -11    1    1    2    0    0 -0.17862114118E+03  0.93676913603E+02 -0.11164474384E+03  0.23053291532E+03  0.00000000000E+00 0.  1.
         11    1    1    2    0    0  0.15681996969E+03 -0.11883558539E+03 -0.29327317720E+03  0.35316222294E+03  0.00000000000E+00 0. -1.
        -15    1    3    3    0    0 -0.33767013525E+02  0.10943770889E+02  0.21462045949E+03  0.21754327543E+03  0.17770000000E+01 0.  1.
         15    1    3    3    0    0  0.55568185018E+02  0.14214900896E+02  0.19029746154E+03  0.19876158631E+03  0.17770000000E+01 0. -1.
</event>
<event>
 7    1  0.2288857E-006  0.4445971E+03  0.7546771E-02  0.9533097E-01
        -11   -1    0    0    0    0  0.00000000000E+00  0.00000000000E+00  0.50000000000E+03  0.50000000000E+03  0.00000000000E+00 0.  1.
         11   -1    0    0    0    0 -0.00000000000E+00 -0.00000000000E+00 -0.50000000000E+03  0.50000000000E+03  0.00000000000E+00 0. -1.
         23    2    1    2    0    0 -0.62406898901E+02  0.22540555609E+03  0.38504480186E+03  0.45979606549E+03  0.91927344398E+02 0.  0.
        -11    1    1    2    0    0 -0.25214463966E+02 -0.10909305858E+03  0.16399273202E+02  0.11316360186E+03  0.00000000000E+00 0.  1.
         11    1    1    2    0    0  0.87621362866E+02 -0.11631249750E+03 -0.40144407507E+03  0.42704033265E+03  0.00000000000E+00 0. -1.
        -15    1    3    3    0    0  0.77620294155E+00  0.11778002814E+03  0.24725131880E+03  0.27387791057E+03  0.17770000000E+01 0. -1.
         15    1    3    3    0    0 -0.63183101842E+02  0.10762552795E+03  0.13779348307E+03  0.18591815492E+03  0.17770000000E+01 0.  1.
</event>
<event>
 7    1  0.2288857E-006  0.5211759E+03  0.7546771E-02  0.9353635E-01
        -11   -1    0    0    0    0  0.00000000000E+00  0.00000000000E+00  0.50000000000E+03  0.50000000000E+03  0.00000000000E+00 0.  1.
         11   -1    0    0    0    0 -0.00000000000E+00 -0.00000000000E+00 -0.50000000000E+03  0.50000000000E+03  0.00000000000E+00 0.  1.
         23    2    1    2    0    0 -0.34782683939E+02  0.61290625318E+02  0.22558122316E+03  0.25288044516E+03  0.89973637518E+02 0.  0.
        -11    1    1    2    0    0 -0.94772986699E+02  0.19582287919E+03  0.15701576845E+03  0.26829549113E+03  0.00000000000E+00 0.  1.
         11    1    1    2    0    0  0.12955567064E+03 -0.25711350450E+03 -0.38259699161E+03  0.47882406370E+03  0.00000000000E+00 0.  1.
        -15    1    3    3    0    0  0.28563565336E+02  0.35515846540E+02  0.81929137290E+02  0.93769898615E+02  0.17770000000E+01 0.  1.
         15    1    3    3    0    0 -0.63346249275E+02  0.25774778778E+02  0.14365208587E+03  0.15911054655E+03  0.17770000000E+01 0. -1.
</event>
<event>
 6    1  0.2288857E-006  0.4887568E+03  0.7546771E-02  0.9425325E-01
        -11   -1    0    0    0    0  0.00000000000E+00  0.00000000000E+00  0.50000000000E+03  0.50000000000E+03  0.00000000000E+00 0. -1.
         11   -1    0    0    0    0 -0.00000000000E+00 -0.00000000000E+00 -0.50000000000E+03  0.50000000000E+03  0.00000000000E+00 0. -1.
        -11    1    1    2    0    0 -0.57718984738E+02  0.27853080674E+03  0.34627445449E+03  0.44812597485E+03  0.00000000000E+00 0. -1.
         11    1    1    2    0    0  0.18185096399E+02  0.34679830270E+02 -0.60911431345E+02  0.72412642729E+02  0.00000000000E+00 0. -1.
        -15    1    1    2    0    0 -0.17782924229E+02 -0.24514083671E+03 -0.84752974613E+02  0.25999324347E+03  0.17770000000E+01 0. -1.
         15    1    1    2    0    0  0.57316812569E+02 -0.68069800304E+02 -0.20061004853E+03  0.21946813895E+03  0.17770000000E+01 0.  1.
</event>
<event>
 7    1  0.2288857E-006  0.3908131E+03  0.7546771E-02  0.9683942E-01
        -11   -1    0    0    0    0  0.00000000000E+00  0.00000000000E+00  0.50000000000E+03  0.50000000000E+03  0.00000000000E+00 0.  1.
         11   -1    0    0    0    0 -0.00000000000E+00 -0.00000000000E+00 -0.50000000000E+03  0.50000000000E+03  0.00000000000E+00 0. -1.
         23    2    1    2    0    0  0.34068630089E+02  0.14553732663E+03  0.93317146208E+02  0.19875762880E+03  0.91949552641E+02 0.  0.
        -11    1    1    2    0    0  0.67954015321E+02 -0.60199802088E+02  0.33794951049E+03  0.34993090176E+03  0.00000000000E+00 0.  1.
         11    1    1    2    0    0 -0.10202264541E+03 -0.85337524544E+02 -0.43126665669E+03  0.45131146944E+03  0.00000000000E+00 0. -1.
        -15    1    3    3    0    0 -0.31812983076E+02  0.43476201992E+02  0.31742604419E+02  0.62553950284E+02  0.17770000000E+01 0.  1.
         15    1    3    3    0    0  0.65881613165E+02  0.10206112464E+03  0.61574541788E+02  0.13620367852E+03  0.17770000000E+01 0. -1.
</event>
<event>
 7    1  0.2288857E-006  0.5186782E+03  0.7546771E-02  0.9358959E-01
        -11   -1    0    0    0    0  0.00000000000E+00  0.00000000000E+00  0.50000000000E+03  0.50000000000E+03  0.00000000000E+00 0. -1.
         11   -1    0    0    0    0 -0.00000000000E+00 -0.00000000000E+00 -0.50000000000E+03  0.50000000000E+03  0.00000000000E+00 0.  1.
         23    2    1    2    0    0  0.96778626644E+01 -0.39775126900E+02  0.12948332385E+03  0.16468962710E+03  0.93171993518E+02 0.  0.
        -11    1    1    2    0    0  0.80480941885E+02  0.31769626383E+02  0.34325124839E+03  0.35398857424E+03  0.00000000000E+00 0. -1.
         11    1    1    2    0    0 -0.90158804549E+02  0.80055005174E+01 -0.47273457224E+03  0.48132179866E+03  0.00000000000E+00 0.  1.
        -15    1    3    3    0    0 -0.21429855089E+02 -0.12384016996E+02  0.11945934971E+03  0.12200941164E+03  0.17770000000E+01 0. -1.
         15    1    3    3    0    0  0.31107717754E+02 -0.27391109904E+02  0.10023974132E+02  0.42680215463E+02  0.17770000000E+01 0.  1.
</event>
<event>
 7    1  0.2288857E-006  0.4152354E+03  0.7546771E-02  0.9612426E-01
        -11   -1    0    0    0    0  0.00000000000E+00  0.00000000000E+00  0.50000000000E+03  0.50000000000E+03  0.00000000000E+00 0. -1.
         11   -1    0    0    0    0 -0.00000000000E+00 -0.00000000000E+00 -0.50000000000E+03  0.50000000000E+03  0.00000000000E+00 0.  1.
         23    2    1    2    0    0  0.12211272521E+03 -0.13546614710E+03  0.34952920263E+03  0.40529099506E+03  0.93954949412E+02 0.  0.
        -11    1    1    2    0    0 -0.15370738979E+03 -0.23487212170E+01  0.57263932596E+02  0.16404461632E+03  0.00000000000E+00 0. -1.
         11    1    1    2    0    0  0.31594664584E+02  0.13781486832E+03 -0.40679313522E+03  0.43066438862E+03  0.00000000000E+00 0.  1.
        -15    1    3    3    0    0  0.50835549254E+02 -0.30899060297E+02  0.42306580113E+02  0.73020609729E+02  0.17770000000E+01 0.  1.
         15    1    3    3    0    0  0.71277175952E+02 -0.10456708681E+03  0.30722262251E+03  0.33227038533E+03  0.17770000000E+01 0. -1.
</event>
<event>
 7    1  0.2288857E-006  0.5249957E+03  0.7546771E-02  0.9345554E-01
        -11   -1    0    0    0    0  0.00000000000E+00  0.00000000000E+00  0.50000000000E+03  0.50000000000E+03  0.00000000000E+00 0. -1.
         11   -1    0    0    0    0 -0.00000000000E+00 -0.00000000000E+00 -0.50000000000E+03  0.50000000000E+03  0.00000000000E+00 0.  1.
         23    2    1    2    0    0  0.33635100892E+02  0.73980723910E+01  0.16644140349E+03  0.19294450464E+03  0.91316973159E+02 0.  0.
        -11    1    1    2    0    0  0.25747830186E+03  0.38875683805E+02  0.20603786913E+03  0.33205119822E+03  0.00000000000E+00 0. -1.
         11    1    1    2    0    0 -0.29111340275E+03 -0.46273756196E+02 -0.37247927262E+03  0.47500429715E+03  0.00000000000E+00 0.  1.
        -15    1    3    3    0    0 -0.19132323709E+02  0.33204224799E+02  0.75109636363E+02  0.84339679621E+02  0.17770000000E+01 0.  1.
         15    1    3    3    0    0  0.52767424602E+02 -0.25806152408E+02  0.91331767128E+02  0.10860482502E+03  0.17770000000E+01 0. -1.
</event>
<event>
 7    1  0.2288857E-006  0.5342928E+03  0.7546771E-02  0.9326186E-01
        -11   -1    0    0    0    0  0.00000000000E+00  0.00000000000E+00  0.50000000000E+03  0.50000000000E+03  0.00000000000E+00 0.  1.
         11   -1    0    0    0    0 -0.00000000000E+00 -0.00000000000E+00 -0.50000000000E+03  0.50000000000E+03  0.00000000000E+00 0. -1.
         23    2    1    2    0    0 -0.68807990402E+02  0.66673443389E+02  0.12335737557E+03  0.18172388042E+03  0.92879701818E+02 0.  0.
        -11    1    1    2    0    0  0.12125965991E+03  0.25794211838E+02  0.33005389572E+03  0.35256888769E+03  0.00000000000E+00 0.  1.
         11    1    1    2    0    0 -0.52451669509E+02 -0.92467655228E+02 -0.45341127130E+03  0.46570723189E+03  0.00000000000E+00 0. -1.
        -15    1    3    3    0    0  0.16488848844E+02 -0.90849658477E+01  0.22961173728E+02  0.29745452907E+02  0.17770000000E+01 0.  1.
         15    1    3    3    0    0 -0.85296839245E+02  0.75758409237E+02  0.10039620184E+03  0.15197842751E+03  0.17770000000E+01 0. -1.
</event>
<event>
 7    1  0.2288857E-006  0.4338844E+03  0.7546771E-02  0.9561263E-01
        -11   -1    0    0    0    0  0.00000000000E+00  0.00000000000E+00  0.50000000000E+03  0.50000000000E+03  0.00000000000E+00 0.  1.
         11   -1    0    0    0    0 -0.00000000000E+00 -0.00000000000E+00 -0.50000000000E+03  0.50000000000E+03  0.00000000000E+00 0. -1.
         23    2    1    2    0    0 -0.66446359697E+02  0.41991454386E+03 -0.15655406921E+03  0.46250040812E+03  0.93027458658E+02 0.  0.
        -11    1    1    2    0    0  0.16399877349E+03 -0.33123803074E+03  0.16630901958E+03  0.40530595938E+03  0.00000000000E+00 0.  1.
         11    1    1    2    0    0 -0.97552413798E+02 -0.88676513119E+02 -0.97549503658E+01  0.13219363250E+03  0.00000000000E+00 0. -1.
        -15    1    3    3    0    0 -0.62965068889E+02  0.27189587218E+03 -0.14357799601E+03  0.31386265129E+03  0.17770000000E+01 0. -1.
         15    1    3    3    0    0 -0.34812908075E+01  0.14801867168E+03 -0.12976073209E+02  0.14863775683E+03  0.17770000000E+01 0.  1.
</event>
<event>
 7    1  0.2288857E-006  0.4761870E+03  0.7546771E-02  0.9454729E-01
        -11   -1    0    0    0    0  0.00000000000E+00  0.00000000000E+00  0.50000000000E+03  0.50000000000E+03  0.00000000000E+00 0.  1.
         11   -1    0    0    0    0 -0.00000000000E+00 -0.00000000000E+00 -0.50000000000E+03  0.50000000000E+03  0.00000000000E+00 0. -1.
         23    2    1    2    0    0 -0.15956848271E+03 -0.42219282944E+02  0.43300399874E+03  0.47259148726E+03  0.92766817258E+02 0.  0.
        -11    1    1    2    0    0  0.26002398458E+02  0.44328710691E+02  0.19979366585E+02  0.55139227472E+02  0.00000000000E+00 0.  1.
         11    1    1    2    0    0  0.13356608425E+03 -0.21094277471E+01 -0.45298336532E+03  0.47226928527E+03  0.00000000000E+00 0. -1.
        -15    1    3    3    0    0 -0.15917563808E+03 -0.60186914861E+02  0.37430732980E+03  0.41117938099E+03  0.17770000000E+01 0.  1.
         15    1    3    3    0    0 -0.39284462529E+00  0.17967631916E+02  0.58696668938E+02  0.61412106274E+02  0.17770000000E+01 0. -1.
</event>
<event>
 7    1  0.2288857E-006  0.5162149E+03  0.7546771E-02  0.9364241E-01
        -11   -1    0    0    0    0  0.00000000000E+00  0.00000000000E+00  0.50000000000E+03  0.50000000000E+03  0.00000000000E+00 0. -1.
         11   -1    0    0    0    0 -0.00000000000E+00 -0.00000000000E+00 -0.50000000000E+03  0.50000000000E+03  0.00000000000E+00 0.  1.
         23    2    1    2    0    0  0.38366825066E+01 -0.16327282110E+03 -0.31633279738E+03  0.36721935399E+03  0.90060429755E+02 0.  0.
        -11    1    1    2    0    0  0.55836370593E+02  0.16084332459E+03  0.45283520019E+03  0.48378506992E+03  0.00000000000E+00 0. -1.
         11    1    1    2    0    0 -0.59673053100E+02  0.24294965013E+01 -0.13650240281E+03  0.14899557608E+03  0.00000000000E+00 0.  1.
        -15    1    3    3    0    0  0.46166805169E+02 -0.71163496128E+02 -0.15403410403E+03  0.17585585010E+03  0.17770000000E+01 0.  1.
         15    1    3    3    0    0 -0.42330122662E+02 -0.92109324967E+02 -0.16229869335E+03  0.19136350390E+03  0.17770000000E+01 0. -1.
</event>
<event>
 7    1  0.2288857E-006  0.4203211E+03  0.7546771E-02  0.9598193E-01
        -11   -1    0    0    0    0  0.00000000000E+00  0.00000000000E+00  0.50000000000E+03  0.50000000000E+03  0.00000000000E+00 0.  1.
         11   -1    0    0    0    0 -0.00000000000E+00 -0.00000000000E+00 -0.50000000000E+03  0.50000000000E+03  0.00000000000E+00 0.  1.
         23    2    1    2    0    0  0.10006194310E+03 -0.66402746061E+02  0.15937187512E+02  0.15067382892E+03  0.89592921786E+02 0.  0.
        -11    1    1    2    0    0 -0.17122722682E+03  0.11500085606E+03  0.38632362072E+03  0.43793823769E+03  0.00000000000E+00 0.  1.
         11    1    1    2    0    0  0.71165283720E+02 -0.48598109998E+02 -0.40226080823E+03  0.41138793340E+03  0.00000000000E+00 0.  1.
        -15    1    3    3    0    0  0.89899465508E+02 -0.52156729475E+02 -0.24307520759E+02  0.10675322769E+03  0.17770000000E+01 0.  1.
         15    1    3    3    0    0  0.10162477591E+02 -0.14246016586E+02  0.40244708271E+02  0.43920601227E+02  0.17770000000E+01 0. -1.
</event>
<event>
 7    1  0.2288857E-006  0.5353835E+03  0.7546771E-02  0.9323941E-01
        -11   -1    0    0    0    0  0.00000000000E+00  0.00000000000E+00  0.50000000000E+03  0.50000000000E+03  0.00000000000E+00 0.  1.
         11   -1    0    0    0    0 -0.00000000000E+00 -0.00000000000E+00 -0.50000000000E+03  0.50000000000E+03  0.00000000000E+00 0. -1.
         23    2    1    2    0    0  0.94000030218E+02 -0.29869089519E+01  0.23182604187E+03  0.26620903898E+03  0.90989073187E+02 0.  0.
        -11    1    1    2    0    0 -0.12716447422E+03 -0.75486666904E+02  0.22491296706E+03  0.26917444740E+03  0.00000000000E+00 0.  1.
         11    1    1    2    0    0  0.33164444000E+02  0.78473575856E+02 -0.45673900893E+03  0.46461651362E+03  0.00000000000E+00 0. -1.
        -15    1    3    3    0    0  0.11016063863E+03  0.26188159676E+01  0.17475049962E+03  0.20659893356E+03  0.17770000000E+01 0.  1.
         15    1    3    3    0    0 -0.16160608416E+02 -0.56057249195E+01  0.57075542243E+02  0.59610105415E+02  0.17770000000E+01 0. -1.
</event>
<event>
 7    1  0.2288857E-006  0.5201618E+03  0.7546771E-02  0.9355793E-01
        -11   -1    0    0    0    0  0.00000000000E+00  0.00000000000E+00  0.50000000000E+03  0.50000000000E+03  0.00000000000E+00 0. -1.
         11   -1    0    0    0    0 -0.00000000000E+00 -0.00000000000E+00 -0.50000000000E+03  0.50000000000E+03  0.00000000000E+00 0. -1.
         23    2    1    2    0    0  0.25046053002E+02  0.32464883818E+02  0.25573839123E+03  0.27499819283E+03  0.92415409193E+02 0.  0.
        -11    1    1    2    0    0 -0.10386392314E+03 -0.45287677084E+02  0.21740857513E+03  0.24516357145E+03  0.00000000000E+00 0. -1.
         11    1    1    2    0    0  0.78817870135E+02  0.12822793266E+02 -0.47314696637E+03  0.47983823572E+03  0.00000000000E+00 0. -1.
        -15    1    3    3    0    0  0.38389536206E+02  0.37171513778E+02  0.25518619624E+03  0.26072711866E+03  0.17770000000E+01 0.  1.
         15    1    3    3    0    0 -0.13343483204E+02 -0.47066299596E+01  0.55219499635E+00  0.14271074168E+02  0.17770000000E+01 0. -1.
</event>
<event>
 7    1  0.2288857E-006  0.4449382E+03  0.7546771E-02  0.9532214E-01
        -11   -1    0    0    0    0  0.00000000000E+00  0.00000000000E+00  0.50000000000E+03  0.50000000000E+03  0.00000000000E+00 0.  1.
         11   -1    0    0    0    0 -0.00000000000E+00 -0.00000000000E+00 -0.50000000000E+03  0.50000000000E+03  0.00000000000E+00 0. -1.
         23    2    1    2    0    0 -0.26759623707E+03  0.19355838625E+03  0.32174571502E+03  0.47012956323E+03  0.91809074208E+02 0.  0.
        -11    1    1    2    0    0  0.10957961172E+03  0.25376993582E+02 -0.35208156856E+01  0.11253479129E+03  0.00000000000E+00 0.  1.
         11    1    1    2    0    0  0.15801662535E+03 -0.21893537983E+03 -0.31822489934E+03  0.41733564548E+03  0.00000000000E+00 0. -1.
        -15    1    3    3    0    0 -0.19509049093E+03  0.18537692446E+03  0.26481401692E+03  0.37756393506E+03  0.17770000000E+01 0.  1.
         15    1    3    3    0    0 -0.72505746137E+02  0.81814617868E+01  0.56931698103E+02  0.92565628166E+02  0.17770000000E+01 0. -1.
</event>
<event>
 7    1  0.2288857E-006  0.3525524E+03  0.7546771E-02  0.9808017E-01
        -11   -1    0    0    0    0  0.00000000000E+00  0.00000000000E+00  0.50000000000E+03  0.50000000000E+03  0.00000000000E+00 0.  1.
         11   -1    0    0    0    0 -0.00000000000E+00 -0.00000000000E+00 -0.50000000000E+03  0.50000000000E+03  0.00000000000E+00 0. -1.
         23    2    1    2    0    0 -0.21748882824E+03  0.93927286629E+02  0.18331379520E+02  0.25593507039E+03  0.95094664392E+02 0.  0.
        -11    1    1    2    0    0  0.12351339421E+03 -0.86125892005E+02  0.34089403933E+03  0.37266871867E+03  0.00000000000E+00 0.  1.
         11    1    1    2    0    0  0.93975434034E+02 -0.78013946233E+01 -0.35922541885E+03  0.37139621095E+03  0.00000000000E+00 0. -1.
        -15    1    3    3    0    0 -0.19057762985E+03  0.10890593725E+03  0.32652948370E+02  0.22192275443E+03  0.17770000000E+01 0.  1.
         15    1    3    3    0    0 -0.26911198393E+02 -0.14978650624E+02 -0.14321568850E+02  0.34012315957E+02  0.17770000000E+01 0. -1.
</event>
<event>
 7    1  0.2288857E-006  0.5150656E+03  0.7546771E-02  0.9366716E-01
        -11   -1    0    0    0    0  0.00000000000E+00  0.00000000000E+00  0.50000000000E+03  0.50000000000E+03  0.00000000000E+00 0. -1.
         11   -1    0    0    0    0 -0.00000000000E+00 -0.00000000000E+00 -0.50000000000E+03  0.50000000000E+03  0.00000000000E+00 0.  1.
         23    2    1    2    0    0 -0.90658974178E+02  0.89832117448E+01 -0.18154003581E+03  0.22291854358E+03  0.91848488167E+02 0.  0.
        -11    1    1    2    0    0  0.11838699249E+03  0.35833682267E+02  0.46889431522E+03  0.48493444054E+03  0.00000000000E+00 0. -1.
         11    1    1    2    0    0 -0.27728018310E+02 -0.44816894012E+02 -0.28735427942E+03  0.29214701588E+03  0.00000000000E+00 0.  1.
        -15    1    3    3    0    0 -0.59828112203E+02  0.37539142595E+02 -0.16160086103E+03  0.17637059350E+03  0.17770000000E+01 0.  1.
         15    1    3    3    0    0 -0.30830861975E+02 -0.28555930851E+02 -0.19939174776E+02  0.46547950079E+02  0.17770000000E+01 0. -1.
</event>
<event>
 7    1  0.2288857E-006  0.4714334E+03  0.7546771E-02  0.9466101E-01
        -11   -1    0    0    0    0  0.00000000000E+00  0.00000000000E+00  0.50000000000E+03  0.50000000000E+03  0.00000000000E+00 0. -1.
         11   -1    0    0    0    0 -0.00000000000E+00 -0.00000000000E+00 -0.50000000000E+03  0.50000000000E+03  0.00000000000E+00 0. -1.
         23    2    1    2    0    0  0.73916972503E+02 -0.66925211711E+02  0.42198054532E+03  0.44504590550E+03  0.10027748792E+03 0.  0.
        -11    1    1    2    0    0  0.33025626928E+02 -0.35140987297E+02  0.44494157746E+02  0.65614869471E+02  0.00000000000E+00 0. -1.
         11    1    1    2    0    0 -0.10694259943E+03  0.10206619901E+03 -0.46647470307E+03  0.48933922503E+03  0.00000000000E+00 0. -1.
        -15    1    3    3    0    0  0.45904650017E+02  0.17940855058E+02  0.19392983947E+03  0.20010260253E+03  0.17770000000E+01 0. -1.
         15    1    3    3    0    0  0.28012322486E+02 -0.84866066770E+02  0.22805070585E+03  0.24494330297E+03  0.17770000000E+01 0.  1.
</event>
<event>
 7    1  0.2288857E-006  0.3640582E+03  0.7546771E-02  0.9768997E-01
        -11   -1    0    0    0    0  0.00000000000E+00  0.00000000000E+00  0.50000000000E+03  0.50000000000E+03  0.00000000000E+00 0. -1.
         11   -1    0    0    0    0 -0.00000000000E+00 -0.00000000000E+00 -0.50000000000E+03  0.50000000000E+03  0.00000000000E+00 0.  1.
         23    2    1    2    0    0  0.58858424039E+02  0.15401674574E+03  0.14679666495E+03  0.23915291165E+03  0.91974900181E+02 0.  0.
        -11    1    1    2    0    0 -0.13003608012E+03 -0.94971109724E+02  0.28062128482E+03  0.32353855923E+03  0.00000000000E+00 0. -1.
         11    1    1    2    0    0  0.71177656082E+02 -0.59045636014E+02 -0.42741794977E+03  0.43730852912E+03  0.00000000000E+00 0.  1.
        -15    1    3    3    0    0  0.58274866352E+02  0.73689787498E+02  0.12409963445E+03  0.15565995577E+03  0.17770000000E+01 0.  1.
         15    1    3    3    0    0  0.58355768776E+00  0.80326958240E+02  0.22697030497E+02  0.83492955883E+02  0.17770000000E+01 0. -1.
</event>
<event>
 7    1  0.2288857E-006  0.5132190E+03  0.7546771E-02  0.9370707E-01
        -11   -1    0    0    0    0  0.00000000000E+00  0.00000000000E+00  0.50000000000E+03  0.50000000000E+03  0.00000000000E+00 0.  1.
         11   -1    0    0    0    0 -0.00000000000E+00 -0.00000000000E+00 -0.50000000000E+03  0.50000000000E+03  0.00000000000E+00 0. -1.
         23    2    1    2    0    0 -0.10184438161E+02  0.42196181051E+02  0.28033563604E+03  0.29853725760E+03  0.93017121347E+02 0.  0.
        -11    1    1    2    0    0  0.15837815362E+02  0.11586862129E+03  0.18003300496E+03  0.21468175672E+03  0.00000000000E+00 0.  1.
         11    1    1    2    0    0 -0.56533772016E+01 -0.15806480234E+03 -0.46036864100E+03  0.48678098568E+03  0.00000000000E+00 0. -1.
        -15    1    3    3    0    0  0.31365702064E+02  0.18369984851E+02  0.21180558955E+03  0.21490935090E+03  0.17770000000E+01 0.  1.
         15    1    3    3    0    0 -0.41550140224E+02  0.23826196200E+02  0.68530046487E+02  0.83627906697E+02  0.17770000000E+01 0. -1.
</event>
<event>
 7    1  0.2288857E-006  0.4305170E+03  0.7546771E-02  0.9570296E-01
        -11   -1    0    0    0    0  0.00000000000E+00  0.00000000000E+00  0.50000000000E+03  0.50000000000E+03  0.00000000000E+00 0. -1.
         11   -1    0    0    0    0 -0.00000000000E+00 -0.00000000000E+00 -0.50000000000E+03  0.50000000000E+03  0.00000000000E+00 0. -1.
         23    2    1    2    0    0 -0.27412392735E+02  0.21655401443E+02  0.41037118880E+03  0.42238733255E+03  0.93734467589E+02 0.  0.
        -11    1    1    2    0    0 -0.29730021885E+02 -0.13450408726E+03  0.10494093956E+02  0.13814973651E+03  0.00000000000E+00 0. -1.
         11    1    1    2    0    0  0.57142414620E+02  0.11284868582E+03 -0.42086528276E+03  0.43946293094E+03  0.00000000000E+00 0. -1.
        -15    1    3    3    0    0  0.12902466931E+02 -0.28918372217E+02  0.86849125306E+02  0.92459040662E+02  0.17770000000E+01 0.  1.
         15    1    3    3    0    0 -0.40314859665E+02  0.50573773660E+02  0.32352206349E+03  0.32992829189E+03  0.17770000000E+01 0. -1.
</event>
<event>
 7    1  0.2288857E-006  0.5274180E+03  0.7546771E-02  0.9340467E-01
        -11   -1    0    0    0    0  0.00000000000E+00  0.00000000000E+00  0.50000000000E+03  0.50000000000E+03  0.00000000000E+00 0. -1.
         11   -1    0    0    0    0 -0.00000000000E+00 -0.00000000000E+00 -0.50000000000E+03  0.50000000000E+03  0.00000000000E+00 0.  1.
         23    2    1    2    0    0  0.92253019112E+02  0.25352134232E+02  0.24362087794E+03  0.27745493355E+03  0.92069309418E+02 0.  0.
        -11    1    1    2    0    0  0.20649081545E+03 -0.75130870850E+02  0.11915719644E+03  0.24996308144E+03  0.00000000000E+00 0. -1.
         11    1    1    2    0    0 -0.29874383456E+03  0.49778736618E+02 -0.36277807438E+03  0.47258198501E+03  0.00000000000E+00 0.  1.
        -15    1    3    3    0    0  0.57582339759E+02  0.60199889489E+02  0.16153007569E+03  0.18175498790E+03  0.17770000000E+01 0. -1.
         15    1    3    3    0    0  0.34670679353E+02 -0.34847755257E+02  0.82090802254E+02  0.95699945647E+02  0.17770000000E+01 0.  1.
</event>
<event>
 7    1  0.2288857E-006  0.4705384E+03  0.7546771E-02  0.9468258E-01
        -11   -1    0    0    0    0  0.00000000000E+00  0.00000000000E+00  0.50000000000E+03  0.50000000000E+03  0.00000000000E+00 0. -1.
         11   -1    0    0    0    0 -0.00000000000E+00 -0.00000000000E+00 -0.50000000000E+03  0.50000000000E+03  0.00000000000E+00 0.  1.
         23    2    1    2    0    0 -0.14187422397E+03  0.10517609524E+03  0.41448586105E+03  0.45954263620E+03  0.90501928375E+02 0.  0.
        -11    1    1    2    0    0  0.40609189774E+02 -0.27745911860E+02  0.43131822821E+02  0.65416328687E+02  0.00000000000E+00 0. -1.
         11    1    1    2    0    0  0.10126503420E+03 -0.77430183376E+02 -0.45761768387E+03  0.47504103511E+03  0.00000000000E+00 0.  1.
        -15    1    3    3    0    0 -0.14132166299E+03  0.61588508012E+02  0.33773676695E+03  0.37126033753E+03  0.17770000000E+01 0. -1.
         15    1    3    3    0    0 -0.55256098846E+00  0.43587587224E+02  0.76749094103E+02  0.88282298669E+02  0.17770000000E+01 0.  1.
</event>
<event>
 7    1  0.2288857E-006  0.4215776E+03  0.7546771E-02  0.9594710E-01
        -11   -1    0    0    0    0  0.00000000000E+00  0.00000000000E+00  0.50000000000E+03  0.50000000000E+03  0.00000000000E+00 0.  1.
         11   -1    0    0    0    0 -0.00000000000E+00 -0.00000000000E+00 -0.50000000000E+03  0.50000000000E+03  0.00000000000E+00 0.  1.
         23    2    1    2    0    0  0.77485128521E+00  0.10793264270E+03 -0.23275152005E+00  0.14996425049E+03  0.10411131782E+03 0.  0.
        -11    1    1    2    0    0  0.92278395298E+02 -0.83507815854E+02  0.41033862274E+03  0.42879673840E+03  0.00000000000E+00 0.  1.
         11    1    1    2    0    0 -0.93053246583E+02 -0.24424826850E+02 -0.41010587122E+03  0.42123901111E+03  0.00000000000E+00 0.  1.
        -15    1    3    3    0    0  0.24592420906E+02  0.21233418216E+02  0.39900554380E+02  0.51486475739E+02  0.17770000000E+01 0.  1.
         15    1    3    3    0    0 -0.23817569621E+02  0.86699224487E+02 -0.40133305900E+02  0.98477774755E+02  0.17770000000E+01 0. -1.
</event>
<event>
 6    1  0.2288857E-006  0.4627889E+03  0.7546771E-02  0.9487152E-01
        -11   -1    0    0    0    0  0.00000000000E+00  0.00000000000E+00  0.50000000000E+03  0.50000000000E+03  0.00000000000E+00 0.  1.
         11   -1    0    0    0    0 -0.00000000000E+00 -0.00000000000E+00 -0.50000000000E+03  0.50000000000E+03  0.00000000000E+00 0.  1.
        -11    1    1    2    0    0  0.59748189473E+02  0.68538411564E+02  0.61137980220E+01  0.91130338150E+02  0.00000000000E+00 0.  1.
         11    1    1    2    0    0  0.54408715298E+01 -0.18872424641E+03 -0.41501335102E+03  0.45594136223E+03  0.00000000000E+00 0.  1.
        -15    1    1    2    0    0 -0.84276746551E+02  0.60439356486E+02  0.35617552817E+03  0.37097122587E+03  0.17770000000E+01 0.  1.
         15    1    1    2    0    0  0.19087685548E+02  0.59746478362E+02  0.52724024823E+02  0.81957073756E+02  0.17770000000E+01 0. -1.
</event>
<event>
 7    1  0.2288857E-006  0.5348403E+03  0.7546771E-02  0.9325058E-01
        -11   -1    0    0    0    0  0.00000000000E+00  0.00000000000E+00  0.50000000000E+03  0.50000000000E+03  0.00000000000E+00 0. -1.
         11   -1    0    0    0    0 -0.00000000000E+00 -0.00000000000E+00 -0.50000000000E+03  0.50000000000E+03  0.00000000000E+00 0. -1.
         23    2    1    2    0    0  0.24514523448E+02 -0.13853485300E+03  0.29036478843E+03  0.33550587375E+03  0.91976157813E+02 0.  0.
        -11    1    1    2    0    0  0.64365855486E+02  0.93288622195E+02  0.16397712226E+03  0.19933446016E+03  0.00000000000E+00 0. -1.
         11    1    1    2    0    0 -0.88880378935E+02  0.45246230800E+02 -0.45434191068E+03  0.46515966610E+03  0.00000000000E+00 0. -1.
        -15    1    3    3    0    0 -0.25844889730E+02 -0.99959894908E+01  0.71853150447E+02  0.77031883588E+02  0.17770000000E+01 0.  1.
         15    1    3    3    0    0  0.50359413178E+02 -0.12853886350E+03  0.21851163798E+03  0.25847399016E+03  0.17770000000E+01 0. -1.
</event>
<event>
 7    1  0.2288857E-006  0.5161077E+03  0.7546771E-02  0.9364472E-01
        -11   -1    0    0    0    0  0.00000000000E+00  0.00000000000E+00  0.50000000000E+03  0.50000000000E+03  0.00000000000E+00 0. -1.
         11   -1    0    0    0    0 -0.00000000000E+00 -0.00000000000E+00 -0.50000000000E+03  0.50000000000E+03  0.00000000000E+00 0. -1.
         23    2    1    2    0    0  0.10786918156E+03  0.43632632748E+02 -0.29954643551E+03  0.33311377019E+03  0.87733402362E+02 0.  0.
        -11    1    1    2    0    0 -0.15136189614E+03  0.36620029144E+02  0.45814873470E+03  0.48389225376E+03  0.00000000000E+00 0. -1.
         11    1    1    2    0    0  0.43492714577E+02 -0.80252661892E+02 -0.15860229919E+03  0.18299397605E+03  0.00000000000E+00 0. -1.
        -15    1    3    3    0    0  0.28097721503E+02  0.72529954012E+01 -0.10264039143E+02  0.30831738914E+02  0.17770000000E+01 0. -1.
         15    1    3    3    0    0  0.79771460061E+02  0.36379637346E+02 -0.28928239637E+03  0.30228203127E+03  0.17770000000E+01 0.  1.
</event>
<event>
 7    1  0.2288857E-006  0.5108728E+03  0.7546771E-02  0.9375804E-01
        -11   -1    0    0    0    0  0.00000000000E+00  0.00000000000E+00  0.50000000000E+03  0.50000000000E+03  0.00000000000E+00 0. -1.
         11   -1    0    0    0    0 -0.00000000000E+00 -0.00000000000E+00 -0.50000000000E+03  0.50000000000E+03  0.00000000000E+00 0.  1.
         23    2    1    2    0    0  0.46236659704E+02 -0.35657164224E+02  0.33800661682E+03  0.35725976269E+03  0.99883947477E+02 0.  0.
        -11    1    1    2    0    0 -0.12665649127E+02 -0.61485246413E+02  0.14020022437E+03  0.15361301086E+03  0.00000000000E+00 0. -1.
         11    1    1    2    0    0 -0.33571010577E+02  0.97142410638E+02 -0.47820684118E+03  0.48912722645E+03  0.00000000000E+00 0.  1.
        -15    1    3    3    0    0  0.99020973937E+01 -0.56238103220E+02  0.27996782903E+03  0.28573749983E+03  0.17770000000E+01 0. -1.
         15    1    3    3    0    0  0.36334562310E+02  0.20580938995E+02  0.58038787787E+02  0.71522262862E+02  0.17770000000E+01 0.  1.
</event>
<event>
 7    1  0.2288857E-006  0.3589189E+03  0.7546771E-02  0.9786233E-01
        -11   -1    0    0    0    0  0.00000000000E+00  0.00000000000E+00  0.50000000000E+03  0.50000000000E+03  0.00000000000E+00 0.  1.
         11   -1    0    0    0    0 -0.00000000000E+00 -0.00000000000E+00 -0.50000000000E+03  0.50000000000E+03  0.00000000000E+00 0. -1.
         23    2    1    2    0    0 -0.13624466907E+03  0.21286219993E+03  0.21183123500E+03  0.34316084153E+03  0.94941903429E+02 0.  0.
        -11    1    1    2    0    0  0.35464396595E+02 -0.17318346685E+03  0.17882100018E+03  0.25145016747E+03  0.00000000000E+00 0.  1.
         11    1    1    2    0    0  0.10078027248E+03 -0.39678733083E+02 -0.39065223517E+03  0.40538899100E+03  0.00000000000E+00 0. -1.
        -15    1    3    3    0    0 -0.33772734529E+02  0.17982828218E+00  0.24032329573E+02  0.41489041076E+02  0.17770000000E+01 0.  1.
         15    1    3    3    0    0 -0.10247193455E+03  0.21268237165E+03  0.18779890542E+03  0.30167180045E+03  0.17770000000E+01 0. -1.
</event>
<event>
 7    1  0.2288857E-006  0.5284552E+03  0.7546771E-02  0.9338297E-01
        -11   -1    0    0    0    0  0.00000000000E+00  0.00000000000E+00  0.50000000000E+03  0.50000000000E+03  0.00000000000E+00 0.  1.
         11   -1    0    0    0    0 -0.00000000000E+00 -0.00000000000E+00 -0.50000000000E+03  0.50000000000E+03  0.00000000000E+00 0. -1.
         23    2    1    2    0    0 -0.47317451608E+02  0.43675282735E+02  0.15512598905E+03  0.19115467751E+03  0.91266459914E+02 0.  0.
        -11    1    1    2    0    0  0.13791777957E+03 -0.21177982601E+02  0.30708602351E+03  0.33730052876E+03  0.00000000000E+00 0.  1.
         11    1    1    2    0    0 -0.90600327966E+02 -0.22497300133E+02 -0.46221201256E+03  0.47154479373E+03  0.00000000000E+00 0. -1.
        -15    1    3    3    0    0 -0.50474774119E+02  0.69289435112E+02  0.12223615965E+03  0.14931029802E+03  0.17770000000E+01 0.  1.
         15    1    3    3    0    0  0.31573225110E+01 -0.25614152377E+02  0.32889829402E+02  0.41844379486E+02  0.17770000000E+01 0. -1.
</event>
<event>
 7    1  0.2288857E-006  0.3847819E+03  0.7546771E-02  0.9702466E-01
        -11   -1    0    0    0    0  0.00000000000E+00  0.00000000000E+00  0.50000000000E+03  0.50000000000E+03  0.00000000000E+00 0.  1.
         11   -1    0    0    0    0 -0.00000000000E+00 -0.00000000000E+00 -0.50000000000E+03  0.50000000000E+03  0.00000000000E+00 0.  1.
         23    2    1    2    0    0 -0.26135189815E+03 -0.15210955910E+03  0.34363663945E+03  0.46708247026E+03  0.92939557878E+02 0.  0.
        -11    1    1    2    0    0  0.19780839586E+03  0.65719634725E+02 -0.41792823718E+02  0.21258850387E+03  0.00000000000E+00 0.  1.
         11    1    1    2    0    0  0.63543502285E+02  0.86389924379E+02 -0.30184381573E+03  0.32032902587E+03  0.00000000000E+00 0.  1.
        -15    1    3    3    0    0 -0.90389328285E+02 -0.10061437863E+03  0.11929010861E+03  0.18035179954E+03  0.17770000000E+01 0.  1.
         15    1    3    3    0    0 -0.17096256986E+03 -0.51495180472E+02  0.22434653084E+03  0.28673067073E+03  0.17770000000E+01 0. -1.
</event>
<event>
 7    1  0.2288857E-006  0.5294054E+03  0.7546771E-02  0.9336315E-01
        -11   -1    0    0    0    0  0.00000000000E+00  0.00000000000E+00  0.50000000000E+03  0.50000000000E+03  0.00000000000E+00 0.  1.
         11   -1    0    0    0    0 -0.00000000000E+00 -0.00000000000E+00 -0.50000000000E+03  0.50000000000E+03  0.00000000000E+00 0. -1.
         23    2    1    2    0    0  0.11691852933E+03 -0.17086444065E+02  0.25798554184E+03  0.29837624742E+03  0.92249423618E+02 0.  0.
        -11    1    1    2    0    0 -0.57076190815E+02  0.96557869447E+02  0.20197365410E+03  0.23102915543E+03  0.00000000000E+00 0.  1.
         11    1    1    2    0    0 -0.59842338511E+02 -0.79471425382E+02 -0.45995919594E+03  0.47059459714E+03  0.00000000000E+00 0. -1.
        -15    1    3    3    0    0  0.12354722832E+03  0.79338609648E+01  0.21813355563E+03  0.25082318393E+03  0.17770000000E+01 0.  1.
         15    1    3    3    0    0 -0.66286989899E+01 -0.25020305030E+02  0.39851986206E+02  0.47553063494E+02  0.17770000000E+01 0. -1.
</event>
<event>
 7    1  0.2288857E-006  0.3637500E+03  0.7546771E-02  0.9770022E-01
        -11   -1    0    0    0    0  0.00000000000E+00  0.00000000000E+00  0.50000000000E+03  0.50000000000E+03  0.00000000000E+00 0. -1.
         11   -1    0    0    0    0 -0.00000000000E+00 -0.00000000000E+00 -0.50000000000E+03  0.50000000000E+03  0.00000000000E+00 0.  1.
         23    2    1    2    0    0 -0.78806886955E+01 -0.99725079500E+02  0.34827908667E+03  0.37339973708E+03  0.90121277759E+02 0.  0.
        -11    1    1    2    0    0  0.10094198974E+03  0.22163895952E+03  0.27166173291E+01  0.24355798833E+03  0.00000000000E+00 0. -1.
         11    1    1    2    0    0 -0.93061301046E+02 -0.12191388002E+03 -0.35099570400E+03  0.38304227459E+03  0.00000000000E+00 0.  1.
        -15    1    3    3    0    0 -0.42343800953E+02 -0.38321080826E+02  0.98429661395E+02  0.11381150507E+03  0.17770000000E+01 0.  1.
         15    1    3    3    0    0  0.34463112257E+02 -0.61403998674E+02  0.24984942528E+03  0.25958823201E+03  0.17770000000E+01 0. -1.
</event>
<event>
 7    1  0.5163367E-006  0.3900833E+03  0.7546771E-02  0.9686164E-01
        -11   -1    0    0    0    0  0.00000000000E+00  0.00000000000E+00  0.50000000000E+03  0.50000000000E+03  0.00000000000E+00 0. -1.
         11   -1    0    0    0    0 -0.00000000000E+00 -0.00000000000E+00 -0.50000000000E+03  0.50000000000E+03  0.00000000000E+00 0.  1.
         23    2    1    2    0    0 -0.27000659284E+02 -0.14686641570E+03 -0.10229613986E+03  0.19911096040E+03  0.82957185701E+02 0.  0.
        -11    1    1    2    0    0  0.19420820578E+02  0.86078499942E+02  0.44453618567E+03  0.45320977129E+03  0.00000000000E+00 0. -1.
         11    1    1    2    0    0  0.75798387062E+01  0.60787915761E+02 -0.34224004581E+03  0.34767926831E+03  0.00000000000E+00 0.  1.
        -15    1    3    3    0    0 -0.71578246869E+01 -0.17232822196E+02 -0.57560816859E+02  0.60536022181E+02  0.17770000000E+01 0. -1.
         15    1    3    3    0    0 -0.19842834598E+02 -0.12963359351E+03 -0.44735323002E+02  0.13857493822E+03  0.17770000000E+01 0.  1.
</event>
<event>
 7    1  0.3781115E-006  0.3646624E+03  0.7546771E-02  0.9766991E-01
        -11   -1    0    0    0    0  0.00000000000E+00  0.00000000000E+00  0.50000000000E+03  0.50000000000E+03  0.00000000000E+00 0.  1.
         11   -1    0    0    0    0 -0.00000000000E+00 -0.00000000000E+00 -0.50000000000E+03  0.50000000000E+03  0.00000000000E+00 0. -1.
         23    2    1    2    0    0 -0.33817682580E+02  0.16764468320E+03 -0.12958762096E+03  0.23976584225E+03  0.10698753265E+03 0.  0.
        -11    1    1    2    0    0  0.31492427954E+02 -0.10159601101E+03  0.43496797591E+03  0.44778416960E+03  0.00000000000E+00 0.  1.
         11    1    1    2    0    0  0.23252546259E+01 -0.66048672189E+02 -0.30538035495E+03  0.31244998816E+03  0.00000000000E+00 0. -1.
        -15    1    3    3    0    0 -0.25565304110E+02  0.14733794527E+03 -0.50762501505E+02  0.15793050427E+03  0.17770000000E+01 0.  1.
         15    1    3    3    0    0 -0.82523784699E+01  0.20306737927E+02 -0.78825119454E+02  0.81835337976E+02  0.17770000000E+01 0. -1.
</event>
<event>
 7    1  0.2288857E-006  0.3847058E+03  0.7546771E-02  0.9702702E-01
        -11   -1    0    0    0    0  0.00000000000E+00  0.00000000000E+00  0.50000000000E+03  0.50000000000E+03  0.00000000000E+00 0.  1.
         11   -1    0    0    0    0 -0.00000000000E+00 -0.00000000000E+00 -0.50000000000E+03  0.50000000000E+03  0.00000000000E+00 0. -1.
         23    2    1    2    0    0  0.61245649514E+02  0.10976388268E+03  0.13891426610E+03  0.20810959865E+03  0.90627215552E+02 0.  0.
        -11    1    1    2    0    0 -0.26649900985E+03  0.11260951504E+03  0.18907761888E+03  0.34561969141E+03  0.00000000000E+00 0.  1.
         11    1    1    2    0    0  0.20525336033E+03 -0.22237339772E+03 -0.32799188498E+03  0.44627070994E+03  0.00000000000E+00 0. -1.
        -15    1    3    3    0    0  0.42510828059E+02  0.86601004815E+02  0.14821029421E+03  0.17685121876E+03  0.17770000000E+01 0.  1.
         15    1    3    3    0    0  0.18734821455E+02  0.23162877863E+02 -0.92960281093E+01  0.31258379892E+02  0.17770000000E+01 0. -1.
</event>
<event>
 7    1  0.2288857E-006  0.5114539E+03  0.7546771E-02  0.9374539E-01
        -11   -1    0    0    0    0  0.00000000000E+00  0.00000000000E+00  0.50000000000E+03  0.50000000000E+03  0.00000000000E+00 0. -1.
         11   -1    0    0    0    0 -0.00000000000E+00 -0.00000000000E+00 -0.50000000000E+03  0.50000000000E+03  0.00000000000E+00 0.  1.
         23    2    1    2    0    0  0.24144313955E+02  0.89543481303E+02 -0.32459074008E+03  0.34920676139E+03  0.89360118145E+02 0.  0.
        -11    1    1    2    0    0  0.28122680683E+02 -0.16188215387E+03  0.46008760770E+03  0.48854613259E+03  0.00000000000E+00 0. -1.
         11    1    1    2    0    0 -0.52266994638E+02  0.72338672571E+02 -0.13549686762E+03  0.16224710602E+03  0.00000000000E+00 0.  1.
        -15    1    3    3    0    0  0.31150564473E+02  0.55437010545E+02 -0.29968067348E+03  0.30635809699E+03  0.17770000000E+01 0.  1.
         15    1    3    3    0    0 -0.70062505177E+01  0.34106470757E+02 -0.24910066599E+02  0.42848664399E+02  0.17770000000E+01 0. -1.
</event>
<event>
 7    1  0.2288857E-006  0.5291408E+03  0.7546771E-02  0.9336866E-01
        -11   -1    0    0    0    0  0.00000000000E+00  0.00000000000E+00  0.50000000000E+03  0.50000000000E+03  0.00000000000E+00 0. -1.
         11   -1    0    0    0    0 -0.00000000000E+00 -0.00000000000E+00 -0.50000000000E+03  0.50000000000E+03  0.00000000000E+00 0.  1.
         23    2    1    2    0    0  0.12965410032E+03  0.11520528728E+03  0.31031098089E+03  0.36712736512E+03  0.91690530643E+02 0.  0.
        -11    1    1    2    0    0 -0.44738433633E+02 -0.48434545998E+02  0.14798957614E+03  0.16201341715E+03  0.00000000000E+00 0. -1.
         11    1    1    2    0    0 -0.84915666682E+02 -0.66770741281E+02 -0.45830055704E+03  0.47085921773E+03  0.00000000000E+00 0.  1.
        -15    1    3    3    0    0  0.96401635680E+02  0.12754378393E+03  0.26583627517E+03  0.31021407948E+03  0.17770000000E+01 0. -1.
         15    1    3    3    0    0  0.33252464635E+02 -0.12338496653E+02  0.44474705719E+02  0.56913285635E+02  0.17770000000E+01 0.  1.
</event>
<event>
 7    1  0.2288857E-006  0.5339449E+03  0.7546771E-02  0.9326903E-01
        -11   -1    0    0    0    0  0.00000000000E+00  0.00000000000E+00  0.50000000000E+03  0.50000000000E+03  0.00000000000E+00 0.  1.
         11   -1    0    0    0    0 -0.00000000000E+00 -0.00000000000E+00 -0.50000000000E+03  0.50000000000E+03  0.00000000000E+00 0. -1.
         23    2    1    2    0    0  0.22415715916E+02 -0.13118873007E+03  0.33912660093E+03  0.37508046723E+03  0.89249976020E+02 0.  0.
        -11    1    1    2    0    0  0.13351022490E+03  0.15787224223E+02  0.84638600441E+02  0.15886443682E+03  0.00000000000E+00 0.  1.
         11    1    1    2    0    0 -0.15592594081E+03  0.11540150585E+03 -0.42376520137E+03  0.46605509595E+03  0.00000000000E+00 0. -1.
        -15    1    3    3    0    0  0.22375715707E+02  0.44280153842E+01  0.31977377948E+02  0.39319084463E+02  0.17770000000E+01 0. -1.
         15    1    3    3    0    0  0.40000208915E-01 -0.13561674546E+03  0.30714922298E+03  0.33576138277E+03  0.17770000000E+01 0.  1.
</event>
<event>
 7    1  0.2288857E-006  0.5183948E+03  0.7546771E-02  0.9359565E-01
        -11   -1    0    0    0    0  0.00000000000E+00  0.00000000000E+00  0.50000000000E+03  0.50000000000E+03  0.00000000000E+00 0. -1.
         11   -1    0    0    0    0 -0.00000000000E+00 -0.00000000000E+00 -0.50000000000E+03  0.50000000000E+03  0.00000000000E+00 0.  1.
         23    2    1    2    0    0 -0.80256526966E+02  0.43923422058E+02  0.36414331874E+03  0.38550326002E+03  0.87418703816E+02 0.  0.
        -11    1    1    2    0    0 -0.10654477419E+03  0.29923287284E+02  0.73572906949E+02  0.13289155228E+03  0.00000000000E+00 0. -1.
         11    1    1    2    0    0  0.18680130116E+03 -0.73846709342E+02 -0.43771622569E+03  0.48160518771E+03  0.00000000000E+00 0.  1.
        -15    1    3    3    0    0 -0.44272130517E+02 -0.11837929591E+02  0.68070475096E+02  0.82078653902E+02  0.17770000000E+01 0.  1.
         15    1    3    3    0    0 -0.35984396449E+02  0.55761351649E+02  0.29607284364E+03  0.30342460612E+03  0.17770000000E+01 0. -1.
</event>
<event>
 7    1  0.2288857E-006  0.3336555E+03  0.7546771E-02  0.9875700E-01
        -11   -1    0    0    0    0  0.00000000000E+00  0.00000000000E+00  0.50000000000E+03  0.50000000000E+03  0.00000000000E+00 0. -1.
         11   -1    0    0    0    0 -0.00000000000E+00 -0.00000000000E+00 -0.50000000000E+03  0.50000000000E+03  0.00000000000E+00 0. -1.
         23    2    1    2    0    0  0.22008071061E+02  0.51937086736E+02  0.27664207603E+03  0.29791214221E+03  0.95073603478E+02 0.  0.
        -11    1    1    2    0    0 -0.51719065624E+02  0.28030673513E+03 -0.28732824147E+02  0.28648263942E+03  0.00000000000E+00 0. -1.
         11    1    1    2    0    0  0.29710994563E+02 -0.33224382186E+03 -0.24790925188E+03  0.41560521837E+03  0.00000000000E+00 0. -1.
        -15    1    3    3    0    0  0.13499696364E+01 -0.26047031387E+02  0.10564715489E+03  0.10883358547E+03  0.17770000000E+01 0. -1.
         15    1    3    3    0    0  0.20658101425E+02  0.77984118123E+02  0.17099492114E+03  0.18907855674E+03  0.17770000000E+01 0.  1.
</event>
<event>
 7    1  0.2288857E-006  0.5133925E+03  0.7546771E-02  0.9370332E-01
        -11   -1    0    0    0    0  0.00000000000E+00  0.00000000000E+00  0.50000000000E+03  0.50000000000E+03  0.00000000000E+00 0. -1.
         11   -1    0    0    0    0 -0.00000000000E+00 -0.00000000000E+00 -0.50000000000E+03  0.50000000000E+03  0.00000000000E+00 0. -1.
         23    2    1    2    0    0 -0.48149449047E+02 -0.13374602970E+03 -0.11238639272E+03  0.20495178859E+03  0.95750532490E+02 0.  0.
        -11    1    1    2    0    0  0.85831871456E+02  0.32850958179E+03  0.34857029587E+03  0.48660754890E+03  0.00000000000E+00 0. -1.
         11    1    1    2    0    0 -0.37682422409E+02 -0.19476355210E+03 -0.23618390315E+03  0.30844066251E+03  0.00000000000E+00 0. -1.
        -15    1    3    3    0    0 -0.75426950718E+02 -0.11223286781E+03 -0.99338207921E+02  0.16779951964E+03  0.17770000000E+01 0.  1.
         15    1    3    3    0    0  0.27277501671E+02 -0.21513161889E+02 -0.13048184803E+02  0.37152268942E+02  0.17770000000E+01 0. -1.
</event>
<event>
 7    1  0.2288857E-006  0.5156874E+03  0.7546771E-02  0.9365376E-01
        -11   -1    0    0    0    0  0.00000000000E+00  0.00000000000E+00  0.50000000000E+03  0.50000000000E+03  0.00000000000E+00 0.  1.
         11   -1    0    0    0    0 -0.00000000000E+00 -0.00000000000E+00 -0.50000000000E+03  0.50000000000E+03  0.00000000000E+00 0. -1.
         23    2    1    2    0    0 -0.30140488169E+02 -0.52668661027E+02  0.25821885718E+03  0.28080887084E+03  0.92164021511E+02 0.  0.
        -11    1    1    2    0    0  0.87825017665E+02 -0.23610582039E+02  0.21655763075E+03  0.23487848081E+03  0.00000000000E+00 0.  1.
         11    1    1    2    0    0 -0.57684529496E+02  0.76279243066E+02 -0.47477648792E+03  0.48431264835E+03  0.00000000000E+00 0. -1.
        -15    1    3    3    0    0 -0.37013092477E+02 -0.92600549833E+01  0.30493747522E+02  0.48874778771E+02  0.17770000000E+01 0.  1.
         15    1    3    3    0    0  0.68726043089E+01 -0.43408606044E+02  0.22772510966E+03  0.23193409207E+03  0.17770000000E+01 0. -1.
</event>
<event>
 7    1  0.2288857E-006  0.5132955E+03  0.7546771E-02  0.9370542E-01
        -11   -1    0    0    0    0  0.00000000000E+00  0.00000000000E+00  0.50000000000E+03  0.50000000000E+03  0.00000000000E+00 0.  1.
         11   -1    0    0    0    0 -0.00000000000E+00 -0.00000000000E+00 -0.50000000000E+03  0.50000000000E+03  0.00000000000E+00 0. -1.
         23    2    1    2    0    0  0.30104962464E+01 -0.16194224295E+02  0.27298998301E+03  0.28811574490E+03  0.90641246929E+02 0.  0.
        -11    1    1    2    0    0 -0.87915726461E+02  0.21159380510E+02  0.20622571274E+03  0.22517979247E+03  0.00000000000E+00 0.  1.
         11    1    1    2    0    0  0.84905230214E+02 -0.49651562148E+01 -0.47921569575E+03  0.48670446263E+03  0.00000000000E+00 0. -1.
        -15    1    3    3    0    0  0.22396554401E+02  0.28517843404E+02  0.64666352903E+02  0.74160420497E+02  0.17770000000E+01 0. -1.
         15    1    3    3    0    0 -0.19386058155E+02 -0.44712067699E+02  0.20832363011E+03  0.21395532440E+03  0.17770000000E+01 0.  1.
</event>
<event>
 7    1  0.2288857E-006  0.5023612E+03  0.7546771E-02  0.9394542E-01
        -11   -1    0    0    0    0  0.00000000000E+00  0.00000000000E+00  0.50000000000E+03  0.50000000000E+03  0.00000000000E+00 0. -1.
         11   -1    0    0    0    0 -0.00000000000E+00 -0.00000000000E+00 -0.50000000000E+03  0.50000000000E+03  0.00000000000E+00 0. -1.
         23    2    1    2    0    0 -0.20542841460E+02 -0.14257350300E+03  0.46701678760E+03  0.49763881134E+03  0.93757637352E+02 0.  0.
        -11    1    1    2    0    0  0.41673404743E+02  0.39820992419E+02 -0.64966392369E+02  0.86850539650E+02  0.00000000000E+00 0. -1.
         11    1    1    2    0    0 -0.21130563283E+02  0.10275251059E+03 -0.40205039523E+03  0.41551064901E+03  0.00000000000E+00 0. -1.
        -15    1    3    3    0    0  0.32274124257E+02 -0.20364337801E+02  0.12106067247E+03  0.12694553753E+03  0.17770000000E+01 0.  1.
         15    1    3    3    0    0 -0.52816965716E+02 -0.12220916520E+03  0.34595611513E+03  0.37069327382E+03  0.17770000000E+01 0. -1.
</event>
<event>
 6    1  0.2288857E-006  0.5002632E+03  0.7546771E-02  0.9399221E-01
        -11   -1    0    0    0    0  0.00000000000E+00  0.00000000000E+00  0.50000000000E+03  0.50000000000E+03  0.00000000000E+00 0.  1.
         11   -1    0    0    0    0 -0.00000000000E+00 -0.00000000000E+00 -0.50000000000E+03  0.50000000000E+03  0.00000000000E+00 0. -1.
        -11    1    1    2    0    0  0.37548419210E+02  0.39114140981E+02 -0.69345070290E+02  0.88025783628E+02  0.00000000000E+00 0.  1.
         11    1    1    2    0    0 -0.46141935241E+02 -0.11031198860E+03 -0.39451473073E+03  0.41223741434E+03  0.00000000000E+00 0. -1.
        -15    1    1    2    0    0  0.56853871499E+02  0.59526725389E+02  0.43406436966E+03  0.44180406118E+03  0.17770000000E+01 0. -1.
         15    1    1    2    0    0 -0.48260355468E+02  0.11671122233E+02  0.29795431361E+02  0.57932740856E+02  0.17770000000E+01 0.  1.
</event>
<event>
 7    1  0.2288857E-006  0.3706746E+03  0.7546771E-02  0.9747251E-01
        -11   -1    0    0    0    0  0.00000000000E+00  0.00000000000E+00  0.50000000000E+03  0.50000000000E+03  0.00000000000E+00 0. -1.
         11   -1    0    0    0    0 -0.00000000000E+00 -0.00000000000E+00 -0.50000000000E+03  0.50000000000E+03  0.00000000000E+00 0. -1.
         23    2    1    2    0    0  0.96547841210E+02  0.15449462839E+03  0.23718695467E+03  0.31627844817E+03  0.10288017044E+03 0.  0.
        -11    1    1    2    0    0 -0.13566170277E+03 -0.28705741684E+02  0.19083103170E+03  0.23589107627E+03  0.00000000000E+00 0. -1.
         11    1    1    2    0    0  0.39113861565E+02 -0.12578888671E+03 -0.42801798637E+03  0.44783047556E+03  0.00000000000E+00 0. -1.
        -15    1    3    3    0    0  0.11269397313E+03  0.10648450068E+03  0.20167921856E+03  0.25439446809E+03  0.17770000000E+01 0. -1.
         15    1    3    3    0    0 -0.16146131920E+02  0.48010127707E+02  0.35507736107E+02  0.61883980083E+02  0.17770000000E+01 0.  1.
</event>
<event>
 7    1  0.2288857E-006  0.5115719E+03  0.7546771E-02  0.9374283E-01
        -11   -1    0    0    0    0  0.00000000000E+00  0.00000000000E+00  0.50000000000E+03  0.50000000000E+03  0.00000000000E+00 0.  1.
         11   -1    0    0    0    0 -0.00000000000E+00 -0.00000000000E+00 -0.50000000000E+03  0.50000000000E+03  0.00000000000E+00 0. -1.
         23    2    1    2    0    0 -0.35176812365E+02  0.32727156232E+01 -0.16331890756E+03  0.19010520065E+03  0.90657613863E+02 0.  0.
        -11    1    1    2    0    0  0.88963127951E+02 -0.16971998155E+02  0.47995782665E+03  0.48842809319E+03  0.00000000000E+00 0.  1.
         11    1    1    2    0    0 -0.53786315586E+02  0.13699282532E+02 -0.31663891909E+03  0.32146670615E+03  0.00000000000E+00 0. -1.
        -15    1    3    3    0    0  0.14020016471E+02  0.29240975862E+02 -0.10314569752E+03  0.10813782029E+03  0.17770000000E+01 0. -1.
         15    1    3    3    0    0 -0.49196828837E+02 -0.25968260239E+02 -0.60173210043E+02  0.81967380361E+02  0.17770000000E+01 0.  1.
</event>
<event>
 6    1  0.4808736E-006  0.5536543E+03  0.7546771E-02  0.9287160E-01
        -11   -1    0    0    0    0  0.00000000000E+00  0.00000000000E+00  0.50000000000E+03  0.50000000000E+03  0.00000000000E+00 0. -1.
         11   -1    0    0    0    0 -0.00000000000E+00 -0.00000000000E+00 -0.50000000000E+03  0.50000000000E+03  0.00000000000E+00 0. -1.
        -11    1    1    2    0    0 -0.11506012364E+03 -0.13068665230E+02  0.43106245992E+03  0.44634568041E+03  0.00000000000E+00 0. -1.
         11    1    1    2    0    0 -0.44655817692E+02  0.49039359468E+02 -0.27801698971E+03  0.28581890664E+03  0.00000000000E+00 0. -1.
        -15    1    1    2    0    0  0.49876599965E+02 -0.31891561679E+01 -0.14446261504E+03  0.15287397036E+03  0.17770000000E+01 0.  1.
         15    1    1    2    0    0  0.10983934137E+03 -0.32781538069E+02 -0.85828551818E+01  0.11496144259E+03  0.17770000000E+01 0. -1.
</event>
<event>
 7    1  0.2288857E-006  0.5158091E+03  0.7546771E-02  0.9365114E-01
        -11   -1    0    0    0    0  0.00000000000E+00  0.00000000000E+00  0.50000000000E+03  0.50000000000E+03  0.00000000000E+00 0. -1.
         11   -1    0    0    0    0 -0.00000000000E+00 -0.00000000000E+00 -0.50000000000E+03  0.50000000000E+03  0.00000000000E+00 0.  1.
         23    2    1    2    0    0  0.66549405279E+02 -0.57481267102E+02  0.24229752432E+03  0.27296153060E+03  0.89816409892E+02 0.  0.
        -11    1    1    2    0    0  0.66840332371E+02  0.69085325174E+02  0.22301241327E+03  0.24284758318E+03  0.00000000000E+00 0. -1.
         11    1    1    2    0    0 -0.13338973765E+03 -0.11604058072E+02 -0.46530993759E+03  0.48419088622E+03  0.00000000000E+00 0.  1.
        -15    1    3    3    0    0  0.75541265703E+02 -0.38350302547E+02  0.23612369516E+03  0.25086806428E+03  0.17770000000E+01 0.  1.
         15    1    3    3    0    0 -0.89918604248E+01 -0.19130964554E+02  0.61738291607E+01  0.22093466323E+02  0.17770000000E+01 0.  1.
</event>
<event>
 7    1  0.2288857E-006  0.5241995E+03  0.7546771E-02  0.9347232E-01
        -11   -1    0    0    0    0  0.00000000000E+00  0.00000000000E+00  0.50000000000E+03  0.50000000000E+03  0.00000000000E+00 0.  1.
         11   -1    0    0    0    0 -0.00000000000E+00 -0.00000000000E+00 -0.50000000000E+03  0.50000000000E+03  0.00000000000E+00 0. -1.
         23    2    1    2    0    0  0.68641574440E+01 -0.15135063486E+02  0.53725838291E+02  0.10276744316E+03  0.86014503833E+02 0.  0.
        -11    1    1    2    0    0  0.14208522864E+03 -0.42199032566E+02  0.39450732762E+03  0.42143208479E+03  0.00000000000E+00 0.  1.
         11    1    1    2    0    0 -0.14894938609E+03  0.57334096052E+02 -0.44823316591E+03  0.47580047205E+03  0.00000000000E+00 0. -1.
        -15    1    3    3    0    0 -0.13625148338E+02 -0.38712263684E+02  0.58122384289E+02  0.71173403116E+02  0.17770000000E+01 0.  1.
         15    1    3    3    0    0  0.20489305782E+02  0.23577200198E+02 -0.43965459983E+01  0.31594040044E+02  0.17770000000E+01 0. -1.
</event>
<event>
 7    1  0.2288857E-006  0.4854315E+03  0.7546771E-02  0.9433011E-01
        -11   -1    0    0    0    0  0.00000000000E+00  0.00000000000E+00  0.50000000000E+03  0.50000000000E+03  0.00000000000E+00 0.  1.
         11   -1    0    0    0    0 -0.00000000000E+00 -0.00000000000E+00 -0.50000000000E+03  0.50000000000E+03  0.00000000000E+00 0.  1.
         23    2    1    2    0    0 -0.47513733729E+02 -0.92789365923E+02  0.46996493714E+03  0.49005886680E+03  0.91778153544E+02 0.  0.
        -11    1    1    2    0    0  0.36497795448E+02 -0.16629871266E+01 -0.68601585868E+01  0.37174135828E+02  0.00000000000E+00 0.  1.
         11    1    1    2    0    0  0.11015938281E+02  0.94452353049E+02 -0.46310477855E+03  0.47276699738E+03  0.00000000000E+00 0.  1.
        -15    1    3    3    0    0 -0.58149999885E+02 -0.15205935301E+02  0.22338940446E+03  0.23134093177E+03  0.17770000000E+01 0.  1.
         15    1    3    3    0    0  0.10636266156E+02 -0.77583430622E+02  0.24657553267E+03  0.25871793503E+03  0.17770000000E+01 0. -1.
</event>
<event>
 7    1  0.2288857E-006  0.5304753E+03  0.7546771E-02  0.9334088E-01
        -11   -1    0    0    0    0  0.00000000000E+00  0.00000000000E+00  0.50000000000E+03  0.50000000000E+03  0.00000000000E+00 0. -1.
         11   -1    0    0    0    0 -0.00000000000E+00 -0.00000000000E+00 -0.50000000000E+03  0.50000000000E+03  0.00000000000E+00 0. -1.
         23    2    1    2    0    0  0.14076915078E+03 -0.20604175950E+03 -0.17376219288E+03  0.31719807653E+03  0.90289310611E+02 0.  0.
        -11    1    1    2    0    0 -0.34844076332E+03  0.25255326932E+03  0.18777469188E+03  0.46952471107E+03  0.00000000000E+00 0. -1.
         11    1    1    2    0    0  0.20767161254E+03 -0.46511509826E+02 -0.14012498999E+02  0.21327721240E+03  0.00000000000E+00 0. -1.
        -15    1    3    3    0    0  0.65695463785E+02 -0.82893696907E+02 -0.22427165827E+02  0.10813599976E+03  0.17770000000E+01 0.  1.
         15    1    3    3    0    0  0.75073686995E+02 -0.12314806259E+03 -0.15133502706E+03  0.20906207677E+03  0.17770000000E+01 0. -1.
</event>
<event>
 7    1  0.2288857E-006  0.3793877E+03  0.7546771E-02  0.9719344E-01
        -11   -1    0    0    0    0  0.00000000000E+00  0.00000000000E+00  0.50000000000E+03  0.50000000000E+03  0.00000000000E+00 0.  1.
         11   -1    0    0    0    0 -0.00000000000E+00 -0.00000000000E+00 -0.50000000000E+03  0.50000000000E+03  0.00000000000E+00 0. -1.
         23    2    1    2    0    0  0.95973184929E+02 -0.55471362335E+02  0.16185768110E+03  0.21627439346E+03  0.91042737614E+02 0.  0.
        -11    1    1    2    0    0 -0.22210234867E+03  0.14425112621E+02  0.25956424878E+03  0.34192270530E+03  0.00000000000E+00 0.  1.
         11    1    1    2    0    0  0.12612916374E+03  0.41046249714E+02 -0.42142192987E+03  0.44180290124E+03  0.00000000000E+00 0. -1.
        -15    1    3    3    0    0 -0.12075119927E+02 -0.25770617325E+02  0.52196188132E+02  0.59477163879E+02  0.17770000000E+01 0.  1.
         15    1    3    3    0    0  0.10804830486E+03 -0.29700745010E+02  0.10966149296E+03  0.15679722958E+03  0.17770000000E+01 0. -1.
</event>
<event>
 7    1  0.2288857E-006  0.5155174E+03  0.7546771E-02  0.9365742E-01
        -11   -1    0    0    0    0  0.00000000000E+00  0.00000000000E+00  0.50000000000E+03  0.50000000000E+03  0.00000000000E+00 0.  1.
         11   -1    0    0    0    0 -0.00000000000E+00 -0.00000000000E+00 -0.50000000000E+03  0.50000000000E+03  0.00000000000E+00 0.  1.
         23    2    1    2    0    0  0.60855989019E+02  0.12586712952E+02  0.34486681072E+03  0.36251951067E+03  0.92873040964E+02 0.  0.
        -11    1    1    2    0    0  0.35740487026E+01  0.88906334216E+02  0.12446386942E+03  0.15299792443E+03  0.00000000000E+00 0.  1.
         11    1    1    2    0    0 -0.64430037722E+02 -0.10149304717E+03 -0.46933068013E+03  0.48448256491E+03  0.00000000000E+00 0.  1.
        -15    1    3    3    0    0  0.56128526760E+02  0.48313671690E+02  0.25884080721E+03  0.26923287985E+03  0.17770000000E+01 0.  1.
         15    1    3    3    0    0  0.47274622592E+01 -0.35726958738E+02  0.86026003509E+02  0.93286630815E+02  0.17770000000E+01 0. -1.
</event>
<event>
 7    1  0.2288857E-006  0.3877676E+03  0.7546771E-02  0.9693251E-01
        -11   -1    0    0    0    0  0.00000000000E+00  0.00000000000E+00  0.50000000000E+03  0.50000000000E+03  0.00000000000E+00 0.  1.
         11   -1    0    0    0    0 -0.00000000000E+00 -0.00000000000E+00 -0.50000000000E+03  0.50000000000E+03  0.00000000000E+00 0. -1.
         23    2    1    2    0    0 -0.16507954875E+02 -0.12974382495E+02  0.18311340120E+03  0.20286381733E+03  0.84748826009E+02 0.  0.
        -11    1    1    2    0    0 -0.35993346275E+03  0.11558861570E+03 -0.34476997247E+02  0.37960701920E+03  0.00000000000E+00 0.  1.
         11    1    1    2    0    0  0.37644141763E+03 -0.10261423320E+03 -0.14863640395E+03  0.41752916346E+03  0.00000000000E+00 0. -1.
        -15    1    3    3    0    0 -0.14747246522E+01  0.32371225228E+02  0.37445231147E+02  0.49551731556E+02  0.17770000000E+01 0. -1.
         15    1    3    3    0    0 -0.15033230222E+02 -0.45345607723E+02  0.14566817005E+03  0.15331208578E+03  0.17770000000E+01 0.  1.
</event>
<event>
 7    1  0.2288857E-006  0.4755597E+03  0.7546771E-02  0.9456221E-01
        -11   -1    0    0    0    0  0.00000000000E+00  0.00000000000E+00  0.50000000000E+03  0.50000000000E+03  0.00000000000E+00 0.  1.
         11   -1    0    0    0    0 -0.00000000000E+00 -0.00000000000E+00 -0.50000000000E+03  0.50000000000E+03  0.00000000000E+00 0. -1.
         23    2    1    2    0    0  0.85140143955E+02 -0.36146380251E+02 -0.43032928773E+03  0.45048276426E+03  0.95895881524E+02 0.  0.
        -11    1    1    2    0    0 -0.72654601986E+02  0.45616982871E+02  0.48505964533E+03  0.49258751491E+03  0.00000000000E+00 0.  1.
         11    1    1    2    0    0 -0.12485541969E+02 -0.94706026200E+01 -0.54730357593E+02  0.56929720836E+02  0.00000000000E+00 0. -1.
        -15    1    3    3    0    0 -0.71856755387E+01 -0.14235457346E+02 -0.85961036928E+01  0.18202552198E+02  0.17770000000E+01 0.  1.
         15    1    3    3    0    0  0.92325819493E+02 -0.21910922905E+02 -0.42173318404E+03  0.43228021206E+03  0.17770000000E+01 0. -1.
</event>
<event>
 7    1  0.2288857E-006  0.5139196E+03  0.7546771E-02  0.9369191E-01
        -11   -1    0    0    0    0  0.00000000000E+00  0.00000000000E+00  0.50000000000E+03  0.50000000000E+03  0.00000000000E+00 0.  1.
         11   -1    0    0    0    0 -0.00000000000E+00 -0.00000000000E+00 -0.50000000000E+03  0.50000000000E+03  0.00000000000E+00 0. -1.
         23    2    1    2    0    0 -0.10684651592E+03  0.11499654858E+03 -0.29311252718E+03  0.34461250794E+03  0.90567339003E+02 0.  0.
        -11    1    1    2    0    0  0.89247995251E+02 -0.22206759960E+03  0.42307786966E+03  0.48608035061E+03  0.00000000000E+00 0.  1.
         11    1    1    2    0    0  0.17598520664E+02  0.10707105102E+03 -0.12996534248E+03  0.16930714144E+03  0.00000000000E+00 0. -1.
        -15    1    3    3    0    0 -0.59955363206E+02  0.71076970812E+02 -0.25124640100E+03  0.26790762046E+03  0.17770000000E+01 0. -1.
         15    1    3    3    0    0 -0.46891152709E+02  0.43919577766E+02 -0.41866126181E+02  0.76704887484E+02  0.17770000000E+01 0.  1.
</event>
<event>
 7    1  0.2288857E-006  0.5344504E+03  0.7546771E-02  0.9325861E-01
        -11   -1    0    0    0    0  0.00000000000E+00  0.00000000000E+00  0.50000000000E+03  0.50000000000E+03  0.00000000000E+00 0.  1.
         11   -1    0    0    0    0 -0.00000000000E+00 -0.00000000000E+00 -0.50000000000E+03  0.50000000000E+03  0.00000000000E+00 0.  1.
         23    2    1    2    0    0  0.18008537139E+02  0.65312705918E+02  0.17896412403E+03  0.21195988512E+03  0.91152499941E+02 0.  0.
        -11    1    1    2    0    0  0.65178034518E+02 -0.16803191270E+03  0.26742711981E+03  0.32249056464E+03  0.00000000000E+00 0.  1.
         11    1    1    2    0    0 -0.83186571657E+02  0.10271920678E+03 -0.44639124385E+03  0.46554955024E+03  0.00000000000E+00 0.  1.
        -15    1    3    3    0    0 -0.31093092683E+01 -0.18027525922E+02  0.74101420010E+02  0.76346824895E+02  0.17770000000E+01 0.  1.
         15    1    3    3    0    0  0.21117846407E+02  0.83340231840E+02  0.10486270402E+03  0.13561306023E+03  0.17770000000E+01 0. -1.
</event>
<event>
 7    1  0.2288857E-006  0.5153825E+03  0.7546771E-02  0.9366033E-01
        -11   -1    0    0    0    0  0.00000000000E+00  0.00000000000E+00  0.50000000000E+03  0.50000000000E+03  0.00000000000E+00 0. -1.
         11   -1    0    0    0    0 -0.00000000000E+00 -0.00000000000E+00 -0.50000000000E+03  0.50000000000E+03  0.00000000000E+00 0.  1.
         23    2    1    2    0    0  0.35023623340E+01  0.11854624651E+02  0.24011873276E+03  0.25711951516E+03  0.91107851384E+02 0.  0.
        -11    1    1    2    0    0 -0.47056318292E+02 -0.95776771332E+02  0.23518563740E+03  0.25826298817E+03  0.00000000000E+00 0. -1.
         11    1    1    2    0    0  0.43553955958E+02  0.83922146681E+02 -0.47530437017E+03  0.48461749667E+03  0.00000000000E+00 0.  1.
        -15    1    3    3    0    0 -0.39161220799E+02  0.19670155588E+02  0.16108027569E+03  0.16694468899E+03  0.17770000000E+01 0. -1.
         15    1    3    3    0    0  0.42663583133E+02 -0.78155309374E+01  0.79038457072E+02  0.90174826171E+02  0.17770000000E+01 0.  1.
</event>
<event>
 7    1  0.2288857E-006  0.4198249E+03  0.7546771E-02  0.9599573E-01
        -11   -1    0    0    0    0  0.00000000000E+00  0.00000000000E+00  0.50000000000E+03  0.50000000000E+03  0.00000000000E+00 0. -1.
         11   -1    0    0    0    0 -0.00000000000E+00 -0.00000000000E+00 -0.50000000000E+03  0.50000000000E+03  0.00000000000E+00 0.  1.
         23    2    1    2    0    0  0.29003168775E+02  0.11526825484E+03  0.15521796956E+02  0.15183692219E+03  0.93196407586E+02 0.  0.
        -11    1    1    2    0    0 -0.85522643876E+02 -0.62708978977E+02  0.40600597232E+03  0.41962767809E+03  0.00000000000E+00 0. -1.
         11    1    1    2    0    0  0.56519475100E+02 -0.52559275865E+02 -0.42152776927E+03  0.42853539972E+03  0.00000000000E+00 0.  1.
        -15    1    3    3    0    0  0.59212953968E+02  0.51673504597E+02  0.20483314275E+02  0.81234530143E+02  0.17770000000E+01 0. -1.
         15    1    3    3    0    0 -0.30209785192E+02  0.63594750245E+02 -0.49615173184E+01  0.70602392050E+02  0.17770000000E+01 0.  1.
</event>
<event>
 7    1  0.2288857E-006  0.5160839E+03  0.7546771E-02  0.9364523E-01
        -11   -1    0    0    0    0  0.00000000000E+00  0.00000000000E+00  0.50000000000E+03  0.50000000000E+03  0.00000000000E+00 0.  1.
         11   -1    0    0    0    0 -0.00000000000E+00 -0.00000000000E+00 -0.50000000000E+03  0.50000000000E+03  0.00000000000E+00 0. -1.
         23    2    1    2    0    0 -0.99819707238E+01 -0.23708660423E+01  0.34786467935E+03  0.36070089582E+03  0.94815823336E+02 0.  0.
        -11    1    1    2    0    0 -0.86783355129E+02  0.29314305687E+02  0.12551178977E+03  0.15538303838E+03  0.00000000000E+00 0.  1.
         11    1    1    2    0    0  0.96765325853E+02 -0.26943439645E+02 -0.47337646912E+03  0.48391606581E+03  0.00000000000E+00 0. -1.
        -15    1    3    3    0    0  0.21091790992E+01 -0.47699112009E+02  0.19635726483E+03  0.20208658318E+03  0.17770000000E+01 0. -1.
         15    1    3    3    0    0 -0.12091149823E+02  0.45328245967E+02  0.15150741453E+03  0.15861431263E+03  0.17770000000E+01 0.  1.
</event>
<event>
 7    1  0.2288857E-006  0.5276598E+03  0.7546771E-02  0.9339961E-01
        -11   -1    0    0    0    0  0.00000000000E+00  0.00000000000E+00  0.50000000000E+03  0.50000000000E+03  0.00000000000E+00 0.  1.
         11   -1    0    0    0    0 -0.00000000000E+00 -0.00000000000E+00 -0.50000000000E+03  0.50000000000E+03  0.00000000000E+00 0.  1.
         23    2    1    2    0    0  0.16157218021E+03  0.68003517237E+02  0.34340154006E+03  0.39628842188E+03  0.91596112533E+02 0.  0.
        -11    1    1    2    0    0 -0.50500122158E+02 -0.39146001097E+02  0.11478569793E+03  0.13137133701E+03  0.00000000000E+00 0.  1.
         11    1    1    2    0    0 -0.11107205805E+03 -0.28857516140E+02 -0.45818723798E+03  0.47234024111E+03  0.00000000000E+00 0.  1.
        -15    1    3    3    0    0  0.13175207718E+03  0.21465386598E+02  0.18226928371E+03  0.22593056937E+03  0.17770000000E+01 0.  1.
         15    1    3    3    0    0  0.29820103028E+02  0.46538130639E+02  0.16113225635E+03  0.17035785251E+03  0.17770000000E+01 0. -1.
</event>
<event>
 7    1  0.2288857E-006  0.4083213E+03  0.7546771E-02  0.9632128E-01
        -11   -1    0    0    0    0  0.00000000000E+00  0.00000000000E+00  0.50000000000E+03  0.50000000000E+03  0.00000000000E+00 0.  1.
         11   -1    0    0    0    0 -0.00000000000E+00 -0.00000000000E+00 -0.50000000000E+03  0.50000000000E+03  0.00000000000E+00 0. -1.
         23    2    1    2    0    0  0.96129869556E+02  0.19773893560E+02  0.10644125686E+03  0.17062258877E+03  0.90279388285E+02 0.  0.
        -11    1    1    2    0    0 -0.17224115246E+03 -0.14833343667E+03  0.31145239553E+03  0.38558062415E+03  0.00000000000E+00 0.  1.
         11    1    1    2    0    0  0.76111282903E+02  0.12855954311E+03 -0.41789365240E+03  0.44379678708E+03  0.00000000000E+00 0. -1.
        -15    1    3    3    0    0  0.42256277811E+02  0.54511874807E+02  0.60150857267E+02  0.91533714380E+02  0.17770000000E+01 0. -1.
         15    1    3    3    0    0  0.53873591745E+02 -0.34737981247E+02  0.46290399596E+02  0.79088874390E+02  0.17770000000E+01 0.  1.
</event>
<event>
 7    1  0.2288857E-006  0.5396000E+03  0.7546771E-02  0.9315316E-01
        -11   -1    0    0    0    0  0.00000000000E+00  0.00000000000E+00  0.50000000000E+03  0.50000000000E+03  0.00000000000E+00 0. -1.
         11   -1    0    0    0    0 -0.00000000000E+00 -0.00000000000E+00 -0.50000000000E+03  0.50000000000E+03  0.00000000000E+00 0.  1.
         23    2    1    2    0    0  0.11540622581E+03  0.84718954718E+02  0.17431657083E+03  0.24354795601E+03  0.91833772447E+02 0.  0.
        -11    1    1    2    0    0 -0.31033018481E+02 -0.96575890179E+02  0.27813096852E+03  0.29605199957E+03  0.00000000000E+00 0. -1.
         11    1    1    2    0    0 -0.84373207334E+02  0.11856935461E+02 -0.45244753936E+03  0.46040004442E+03  0.00000000000E+00 0.  1.
        -15    1    3    3    0    0  0.12322802191E+03  0.93891003942E+02  0.14671032361E+03  0.21337231026E+03  0.17770000000E+01 0. -1.
         15    1    3    3    0    0 -0.78217960930E+01 -0.91720492243E+01  0.27606247228E+02  0.30175645744E+02  0.17770000000E+01 0.  1.
</event>
<event>
 7    1  0.2288857E-006  0.5267147E+03  0.7546771E-02  0.9341941E-01
        -11   -1    0    0    0    0  0.00000000000E+00  0.00000000000E+00  0.50000000000E+03  0.50000000000E+03  0.00000000000E+00 0.  1.
         11   -1    0    0    0    0 -0.00000000000E+00 -0.00000000000E+00 -0.50000000000E+03  0.50000000000E+03  0.00000000000E+00 0. -1.
         23    2    1    2    0    0  0.38033114300E+02 -0.81444710226E+02  0.28841906693E+03  0.31511233503E+03  0.89612872443E+02 0.  0.
        -11    1    1    2    0    0 -0.13120090917E+03 -0.16113893234E+02  0.16523390226E+03  0.21160240684E+03  0.00000000000E+00 0.  1.
         11    1    1    2    0    0  0.93167794867E+02  0.97558603460E+02 -0.45365296920E+03  0.47328525814E+03  0.00000000000E+00 0. -1.
        -15    1    3    3    0    0  0.62138491219E+01 -0.91735667683E+02  0.18862580638E+03  0.20984970147E+03  0.17770000000E+01 0.  1.
         15    1    3    3    0    0  0.31819265178E+02  0.10290957457E+02  0.99793260556E+02  0.10526263356E+03  0.17770000000E+01 0. -1.
</event>
<event>
 7    1  0.3875060E-006  0.4011292E+03  0.7546771E-02  0.9653070E-01
        -11   -1    0    0    0    0  0.00000000000E+00  0.00000000000E+00  0.50000000000E+03  0.50000000000E+03  0.00000000000E+00 0.  1.
         11   -1    0    0    0    0 -0.00000000000E+00 -0.00000000000E+00 -0.50000000000E+03  0.50000000000E+03  0.00000000000E+00 0. -1.
         23    2    1    2    0    0 -0.14513864747E+03 -0.17836654437E+02 -0.44016428259E+02  0.18333652774E+03  0.10144684922E+03 0.  0.
        -11    1    1    2    0    0  0.80134312018E+02  0.13745339184E+02  0.42370175087E+03  0.43143205259E+03  0.00000000000E+00 0.  1.
         11    1    1    2    0    0  0.65004335456E+02  0.40913152536E+01 -0.37968532261E+03  0.38523141966E+03  0.00000000000E+00 0. -1.
        -15    1    3    3    0    0 -0.10568595502E+03  0.72247522269E+01  0.16103832846E+02  0.10716440312E+03  0.17770000000E+01 0. -1.
         15    1    3    3    0    0 -0.39452692449E+02 -0.25061406664E+02 -0.60120261106E+02  0.76172124625E+02  0.17770000000E+01 0.  1.
</event>
<event>
 7    1  0.2288857E-006  0.5184726E+03  0.7546771E-02  0.9359399E-01
        -11   -1    0    0    0    0  0.00000000000E+00  0.00000000000E+00  0.50000000000E+03  0.50000000000E+03  0.00000000000E+00 0.  1.
         11   -1    0    0    0    0 -0.00000000000E+00 -0.00000000000E+00 -0.50000000000E+03  0.50000000000E+03  0.00000000000E+00 0. -1.
         23    2    1    2    0    0  0.43902192151E+02 -0.23099652632E+02  0.12766959557E+03  0.16414137421E+03  0.90453682456E+02 0.  0.
        -11    1    1    2    0    0 -0.41393966585E+02 -0.80460006784E+02  0.34258329656E+03  0.35433118440E+03  0.00000000000E+00 0.  1.
         11    1    1    2    0    0 -0.25082255659E+01  0.10355965942E+03 -0.47025289212E+03  0.48152744138E+03  0.00000000000E+00 0. -1.
        -15    1    3    3    0    0  0.54170419134E+02 -0.48629931263E+02  0.74097362277E+02  0.10388879318E+03  0.17770000000E+01 0. -1.
         15    1    3    3    0    0 -0.10268226983E+02  0.25530278631E+02  0.53572233288E+02  0.60252581030E+02  0.17770000000E+01 0.  1.
</event>
<event>
 7    1  0.2288857E-006  0.4690709E+03  0.7546771E-02  0.9471806E-01
        -11   -1    0    0    0    0  0.00000000000E+00  0.00000000000E+00  0.50000000000E+03  0.50000000000E+03  0.00000000000E+00 0.  1.
         11   -1    0    0    0    0 -0.00000000000E+00 -0.00000000000E+00 -0.50000000000E+03  0.50000000000E+03  0.00000000000E+00 0. -1.
         23    2    1    2    0    0 -0.53603453894E+02 -0.20741365099E+03  0.42494110018E+03  0.48459953767E+03  0.91476884493E+02 0.  0.
        -11    1    1    2    0    0  0.63183906975E+02  0.13908784840E+02 -0.22057653867E+02  0.68353496549E+02  0.00000000000E+00 0.  1.
         11    1    1    2    0    0 -0.95804530804E+01  0.19350486616E+03 -0.40288344631E+03  0.44704696579E+03  0.00000000000E+00 0. -1.
        -15    1    3    3    0    0 -0.37366092663E+02 -0.24428765383E+02  0.12637221576E+03  0.13403762198E+03  0.17770000000E+01 0. -1.
         15    1    3    3    0    0 -0.16237361231E+02 -0.18298488561E+03  0.29856888442E+03  0.35056191569E+03  0.17770000000E+01 0.  1.
</event>
<event>
 7    1  0.2288857E-006  0.5208833E+03  0.7546771E-02  0.9354257E-01
        -11   -1    0    0    0    0  0.00000000000E+00  0.00000000000E+00  0.50000000000E+03  0.50000000000E+03  0.00000000000E+00 0.  1.
         11   -1    0    0    0    0 -0.00000000000E+00 -0.00000000000E+00 -0.50000000000E+03  0.50000000000E+03  0.00000000000E+00 0. -1.
         23    2    1    2    0    0 -0.12328795170E+03 -0.15535983796E+03 -0.24386472743E+03  0.32752122177E+03  0.91997538769E+02 0.  0.
        -11    1    1    2    0    0  0.29506944722E+03  0.21128242908E+03  0.31280436611E+03  0.47911670288E+03  0.00000000000E+00 0.  1.
         11    1    1    2    0    0 -0.17178149552E+03 -0.55922591116E+02 -0.68939638684E+02  0.19336207535E+03  0.00000000000E+00 0. -1.
        -15    1    3    3    0    0 -0.68033906291E+02 -0.10351909921E+03 -0.81362942309E+02  0.14821572931E+03  0.17770000000E+01 0.  1.
         15    1    3    3    0    0 -0.55254045411E+02 -0.51840738756E+02 -0.16250178512E+03  0.17930549246E+03  0.17770000000E+01 0. -1.
</event>
<event>
 7    1  0.2288857E-006  0.5100411E+03  0.7546771E-02  0.9377618E-01
        -11   -1    0    0    0    0  0.00000000000E+00  0.00000000000E+00  0.50000000000E+03  0.50000000000E+03  0.00000000000E+00 0. -1.
         11   -1    0    0    0    0 -0.00000000000E+00 -0.00000000000E+00 -0.50000000000E+03  0.50000000000E+03  0.00000000000E+00 0. -1.
         23    2    1    2    0    0 -0.53346473408E+02 -0.19285475841E+02 -0.15550249868E+03  0.17586875202E+03  0.59422344608E+02 0.  0.
        -11    1    1    2    0    0  0.11500629727E+03 -0.73453071580E+02  0.47057195050E+03  0.48995893984E+03  0.00000000000E+00 0. -1.
         11    1    1    2    0    0 -0.61659823858E+02  0.92738547421E+02 -0.31506945182E+03  0.33417230814E+03  0.00000000000E+00 0. -1.
        -15    1    3    3    0    0 -0.84140597332E+01 -0.29064134713E+02 -0.32021447580E+02  0.44091395554E+02  0.17770000000E+01 0. -1.
         15    1    3    3    0    0 -0.44932413675E+02  0.97786588717E+01 -0.12348105110E+03  0.13177735647E+03  0.17770000000E+01 0.  1.
</event>
<event>
 7    1  0.2288857E-006  0.3689248E+03  0.7546771E-02  0.9752955E-01
        -11   -1    0    0    0    0  0.00000000000E+00  0.00000000000E+00  0.50000000000E+03  0.50000000000E+03  0.00000000000E+00 0.  1.
         11   -1    0    0    0    0 -0.00000000000E+00 -0.00000000000E+00 -0.50000000000E+03  0.50000000000E+03  0.00000000000E+00 0. -1.
         23    2    1    2    0    0 -0.17658969691E+03 -0.11877394403E+03 -0.84549419581E+01  0.23202562338E+03  0.92050165826E+02 0.  0.
        -11    1    1    2    0    0  0.10898056794E+03 -0.54467317153E+01  0.36682342144E+03  0.38270857527E+03  0.00000000000E+00 0.  1.
         11    1    1    2    0    0  0.67609128972E+02  0.12422067574E+03 -0.35836847948E+03  0.38526580134E+03  0.00000000000E+00 0. -1.
        -15    1    3    3    0    0  0.72767632123E+01 -0.17854961025E+02 -0.10984386816E+02  0.22261298228E+02  0.17770000000E+01 0. -1.
         15    1    3    3    0    0 -0.18386646012E+03 -0.10091898300E+03  0.25294448576E+01  0.20976432515E+03  0.17770000000E+01 0.  1.
</event>
<event>
 7    1  0.2288857E-006  0.4722076E+03  0.7546771E-02  0.9464239E-01
        -11   -1    0    0    0    0  0.00000000000E+00  0.00000000000E+00  0.50000000000E+03  0.50000000000E+03  0.00000000000E+00 0. -1.
         11   -1    0    0    0    0 -0.00000000000E+00 -0.00000000000E+00 -0.50000000000E+03  0.50000000000E+03  0.00000000000E+00 0.  1.
         23    2    1    2    0    0  0.27909581070E+02 -0.37914391395E+02  0.43666529511E+03  0.44835283666E+03  0.90151208482E+02 0.  0.
        -11    1    1    2    0    0  0.35158543201E+02 -0.25490620869E+02  0.44537226970E+02  0.62204979692E+02  0.00000000000E+00 0. -1.
         11    1    1    2    0    0 -0.63068124271E+02  0.63405012264E+02 -0.48120252208E+03  0.48944218365E+03  0.00000000000E+00 0.  1.
        -15    1    3    3    0    0  0.55939421961E+02 -0.65109408420E+01  0.19239740451E+03  0.20047825387E+03  0.17770000000E+01 0.  1.
         15    1    3    3    0    0 -0.28029840891E+02 -0.31403450553E+02  0.24426789060E+03  0.24787458279E+03  0.17770000000E+01 0. -1.
</event>
<event>
 7    1  0.2288857E-006  0.3260808E+03  0.7546771E-02  0.9904194E-01
        -11   -1    0    0    0    0  0.00000000000E+00  0.00000000000E+00  0.50000000000E+03  0.50000000000E+03  0.00000000000E+00 0.  1.
         11   -1    0    0    0    0 -0.00000000000E+00 -0.00000000000E+00 -0.50000000000E+03  0.50000000000E+03  0.00000000000E+00 0.  1.
         23    2    1    2    0    0  0.15701490010E+03  0.11898484046E+03  0.20376491476E+03  0.29904031638E+03  0.95361938007E+02 0.  0.
        -11    1    1    2    0    0 -0.21016429721E+03 -0.76144121305E+02  0.19485349252E+03  0.29653809634E+03  0.00000000000E+00 0.  1.
         11    1    1    2    0    0  0.53149397113E+02 -0.42840719157E+02 -0.39861840729E+03  0.40442158728E+03  0.00000000000E+00 0.  1.
        -15    1    3    3    0    0  0.72638394120E+02  0.30585631390E+02  0.25410509946E+02  0.82829154846E+02  0.17770000000E+01 0.  1.
         15    1    3    3    0    0  0.84376505978E+02  0.88399209072E+02  0.17835440482E+03  0.21621116153E+03  0.17770000000E+01 0. -1.
</event>
<event>
 7    1  0.2288857E-006  0.4151300E+03  0.7546771E-02  0.9612723E-01
        -11   -1    0    0    0    0  0.00000000000E+00  0.00000000000E+00  0.50000000000E+03  0.50000000000E+03  0.00000000000E+00 0.  1.
         11   -1    0    0    0    0 -0.00000000000E+00 -0.00000000000E+00 -0.50000000000E+03  0.50000000000E+03  0.00000000000E+00 0. -1.
         23    2    1    2    0    0 -0.43483940597E+02  0.42934087396E+02  0.11666965835E+03  0.15935872593E+03  0.89717363991E+02 0.  0.
        -11    1    1    2    0    0  0.14202619686E+03 -0.15780017921E+03  0.31688564054E+03  0.38143000188E+03  0.00000000000E+00 0.  1.
         11    1    1    2    0    0 -0.98542256264E+02  0.11486609181E+03 -0.43355529888E+03  0.45921127219E+03  0.00000000000E+00 0. -1.
        -15    1    3    3    0    0 -0.28066140396E+01  0.61320591291E+02  0.83808476106E+02  0.10389952067E+03  0.17770000000E+01 0. -1.
         15    1    3    3    0    0 -0.40677326558E+02 -0.18386503895E+02  0.32861182240E+02  0.55459205264E+02  0.17770000000E+01 0.  1.
</event>
<event>
 6    1  0.2288857E-006  0.3466074E+03  0.7546771E-02  0.9828810E-01
        -11   -1    0    0    0    0  0.00000000000E+00  0.00000000000E+00  0.50000000000E+03  0.50000000000E+03  0.00000000000E+00 0. -1.
         11   -1    0    0    0    0 -0.00000000000E+00 -0.00000000000E+00 -0.50000000000E+03  0.50000000000E+03  0.00000000000E+00 0. -1.
        -11    1    1    2    0    0 -0.11304869057E+03  0.43849797117E+02  0.39471663949E+03  0.41292134438E+03  0.00000000000E+00 0. -1.
         11    1    1    2    0    0 -0.49659647397E+02  0.95719031095E+02 -0.30004290828E+03  0.31883218204E+03  0.00000000000E+00 0. -1.
        -15    1    1    2    0    0  0.18519809550E+03 -0.13008257072E+03 -0.88447787145E+02  0.24299378297E+03  0.17770000000E+01 0. -1.
         15    1    1    2    0    0 -0.22489757528E+02 -0.94862574912E+01 -0.62259440693E+01  0.25252690617E+02  0.17770000000E+01 0.  1.
</event>
<event>
 7    1  0.2288857E-006  0.5098938E+03  0.7546771E-02  0.9377940E-01
        -11   -1    0    0    0    0  0.00000000000E+00  0.00000000000E+00  0.50000000000E+03  0.50000000000E+03  0.00000000000E+00 0.  1.
         11   -1    0    0    0    0 -0.00000000000E+00 -0.00000000000E+00 -0.50000000000E+03  0.50000000000E+03  0.00000000000E+00 0. -1.
         23    2    1    2    0    0 -0.11459350243E+01 -0.17212189395E+03  0.44973461028E+03  0.49010616491E+03  0.91189767271E+02 0.  0.
        -11    1    1    2    0    0 -0.60469996896E+02  0.79041199209E+02 -0.93397356096E+02  0.13648149260E+03  0.00000000000E+00 0.  1.
         11    1    1    2    0    0  0.61615931921E+02  0.93080694738E+02 -0.35633725419E+03  0.37341234249E+03  0.00000000000E+00 0. -1.
        -15    1    3    3    0    0 -0.33974709461E+02 -0.93611748058E+02  0.31828581450E+03  0.33350630833E+03  0.17770000000E+01 0.  1.
         15    1    3    3    0    0  0.32828774436E+02 -0.78510145890E+02  0.13144879579E+03  0.15659985658E+03  0.17770000000E+01 0. -1.
</event>
<event>
 7    1  0.2288857E-006  0.5284598E+03  0.7546771E-02  0.9338288E-01
        -11   -1    0    0    0    0  0.00000000000E+00  0.00000000000E+00  0.50000000000E+03  0.50000000000E+03  0.00000000000E+00 0. -1.
         11   -1    0    0    0    0 -0.00000000000E+00 -0.00000000000E+00 -0.50000000000E+03  0.50000000000E+03  0.00000000000E+00 0. -1.
         23    2    1    2    0    0 -0.79559256973E+02 -0.10860505763E+02  0.36452037100E+03  0.38418556853E+03  0.90971557304E+02 0.  0.
        -11    1    1    2    0    0  0.71135557469E+02 -0.77742069875E+02  0.98544187372E+02  0.14427423134E+03  0.00000000000E+00 0. -1.
         11    1    1    2    0    0  0.84236995038E+01  0.88602575638E+02 -0.46306455837E+03  0.47154020013E+03  0.00000000000E+00 0. -1.
        -15    1    3    3    0    0  0.18618734284E+02  0.35633285056E+01  0.96942537491E+02  0.98794574145E+02  0.17770000000E+01 0.  1.
         15    1    3    3    0    0 -0.98177991257E+02 -0.14423834268E+02  0.26757783350E+03  0.28539099438E+03  0.17770000000E+01 0. -1.
</event>
<event>
 7    1  0.2288857E-006  0.5096981E+03  0.7546771E-02  0.9378367E-01
        -11   -1    0    0    0    0  0.00000000000E+00  0.00000000000E+00  0.50000000000E+03  0.50000000000E+03  0.00000000000E+00 0.  1.
         11   -1    0    0    0    0 -0.00000000000E+00 -0.00000000000E+00 -0.50000000000E+03  0.50000000000E+03  0.00000000000E+00 0. -1.
         23    2    1    2    0    0  0.84268540171E+02  0.74087598031E+01 -0.23460299820E+03  0.26561873496E+03  0.91425756835E+02 0.  0.
        -11    1    1    2    0    0 -0.12346114071E+03  0.18144065326E+02  0.47415618796E+03  0.49030189776E+03  0.00000000000E+00 0.  1.
         11    1    1    2    0    0  0.39192600540E+02 -0.25552825129E+02 -0.23955318976E+03  0.24407936728E+03  0.00000000000E+00 0. -1.
        -15    1    3    3    0    0  0.33675969540E+02 -0.36464632134E+02 -0.55929300890E+02  0.74799630668E+02  0.17770000000E+01 0.  1.
         15    1    3    3    0    0  0.50592570631E+02  0.43873391937E+02 -0.17867369731E+03  0.19081910429E+03  0.17770000000E+01 0. -1.
</event>
<event>
 7    1  0.2288857E-006  0.4199232E+03  0.7546771E-02  0.9599299E-01
        -11   -1    0    0    0    0  0.00000000000E+00  0.00000000000E+00  0.50000000000E+03  0.50000000000E+03  0.00000000000E+00 0. -1.
         11   -1    0    0    0    0 -0.00000000000E+00 -0.00000000000E+00 -0.50000000000E+03  0.50000000000E+03  0.00000000000E+00 0. -1.
         23    2    1    2    0    0 -0.41643664343E+01  0.95290950854E+02  0.70714977825E+02  0.15180183349E+03  0.94580554551E+02 0.  0.
        -11    1    1    2    0    0  0.70489959039E+02 -0.51885010407E+02  0.38031448365E+03  0.39025631975E+03  0.00000000000E+00 0. -1.
         11    1    1    2    0    0 -0.66325592605E+02 -0.43405940447E+02 -0.45102946147E+03  0.45794184676E+03  0.00000000000E+00 0. -1.
        -15    1    3    3    0    0  0.16434958618E+02 -0.80548712730E+01  0.36709837245E+02  0.41057991860E+02  0.17770000000E+01 0. -1.
         15    1    3    3    0    0 -0.20599325052E+02  0.10334582213E+03  0.34005140580E+02  0.11074384163E+03  0.17770000000E+01 0.  1.
</event>
<event>
 7    1  0.2288857E-006  0.3740831E+03  0.7546771E-02  0.9736237E-01
        -11   -1    0    0    0    0  0.00000000000E+00  0.00000000000E+00  0.50000000000E+03  0.50000000000E+03  0.00000000000E+00 0.  1.
         11   -1    0    0    0    0 -0.00000000000E+00 -0.00000000000E+00 -0.50000000000E+03  0.50000000000E+03  0.00000000000E+00 0.  1.
         23    2    1    2    0    0 -0.19227114786E+03  0.51744260240E+02  0.30628830783E+03  0.38558720135E+03  0.12336652528E+03 0.  0.
        -11    1    1    2    0    0  0.22591397594E+03  0.11046727344E+02  0.65804952820E+02  0.23556198022E+03  0.00000000000E+00 0.  1.
         11    1    1    2    0    0 -0.33642828072E+02 -0.62790987583E+02 -0.37209326065E+03  0.37885081843E+03  0.00000000000E+00 0.  1.
        -15    1    3    3    0    0 -0.67241546563E+02  0.11096828406E+02  0.21492355630E+03  0.22547695662E+03  0.17770000000E+01 0.  1.
         15    1    3    3    0    0 -0.12502960130E+03  0.40647431833E+02  0.91364751537E+02  0.16011024473E+03  0.17770000000E+01 0. -1.
</event>
<event>
 7    1  0.2288857E-006  0.4207646E+03  0.7546771E-02  0.9596962E-01
        -11   -1    0    0    0    0  0.00000000000E+00  0.00000000000E+00  0.50000000000E+03  0.50000000000E+03  0.00000000000E+00 0.  1.
         11   -1    0    0    0    0 -0.00000000000E+00 -0.00000000000E+00 -0.50000000000E+03  0.50000000000E+03  0.00000000000E+00 0. -1.
         23    2    1    2    0    0 -0.15000516157E+03 -0.23019003315E+03  0.31760638897E+03  0.42939052720E+03  0.89517633310E+02 0.  0.
        -11    1    1    2    0    0  0.79552546269E+02  0.10866875192E+03  0.74635924864E+02  0.15397410997E+03  0.00000000000E+00 0.  1.
         11    1    1    2    0    0  0.70452615303E+02  0.12152128123E+03 -0.39224231383E+03  0.41663536283E+03  0.00000000000E+00 0. -1.
        -15    1    3    3    0    0 -0.99765278474E+01 -0.42194203194E+01 -0.43981084395E+01  0.11825214694E+02  0.17770000000E+01 0. -1.
         15    1    3    3    0    0 -0.14002863372E+03 -0.22597061283E+03  0.32200449741E+03  0.41756531251E+03  0.17770000000E+01 0.  1.
</event>
<event>
 7    1  0.2288857E-006  0.3715977E+03  0.7546771E-02  0.9744256E-01
        -11   -1    0    0    0    0  0.00000000000E+00  0.00000000000E+00  0.50000000000E+03  0.50000000000E+03  0.00000000000E+00 0.  1.
         11   -1    0    0    0    0 -0.00000000000E+00 -0.00000000000E+00 -0.50000000000E+03  0.50000000000E+03  0.00000000000E+00 0. -1.
         23    2    1    2    0    0 -0.48146502495E+02 -0.13874110960E+03  0.40868616895E+03  0.44368668040E+03  0.90919219517E+02 0.  0.
        -11    1    1    2    0    0  0.12761211007E+03  0.16860318465E+03 -0.95846634627E+02  0.23216042272E+03  0.00000000000E+00 0.  1.
         11    1    1    2    0    0 -0.79465607572E+02 -0.29862075052E+02 -0.31283953433E+03  0.32415289687E+03  0.00000000000E+00 0. -1.
        -15    1    3    3    0    0 -0.63588151268E+01 -0.13879362810E+02  0.11592625578E+01  0.15413398733E+02  0.17770000000E+01 0. -1.
         15    1    3    3    0    0 -0.41787687368E+02 -0.12486174679E+03  0.40752690640E+03  0.42827328167E+03  0.17770000000E+01 0.  1.
</event>
<event>
 7    1  0.2288857E-006  0.4092487E+03  0.7546771E-02  0.9629462E-01
        -11   -1    0    0    0    0  0.00000000000E+00  0.00000000000E+00  0.50000000000E+03  0.50000000000E+03  0.00000000000E+00 0.  1.
         11   -1    0    0    0    0 -0.00000000000E+00 -0.00000000000E+00 -0.50000000000E+03  0.50000000000E+03  0.00000000000E+00 0. -1.
         23    2    1    2    0    0  0.73839203944E+01  0.14013490627E+03 -0.31905003944E+01  0.16955408643E+03  0.95110959911E+02 0.  0.
        -11    1    1    2    0    0  0.14079215971E+03 -0.19156175763E+03  0.36528867151E+03  0.43583730079E+03  0.00000000000E+00 0.  1.
         11    1    1    2    0    0 -0.14817608011E+03  0.51426851361E+02 -0.36209817112E+03  0.39460861278E+03  0.00000000000E+00 0. -1.
        -15    1    3    3    0    0  0.10734726751E+02  0.11866403666E+03  0.36193846518E+02  0.12453730449E+03  0.17770000000E+01 0.  1.
         15    1    3    3    0    0 -0.33508063566E+01  0.21470869609E+02 -0.39384346912E+02  0.45016781934E+02  0.17770000000E+01 0. -1.
</event>
<event>
 7    1  0.2288857E-006  0.4446931E+03  0.7546771E-02  0.9532848E-01
        -11   -1    0    0    0    0  0.00000000000E+00  0.00000000000E+00  0.50000000000E+03  0.50000000000E+03  0.00000000000E+00 0.  1.
         11   -1    0    0    0    0 -0.00000000000E+00 -0.00000000000E+00 -0.50000000000E+03  0.50000000000E+03  0.00000000000E+00 0. -1.
         23    2    1    2    0    0 -0.17707234273E+03 -0.33223071061E+03 -0.21818377936E+03  0.44627605191E+03  0.99127661667E+02 0.  0.
        -11    1    1    2    0    0  0.16811041415E+03  0.26323374511E+03  0.30897499043E+03  0.43933889040E+03  0.00000000000E+00 0.  1.
         11    1    1    2    0    0  0.89619285767E+01  0.68996965502E+02 -0.90791211076E+02  0.11438505768E+03  0.00000000000E+00 0. -1.
        -15    1    3    3    0    0 -0.24070684594E+02 -0.32447431073E+02  0.73792778449E+01  0.41107725680E+02  0.17770000000E+01 0.  1.
         15    1    3    3    0    0 -0.15300165813E+03 -0.29978327953E+03 -0.22556305720E+03  0.40516832623E+03  0.17770000000E+01 0. -1.
</event>
<event>
 7    1  0.2288857E-006  0.5011486E+03  0.7546771E-02  0.9397243E-01
        -11   -1    0    0    0    0  0.00000000000E+00  0.00000000000E+00  0.50000000000E+03  0.50000000000E+03  0.00000000000E+00 0.  1.
         11   -1    0    0    0    0 -0.00000000000E+00 -0.00000000000E+00 -0.50000000000E+03  0.50000000000E+03  0.00000000000E+00 0. -1.
         23    2    1    2    0    0 -0.89099321963E+02  0.70959279178E+02  0.47726990052E+03  0.49885139636E+03  0.89956929872E+02 0.  0.
        -11    1    1    2    0    0  0.11099188610E+01 -0.34236500277E+02 -0.35988791565E+02  0.49684635345E+02  0.00000000000E+00 0.  1.
         11    1    1    2    0    0  0.87989403102E+02 -0.36722778902E+02 -0.44128110895E+03  0.45146396830E+03  0.00000000000E+00 0. -1.
        -15    1    3    3    0    0 -0.66681931683E+02  0.89269049193E+02  0.31794536700E+03  0.33690927159E+03  0.17770000000E+01 0.  1.
         15    1    3    3    0    0 -0.22417390280E+02 -0.18309770015E+02  0.15932453352E+03  0.16194212477E+03  0.17770000000E+01 0. -1.
</event>
<event>
 7    1  0.2288857E-006  0.4579647E+03  0.7546771E-02  0.9499114E-01
        -11   -1    0    0    0    0  0.00000000000E+00  0.00000000000E+00  0.50000000000E+03  0.50000000000E+03  0.00000000000E+00 0. -1.
         11   -1    0    0    0    0 -0.00000000000E+00 -0.00000000000E+00 -0.50000000000E+03  0.50000000000E+03  0.00000000000E+00 0. -1.
         23    2    1    2    0    0 -0.12196244190E+03  0.76340573035E+02  0.40926638712E+03  0.44310311479E+03  0.90214601842E+02 0.  0.
        -11    1    1    2    0    0 -0.23978205909E+02 -0.77647785156E+02  0.35585592382E+02  0.88715654106E+02  0.00000000000E+00 0. -1.
         11    1    1    2    0    0  0.14594064781E+03  0.13072121215E+01 -0.44485197951E+03  0.46818123110E+03  0.00000000000E+00 0. -1.
        -15    1    3    3    0    0 -0.10095869318E+02 -0.21218659587E+01 -0.11533726089E+01  0.10531708779E+02  0.17770000000E+01 0.  1.
         15    1    3    3    0    0 -0.11186657258E+03  0.78462438993E+02  0.41041975973E+03  0.43257140601E+03  0.17770000000E+01 0. -1.
</event>
<event>
 7    1  0.2288857E-006  0.5158321E+03  0.7546771E-02  0.9365065E-01
        -11   -1    0    0    0    0  0.00000000000E+00  0.00000000000E+00  0.50000000000E+03  0.50000000000E+03  0.00000000000E+00 0.  1.
         11   -1    0    0    0    0 -0.00000000000E+00 -0.00000000000E+00 -0.50000000000E+03  0.50000000000E+03  0.00000000000E+00 0. -1.
         23    2    1    2    0    0 -0.14902996957E+01  0.13041095565E+02  0.14960669616E+03  0.17574486690E+03  0.91278713499E+02 0.  0.
        -11    1    1    2    0    0 -0.11071818006E+03 -0.10917404019E+02  0.32137454790E+03  0.34008720227E+03  0.00000000000E+00 0.  1.
         11    1    1    2    0    0  0.11220847975E+03 -0.21236915466E+01 -0.47098124406E+03  0.48416793084E+03  0.00000000000E+00 0. -1.
        -15    1    3    3    0    0 -0.17878278580E+02  0.47295387634E+02  0.60487424652E+02  0.78856659874E+02  0.17770000000E+01 0.  1.
         15    1    3    3    0    0  0.16387978885E+02 -0.34254292069E+02  0.89119271506E+02  0.96888207021E+02  0.17770000000E+01 0. -1.
</event>
<event>
 7    1  0.2288857E-006  0.5243356E+03  0.7546771E-02  0.9346945E-01
        -11   -1    0    0    0    0  0.00000000000E+00  0.00000000000E+00  0.50000000000E+03  0.50000000000E+03  0.00000000000E+00 0.  1.
         11   -1    0    0    0    0 -0.00000000000E+00 -0.00000000000E+00 -0.50000000000E+03  0.50000000000E+03  0.00000000000E+00 0. -1.
         23    2    1    2    0    0  0.28453524938E+02  0.90593975617E+01  0.12813332718E+03  0.16101781279E+03  0.92827316762E+02 0.  0.
        -11    1    1    2    0    0 -0.54439282488E+01 -0.18209228780E+03  0.31434468624E+03  0.36331779395E+03  0.00000000000E+00 0.  1.
         11    1    1    2    0    0 -0.23009596689E+02  0.17303289024E+03 -0.44247801343E+03  0.47566439325E+03  0.00000000000E+00 0. -1.
        -15    1    3    3    0    0  0.56483370391E+02  0.26213793064E+02  0.99513091690E+02  0.11740335270E+03  0.17770000000E+01 0.  1.
         15    1    3    3    0    0 -0.28029845453E+02 -0.17154395502E+02  0.28620235490E+02  0.43614460099E+02  0.17770000000E+01 0. -1.
</event>
<event>
 7    1  0.2288857E-006  0.4072491E+03  0.7546771E-02  0.9635221E-01
        -11   -1    0    0    0    0  0.00000000000E+00  0.00000000000E+00  0.50000000000E+03  0.50000000000E+03  0.00000000000E+00 0. -1.
         11   -1    0    0    0    0 -0.00000000000E+00 -0.00000000000E+00 -0.50000000000E+03  0.50000000000E+03  0.00000000000E+00 0.  1.
         23    2    1    2    0    0  0.50527236119E+02  0.32567302747E+03  0.24539265799E+03  0.42117893818E+03  0.92510642418E+02 0.  0.
        -11    1    1    2    0    0 -0.46575895349E+01 -0.13997845690E+03  0.10808295350E+03  0.17691123868E+03  0.00000000000E+00 0. -1.
         11    1    1    2    0    0 -0.45869646584E+02 -0.18569457058E+03 -0.35347561148E+03  0.40190982314E+03  0.00000000000E+00 0.  1.
        -15    1    3    3    0    0 -0.20420449774E+02  0.79667996401E+02  0.33458082967E+02  0.88806449452E+02  0.17770000000E+01 0.  1.
         15    1    3    3    0    0  0.70947685893E+02  0.24600503107E+03  0.21193457502E+03  0.33237248873E+03  0.17770000000E+01 0. -1.
</event>
<event>
 7    1  0.2288857E-006  0.5197544E+03  0.7546771E-02  0.9356661E-01
        -11   -1    0    0    0    0  0.00000000000E+00  0.00000000000E+00  0.50000000000E+03  0.50000000000E+03  0.00000000000E+00 0.  1.
         11   -1    0    0    0    0 -0.00000000000E+00 -0.00000000000E+00 -0.50000000000E+03  0.50000000000E+03  0.00000000000E+00 0.  1.
         23    2    1    2    0    0 -0.22132302426E+03  0.11014066217E+03  0.16357740852E+03  0.30987887724E+03  0.90291214679E+02 0.  0.
        -11    1    1    2    0    0  0.38221999664E+03 -0.24473832356E+03 -0.15699333282E+03  0.48024564486E+03  0.00000000000E+00 0.  1.
         11    1    1    2    0    0 -0.16089697238E+03  0.13459766140E+03 -0.65840756948E+01  0.20987547791E+03  0.00000000000E+00 0.  1.
        -15    1    3    3    0    0 -0.21991056032E+03  0.83801389574E+02  0.15609248096E+03  0.28240281120E+03  0.17770000000E+01 0.  1.
         15    1    3    3    0    0 -0.14124639429E+01  0.26339272592E+02  0.74849275611E+01  0.27476066034E+02  0.17770000000E+01 0. -1.
</event>
<event>
 7    1  0.2288857E-006  0.4834436E+03  0.7546771E-02  0.9437638E-01
        -11   -1    0    0    0    0  0.00000000000E+00  0.00000000000E+00  0.50000000000E+03  0.50000000000E+03  0.00000000000E+00 0.  1.
         11   -1    0    0    0    0 -0.00000000000E+00 -0.00000000000E+00 -0.50000000000E+03  0.50000000000E+03  0.00000000000E+00 0. -1.
         23    2    1    2    0    0  0.70245030783E+02 -0.39124905287E+02  0.45656878357E+03  0.47214306616E+03  0.89436559820E+02 0.  0.
        -11    1    1    2    0    0  0.19507036875E+02  0.27821052600E+02  0.22219036476E+02  0.40598288601E+02  0.00000000000E+00 0.  1.
         11    1    1    2    0    0 -0.89752067658E+02  0.11303852687E+02 -0.47878782004E+03  0.48725864524E+03  0.00000000000E+00 0. -1.
        -15    1    3    3    0    0  0.68006802919E+02 -0.62546138593E+02  0.40535035966E+03  0.41575114732E+03  0.17770000000E+01 0.  1.
         15    1    3    3    0    0  0.22382278632E+01  0.23421233306E+02  0.51218423911E+02  0.56391918840E+02  0.17770000000E+01 0. -1.
</event>
<event>
 7    1  0.2288857E-006  0.4722369E+03  0.7546771E-02  0.9464169E-01
        -11   -1    0    0    0    0  0.00000000000E+00  0.00000000000E+00  0.50000000000E+03  0.50000000000E+03  0.00000000000E+00 0.  1.
         11   -1    0    0    0    0 -0.00000000000E+00 -0.00000000000E+00 -0.50000000000E+03  0.50000000000E+03  0.00000000000E+00 0.  1.
         23    2    1    2    0    0 -0.83921349942E+02 -0.35167448700E+02  0.42735519625E+03  0.44926271722E+03  0.10452264298E+03 0.  0.
        -11    1    1    2    0    0  0.44854817087E+01  0.38905007690E+02  0.51850245333E+02  0.64978204889E+02  0.00000000000E+00 0.  1.
         11    1    1    2    0    0  0.79435868234E+02 -0.37375589903E+01 -0.47920544158E+03  0.48575907789E+03  0.00000000000E+00 0.  1.
        -15    1    3    3    0    0 -0.97255281228E+02 -0.48947943550E+02  0.40668831860E+03  0.42101429562E+03  0.17770000000E+01 0.  1.
         15    1    3    3    0    0  0.13333931285E+02  0.13780494850E+02  0.20666877653E+02  0.28248421597E+02  0.17770000000E+01 0. -1.
</event>
<event>
 7    1  0.2288857E-006  0.4595397E+03  0.7546771E-02  0.9495191E-01
        -11   -1    0    0    0    0  0.00000000000E+00  0.00000000000E+00  0.50000000000E+03  0.50000000000E+03  0.00000000000E+00 0.  1.
         11   -1    0    0    0    0 -0.00000000000E+00 -0.00000000000E+00 -0.50000000000E+03  0.50000000000E+03  0.00000000000E+00 0. -1.
         23    2    1    2    0    0 -0.16426408360E+03  0.83052624122E+02  0.38334738236E+03  0.43461179646E+03  0.89731658460E+02 0.  0.
        -11    1    1    2    0    0  0.45680805168E+02  0.17725685953E+02  0.70355921833E+02  0.85737340991E+02  0.00000000000E+00 0.  1.
         11    1    1    2    0    0  0.11858327843E+03 -0.10077831007E+03 -0.45370330419E+03  0.47965086254E+03  0.00000000000E+00 0. -1.
        -15    1    3    3    0    0 -0.64536004659E+02  0.39114741394E+02  0.25646954952E+03  0.26734742649E+03  0.17770000000E+01 0.  1.
         15    1    3    3    0    0 -0.99728078938E+02  0.43937882727E+02  0.12687783284E+03  0.16726436997E+03  0.17770000000E+01 0. -1.
</event>
<event>
 7    1  0.2288857E-006  0.5184910E+03  0.7546771E-02  0.9359360E-01
        -11   -1    0    0    0    0  0.00000000000E+00  0.00000000000E+00  0.50000000000E+03  0.50000000000E+03  0.00000000000E+00 0.  1.
         11   -1    0    0    0    0 -0.00000000000E+00 -0.00000000000E+00 -0.50000000000E+03  0.50000000000E+03  0.00000000000E+00 0. -1.
         23    2    1    2    0    0  0.13707658166E+03  0.14536713368E+02  0.32491912560E+03  0.36455862401E+03  0.91264707792E+02 0.  0.
        -11    1    1    2    0    0 -0.31739454058E+02 -0.44217270982E+02  0.14398822009E+03  0.15393234722E+03  0.00000000000E+00 0.  1.
         11    1    1    2    0    0 -0.10533712760E+03  0.29680557613E+02 -0.46890734568E+03  0.48150902877E+03  0.00000000000E+00 0. -1.
        -15    1    3    3    0    0  0.30668873629E+02 -0.91615017366E+01  0.13823845150E+02  0.34910877209E+02  0.17770000000E+01 0. -1.
         15    1    3    3    0    0  0.10640770803E+03  0.23698215105E+02  0.31109528045E+03  0.32964774680E+03  0.17770000000E+01 0.  1.
</event>
<event>
 7    1  0.2288857E-006  0.4760352E+03  0.7546771E-02  0.9455089E-01
        -11   -1    0    0    0    0  0.00000000000E+00  0.00000000000E+00  0.50000000000E+03  0.50000000000E+03  0.00000000000E+00 0. -1.
         11   -1    0    0    0    0 -0.00000000000E+00 -0.00000000000E+00 -0.50000000000E+03  0.50000000000E+03  0.00000000000E+00 0.  1.
         23    2    1    2    0    0  0.18029918949E+03 -0.23054906967E+02 -0.41890638108E+03  0.46491984466E+03  0.87341739030E+02 0.  0.
        -11    1    1    2    0    0 -0.22562770361E+03 -0.66064413429E+01  0.42433633932E+03  0.48063794541E+03  0.00000000000E+00 0. -1.
         11    1    1    2    0    0  0.45328514118E+02  0.29661348310E+02 -0.54299582352E+01  0.54442209931E+02  0.00000000000E+00 0.  1.
        -15    1    3    3    0    0  0.76794406384E+02  0.26909967943E+02 -0.22784098554E+03  0.24194255443E+03  0.17770000000E+01 0.  1.
         15    1    3    3    0    0  0.10350478311E+03 -0.49964874910E+02 -0.19106539555E+03  0.22297729022E+03  0.17770000000E+01 0. -1.
</event>
<event>
 7    1  0.2288857E-006  0.4479210E+03  0.7546771E-02  0.9524529E-01
        -11   -1    0    0    0    0  0.00000000000E+00  0.00000000000E+00  0.50000000000E+03  0.50000000000E+03  0.00000000000E+00 0.  1.
         11   -1    0    0    0    0 -0.00000000000E+00 -0.00000000000E+00 -0.50000000000E+03  0.50000000000E+03  0.00000000000E+00 0. -1.
         23    2    1    2    0    0 -0.15308292435E+02  0.39918403525E+02  0.18471243298E+02  0.10294822027E+03  0.91811363513E+02 0.  0.
        -11    1    1    2    0    0  0.95567732020E+02 -0.16525198827E+02  0.43002726224E+03  0.44082844721E+03  0.00000000000E+00 0.  1.
         11    1    1    2    0    0 -0.80259439586E+02 -0.23393204698E+02 -0.44849850554E+03  0.45622333252E+03  0.00000000000E+00 0. -1.
        -15    1    3    3    0    0 -0.21099693091E+02  0.64886573202E+02  0.30283103524E+02  0.74670533134E+02  0.17770000000E+01 0.  1.
         15    1    3    3    0    0  0.57914006563E+01 -0.24968169677E+02 -0.11811860227E+02  0.28277687133E+02  0.17770000000E+01 0. -1.
</event>
<event>
 7    1  0.2288857E-006  0.3336965E+03  0.7546771E-02  0.9875548E-01
        -11   -1    0    0    0    0  0.00000000000E+00  0.00000000000E+00  0.50000000000E+03  0.50000000000E+03  0.00000000000E+00 0.  1.
         11   -1    0    0    0    0 -0.00000000000E+00 -0.00000000000E+00 -0.50000000000E+03  0.50000000000E+03  0.00000000000E+00 0. -1.
         23    2    1    2    0    0 -0.29374830037E+02 -0.40476097006E+02  0.31094619453E+03  0.32826361573E+03  0.92564952604E+02 0.  0.
        -11    1    1    2    0    0 -0.12850825303E+03 -0.23725147978E+03 -0.94674245029E+02  0.28594728260E+03  0.00000000000E+00 0.  1.
         11    1    1    2    0    0  0.15788308307E+03  0.27772757678E+03 -0.21627194950E+03  0.38578910167E+03  0.00000000000E+00 0. -1.
        -15    1    3    3    0    0 -0.63203785441E+02 -0.26518453654E+02  0.20463913159E+03  0.21582001479E+03  0.17770000000E+01 0.  1.
         15    1    3    3    0    0  0.33828955404E+02 -0.13957643352E+02  0.10630706294E+03  0.11244360094E+03  0.17770000000E+01 0. -1.
</event>
<event>
 7    1  0.2288857E-006  0.3385618E+03  0.7546771E-02  0.9857673E-01
        -11   -1    0    0    0    0  0.00000000000E+00  0.00000000000E+00  0.50000000000E+03  0.50000000000E+03  0.00000000000E+00 0.  1.
         11   -1    0    0    0    0 -0.00000000000E+00 -0.00000000000E+00 -0.50000000000E+03  0.50000000000E+03  0.00000000000E+00 0. -1.
         23    2    1    2    0    0  0.13824883262E+03  0.79887461044E+02  0.24322841924E+03  0.31659637955E+03  0.12481369102E+03 0.  0.
        -11    1    1    2    0    0 -0.24651405281E+03 -0.50151793010E+02  0.13734473025E+03  0.28661464635E+03  0.00000000000E+00 0.  1.
         11    1    1    2    0    0  0.10826522019E+03 -0.29735668033E+02 -0.38057314949E+03  0.39678897410E+03  0.00000000000E+00 0. -1.
        -15    1    3    3    0    0  0.14308365688E+03  0.51106919452E+02  0.24389054726E+03  0.28735101680E+03  0.17770000000E+01 0.  1.
         15    1    3    3    0    0 -0.48348242627E+01  0.28780541591E+02 -0.66212802328E+00  0.29245362752E+02  0.17770000000E+01 0. -1.
</event>
<event>
 7    1  0.2288857E-006  0.5163088E+03  0.7546771E-02  0.9364039E-01
        -11   -1    0    0    0    0  0.00000000000E+00  0.00000000000E+00  0.50000000000E+03  0.50000000000E+03  0.00000000000E+00 0.  1.
         11   -1    0    0    0    0 -0.00000000000E+00 -0.00000000000E+00 -0.50000000000E+03  0.50000000000E+03  0.00000000000E+00 0. -1.
         23    2    1    2    0    0  0.14566195004E+02  0.17476106847E+03  0.35765753908E+03  0.40833981292E+03  0.89826958447E+02 0.  0.
        -11    1    1    2    0    0 -0.54281261195E+02 -0.42457812162E+01  0.93235340651E+02  0.10796902668E+03  0.00000000000E+00 0.  1.
         11    1    1    2    0    0  0.39715066191E+02 -0.17051528726E+03 -0.45089287973E+03  0.48369116041E+03  0.00000000000E+00 0. -1.
        -15    1    3    3    0    0 -0.23231811955E+01  0.17926409638E+03  0.33041324320E+03  0.37592164401E+03  0.17770000000E+01 0.  1.
         15    1    3    3    0    0  0.16889376199E+02 -0.45030279053E+01  0.27244295874E+02  0.32418168908E+02  0.17770000000E+01 0. -1.
</event>
<event>
 7    1  0.2288857E-006  0.3900098E+03  0.7546771E-02  0.9686388E-01
        -11   -1    0    0    0    0  0.00000000000E+00  0.00000000000E+00  0.50000000000E+03  0.50000000000E+03  0.00000000000E+00 0.  1.
         11   -1    0    0    0    0 -0.00000000000E+00 -0.00000000000E+00 -0.50000000000E+03  0.50000000000E+03  0.00000000000E+00 0.  1.
         23    2    1    2    0    0 -0.25617108742E+02 -0.12326715489E+03  0.12543937351E+03  0.19998965496E+03  0.91704950397E+02 0.  0.
        -11    1    1    2    0    0  0.71685350930E+02  0.24338609622E+03  0.27810546753E+03  0.37645482125E+03  0.00000000000E+00 0.  1.
         11    1    1    2    0    0 -0.46068242188E+02 -0.12011894133E+03 -0.40354484104E+03  0.42355552379E+03  0.00000000000E+00 0.  1.
        -15    1    3    3    0    0 -0.58811151672E+02 -0.68614160238E+02  0.86461190312E+02  0.12508137234E+03  0.17770000000E+01 0.  1.
         15    1    3    3    0    0  0.33194042930E+02 -0.54652994656E+02  0.38978183197E+02  0.74908282621E+02  0.17770000000E+01 0. -1.
</event>
<event>
 7    1  0.2288857E-006  0.3338515E+03  0.7546771E-02  0.9874973E-01
        -11   -1    0    0    0    0  0.00000000000E+00  0.00000000000E+00  0.50000000000E+03  0.50000000000E+03  0.00000000000E+00 0.  1.
         11   -1    0    0    0    0 -0.00000000000E+00 -0.00000000000E+00 -0.50000000000E+03  0.50000000000E+03  0.00000000000E+00 0.  1.
         23    2    1    2    0    0  0.22806654525E+03 -0.37901695809E+02  0.12055667351E+03  0.28319311455E+03  0.11051489036E+03 0.  0.
        -11    1    1    2    0    0 -0.14843933093E+03 -0.76214245292E+02  0.26149829742E+03  0.31020026710E+03  0.00000000000E+00 0.  1.
         11    1    1    2    0    0 -0.79627214320E+02  0.11411594110E+03 -0.38205497093E+03  0.40660661835E+03  0.00000000000E+00 0.  1.
        -15    1    3    3    0    0  0.18697449190E+03 -0.66356565016E+02  0.12243478770E+03  0.23314392402E+03  0.17770000000E+01 0.  1.
         15    1    3    3    0    0  0.41092053354E+02  0.28454869207E+02 -0.18781141823E+01  0.50049190526E+02  0.17770000000E+01 0. -1.
</event>
<event>
 7    1  0.2288857E-006  0.5113643E+03  0.7546771E-02  0.9374734E-01
        -11   -1    0    0    0    0  0.00000000000E+00  0.00000000000E+00  0.50000000000E+03  0.50000000000E+03  0.00000000000E+00 0.  1.
         11   -1    0    0    0    0 -0.00000000000E+00 -0.00000000000E+00 -0.50000000000E+03  0.50000000000E+03  0.00000000000E+00 0. -1.
         23    2    1    2    0    0 -0.41404413897E+02  0.72026655347E+02 -0.17840524511E+03  0.21724947290E+03  0.92014876090E+02 0.  0.
        -11    1    1    2    0    0  0.54613782248E+02 -0.15287795263E+03  0.46088018623E+03  0.48863573311E+03  0.00000000000E+00 0.  1.
         11    1    1    2    0    0 -0.13209368351E+02  0.80851297283E+02 -0.28247494112E+03  0.29411479399E+03  0.00000000000E+00 0. -1.
        -15    1    3    3    0    0 -0.18053396378E+02  0.89168559319E+02 -0.15594407296E+03  0.18055101415E+03  0.17770000000E+01 0.  1.
         15    1    3    3    0    0 -0.23351017519E+02 -0.17141903972E+02 -0.22461172153E+02  0.36698458748E+02  0.17770000000E+01 0. -1.
</event>
<event>
 7    1  0.2288857E-006  0.4825700E+03  0.7546771E-02  0.9439678E-01
        -11   -1    0    0    0    0  0.00000000000E+00  0.00000000000E+00  0.50000000000E+03  0.50000000000E+03  0.00000000000E+00 0.  1.
         11   -1    0    0    0    0 -0.00000000000E+00 -0.00000000000E+00 -0.50000000000E+03  0.50000000000E+03  0.00000000000E+00 0. -1.
         23    2    1    2    0    0  0.10243864151E+03  0.68293070408E+02  0.45456702342E+03  0.48022272198E+03  0.93941818089E+02 0.  0.
        -11    1    1    2    0    0 -0.26884677611E+02 -0.30417272448E+02  0.14537595075E+02  0.43120042022E+02  0.00000000000E+00 0.  1.
         11    1    1    2    0    0 -0.75553963899E+02 -0.37875797961E+02 -0.46910461850E+03  0.47665723600E+03  0.00000000000E+00 0. -1.
        -15    1    3    3    0    0  0.49594236709E+02 -0.46372270514E+01  0.74563032429E+02  0.89687767971E+02  0.17770000000E+01 0. -1.
         15    1    3    3    0    0  0.52844404801E+02  0.72930297460E+02  0.38000399099E+03  0.39053495401E+03  0.17770000000E+01 0.  1.
</event>
<event>
 7    1  0.2288857E-006  0.5227835E+03  0.7546771E-02  0.9350225E-01
        -11   -1    0    0    0    0  0.00000000000E+00  0.00000000000E+00  0.50000000000E+03  0.50000000000E+03  0.00000000000E+00 0.  1.
         11   -1    0    0    0    0 -0.00000000000E+00 -0.00000000000E+00 -0.50000000000E+03  0.50000000000E+03  0.00000000000E+00 0. -1.
         23    2    1    2    0    0  0.12544461717E+03 -0.85430900176E+02  0.28395487999E+03  0.33482407604E+03  0.91880342540E+02 0.  0.
        -11    1    1    2    0    0 -0.25730041769E+02  0.44094532708E+02  0.18089333028E+03  0.18795946320E+03  0.00000000000E+00 0.  1.
         11    1    1    2    0    0 -0.99714575400E+02  0.41336367468E+02 -0.46484821028E+03  0.47721646076E+03  0.00000000000E+00 0. -1.
        -15    1    3    3    0    0  0.12005929807E+03 -0.10345810949E+03  0.25201661050E+03  0.29771352870E+03  0.17770000000E+01 0.  1.
         15    1    3    3    0    0  0.53853190986E+01  0.18027209310E+02  0.31938269488E+02  0.37110547344E+02  0.17770000000E+01 0. -1.
</event>
<event>
 7    1  0.2288857E-006  0.5134091E+03  0.7546771E-02  0.9370296E-01
        -11   -1    0    0    0    0  0.00000000000E+00  0.00000000000E+00  0.50000000000E+03  0.50000000000E+03  0.00000000000E+00 0. -1.
         11   -1    0    0    0    0 -0.00000000000E+00 -0.00000000000E+00 -0.50000000000E+03  0.50000000000E+03  0.00000000000E+00 0. -1.
         23    2    1    2    0    0  0.50312911208E+01  0.97912914971E+01  0.14878115914E+03  0.17389585119E+03  0.89346239225E+02 0.  0.
        -11    1    1    2    0    0 -0.33936899110E+02  0.72761133618E+02  0.32988388684E+03  0.33951329058E+03  0.00000000000E+00 0. -1.
         11    1    1    2    0    0  0.28905607989E+02 -0.82552425115E+02 -0.47866504598E+03  0.48659085823E+03  0.00000000000E+00 0. -1.
        -15    1    3    3    0    0  0.30467323891E+02  0.20625151930E+02  0.14010297337E+03  0.14486426611E+03  0.17770000000E+01 0.  1.
         15    1    3    3    0    0 -0.25436032770E+02 -0.10833860433E+02  0.86781857706E+01  0.29031585080E+02  0.17770000000E+01 0. -1.
</event>
<event>
 7    1  0.2288857E-006  0.4947537E+03  0.7546771E-02  0.9411626E-01
        -11   -1    0    0    0    0  0.00000000000E+00  0.00000000000E+00  0.50000000000E+03  0.50000000000E+03  0.00000000000E+00 0.  1.
         11   -1    0    0    0    0 -0.00000000000E+00 -0.00000000000E+00 -0.50000000000E+03  0.50000000000E+03  0.00000000000E+00 0. -1.
         23    2    1    2    0    0 -0.74551916118E+02  0.11713629356E+03 -0.46007498977E+03  0.48900733866E+03  0.90444909109E+02 0.  0.
        -11    1    1    2    0    0  0.61891041558E+02 -0.11987070337E+03  0.47349681412E+03  0.49234004462E+03  0.00000000000E+00 0.  1.
         11    1    1    2    0    0  0.12660874560E+02  0.27344098079E+01 -0.13421824348E+02  0.18652616719E+02  0.00000000000E+00 0. -1.
        -15    1    3    3    0    0 -0.33658283930E+02 -0.39709279764E+01 -0.59150658577E+02  0.68195355305E+02  0.17770000000E+01 0.  1.
         15    1    3    3    0    0 -0.40893632189E+02  0.12110722154E+03 -0.40092433120E+03  0.42081198336E+03  0.17770000000E+01 0. -1.
</event>
<event>
 7    1  0.2288857E-006  0.3691384E+03  0.7546771E-02  0.9752257E-01
        -11   -1    0    0    0    0  0.00000000000E+00  0.00000000000E+00  0.50000000000E+03  0.50000000000E+03  0.00000000000E+00 0.  1.
         11   -1    0    0    0    0 -0.00000000000E+00 -0.00000000000E+00 -0.50000000000E+03  0.50000000000E+03  0.00000000000E+00 0. -1.
         23    2    1    2    0    0 -0.43389179459E+02  0.17160518006E+03  0.11706976774E+03  0.23182759861E+03  0.93315305502E+02 0.  0.
        -11    1    1    2    0    0 -0.90815843309E+02 -0.16107802013E+03  0.28747815539E+03  0.34181476825E+03  0.00000000000E+00 0.  1.
         11    1    1    2    0    0  0.13420502277E+03 -0.10527159929E+02 -0.40454792313E+03  0.42635763314E+03  0.00000000000E+00 0. -1.
        -15    1    3    3    0    0  0.65580026479E+01  0.10125128857E+03  0.10262918031E+03  0.14432857380E+03  0.17770000000E+01 0. -1.
         15    1    3    3    0    0 -0.49947182107E+02  0.70353891495E+02  0.14440587434E+02  0.87499024814E+02  0.17770000000E+01 0.  1.
</event>
<event>
 7    1  0.2288857E-006  0.3659049E+03  0.7546771E-02  0.9762878E-01
        -11   -1    0    0    0    0  0.00000000000E+00  0.00000000000E+00  0.50000000000E+03  0.50000000000E+03  0.00000000000E+00 0. -1.
         11   -1    0    0    0    0 -0.00000000000E+00 -0.00000000000E+00 -0.50000000000E+03  0.50000000000E+03  0.00000000000E+00 0. -1.
         23    2    1    2    0    0 -0.11439939895E+03  0.59280953639E+01  0.30177482892E+03  0.33636043110E+03  0.94593485203E+02 0.  0.
        -11    1    1    2    0    0  0.13135308674E+03 -0.18588043963E+03  0.79984990931E+02  0.24125250259E+03  0.00000000000E+00 0. -1.
         11    1    1    2    0    0 -0.16953687783E+02  0.17995234426E+03 -0.38175981985E+03  0.42238706631E+03  0.00000000000E+00 0. -1.
        -15    1    3    3    0    0 -0.74303002464E+02 -0.15183376521E+02  0.80998822083E+02  0.11097494314E+03  0.17770000000E+01 0. -1.
         15    1    3    3    0    0 -0.40096396488E+02  0.21111471884E+02  0.22077600684E+03  0.22538548796E+03  0.17770000000E+01 0.  1.
</event>
<event>
 7    1  0.2288857E-006  0.5304485E+03  0.7546771E-02  0.9334143E-01
        -11   -1    0    0    0    0  0.00000000000E+00  0.00000000000E+00  0.50000000000E+03  0.50000000000E+03  0.00000000000E+00 0.  1.
         11   -1    0    0    0    0 -0.00000000000E+00 -0.00000000000E+00 -0.50000000000E+03  0.50000000000E+03  0.00000000000E+00 0. -1.
         23    2    1    2    0    0 -0.39083521949E+01  0.11925999619E+03  0.33406104788E+03  0.36787164307E+03  0.97439930988E+02 0.  0.
        -11    1    1    2    0    0  0.12977442244E+03  0.40550634100E+02  0.89137392888E+02  0.16257684169E+03  0.00000000000E+00 0.  1.
         11    1    1    2    0    0 -0.12586607024E+03 -0.15981063029E+03 -0.42319844077E+03  0.46955151524E+03  0.00000000000E+00 0. -1.
        -15    1    3    3    0    0  0.31788569301E+02  0.87788904797E+02  0.28318485251E+03  0.29818488118E+03  0.17770000000E+01 0.  1.
         15    1    3    3    0    0 -0.35696921496E+02  0.31471091392E+02  0.50876195378E+02  0.69686761891E+02  0.17770000000E+01 0. -1.
</event>
<event>
 7    1  0.2288857E-006  0.5162287E+03  0.7546771E-02  0.9364211E-01
        -11   -1    0    0    0    0  0.00000000000E+00  0.00000000000E+00  0.50000000000E+03  0.50000000000E+03  0.00000000000E+00 0.  1.
         11   -1    0    0    0    0 -0.00000000000E+00 -0.00000000000E+00 -0.50000000000E+03  0.50000000000E+03  0.00000000000E+00 0. -1.
         23    2    1    2    0    0 -0.29717836648E+02 -0.87289809407E+02  0.31593732705E+03  0.34151940589E+03  0.91194568536E+02 0.  0.
        -11    1    1    2    0    0 -0.97970253806E+02  0.10320962055E+02  0.14428672541E+03  0.17470933580E+03  0.00000000000E+00 0.  1.
         11    1    1    2    0    0  0.12768809045E+03  0.76968847353E+02 -0.46022405246E+03  0.48377125831E+03  0.00000000000E+00 0. -1.
        -15    1    3    3    0    0 -0.47898016565E+02 -0.99762228780E+01  0.97871229970E+02  0.10943345192E+03  0.17770000000E+01 0.  1.
         15    1    3    3    0    0  0.18180179917E+02 -0.77313586529E+02  0.21806609708E+03  0.23208595397E+03  0.17770000000E+01 0. -1.
</event>
<event>
 7    1  0.2288857E-006  0.4805886E+03  0.7546771E-02  0.9444323E-01
        -11   -1    0    0    0    0  0.00000000000E+00  0.00000000000E+00  0.50000000000E+03  0.50000000000E+03  0.00000000000E+00 0. -1.
         11   -1    0    0    0    0 -0.00000000000E+00 -0.00000000000E+00 -0.50000000000E+03  0.50000000000E+03  0.00000000000E+00 0.  1.
         23    2    1    2    0    0 -0.11785196287E+03  0.30697607442E+03  0.33636621651E+03  0.47912635631E+03  0.91084786234E+02 0.  0.
        -11    1    1    2    0    0 -0.45248431483E+02 -0.88535179991E+01 -0.52422115648E+01  0.46403514034E+02  0.00000000000E+00 0. -1.
         11    1    1    2    0    0  0.16310039435E+03 -0.29812255642E+03 -0.33112400494E+03  0.47447012966E+03  0.00000000000E+00 0.  1.
        -15    1    3    3    0    0  0.20731172567E+01  0.21344138642E+02 -0.42844675322E+00  0.21522345717E+02  0.17770000000E+01 0.  1.
         15    1    3    3    0    0 -0.11992508012E+03  0.28563193578E+03  0.33679466326E+03  0.45760401059E+03  0.17770000000E+01 0. -1.
</event>
<event>
 7    1  0.2288857E-006  0.5290603E+03  0.7546771E-02  0.9337034E-01
        -11   -1    0    0    0    0  0.00000000000E+00  0.00000000000E+00  0.50000000000E+03  0.50000000000E+03  0.00000000000E+00 0. -1.
         11   -1    0    0    0    0 -0.00000000000E+00 -0.00000000000E+00 -0.50000000000E+03  0.50000000000E+03  0.00000000000E+00 0.  1.
         23    2    1    2    0    0  0.12403574112E+03  0.12798931774E+03  0.15524904041E+03  0.25355090789E+03  0.91758747882E+02 0.  0.
        -11    1    1    2    0    0  0.88477093411E+02 -0.45705309408E+02  0.25688179960E+03  0.27550940153E+03  0.00000000000E+00 0. -1.
         11    1    1    2    0    0 -0.21251283453E+03 -0.82284008330E+02 -0.41213084001E+03  0.47093969058E+03  0.00000000000E+00 0.  1.
        -15    1    3    3    0    0  0.60860988751E+02  0.10582120703E+02  0.77781520019E+02  0.99343665203E+02  0.17770000000E+01 0.  1.
         15    1    3    3    0    0  0.63174752371E+02  0.11740719704E+03  0.77467520392E+02  0.15420724269E+03  0.17770000000E+01 0. -1.
</event>
<event>
 7    1  0.2288857E-006  0.5334097E+03  0.7546771E-02  0.9328007E-01
        -11   -1    0    0    0    0  0.00000000000E+00  0.00000000000E+00  0.50000000000E+03  0.50000000000E+03  0.00000000000E+00 0.  1.
         11   -1    0    0    0    0 -0.00000000000E+00 -0.00000000000E+00 -0.50000000000E+03  0.50000000000E+03  0.00000000000E+00 0.  1.
         23    2    1    2    0    0  0.11001015292E+03  0.13542036940E+03 -0.20792890509E+03  0.28636740246E+03  0.91274034804E+02 0.  0.
        -11    1    1    2    0    0 -0.12360727515E+03 -0.66966945209E+02  0.44490808303E+03  0.46659032627E+03  0.00000000000E+00 0.  1.
         11    1    1    2    0    0  0.13597122223E+02 -0.68453424187E+02 -0.23697917794E+03  0.24704227127E+03  0.00000000000E+00 0.  1.
        -15    1    3    3    0    0  0.61721606932E+02  0.20100032046E+02 -0.10921751588E+03  0.12706373029E+03  0.17770000000E+01 0.  1.
         15    1    3    3    0    0  0.48288545991E+02  0.11532033735E+03 -0.98711389205E+02  0.15930367217E+03  0.17770000000E+01 0. -1.
</event>
<event>
 7    1  0.2288857E-006  0.5154633E+03  0.7546771E-02  0.9365859E-01
        -11   -1    0    0    0    0  0.00000000000E+00  0.00000000000E+00  0.50000000000E+03  0.50000000000E+03  0.00000000000E+00 0. -1.
         11   -1    0    0    0    0 -0.00000000000E+00 -0.00000000000E+00 -0.50000000000E+03  0.50000000000E+03  0.00000000000E+00 0.  1.
         23    2    1    2    0    0 -0.13134907784E+02 -0.10113991163E+02 -0.19323973200E+03  0.21448318644E+03  0.91578516154E+02 0.  0.
        -11    1    1    2    0    0  0.10593563118E+03  0.12191169026E+03  0.45682712378E+03  0.48453672636E+03  0.00000000000E+00 0. -1.
         11    1    1    2    0    0 -0.92800723391E+02 -0.11179769910E+03 -0.26358739178E+03  0.30098008720E+03  0.00000000000E+00 0.  1.
        -15    1    3    3    0    0  0.33894040629E+01  0.22160088872E+02 -0.53461074439E+01  0.23114847880E+02  0.17770000000E+01 0. -1.
         15    1    3    3    0    0 -0.16524311847E+02 -0.32274080035E+02 -0.18789362456E+03  0.19136833856E+03  0.17770000000E+01 0.  1.
</event>
<event>
 7    1  0.2288857E-006  0.5155671E+03  0.7546771E-02  0.9365635E-01
        -11   -1    0    0    0    0  0.00000000000E+00  0.00000000000E+00  0.50000000000E+03  0.50000000000E+03  0.00000000000E+00 0.  1.
         11   -1    0    0    0    0 -0.00000000000E+00 -0.00000000000E+00 -0.50000000000E+03  0.50000000000E+03  0.00000000000E+00 0. -1.
         23    2    1    2    0    0 -0.30715824821E+02 -0.97987018258E+02  0.30583664445E+03  0.33541805092E+03  0.91783975459E+02 0.  0.
        -11    1    1    2    0    0  0.80293483536E+02 -0.33774062549E+02  0.15768935494E+03  0.18014900349E+03  0.00000000000E+00 0.  1.
         11    1    1    2    0    0 -0.49577658715E+02  0.13176108081E+03 -0.46352599939E+03  0.48443294559E+03  0.00000000000E+00 0. -1.
        -15    1    3    3    0    0 -0.47869443036E+02 -0.52918331191E+02  0.25713460515E+03  0.26685800765E+03  0.17770000000E+01 0.  1.
         15    1    3    3    0    0  0.17153618215E+02 -0.45068687068E+02  0.48702039305E+02  0.68560043271E+02  0.17770000000E+01 0. -1.
</event>
<event>
 7    1  0.2288857E-006  0.5144563E+03  0.7546771E-02  0.9368031E-01
        -11   -1    0    0    0    0  0.00000000000E+00  0.00000000000E+00  0.50000000000E+03  0.50000000000E+03  0.00000000000E+00 0. -1.
         11   -1    0    0    0    0 -0.00000000000E+00 -0.00000000000E+00 -0.50000000000E+03  0.50000000000E+03  0.00000000000E+00 0.  1.
         23    2    1    2    0    0 -0.45807538747E+02 -0.13964484280E+03 -0.36077444374E+03  0.40121886715E+03  0.96017536811E+02 0.  0.
        -11    1    1    2    0    0  0.63109984776E+01  0.13368958464E+03  0.46673327660E+03  0.48554370064E+03  0.00000000000E+00 0. -1.
         11    1    1    2    0    0  0.39496540270E+02  0.59552581515E+01 -0.10595883286E+03  0.11323743221E+03  0.00000000000E+00 0.  1.
        -15    1    3    3    0    0 -0.14488453011E+02  0.12863652074E+02 -0.32231542363E+02  0.37648623712E+02  0.17770000000E+01 0. -1.
         15    1    3    3    0    0 -0.31319085736E+02 -0.15250849487E+03 -0.32854290137E+03  0.36357024343E+03  0.17770000000E+01 0.  1.
</event>
<event>
 6    1  0.2288857E-006  0.5231651E+03  0.7546771E-02  0.9349418E-01
        -11   -1    0    0    0    0  0.00000000000E+00  0.00000000000E+00  0.50000000000E+03  0.50000000000E+03  0.00000000000E+00 0. -1.
         11   -1    0    0    0    0 -0.00000000000E+00 -0.00000000000E+00 -0.50000000000E+03  0.50000000000E+03  0.00000000000E+00 0. -1.
        -11    1    1    2    0    0  0.84380361968E+02  0.39882458479E+02  0.39598840849E+03  0.40683839008E+03  0.00000000000E+00 0. -1.
         11    1    1    2    0    0 -0.19067515835E+02 -0.79663954258E+02 -0.46974635097E+03  0.47683492953E+03  0.00000000000E+00 0. -1.
        -15    1    1    2    0    0 -0.99101490434E+01 -0.71903877230E+01 -0.57123618424E+00  0.12385344947E+02  0.17770000000E+01 0. -1.
         15    1    1    2    0    0 -0.55402697090E+02  0.46971883502E+02  0.74329178664E+02  0.10394133545E+03  0.17770000000E+01 0.  1.
</event>
<event>
 7    1  0.2288857E-006  0.4458702E+03  0.7546771E-02  0.9529806E-01
        -11   -1    0    0    0    0  0.00000000000E+00  0.00000000000E+00  0.50000000000E+03  0.50000000000E+03  0.00000000000E+00 0.  1.
         11   -1    0    0    0    0 -0.00000000000E+00 -0.00000000000E+00 -0.50000000000E+03  0.50000000000E+03  0.00000000000E+00 0. -1.
         23    2    1    2    0    0 -0.59670276867E+00 -0.31909976787E+02 -0.18798827709E+02  0.10749055874E+03  0.10090699491E+03 0.  0.
        -11    1    1    2    0    0 -0.23187737869E+03 -0.14491472724E+03  0.35438852911E+03  0.44761437252E+03  0.00000000000E+00 0.  1.
         11    1    1    2    0    0  0.23247408146E+03  0.17682470402E+03 -0.33558970140E+03  0.44489506874E+03  0.00000000000E+00 0. -1.
        -15    1    3    3    0    0 -0.16962150786E+02  0.29309563653E+02 -0.27293296271E+02  0.43529838401E+02  0.17770000000E+01 0.  1.
         15    1    3    3    0    0  0.16365448018E+02 -0.61219540441E+02  0.84944685620E+01  0.63960720335E+02  0.17770000000E+01 0. -1.
</event>
<event>
 7    1  0.2288857E-006  0.5097354E+03  0.7546771E-02  0.9378286E-01
        -11   -1    0    0    0    0  0.00000000000E+00  0.00000000000E+00  0.50000000000E+03  0.50000000000E+03  0.00000000000E+00 0.  1.
         11   -1    0    0    0    0 -0.00000000000E+00 -0.00000000000E+00 -0.50000000000E+03  0.50000000000E+03  0.00000000000E+00 0. -1.
         23    2    1    2    0    0  0.43759597133E+02  0.47384946258E+02 -0.15854542711E+03  0.19060395335E+03  0.83862858896E+02 0.  0.
        -11    1    1    2    0    0 -0.11932134523E+03 -0.13226910061E+03  0.45675671454E+03  0.49026461700E+03  0.00000000000E+00 0.  1.
         11    1    1    2    0    0  0.75561748097E+02  0.84884154350E+02 -0.29821128743E+03  0.31913142964E+03  0.00000000000E+00 0. -1.
        -15    1    3    3    0    0  0.15781043971E+01  0.58910842708E+02 -0.11290140092E+03  0.12736899882E+03  0.17770000000E+01 0.  1.
         15    1    3    3    0    0  0.42181492736E+02 -0.11525896450E+02 -0.45644026189E+02  0.63234954528E+02  0.17770000000E+01 0. -1.
</event>
<event>
 7    1  0.2288857E-006  0.5194555E+03  0.7546771E-02  0.9357299E-01
        -11   -1    0    0    0    0  0.00000000000E+00  0.00000000000E+00  0.50000000000E+03  0.50000000000E+03  0.00000000000E+00 0.  1.
         11   -1    0    0    0    0 -0.00000000000E+00 -0.00000000000E+00 -0.50000000000E+03  0.50000000000E+03  0.00000000000E+00 0. -1.
         23    2    1    2    0    0  0.98750633945E+02 -0.13044477202E+03 -0.26992673990E+03  0.33145688195E+03  0.10117160385E+03 0.  0.
        -11    1    1    2    0    0 -0.65658049259E+02  0.14095316295E+03  0.45469132420E+03  0.48054445568E+03  0.00000000000E+00 0.  1.
         11    1    1    2    0    0 -0.33092584686E+02 -0.10508390926E+02 -0.18476458431E+03  0.18799866237E+03  0.00000000000E+00 0. -1.
        -15    1    3    3    0    0  0.56317518642E+01 -0.64688098885E+02 -0.44190592206E+02  0.78563559841E+02  0.17770000000E+01 0.  1.
         15    1    3    3    0    0  0.93118882080E+02 -0.65756673137E+02 -0.22573614769E+03  0.25289332211E+03  0.17770000000E+01 0. -1.
</event>
<event>
 7    1  0.2288857E-006  0.4391296E+03  0.7546771E-02  0.9547365E-01
        -11   -1    0    0    0    0  0.00000000000E+00  0.00000000000E+00  0.50000000000E+03  0.50000000000E+03  0.00000000000E+00 0.  1.
         11   -1    0    0    0    0 -0.00000000000E+00 -0.00000000000E+00 -0.50000000000E+03  0.50000000000E+03  0.00000000000E+00 0. -1.
         23    2    1    2    0    0 -0.22290039047E+02  0.39583336470E+02  0.39452625954E+03  0.40726822576E+03  0.90292590388E+02 0.  0.
        -11    1    1    2    0    0  0.85804042245E+02  0.63896174840E+02  0.59731662177E+02  0.12252724714E+03  0.00000000000E+00 0.  1.
         11    1    1    2    0    0 -0.63514003198E+02 -0.10347951131E+03 -0.45425792172E+03  0.47020452710E+03  0.00000000000E+00 0. -1.
        -15    1    3    3    0    0  0.13330062316E+02 -0.21722500892E+02  0.58451559539E+02  0.63791066364E+02  0.17770000000E+01 0. -1.
         15    1    3    3    0    0 -0.35620101363E+02  0.61305837362E+02  0.33607470000E+03  0.34347715940E+03  0.17770000000E+01 0.  1.
</event>
<event>
 7    1  0.2288857E-006  0.3470673E+03  0.7546771E-02  0.9827186E-01
        -11   -1    0    0    0    0  0.00000000000E+00  0.00000000000E+00  0.50000000000E+03  0.50000000000E+03  0.00000000000E+00 0.  1.
         11   -1    0    0    0    0 -0.00000000000E+00 -0.00000000000E+00 -0.50000000000E+03  0.50000000000E+03  0.00000000000E+00 0.  1.
         23    2    1    2    0    0  0.22099475267E+03 -0.83342898663E+02  0.15370078363E+03  0.29660336538E+03  0.92546777364E+02 0.  0.
        -11    1    1    2    0    0  0.59754185072E+02 -0.24409839139E+03 -0.92336615215E+02  0.26773239965E+03  0.00000000000E+00 0.  1.
         11    1    1    2    0    0 -0.28074893774E+03  0.32744129005E+03 -0.61364168413E+02  0.43566423498E+03  0.00000000000E+00 0.  1.
        -15    1    3    3    0    0  0.20314774030E+03 -0.99374965310E+02  0.15199127333E+03  0.27248650062E+03  0.17770000000E+01 0.  1.
         15    1    3    3    0    0  0.17847012368E+02  0.16032066647E+02  0.17095102946E+01  0.24116864761E+02  0.17770000000E+01 0. -1.
</event>
<event>
 7    1  0.2288857E-006  0.4784691E+03  0.7546771E-02  0.9449319E-01
        -11   -1    0    0    0    0  0.00000000000E+00  0.00000000000E+00  0.50000000000E+03  0.50000000000E+03  0.00000000000E+00 0.  1.
         11   -1    0    0    0    0 -0.00000000000E+00 -0.00000000000E+00 -0.50000000000E+03  0.50000000000E+03  0.00000000000E+00 0.  1.
         23    2    1    2    0    0  0.95304190672E+02 -0.12264323365E+03  0.44146428614E+03  0.47671397651E+03  0.90781319366E+02 0.  0.
        -11    1    1    2    0    0 -0.18152752510E+02  0.43333792250E+02  0.18281184209E+02  0.50413705186E+02  0.00000000000E+00 0.  1.
         11    1    1    2    0    0 -0.77151438161E+02  0.79309441397E+02 -0.45974547035E+03  0.47287231830E+03  0.00000000000E+00 0.  1.
        -15    1    3    3    0    0  0.74214564993E+01  0.13898358637E+02  0.61342988291E+02  0.63358995658E+02  0.17770000000E+01 0. -1.
         15    1    3    3    0    0  0.87882734172E+02 -0.13654159228E+03  0.38012129785E+03  0.41335498086E+03  0.17770000000E+01 0.  1.
</event>
<event>
 7    1  0.2288857E-006  0.3738088E+03  0.7546771E-02  0.9737119E-01
        -11   -1    0    0    0    0  0.00000000000E+00  0.00000000000E+00  0.50000000000E+03  0.50000000000E+03  0.00000000000E+00 0.  1.
         11   -1    0    0    0    0 -0.00000000000E+00 -0.00000000000E+00 -0.50000000000E+03  0.50000000000E+03  0.00000000000E+00 0. -1.
         23    2    1    2    0    0  0.19876309660E+03  0.44298942763E+02  0.27834275246E+02  0.22464464272E+03  0.90671405232E+02 0.  0.
        -11    1    1    2    0    0 -0.13118602939E+03  0.95544484634E+02  0.33963126111E+03  0.37641455388E+03  0.00000000000E+00 0.  1.
         11    1    1    2    0    0 -0.67577067214E+02 -0.13984342740E+03 -0.36746553636E+03  0.39894080339E+03  0.00000000000E+00 0. -1.
        -15    1    3    3    0    0  0.20650575486E+03  0.35183860735E+02  0.20468359775E+02  0.21048667970E+03  0.17770000000E+01 0.  1.
         15    1    3    3    0    0 -0.77426582653E+01  0.91150820284E+01  0.73659154715E+01  0.14157963029E+02  0.17770000000E+01 0. -1.
</event>
<event>
 7    1  0.2288857E-006  0.5260998E+03  0.7546771E-02  0.9343231E-01
        -11   -1    0    0    0    0  0.00000000000E+00  0.00000000000E+00  0.50000000000E+03  0.50000000000E+03  0.00000000000E+00 0.  1.
         11   -1    0    0    0    0 -0.00000000000E+00 -0.00000000000E+00 -0.50000000000E+03  0.50000000000E+03  0.00000000000E+00 0. -1.
         23    2    1    2    0    0  0.32527399983E+02 -0.42008517714E+02  0.16939624605E+03  0.19923876320E+03  0.90433673345E+02 0.  0.
        -11    1    1    2    0    0 -0.16990819189E+03 -0.50265673522E+02  0.27466836810E+03  0.32686104700E+03  0.00000000000E+00 0.  1.
         11    1    1    2    0    0  0.13738079191E+03  0.92274191236E+02 -0.44406461415E+03  0.47390018981E+03  0.00000000000E+00 0. -1.
        -15    1    3    3    0    0  0.55317610304E+02 -0.54842915297E+02  0.13651858458E+03  0.15718862883E+03  0.17770000000E+01 0. -1.
         15    1    3    3    0    0 -0.22790210321E+02  0.12834397583E+02  0.32877661468E+02  0.42050134368E+02  0.17770000000E+01 0.  1.
</event>
<event>
 7    1  0.2288857E-006  0.5129388E+03  0.7546771E-02  0.9371315E-01
        -11   -1    0    0    0    0  0.00000000000E+00  0.00000000000E+00  0.50000000000E+03  0.50000000000E+03  0.00000000000E+00 0.  1.
         11   -1    0    0    0    0 -0.00000000000E+00 -0.00000000000E+00 -0.50000000000E+03  0.50000000000E+03  0.00000000000E+00 0. -1.
         23    2    1    2    0    0  0.52644811377E+02 -0.52480461514E+02  0.26907323514E+03  0.29485478607E+03  0.94938211442E+02 0.  0.
        -11    1    1    2    0    0 -0.47139660602E+02 -0.35239381316E+02  0.20999206051E+03  0.21808399087E+03  0.00000000000E+00 0.  1.
         11    1    1    2    0    0 -0.55051507750E+01  0.87719842830E+02 -0.47906529565E+03  0.48706122306E+03  0.00000000000E+00 0. -1.
        -15    1    3    3    0    0  0.50011202956E+02 -0.22643537190E+02  0.25651048352E+03  0.26232543926E+03  0.17770000000E+01 0.  1.
         15    1    3    3    0    0  0.26336084211E+01 -0.29836924324E+02  0.12562751620E+02  0.32529346808E+02  0.17770000000E+01 0. -1.
</event>
<event>
 7    1  0.2288857E-006  0.4163168E+03  0.7546771E-02  0.9609382E-01
        -11   -1    0    0    0    0  0.00000000000E+00  0.00000000000E+00  0.50000000000E+03  0.50000000000E+03  0.00000000000E+00 0. -1.
         11   -1    0    0    0    0 -0.00000000000E+00 -0.00000000000E+00 -0.50000000000E+03  0.50000000000E+03  0.00000000000E+00 0.  1.
         23    2    1    2    0    0 -0.36628872466E+02 -0.56757324417E+02  0.10808101839E+03  0.15766802295E+03  0.92815035151E+02 0.  0.
        -11    1    1    2    0    0  0.11444483092E+03  0.18180253323E+03  0.32236450189E+03  0.38738695447E+03  0.00000000000E+00 0. -1.
         11    1    1    2    0    0 -0.77815958455E+02 -0.12504520881E+03 -0.43044552029E+03  0.45494502258E+03  0.00000000000E+00 0.  1.
        -15    1    3    3    0    0 -0.60024844860E+02 -0.10264662888E+02  0.71981479852E+02  0.94301837073E+02  0.17770000000E+01 0. -1.
         15    1    3    3    0    0  0.23395972394E+02 -0.46492661529E+02  0.36099538542E+02  0.63366185875E+02  0.17770000000E+01 0.  1.
</event>
<event>
 7    1  0.2288857E-006  0.5069885E+03  0.7546771E-02  0.9384307E-01
        -11   -1    0    0    0    0  0.00000000000E+00  0.00000000000E+00  0.50000000000E+03  0.50000000000E+03  0.00000000000E+00 0. -1.
         11   -1    0    0    0    0 -0.00000000000E+00 -0.00000000000E+00 -0.50000000000E+03  0.50000000000E+03  0.00000000000E+00 0.  1.
         23    2    1    2    0    0 -0.11290411981E+03 -0.62004976390E+01 -0.30621263852E+03  0.33887891220E+03  0.91032690288E+02 0.  0.
        -11    1    1    2    0    0  0.14824208767E+03 -0.52440285114E+01  0.47016714012E+03  0.49301151715E+03  0.00000000000E+00 0. -1.
         11    1    1    2    0    0 -0.35337967858E+02  0.11444526150E+02 -0.16395450160E+03  0.16810957065E+03  0.00000000000E+00 0.  1.
        -15    1    3    3    0    0 -0.58021235024E+02 -0.48313289413E+02 -0.17292532471E+03  0.18869807445E+03  0.17770000000E+01 0.  1.
         15    1    3    3    0    0 -0.54882884786E+02  0.42112791774E+02 -0.13328731382E+03  0.15018083775E+03  0.17770000000E+01 0. -1.
</event>
<event>
 7    1  0.2745372E-006  0.5172119E+03  0.7546771E-02  0.9362099E-01
        -11   -1    0    0    0    0  0.00000000000E+00  0.00000000000E+00  0.50000000000E+03  0.50000000000E+03  0.00000000000E+00 0.  1.
         11   -1    0    0    0    0 -0.00000000000E+00 -0.00000000000E+00 -0.50000000000E+03  0.50000000000E+03  0.00000000000E+00 0. -1.
         23    2    1    2    0    0 -0.21325211269E+01  0.53698925010E+02 -0.13682386447E+03  0.17368973643E+03  0.92516120002E+02 0.  0.
        -11    1    1    2    0    0 -0.42048416079E+01 -0.29060233663E+03  0.38550863866E+03  0.48278805829E+03  0.00000000000E+00 0.  1.
         11    1    1    2    0    0  0.63373627348E+01  0.23690341162E+03 -0.24868477419E+03  0.34352220528E+03  0.00000000000E+00 0. -1.
        -15    1    3    3    0    0 -0.40097255038E+02  0.17959110546E+02 -0.25706305833E+02  0.50934186965E+02  0.17770000000E+01 0.  1.
         15    1    3    3    0    0  0.37964733911E+02  0.35739814464E+02 -0.11111755864E+03  0.12275554947E+03  0.17770000000E+01 0. -1.
</event>
<event>
 7    1  0.2288857E-006  0.3907955E+03  0.7546771E-02  0.9683995E-01
        -11   -1    0    0    0    0  0.00000000000E+00  0.00000000000E+00  0.50000000000E+03  0.50000000000E+03  0.00000000000E+00 0.  1.
         11   -1    0    0    0    0 -0.00000000000E+00 -0.00000000000E+00 -0.50000000000E+03  0.50000000000E+03  0.00000000000E+00 0.  1.
         23    2    1    2    0    0 -0.73210490323E+02  0.13747274342E+03  0.33789110508E+03  0.38359395421E+03  0.93356262466E+02 0.  0.
        -11    1    1    2    0    0  0.12680539443E+02 -0.19151730138E+03  0.67128982326E+02  0.20333709223E+03  0.00000000000E+00 0.  1.
         11    1    1    2    0    0  0.60529950880E+02  0.54044557957E+02 -0.40502008740E+03  0.41306895356E+03  0.00000000000E+00 0.  1.
        -15    1    3    3    0    0  0.14956139235E+02  0.10796637263E+02  0.87593742969E+02  0.89532536060E+02  0.17770000000E+01 0. -1.
         15    1    3    3    0    0 -0.88166629558E+02  0.12667610616E+03  0.25029736211E+03  0.29406141815E+03  0.17770000000E+01 0.  1.
</event>
<event>
 7    1  0.2288857E-006  0.3211430E+03  0.7546771E-02  0.9923221E-01
        -11   -1    0    0    0    0  0.00000000000E+00  0.00000000000E+00  0.50000000000E+03  0.50000000000E+03  0.00000000000E+00 0.  1.
         11   -1    0    0    0    0 -0.00000000000E+00 -0.00000000000E+00 -0.50000000000E+03  0.50000000000E+03  0.00000000000E+00 0.  1.
         23    2    1    2    0    0  0.20068235659E+03  0.26008009376E+03  0.18986036384E+03  0.39032824011E+03  0.91619396702E+02 0.  0.
        -11    1    1    2    0    0 -0.11483716308E+03 -0.26716311348E+03  0.99821956420E+02  0.30745426686E+03  0.00000000000E+00 0.  1.
         11    1    1    2    0    0 -0.85845193518E+02  0.70830197212E+01 -0.28968232026E+03  0.30221749303E+03  0.00000000000E+00 0.  1.
        -15    1    3    3    0    0  0.16947424822E+03  0.24934926540E+03  0.14484745018E+03  0.33448545337E+03  0.17770000000E+01 0.  1.
         15    1    3    3    0    0  0.31208108377E+02  0.10730828361E+02  0.45012913660E+02  0.55842786741E+02  0.17770000000E+01 0. -1.
</event>
<event>
 7    1  0.2288857E-006  0.4368873E+03  0.7546771E-02  0.9553281E-01
        -11   -1    0    0    0    0  0.00000000000E+00  0.00000000000E+00  0.50000000000E+03  0.50000000000E+03  0.00000000000E+00 0.  1.
         11   -1    0    0    0    0 -0.00000000000E+00 -0.00000000000E+00 -0.50000000000E+03  0.50000000000E+03  0.00000000000E+00 0.  1.
         23    2    1    2    0    0 -0.71170565164E+02 -0.66323675268E+02  0.40443467410E+03  0.42427428725E+03  0.83529551410E+02 0.  0.
        -11    1    1    2    0    0 -0.55577769746E+02  0.10928761094E+03  0.25682161574E+02  0.12526868650E+03  0.00000000000E+00 0.  1.
         11    1    1    2    0    0  0.12674833491E+03 -0.42963935670E+02 -0.43011683567E+03  0.45045702625E+03  0.00000000000E+00 0.  1.
        -15    1    3    3    0    0  0.35576914894E+01 -0.51224405472E+02  0.14328835084E+03  0.15222124064E+03  0.17770000000E+01 0. -1.
         15    1    3    3    0    0 -0.74728256653E+02 -0.15099269795E+02  0.26114632325E+03  0.27205304661E+03  0.17770000000E+01 0.  1.
</event>
<event>
 7    1  0.2288857E-006  0.3951853E+03  0.7546771E-02  0.9670735E-01
        -11   -1    0    0    0    0  0.00000000000E+00  0.00000000000E+00  0.50000000000E+03  0.50000000000E+03  0.00000000000E+00 0.  1.
         11   -1    0    0    0    0 -0.00000000000E+00 -0.00000000000E+00 -0.50000000000E+03  0.50000000000E+03  0.00000000000E+00 0. -1.
         23    2    1    2    0    0  0.67916769699E+02 -0.12829001808E+03 -0.85555750393E+02  0.19186858984E+03  0.91775557733E+02 0.  0.
        -11    1    1    2    0    0  0.45620060756E+02  0.17926662527E+03  0.41586694201E+03  0.45515165202E+03  0.00000000000E+00 0.  1.
         11    1    1    2    0    0 -0.11353683045E+03 -0.50976607195E+02 -0.33031119162E+03  0.35297975814E+03  0.00000000000E+00 0. -1.
        -15    1    3    3    0    0  0.74923961451E+02 -0.69962145361E+02 -0.84862149743E+02  0.13309036017E+03  0.17770000000E+01 0.  1.
         15    1    3    3    0    0 -0.70071917524E+01 -0.58327872715E+02 -0.69360064947E+00  0.58778229665E+02  0.17770000000E+01 0. -1.
</event>
<event>
 7    1  0.2288857E-006  0.5229451E+03  0.7546771E-02  0.9349883E-01
        -11   -1    0    0    0    0  0.00000000000E+00  0.00000000000E+00  0.50000000000E+03  0.50000000000E+03  0.00000000000E+00 0. -1.
         11   -1    0    0    0    0 -0.00000000000E+00 -0.00000000000E+00 -0.50000000000E+03  0.50000000000E+03  0.00000000000E+00 0.  1.
         23    2    1    2    0    0  0.11964527032E+02 -0.12779871514E+03  0.21020446915E+03  0.26229655409E+03  0.90210320582E+02 0.  0.
        -11    1    1    2    0    0  0.74275430504E+02  0.28040970447E+02  0.24826302239E+03  0.26064854477E+03  0.00000000000E+00 0. -1.
         11    1    1    2    0    0 -0.86239957535E+02  0.99757744691E+02 -0.45846749154E+03  0.47705490114E+03  0.00000000000E+00 0.  1.
        -15    1    3    3    0    0  0.31815823708E+02 -0.68968667162E+01  0.29520704605E+02  0.43982304829E+02  0.17770000000E+01 0.  1.
         15    1    3    3    0    0 -0.19851296677E+02 -0.12090184842E+03  0.18068376455E+03  0.21831424926E+03  0.17770000000E+01 0. -1.
</event>
<event>
 7    1  0.2288857E-006  0.4192398E+03  0.7546771E-02  0.9601201E-01
        -11   -1    0    0    0    0  0.00000000000E+00  0.00000000000E+00  0.50000000000E+03  0.50000000000E+03  0.00000000000E+00 0. -1.
         11   -1    0    0    0    0 -0.00000000000E+00 -0.00000000000E+00 -0.50000000000E+03  0.50000000000E+03  0.00000000000E+00 0. -1.
         23    2    1    2    0    0 -0.79500549000E+02  0.77487010624E+02  0.19874618051E+02  0.15396950080E+03  0.10481904707E+03 0.  0.
        -11    1    1    2    0    0  0.91627563240E+02  0.74397591929E+01  0.40360848465E+03  0.41394536988E+03  0.00000000000E+00 0. -1.
         11    1    1    2    0    0 -0.12127014240E+02 -0.84926769817E+02 -0.42348310270E+03  0.43208512932E+03  0.00000000000E+00 0. -1.
        -15    1    3    3    0    0 -0.18007060987E+02  0.54961889894E+01 -0.38382779257E+02  0.42788524294E+02  0.17770000000E+01 0.  1.
         15    1    3    3    0    0 -0.61493488013E+02  0.71990821634E+02  0.58257397308E+02  0.11118097651E+03  0.17770000000E+01 0. -1.
</event>
<event>
 7    1  0.2288857E-006  0.4833324E+03  0.7546771E-02  0.9437897E-01
        -11   -1    0    0    0    0  0.00000000000E+00  0.00000000000E+00  0.50000000000E+03  0.50000000000E+03  0.00000000000E+00 0. -1.
         11   -1    0    0    0    0 -0.00000000000E+00 -0.00000000000E+00 -0.50000000000E+03  0.50000000000E+03  0.00000000000E+00 0.  1.
         23    2    1    2    0    0  0.11986818927E+02  0.10440333318E+03  0.44420025712E+03  0.46536537901E+03  0.90594303064E+02 0.  0.
        -11    1    1    2    0    0  0.16905467476E+02 -0.54114329630E-02  0.37378453674E+02  0.41023696310E+02  0.00000000000E+00 0. -1.
         11    1    1    2    0    0 -0.28892286403E+02 -0.10439792175E+03 -0.48157871079E+03  0.49361092468E+03  0.00000000000E+00 0.  1.
        -15    1    3    3    0    0 -0.64040914403E+01  0.14649406936E+02  0.52043611514E+01  0.16907413011E+02  0.17770000000E+01 0.  1.
         15    1    3    3    0    0  0.18390910367E+02  0.89753926243E+02  0.43899589597E+03  0.44845796600E+03  0.17770000000E+01 0. -1.
</event>
<event>
 7    1  0.2288857E-006  0.5162910E+03  0.7546771E-02  0.9364077E-01
        -11   -1    0    0    0    0  0.00000000000E+00  0.00000000000E+00  0.50000000000E+03  0.50000000000E+03  0.00000000000E+00 0.  1.
         11   -1    0    0    0    0 -0.00000000000E+00 -0.00000000000E+00 -0.50000000000E+03  0.50000000000E+03  0.00000000000E+00 0.  1.
         23    2    1    2    0    0 -0.13320557477E+03 -0.61487230338E+02  0.84082259990E+01  0.17194920990E+03  0.89282853213E+02 0.  0.
        -11    1    1    2    0    0  0.37556656971E+03  0.28597938117E+03 -0.10554580293E+03  0.48370897372E+03  0.00000000000E+00 0.  1.
         11    1    1    2    0    0 -0.24236099495E+03 -0.22449215083E+03  0.97137576929E+02  0.34434181638E+03  0.00000000000E+00 0.  1.
        -15    1    3    3    0    0 -0.21374753245E+02 -0.37099329432E+02  0.33937594394E+02  0.54664050004E+02  0.17770000000E+01 0.  1.
         15    1    3    3    0    0 -0.11183082152E+03 -0.24387900907E+02 -0.25529368395E+02  0.11728515990E+03  0.17770000000E+01 0. -1.
</event>
<event>
 7    1  0.2288857E-006  0.3793308E+03  0.7546771E-02  0.9719524E-01
        -11   -1    0    0    0    0  0.00000000000E+00  0.00000000000E+00  0.50000000000E+03  0.50000000000E+03  0.00000000000E+00 0. -1.
         11   -1    0    0    0    0 -0.00000000000E+00 -0.00000000000E+00 -0.50000000000E+03  0.50000000000E+03  0.00000000000E+00 0.  1.
         23    2    1    2    0    0 -0.16025799886E+03 -0.69350459040E+02 -0.87874775728E+02  0.21655785349E+03  0.93183771828E+02 0.  0.
        -11    1    1    2    0    0  0.20426072955E+03  0.16527177638E+02  0.40770289762E+03  0.45630827953E+03  0.00000000000E+00 0. -1.
         11    1    1    2    0    0 -0.44002730694E+02  0.52823281402E+02 -0.31982812190E+03  0.32713386697E+03  0.00000000000E+00 0.  1.
        -15    1    3    3    0    0 -0.29157195904E+02 -0.11828140647E+02 -0.64090260410E+02  0.71419648505E+02  0.17770000000E+01 0.  1.
         15    1    3    3    0    0 -0.13110080296E+03 -0.57522318394E+02 -0.23784515319E+02  0.14513820499E+03  0.17770000000E+01 0. -1.
</event>
<event>
 7    1  0.2288857E-006  0.5390798E+03  0.7546771E-02  0.9316376E-01
        -11   -1    0    0    0    0  0.00000000000E+00  0.00000000000E+00  0.50000000000E+03  0.50000000000E+03  0.00000000000E+00 0. -1.
         11   -1    0    0    0    0 -0.00000000000E+00 -0.00000000000E+00 -0.50000000000E+03  0.50000000000E+03  0.00000000000E+00 0.  1.
         23    2    1    2    0    0  0.41912804537E+02 -0.40040279374E+02 -0.22287876101E+02  0.11304480197E+03  0.94458830583E+02 0.  0.
        -11    1    1    2    0    0 -0.23706996846E+03 -0.32879863224E+02  0.39390884952E+03  0.46092020685E+03  0.00000000000E+00 0. -1.
         11    1    1    2    0    0  0.19515716392E+03  0.72920142598E+02 -0.37162097342E+03  0.42603499118E+03  0.00000000000E+00 0.  1.
        -15    1    3    3    0    0  0.66956290297E+01  0.27188692885E+02 -0.24278473301E+02  0.37103348417E+02  0.17770000000E+01 0. -1.
         15    1    3    3    0    0  0.35217175507E+02 -0.67228972259E+02  0.19905972000E+01  0.75941453554E+02  0.17770000000E+01 0.  1.
</event>
<event>
 7    1  0.2288857E-006  0.3809505E+03  0.7546771E-02  0.9714423E-01
        -11   -1    0    0    0    0  0.00000000000E+00  0.00000000000E+00  0.50000000000E+03  0.50000000000E+03  0.00000000000E+00 0.  1.
         11   -1    0    0    0    0 -0.00000000000E+00 -0.00000000000E+00 -0.50000000000E+03  0.50000000000E+03  0.00000000000E+00 0. -1.
         23    2    1    2    0    0  0.12098294170E+03 -0.11151709675E+03  0.29941264070E+03  0.35347607108E+03  0.90688854698E+02 0.  0.
        -11    1    1    2    0    0 -0.34017216392E+02  0.18267368921E+03  0.11407741108E+03  0.21803784868E+03  0.00000000000E+00 0.  1.
         11    1    1    2    0    0 -0.86965725310E+02 -0.71156592459E+02 -0.41349005178E+03  0.42848608023E+03  0.00000000000E+00 0. -1.
        -15    1    3    3    0    0  0.82260900342E+02 -0.41233366344E+02  0.22863320836E+03  0.24646165608E+03  0.17770000000E+01 0.  1.
         15    1    3    3    0    0  0.38722041360E+02 -0.70283730404E+02  0.70779432348E+02  0.10701441501E+03  0.17770000000E+01 0. -1.
</event>
<event>
 7    1  0.2288857E-006  0.5087389E+03  0.7546771E-02  0.9380465E-01
        -11   -1    0    0    0    0  0.00000000000E+00  0.00000000000E+00  0.50000000000E+03  0.50000000000E+03  0.00000000000E+00 0.  1.
         11   -1    0    0    0    0 -0.00000000000E+00 -0.00000000000E+00 -0.50000000000E+03  0.50000000000E+03  0.00000000000E+00 0. -1.
         23    2    1    2    0    0  0.40137229748E+01 -0.16474035094E+03 -0.30091180070E+03  0.35552497823E+03  0.93244866563E+02 0.  0.
        -11    1    1    2    0    0  0.12211693850E+02  0.19725557993E+03  0.44975395827E+03  0.49126114467E+03  0.00000000000E+00 0.  1.
         11    1    1    2    0    0 -0.16225416825E+02 -0.32515228991E+02 -0.14884215757E+03  0.15321387710E+03  0.00000000000E+00 0. -1.
        -15    1    3    3    0    0  0.45466284733E+02 -0.11986099736E+03 -0.20169906818E+03  0.23899689029E+03  0.17770000000E+01 0. -1.
         15    1    3    3    0    0 -0.41452561758E+02 -0.44879353589E+02 -0.99212732522E+02  0.11652808794E+03  0.17770000000E+01 0.  1.
</event>
<event>
 7    1  0.2288857E-006  0.4618130E+03  0.7546771E-02  0.9489559E-01
        -11   -1    0    0    0    0  0.00000000000E+00  0.00000000000E+00  0.50000000000E+03  0.50000000000E+03  0.00000000000E+00 0. -1.
         11   -1    0    0    0    0 -0.00000000000E+00 -0.00000000000E+00 -0.50000000000E+03  0.50000000000E+03  0.00000000000E+00 0. -1.
         23    2    1    2    0    0  0.14056994473E+03 -0.87619048954E+02 -0.39840783250E+03  0.44105457874E+03  0.91451262031E+02 0.  0.
        -11    1    1    2    0    0 -0.19789090983E+03  0.39976755762E+02  0.43226044549E+03  0.47708285017E+03  0.00000000000E+00 0. -1.
         11    1    1    2    0    0  0.57320965091E+02  0.47642293192E+02 -0.33852612993E+02  0.81862571093E+02  0.00000000000E+00 0. -1.
        -15    1    3    3    0    0  0.10731830963E+03 -0.29017579685E+02 -0.17184164773E+03  0.20467522844E+03  0.17770000000E+01 0.  1.
         15    1    3    3    0    0  0.33251635100E+02 -0.58601469269E+02 -0.22656618477E+03  0.23637935030E+03  0.17770000000E+01 0. -1.
</event>
<event>
 7    1  0.2288857E-006  0.4183929E+03  0.7546771E-02  0.9603564E-01
        -11   -1    0    0    0    0  0.00000000000E+00  0.00000000000E+00  0.50000000000E+03  0.50000000000E+03  0.00000000000E+00 0.  1.
         11   -1    0    0    0    0 -0.00000000000E+00 -0.00000000000E+00 -0.50000000000E+03  0.50000000000E+03  0.00000000000E+00 0.  1.
         23    2    1    2    0    0 -0.11777524599E+02 -0.11941210267E+03 -0.35483044054E+02  0.15391038683E+03  0.89618080819E+02 0.  0.
        -11    1    1    2    0    0  0.93132868140E+02  0.15765888674E+03  0.41630729017E+03  0.45479865385E+03  0.00000000000E+00 0.  1.
         11    1    1    2    0    0 -0.81355343541E+02 -0.38246784071E+02 -0.38082424611E+03  0.39129095932E+03  0.00000000000E+00 0.  1.
        -15    1    3    3    0    0  0.86042825419E+01 -0.10662875400E+03  0.46428131518E+01  0.10709079466E+03  0.17770000000E+01 0.  1.
         15    1    3    3    0    0 -0.20381807141E+02 -0.12783348667E+02 -0.40125857206E+02  0.46819592170E+02  0.17770000000E+01 0. -1.
</event>
<event>
 7    1  0.2288857E-006  0.5105907E+03  0.7546771E-02  0.9376419E-01
        -11   -1    0    0    0    0  0.00000000000E+00  0.00000000000E+00  0.50000000000E+03  0.50000000000E+03  0.00000000000E+00 0.  1.
         11   -1    0    0    0    0 -0.00000000000E+00 -0.00000000000E+00 -0.50000000000E+03  0.50000000000E+03  0.00000000000E+00 0. -1.
         23    2    1    2    0    0  0.46195214295E+02 -0.24399708526E+02 -0.23516178384E+03  0.25811925681E+03  0.92709991691E+02 0.  0.
        -11    1    1    2    0    0 -0.50529950133E+02  0.95945673158E+02  0.47724483691E+03  0.48940931991E+03  0.00000000000E+00 0.  1.
         11    1    1    2    0    0  0.43347358383E+01 -0.71545964632E+02 -0.24208305307E+03  0.25247142328E+03  0.00000000000E+00 0. -1.
        -15    1    3    3    0    0  0.72454963694E+02 -0.87882475443E+01 -0.13618970396E+03  0.15452426428E+03  0.17770000000E+01 0. -1.
         15    1    3    3    0    0 -0.26259749399E+02 -0.15611460982E+02 -0.98972079880E+02  0.10359499253E+03  0.17770000000E+01 0.  1.
</event>
<event>
 7    1  0.2288857E-006  0.4799859E+03  0.7546771E-02  0.9445741E-01
        -11   -1    0    0    0    0  0.00000000000E+00  0.00000000000E+00  0.50000000000E+03  0.50000000000E+03  0.00000000000E+00 0.  1.
         11   -1    0    0    0    0 -0.00000000000E+00 -0.00000000000E+00 -0.50000000000E+03  0.50000000000E+03  0.00000000000E+00 0.  1.
         23    2    1    2    0    0  0.65920064128E+02 -0.39312731821E+02  0.45408069912E+03  0.46965638958E+03  0.92178615885E+02 0.  0.
        -11    1    1    2    0    0  0.18623947639E+02 -0.41667686700E+02  0.14083432444E+02  0.47763904886E+02  0.00000000000E+00 0.  1.
         11    1    1    2    0    0 -0.84544011767E+02  0.80980418521E+02 -0.46816413156E+03  0.48257970553E+03  0.00000000000E+00 0.  1.
        -15    1    3    3    0    0  0.86269976918E+02 -0.27465093401E+02  0.40740144713E+03  0.41734390750E+03  0.17770000000E+01 0.  1.
         15    1    3    3    0    0 -0.20349912790E+02 -0.11847638420E+02  0.46679251985E+02  0.52312482082E+02  0.17770000000E+01 0. -1.
</event>
<event>
 7    1  0.2288857E-006  0.5355264E+03  0.7546771E-02  0.9323647E-01
        -11   -1    0    0    0    0  0.00000000000E+00  0.00000000000E+00  0.50000000000E+03  0.50000000000E+03  0.00000000000E+00 0.  1.
         11   -1    0    0    0    0 -0.00000000000E+00 -0.00000000000E+00 -0.50000000000E+03  0.50000000000E+03  0.00000000000E+00 0.  1.
         23    2    1    2    0    0  0.65517826120E+02  0.16779417221E+02  0.33583521167E+03  0.35445188603E+03  0.90976457015E+02 0.  0.
        -11    1    1    2    0    0 -0.11835594290E+03  0.71037434520E+02  0.11719020702E+03  0.18107454527E+03  0.00000000000E+00 0.  1.
         11    1    1    2    0    0  0.52838116783E+02 -0.87816851741E+02 -0.45302541869E+03  0.46447356870E+03  0.00000000000E+00 0.  1.
        -15    1    3    3    0    0  0.61870148286E+02  0.28051432602E+02  0.33566073949E+03  0.34247056499E+03  0.17770000000E+01 0. -1.
         15    1    3    3    0    0  0.36476778343E+01 -0.11272015381E+02  0.17447217997E+00  0.11981321041E+02  0.17770000000E+01 0.  1.
</event>
<event>
 7    1  0.2288857E-006  0.5217360E+03  0.7546771E-02  0.9352446E-01
        -11   -1    0    0    0    0  0.00000000000E+00  0.00000000000E+00  0.50000000000E+03  0.50000000000E+03  0.00000000000E+00 0.  1.
         11   -1    0    0    0    0 -0.00000000000E+00 -0.00000000000E+00 -0.50000000000E+03  0.50000000000E+03  0.00000000000E+00 0.  1.
         23    2    1    2    0    0  0.91583226075E+01 -0.22990702391E+01  0.10729460763E+03  0.14047042387E+03  0.90170097922E+02 0.  0.
        -11    1    1    2    0    0  0.12890870900E+02 -0.19181005449E+03  0.32925088253E+03  0.38126554421E+03  0.00000000000E+00 0.  1.
         11    1    1    2    0    0 -0.22049193508E+02  0.19410912473E+03 -0.43654549017E+03  0.47826403191E+03  0.00000000000E+00 0.  1.
        -15    1    3    3    0    0 -0.29288620713E+02 -0.13127319356E+02  0.75628784103E+01  0.33022790245E+02  0.17770000000E+01 0. -1.
         15    1    3    3    0    0  0.38446943320E+02  0.10828249117E+02  0.99731729221E+02  0.10744763363E+03  0.17770000000E+01 0.  1.
</event>
<event>
 7    1  0.2288857E-006  0.5026524E+03  0.7546771E-02  0.9393894E-01
        -11   -1    0    0    0    0  0.00000000000E+00  0.00000000000E+00  0.50000000000E+03  0.50000000000E+03  0.00000000000E+00 0.  1.
         11   -1    0    0    0    0 -0.00000000000E+00 -0.00000000000E+00 -0.50000000000E+03  0.50000000000E+03  0.00000000000E+00 0.  1.
         23    2    1    2    0    0  0.54106015722E+01 -0.12984631798E+03  0.47149386805E+03  0.49734757600E+03  0.90326091656E+02 0.  0.
        -11    1    1    2    0    0 -0.24806533263E+02  0.39817513707E+02 -0.40645641202E+02  0.62071463967E+02  0.00000000000E+00 0.  1.
         11    1    1    2    0    0  0.19395931691E+02  0.90028804278E+02 -0.43084822685E+03  0.44058096004E+03  0.00000000000E+00 0.  1.
        -15    1    3    3    0    0 -0.19373967806E+02 -0.12120505370E+03  0.43730819854E+03  0.45421100153E+03  0.17770000000E+01 0.  1.
         15    1    3    3    0    0  0.24784569378E+02 -0.86412642825E+01  0.34185669517E+02  0.43136574469E+02  0.17770000000E+01 0. -1.
</event>
<event>
 7    1  0.2288857E-006  0.5085810E+03  0.7546771E-02  0.9380811E-01
        -11   -1    0    0    0    0  0.00000000000E+00  0.00000000000E+00  0.50000000000E+03  0.50000000000E+03  0.00000000000E+00 0. -1.
         11   -1    0    0    0    0 -0.00000000000E+00 -0.00000000000E+00 -0.50000000000E+03  0.50000000000E+03  0.00000000000E+00 0. -1.
         23    2    1    2    0    0 -0.71599749632E+02  0.77679761287E+02  0.29253160463E+03  0.32421038952E+03  0.91525775088E+02 0.  0.
        -11    1    1    2    0    0 -0.42460060268E+02  0.90564696249E+02  0.15487962211E+03  0.18437060034E+03  0.00000000000E+00 0. -1.
         11    1    1    2    0    0  0.11405980990E+03 -0.16824445754E+03 -0.44741122673E+03  0.49141901015E+03  0.00000000000E+00 0. -1.
        -15    1    3    3    0    0  0.20790197363E+02  0.18961910498E+02  0.39717398185E+02  0.48707451214E+02  0.17770000000E+01 0.  1.
         15    1    3    3    0    0 -0.92389946995E+02  0.58717850788E+02  0.25281420644E+03  0.27550293830E+03  0.17770000000E+01 0. -1.
</event>
<event>
 7    1  0.2288857E-006  0.5379317E+03  0.7546771E-02  0.9318719E-01
        -11   -1    0    0    0    0  0.00000000000E+00  0.00000000000E+00  0.50000000000E+03  0.50000000000E+03  0.00000000000E+00 0.  1.
         11   -1    0    0    0    0 -0.00000000000E+00 -0.00000000000E+00 -0.50000000000E+03  0.50000000000E+03  0.00000000000E+00 0. -1.
         23    2    1    2    0    0 -0.13111188702E+03  0.13529097710E+01 -0.82993863648E+02  0.17987238034E+03  0.90961170427E+02 0.  0.
        -11    1    1    2    0    0  0.14210250274E+03 -0.74837415310E+02  0.43325902832E+03  0.46206833438E+03  0.00000000000E+00 0.  1.
         11    1    1    2    0    0 -0.10990615725E+02  0.73484505539E+02 -0.35026516467E+03  0.35805928528E+03  0.00000000000E+00 0. -1.
        -15    1    3    3    0    0 -0.13485207627E+03 -0.11738790033E+02 -0.91796274063E+02  0.16356220629E+03  0.17770000000E+01 0.  1.
         15    1    3    3    0    0  0.37401892569E+01  0.13091699804E+02  0.88024104149E+01  0.16310174050E+02  0.17770000000E+01 0. -1.
</event>
<event>
 7    1  0.2360476E-006  0.3925045E+03  0.7546771E-02  0.9678811E-01
        -11   -1    0    0    0    0  0.00000000000E+00  0.00000000000E+00  0.50000000000E+03  0.50000000000E+03  0.00000000000E+00 0.  1.
         11   -1    0    0    0    0 -0.00000000000E+00 -0.00000000000E+00 -0.50000000000E+03  0.50000000000E+03  0.00000000000E+00 0. -1.
         23    2    1    2    0    0  0.12792747208E+03  0.54789932529E+02 -0.85682124082E+02  0.19815971495E+03  0.11206458595E+03 0.  0.
        -11    1    1    2    0    0 -0.79507384924E+02 -0.16538392855E+02  0.43733675379E+03  0.44481274589E+03  0.00000000000E+00 0.  1.
         11    1    1    2    0    0 -0.48420087151E+02 -0.38251539674E+02 -0.35165462970E+03  0.35702753916E+03  0.00000000000E+00 0. -1.
        -15    1    3    3    0    0  0.24601293467E+02  0.50569818595E+02  0.10134664628E+02  0.57169916470E+02  0.17770000000E+01 0. -1.
         15    1    3    3    0    0  0.10332617861E+03  0.42201139338E+01 -0.95816788710E+02  0.14098979848E+03  0.17770000000E+01 0.  1.
</event>
<event>
 7    1  0.2288857E-006  0.5112092E+03  0.7546771E-02  0.9375072E-01
        -11   -1    0    0    0    0  0.00000000000E+00  0.00000000000E+00  0.50000000000E+03  0.50000000000E+03  0.00000000000E+00 0.  1.
         11   -1    0    0    0    0 -0.00000000000E+00 -0.00000000000E+00 -0.50000000000E+03  0.50000000000E+03  0.00000000000E+00 0. -1.
         23    2    1    2    0    0 -0.58598356323E+02 -0.18925678614E+03  0.43705670275E+03  0.48879080133E+03  0.92983802770E+02 0.  0.
        -11    1    1    2    0    0  0.19936353674E+02  0.10616737696E+03 -0.60811519215E+02  0.12396374873E+03  0.00000000000E+00 0.  1.
         11    1    1    2    0    0  0.38662002649E+02  0.83089409179E+02 -0.37624518354E+03  0.38724544994E+03  0.00000000000E+00 0. -1.
        -15    1    3    3    0    0 -0.32676469168E+01 -0.26679635029E+02  0.10418958139E+02  0.28882397050E+02  0.17770000000E+01 0. -1.
         15    1    3    3    0    0 -0.55330709406E+02 -0.16257715111E+03  0.42663774461E+03  0.45990840428E+03  0.17770000000E+01 0.  1.
</event>
<event>
 7    1  0.2288857E-006  0.3744070E+03  0.7546771E-02  0.9735197E-01
        -11   -1    0    0    0    0  0.00000000000E+00  0.00000000000E+00  0.50000000000E+03  0.50000000000E+03  0.00000000000E+00 0. -1.
         11   -1    0    0    0    0 -0.00000000000E+00 -0.00000000000E+00 -0.50000000000E+03  0.50000000000E+03  0.00000000000E+00 0. -1.
         23    2    1    2    0    0 -0.18267881582E+03  0.48436708709E+02  0.23850172300E+03  0.31795583668E+03  0.92169288261E+02 0.  0.
        -11    1    1    2    0    0  0.29032523549E+02 -0.13865794501E+03  0.17890355199E+03  0.22820033754E+03  0.00000000000E+00 0. -1.
         11    1    1    2    0    0  0.15364629228E+03  0.90221236299E+02 -0.41740527500E+03  0.45384382579E+03  0.00000000000E+00 0. -1.
        -15    1    3    3    0    0 -0.15114485711E+03  0.17578506344E+02  0.22528420652E+03  0.27186375844E+03  0.17770000000E+01 0. -1.
         15    1    3    3    0    0 -0.31533958710E+02  0.30858202366E+02  0.13217516488E+02  0.46092078238E+02  0.17770000000E+01 0.  1.
</event>
<event>
 7    1  0.2288857E-006  0.5054175E+03  0.7546771E-02  0.9387769E-01
        -11   -1    0    0    0    0  0.00000000000E+00  0.00000000000E+00  0.50000000000E+03  0.50000000000E+03  0.00000000000E+00 0.  1.
         11   -1    0    0    0    0 -0.00000000000E+00 -0.00000000000E+00 -0.50000000000E+03  0.50000000000E+03  0.00000000000E+00 0.  1.
         23    2    1    2    0    0 -0.19376976066E+03 -0.11258893398E+03  0.43435504403E+03  0.49458254213E+03  0.75661076523E+02 0.  0.
        -11    1    1    2    0    0  0.11613897571E+03  0.40361309944E+02 -0.11289495026E+03  0.16692083996E+03  0.00000000000E+00 0.  1.
         11    1    1    2    0    0  0.77630784945E+02  0.72227624041E+02 -0.32146009378E+03  0.33849661791E+03  0.00000000000E+00 0.  1.
        -15    1    3    3    0    0 -0.48205182424E+02  0.29232842085E+01  0.63776475736E+02  0.80018009156E+02  0.17770000000E+01 0. -1.
         15    1    3    3    0    0 -0.14556457823E+03 -0.11551221819E+03  0.37057856830E+03  0.41456453297E+03  0.17770000000E+01 0.  1.
</event>
<event>
 7    1  0.2288857E-006  0.5376602E+03  0.7546771E-02  0.9319274E-01
        -11   -1    0    0    0    0  0.00000000000E+00  0.00000000000E+00  0.50000000000E+03  0.50000000000E+03  0.00000000000E+00 0. -1.
         11   -1    0    0    0    0 -0.00000000000E+00 -0.00000000000E+00 -0.50000000000E+03  0.50000000000E+03  0.00000000000E+00 0.  1.
         23    2    1    2    0    0  0.13368257332E+03  0.71140612504E+02 -0.60940226694E+02  0.18745096162E+03  0.92152778719E+02 0.  0.
        -11    1    1    2    0    0 -0.28630132079E+03  0.20824208883E+02  0.36243068515E+03  0.46233980522E+03  0.00000000000E+00 0. -1.
         11    1    1    2    0    0  0.15261874746E+03 -0.91964821386E+02 -0.30149045845E+03  0.35020923315E+03  0.00000000000E+00 0.  1.
        -15    1    3    3    0    0 -0.12575505518E+02 -0.24758979446E+01 -0.65326031124E+00  0.12955998136E+02  0.17770000000E+01 0. -1.
         15    1    3    3    0    0  0.14625807884E+03  0.73616510448E+02 -0.60286966383E+02  0.17449496349E+03  0.17770000000E+01 0.  1.
</event>
<event>
 7    1  0.2288857E-006  0.3332626E+03  0.7546771E-02  0.9877158E-01
        -11   -1    0    0    0    0  0.00000000000E+00  0.00000000000E+00  0.50000000000E+03  0.50000000000E+03  0.00000000000E+00 0.  1.
         11   -1    0    0    0    0 -0.00000000000E+00 -0.00000000000E+00 -0.50000000000E+03  0.50000000000E+03  0.00000000000E+00 0. -1.
         23    2    1    2    0    0  0.23854805938E+03 -0.68661229207E+02  0.10027749063E+03  0.28171661542E+03  0.87687714362E+02 0.  0.
        -11    1    1    2    0    0 -0.10350727977E+03  0.21680402787E+03  0.22957433987E+03  0.33229824103E+03  0.00000000000E+00 0.  1.
         11    1    1    2    0    0 -0.13504077961E+03 -0.14814279866E+03 -0.32985183051E+03  0.38598514355E+03  0.00000000000E+00 0. -1.
        -15    1    3    3    0    0  0.27517096604E+02  0.14560714257E+02  0.32299695740E+02  0.44895802466E+02  0.17770000000E+01 0. -1.
         15    1    3    3    0    0  0.21103096277E+03 -0.83221943464E+02  0.67977794894E+02  0.23682081296E+03  0.17770000000E+01 0.  1.
</event>
<event>
 7    1  0.2288857E-006  0.5341664E+03  0.7546771E-02  0.9326446E-01
        -11   -1    0    0    0    0  0.00000000000E+00  0.00000000000E+00  0.50000000000E+03  0.50000000000E+03  0.00000000000E+00 0.  1.
         11   -1    0    0    0    0 -0.00000000000E+00 -0.00000000000E+00 -0.50000000000E+03  0.50000000000E+03  0.00000000000E+00 0. -1.
         23    2    1    2    0    0  0.26841595719E+02 -0.30725532545E+02  0.18761966422E+03  0.21292195687E+03  0.92033101138E+02 0.  0.
        -11    1    1    2    0    0 -0.19647653383E+03  0.69372323446E+02  0.24450453456E+03  0.32124447859E+03  0.00000000000E+00 0.  1.
         11    1    1    2    0    0  0.16963493812E+03 -0.38646790901E+02 -0.43212419878E+03  0.46583356453E+03  0.00000000000E+00 0. -1.
        -15    1    3    3    0    0 -0.92781349300E+01 -0.44297065553E+02  0.15766515236E+03  0.16404198183E+03  0.17770000000E+01 0.  1.
         15    1    3    3    0    0  0.36119730649E+02  0.13571533008E+02  0.29954511857E+02  0.48879975040E+02  0.17770000000E+01 0. -1.
</event>
<event>
 7    1  0.2288857E-006  0.5308963E+03  0.7546771E-02  0.9333213E-01
        -11   -1    0    0    0    0  0.00000000000E+00  0.00000000000E+00  0.50000000000E+03  0.50000000000E+03  0.00000000000E+00 0.  1.
         11   -1    0    0    0    0 -0.00000000000E+00 -0.00000000000E+00 -0.50000000000E+03  0.50000000000E+03  0.00000000000E+00 0. -1.
         23    2    1    2    0    0 -0.12502046409E+02 -0.45831145961E+02  0.28018206200E+02  0.10658040228E+03  0.91200697191E+02 0.  0.
        -11    1    1    2    0    0  0.13027670900E+03 -0.24064551486E+03  0.32428641929E+03  0.42431588052E+03  0.00000000000E+00 0.  1.
         11    1    1    2    0    0 -0.11777466259E+03  0.28647666082E+03 -0.35230462549E+03  0.46910371719E+03  0.00000000000E+00 0. -1.
        -15    1    3    3    0    0 -0.40540892288E+01  0.15243989065E+02  0.40631144930E+02  0.43621812312E+02  0.17770000000E+01 0.  1.
         15    1    3    3    0    0 -0.84479571800E+01 -0.61075135026E+02 -0.12612938730E+02  0.62958589973E+02  0.17770000000E+01 0. -1.
</event>
<event>
 7    1  0.2288857E-006  0.3868876E+03  0.7546771E-02  0.9695957E-01
        -11   -1    0    0    0    0  0.00000000000E+00  0.00000000000E+00  0.50000000000E+03  0.50000000000E+03  0.00000000000E+00 0.  1.
         11   -1    0    0    0    0 -0.00000000000E+00 -0.00000000000E+00 -0.50000000000E+03  0.50000000000E+03  0.00000000000E+00 0. -1.
         23    2    1    2    0    0  0.59135961068E+02 -0.10215357567E+03 -0.13732538919E+03  0.20531849870E+03  0.96772973908E+02 0.  0.
        -11    1    1    2    0    0 -0.11828503990E+03 -0.75796859189E+02  0.42705035710E+03  0.44956481404E+03  0.00000000000E+00 0.  1.
         11    1    1    2    0    0  0.59149078837E+02  0.17795043486E+03 -0.28972496791E+03  0.34511668726E+03  0.00000000000E+00 0. -1.
        -15    1    3    3    0    0  0.18478879072E+02 -0.59452537571E+02 -0.75162271095E+01  0.62735353625E+02  0.17770000000E+01 0.  1.
         15    1    3    3    0    0  0.40657081996E+02 -0.42701038099E+02 -0.12980916208E+03  0.14258314507E+03  0.17770000000E+01 0. -1.
</event>
<event>
 7    1  0.2288857E-006  0.4270293E+03  0.7546771E-02  0.9579745E-01
        -11   -1    0    0    0    0  0.00000000000E+00  0.00000000000E+00  0.50000000000E+03  0.50000000000E+03  0.00000000000E+00 0.  1.
         11   -1    0    0    0    0 -0.00000000000E+00 -0.00000000000E+00 -0.50000000000E+03  0.50000000000E+03  0.00000000000E+00 0.  1.
         23    2    1    2    0    0 -0.10139961983E+02 -0.55498444935E+02  0.38237733714E+03  0.39632412130E+03  0.87621258542E+02 0.  0.
        -11    1    1    2    0    0 -0.28921127990E+02  0.12009527663E+03  0.72060689752E+02  0.14301066436E+03  0.00000000000E+00 0.  1.
         11    1    1    2    0    0  0.39061089973E+02 -0.64596831691E+02 -0.45443802689E+03  0.46066521434E+03  0.00000000000E+00 0.  1.
        -15    1    3    3    0    0 -0.27624717875E+02 -0.73309300694E+02  0.30970340253E+03  0.31946319643E+03  0.17770000000E+01 0.  1.
         15    1    3    3    0    0  0.17484755892E+02  0.17810855758E+02  0.72673934613E+02  0.76860924875E+02  0.17770000000E+01 0. -1.
</event>
<event>
 7    1  0.2288857E-006  0.3771117E+03  0.7546771E-02  0.9726556E-01
        -11   -1    0    0    0    0  0.00000000000E+00  0.00000000000E+00  0.50000000000E+03  0.50000000000E+03  0.00000000000E+00 0. -1.
         11   -1    0    0    0    0 -0.00000000000E+00 -0.00000000000E+00 -0.50000000000E+03  0.50000000000E+03  0.00000000000E+00 0.  1.
         23    2    1    2    0    0 -0.39278185525E+02  0.15687547684E+03 -0.11013941910E+03  0.22081052439E+03  0.10234209764E+03 0.  0.
        -11    1    1    2    0    0 -0.77991540277E+02 -0.10916475556E+03  0.42189200478E+03  0.44271038830E+03  0.00000000000E+00 0. -1.
         11    1    1    2    0    0  0.11726972580E+03 -0.47710721282E+02 -0.31175258569E+03  0.33647908731E+03  0.00000000000E+00 0.  1.
        -15    1    3    3    0    0  0.31076910263E+02  0.39054594502E+02 -0.10032704920E+02  0.50939656459E+02  0.17770000000E+01 0. -1.
         15    1    3    3    0    0 -0.70355095789E+02  0.11782088234E+03 -0.10010671418E+03  0.16987086793E+03  0.17770000000E+01 0.  1.
</event>
<event>
 7    1  0.2288857E-006  0.4662245E+03  0.7546771E-02  0.9478728E-01
        -11   -1    0    0    0    0  0.00000000000E+00  0.00000000000E+00  0.50000000000E+03  0.50000000000E+03  0.00000000000E+00 0.  1.
         11   -1    0    0    0    0 -0.00000000000E+00 -0.00000000000E+00 -0.50000000000E+03  0.50000000000E+03  0.00000000000E+00 0. -1.
         23    2    1    2    0    0 -0.46424898452E+01  0.11415320320E+03  0.41549788223E+03  0.44039358512E+03  0.90859854499E+02 0.  0.
        -11    1    1    2    0    0 -0.22051131933E+02 -0.31494196680E+02  0.62718891269E+02  0.73564911242E+02  0.00000000000E+00 0.  1.
         11    1    1    2    0    0  0.26693621779E+02 -0.82659006516E+02 -0.47821677350E+03  0.48604150364E+03  0.00000000000E+00 0. -1.
        -15    1    3    3    0    0  0.12707180864E+02  0.11464922725E+03  0.40230616157E+03  0.41852039750E+03  0.17770000000E+01 0.  1.
         15    1    3    3    0    0 -0.17349670709E+02 -0.49602405640E+00  0.13191720664E+02  0.21873187620E+02  0.17770000000E+01 0. -1.
</event>
<event>
 7    1  0.2288857E-006  0.5099019E+03  0.7546771E-02  0.9377922E-01
        -11   -1    0    0    0    0  0.00000000000E+00  0.00000000000E+00  0.50000000000E+03  0.50000000000E+03  0.00000000000E+00 0.  1.
         11   -1    0    0    0    0 -0.00000000000E+00 -0.00000000000E+00 -0.50000000000E+03  0.50000000000E+03  0.00000000000E+00 0. -1.
         23    2    1    2    0    0  0.94083726965E+02  0.30594504192E+01  0.23633378982E+03  0.27046979909E+03  0.91864814246E+02 0.  0.
        -11    1    1    2    0    0  0.11290187737E+03 -0.47861452638E+02  0.20564573967E+03  0.23943208391E+03  0.00000000000E+00 0.  1.
         11    1    1    2    0    0 -0.20698560433E+03  0.44802002218E+02 -0.44197952948E+03  0.49009811700E+03  0.00000000000E+00 0. -1.
        -15    1    3    3    0    0  0.20768411295E+02 -0.39579946146E+02  0.10486405412E+03  0.11400669551E+03  0.17770000000E+01 0.  1.
         15    1    3    3    0    0  0.73315315670E+02  0.42639396566E+02  0.13146973569E+03  0.15646310359E+03  0.17770000000E+01 0. -1.
</event>
<event>
 7    1  0.2288857E-006  0.5214626E+03  0.7546771E-02  0.9353026E-01
        -11   -1    0    0    0    0  0.00000000000E+00  0.00000000000E+00  0.50000000000E+03  0.50000000000E+03  0.00000000000E+00 0.  1.
         11   -1    0    0    0    0 -0.00000000000E+00 -0.00000000000E+00 -0.50000000000E+03  0.50000000000E+03  0.00000000000E+00 0. -1.
         23    2    1    2    0    0  0.11650334715E+03 -0.47418882394E+01 -0.19610431755E+03  0.24609103650E+03  0.92240877496E+02 0.  0.
        -11    1    1    2    0    0 -0.10089859203E+03 -0.54316438170E+02  0.46461518638E+03  0.47853743087E+03  0.00000000000E+00 0.  1.
         11    1    1    2    0    0 -0.15604755121E+02  0.59058326410E+02 -0.26851086883E+03  0.27537153263E+03  0.00000000000E+00 0. -1.
        -15    1    3    3    0    0  0.25040037148E+02  0.27763494228E+02 -0.11046145558E+03  0.11663063907E+03  0.17770000000E+01 0.  1.
         15    1    3    3    0    0  0.91463310006E+02 -0.32505382468E+02 -0.85642861967E+02  0.12946039743E+03  0.17770000000E+01 0. -1.
</event>
<event>
 7    1  0.2288857E-006  0.4039233E+03  0.7546771E-02  0.9644879E-01
        -11   -1    0    0    0    0  0.00000000000E+00  0.00000000000E+00  0.50000000000E+03  0.50000000000E+03  0.00000000000E+00 0. -1.
         11   -1    0    0    0    0 -0.00000000000E+00 -0.00000000000E+00 -0.50000000000E+03  0.50000000000E+03  0.00000000000E+00 0.  1.
         23    2    1    2    0    0  0.91308409062E+02 -0.64092223236E+02  0.33831893084E+03  0.36786205347E+03  0.91748312072E+02 0.  0.
        -11    1    1    2    0    0  0.89520442541E+02  0.14435027149E+03  0.65828101709E+02  0.18216544537E+03  0.00000000000E+00 0. -1.
         11    1    1    2    0    0 -0.18082885160E+03 -0.80258048255E+02 -0.40414703255E+03  0.44997250116E+03  0.00000000000E+00 0.  1.
        -15    1    3    3    0    0  0.72177813303E+02 -0.58195535266E+02  0.33486732097E+03  0.34747034037E+03  0.17770000000E+01 0. -1.
         15    1    3    3    0    0  0.19130595758E+02 -0.58966879698E+01  0.34516098756E+01  0.20391713092E+02  0.17770000000E+01 0.  1.
</event>
<event>
 7    1  0.2288857E-006  0.4681281E+03  0.7546771E-02  0.9474093E-01
        -11   -1    0    0    0    0  0.00000000000E+00  0.00000000000E+00  0.50000000000E+03  0.50000000000E+03  0.00000000000E+00 0.  1.
         11   -1    0    0    0    0 -0.00000000000E+00 -0.00000000000E+00 -0.50000000000E+03  0.50000000000E+03  0.00000000000E+00 0. -1.
         23    2    1    2    0    0 -0.51733353182E+02 -0.89242295695E+02 -0.41567365089E+03  0.43784061022E+03  0.90990597028E+02 0.  0.
        -11    1    1    2    0    0  0.35872043928E+02  0.12230553792E+03  0.47533627509E+03  0.49212805504E+03  0.00000000000E+00 0.  1.
         11    1    1    2    0    0  0.15861309254E+02 -0.33063242223E+02 -0.59662624205E+02  0.70031334734E+02  0.00000000000E+00 0. -1.
        -15    1    3    3    0    0 -0.12324665748E+02 -0.89083498614E+02 -0.21056595746E+03  0.22897368251E+03  0.17770000000E+01 0.  1.
         15    1    3    3    0    0 -0.39408687434E+02 -0.15879708084E+00 -0.20510769343E+03  0.20886692772E+03  0.17770000000E+01 0. -1.
</event>
<event>
 7    1  0.2288857E-006  0.4301160E+03  0.7546771E-02  0.9571378E-01
        -11   -1    0    0    0    0  0.00000000000E+00  0.00000000000E+00  0.50000000000E+03  0.50000000000E+03  0.00000000000E+00 0.  1.
         11   -1    0    0    0    0 -0.00000000000E+00 -0.00000000000E+00 -0.50000000000E+03  0.50000000000E+03  0.00000000000E+00 0.  1.
         23    2    1    2    0    0  0.30469559594E+02  0.72748696565E+02  0.56126654477E+02  0.13433837149E+03  0.93144134528E+02 0.  0.
        -11    1    1    2    0    0 -0.10056136659E+03 -0.21635558751E+03  0.35321000204E+03  0.42623894031E+03  0.00000000000E+00 0.  1.
         11    1    1    2    0    0  0.70091806999E+02  0.14360689095E+03 -0.40933665652E+03  0.43942268820E+03  0.00000000000E+00 0.  1.
        -15    1    3    3    0    0 -0.15451498974E+02  0.64620477677E+02  0.57151404472E+02  0.87658403579E+02  0.17770000000E+01 0.  1.
         15    1    3    3    0    0  0.45921058568E+02  0.81282188876E+01 -0.10247499956E+01  0.46679967907E+02  0.17770000000E+01 0. -1.
</event>
<event>
 7    1  0.2288857E-006  0.4792051E+03  0.7546771E-02  0.9447581E-01
        -11   -1    0    0    0    0  0.00000000000E+00  0.00000000000E+00  0.50000000000E+03  0.50000000000E+03  0.00000000000E+00 0.  1.
         11   -1    0    0    0    0 -0.00000000000E+00 -0.00000000000E+00 -0.50000000000E+03  0.50000000000E+03  0.00000000000E+00 0. -1.
         23    2    1    2    0    0  0.63301707612E+02  0.43215227412E+02  0.45414438714E+03  0.46932533297E+03  0.90246782380E+02 0.  0.
        -11    1    1    2    0    0  0.43121187215E+02 -0.17515912906E+02  0.15019246986E+02  0.48906254935E+02  0.00000000000E+00 0.  1.
         11    1    1    2    0    0 -0.10642289483E+03 -0.25699314506E+02 -0.46916363412E+03  0.48176841210E+03  0.00000000000E+00 0. -1.
        -15    1    3    3    0    0  0.13789994563E+02  0.60196747259E+02  0.30656296506E+03  0.31272643254E+03  0.17770000000E+01 0.  1.
         15    1    3    3    0    0  0.49511713049E+02 -0.16981519847E+02  0.14758142208E+03  0.15659890043E+03  0.17770000000E+01 0. -1.
</event>
<event>
 7    1  0.2288857E-006  0.4865012E+03  0.7546771E-02  0.9430531E-01
        -11   -1    0    0    0    0  0.00000000000E+00  0.00000000000E+00  0.50000000000E+03  0.50000000000E+03  0.00000000000E+00 0.  1.
         11   -1    0    0    0    0 -0.00000000000E+00 -0.00000000000E+00 -0.50000000000E+03  0.50000000000E+03  0.00000000000E+00 0. -1.
         23    2    1    2    0    0  0.40817380224E+02  0.16100408124E+03  0.44809901274E+03  0.48735965139E+03  0.95594622654E+02 0.  0.
        -11    1    1    2    0    0  0.27904163365E+02  0.19014128872E+02 -0.11943357694E+02  0.35816521647E+02  0.00000000000E+00 0.  1.
         11    1    1    2    0    0 -0.68721543589E+02 -0.18001821011E+03 -0.43615565505E+03  0.47682382696E+03  0.00000000000E+00 0. -1.
        -15    1    3    3    0    0  0.31590444390E+02  0.84525637926E+02  0.35607949661E+03  0.36733949594E+03  0.17770000000E+01 0.  1.
         15    1    3    3    0    0  0.92269358339E+01  0.76478443309E+02  0.92019516134E+02  0.12002015545E+03  0.17770000000E+01 0. -1.
</event>
<event>
 7    1  0.2288857E-006  0.3689626E+03  0.7546771E-02  0.9752831E-01
        -11   -1    0    0    0    0  0.00000000000E+00  0.00000000000E+00  0.50000000000E+03  0.50000000000E+03  0.00000000000E+00 0.  1.
         11   -1    0    0    0    0 -0.00000000000E+00 -0.00000000000E+00 -0.50000000000E+03  0.50000000000E+03  0.00000000000E+00 0. -1.
         23    2    1    2    0    0 -0.16308516591E+02  0.17534124066E+03  0.11383646557E+03  0.23286063663E+03  0.10126606940E+03 0.  0.
        -11    1    1    2    0    0  0.15976252466E+03 -0.14455483129E+03  0.27627228194E+03  0.35035201912E+03  0.00000000000E+00 0.  1.
         11    1    1    2    0    0 -0.14345400807E+03 -0.30786409363E+02 -0.39010874752E+03  0.41678734424E+03  0.00000000000E+00 0. -1.
        -15    1    3    3    0    0 -0.58338864958E+02  0.11945830820E+03  0.79898565575E+02  0.15511495438E+03  0.17770000000E+01 0.  1.
         15    1    3    3    0    0  0.42030348367E+02  0.55882932458E+02  0.33937899999E+02  0.77745682255E+02  0.17770000000E+01 0. -1.
</event>
<event>
 7    1  0.2288857E-006  0.3180385E+03  0.7546771E-02  0.9935372E-01
        -11   -1    0    0    0    0  0.00000000000E+00  0.00000000000E+00  0.50000000000E+03  0.50000000000E+03  0.00000000000E+00 0.  1.
         11   -1    0    0    0    0 -0.00000000000E+00 -0.00000000000E+00 -0.50000000000E+03  0.50000000000E+03  0.00000000000E+00 0. -1.
         23    2    1    2    0    0  0.16700834317E+02 -0.34345629339E+03  0.11648808223E+03  0.37387525553E+03  0.89286561469E+02 0.  0.
        -11    1    1    2    0    0  0.14778471531E+03  0.23139222499E+03  0.13455321910E+03  0.30575685214E+03  0.00000000000E+00 0.  1.
         11    1    1    2    0    0 -0.16448554963E+03  0.11206406840E+03 -0.25104130133E+03  0.32036789233E+03  0.00000000000E+00 0. -1.
        -15    1    3    3    0    0  0.44934299517E+02 -0.10478276723E+03  0.49987452273E+02  0.12450069355E+03  0.17770000000E+01 0. -1.
         15    1    3    3    0    0 -0.28233465200E+02 -0.23867352616E+03  0.66500629957E+02  0.24937456197E+03  0.17770000000E+01 0.  1.
</event>
<event>
 7    1  0.2288857E-006  0.4138733E+03  0.7546771E-02  0.9616275E-01
        -11   -1    0    0    0    0  0.00000000000E+00  0.00000000000E+00  0.50000000000E+03  0.50000000000E+03  0.00000000000E+00 0.  1.
         11   -1    0    0    0    0 -0.00000000000E+00 -0.00000000000E+00 -0.50000000000E+03  0.50000000000E+03  0.00000000000E+00 0. -1.
         23    2    1    2    0    0  0.25329733200E+03  0.43815281501E+02 -0.29570640461E+03  0.40240103311E+03  0.91678767607E+02 0.  0.
        -11    1    1    2    0    0 -0.13845630462E+03 -0.48824845704E+01  0.40888996674E+03  0.43172328156E+03  0.00000000000E+00 0.  1.
         11    1    1    2    0    0 -0.11484102738E+03 -0.38932796931E+02 -0.11318356213E+03  0.16587568533E+03  0.00000000000E+00 0. -1.
        -15    1    3    3    0    0  0.25714172965E+02 -0.99385274472E+01 -0.78570497248E+02  0.83285495652E+02  0.17770000000E+01 0.  1.
         15    1    3    3    0    0  0.22758315904E+03  0.53753808948E+02 -0.21713590736E+03  0.31911553746E+03  0.17770000000E+01 0. -1.
</event>
<event>
 7    1  0.2288857E-006  0.3780792E+03  0.7546771E-02  0.9723484E-01
        -11   -1    0    0    0    0  0.00000000000E+00  0.00000000000E+00  0.50000000000E+03  0.50000000000E+03  0.00000000000E+00 0.  1.
         11   -1    0    0    0    0 -0.00000000000E+00 -0.00000000000E+00 -0.50000000000E+03  0.50000000000E+03  0.00000000000E+00 0.  1.
         23    2    1    2    0    0 -0.50458272421E+02  0.10298381918E+03  0.31359975891E+03  0.34450611347E+03  0.84781773751E+02 0.  0.
        -11    1    1    2    0    0  0.50077775206E+02 -0.18362841495E+03  0.11299164357E+03  0.22134653795E+03  0.00000000000E+00 0.  1.
         11    1    1    2    0    0  0.38049721473E+00  0.80644595778E+02 -0.42659140248E+03  0.43414734858E+03  0.00000000000E+00 0.  1.
        -15    1    3    3    0    0  0.46099933240E+01  0.76323243782E+02  0.12839154931E+03  0.14944576690E+03  0.17770000000E+01 0. -1.
         15    1    3    3    0    0 -0.55068265745E+02  0.26660575393E+02  0.18520820960E+03  0.19506034657E+03  0.17770000000E+01 0.  1.
</event>
<event>
 7    1  0.2288857E-006  0.4626196E+03  0.7546771E-02  0.9487569E-01
        -11   -1    0    0    0    0  0.00000000000E+00  0.00000000000E+00  0.50000000000E+03  0.50000000000E+03  0.00000000000E+00 0. -1.
         11   -1    0    0    0    0 -0.00000000000E+00 -0.00000000000E+00 -0.50000000000E+03  0.50000000000E+03  0.00000000000E+00 0. -1.
         23    2    1    2    0    0 -0.16287692318E+02 -0.61192884620E+02  0.41575853054E+03  0.43023833107E+03  0.90774488463E+02 0.  0.
        -11    1    1    2    0    0 -0.19459282379E+02 -0.50089996032E+02  0.59597392800E+02  0.80246623616E+02  0.00000000000E+00 0. -1.
         11    1    1    2    0    0  0.35746974697E+02  0.11128288065E+03 -0.47535592334E+03  0.48951504531E+03  0.00000000000E+00 0. -1.
        -15    1    3    3    0    0 -0.10205317752E+02 -0.84870012283E+02  0.30203296284E+03  0.31390147478E+03  0.17770000000E+01 0. -1.
         15    1    3    3    0    0 -0.60823745659E+01  0.23677127663E+02  0.11372556770E+03  0.11633685630E+03  0.17770000000E+01 0.  1.
</event>
<event>
 7    1  0.2288857E-006  0.3333335E+03  0.7546771E-02  0.9876894E-01
        -11   -1    0    0    0    0  0.00000000000E+00  0.00000000000E+00  0.50000000000E+03  0.50000000000E+03  0.00000000000E+00 0.  1.
         11   -1    0    0    0    0 -0.00000000000E+00 -0.00000000000E+00 -0.50000000000E+03  0.50000000000E+03  0.00000000000E+00 0. -1.
         23    2    1    2    0    0 -0.24949766042E+03  0.51234947769E+02 -0.80878423186E+02  0.28176577944E+03  0.89311436532E+02 0.  0.
        -11    1    1    2    0    0  0.21566218477E+03 -0.15757892638E+02  0.36806973470E+03  0.42688853197E+03  0.00000000000E+00 0.  1.
         11    1    1    2    0    0  0.33835475655E+02 -0.35477055131E+02 -0.28719131152E+03  0.29134568860E+03  0.00000000000E+00 0. -1.
        -15    1    3    3    0    0 -0.32303959511E+02  0.29206255688E+02 -0.40998533693E+02  0.59838020233E+02  0.17770000000E+01 0.  1.
         15    1    3    3    0    0 -0.21719370091E+03  0.22028692081E+02 -0.39879889494E+02  0.22192775920E+03  0.17770000000E+01 0. -1.
</event>
<event>
 7    1  0.2288857E-006  0.3729146E+03  0.7546771E-02  0.9739999E-01
        -11   -1    0    0    0    0  0.00000000000E+00  0.00000000000E+00  0.50000000000E+03  0.50000000000E+03  0.00000000000E+00 0.  1.
         11   -1    0    0    0    0 -0.00000000000E+00 -0.00000000000E+00 -0.50000000000E+03  0.50000000000E+03  0.00000000000E+00 0.  1.
         23    2    1    2    0    0  0.83872345870E+02 -0.22920736101E+03  0.36035416748E+03  0.44496750908E+03  0.92576311100E+02 0.  0.
        -11    1    1    2    0    0 -0.16924741928E+03  0.14502740786E+03 -0.58789814625E+02  0.23050787463E+03  0.00000000000E+00 0.  1.
         11    1    1    2    0    0  0.85375073405E+02  0.84179953149E+02 -0.30156435285E+03  0.32452461629E+03  0.00000000000E+00 0.  1.
        -15    1    3    3    0    0  0.51239626293E+02 -0.16560877340E+03  0.17515068453E+03  0.24644002344E+03  0.17770000000E+01 0.  1.
         15    1    3    3    0    0  0.32632719578E+02 -0.63598587608E+02  0.18520348294E+03  0.19852748564E+03  0.17770000000E+01 0. -1.
</event>
<event>
 7    1  0.2288857E-006  0.4562508E+03  0.7546771E-02  0.9503402E-01
        -11   -1    0    0    0    0  0.00000000000E+00  0.00000000000E+00  0.50000000000E+03  0.50000000000E+03  0.00000000000E+00 0. -1.
         11   -1    0    0    0    0 -0.00000000000E+00 -0.00000000000E+00 -0.50000000000E+03  0.50000000000E+03  0.00000000000E+00 0. -1.
         23    2    1    2    0    0  0.25039298196E+02 -0.26722617377E+02  0.44149413197E+03  0.45193804018E+03  0.89386010437E+02 0.  0.
        -11    1    1    2    0    0  0.23719595266E+02  0.88210127962E+02  0.80707956551E+01  0.91699419939E+02  0.00000000000E+00 0. -1.
         11    1    1    2    0    0 -0.48758893462E+02 -0.61487510585E+02 -0.44956492763E+03  0.45636253988E+03  0.00000000000E+00 0. -1.
        -15    1    3    3    0    0 -0.20210264011E+02  0.22068158870E+02  0.14405940533E+03  0.14714526292E+03  0.17770000000E+01 0.  1.
         15    1    3    3    0    0  0.45249562207E+02 -0.48790776247E+02  0.29743472665E+03  0.30479277726E+03  0.17770000000E+01 0. -1.
</event>
<event>
 7    1  0.2288857E-006  0.5143808E+03  0.7546771E-02  0.9368194E-01
        -11   -1    0    0    0    0  0.00000000000E+00  0.00000000000E+00  0.50000000000E+03  0.50000000000E+03  0.00000000000E+00 0.  1.
         11   -1    0    0    0    0 -0.00000000000E+00 -0.00000000000E+00 -0.50000000000E+03  0.50000000000E+03  0.00000000000E+00 0. -1.
         23    2    1    2    0    0 -0.26916885967E+02 -0.85174532223E+02 -0.24287443462E+03  0.27406290295E+03  0.90240035953E+02 0.  0.
        -11    1    1    2    0    0  0.75857210996E+02  0.56153660894E+02  0.47635959709E+03  0.48561920867E+03  0.00000000000E+00 0.  1.
         11    1    1    2    0    0 -0.48940325029E+02  0.29020871329E+02 -0.23348516246E+03  0.24031788839E+03  0.00000000000E+00 0. -1.
        -15    1    3    3    0    0 -0.46432951492E+02 -0.93413757215E+02 -0.18476787868E+03  0.21218971639E+03  0.17770000000E+01 0.  1.
         15    1    3    3    0    0  0.19516065525E+02  0.82392249916E+01 -0.58106555938E+02  0.61873186552E+02  0.17770000000E+01 0. -1.
</event>
<event>
 7    1  0.2288857E-006  0.5438527E+03  0.7546771E-02  0.9306701E-01
        -11   -1    0    0    0    0  0.00000000000E+00  0.00000000000E+00  0.50000000000E+03  0.50000000000E+03  0.00000000000E+00 0. -1.
         11   -1    0    0    0    0 -0.00000000000E+00 -0.00000000000E+00 -0.50000000000E+03  0.50000000000E+03  0.00000000000E+00 0.  1.
         23    2    1    2    0    0 -0.91871357419E+01 -0.11500003809E+03  0.21589162899E+03  0.26236333563E+03  0.94424108093E+02 0.  0.
        -11    1    1    2    0    0  0.23706143744E+03 -0.48674973680E+02  0.14376676016E+03  0.28148935950E+03  0.00000000000E+00 0. -1.
         11    1    1    2    0    0 -0.22787430170E+03  0.16367501177E+03 -0.35965838915E+03  0.45614730487E+03  0.00000000000E+00 0.  1.
        -15    1    3    3    0    0  0.81834037195E+01 -0.93510926446E+02  0.21506242008E+03  0.23466202019E+03  0.17770000000E+01 0. -1.
         15    1    3    3    0    0 -0.17370539461E+02 -0.21489111647E+02  0.82920891285E+00  0.27701315437E+02  0.17770000000E+01 0.  1.
</event>
<event>
 7    1  0.2288857E-006  0.3737771E+03  0.7546771E-02  0.9737221E-01
        -11   -1    0    0    0    0  0.00000000000E+00  0.00000000000E+00  0.50000000000E+03  0.50000000000E+03  0.00000000000E+00 0. -1.
         11   -1    0    0    0    0 -0.00000000000E+00 -0.00000000000E+00 -0.50000000000E+03  0.50000000000E+03  0.00000000000E+00 0.  1.
         23    2    1    2    0    0  0.19123727928E+03  0.83033408644E+02  0.24131334017E+03  0.32951110904E+03  0.82940936225E+02 0.  0.
        -11    1    1    2    0    0 -0.13373898773E+03  0.58196156707E+02  0.17459991033E+03  0.22750393004E+03  0.00000000000E+00 0. -1.
         11    1    1    2    0    0 -0.57498291547E+02 -0.14122956535E+03 -0.41591325050E+03  0.44298496092E+03  0.00000000000E+00 0.  1.
        -15    1    3    3    0    0  0.10522932952E+03  0.87199718361E+02  0.12865934124E+03  0.18770558461E+03  0.17770000000E+01 0.  1.
         15    1    3    3    0    0  0.86007949755E+02 -0.41663097169E+01  0.11265399892E+03  0.14180552443E+03  0.17770000000E+01 0. -1.
</event>
<event>
 7    1  0.2288857E-006  0.5332524E+03  0.7546771E-02  0.9328332E-01
        -11   -1    0    0    0    0  0.00000000000E+00  0.00000000000E+00  0.50000000000E+03  0.50000000000E+03  0.00000000000E+00 0.  1.
         11   -1    0    0    0    0 -0.00000000000E+00 -0.00000000000E+00 -0.50000000000E+03  0.50000000000E+03  0.00000000000E+00 0. -1.
         23    2    1    2    0    0 -0.57329866968E+01  0.62322634948E+02  0.11087664381E+03  0.15664291627E+03  0.91249082795E+02 0.  0.
        -11    1    1    2    0    0  0.98234033985E+02 -0.12105358586E+03  0.34282763826E+03  0.37660946037E+03  0.00000000000E+00 0.  1.
         11    1    1    2    0    0 -0.92501047288E+02  0.58730950909E+02 -0.45370428207E+03  0.46674762336E+03  0.00000000000E+00 0. -1.
        -15    1    3    3    0    0  0.48740400587E+01  0.67171995289E+02  0.12267525601E+03  0.13995788432E+03  0.17770000000E+01 0.  1.
         15    1    3    3    0    0 -0.10607026756E+02 -0.48493603406E+01 -0.11798612198E+02  0.16685031948E+02  0.17770000000E+01 0. -1.
</event>
<event>
 7    1  0.2288857E-006  0.5214467E+03  0.7546771E-02  0.9353060E-01
        -11   -1    0    0    0    0  0.00000000000E+00  0.00000000000E+00  0.50000000000E+03  0.50000000000E+03  0.00000000000E+00 0.  1.
         11   -1    0    0    0    0 -0.00000000000E+00 -0.00000000000E+00 -0.50000000000E+03  0.50000000000E+03  0.00000000000E+00 0. -1.
         23    2    1    2    0    0  0.54057441403E+02  0.32047803983E+02 -0.62957985428E+02  0.12808491186E+03  0.92156215229E+02 0.  0.
        -11    1    1    2    0    0 -0.18470096599E+03 -0.22726349540E+03  0.37848393374E+03  0.47855326901E+03  0.00000000000E+00 0.  1.
         11    1    1    2    0    0  0.13064352459E+03  0.19521569142E+03 -0.31552594831E+03  0.39336181913E+03  0.00000000000E+00 0. -1.
        -15    1    3    3    0    0  0.56424889427E+02  0.12828692667E+02 -0.82323440236E+02  0.10064119457E+03  0.17770000000E+01 0. -1.
         15    1    3    3    0    0 -0.23674480234E+01  0.19219111316E+02  0.19365454808E+02  0.27443717292E+02  0.17770000000E+01 0.  1.
</event>
<event>
 7    1  0.2288857E-006  0.4622133E+03  0.7546771E-02  0.9488571E-01
        -11   -1    0    0    0    0  0.00000000000E+00  0.00000000000E+00  0.50000000000E+03  0.50000000000E+03  0.00000000000E+00 0.  1.
         11   -1    0    0    0    0 -0.00000000000E+00 -0.00000000000E+00 -0.50000000000E+03  0.50000000000E+03  0.00000000000E+00 0. -1.
         23    2    1    2    0    0  0.14305909674E+03  0.71473498145E+02  0.43276893391E+03  0.47316868000E+03  0.10500134986E+03 0.  0.
        -11    1    1    2    0    0 -0.49538221206E+02 -0.67609460025E+02  0.24540889300E+00  0.83816076445E+02  0.00000000000E+00 0.  1.
         11    1    1    2    0    0 -0.93520875538E+02 -0.38640381200E+01 -0.43301434280E+03  0.44301524356E+03  0.00000000000E+00 0. -1.
        -15    1    3    3    0    0  0.13738910376E+03  0.51050417246E+02  0.42651409796E+03  0.45099816454E+03  0.17770000000E+01 0.  1.
         15    1    3    3    0    0  0.56699929827E+01  0.20423080899E+02  0.62548359554E+01  0.22170515458E+02  0.17770000000E+01 0. -1.
</event>
<event>
 7    1  0.2288857E-006  0.4696436E+03  0.7546771E-02  0.9470420E-01
        -11   -1    0    0    0    0  0.00000000000E+00  0.00000000000E+00  0.50000000000E+03  0.50000000000E+03  0.00000000000E+00 0. -1.
         11   -1    0    0    0    0 -0.00000000000E+00 -0.00000000000E+00 -0.50000000000E+03  0.50000000000E+03  0.00000000000E+00 0.  1.
         23    2    1    2    0    0  0.11377312225E+03  0.15199796164E+03  0.38927237156E+03  0.44306508689E+03  0.93412998393E+02 0.  0.
        -11    1    1    2    0    0  0.36542223915E+02  0.47405208899E+02  0.31504774976E+02  0.67639772366E+02  0.00000000000E+00 0. -1.
         11    1    1    2    0    0 -0.15031534616E+03 -0.19940317054E+03 -0.42077714654E+03  0.48929514075E+03  0.00000000000E+00 0.  1.
        -15    1    3    3    0    0  0.16129825735E+02 -0.14431955286E+01  0.36414717769E+01  0.16693475890E+02  0.17770000000E+01 0.  1.
         15    1    3    3    0    0  0.97643296510E+02  0.15344115717E+03  0.38563089978E+03  0.42637161100E+03  0.17770000000E+01 0. -1.
</event>
<event>
 6    1  0.3073425E-006  0.4049505E+03  0.7546771E-02  0.9641886E-01
        -11   -1    0    0    0    0  0.00000000000E+00  0.00000000000E+00  0.50000000000E+03  0.50000000000E+03  0.00000000000E+00 0.  1.
         11   -1    0    0    0    0 -0.00000000000E+00 -0.00000000000E+00 -0.50000000000E+03  0.50000000000E+03  0.00000000000E+00 0. -1.
        -11    1    1    2    0    0 -0.19514590503E+02 -0.11602679297E+03  0.42820672036E+03  0.44407660521E+03  0.00000000000E+00 0.  1.
         11    1    1    2    0    0  0.72681500543E+02  0.21354812262E+02 -0.36759093920E+03  0.37531550342E+03  0.00000000000E+00 0. -1.
        -15    1    1    2    0    0 -0.21136071273E+02  0.11546915344E+03 -0.10920356196E+02  0.11790789123E+03  0.17770000000E+01 0.  1.
         15    1    1    2    0    0 -0.32030838766E+02 -0.20797172731E+02 -0.49695424967E+02  0.62700000138E+02  0.17770000000E+01 0. -1.
</event>
<event>
 7    1  0.2288857E-006  0.4923793E+03  0.7546771E-02  0.9417025E-01
        -11   -1    0    0    0    0  0.00000000000E+00  0.00000000000E+00  0.50000000000E+03  0.50000000000E+03  0.00000000000E+00 0.  1.
         11   -1    0    0    0    0 -0.00000000000E+00 -0.00000000000E+00 -0.50000000000E+03  0.50000000000E+03  0.00000000000E+00 0. -1.
         23    2    1    2    0    0 -0.28736042796E+02  0.83034528401E+02  0.46424993980E+03  0.48218054984E+03  0.96174752282E+02 0.  0.
        -11    1    1    2    0    0 -0.12796082255E+02 -0.21044787114E+01  0.20691957709E+02  0.24419780211E+02  0.00000000000E+00 0.  1.
         11    1    1    2    0    0  0.41532125051E+02 -0.80930049689E+02 -0.48494189751E+03  0.49339966995E+03  0.00000000000E+00 0. -1.
        -15    1    3    3    0    0 -0.32108373058E+02  0.82512078938E+01  0.42988348889E+02  0.54315613973E+02  0.17770000000E+01 0. -1.
         15    1    3    3    0    0  0.33723302611E+01  0.74783320507E+02  0.42126159091E+03  0.42786493586E+03  0.17770000000E+01 0.  1.
</event>
<event>
 7    1  0.2288857E-006  0.4186679E+03  0.7546771E-02  0.9602796E-01
        -11   -1    0    0    0    0  0.00000000000E+00  0.00000000000E+00  0.50000000000E+03  0.50000000000E+03  0.00000000000E+00 0.  1.
         11   -1    0    0    0    0 -0.00000000000E+00 -0.00000000000E+00 -0.50000000000E+03  0.50000000000E+03  0.00000000000E+00 0.  1.
         23    2    1    2    0    0 -0.10375884734E+02 -0.23979936925E+02  0.37925299221E+03  0.39126419958E+03  0.92585881272E+02 0.  0.
        -11    1    1    2    0    0  0.12684799581E+03  0.78183993766E+02  0.52724602317E+02  0.15806022464E+03  0.00000000000E+00 0.  1.
         11    1    1    2    0    0 -0.11647211108E+03 -0.54204056841E+02 -0.43197759453E+03  0.45067557579E+03  0.00000000000E+00 0.  1.
        -15    1    3    3    0    0 -0.25342958717E+01 -0.59583713685E+02  0.22995460429E+03  0.23756876764E+03  0.17770000000E+01 0.  1.
         15    1    3    3    0    0 -0.78415888626E+01  0.35603776760E+02  0.14929838792E+03  0.15369543194E+03  0.17770000000E+01 0. -1.
</event>
<event>
 7    1  0.2288857E-006  0.3610089E+03  0.7546771E-02  0.9779186E-01
        -11   -1    0    0    0    0  0.00000000000E+00  0.00000000000E+00  0.50000000000E+03  0.50000000000E+03  0.00000000000E+00 0.  1.
         11   -1    0    0    0    0 -0.00000000000E+00 -0.00000000000E+00 -0.50000000000E+03  0.50000000000E+03  0.00000000000E+00 0.  1.
         23    2    1    2    0    0  0.78376729782E+02  0.14758003249E+03  0.41555023519E+03  0.45727174891E+03  0.92155719403E+02 0.  0.
        -11    1    1    2    0    0 -0.17698414531E+03 -0.10015985743E+03 -0.14178743656E+03  0.24790938243E+03  0.00000000000E+00 0.  1.
         11    1    1    2    0    0  0.98607415533E+02 -0.47420175059E+02 -0.27376279864E+03  0.29481886866E+03  0.00000000000E+00 0.  1.
        -15    1    3    3    0    0  0.19957200010E+02 -0.10261577616E+02  0.49730138510E+02  0.54587857740E+02  0.17770000000E+01 0. -1.
         15    1    3    3    0    0  0.58419529772E+02  0.15784161010E+03  0.36582009668E+03  0.40268389117E+03  0.17770000000E+01 0.  1.
</event>
<event>
 7    1  0.2288857E-006  0.4553671E+03  0.7546771E-02  0.9505620E-01
        -11   -1    0    0    0    0  0.00000000000E+00  0.00000000000E+00  0.50000000000E+03  0.50000000000E+03  0.00000000000E+00 0. -1.
         11   -1    0    0    0    0 -0.00000000000E+00 -0.00000000000E+00 -0.50000000000E+03  0.50000000000E+03  0.00000000000E+00 0.  1.
         23    2    1    2    0    0 -0.12114169896E+02  0.70205942730E+02  0.44280787073E+03  0.45718322833E+03  0.88668294099E+02 0.  0.
        -11    1    1    2    0    0 -0.81116825676E+02  0.42349906142E+02 -0.17589318385E+02  0.93181747565E+02  0.00000000000E+00 0. -1.
         11    1    1    2    0    0  0.93230995571E+02 -0.11255584887E+03 -0.42521855234E+03  0.44963502411E+03  0.00000000000E+00 0.  1.
        -15    1    3    3    0    0  0.15867284730E+02 -0.24771940764E+00  0.12591791720E+02  0.20335757604E+02  0.17770000000E+01 0.  1.
         15    1    3    3    0    0 -0.27981454626E+02  0.70453662138E+02  0.43021607901E+03  0.43684747072E+03  0.17770000000E+01 0. -1.
</event>
<event>
 7    1  0.2288857E-006  0.5285800E+03  0.7546771E-02  0.9338037E-01
        -11   -1    0    0    0    0  0.00000000000E+00  0.00000000000E+00  0.50000000000E+03  0.50000000000E+03  0.00000000000E+00 0.  1.
         11   -1    0    0    0    0 -0.00000000000E+00 -0.00000000000E+00 -0.50000000000E+03  0.50000000000E+03  0.00000000000E+00 0.  1.
         23    2    1    2    0    0 -0.29659228193E+02 -0.13979092963E+02  0.34946140655E+03  0.36294249298E+03  0.92352009630E+02 0.  0.
        -11    1    1    2    0    0  0.90995178897E+02 -0.88223303517E+02  0.10664100153E+03  0.16563748692E+03  0.00000000000E+00 0.  1.
         11    1    1    2    0    0 -0.61335950703E+02  0.10220239648E+03 -0.45610240808E+03  0.47142002010E+03  0.00000000000E+00 0.  1.
        -15    1    3    3    0    0  0.10653416810E+02  0.33745059319E+02  0.11984192589E+03  0.12496987336E+03  0.17770000000E+01 0. -1.
         15    1    3    3    0    0 -0.40312645003E+02 -0.47724152283E+02  0.22961948066E+03  0.23797261962E+03  0.17770000000E+01 0.  1.
</event>
<event>
 7    1  0.2288857E-006  0.4407588E+03  0.7546771E-02  0.9543091E-01
        -11   -1    0    0    0    0  0.00000000000E+00  0.00000000000E+00  0.50000000000E+03  0.50000000000E+03  0.00000000000E+00 0.  1.
         11   -1    0    0    0    0 -0.00000000000E+00 -0.00000000000E+00 -0.50000000000E+03  0.50000000000E+03  0.00000000000E+00 0. -1.
         23    2    1    2    0    0 -0.70447348978E+02 -0.38622984612E+02  0.41325839973E+03  0.43073130755E+03  0.91062563303E+02 0.  0.
        -11    1    1    2    0    0 -0.95252575661E+02  0.72589216088E+02  0.31680874777E+01  0.11980101936E+03  0.00000000000E+00 0.  1.
         11    1    1    2    0    0  0.16569992464E+03 -0.33966231476E+02 -0.41642648721E+03  0.44946767309E+03  0.00000000000E+00 0. -1.
        -15    1    3    3    0    0 -0.59607350481E+02 -0.35853774139E+02  0.41358575383E+03  0.41939821513E+03  0.17770000000E+01 0.  1.
         15    1    3    3    0    0 -0.10839998497E+02 -0.27692104724E+01 -0.32735410170E+00  0.11333092419E+02  0.17770000000E+01 0. -1.
</event>
<event>
 7    1  0.2288857E-006  0.5230690E+03  0.7546771E-02  0.9349621E-01
        -11   -1    0    0    0    0  0.00000000000E+00  0.00000000000E+00  0.50000000000E+03  0.50000000000E+03  0.00000000000E+00 0. -1.
         11   -1    0    0    0    0 -0.00000000000E+00 -0.00000000000E+00 -0.50000000000E+03  0.50000000000E+03  0.00000000000E+00 0.  1.
         23    2    1    2    0    0 -0.22799988920E+02 -0.24833267054E+02  0.71116333816E+02  0.12209451592E+03  0.93343490587E+02 0.  0.
        -11    1    1    2    0    0 -0.26149136086E+01 -0.11865663569E+03  0.38300690956E+03  0.40097447268E+03  0.00000000000E+00 0. -1.
         11    1    1    2    0    0  0.25414902529E+02  0.14348990275E+03 -0.45412324338E+03  0.47693101140E+03  0.00000000000E+00 0.  1.
        -15    1    3    3    0    0 -0.39581275184E+02 -0.24184976785E+02  0.87192269341E+02  0.98778742698E+02  0.17770000000E+01 0. -1.
         15    1    3    3    0    0  0.16781286264E+02 -0.64829026921E+00 -0.16075935524E+02  0.23315773222E+02  0.17770000000E+01 0.  1.
</event>
<event>
 7    1  0.2288857E-006  0.5269520E+03  0.7546771E-02  0.9341443E-01
        -11   -1    0    0    0    0  0.00000000000E+00  0.00000000000E+00  0.50000000000E+03  0.50000000000E+03  0.00000000000E+00 0. -1.
         11   -1    0    0    0    0 -0.00000000000E+00 -0.00000000000E+00 -0.50000000000E+03  0.50000000000E+03  0.00000000000E+00 0. -1.
         23    2    1    2    0    0 -0.24876972656E+02  0.93203799532E+02  0.95679929323E+02  0.16404026550E+03  0.91917070315E+02 0.  0.
        -11    1    1    2    0    0  0.58729645770E+02  0.45954395993E+02  0.35516749668E+03  0.36291173652E+03  0.00000000000E+00 0. -1.
         11    1    1    2    0    0 -0.33852673114E+02 -0.13915819553E+03 -0.45084742600E+03  0.47304799798E+03  0.00000000000E+00 0. -1.
        -15    1    3    3    0    0 -0.20440879224E+02  0.59952862398E+02  0.78132805096E+00  0.63371471939E+02  0.17770000000E+01 0. -1.
         15    1    3    3    0    0 -0.44360934317E+01  0.33250937134E+02  0.94898601272E+02  0.10066879356E+03  0.17770000000E+01 0.  1.
</event>
<event>
 7    1  0.2288857E-006  0.3631598E+03  0.7546771E-02  0.9771988E-01
        -11   -1    0    0    0    0  0.00000000000E+00  0.00000000000E+00  0.50000000000E+03  0.50000000000E+03  0.00000000000E+00 0. -1.
         11   -1    0    0    0    0 -0.00000000000E+00 -0.00000000000E+00 -0.50000000000E+03  0.50000000000E+03  0.00000000000E+00 0. -1.
         23    2    1    2    0    0 -0.79193447753E+02  0.39434432669E+01  0.31308011875E+03  0.33353180540E+03  0.83289564426E+02 0.  0.
        -11    1    1    2    0    0 -0.90765877866E+01  0.24224468994E+03  0.19701986808E+02  0.24321398507E+03  0.00000000000E+00 0. -1.
         11    1    1    2    0    0  0.88270035539E+02 -0.24618813321E+03 -0.33278210556E+03  0.42325420953E+03  0.00000000000E+00 0. -1.
        -15    1    3    3    0    0 -0.63847444864E+01 -0.31776195950E+02  0.11478381835E+03  0.11928526428E+03  0.17770000000E+01 0.  1.
         15    1    3    3    0    0 -0.72808703266E+02  0.35719639217E+02  0.19829630040E+03  0.21424654111E+03  0.17770000000E+01 0. -1.
</event>
<event>
 7    1  0.2288857E-006  0.4683283E+03  0.7546771E-02  0.9473607E-01
        -11   -1    0    0    0    0  0.00000000000E+00  0.00000000000E+00  0.50000000000E+03  0.50000000000E+03  0.00000000000E+00 0. -1.
         11   -1    0    0    0    0 -0.00000000000E+00 -0.00000000000E+00 -0.50000000000E+03  0.50000000000E+03  0.00000000000E+00 0.  1.
         23    2    1    2    0    0  0.11282598306E+03 -0.92133291257E+02 -0.40406678719E+03  0.43940056793E+03  0.92653358127E+02 0.  0.
        -11    1    1    2    0    0 -0.13841001488E+03  0.70322071017E+02  0.46542454334E+03  0.49063482493E+03  0.00000000000E+00 0. -1.
         11    1    1    2    0    0  0.25584031828E+02  0.21811220240E+02 -0.61357756149E+02  0.69964607143E+02  0.00000000000E+00 0.  1.
        -15    1    3    3    0    0  0.65212874570E+02 -0.10796536151E+02 -0.25162135214E+03  0.26016484540E+03  0.17770000000E+01 0.  1.
         15    1    3    3    0    0  0.47613108486E+02 -0.81336755106E+02 -0.15244543505E+03  0.17923572252E+03  0.17770000000E+01 0. -1.
</event>
<event>
 7    1  0.2288857E-006  0.5184003E+03  0.7546771E-02  0.9359553E-01
        -11   -1    0    0    0    0  0.00000000000E+00  0.00000000000E+00  0.50000000000E+03  0.50000000000E+03  0.00000000000E+00 0.  1.
         11   -1    0    0    0    0 -0.00000000000E+00 -0.00000000000E+00 -0.50000000000E+03  0.50000000000E+03  0.00000000000E+00 0. -1.
         23    2    1    2    0    0  0.67826763934E+02 -0.33353332650E+02 -0.13630019575E+03  0.18575156264E+03  0.10105931406E+03 0.  0.
        -11    1    1    2    0    0 -0.20929770424E+03  0.21330276046E+03  0.37767000795E+03  0.48159965897E+03  0.00000000000E+00 0.  1.
         11    1    1    2    0    0  0.14147094031E+03 -0.17994942781E+03 -0.24136981220E+03  0.33264877839E+03  0.00000000000E+00 0. -1.
        -15    1    3    3    0    0  0.21657749858E+02 -0.36962563328E+02 -0.13248529873E+03  0.13925085754E+03  0.17770000000E+01 0.  1.
         15    1    3    3    0    0  0.46169014076E+02  0.36092306780E+01 -0.38148970147E+01  0.46500705102E+02  0.17770000000E+01 0. -1.
</event>
<event>
 7    1  0.2288857E-006  0.3824712E+03  0.7546771E-02  0.9709659E-01
        -11   -1    0    0    0    0  0.00000000000E+00  0.00000000000E+00  0.50000000000E+03  0.50000000000E+03  0.00000000000E+00 0.  1.
         11   -1    0    0    0    0 -0.00000000000E+00 -0.00000000000E+00 -0.50000000000E+03  0.50000000000E+03  0.00000000000E+00 0. -1.
         23    2    1    2    0    0 -0.35306050155E+02 -0.14727819521E+03  0.11551656551E+03  0.21169907087E+03  0.92385257148E+02 0.  0.
        -11    1    1    2    0    0 -0.76489943818E+02  0.82884552221E+02  0.31725580214E+03  0.33670729795E+03  0.00000000000E+00 0.  1.
         11    1    1    2    0    0  0.11179599397E+03  0.64393642984E+02 -0.43277236765E+03  0.45159363118E+03  0.00000000000E+00 0. -1.
        -15    1    3    3    0    0  0.57394703709E+01  0.11225236781E+02  0.31671412390E+01  0.13120059968E+02  0.17770000000E+01 0. -1.
         15    1    3    3    0    0 -0.41045520526E+02 -0.15850343199E+03  0.11234942427E+03  0.19857901090E+03  0.17770000000E+01 0.  1.
</event>
<event>
 7    1  0.2288857E-006  0.4450289E+03  0.7546771E-02  0.9531979E-01
        -11   -1    0    0    0    0  0.00000000000E+00  0.00000000000E+00  0.50000000000E+03  0.50000000000E+03  0.00000000000E+00 0.  1.
         11   -1    0    0    0    0 -0.00000000000E+00 -0.00000000000E+00 -0.50000000000E+03  0.50000000000E+03  0.00000000000E+00 0. -1.
         23    2    1    2    0    0  0.52378549021E+02 -0.17668315118E+03  0.39624144223E+03  0.44641938847E+03  0.91227964763E+02 0.  0.
        -11    1    1    2    0    0 -0.38739706915E+02  0.98337532154E+02  0.37849262989E+02  0.11226576429E+03  0.00000000000E+00 0.  1.
         11    1    1    2    0    0 -0.13638842106E+02  0.78345619029E+02 -0.43409070522E+03  0.44131484724E+03  0.00000000000E+00 0. -1.
        -15    1    3    3    0    0  0.46940378884E+02 -0.18556421945E+03  0.34936568874E+03  0.39836794664E+03  0.17770000000E+01 0.  1.
         15    1    3    3    0    0  0.54381701370E+01  0.88810682715E+01  0.46875753493E+02  0.48051441837E+02  0.17770000000E+01 0. -1.
</event>
<event>
 7    1  0.2288857E-006  0.5193009E+03  0.7546771E-02  0.9357629E-01
        -11   -1    0    0    0    0  0.00000000000E+00  0.00000000000E+00  0.50000000000E+03  0.50000000000E+03  0.00000000000E+00 0. -1.
         11   -1    0    0    0    0 -0.00000000000E+00 -0.00000000000E+00 -0.50000000000E+03  0.50000000000E+03  0.00000000000E+00 0.  1.
         23    2    1    2    0    0  0.22510793617E+02  0.17180294624E+02 -0.29198861220E+03  0.31412997456E+03  0.11233162026E+03 0.  0.
        -11    1    1    2    0    0 -0.81034784907E+02 -0.12343099613E+03  0.45746015677E+03  0.48069911817E+03  0.00000000000E+00 0. -1.
         11    1    1    2    0    0  0.58523991290E+02  0.10625070151E+03 -0.16547154457E+03  0.20517090727E+03  0.00000000000E+00 0.  1.
        -15    1    3    3    0    0 -0.57222288546E+01 -0.29948676364E+02 -0.19690389108E+02  0.36339183690E+02  0.17770000000E+01 0. -1.
         15    1    3    3    0    0  0.28233022471E+02  0.47128970987E+02 -0.27229822309E+03  0.27779079087E+03  0.17770000000E+01 0.  1.
</event>
<event>
 7    1  0.2374476E-006  0.3838303E+03  0.7546771E-02  0.9705422E-01
        -11   -1    0    0    0    0  0.00000000000E+00  0.00000000000E+00  0.50000000000E+03  0.50000000000E+03  0.00000000000E+00 0.  1.
         11   -1    0    0    0    0 -0.00000000000E+00 -0.00000000000E+00 -0.50000000000E+03  0.50000000000E+03  0.00000000000E+00 0.  1.
         23    2    1    2    0    0  0.10468640796E+03 -0.13396576449E+03  0.35957707450E+02  0.21291563039E+03  0.12302048152E+03 0.  0.
        -11    1    1    2    0    0 -0.10083781291E+03  0.44956663376E+02  0.36242125017E+03  0.37886478943E+03  0.00000000000E+00 0.  1.
         11    1    1    2    0    0 -0.38485950520E+01  0.89009101115E+02 -0.39837895762E+03  0.40821958018E+03  0.00000000000E+00 0.  1.
        -15    1    3    3    0    0  0.11268983694E+03 -0.12416898967E+03  0.66045758517E+02  0.18022801472E+03  0.17770000000E+01 0. -1.
         15    1    3    3    0    0 -0.80034289742E+01 -0.97967748240E+01 -0.30088051067E+02  0.32687615671E+02  0.17770000000E+01 0.  1.
</event>
<event>
 7    1  0.2288857E-006  0.5151579E+03  0.7546771E-02  0.9366517E-01
        -11   -1    0    0    0    0  0.00000000000E+00  0.00000000000E+00  0.50000000000E+03  0.50000000000E+03  0.00000000000E+00 0. -1.
         11   -1    0    0    0    0 -0.00000000000E+00 -0.00000000000E+00 -0.50000000000E+03  0.50000000000E+03  0.00000000000E+00 0.  1.
         23    2    1    2    0    0  0.10843998870E+02  0.17940870599E+03 -0.35531124023E+03  0.40874018984E+03  0.92289702888E+02 0.  0.
        -11    1    1    2    0    0 -0.63255961357E+02 -0.17474804846E+03  0.44780985358E+03  0.48484210012E+03  0.00000000000E+00 0. -1.
         11    1    1    2    0    0  0.52411962486E+02 -0.46606575267E+01 -0.92498613347E+02  0.10641771005E+03  0.00000000000E+00 0.  1.
        -15    1    3    3    0    0 -0.78296175030E+01  0.16099708914E+03 -0.23101738748E+03  0.28169763341E+03  0.17770000000E+01 0.  1.
         15    1    3    3    0    0  0.18673616373E+02  0.18411616848E+02 -0.12429385275E+03  0.12704255642E+03  0.17770000000E+01 0. -1.
</event>
<event>
 7    1  0.2288857E-006  0.4661559E+03  0.7546771E-02  0.9478895E-01
        -11   -1    0    0    0    0  0.00000000000E+00  0.00000000000E+00  0.50000000000E+03  0.50000000000E+03  0.00000000000E+00 0.  1.
         11   -1    0    0    0    0 -0.00000000000E+00 -0.00000000000E+00 -0.50000000000E+03  0.50000000000E+03  0.00000000000E+00 0.  1.
         23    2    1    2    0    0 -0.63273343385E+02 -0.13447297561E+03  0.42911936097E+03  0.46380893226E+03  0.94280446188E+02 0.  0.
        -11    1    1    2    0    0  0.48680179728E+02  0.50408647954E+02  0.24789804562E+02  0.74332537271E+02  0.00000000000E+00 0.  1.
         11    1    1    2    0    0  0.14593163657E+02  0.84064327654E+02 -0.45390916553E+03  0.46185853047E+03  0.00000000000E+00 0.  1.
        -15    1    3    3    0    0 -0.60950883970E+02 -0.27473603074E+02  0.13158248744E+03  0.14760392221E+03  0.17770000000E+01 0.  1.
         15    1    3    3    0    0 -0.23224594153E+01 -0.10699937253E+03  0.29753687353E+03  0.31620501005E+03  0.17770000000E+01 0. -1.
</event>
<event>
 7    1  0.2288857E-006  0.4694700E+03  0.7546771E-02  0.9470840E-01
        -11   -1    0    0    0    0  0.00000000000E+00  0.00000000000E+00  0.50000000000E+03  0.50000000000E+03  0.00000000000E+00 0.  1.
         11   -1    0    0    0    0 -0.00000000000E+00 -0.00000000000E+00 -0.50000000000E+03  0.50000000000E+03  0.00000000000E+00 0. -1.
         23    2    1    2    0    0 -0.45406878203E+02  0.89171783136E+02  0.43252028780E+03  0.45372648991E+03  0.93704518505E+02 0.  0.
        -11    1    1    2    0    0  0.54902390861E+02 -0.96523855026E+01  0.38979508215E+02  0.68020902146E+02  0.00000000000E+00 0.  1.
         11    1    1    2    0    0 -0.94955126575E+01 -0.79519397633E+02 -0.47149979602E+03  0.47825260794E+03  0.00000000000E+00 0. -1.
        -15    1    3    3    0    0 -0.53039729474E+01 -0.19315310586E+02  0.44539894485E+02  0.48868939847E+02  0.17770000000E+01 0.  1.
         15    1    3    3    0    0 -0.40102905256E+02  0.10848709372E+03  0.38798039332E+03  0.40485755006E+03  0.17770000000E+01 0. -1.
</event>
<event>
 7    1  0.2288857E-006  0.4049819E+03  0.7546771E-02  0.9641794E-01
        -11   -1    0    0    0    0  0.00000000000E+00  0.00000000000E+00  0.50000000000E+03  0.50000000000E+03  0.00000000000E+00 0.  1.
         11   -1    0    0    0    0 -0.00000000000E+00 -0.00000000000E+00 -0.50000000000E+03  0.50000000000E+03  0.00000000000E+00 0. -1.
         23    2    1    2    0    0  0.10221968252E+03  0.22940645964E+03  0.33786869448E+03  0.43049791252E+03  0.89983391551E+02 0.  0.
        -11    1    1    2    0    0 -0.29200764384E+02 -0.17308612873E+03  0.40428471627E+02  0.18012760454E+03  0.00000000000E+00 0.  1.
         11    1    1    2    0    0 -0.73018918141E+02 -0.56320330909E+02 -0.37829716610E+03  0.38937448294E+03  0.00000000000E+00 0. -1.
        -15    1    3    3    0    0  0.11773624250E+03  0.18178734117E+03  0.27027311965E+03  0.34635123378E+03  0.17770000000E+01 0.  1.
         15    1    3    3    0    0 -0.15516559974E+02  0.47619118477E+02  0.67595574829E+02  0.84146678742E+02  0.17770000000E+01 0. -1.
</event>
<event>
 7    1  0.2288857E-006  0.5231399E+03  0.7546771E-02  0.9349471E-01
        -11   -1    0    0    0    0  0.00000000000E+00  0.00000000000E+00  0.50000000000E+03  0.50000000000E+03  0.00000000000E+00 0.  1.
         11   -1    0    0    0    0 -0.00000000000E+00 -0.00000000000E+00 -0.50000000000E+03  0.50000000000E+03  0.00000000000E+00 0. -1.
         23    2    1    2    0    0 -0.24287842655E+02  0.25807868394E+02  0.19729111670E+03  0.22155232204E+03  0.94370023314E+02 0.  0.
        -11    1    1    2    0    0 -0.18272968359E+03 -0.67370922536E+02  0.23027389934E+03  0.30158754481E+03  0.00000000000E+00 0.  1.
         11    1    1    2    0    0  0.20701752625E+03  0.41563054142E+02 -0.42756501604E+03  0.47686013315E+03  0.00000000000E+00 0. -1.
        -15    1    3    3    0    0  0.11730269683E+02  0.53177615735E+02  0.91703104666E+02  0.10666806071E+03  0.17770000000E+01 0.  1.
         15    1    3    3    0    0 -0.36018112337E+02 -0.27369747341E+02  0.10558801204E+03  0.11488426133E+03  0.17770000000E+01 0. -1.
</event>
<event>
 7    1  0.2288857E-006  0.3986274E+03  0.7546771E-02  0.9660465E-01
        -11   -1    0    0    0    0  0.00000000000E+00  0.00000000000E+00  0.50000000000E+03  0.50000000000E+03  0.00000000000E+00 0. -1.
         11   -1    0    0    0    0 -0.00000000000E+00 -0.00000000000E+00 -0.50000000000E+03  0.50000000000E+03  0.00000000000E+00 0.  1.
         23    2    1    2    0    0 -0.86342170456E+02  0.16626427943E+03  0.31430759225E+03  0.37722094236E+03  0.91692942977E+02 0.  0.
        -11    1    1    2    0    0  0.13087329366E+03 -0.86807054784E+02  0.10810565026E+03  0.19065706221E+03  0.00000000000E+00 0. -1.
         11    1    1    2    0    0 -0.44531123204E+02 -0.79457224641E+02 -0.42241324252E+03  0.43212199543E+03  0.00000000000E+00 0.  1.
        -15    1    3    3    0    0 -0.21053934357E+02 -0.54311794057E+01  0.57303218818E+02  0.61315434253E+02  0.17770000000E+01 0.  1.
         15    1    3    3    0    0 -0.65288236098E+02  0.17169545883E+03  0.25700437344E+03  0.31590550810E+03  0.17770000000E+01 0. -1.
</event>
<event>
 7    1  0.2288857E-006  0.5216819E+03  0.7546771E-02  0.9352560E-01
        -11   -1    0    0    0    0  0.00000000000E+00  0.00000000000E+00  0.50000000000E+03  0.50000000000E+03  0.00000000000E+00 0. -1.
         11   -1    0    0    0    0 -0.00000000000E+00 -0.00000000000E+00 -0.50000000000E+03  0.50000000000E+03  0.00000000000E+00 0.  1.
         23    2    1    2    0    0 -0.56671782050E+01  0.19323569712E+03 -0.32490201217E+03  0.38841576344E+03  0.89069277672E+02 0.  0.
        -11    1    1    2    0    0  0.48687491016E+01 -0.15487356167E+03  0.45252478458E+03  0.47831810072E+03  0.00000000000E+00 0. -1.
         11    1    1    2    0    0  0.79842910345E+00 -0.38362135440E+02 -0.12762277241E+03  0.13326613584E+03  0.00000000000E+00 0.  1.
        -15    1    3    3    0    0 -0.40699460823E+02  0.47956196743E+02 -0.84735098689E+02  0.10554353413E+03  0.17770000000E+01 0.  1.
         15    1    3    3    0    0  0.35032282618E+02  0.14527950037E+03 -0.24016691348E+03  0.28287222931E+03  0.17770000000E+01 0. -1.
</event>
<event>
 7    1  0.2288857E-006  0.4739767E+03  0.7546771E-02  0.9459999E-01
        -11   -1    0    0    0    0  0.00000000000E+00  0.00000000000E+00  0.50000000000E+03  0.50000000000E+03  0.00000000000E+00 0.  1.
         11   -1    0    0    0    0 -0.00000000000E+00 -0.00000000000E+00 -0.50000000000E+03  0.50000000000E+03  0.00000000000E+00 0. -1.
         23    2    1    2    0    0  0.17583754904E+03 -0.24253289091E+03 -0.33251491617E+03  0.45654189047E+03  0.90129248566E+02 0.  0.
        -11    1    1    2    0    0 -0.16282280960E+03  0.23762280032E+03  0.38970032891E+03  0.48460520933E+03  0.00000000000E+00 0.  1.
         11    1    1    2    0    0 -0.13014739437E+02  0.49100905981E+01 -0.57185412740E+02  0.58852900205E+02  0.00000000000E+00 0. -1.
        -15    1    3    3    0    0  0.72838039125E+02 -0.48375064742E+02 -0.13608086272E+03  0.16176119980E+03  0.17770000000E+01 0.  1.
         15    1    3    3    0    0  0.10299950991E+03 -0.19415782617E+03 -0.19643405345E+03  0.29478069067E+03  0.17770000000E+01 0. -1.
</event>
<event>
 6    1  0.2288857E-006  0.4285477E+03  0.7546771E-02  0.9575620E-01
        -11   -1    0    0    0    0  0.00000000000E+00  0.00000000000E+00  0.50000000000E+03  0.50000000000E+03  0.00000000000E+00 0.  1.
         11   -1    0    0    0    0 -0.00000000000E+00 -0.00000000000E+00 -0.50000000000E+03  0.50000000000E+03  0.00000000000E+00 0.  1.
        -11    1    1    2    0    0  0.47427798307E+02 -0.38804352140E+02 -0.13958987607E+03  0.15244837584E+03  0.00000000000E+00 0.  1.
         11    1    1    2    0    0 -0.14311715608E+03  0.32388041183E+03 -0.17104383549E+03  0.39323915775E+03  0.00000000000E+00 0.  1.
        -15    1    1    2    0    0  0.41243214160E+01 -0.20929488993E+03  0.22807642358E+03  0.30958580991E+03  0.17770000000E+01 0.  1.
         15    1    1    2    0    0  0.91565036356E+02 -0.75781169754E+02  0.82557287978E+02  0.14472665649E+03  0.17770000000E+01 0. -1.
</event>
<event>
 7    1  0.2288857E-006  0.5324466E+03  0.7546771E-02  0.9329998E-01
        -11   -1    0    0    0    0  0.00000000000E+00  0.00000000000E+00  0.50000000000E+03  0.50000000000E+03  0.00000000000E+00 0. -1.
         11   -1    0    0    0    0 -0.00000000000E+00 -0.00000000000E+00 -0.50000000000E+03  0.50000000000E+03  0.00000000000E+00 0.  1.
         23    2    1    2    0    0 -0.37388163781E+02 -0.85744161141E+01  0.64090164177E+02  0.11719863162E+03  0.90313757024E+02 0.  0.
        -11    1    1    2    0    0  0.13479330102E+03 -0.25526720764E+02  0.39193120359E+03  0.41524801724E+03  0.00000000000E+00 0. -1.
         11    1    1    2    0    0 -0.97405137235E+02  0.34101136878E+02 -0.45602136777E+03  0.46755335114E+03  0.00000000000E+00 0.  1.
        -15    1    3    3    0    0  0.50758278894E+01  0.35775060397E+02  0.29656895135E+02  0.46779355845E+02  0.17770000000E+01 0.  1.
         15    1    3    3    0    0 -0.42463991670E+02 -0.44349476511E+02  0.34433269042E+02  0.70419275779E+02  0.17770000000E+01 0. -1.
</event>
<event>
 7    1  0.2288857E-006  0.3938536E+03  0.7546771E-02  0.9674738E-01
        -11   -1    0    0    0    0  0.00000000000E+00  0.00000000000E+00  0.50000000000E+03  0.50000000000E+03  0.00000000000E+00 0. -1.
         11   -1    0    0    0    0 -0.00000000000E+00 -0.00000000000E+00 -0.50000000000E+03  0.50000000000E+03  0.00000000000E+00 0.  1.
         23    2    1    2    0    0 -0.62831292966E+02  0.12497140053E+03 -0.82106443078E+02  0.19576761196E+03  0.10962603510E+03 0.  0.
        -11    1    1    2    0    0 -0.24479604402E+02 -0.11918179420E+03  0.42928627452E+03  0.44619531216E+03  0.00000000000E+00 0. -1.
         11    1    1    2    0    0  0.87310897368E+02 -0.57896063216E+01 -0.34717983145E+03  0.35803707588E+03  0.00000000000E+00 0.  1.
        -15    1    3    3    0    0  0.14094525224E+02  0.91023589686E+02 -0.30256786351E+02  0.96966903477E+02  0.17770000000E+01 0. -1.
         15    1    3    3    0    0 -0.76925818190E+02  0.33947810840E+02 -0.51849656727E+02  0.98800708483E+02  0.17770000000E+01 0.  1.
</event>
<event>
 7    1  0.2288857E-006  0.4509320E+03  0.7546771E-02  0.9516836E-01
        -11   -1    0    0    0    0  0.00000000000E+00  0.00000000000E+00  0.50000000000E+03  0.50000000000E+03  0.00000000000E+00 0.  1.
         11   -1    0    0    0    0 -0.00000000000E+00 -0.00000000000E+00 -0.50000000000E+03  0.50000000000E+03  0.00000000000E+00 0. -1.
         23    2    1    2    0    0  0.17402783249E+03  0.15838534241E+03 -0.34452353067E+03  0.42724835979E+03  0.92049413817E+02 0.  0.
        -11    1    1    2    0    0 -0.26662211069E+03 -0.12315507200E+03  0.36810912590E+03  0.47091278412E+03  0.00000000000E+00 0.  1.
         11    1    1    2    0    0  0.92594278200E+02 -0.35230270403E+02 -0.23585595230E+02  0.10183885609E+03  0.00000000000E+00 0. -1.
        -15    1    3    3    0    0  0.16945048826E+03  0.16963486131E+03 -0.33350932989E+03  0.41075672240E+03  0.17770000000E+01 0. -1.
         15    1    3    3    0    0  0.45773442320E+01 -0.11249518908E+02 -0.11014200785E+02  0.16491637390E+02  0.17770000000E+01 0.  1.
</event>
<event>
 7    1  0.2288857E-006  0.5081619E+03  0.7546771E-02  0.9381730E-01
        -11   -1    0    0    0    0  0.00000000000E+00  0.00000000000E+00  0.50000000000E+03  0.50000000000E+03  0.00000000000E+00 0. -1.
         11   -1    0    0    0    0 -0.00000000000E+00 -0.00000000000E+00 -0.50000000000E+03  0.50000000000E+03  0.00000000000E+00 0.  1.
         23    2    1    2    0    0  0.16313663785E+03 -0.69234666132E+01 -0.36719048029E+03  0.41208445308E+03  0.91231851111E+02 0.  0.
        -11    1    1    2    0    0 -0.17570843661E+03  0.35695822507E+02  0.45799238555E+03  0.49183805430E+03  0.00000000000E+00 0. -1.
         11    1    1    2    0    0  0.12571798756E+02 -0.28772355894E+02 -0.90801905259E+02  0.96077492610E+02  0.00000000000E+00 0.  1.
        -15    1    3    3    0    0  0.89381901179E+02  0.19767335932E+02 -0.28096828304E+03  0.29551007704E+03  0.17770000000E+01 0. -1.
         15    1    3    3    0    0  0.73754736674E+02 -0.26690802545E+02 -0.86222197250E+02  0.11657437604E+03  0.17770000000E+01 0.  1.
</event>
<event>
 7    1  0.4236597E-006  0.4668640E+03  0.7546771E-02  0.9477168E-01
        -11   -1    0    0    0    0  0.00000000000E+00  0.00000000000E+00  0.50000000000E+03  0.50000000000E+03  0.00000000000E+00 0. -1.
         11   -1    0    0    0    0 -0.00000000000E+00 -0.00000000000E+00 -0.50000000000E+03  0.50000000000E+03  0.00000000000E+00 0. -1.
         23    2    1    2    0    0  0.51918235661E+02  0.63047442841E+02 -0.41663630906E+03  0.43426018360E+03  0.91244779508E+02 0.  0.
        -11    1    1    2    0    0 -0.36262628699E+02 -0.78472648373E+02  0.48566409751E+03  0.49329762861E+03  0.00000000000E+00 0. -1.
         11    1    1    2    0    0 -0.15655606961E+02  0.15425205531E+02 -0.69027788445E+02  0.72442187796E+02  0.00000000000E+00 0. -1.
        -15    1    3    3    0    0 -0.14307580397E+00  0.66984369865E+02 -0.18375146586E+03  0.19558804977E+03  0.17770000000E+01 0.  1.
         15    1    3    3    0    0  0.52061311465E+02 -0.39369270233E+01 -0.23288484320E+03  0.23867213383E+03  0.17770000000E+01 0. -1.
</event>
<event>
 7    1  0.2288857E-006  0.3862815E+03  0.7546771E-02  0.9697826E-01
        -11   -1    0    0    0    0  0.00000000000E+00  0.00000000000E+00  0.50000000000E+03  0.50000000000E+03  0.00000000000E+00 0.  1.
         11   -1    0    0    0    0 -0.00000000000E+00 -0.00000000000E+00 -0.50000000000E+03  0.50000000000E+03  0.00000000000E+00 0. -1.
         23    2    1    2    0    0  0.27960044509E+03 -0.20921120375E+03 -0.55877271910E+02  0.36509954827E+03  0.90717550439E+02 0.  0.
        -11    1    1    2    0    0 -0.28639226678E+03  0.17257405300E+03  0.26240416238E+03  0.42503914958E+03  0.00000000000E+00 0.  1.
         11    1    1    2    0    0  0.67918216904E+01  0.36637150756E+02 -0.20652689047E+03  0.20986130216E+03  0.00000000000E+00 0. -1.
        -15    1    3    3    0    0  0.10721180125E+03 -0.75272304534E+02 -0.65710490221E+02  0.14656505863E+03  0.17770000000E+01 0.  1.
         15    1    3    3    0    0  0.17238864384E+03 -0.13393889922E+03  0.98332183108E+01  0.21853448964E+03  0.17770000000E+01 0. -1.
</event>
<event>
 7    1  0.2288857E-006  0.4823426E+03  0.7546771E-02  0.9440210E-01
        -11   -1    0    0    0    0  0.00000000000E+00  0.00000000000E+00  0.50000000000E+03  0.50000000000E+03  0.00000000000E+00 0. -1.
         11   -1    0    0    0    0 -0.00000000000E+00 -0.00000000000E+00 -0.50000000000E+03  0.50000000000E+03  0.00000000000E+00 0.  1.
         23    2    1    2    0    0 -0.12992228852E+03 -0.64575856141E+02  0.43404135061E+03  0.46659376152E+03  0.90928554389E+02 0.  0.
        -11    1    1    2    0    0  0.14528486012E+02  0.93049683030E+01  0.39383385668E+02  0.42996632514E+02  0.00000000000E+00 0. -1.
         11    1    1    2    0    0  0.11539380251E+03  0.55270887838E+02 -0.47342473628E+03  0.49040960596E+03  0.00000000000E+00 0.  1.
        -15    1    3    3    0    0 -0.79580962458E+02 -0.61612467204E+02  0.37804325004E+03  0.39121488000E+03  0.17770000000E+01 0. -1.
         15    1    3    3    0    0 -0.50341326064E+02 -0.29633889365E+01  0.55998100565E+02  0.75378881524E+02  0.17770000000E+01 0.  1.
</event>
<event>
 7    1  0.2288857E-006  0.5199124E+03  0.7546771E-02  0.9356324E-01
        -11   -1    0    0    0    0  0.00000000000E+00  0.00000000000E+00  0.50000000000E+03  0.50000000000E+03  0.00000000000E+00 0.  1.
         11   -1    0    0    0    0 -0.00000000000E+00 -0.00000000000E+00 -0.50000000000E+03  0.50000000000E+03  0.00000000000E+00 0. -1.
         23    2    1    2    0    0  0.51486921350E+02 -0.15210703035E+03  0.36897561357E+03  0.41265468470E+03  0.91397120552E+02 0.  0.
        -11    1    1    2    0    0 -0.46254352207E+02  0.24138203684E+02  0.93712903632E+02  0.10725775628E+03  0.00000000000E+00 0.  1.
         11    1    1    2    0    0 -0.52325691433E+01  0.12796882667E+03 -0.46268851720E+03  0.48008755902E+03  0.00000000000E+00 0. -1.
        -15    1    3    3    0    0  0.86199318361E+01 -0.10884263329E+03  0.15115512342E+03  0.18647265514E+03  0.17770000000E+01 0.  1.
         15    1    3    3    0    0  0.42866989514E+02 -0.43264397058E+02  0.21782049014E+03  0.22618202956E+03  0.17770000000E+01 0. -1.
</event>
<event>
 7    1  0.2288857E-006  0.5352821E+03  0.7546771E-02  0.9324149E-01
        -11   -1    0    0    0    0  0.00000000000E+00  0.00000000000E+00  0.50000000000E+03  0.50000000000E+03  0.00000000000E+00 0. -1.
         11   -1    0    0    0    0 -0.00000000000E+00 -0.00000000000E+00 -0.50000000000E+03  0.50000000000E+03  0.00000000000E+00 0.  1.
         23    2    1    2    0    0  0.60472673948E+02  0.19508910839E+02  0.57384757431E+02  0.12679488770E+03  0.93522143173E+02 0.  0.
        -11    1    1    2    0    0 -0.53549612344E+02  0.57366454403E+02  0.40087822090E+03  0.40848723244E+03  0.00000000000E+00 0. -1.
         11    1    1    2    0    0 -0.69230616040E+01 -0.76875365242E+02 -0.45826297833E+03  0.46471787987E+03  0.00000000000E+00 0.  1.
        -15    1    3    3    0    0  0.45148106698E+02  0.56207482918E+02  0.28201872474E+02  0.77434720988E+02  0.17770000000E+01 0.  1.
         15    1    3    3    0    0  0.15324567250E+02 -0.36698572079E+02  0.29182884957E+02  0.49360166708E+02  0.17770000000E+01 0. -1.
</event>
<event>
 7    1  0.2288857E-006  0.4740280E+03  0.7546771E-02  0.9459876E-01
        -11   -1    0    0    0    0  0.00000000000E+00  0.00000000000E+00  0.50000000000E+03  0.50000000000E+03  0.00000000000E+00 0.  1.
         11   -1    0    0    0    0 -0.00000000000E+00 -0.00000000000E+00 -0.50000000000E+03  0.50000000000E+03  0.00000000000E+00 0.  1.
         23    2    1    2    0    0 -0.15999439767E+03  0.15966462894E+02  0.43529520217E+03  0.47347526921E+03  0.94041386071E+02 0.  0.
        -11    1    1    2    0    0  0.56106905854E+02  0.99276828156E+00  0.19729746635E+02  0.59483051163E+02  0.00000000000E+00 0.  1.
         11    1    1    2    0    0  0.10388749182E+03 -0.16959231176E+02 -0.45502494880E+03  0.46704167963E+03  0.00000000000E+00 0.  1.
        -15    1    3    3    0    0 -0.93212307542E+02  0.11486839078E+02  0.36291789522E+03  0.37487736415E+03  0.17770000000E+01 0.  1.
         15    1    3    3    0    0 -0.66782090132E+02  0.44796238157E+01  0.72377306947E+02  0.98597905058E+02  0.17770000000E+01 0. -1.
</event>
<event>
 7    1  0.2288857E-006  0.4575512E+03  0.7546771E-02  0.9500147E-01
        -11   -1    0    0    0    0  0.00000000000E+00  0.00000000000E+00  0.50000000000E+03  0.50000000000E+03  0.00000000000E+00 0.  1.
         11   -1    0    0    0    0 -0.00000000000E+00 -0.00000000000E+00 -0.50000000000E+03  0.50000000000E+03  0.00000000000E+00 0. -1.
         23    2    1    2    0    0 -0.14312395198E+03  0.38578227751E+01  0.41577193447E+03  0.44888763440E+03  0.90191232390E+02 0.  0.
        -11    1    1    2    0    0  0.72619118077E+02  0.35012330528E+02  0.38797268323E+02  0.89468584591E+02  0.00000000000E+00 0.  1.
         11    1    1    2    0    0  0.70504833900E+02 -0.38870153303E+02 -0.45456920279E+03  0.46164378101E+03  0.00000000000E+00 0. -1.
        -15    1    3    3    0    0 -0.62632589032E+02 -0.23259919063E+02  0.28654533147E+03  0.29423672401E+03  0.17770000000E+01 0.  1.
         15    1    3    3    0    0 -0.80491362945E+02  0.27117741838E+02  0.12922660300E+03  0.15465091038E+03  0.17770000000E+01 0. -1.
</event>
<event>
 7    1  0.2288857E-006  0.5030105E+03  0.7546771E-02  0.9393099E-01
        -11   -1    0    0    0    0  0.00000000000E+00  0.00000000000E+00  0.50000000000E+03  0.50000000000E+03  0.00000000000E+00 0.  1.
         11   -1    0    0    0    0 -0.00000000000E+00 -0.00000000000E+00 -0.50000000000E+03  0.50000000000E+03  0.00000000000E+00 0.  1.
         23    2    1    2    0    0  0.21336524271E+03  0.83828067477E+02  0.43183178793E+03  0.49698948799E+03  0.89263578347E+02 0.  0.
        -11    1    1    2    0    0 -0.22800826065E+03 -0.83466500793E+02 -0.39919857288E+03  0.46724075622E+03  0.00000000000E+00 0.  1.
         11    1    1    2    0    0  0.14643017944E+02 -0.36156668410E+00 -0.32633215046E+02  0.35769755789E+02  0.00000000000E+00 0.  1.
        -15    1    3    3    0    0  0.19827703276E+03  0.77341248300E+02  0.43071657125E+03  0.48043248525E+03  0.17770000000E+01 0.  1.
         15    1    3    3    0    0  0.15088209948E+02  0.64868191774E+01  0.11152166764E+01  0.16557002740E+02  0.17770000000E+01 0. -1.
</event>
<event>
 7    1  0.2288857E-006  0.4659339E+03  0.7546771E-02  0.9479437E-01
        -11   -1    0    0    0    0  0.00000000000E+00  0.00000000000E+00  0.50000000000E+03  0.50000000000E+03  0.00000000000E+00 0. -1.
         11   -1    0    0    0    0 -0.00000000000E+00 -0.00000000000E+00 -0.50000000000E+03  0.50000000000E+03  0.00000000000E+00 0. -1.
         23    2    1    2    0    0  0.61974325507E+02  0.71551563064E+01  0.42889448957E+03  0.44194477190E+03  0.86444692983E+02 0.  0.
        -11    1    1    2    0    0  0.39256245160E+02  0.45269931870E+02  0.42248230055E+02  0.73316658805E+02  0.00000000000E+00 0. -1.
         11    1    1    2    0    0 -0.10123057067E+03 -0.52425088177E+02 -0.47114271962E+03  0.48473856929E+03  0.00000000000E+00 0. -1.
        -15    1    3    3    0    0  0.53266749939E+02  0.43674133515E+02  0.28720475157E+03  0.29535487746E+03  0.17770000000E+01 0.  1.
         15    1    3    3    0    0  0.87075755678E+01 -0.36518977208E+02  0.14168973800E+03  0.14658989444E+03  0.17770000000E+01 0. -1.
</event>
<event>
 7    1  0.2288857E-006  0.4223281E+03  0.7546771E-02  0.9592636E-01
        -11   -1    0    0    0    0  0.00000000000E+00  0.00000000000E+00  0.50000000000E+03  0.50000000000E+03  0.00000000000E+00 0.  1.
         11   -1    0    0    0    0 -0.00000000000E+00 -0.00000000000E+00 -0.50000000000E+03  0.50000000000E+03  0.00000000000E+00 0. -1.
         23    2    1    2    0    0 -0.25476960633E+03 -0.98565676761E+02  0.32252353664E+03  0.43349039768E+03  0.96279531818E+02 0.  0.
        -11    1    1    2    0    0  0.13846580191E+03  0.63505280232E+01  0.63848072195E+02  0.15260957973E+03  0.00000000000E+00 0.  1.
         11    1    1    2    0    0  0.11630380443E+03  0.92215148738E+02 -0.38637160884E+03  0.41390002258E+03  0.00000000000E+00 0. -1.
        -15    1    3    3    0    0 -0.20105584612E+03 -0.96756960295E+02  0.19984432012E+03  0.29954344032E+03  0.17770000000E+01 0.  1.
         15    1    3    3    0    0 -0.53713760212E+02 -0.18087164668E+01  0.12267921652E+03  0.13394695736E+03  0.17770000000E+01 0. -1.
</event>
<event>
 7    1  0.2288857E-006  0.5098572E+03  0.7546771E-02  0.9378020E-01
        -11   -1    0    0    0    0  0.00000000000E+00  0.00000000000E+00  0.50000000000E+03  0.50000000000E+03  0.00000000000E+00 0. -1.
         11   -1    0    0    0    0 -0.00000000000E+00 -0.00000000000E+00 -0.50000000000E+03  0.50000000000E+03  0.00000000000E+00 0.  1.
         23    2    1    2    0    0 -0.11662334198E+03  0.29425902446E+02 -0.25121168496E+03  0.29314132735E+03  0.91420126400E+02 0.  0.
        -11    1    1    2    0    0  0.14743461718E+03 -0.55042106036E+02  0.46419110962E+03  0.49014282207E+03  0.00000000000E+00 0. -1.
         11    1    1    2    0    0 -0.30811275194E+02  0.25616203590E+02 -0.21297942466E+03  0.21671585058E+03  0.00000000000E+00 0.  1.
        -15    1    3    3    0    0 -0.19656384425E+02 -0.28394658508E+02 -0.89173669952E+02  0.95643772522E+02  0.17770000000E+01 0.  1.
         15    1    3    3    0    0 -0.96966957557E+02  0.57820560954E+02 -0.16203801501E+03  0.19749755483E+03  0.17770000000E+01 0. -1.
</event>
<event>
 7    1  0.2288857E-006  0.5281048E+03  0.7546771E-02  0.9339030E-01
        -11   -1    0    0    0    0  0.00000000000E+00  0.00000000000E+00  0.50000000000E+03  0.50000000000E+03  0.00000000000E+00 0.  1.
         11   -1    0    0    0    0 -0.00000000000E+00 -0.00000000000E+00 -0.50000000000E+03  0.50000000000E+03  0.00000000000E+00 0. -1.
         23    2    1    2    0    0 -0.10158772577E+03 -0.31101893594E+02  0.15267321927E+03  0.20627495787E+03  0.89178767380E+02 0.  0.
        -11    1    1    2    0    0  0.24405303283E+02  0.83117101367E+02  0.30995225843E+03  0.32182988344E+03  0.00000000000E+00 0.  1.
         11    1    1    2    0    0  0.77182422485E+02 -0.52015207774E+02 -0.46262547770E+03  0.47189515869E+03  0.00000000000E+00 0. -1.
        -15    1    3    3    0    0  0.97060243598E+01  0.14404024005E+02  0.11878917113E+02  0.21117509730E+02  0.17770000000E+01 0.  1.
         15    1    3    3    0    0 -0.11129375013E+03 -0.45505917599E+02  0.14079430215E+03  0.18515744814E+03  0.17770000000E+01 0. -1.
</event>
<event>
 7    1  0.2288857E-006  0.4452237E+03  0.7546771E-02  0.9531476E-01
        -11   -1    0    0    0    0  0.00000000000E+00  0.00000000000E+00  0.50000000000E+03  0.50000000000E+03  0.00000000000E+00 0.  1.
         11   -1    0    0    0    0 -0.00000000000E+00 -0.00000000000E+00 -0.50000000000E+03  0.50000000000E+03  0.00000000000E+00 0. -1.
         23    2    1    2    0    0 -0.53230448943E+02 -0.23146035291E+02  0.51927381710E+01  0.10764752873E+03  0.90508597753E+02 0.  0.
        -11    1    1    2    0    0  0.19448478756E+03 -0.67939080551E+02  0.40206786735E+03  0.45177275395E+03  0.00000000000E+00 0.  1.
         11    1    1    2    0    0 -0.14125433862E+03  0.91085115841E+02 -0.40726060552E+03  0.44057971732E+03  0.00000000000E+00 0. -1.
        -15    1    3    3    0    0 -0.51398679040E+02 -0.33707119928E+02  0.38542939314E+02  0.72572102359E+02  0.17770000000E+01 0. -1.
         15    1    3    3    0    0 -0.18317699034E+01  0.10561084637E+02 -0.33350201143E+02  0.35075426369E+02  0.17770000000E+01 0.  1.
</event>
<event>
 7    1  0.2288857E-006  0.5154078E+03  0.7546771E-02  0.9365979E-01
        -11   -1    0    0    0    0  0.00000000000E+00  0.00000000000E+00  0.50000000000E+03  0.50000000000E+03  0.00000000000E+00 0.  1.
         11   -1    0    0    0    0 -0.00000000000E+00 -0.00000000000E+00 -0.50000000000E+03  0.50000000000E+03  0.00000000000E+00 0. -1.
         23    2    1    2    0    0  0.62027429203E+02 -0.29664848325E+02  0.40790243123E+03  0.42333106203E+03  0.89985495911E+02 0.  0.
        -11    1    1    2    0    0  0.38334422139E+02  0.51936626196E+02  0.65659647428E+02  0.92076763419E+02  0.00000000000E+00 0.  1.
         11    1    1    2    0    0 -0.10036185134E+03 -0.22271777871E+02 -0.47356207866E+03  0.48459217455E+03  0.00000000000E+00 0. -1.
        -15    1    3    3    0    0 -0.87967105739E+01 -0.17537574978E+02  0.17448391936E+02  0.26316397230E+02  0.17770000000E+01 0. -1.
         15    1    3    3    0    0  0.70824139777E+02 -0.12127273347E+02  0.39045403930E+03  0.39701466480E+03  0.17770000000E+01 0.  1.
</event>
<event>
 7    1  0.2288857E-006  0.4551801E+03  0.7546771E-02  0.9506090E-01
        -11   -1    0    0    0    0  0.00000000000E+00  0.00000000000E+00  0.50000000000E+03  0.50000000000E+03  0.00000000000E+00 0.  1.
         11   -1    0    0    0    0 -0.00000000000E+00 -0.00000000000E+00 -0.50000000000E+03  0.50000000000E+03  0.00000000000E+00 0.  1.
         23    2    1    2    0    0  0.10972571109E+02  0.12655912204E+03  0.40206529670E+03  0.43121881936E+03  0.90308131809E+02 0.  0.
        -11    1    1    2    0    0 -0.77592459539E+02 -0.57624531951E+01  0.52422728978E+02  0.93818645043E+02  0.00000000000E+00 0.  1.
         11    1    1    2    0    0  0.66619888431E+02 -0.12079666884E+03 -0.45448802568E+03  0.47496253560E+03  0.00000000000E+00 0.  1.
        -15    1    3    3    0    0  0.32954034264E+02  0.36138450027E+02  0.23439125190E+03  0.23944597019E+03  0.17770000000E+01 0. -1.
         15    1    3    3    0    0 -0.21981463155E+02  0.90420672010E+02  0.16767404480E+03  0.19177284917E+03  0.17770000000E+01 0.  1.
</event>
<event>
 7    1  0.2288857E-006  0.5257756E+03  0.7546771E-02  0.9343913E-01
        -11   -1    0    0    0    0  0.00000000000E+00  0.00000000000E+00  0.50000000000E+03  0.50000000000E+03  0.00000000000E+00 0.  1.
         11   -1    0    0    0    0 -0.00000000000E+00 -0.00000000000E+00 -0.50000000000E+03  0.50000000000E+03  0.00000000000E+00 0. -1.
         23    2    1    2    0    0 -0.11918788653E+03 -0.68170949877E+02 -0.24212353515E+03  0.29386519563E+03  0.94233307434E+02 0.  0.
        -11    1    1    2    0    0  0.67263651091E+02  0.46581703184E+02  0.46711293531E+03  0.47422436479E+03  0.00000000000E+00 0.  1.
         11    1    1    2    0    0  0.51924235438E+02  0.21589246693E+02 -0.22498940016E+03  0.23191043957E+03  0.00000000000E+00 0. -1.
        -15    1    3    3    0    0 -0.12214702116E+03 -0.85228848587E+02 -0.22072656635E+03  0.26628410811E+03  0.17770000000E+01 0.  1.
         15    1    3    3    0    0  0.29591346351E+01  0.17057898710E+02 -0.21396968795E+02  0.27581087521E+02  0.17770000000E+01 0. -1.
</event>
<event>
 7    1  0.2288857E-006  0.4692983E+03  0.7546771E-02  0.9471255E-01
        -11   -1    0    0    0    0  0.00000000000E+00  0.00000000000E+00  0.50000000000E+03  0.50000000000E+03  0.00000000000E+00 0. -1.
         11   -1    0    0    0    0 -0.00000000000E+00 -0.00000000000E+00 -0.50000000000E+03  0.50000000000E+03  0.00000000000E+00 0. -1.
         23    2    1    2    0    0 -0.10381727805E+02  0.14316674628E+03 -0.41622251012E+03  0.44833395493E+03  0.84602953277E+02 0.  0.
        -11    1    1    2    0    0  0.54961282889E+02 -0.12982555441E+03  0.46401665338E+03  0.48496069099E+03  0.00000000000E+00 0. -1.
         11    1    1    2    0    0 -0.44579555084E+02 -0.13341191867E+02 -0.47794143261E+02  0.66705354073E+02  0.00000000000E+00 0. -1.
        -15    1    3    3    0    0 -0.17152757707E+02  0.12252515128E+03 -0.40566487909E+03  0.42411529287E+03  0.17770000000E+01 0. -1.
         15    1    3    3    0    0  0.67710299019E+01  0.20641594996E+02 -0.10557631029E+02  0.24218662058E+02  0.17770000000E+01 0.  1.
</event>
<event>
 7    1  0.2288857E-006  0.4400080E+03  0.7546771E-02  0.9545058E-01
        -11   -1    0    0    0    0  0.00000000000E+00  0.00000000000E+00  0.50000000000E+03  0.50000000000E+03  0.00000000000E+00 0.  1.
         11   -1    0    0    0    0 -0.00000000000E+00 -0.00000000000E+00 -0.50000000000E+03  0.50000000000E+03  0.00000000000E+00 0. -1.
         23    2    1    2    0    0  0.80027689459E+02  0.35821826352E+02  0.39609451858E+03  0.41559881173E+03  0.90243394993E+02 0.  0.
        -11    1    1    2    0    0 -0.21603059006E+02 -0.10359799209E+03  0.58612074194E+02  0.12097359780E+03  0.00000000000E+00 0.  1.
         11    1    1    2    0    0 -0.58424630453E+02  0.67776165742E+02 -0.45470659278E+03  0.46342759046E+03  0.00000000000E+00 0. -1.
        -15    1    3    3    0    0  0.57035389927E+01 -0.24189239388E+02  0.41940933527E+02  0.48783699053E+02  0.17770000000E+01 0. -1.
         15    1    3    3    0    0  0.74324150467E+02  0.60011065740E+02  0.35415358506E+03  0.36681511268E+03  0.17770000000E+01 0.  1.
</event>
<event>
 7    1  0.2288857E-006  0.3150902E+03  0.7546771E-02  0.9947052E-01
        -11   -1    0    0    0    0  0.00000000000E+00  0.00000000000E+00  0.50000000000E+03  0.50000000000E+03  0.00000000000E+00 0.  1.
         11   -1    0    0    0    0 -0.00000000000E+00 -0.00000000000E+00 -0.50000000000E+03  0.50000000000E+03  0.00000000000E+00 0.  1.
         23    2    1    2    0    0 -0.16294978419E+03 -0.13364960007E+03  0.20028644390E+03  0.30598500626E+03  0.95379854677E+02 0.  0.
        -11    1    1    2    0    0  0.21720329903E+03  0.19598818209E+03  0.15372572846E+03  0.33048485626E+03  0.00000000000E+00 0.  1.
         11    1    1    2    0    0 -0.54253514836E+02 -0.62338582023E+02 -0.35401217236E+03  0.36353013749E+03  0.00000000000E+00 0.  1.
        -15    1    3    3    0    0 -0.28003713951E+02 -0.81122710891E+02  0.85926109275E+02  0.12145598463E+03  0.17770000000E+01 0.  1.
         15    1    3    3    0    0 -0.13494607024E+03 -0.52526889174E+02  0.11436033463E+03  0.18452902163E+03  0.17770000000E+01 0. -1.
</event>
<event>
 7    1  0.2288857E-006  0.3554214E+03  0.7546771E-02  0.9798140E-01
        -11   -1    0    0    0    0  0.00000000000E+00  0.00000000000E+00  0.50000000000E+03  0.50000000000E+03  0.00000000000E+00 0.  1.
         11   -1    0    0    0    0 -0.00000000000E+00 -0.00000000000E+00 -0.50000000000E+03  0.50000000000E+03  0.00000000000E+00 0. -1.
         23    2    1    2    0    0  0.86003480510E+02 -0.35239094542E+03  0.11919058698E+03  0.39198925283E+03  0.88731061266E+02 0.  0.
        -11    1    1    2    0    0 -0.13347860904E+03  0.14507563193E+03  0.16219867086E+03  0.25528785103E+03  0.00000000000E+00 0.  1.
         11    1    1    2    0    0  0.47475128533E+02  0.20731531349E+03 -0.28138925784E+03  0.35272289615E+03  0.00000000000E+00 0. -1.
        -15    1    3    3    0    0  0.64328927649E+02 -0.99931726879E+02  0.52683319439E+02  0.13001250265E+03  0.17770000000E+01 0.  1.
         15    1    3    3    0    0  0.21674552862E+02 -0.25245921854E+03  0.66507267541E+02  0.26197675017E+03  0.17770000000E+01 0. -1.
</event>
<event>
 7    1  0.2288857E-006  0.4706234E+03  0.7546771E-02  0.9468053E-01
        -11   -1    0    0    0    0  0.00000000000E+00  0.00000000000E+00  0.50000000000E+03  0.50000000000E+03  0.00000000000E+00 0.  1.
         11   -1    0    0    0    0 -0.00000000000E+00 -0.00000000000E+00 -0.50000000000E+03  0.50000000000E+03  0.00000000000E+00 0. -1.
         23    2    1    2    0    0 -0.48663348567E+02 -0.89649927759E+02  0.42426660074E+03  0.44575621921E+03  0.91056177308E+02 0.  0.
        -11    1    1    2    0    0  0.24642374473E+02 -0.38135677954E+02  0.47011602427E+02  0.65357993509E+02  0.00000000000E+00 0.  1.
         11    1    1    2    0    0  0.24020974094E+02  0.12778560571E+03 -0.47127820316E+03  0.48888578728E+03  0.00000000000E+00 0. -1.
        -15    1    3    3    0    0 -0.21729462798E+02 -0.10393346633E+03  0.33012980303E+03  0.34678982043E+03  0.17770000000E+01 0.  1.
         15    1    3    3    0    0 -0.26933885769E+02  0.14283538569E+02  0.94136797710E+02  0.98966398786E+02  0.17770000000E+01 0. -1.
</event>
<event>
 6    1  0.2288857E-006  0.5260935E+03  0.7546771E-02  0.9343245E-01
        -11   -1    0    0    0    0  0.00000000000E+00  0.00000000000E+00  0.50000000000E+03  0.50000000000E+03  0.00000000000E+00 0.  1.
         11   -1    0    0    0    0 -0.00000000000E+00 -0.00000000000E+00 -0.50000000000E+03  0.50000000000E+03  0.00000000000E+00 0. -1.
        -11    1    1    2    0    0 -0.20951909289E+03 -0.32754788338E+02  0.42381154307E+03  0.47390647862E+03  0.00000000000E+00 0.  1.
         11    1    1    2    0    0  0.28391700980E+01 -0.26748258329E+02 -0.10683994416E+03  0.11017397096E+03  0.00000000000E+00 0. -1.
        -15    1    1    2    0    0  0.45120497234E+01 -0.40923849828E+02 -0.30913697087E+02  0.51516351521E+02  0.17770000000E+01 0.  1.
         15    1    1    2    0    0  0.20216787307E+03  0.10042689649E+03 -0.28605790182E+03  0.36440319889E+03  0.17770000000E+01 0. -1.
</event>
<event>
 7    1  0.2288857E-006  0.4051248E+03  0.7546771E-02  0.9641379E-01
        -11   -1    0    0    0    0  0.00000000000E+00  0.00000000000E+00  0.50000000000E+03  0.50000000000E+03  0.00000000000E+00 0. -1.
         11   -1    0    0    0    0 -0.00000000000E+00 -0.00000000000E+00 -0.50000000000E+03  0.50000000000E+03  0.00000000000E+00 0.  1.
         23    2    1    2    0    0 -0.33538660948E+02  0.66983426954E+02  0.36610247168E+03  0.38456735274E+03  0.90826250391E+02 0.  0.
        -11    1    1    2    0    0 -0.17956417882E+02 -0.17096785046E+03  0.53532170249E+02  0.18005035986E+03  0.00000000000E+00 0. -1.
         11    1    1    2    0    0  0.51495078830E+02  0.10398442350E+03 -0.41963464193E+03  0.43538228740E+03  0.00000000000E+00 0.  1.
        -15    1    3    3    0    0  0.41792755117E+01 -0.21131643936E+02  0.58060070826E+02  0.61952742252E+02  0.17770000000E+01 0.  1.
         15    1    3    3    0    0 -0.37717936460E+02  0.88115070889E+02  0.30804240085E+03  0.32261461049E+03  0.17770000000E+01 0. -1.
</event>
<event>
 7    1  0.2288857E-006  0.5396905E+03  0.7546771E-02  0.9315132E-01
        -11   -1    0    0    0    0  0.00000000000E+00  0.00000000000E+00  0.50000000000E+03  0.50000000000E+03  0.00000000000E+00 0. -1.
         11   -1    0    0    0    0 -0.00000000000E+00 -0.00000000000E+00 -0.50000000000E+03  0.50000000000E+03  0.00000000000E+00 0.  1.
         23    2    1    2    0    0  0.86058046418E+01 -0.46477408613E+01 -0.20069935328E+02  0.92920551922E+02  0.90198477242E+02 0.  0.
        -11    1    1    2    0    0 -0.17103692994E+03 -0.29145986372E+03  0.31254178919E+03  0.46030951930E+03  0.00000000000E+00 0. -1.
         11    1    1    2    0    0  0.16243112530E+03  0.29610760459E+03 -0.29247185387E+03  0.44676992878E+03  0.00000000000E+00 0.  1.
        -15    1    3    3    0    0 -0.14101206479E+02  0.26968176310E+02 -0.39081200291E+02  0.49564347094E+02  0.17770000000E+01 0.  1.
         15    1    3    3    0    0  0.22707011121E+02 -0.31615917171E+02  0.19011264963E+02  0.43356204828E+02  0.17770000000E+01 0. -1.
</event>
<event>
 7    1  0.2288857E-006  0.4399048E+03  0.7546771E-02  0.9545329E-01
        -11   -1    0    0    0    0  0.00000000000E+00  0.00000000000E+00  0.50000000000E+03  0.50000000000E+03  0.00000000000E+00 0.  1.
         11   -1    0    0    0    0 -0.00000000000E+00 -0.00000000000E+00 -0.50000000000E+03  0.50000000000E+03  0.00000000000E+00 0. -1.
         23    2    1    2    0    0  0.38701116507E+02  0.13624062501E+03  0.42236318016E+03  0.45498031442E+03  0.92504844368E+02 0.  0.
        -11    1    1    2    0    0  0.75948059755E+02 -0.93398316558E+02 -0.16990408964E+02  0.12157313566E+03  0.00000000000E+00 0.  1.
         11    1    1    2    0    0 -0.11464917626E+03 -0.42842308448E+02 -0.40537277120E+03  0.42344654992E+03  0.00000000000E+00 0. -1.
        -15    1    3    3    0    0 -0.18560213923E+02  0.32275471218E+02  0.19462749538E+03  0.19816459641E+03  0.17770000000E+01 0. -1.
         15    1    3    3    0    0  0.57261330430E+02  0.10396515379E+03  0.22773568478E+03  0.25681571801E+03  0.17770000000E+01 0.  1.
</event>
<event>
 7    1  0.2288857E-006  0.5234102E+03  0.7546771E-02  0.9348899E-01
        -11   -1    0    0    0    0  0.00000000000E+00  0.00000000000E+00  0.50000000000E+03  0.50000000000E+03  0.00000000000E+00 0.  1.
         11   -1    0    0    0    0 -0.00000000000E+00 -0.00000000000E+00 -0.50000000000E+03  0.50000000000E+03  0.00000000000E+00 0. -1.
         23    2    1    2    0    0  0.28564073431E+02  0.21085281622E+01  0.84796897915E+02  0.13127188556E+03  0.96028338838E+02 0.  0.
        -11    1    1    2    0    0  0.49602466361E+02 -0.11527065830E+03  0.37151678106E+03  0.39213830206E+03  0.00000000000E+00 0.  1.
         11    1    1    2    0    0 -0.78166539792E+02  0.11316213014E+03 -0.45631367898E+03  0.47658981238E+03  0.00000000000E+00 0. -1.
        -15    1    3    3    0    0 -0.28269893652E+02 -0.21834555505E+02  0.16983437688E+02  0.39592039426E+02  0.17770000000E+01 0.  1.
         15    1    3    3    0    0  0.56833967083E+02  0.23943083667E+02  0.67813460227E+02  0.91679846132E+02  0.17770000000E+01 0. -1.
</event>
<event>
 7    1  0.2288857E-006  0.3699429E+03  0.7546771E-02  0.9749632E-01
        -11   -1    0    0    0    0  0.00000000000E+00  0.00000000000E+00  0.50000000000E+03  0.50000000000E+03  0.00000000000E+00 0.  1.
         11   -1    0    0    0    0 -0.00000000000E+00 -0.00000000000E+00 -0.50000000000E+03  0.50000000000E+03  0.00000000000E+00 0. -1.
         23    2    1    2    0    0  0.13226940103E+03  0.10532605639E+03  0.12442908865E+03  0.23090802001E+03  0.96162066322E+02 0.  0.
        -11    1    1    2    0    0 -0.27671657879E+03 -0.23366808126E+02  0.24099952350E+03  0.36769395294E+03  0.00000000000E+00 0.  1.
         11    1    1    2    0    0  0.14444717776E+03 -0.81959248267E+02 -0.36542861215E+03  0.40139802705E+03  0.00000000000E+00 0. -1.
        -15    1    3    3    0    0  0.59701446106E+02  0.43235396835E+02  0.11268720304E+03  0.13466672070E+03  0.17770000000E+01 0.  1.
         15    1    3    3    0    0  0.72567954924E+02  0.62090659558E+02  0.11741885611E+02  0.96241299310E+02  0.17770000000E+01 0. -1.
</event>
<event>
 7    1  0.2288857E-006  0.5344575E+03  0.7546771E-02  0.9325846E-01
        -11   -1    0    0    0    0  0.00000000000E+00  0.00000000000E+00  0.50000000000E+03  0.50000000000E+03  0.00000000000E+00 0.  1.
         11   -1    0    0    0    0 -0.00000000000E+00 -0.00000000000E+00 -0.50000000000E+03  0.50000000000E+03  0.00000000000E+00 0. -1.
         23    2    1    2    0    0  0.16432889576E+02 -0.64850826947E+02 -0.20360780456E+02  0.11516605013E+03  0.91504033273E+02 0.  0.
        -11    1    1    2    0    0  0.70232356124E+02  0.24964371936E+03  0.38662029972E+03  0.46554250785E+03  0.00000000000E+00 0.  1.
         11    1    1    2    0    0 -0.86665245700E+02 -0.18479289241E+03 -0.36625951927E+03  0.41929144202E+03  0.00000000000E+00 0. -1.
        -15    1    3    3    0    0  0.41203714729E+02 -0.56972056988E+02 -0.41456878871E+02  0.81641851519E+02  0.17770000000E+01 0.  1.
         15    1    3    3    0    0 -0.24770825153E+02 -0.78787699598E+01  0.21096098415E+02  0.33524198606E+02  0.17770000000E+01 0. -1.
</event>
<event>
 7    1  0.2288857E-006  0.3885313E+03  0.7546771E-02  0.9690908E-01
        -11   -1    0    0    0    0  0.00000000000E+00  0.00000000000E+00  0.50000000000E+03  0.50000000000E+03  0.00000000000E+00 0.  1.
         11   -1    0    0    0    0 -0.00000000000E+00 -0.00000000000E+00 -0.50000000000E+03  0.50000000000E+03  0.00000000000E+00 0. -1.
         23    2    1    2    0    0  0.50843201595E+02  0.18521136457E+02  0.32583398613E+03  0.34239651998E+03  0.90219325694E+02 0.  0.
        -11    1    1    2    0    0 -0.63623012524E+02 -0.16918481191E+03  0.99404197767E+02  0.20628277397E+03  0.00000000000E+00 0.  1.
         11    1    1    2    0    0  0.12779810929E+02  0.15066367545E+03 -0.42523818390E+03  0.45132070606E+03  0.00000000000E+00 0. -1.
        -15    1    3    3    0    0 -0.16714816597E+00  0.39555964105E+02  0.67735060945E+02  0.78459533806E+02  0.17770000000E+01 0. -1.
         15    1    3    3    0    0  0.51010349761E+02 -0.21034827647E+02  0.25809892519E+03  0.26393698617E+03  0.17770000000E+01 0.  1.
</event>
<event>
 7    1  0.2288857E-006  0.4909904E+03  0.7546771E-02  0.9420198E-01
        -11   -1    0    0    0    0  0.00000000000E+00  0.00000000000E+00  0.50000000000E+03  0.50000000000E+03  0.00000000000E+00 0. -1.
         11   -1    0    0    0    0 -0.00000000000E+00 -0.00000000000E+00 -0.50000000000E+03  0.50000000000E+03  0.00000000000E+00 0. -1.
         23    2    1    2    0    0 -0.61645117486E+02  0.21549544183E+03 -0.42763311812E+03  0.49091443439E+03  0.88817184234E+02 0.  0.
        -11    1    1    2    0    0  0.39567931784E+02 -0.22833362795E+03  0.42412764211E+03  0.48330748358E+03  0.00000000000E+00 0. -1.
         11    1    1    2    0    0  0.22077185702E+02  0.12838186123E+02  0.35054760105E+01  0.25778082037E+02  0.00000000000E+00 0. -1.
        -15    1    3    3    0    0 -0.54601087637E+02  0.62973899342E+02 -0.10583132263E+03  0.13472348477E+03  0.17770000000E+01 0.  1.
         15    1    3    3    0    0 -0.70440298486E+01  0.15252154248E+03 -0.32180179549E+03  0.35619094962E+03  0.17770000000E+01 0. -1.
</event>
<event>
 7    1  0.2288857E-006  0.4072777E+03  0.7546771E-02  0.9635139E-01
        -11   -1    0    0    0    0  0.00000000000E+00  0.00000000000E+00  0.50000000000E+03  0.50000000000E+03  0.00000000000E+00 0.  1.
         11   -1    0    0    0    0 -0.00000000000E+00 -0.00000000000E+00 -0.50000000000E+03  0.50000000000E+03  0.00000000000E+00 0.  1.
         23    2    1    2    0    0 -0.77671210507E+02 -0.12653988439E+03  0.20468159297E+02  0.17177026677E+03  0.83910188410E+02 0.  0.
        -11    1    1    2    0    0  0.10270776127E+01  0.10394157429E+03  0.39330623480E+03  0.40681039820E+03  0.00000000000E+00 0.  1.
         11    1    1    2    0    0  0.76644132894E+02  0.22598310100E+02 -0.41377439409E+03  0.42141933503E+03  0.00000000000E+00 0.  1.
        -15    1    3    3    0    0 -0.24624399460E+02 -0.28140856197E+02 -0.31081740304E+02  0.48656974275E+02  0.17770000000E+01 0. -1.
         15    1    3    3    0    0 -0.53046811046E+02 -0.98399028195E+02  0.51549899601E+02  0.12311329250E+03  0.17770000000E+01 0.  1.
</event>
<event>
 7    1  0.2288857E-006  0.4687093E+03  0.7546771E-02  0.9472683E-01
        -11   -1    0    0    0    0  0.00000000000E+00  0.00000000000E+00  0.50000000000E+03  0.50000000000E+03  0.00000000000E+00 0. -1.
         11   -1    0    0    0    0 -0.00000000000E+00 -0.00000000000E+00 -0.50000000000E+03  0.50000000000E+03  0.00000000000E+00 0.  1.
         23    2    1    2    0    0 -0.54914802365E+02 -0.32917413729E+02  0.46042191756E+03  0.47420396846E+03  0.93711631561E+02 0.  0.
        -11    1    1    2    0    0 -0.65739310012E+02 -0.46099776766E+01 -0.21917555164E+02  0.69449895604E+02  0.00000000000E+00 0. -1.
         11    1    1    2    0    0  0.12065411238E+03  0.37527391406E+02 -0.43850436240E+03  0.45634613593E+03  0.00000000000E+00 0.  1.
        -15    1    3    3    0    0  0.23102020364E+02  0.22444541388E+01  0.52978983048E+02  0.57867705096E+02  0.17770000000E+01 0.  1.
         15    1    3    3    0    0 -0.78016822729E+02 -0.35161867868E+02  0.40744293451E+03  0.41633626337E+03  0.17770000000E+01 0. -1.
</event>
<event>
 7    1  0.2288857E-006  0.5138996E+03  0.7546771E-02  0.9369234E-01
        -11   -1    0    0    0    0  0.00000000000E+00  0.00000000000E+00  0.50000000000E+03  0.50000000000E+03  0.00000000000E+00 0. -1.
         11   -1    0    0    0    0 -0.00000000000E+00 -0.00000000000E+00 -0.50000000000E+03  0.50000000000E+03  0.00000000000E+00 0. -1.
         23    2    1    2    0    0  0.31695172740E+02 -0.21729965106E+02 -0.15925719473E+03  0.18925891217E+03  0.94759202211E+02 0.  0.
        -11    1    1    2    0    0 -0.29007769412E+02  0.81267217568E+02  0.47838042852E+03  0.48610044818E+03  0.00000000000E+00 0. -1.
         11    1    1    2    0    0 -0.26874033280E+01 -0.59537252462E+02 -0.31912323378E+03  0.32464063964E+03  0.00000000000E+00 0. -1.
        -15    1    3    3    0    0 -0.28011306981E+02  0.15207914747E+02 -0.45930923986E+02  0.55934975615E+02  0.17770000000E+01 0.  1.
         15    1    3    3    0    0  0.59706479721E+02 -0.36937879853E+02 -0.11332627075E+03  0.13332393656E+03  0.17770000000E+01 0. -1.
</event>
<event>
 7    1  0.2288857E-006  0.5108910E+03  0.7546771E-02  0.9375765E-01
        -11   -1    0    0    0    0  0.00000000000E+00  0.00000000000E+00  0.50000000000E+03  0.50000000000E+03  0.00000000000E+00 0. -1.
         11   -1    0    0    0    0 -0.00000000000E+00 -0.00000000000E+00 -0.50000000000E+03  0.50000000000E+03  0.00000000000E+00 0. -1.
         23    2    1    2    0    0 -0.87302674769E+02 -0.20123609956E+03 -0.23827558890E+03  0.33655467510E+03  0.91520862526E+02 0.  0.
        -11    1    1    2    0    0  0.17210396876E+03  0.25313964363E+03  0.38148148628E+03  0.48910896497E+03  0.00000000000E+00 0. -1.
         11    1    1    2    0    0 -0.84801293994E+02 -0.51903544075E+02 -0.14320589737E+03  0.17433635993E+03  0.00000000000E+00 0. -1.
        -15    1    3    3    0    0 -0.72138356180E+02 -0.89001998375E+02 -0.71858453572E+02  0.13524826515E+03  0.17770000000E+01 0.  1.
         15    1    3    3    0    0 -0.15164318589E+02 -0.11223410118E+03 -0.16641713533E+03  0.20130640995E+03  0.17770000000E+01 0. -1.
</event>
<event>
 7    1  0.2288857E-006  0.5015623E+03  0.7546771E-02  0.9396321E-01
        -11   -1    0    0    0    0  0.00000000000E+00  0.00000000000E+00  0.50000000000E+03  0.50000000000E+03  0.00000000000E+00 0. -1.
         11   -1    0    0    0    0 -0.00000000000E+00 -0.00000000000E+00 -0.50000000000E+03  0.50000000000E+03  0.00000000000E+00 0.  1.
         23    2    1    2    0    0  0.13499120831E+03 -0.39590428507E+02  0.46920680043E+03  0.49843765276E+03  0.92168561741E+02 0.  0.
        -11    1    1    2    0    0 -0.53054567226E+02  0.10285808570E+02 -0.50691218496E+02  0.74095779867E+02  0.00000000000E+00 0. -1.
         11    1    1    2    0    0 -0.81936641083E+02  0.29304619937E+02 -0.41851558193E+03  0.42746656737E+03  0.00000000000E+00 0.  1.
        -15    1    3    3    0    0  0.90899147704E+02  0.20232984329E+02  0.28334591180E+03  0.29826178463E+03  0.17770000000E+01 0.  1.
         15    1    3    3    0    0  0.44092060605E+02 -0.59823412836E+02  0.18586088862E+03  0.20017586813E+03  0.17770000000E+01 0. -1.
</event>
<event>
 7    1  0.2288857E-006  0.5229093E+03  0.7546771E-02  0.9349959E-01
        -11   -1    0    0    0    0  0.00000000000E+00  0.00000000000E+00  0.50000000000E+03  0.50000000000E+03  0.00000000000E+00 0.  1.
         11   -1    0    0    0    0 -0.00000000000E+00 -0.00000000000E+00 -0.50000000000E+03  0.50000000000E+03  0.00000000000E+00 0. -1.
         23    2    1    2    0    0  0.83621547539E+02  0.48212804922E+02  0.36027328440E+03  0.38392886105E+03  0.91035669511E+02 0.  0.
        -11    1    1    2    0    0 -0.73745759693E+02  0.50646865577E+02  0.10635800102E+03  0.13898045347E+03  0.00000000000E+00 0.  1.
         11    1    1    2    0    0 -0.98757878461E+01 -0.98859670499E+02 -0.46663128542E+03  0.47709068548E+03  0.00000000000E+00 0. -1.
        -15    1    3    3    0    0 -0.38971110652E+01  0.41444371559E+02  0.79617803883E+02  0.89860869307E+02  0.17770000000E+01 0. -1.
         15    1    3    3    0    0  0.87518658604E+02  0.67684333632E+01  0.28065548052E+03  0.29406799174E+03  0.17770000000E+01 0.  1.
</event>
<event>
 7    1  0.2288857E-006  0.5281042E+03  0.7546771E-02  0.9339031E-01
        -11   -1    0    0    0    0  0.00000000000E+00  0.00000000000E+00  0.50000000000E+03  0.50000000000E+03  0.00000000000E+00 0. -1.
         11   -1    0    0    0    0 -0.00000000000E+00 -0.00000000000E+00 -0.50000000000E+03  0.50000000000E+03  0.00000000000E+00 0.  1.
         23    2    1    2    0    0 -0.11248995387E+03  0.13018316548E+03 -0.22308916323E+03  0.29678640921E+03  0.93336764675E+02 0.  0.
        -11    1    1    2    0    0  0.47453585272E+02 -0.15289441737E+03  0.44391119112E+03  0.47189584785E+03  0.00000000000E+00 0. -1.
         11    1    1    2    0    0  0.65036368596E+02  0.22711251888E+02 -0.22082202788E+03  0.23131774294E+03  0.00000000000E+00 0.  1.
        -15    1    3    3    0    0 -0.34658706998E+02  0.47404135002E+02 -0.15146866002E+03  0.16246319793E+03  0.17770000000E+01 0. -1.
         15    1    3    3    0    0 -0.77831246870E+02  0.82779030483E+02 -0.71620503219E+02  0.13432321128E+03  0.17770000000E+01 0.  1.
</event>
<event>
 7    1  0.2288857E-006  0.3949038E+03  0.7546771E-02  0.9671580E-01
        -11   -1    0    0    0    0  0.00000000000E+00  0.00000000000E+00  0.50000000000E+03  0.50000000000E+03  0.00000000000E+00 0.  1.
         11   -1    0    0    0    0 -0.00000000000E+00 -0.00000000000E+00 -0.50000000000E+03  0.50000000000E+03  0.00000000000E+00 0. -1.
         23    2    1    2    0    0  0.13959217637E+03 -0.84640491303E+02  0.31225445013E+03  0.36364123277E+03  0.89900589911E+02 0.  0.
        -11    1    1    2    0    0 -0.89755606240E+02 -0.16885360853E+03  0.44064822279E+02  0.19623791307E+03  0.00000000000E+00 0.  1.
         11    1    1    2    0    0 -0.49836570133E+02  0.25349409983E+03 -0.35631927241E+03  0.44012085416E+03  0.00000000000E+00 0. -1.
        -15    1    3    3    0    0  0.11344851342E+02  0.17089339952E+02  0.54877800766E+02  0.58612984379E+02  0.17770000000E+01 0. -1.
         15    1    3    3    0    0  0.12824732503E+03 -0.10172983126E+03  0.25737664937E+03  0.30502824839E+03  0.17770000000E+01 0.  1.
</event>
<event>
 7    1  0.2288857E-006  0.3717812E+03  0.7546771E-02  0.9743661E-01
        -11   -1    0    0    0    0  0.00000000000E+00  0.00000000000E+00  0.50000000000E+03  0.50000000000E+03  0.00000000000E+00 0.  1.
         11   -1    0    0    0    0 -0.00000000000E+00 -0.00000000000E+00 -0.50000000000E+03  0.50000000000E+03  0.00000000000E+00 0. -1.
         23    2    1    2    0    0 -0.90780711254E+02  0.16096757788E+03 -0.23705114558E+03  0.31653816876E+03  0.99254561607E+02 0.  0.
        -11    1    1    2    0    0  0.18589170432E+03 -0.33963535599E+02  0.40835820823E+03  0.44996185806E+03  0.00000000000E+00 0.  1.
         11    1    1    2    0    0 -0.95110993063E+02 -0.12700404228E+03 -0.17130706265E+03  0.23349997317E+03  0.00000000000E+00 0. -1.
        -15    1    3    3    0    0 -0.32255284849E+00  0.43333324573E+02 -0.87539604548E+01  0.44245571660E+02  0.17770000000E+01 0.  1.
         15    1    3    3    0    0 -0.90458158405E+02  0.11763425331E+03 -0.22829718512E+03  0.27229259710E+03  0.17770000000E+01 0. -1.
</event>
<event>
 7    1  0.2288857E-006  0.4450117E+03  0.7546771E-02  0.9532024E-01
        -11   -1    0    0    0    0  0.00000000000E+00  0.00000000000E+00  0.50000000000E+03  0.50000000000E+03  0.00000000000E+00 0.  1.
         11   -1    0    0    0    0 -0.00000000000E+00 -0.00000000000E+00 -0.50000000000E+03  0.50000000000E+03  0.00000000000E+00 0. -1.
         23    2    1    2    0    0 -0.98677468558E+02  0.10444741415E+02  0.41600912053E+03  0.43770693999E+03  0.93152785929E+02 0.  0.
        -11    1    1    2    0    0  0.57577972646E+02  0.94911969214E+02  0.19174820015E+02  0.11265513107E+03  0.00000000000E+00 0.  1.
         11    1    1    2    0    0  0.41099495911E+02 -0.10535671063E+03 -0.43518394054E+03  0.44963792894E+03  0.00000000000E+00 0. -1.
        -15    1    3    3    0    0 -0.79813729867E+02  0.38027158722E+02  0.37230853492E+03  0.38266577999E+03  0.17770000000E+01 0.  1.
         15    1    3    3    0    0 -0.18863738691E+02 -0.27582417306E+02  0.43700585609E+02  0.55041159994E+02  0.17770000000E+01 0. -1.
</event>
<event>
 7    1  0.2288857E-006  0.5173981E+03  0.7546771E-02  0.9361700E-01
        -11   -1    0    0    0    0  0.00000000000E+00  0.00000000000E+00  0.50000000000E+03  0.50000000000E+03  0.00000000000E+00 0. -1.
         11   -1    0    0    0    0 -0.00000000000E+00 -0.00000000000E+00 -0.50000000000E+03  0.50000000000E+03  0.00000000000E+00 0.  1.
         23    2    1    2    0    0 -0.48305568000E+02  0.26101764500E+02 -0.18279672474E+03  0.21887521566E+03  0.10713070262E+03 0.  0.
        -11    1    1    2    0    0  0.16603041810E+03  0.24042356829E+02  0.45250462715E+03  0.48260187759E+03  0.00000000000E+00 0. -1.
         11    1    1    2    0    0 -0.11772485010E+03 -0.50144121329E+02 -0.26970790241E+03  0.29852290676E+03  0.00000000000E+00 0.  1.
        -15    1    3    3    0    0 -0.24713017574E+02 -0.30772007582E+02 -0.18919864803E+02  0.43803752139E+02  0.17770000000E+01 0. -1.
         15    1    3    3    0    0 -0.23592550426E+02  0.56873772082E+02 -0.16387685994E+03  0.17507146352E+03  0.17770000000E+01 0.  1.
</event>
<event>
 7    1  0.2288857E-006  0.5317206E+03  0.7546771E-02  0.9331502E-01
        -11   -1    0    0    0    0  0.00000000000E+00  0.00000000000E+00  0.50000000000E+03  0.50000000000E+03  0.00000000000E+00 0.  1.
         11   -1    0    0    0    0 -0.00000000000E+00 -0.00000000000E+00 -0.50000000000E+03  0.50000000000E+03  0.00000000000E+00 0. -1.
         23    2    1    2    0    0 -0.45973378982E+02 -0.66894244508E+02  0.10010897765E+03  0.15767599207E+03  0.90837875062E+02 0.  0.
        -11    1    1    2    0    0 -0.39876980598E+02  0.95983747265E+02  0.35931364049E+03  0.37404457697E+03  0.00000000000E+00 0.  1.
         11    1    1    2    0    0  0.85850359580E+02 -0.29089502758E+02 -0.45942261813E+03  0.46827943096E+03  0.00000000000E+00 0. -1.
        -15    1    3    3    0    0 -0.87144402109E+01 -0.29367840440E+02 -0.12595342211E+02  0.33169442183E+02  0.17770000000E+01 0.  1.
         15    1    3    3    0    0 -0.37258938771E+02 -0.37526404068E+02  0.11270431986E+03  0.12450654989E+03  0.17770000000E+01 0. -1.
</event>
<event>
 7    1  0.2288857E-006  0.3732131E+03  0.7546771E-02  0.9739036E-01
        -11   -1    0    0    0    0  0.00000000000E+00  0.00000000000E+00  0.50000000000E+03  0.50000000000E+03  0.00000000000E+00 0.  1.
         11   -1    0    0    0    0 -0.00000000000E+00 -0.00000000000E+00 -0.50000000000E+03  0.50000000000E+03  0.00000000000E+00 0. -1.
         23    2    1    2    0    0  0.79107004147E+02  0.49029851024E+02  0.29362424441E+03  0.32726433182E+03  0.11056627686E+03 0.  0.
        -11    1    1    2    0    0  0.20447705335E+03 -0.10737229454E+03  0.36300356121E+02  0.23378920171E+03  0.00000000000E+00 0.  1.
         11    1    1    2    0    0 -0.28358405750E+03  0.58342443521E+02 -0.32992460054E+03  0.43894646646E+03  0.00000000000E+00 0. -1.
        -15    1    3    3    0    0  0.10414492966E+03  0.20126893149E+02  0.20893576865E+03  0.23432578038E+03  0.17770000000E+01 0.  1.
         15    1    3    3    0    0 -0.25037925509E+02  0.28902957875E+02  0.84688475767E+02  0.92938551444E+02  0.17770000000E+01 0. -1.
</event>
<event>
 7    1  0.2288857E-006  0.4488835E+03  0.7546771E-02  0.9522063E-01
        -11   -1    0    0    0    0  0.00000000000E+00  0.00000000000E+00  0.50000000000E+03  0.50000000000E+03  0.00000000000E+00 0.  1.
         11   -1    0    0    0    0 -0.00000000000E+00 -0.00000000000E+00 -0.50000000000E+03  0.50000000000E+03  0.00000000000E+00 0. -1.
         23    2    1    2    0    0  0.10966258192E+00 -0.35883503506E+02  0.23050554818E+02  0.10122054770E+03  0.91796695740E+02 0.  0.
        -11    1    1    2    0    0 -0.81680251812E+02  0.95745785976E+02  0.42303733985E+03  0.44136097469E+03  0.00000000000E+00 0.  1.
         11    1    1    2    0    0  0.81570589230E+02 -0.59862282470E+02 -0.44608789467E+03  0.45741847761E+03  0.00000000000E+00 0. -1.
        -15    1    3    3    0    0 -0.25866174882E+02 -0.84009079424E+01 -0.27067314894E+02  0.38411346265E+02  0.17770000000E+01 0.  1.
         15    1    3    3    0    0  0.25975837464E+02 -0.27482595563E+02  0.50117869713E+02  0.62809201431E+02  0.17770000000E+01 0. -1.
</event>
<event>
 7    1  0.2288857E-006  0.5106375E+03  0.7546771E-02  0.9376317E-01
        -11   -1    0    0    0    0  0.00000000000E+00  0.00000000000E+00  0.50000000000E+03  0.50000000000E+03  0.00000000000E+00 0. -1.
         11   -1    0    0    0    0 -0.00000000000E+00 -0.00000000000E+00 -0.50000000000E+03  0.50000000000E+03  0.00000000000E+00 0.  1.
         23    2    1    2    0    0 -0.12520848161E+03 -0.84977592730E+02  0.33828266359E+03  0.38171917324E+03  0.91520552885E+02 0.  0.
        -11    1    1    2    0    0 -0.74411049023E+01 -0.74524947413E+02  0.10493138290E+03  0.12891831889E+03  0.00000000000E+00 0. -1.
         11    1    1    2    0    0  0.13264958651E+03  0.15950254014E+03 -0.44321404648E+03  0.48936250787E+03  0.00000000000E+00 0.  1.
        -15    1    3    3    0    0 -0.57061137295E+02 -0.84753117473E+02  0.25074713901E+03  0.27076992034E+03  0.17770000000E+01 0.  1.
         15    1    3    3    0    0 -0.68147344313E+02 -0.22447525701E+00  0.87535524573E+02  0.11094925289E+03  0.17770000000E+01 0. -1.
</event>
<event>
 7    1  0.2288857E-006  0.5148086E+03  0.7546771E-02  0.9367271E-01
        -11   -1    0    0    0    0  0.00000000000E+00  0.00000000000E+00  0.50000000000E+03  0.50000000000E+03  0.00000000000E+00 0.  1.
         11   -1    0    0    0    0 -0.00000000000E+00 -0.00000000000E+00 -0.50000000000E+03  0.50000000000E+03  0.00000000000E+00 0. -1.
         23    2    1    2    0    0 -0.18104429781E+00  0.12646185322E+03 -0.22414421255E+03  0.27293860020E+03  0.90896745609E+02 0.  0.
        -11    1    1    2    0    0 -0.90216427655E+02 -0.28769380783E+03  0.38013673038E+03  0.48519136912E+03  0.00000000000E+00 0.  1.
         11    1    1    2    0    0  0.90397471953E+02  0.16123195461E+03 -0.15599251783E+03  0.24187003069E+03  0.00000000000E+00 0. -1.
        -15    1    3    3    0    0  0.39485132216E+02  0.10059436487E+03 -0.16307082148E+03  0.19563627592E+03  0.17770000000E+01 0. -1.
         15    1    3    3    0    0 -0.39666176514E+02  0.25867488348E+02 -0.61073391066E+02  0.77302324273E+02  0.17770000000E+01 0.  1.
</event>
<event>
 7    1  0.2288857E-006  0.5167972E+03  0.7546771E-02  0.9362990E-01
        -11   -1    0    0    0    0  0.00000000000E+00  0.00000000000E+00  0.50000000000E+03  0.50000000000E+03  0.00000000000E+00 0.  1.
         11   -1    0    0    0    0 -0.00000000000E+00 -0.00000000000E+00 -0.50000000000E+03  0.50000000000E+03  0.00000000000E+00 0. -1.
         23    2    1    2    0    0  0.55030069479E+01  0.44751172526E+02  0.33425281748E+03  0.35056068862E+03  0.95576670184E+02 0.  0.
        -11    1    1    2    0    0  0.44656501232E+02  0.10209844783E+03  0.12335422622E+03  0.16623646194E+03  0.00000000000E+00 0.  1.
         11    1    1    2    0    0 -0.50159508180E+02 -0.14684962036E+03 -0.45760704370E+03  0.48320284944E+03  0.00000000000E+00 0. -1.
        -15    1    3    3    0    0  0.18001501170E+02  0.54781167795E+02  0.32836715547E+03  0.33339642606E+03  0.17770000000E+01 0.  1.
         15    1    3    3    0    0 -0.12498494223E+02 -0.10029995268E+02  0.58856620122E+01  0.17164262560E+02  0.17770000000E+01 0. -1.
</event>
<event>
 7    1  0.2288857E-006  0.3827561E+03  0.7546771E-02  0.9708770E-01
        -11   -1    0    0    0    0  0.00000000000E+00  0.00000000000E+00  0.50000000000E+03  0.50000000000E+03  0.00000000000E+00 0.  1.
         11   -1    0    0    0    0 -0.00000000000E+00 -0.00000000000E+00 -0.50000000000E+03  0.50000000000E+03  0.00000000000E+00 0. -1.
         23    2    1    2    0    0  0.23452236698E+03  0.76701062039E+02  0.24120549798E+03  0.35604587089E+03  0.87776855675E+02 0.  0.
        -11    1    1    2    0    0 -0.11634292091E+03 -0.57879961074E+02  0.17097599523E+03  0.21475231334E+03  0.00000000000E+00 0.  1.
         11    1    1    2    0    0 -0.11817944606E+03 -0.18821100964E+02 -0.41218149321E+03  0.42920181577E+03  0.00000000000E+00 0. -1.
        -15    1    3    3    0    0  0.10581027546E+03 -0.10465830838E+02  0.10262685199E+03  0.14778625270E+03  0.17770000000E+01 0.  1.
         15    1    3    3    0    0  0.12871209152E+03  0.87166892877E+02  0.13857864599E+03  0.20825961819E+03  0.17770000000E+01 0. -1.
</event>
<event>
 7    1  0.2288857E-006  0.4576026E+03  0.7546771E-02  0.9500018E-01
        -11   -1    0    0    0    0  0.00000000000E+00  0.00000000000E+00  0.50000000000E+03  0.50000000000E+03  0.00000000000E+00 0. -1.
         11   -1    0    0    0    0 -0.00000000000E+00 -0.00000000000E+00 -0.50000000000E+03  0.50000000000E+03  0.00000000000E+00 0.  1.
         23    2    1    2    0    0  0.52870151568E+02  0.60715934545E+02  0.42152635925E+03  0.43847661642E+03  0.89975518726E+02 0.  0.
        -11    1    1    2    0    0  0.28979915494E+02  0.81819289761E+02  0.21131507543E+02  0.89335168272E+02  0.00000000000E+00 0. -1.
         11    1    1    2    0    0 -0.81850067062E+02 -0.14253522431E+03 -0.44265786679E+03  0.47218821531E+03  0.00000000000E+00 0.  1.
        -15    1    3    3    0    0  0.20789239743E+02  0.66509793610E+02  0.37627431380E+03  0.38267644570E+03  0.17770000000E+01 0. -1.
         15    1    3    3    0    0  0.32080911825E+02 -0.57938590656E+01  0.45252045445E+02  0.55800170720E+02  0.17770000000E+01 0.  1.
</event>
<event>
 7    1  0.2288857E-006  0.5263836E+03  0.7546771E-02  0.9342636E-01
        -11   -1    0    0    0    0  0.00000000000E+00  0.00000000000E+00  0.50000000000E+03  0.50000000000E+03  0.00000000000E+00 0.  1.
         11   -1    0    0    0    0 -0.00000000000E+00 -0.00000000000E+00 -0.50000000000E+03  0.50000000000E+03  0.00000000000E+00 0. -1.
         23    2    1    2    0    0  0.33182457473E+02 -0.12814961704E+03  0.20401036278E+03  0.25931532076E+03  0.90004486698E+02 0.  0.
        -11    1    1    2    0    0  0.49138574355E+02 -0.25514675675E+03  0.61733213252E+02  0.26706826204E+03  0.00000000000E+00 0.  1.
         11    1    1    2    0    0 -0.82321031827E+02  0.38329637379E+03 -0.26574357603E+03  0.47361641720E+03  0.00000000000E+00 0. -1.
        -15    1    3    3    0    0  0.25789731037E+01  0.12184852683E+02  0.42666017410E+01  0.13284703858E+02  0.17770000000E+01 0. -1.
         15    1    3    3    0    0  0.30603484369E+02 -0.14033446973E+03  0.19974376104E+03  0.24603061690E+03  0.17770000000E+01 0.  1.
</event>
<event>
 7    1  0.2288857E-006  0.5250211E+03  0.7546771E-02  0.9345500E-01
        -11   -1    0    0    0    0  0.00000000000E+00  0.00000000000E+00  0.50000000000E+03  0.50000000000E+03  0.00000000000E+00 0.  1.
         11   -1    0    0    0    0 -0.00000000000E+00 -0.00000000000E+00 -0.50000000000E+03  0.50000000000E+03  0.00000000000E+00 0. -1.
         23    2    1    2    0    0  0.12889911642E+03 -0.30614077764E+02 -0.30772007672E+03  0.34693385596E+03  0.90106885546E+02 0.  0.
        -11    1    1    2    0    0 -0.10408958021E+03 -0.58874984591E+02  0.45967818636E+03  0.47497888325E+03  0.00000000000E+00 0.  1.
         11    1    1    2    0    0 -0.24809536213E+02  0.89489062355E+02 -0.15195810964E+03  0.17808726079E+03  0.00000000000E+00 0. -1.
        -15    1    3    3    0    0  0.99721766569E+02 -0.59576839000E+02 -0.25361778926E+03  0.27896051913E+03  0.17770000000E+01 0. -1.
         15    1    3    3    0    0  0.29177349855E+02  0.28962761236E+02 -0.54102287457E+02  0.67973336832E+02  0.17770000000E+01 0.  1.
</event>
<event>
 7    1  0.2288857E-006  0.4123710E+03  0.7546771E-02  0.9620538E-01
        -11   -1    0    0    0    0  0.00000000000E+00  0.00000000000E+00  0.50000000000E+03  0.50000000000E+03  0.00000000000E+00 0.  1.
         11   -1    0    0    0    0 -0.00000000000E+00 -0.00000000000E+00 -0.50000000000E+03  0.50000000000E+03  0.00000000000E+00 0. -1.
         23    2    1    2    0    0 -0.32359487088E+03 -0.15165145860E+03 -0.14400231736E+03  0.39576687336E+03  0.90459633489E+02 0.  0.
        -11    1    1    2    0    0  0.32648466265E+03  0.57582478172E+02  0.28332792481E+03  0.43609940347E+03  0.00000000000E+00 0.  1.
         11    1    1    2    0    0 -0.28897917676E+01  0.94068980425E+02 -0.13932560745E+03  0.16813372317E+03  0.00000000000E+00 0. -1.
        -15    1    3    3    0    0 -0.25367066709E+03 -0.15419289410E+03 -0.13142195469E+03  0.32465234303E+03  0.17770000000E+01 0. -1.
         15    1    3    3    0    0 -0.69924203792E+02  0.25414355027E+01 -0.12580362671E+02  0.71114530332E+02  0.17770000000E+01 0.  1.
</event>
<event>
 7    1  0.2288857E-006  0.3787053E+03  0.7546771E-02  0.9721501E-01
        -11   -1    0    0    0    0  0.00000000000E+00  0.00000000000E+00  0.50000000000E+03  0.50000000000E+03  0.00000000000E+00 0.  1.
         11   -1    0    0    0    0 -0.00000000000E+00 -0.00000000000E+00 -0.50000000000E+03  0.50000000000E+03  0.00000000000E+00 0.  1.
         23    2    1    2    0    0  0.11014028492E+03 -0.67496122389E+02  0.33029025644E+03  0.36563940153E+03  0.88960157104E+02 0.  0.
        -11    1    1    2    0    0 -0.18091642612E+03  0.10244890708E+03  0.75326154643E+02  0.22113471319E+03  0.00000000000E+00 0.  1.
         11    1    1    2    0    0  0.70776141200E+02 -0.34952784696E+02 -0.40561641109E+03  0.41322588528E+03  0.00000000000E+00 0.  1.
        -15    1    3    3    0    0 -0.14774332510E+02 -0.12501884714E+02  0.29491527017E+02  0.35319766666E+02  0.17770000000E+01 0.  1.
         15    1    3    3    0    0  0.12491461743E+03 -0.54994237674E+02  0.30079872943E+03  0.33031963487E+03  0.17770000000E+01 0. -1.
</event>
<event>
 7    1  0.2288857E-006  0.5192600E+03  0.7546771E-02  0.9357716E-01
        -11   -1    0    0    0    0  0.00000000000E+00  0.00000000000E+00  0.50000000000E+03  0.50000000000E+03  0.00000000000E+00 0. -1.
         11   -1    0    0    0    0 -0.00000000000E+00 -0.00000000000E+00 -0.50000000000E+03  0.50000000000E+03  0.00000000000E+00 0.  1.
         23    2    1    2    0    0  0.86688421272E+02 -0.64482219218E+02 -0.16256164882E+03  0.21706422116E+03  0.94961821093E+02 0.  0.
        -11    1    1    2    0    0 -0.65526268570E+02  0.18647395935E+03  0.43822901606E+03  0.48073995039E+03  0.00000000000E+00 0. -1.
         11    1    1    2    0    0 -0.21162152702E+02 -0.12199174013E+03 -0.27566736724E+03  0.30219582844E+03  0.00000000000E+00 0.  1.
        -15    1    3    3    0    0  0.87914059212E+02 -0.24657337454E+02 -0.14933363412E+03  0.17504444608E+03  0.17770000000E+01 0. -1.
         15    1    3    3    0    0 -0.12256379392E+01 -0.39824881763E+02 -0.13228014701E+02  0.42019775080E+02  0.17770000000E+01 0.  1.
</event>
<event>
 7    1  0.2288857E-006  0.5167913E+03  0.7546771E-02  0.9363002E-01
        -11   -1    0    0    0    0  0.00000000000E+00  0.00000000000E+00  0.50000000000E+03  0.50000000000E+03  0.00000000000E+00 0.  1.
         11   -1    0    0    0    0 -0.00000000000E+00 -0.00000000000E+00 -0.50000000000E+03  0.50000000000E+03  0.00000000000E+00 0. -1.
         23    2    1    2    0    0 -0.84985443661E+02  0.10621091724E+03  0.22014167421E+03  0.27454691609E+03  0.91708057622E+02 0.  0.
        -11    1    1    2    0    0 -0.43175178838E+02  0.19797548490E+03  0.13275516027E+03  0.24224434207E+03  0.00000000000E+00 0.  1.
         11    1    1    2    0    0  0.12816062250E+03 -0.30418640214E+03 -0.35289683448E+03  0.48320874184E+03  0.00000000000E+00 0. -1.
        -15    1    3    3    0    0 -0.85885189022E+02  0.11922104113E+03  0.21499457738E+03  0.26041457020E+03  0.17770000000E+01 0.  1.
         15    1    3    3    0    0  0.89974536094E+00 -0.13010123891E+02  0.51470968275E+01  0.14132345882E+02  0.17770000000E+01 0. -1.
</event>
<event>
 7    1  0.2288857E-006  0.5106401E+03  0.7546771E-02  0.9376311E-01
        -11   -1    0    0    0    0  0.00000000000E+00  0.00000000000E+00  0.50000000000E+03  0.50000000000E+03  0.00000000000E+00 0. -1.
         11   -1    0    0    0    0 -0.00000000000E+00 -0.00000000000E+00 -0.50000000000E+03  0.50000000000E+03  0.00000000000E+00 0.  1.
         23    2    1    2    0    0 -0.63176835712E+02  0.13330979861E+02  0.25487621583E+03  0.27817974056E+03  0.90846326670E+02 0.  0.
        -11    1    1    2    0    0 -0.11264014960E+03  0.47327304113E+02  0.19776281631E+03  0.23246033754E+03  0.00000000000E+00 0. -1.
         11    1    1    2    0    0  0.17581698531E+03 -0.60658283974E+02 -0.45263903214E+03  0.48935992189E+03  0.00000000000E+00 0.  1.
        -15    1    3    3    0    0 -0.76071538307E+02  0.34780296634E+02  0.21867960727E+03  0.23413772942E+03  0.17770000000E+01 0. -1.
         15    1    3    3    0    0  0.12894702596E+02 -0.21449316773E+02  0.36196608559E+02  0.44042011140E+02  0.17770000000E+01 0.  1.
</event>
<event>
 7    1  0.2288857E-006  0.5137171E+03  0.7546771E-02  0.9369629E-01
        -11   -1    0    0    0    0  0.00000000000E+00  0.00000000000E+00  0.50000000000E+03  0.50000000000E+03  0.00000000000E+00 0.  1.
         11   -1    0    0    0    0 -0.00000000000E+00 -0.00000000000E+00 -0.50000000000E+03  0.50000000000E+03  0.00000000000E+00 0. -1.
         23    2    1    2    0    0  0.33389438427E+02 -0.47526503671E+02 -0.27328690900E+03  0.29397371095E+03  0.91439515248E+02 0.  0.
        -11    1    1    2    0    0  0.32996262687E+02  0.11760918407E+03  0.47069137149E+03  0.48628288138E+03  0.00000000000E+00 0.  1.
         11    1    1    2    0    0 -0.66385701114E+02 -0.70082680401E+02 -0.19740446248E+03  0.21974340767E+03  0.00000000000E+00 0. -1.
        -15    1    3    3    0    0  0.13437925116E+02  0.21142135190E+02 -0.24414198546E+02  0.35025398377E+02  0.17770000000E+01 0.  1.
         15    1    3    3    0    0  0.19951513311E+02 -0.68668638860E+02 -0.24887271046E+03  0.25894831258E+03  0.17770000000E+01 0. -1.
</event>
<event>
 6    1  0.2288857E-006  0.4629890E+03  0.7546771E-02  0.9486659E-01
        -11   -1    0    0    0    0  0.00000000000E+00  0.00000000000E+00  0.50000000000E+03  0.50000000000E+03  0.00000000000E+00 0.  1.
         11   -1    0    0    0    0 -0.00000000000E+00 -0.00000000000E+00 -0.50000000000E+03  0.50000000000E+03  0.00000000000E+00 0. -1.
        -11    1    1    2    0    0  0.51052832763E+02 -0.66914664258E+02  0.82900640786E+02  0.11813754809E+03  0.00000000000E+00 0.  1.
         11    1    1    2    0    0  0.10887256888E+03  0.54294390035E+02 -0.42836526352E+03  0.44530654165E+03  0.00000000000E+00 0. -1.
        -15    1    1    2    0    0  0.28625896735E+02 -0.21543963131E+02 -0.58798178643E+01  0.36349887185E+02  0.17770000000E+01 0. -1.
         15    1    1    2    0    0 -0.18855129838E+03  0.34164237354E+02  0.35134444060E+03  0.40020602307E+03  0.17770000000E+01 0.  1.
</event>
<event>
 7    1  0.2288857E-006  0.5296985E+03  0.7546771E-02  0.9335704E-01
        -11   -1    0    0    0    0  0.00000000000E+00  0.00000000000E+00  0.50000000000E+03  0.50000000000E+03  0.00000000000E+00 0.  1.
         11   -1    0    0    0    0 -0.00000000000E+00 -0.00000000000E+00 -0.50000000000E+03  0.50000000000E+03  0.00000000000E+00 0.  1.
         23    2    1    2    0    0  0.95892385959E+01 -0.42695758375E+02 -0.71113187749E+02  0.13918430875E+03  0.11135665696E+03 0.  0.
        -11    1    1    2    0    0  0.19774509596E+02  0.14713637945E+03  0.44625482599E+03  0.47030151510E+03  0.00000000000E+00 0.  1.
         11    1    1    2    0    0 -0.29363748192E+02 -0.10444062107E+03 -0.37514163824E+03  0.39051417615E+03  0.00000000000E+00 0.  1.
        -15    1    3    3    0    0  0.50716013444E+02 -0.28039222578E+02 -0.27426861552E+01  0.58043019208E+02  0.17770000000E+01 0.  1.
         15    1    3    3    0    0 -0.41126774849E+02 -0.14656535797E+02 -0.68370501593E+02  0.81141289540E+02  0.17770000000E+01 0. -1.
</event>
<event>
 7    1  0.2288857E-006  0.5155189E+03  0.7546771E-02  0.9365739E-01
        -11   -1    0    0    0    0  0.00000000000E+00  0.00000000000E+00  0.50000000000E+03  0.50000000000E+03  0.00000000000E+00 0.  1.
         11   -1    0    0    0    0 -0.00000000000E+00 -0.00000000000E+00 -0.50000000000E+03  0.50000000000E+03  0.00000000000E+00 0.  1.
         23    2    1    2    0    0  0.88260832083E+02 -0.25364847009E+02 -0.22929326093E+03  0.26343279446E+03  0.91586504178E+02 0.  0.
        -11    1    1    2    0    0 -0.58175318343E+02  0.53735545161E+02  0.47796448291E+03  0.48448108673E+03  0.00000000000E+00 0.  1.
         11    1    1    2    0    0 -0.30085513740E+02 -0.28370698152E+02 -0.24867122198E+03  0.25208611880E+03  0.00000000000E+00 0.  1.
        -15    1    3    3    0    0  0.86111196363E+02  0.63166067786E+01 -0.10932433559E+03  0.13931979666E+03  0.17770000000E+01 0. -1.
         15    1    3    3    0    0  0.21496357201E+01 -0.31681453788E+02 -0.11996892534E+03  0.12411299780E+03  0.17770000000E+01 0.  1.
</event>
<event>
 7    1  0.2412102E-006  0.5157161E+03  0.7546771E-02  0.9365315E-01
        -11   -1    0    0    0    0  0.00000000000E+00  0.00000000000E+00  0.50000000000E+03  0.50000000000E+03  0.00000000000E+00 0.  1.
         11   -1    0    0    0    0 -0.00000000000E+00 -0.00000000000E+00 -0.50000000000E+03  0.50000000000E+03  0.00000000000E+00 0. -1.
         23    2    1    2    0    0 -0.10081793118E+03  0.17681296231E+02 -0.27507943088E+03  0.31693474189E+03  0.11959119465E+03 0.  0.
        -11    1    1    2    0    0  0.12689159584E+03  0.29388057407E+02  0.46643946500E+03  0.48428391417E+03  0.00000000000E+00 0.  1.
         11    1    1    2    0    0 -0.26073664666E+02 -0.47069353638E+02 -0.19136003412E+03  0.19878134394E+03  0.00000000000E+00 0. -1.
        -15    1    3    3    0    0 -0.87409225171E+02 -0.40262651324E+02 -0.14700249307E+03  0.17571096845E+03  0.17770000000E+01 0.  1.
         15    1    3    3    0    0 -0.13408706008E+02  0.57943947555E+02 -0.12807693781E+03  0.14122377343E+03  0.17770000000E+01 0. -1.
</event>
<event>
 7    1  0.2288857E-006  0.4315233E+03  0.7546771E-02  0.9567587E-01
        -11   -1    0    0    0    0  0.00000000000E+00  0.00000000000E+00  0.50000000000E+03  0.50000000000E+03  0.00000000000E+00 0.  1.
         11   -1    0    0    0    0 -0.00000000000E+00 -0.00000000000E+00 -0.50000000000E+03  0.50000000000E+03  0.00000000000E+00 0. -1.
         23    2    1    2    0    0 -0.56635426991E+02  0.24081661633E+01  0.38192424115E+03  0.39658092407E+03  0.90536912375E+02 0.  0.
        -11    1    1    2    0    0  0.69197474605E+02  0.88235176689E+02  0.76634804067E+02  0.13581837170E+03  0.00000000000E+00 0.  1.
         11    1    1    2    0    0 -0.12562047614E+02 -0.90643342852E+02 -0.45855904522E+03  0.46760070423E+03  0.00000000000E+00 0. -1.
        -15    1    3    3    0    0 -0.19099766737E+02 -0.39771945777E+02  0.10420421443E+03  0.11317369303E+03  0.17770000000E+01 0. -1.
         15    1    3    3    0    0 -0.37535660254E+02  0.42180111940E+02  0.27772002672E+03  0.28340723104E+03  0.17770000000E+01 0.  1.
</event>
<event>
 7    1  0.2288857E-006  0.5426409E+03  0.7546771E-02  0.9309148E-01
        -11   -1    0    0    0    0  0.00000000000E+00  0.00000000000E+00  0.50000000000E+03  0.50000000000E+03  0.00000000000E+00 0.  1.
         11   -1    0    0    0    0 -0.00000000000E+00 -0.00000000000E+00 -0.50000000000E+03  0.50000000000E+03  0.00000000000E+00 0.  1.
         23    2    1    2    0    0 -0.10035059475E+02  0.51755526589E+02  0.25851058049E+03  0.28049395494E+03  0.95235505887E+02 0.  0.
        -11    1    1    2    0    0  0.91225737527E+02 -0.17244941940E+03  0.17510026848E+03  0.26214698446E+03  0.00000000000E+00 0.  1.
         11    1    1    2    0    0 -0.81190678052E+02  0.12069389282E+03 -0.43361084897E+03  0.45735906060E+03  0.00000000000E+00 0.  1.
        -15    1    3    3    0    0  0.15903129021E+02  0.66087999419E+02  0.11215798939E+03  0.13116060953E+03  0.17770000000E+01 0.  1.
         15    1    3    3    0    0 -0.25938188496E+02 -0.14332472830E+02  0.14635259111E+03  0.14933334541E+03  0.17770000000E+01 0. -1.
</event>
<event>
 7    1  0.2288857E-006  0.4207278E+03  0.7546771E-02  0.9597065E-01
        -11   -1    0    0    0    0  0.00000000000E+00  0.00000000000E+00  0.50000000000E+03  0.50000000000E+03  0.00000000000E+00 0.  1.
         11   -1    0    0    0    0 -0.00000000000E+00 -0.00000000000E+00 -0.50000000000E+03  0.50000000000E+03  0.00000000000E+00 0. -1.
         23    2    1    2    0    0  0.28301027416E+02 -0.55395203691E+02  0.10017214964E+03  0.15032274980E+03  0.93235684146E+02 0.  0.
        -11    1    1    2    0    0 -0.24353768918E+03  0.47299921561E+02  0.30358535866E+03  0.39206116694E+03  0.00000000000E+00 0.  1.
         11    1    1    2    0    0  0.21523666176E+03  0.80952821301E+01 -0.40375750830E+03  0.45761608327E+03  0.00000000000E+00 0. -1.
        -15    1    3    3    0    0  0.43944508630E+02 -0.21383133412E+01  0.11189404921E+02  0.45431847136E+02  0.17770000000E+01 0. -1.
         15    1    3    3    0    0 -0.15643481214E+02 -0.53256890350E+02  0.88982744720E+02  0.10489090266E+03  0.17770000000E+01 0.  1.
</event>
<event>
 7    1  0.2288857E-006  0.5186429E+03  0.7546771E-02  0.9359035E-01
        -11   -1    0    0    0    0  0.00000000000E+00  0.00000000000E+00  0.50000000000E+03  0.50000000000E+03  0.00000000000E+00 0. -1.
         11   -1    0    0    0    0 -0.00000000000E+00 -0.00000000000E+00 -0.50000000000E+03  0.50000000000E+03  0.00000000000E+00 0. -1.
         23    2    1    2    0    0  0.12102181193E+03 -0.30078406114E+01 -0.16124834117E+03  0.21527904129E+03  0.75423550841E+02 0.  0.
        -11    1    1    2    0    0 -0.13095415903E+03  0.55618115241E+02  0.45985030331E+03  0.48135711064E+03  0.00000000000E+00 0. -1.
         11    1    1    2    0    0  0.99323471001E+01 -0.52610274630E+02 -0.29860196215E+03  0.30336384807E+03  0.00000000000E+00 0. -1.
        -15    1    3    3    0    0  0.24518722832E+02  0.31653317321E+02 -0.45333803851E+02  0.60509600621E+02  0.17770000000E+01 0.  1.
         15    1    3    3    0    0  0.96503089097E+02 -0.34661157932E+02 -0.11591453731E+03  0.15476944067E+03  0.17770000000E+01 0. -1.
</event>
<event>
 7    1  0.2288857E-006  0.3170550E+03  0.7546771E-02  0.9939253E-01
        -11   -1    0    0    0    0  0.00000000000E+00  0.00000000000E+00  0.50000000000E+03  0.50000000000E+03  0.00000000000E+00 0. -1.
         11   -1    0    0    0    0 -0.00000000000E+00 -0.00000000000E+00 -0.50000000000E+03  0.50000000000E+03  0.00000000000E+00 0. -1.
         23    2    1    2    0    0 -0.46831369663E+02  0.17807636999E+03  0.25988720835E+03  0.33115028742E+03  0.90635429387E+02 0.  0.
        -11    1    1    2    0    0 -0.13526186280E+02 -0.36076948939E+03 -0.20334415916E+02  0.36159517511E+03  0.00000000000E+00 0. -1.
         11    1    1    2    0    0  0.60357555943E+02  0.18269311940E+03 -0.23955279243E+03  0.30725453747E+03  0.00000000000E+00 0. -1.
        -15    1    3    3    0    0  0.25023935661E+02  0.46797253698E+02  0.92103749739E+02  0.10631292845E+03  0.17770000000E+01 0.  1.
         15    1    3    3    0    0 -0.71855305324E+02  0.13127911630E+03  0.16778345861E+03  0.22483735898E+03  0.17770000000E+01 0. -1.
</event>
<event>
 7    1  0.2288857E-006  0.5201972E+03  0.7546771E-02  0.9355718E-01
        -11   -1    0    0    0    0  0.00000000000E+00  0.00000000000E+00  0.50000000000E+03  0.50000000000E+03  0.00000000000E+00 0.  1.
         11   -1    0    0    0    0 -0.00000000000E+00 -0.00000000000E+00 -0.50000000000E+03  0.50000000000E+03  0.00000000000E+00 0.  1.
         23    2    1    2    0    0 -0.25688497297E+03  0.11108991848E+03  0.37877393456E+03  0.47980282034E+03  0.91707107563E+02 0.  0.
        -11    1    1    2    0    0  0.19063728031E+03  0.49621471824E+01 -0.11029324518E+03  0.22029933154E+03  0.00000000000E+00 0.  1.
         11    1    1    2    0    0  0.66247692663E+02 -0.11605206566E+03 -0.26848068939E+03  0.29989784811E+03  0.00000000000E+00 0.  1.
        -15    1    3    3    0    0 -0.86766017932E+02  0.14337625626E+02  0.62625364912E+02  0.10797686528E+03  0.17770000000E+01 0. -1.
         15    1    3    3    0    0 -0.17011895504E+03  0.96752292856E+02  0.31614856965E+03  0.37182595506E+03  0.17770000000E+01 0.  1.
</event>
<event>
 7    1  0.2288857E-006  0.5276579E+03  0.7546771E-02  0.9339964E-01
        -11   -1    0    0    0    0  0.00000000000E+00  0.00000000000E+00  0.50000000000E+03  0.50000000000E+03  0.00000000000E+00 0. -1.
         11   -1    0    0    0    0 -0.00000000000E+00 -0.00000000000E+00 -0.50000000000E+03  0.50000000000E+03  0.00000000000E+00 0.  1.
         23    2    1    2    0    0  0.12792818387E+03  0.49226388661E+02  0.35836153968E+03  0.39373926034E+03  0.88423721068E+02 0.  0.
        -11    1    1    2    0    0 -0.78801452775E+02  0.22595029249E+02  0.10589621945E+03  0.13391868279E+03  0.00000000000E+00 0. -1.
         11    1    1    2    0    0 -0.49126731098E+02 -0.71821417910E+02 -0.46425775912E+03  0.47234205687E+03  0.00000000000E+00 0.  1.
        -15    1    3    3    0    0  0.43173929530E+02 -0.22144834835E+02  0.15113890059E+03  0.15874667525E+03  0.17770000000E+01 0.  1.
         15    1    3    3    0    0  0.84754254343E+02  0.71371223495E+02  0.20722263909E+03  0.23499258510E+03  0.17770000000E+01 0. -1.
</event>
<event>
 7    1  0.2288857E-006  0.5100446E+03  0.7546771E-02  0.9377611E-01
        -11   -1    0    0    0    0  0.00000000000E+00  0.00000000000E+00  0.50000000000E+03  0.50000000000E+03  0.00000000000E+00 0. -1.
         11   -1    0    0    0    0 -0.00000000000E+00 -0.00000000000E+00 -0.50000000000E+03  0.50000000000E+03  0.00000000000E+00 0.  1.
         23    2    1    2    0    0  0.12485105390E+03  0.78024101494E+02 -0.21117596879E+03  0.27394389910E+03  0.93671895401E+02 0.  0.
        -11    1    1    2    0    0 -0.25741351618E+03 -0.95739739356E+02  0.40574439611E+03  0.48995543775E+03  0.00000000000E+00 0. -1.
         11    1    1    2    0    0  0.13256246228E+03  0.17715637862E+02 -0.19456842732E+03  0.23610066315E+03  0.00000000000E+00 0.  1.
        -15    1    3    3    0    0  0.95695727548E+02  0.93666007834E+02 -0.13165281151E+03  0.18779407286E+03  0.17770000000E+01 0. -1.
         15    1    3    3    0    0  0.29155326347E+02 -0.15641906340E+02 -0.79523157283E+02  0.86149826242E+02  0.17770000000E+01 0.  1.
</event>
<event>
 7    1  0.2288857E-006  0.5228526E+03  0.7546771E-02  0.9350079E-01
        -11   -1    0    0    0    0  0.00000000000E+00  0.00000000000E+00  0.50000000000E+03  0.50000000000E+03  0.00000000000E+00 0. -1.
         11   -1    0    0    0    0 -0.00000000000E+00 -0.00000000000E+00 -0.50000000000E+03  0.50000000000E+03  0.00000000000E+00 0. -1.
         23    2    1    2    0    0 -0.75559695528E+02 -0.24620876970E+03  0.39131131798E+03  0.47714740960E+03  0.90648094503E+02 0.  0.
        -11    1    1    2    0    0  0.75800322187E+01  0.20869356586E+03 -0.12044089478E+03  0.24107357892E+03  0.00000000000E+00 0. -1.
         11    1    1    2    0    0  0.67979663309E+02  0.37515203842E+02 -0.27087042321E+03  0.28177901148E+03  0.00000000000E+00 0. -1.
        -15    1    3    3    0    0 -0.51708420484E+02 -0.12064864430E+03  0.27325013219E+03  0.30314789888E+03  0.17770000000E+01 0. -1.
         15    1    3    3    0    0 -0.23851275044E+02 -0.12556012540E+03  0.11806118579E+03  0.17399951072E+03  0.17770000000E+01 0.  1.
</event>
<event>
 7    1  0.2288857E-006  0.5319249E+03  0.7546771E-02  0.9331079E-01
        -11   -1    0    0    0    0  0.00000000000E+00  0.00000000000E+00  0.50000000000E+03  0.50000000000E+03  0.00000000000E+00 0.  1.
         11   -1    0    0    0    0 -0.00000000000E+00 -0.00000000000E+00 -0.50000000000E+03  0.50000000000E+03  0.00000000000E+00 0. -1.
         23    2    1    2    0    0 -0.76547457034E+02  0.43421810496E+02  0.98161955245E+02  0.15878305553E+03  0.88494759509E+02 0.  0.
        -11    1    1    2    0    0 -0.11807923204E+03  0.34636766471E+03  0.72948954954E+02  0.37314181517E+03  0.00000000000E+00 0.  1.
         11    1    1    2    0    0  0.19462668907E+03 -0.38978947521E+03 -0.17111091020E+03  0.46807512930E+03  0.00000000000E+00 0. -1.
        -15    1    3    3    0    0 -0.43184406238E+02  0.18246628871E+02 -0.52716674396E+01  0.47209963079E+02  0.17770000000E+01 0. -1.
         15    1    3    3    0    0 -0.33363050795E+02  0.25175181624E+02  0.10343362269E+03  0.11157309245E+03  0.17770000000E+01 0.  1.
</event>
<event>
 7    1  0.2288857E-006  0.3749557E+03  0.7546771E-02  0.9733438E-01
        -11   -1    0    0    0    0  0.00000000000E+00  0.00000000000E+00  0.50000000000E+03  0.50000000000E+03  0.00000000000E+00 0. -1.
         11   -1    0    0    0    0 -0.00000000000E+00 -0.00000000000E+00 -0.50000000000E+03  0.50000000000E+03  0.00000000000E+00 0.  1.
         23    2    1    2    0    0  0.58532472654E+02 -0.37133469822E+02  0.31221149312E+03  0.33248278401E+03  0.90905667010E+02 0.  0.
        -11    1    1    2    0    0 -0.19060457276E+03 -0.84864542685E+02  0.89787333996E+02  0.22714281654E+03  0.00000000000E+00 0. -1.
         11    1    1    2    0    0  0.13207210010E+03  0.12199801251E+03 -0.40199882712E+03  0.44037439944E+03  0.00000000000E+00 0.  1.
        -15    1    3    3    0    0  0.25294815259E+02  0.27869282062E+02  0.69937591959E+02  0.79441481983E+02  0.17770000000E+01 0.  1.
         15    1    3    3    0    0  0.33237657395E+02 -0.65002751884E+02  0.24227390116E+03  0.25304130203E+03  0.17770000000E+01 0. -1.
</event>
<event>
 7    1  0.3309226E-006  0.5190212E+03  0.7546771E-02  0.9358226E-01
        -11   -1    0    0    0    0  0.00000000000E+00  0.00000000000E+00  0.50000000000E+03  0.50000000000E+03  0.00000000000E+00 0. -1.
         11   -1    0    0    0    0 -0.00000000000E+00 -0.00000000000E+00 -0.50000000000E+03  0.50000000000E+03  0.00000000000E+00 0. -1.
         23    2    1    2    0    0 -0.93696668955E+02 -0.57127577973E+02 -0.17705729433E+03  0.21727310979E+03  0.61771294526E+02 0.  0.
        -11    1    1    2    0    0  0.91572504886E+02 -0.58882832044E+01  0.47214443966E+03  0.48097875985E+03  0.00000000000E+00 0. -1.
         11    1    1    2    0    0  0.21241640690E+01  0.63015861178E+02 -0.29508714533E+03  0.30174813035E+03  0.00000000000E+00 0. -1.
        -15    1    3    3    0    0 -0.49512135703E+02 -0.50722014407E+02 -0.63274282278E+02  0.95031399307E+02  0.17770000000E+01 0. -1.
         15    1    3    3    0    0 -0.44184533252E+02 -0.64055635659E+01 -0.11378301205E+03  0.12224171049E+03  0.17770000000E+01 0.  1.
</event>
<event>
 7    1  0.2288857E-006  0.5206945E+03  0.7546771E-02  0.9354659E-01
        -11   -1    0    0    0    0  0.00000000000E+00  0.00000000000E+00  0.50000000000E+03  0.50000000000E+03  0.00000000000E+00 0.  1.
         11   -1    0    0    0    0 -0.00000000000E+00 -0.00000000000E+00 -0.50000000000E+03  0.50000000000E+03  0.00000000000E+00 0.  1.
         23    2    1    2    0    0 -0.11279664974E+03 -0.97471156026E+01  0.24209399069E+03  0.28122366941E+03  0.87516635278E+02 0.  0.
        -11    1    1    2    0    0  0.15088777118E+02  0.94860024186E+02  0.21936315974E+03  0.23947085675E+03  0.00000000000E+00 0.  1.
         11    1    1    2    0    0  0.97707872626E+02 -0.85112908584E+02 -0.46145715042E+03  0.47930547384E+03  0.00000000000E+00 0.  1.
        -15    1    3    3    0    0 -0.10997349689E+03  0.81826924001E+01  0.23831444061E+03  0.26259866109E+03  0.17770000000E+01 0. -1.
         15    1    3    3    0    0 -0.28231528538E+01 -0.17929808003E+02  0.37795500800E+01  0.18625008318E+02  0.17770000000E+01 0.  1.
</event>
<event>
 7    1  0.2288857E-006  0.5069517E+03  0.7546771E-02  0.9384388E-01
        -11   -1    0    0    0    0  0.00000000000E+00  0.00000000000E+00  0.50000000000E+03  0.50000000000E+03  0.00000000000E+00 0. -1.
         11   -1    0    0    0    0 -0.00000000000E+00 -0.00000000000E+00 -0.50000000000E+03  0.50000000000E+03  0.00000000000E+00 0.  1.
         23    2    1    2    0    0  0.73363935644E+02 -0.14253996804E+03  0.45733503885E+03  0.49304834406E+03  0.90782279531E+02 0.  0.
        -11    1    1    2    0    0 -0.42878198465E+02  0.38032448993E+02 -0.27548032835E+02  0.63591675501E+02  0.00000000000E+00 0. -1.
         11    1    1    2    0    0 -0.30485737179E+02  0.10450751905E+03 -0.42978700602E+03  0.44335998044E+03  0.00000000000E+00 0.  1.
        -15    1    3    3    0    0  0.17466231882E+02 -0.52404062595E+02  0.59045379121E+02  0.80875024310E+02  0.17770000000E+01 0.  1.
         15    1    3    3    0    0  0.55897703762E+02 -0.90135905447E+02  0.39828965973E+03  0.41217331975E+03  0.17770000000E+01 0. -1.
</event>
<event>
 7    1  0.2288857E-006  0.5247097E+03  0.7546771E-02  0.9346156E-01
        -11   -1    0    0    0    0  0.00000000000E+00  0.00000000000E+00  0.50000000000E+03  0.50000000000E+03  0.00000000000E+00 0.  1.
         11   -1    0    0    0    0 -0.00000000000E+00 -0.00000000000E+00 -0.50000000000E+03  0.50000000000E+03  0.00000000000E+00 0.  1.
         23    2    1    2    0    0  0.46195083521E+02  0.38023173244E+02  0.27710757790E+03  0.30076542066E+03  0.10045636411E+03 0.  0.
        -11    1    1    2    0    0  0.20538335704E+02 -0.12356927951E+03  0.18563361256E+03  0.22394425240E+03  0.00000000000E+00 0.  1.
         11    1    1    2    0    0 -0.66733419224E+02  0.85546106267E+02 -0.46274119046E+03  0.47529032694E+03  0.00000000000E+00 0.  1.
        -15    1    3    3    0    0  0.73670036021E+02  0.68123072263E+01  0.19798667182E+03  0.21136594259E+03  0.17770000000E+01 0.  1.
         15    1    3    3    0    0 -0.27474952500E+02  0.31210866018E+02  0.79120906073E+02  0.89399478071E+02  0.17770000000E+01 0. -1.
</event>
<event>
 7    1  0.2288857E-006  0.3697260E+03  0.7546771E-02  0.9750339E-01
        -11   -1    0    0    0    0  0.00000000000E+00  0.00000000000E+00  0.50000000000E+03  0.50000000000E+03  0.00000000000E+00 0. -1.
         11   -1    0    0    0    0 -0.00000000000E+00 -0.00000000000E+00 -0.50000000000E+03  0.50000000000E+03  0.00000000000E+00 0.  1.
         23    2    1    2    0    0  0.20767822416E+03 -0.55038567701E+02  0.37028977196E+03  0.43786820693E+03  0.91948696017E+02 0.  0.
        -11    1    1    2    0    0 -0.24634803553E+03  0.14669386240E+03 -0.15724315580E+03  0.32700436377E+03  0.00000000000E+00 0. -1.
         11    1    1    2    0    0  0.38669811368E+02 -0.91655294694E+02 -0.21304661615E+03  0.23512742930E+03  0.00000000000E+00 0.  1.
        -15    1    3    3    0    0  0.10547512112E+03 -0.73814090587E+01  0.10238382142E+03  0.14719066204E+03  0.17770000000E+01 0.  1.
         15    1    3    3    0    0  0.10220310305E+03 -0.47657158642E+02  0.26790595053E+03  0.29067754489E+03  0.17770000000E+01 0. -1.
</event>
<event>
 7    1  0.2288857E-006  0.3901284E+03  0.7546771E-02  0.9686026E-01
        -11   -1    0    0    0    0  0.00000000000E+00  0.00000000000E+00  0.50000000000E+03  0.50000000000E+03  0.00000000000E+00 0. -1.
         11   -1    0    0    0    0 -0.00000000000E+00 -0.00000000000E+00 -0.50000000000E+03  0.50000000000E+03  0.00000000000E+00 0.  1.
         23    2    1    2    0    0 -0.12170291449E+03 -0.59383228174E+02  0.11457236625E+03  0.19983403251E+03  0.92026334578E+02 0.  0.
        -11    1    1    2    0    0 -0.40060734068E+01  0.21958085148E+03  0.28017472733E+03  0.35599111898E+03  0.00000000000E+00 0. -1.
         11    1    1    2    0    0  0.12570898790E+03 -0.16019762331E+03 -0.39474709358E+03  0.44417484850E+03  0.00000000000E+00 0.  1.
        -15    1    3    3    0    0  0.87170937450E+01  0.11976677937E+02  0.82122880269E+01  0.17030206734E+02  0.17770000000E+01 0.  1.
         15    1    3    3    0    0 -0.13042000824E+03 -0.71359906112E+02  0.10636007823E+03  0.18280382578E+03  0.17770000000E+01 0. -1.
</event>
<event>
 7    1  0.2288857E-006  0.5129215E+03  0.7546771E-02  0.9371352E-01
        -11   -1    0    0    0    0  0.00000000000E+00  0.00000000000E+00  0.50000000000E+03  0.50000000000E+03  0.00000000000E+00 0.  1.
         11   -1    0    0    0    0 -0.00000000000E+00 -0.00000000000E+00 -0.50000000000E+03  0.50000000000E+03  0.00000000000E+00 0.  1.
         23    2    1    2    0    0  0.58580984064E+02 -0.96259936754E+02  0.32134476486E+03  0.35245459459E+03  0.90906964644E+02 0.  0.
        -11    1    1    2    0    0  0.25134845157E+02  0.35040053529E+02  0.15456410326E+03  0.16046690565E+03  0.00000000000E+00 0.  1.
         11    1    1    2    0    0 -0.83715829221E+02  0.61219883225E+02 -0.47590886813E+03  0.48707849976E+03  0.00000000000E+00 0.  1.
        -15    1    3    3    0    0  0.28575929596E+02  0.12973745019E+02  0.65864800975E+02  0.72981035540E+02  0.17770000000E+01 0. -1.
         15    1    3    3    0    0  0.30005054469E+02 -0.10923368177E+03  0.25547996389E+03  0.27947355905E+03  0.17770000000E+01 0.  1.
</event>
<event>
 7    1  0.2288857E-006  0.5140768E+03  0.7546771E-02  0.9368851E-01
        -11   -1    0    0    0    0  0.00000000000E+00  0.00000000000E+00  0.50000000000E+03  0.50000000000E+03  0.00000000000E+00 0.  1.
         11   -1    0    0    0    0 -0.00000000000E+00 -0.00000000000E+00 -0.50000000000E+03  0.50000000000E+03  0.00000000000E+00 0. -1.
         23    2    1    2    0    0 -0.62261712480E+01  0.43454783491E+02  0.32105134865E+03  0.33645828773E+03  0.90571118415E+02 0.  0.
        -11    1    1    2    0    0 -0.17790847818E+02  0.10764730129E+03  0.14015656925E+03  0.17761846651E+03  0.00000000000E+00 0.  1.
         11    1    1    2    0    0  0.24017019066E+02 -0.15110208478E+03 -0.46120791791E+03  0.48592324576E+03  0.00000000000E+00 0. -1.
        -15    1    3    3    0    0  0.39901021258E+02  0.23026390747E+02  0.20111834610E+03  0.20633480810E+03  0.17770000000E+01 0.  1.
         15    1    3    3    0    0 -0.46127192506E+02  0.20428392743E+02  0.11993300256E+03  0.13012347963E+03  0.17770000000E+01 0. -1.
</event>
<event>
 7    1  0.2288857E-006  0.4411047E+03  0.7546771E-02  0.9542185E-01
        -11   -1    0    0    0    0  0.00000000000E+00  0.00000000000E+00  0.50000000000E+03  0.50000000000E+03  0.00000000000E+00 0. -1.
         11   -1    0    0    0    0 -0.00000000000E+00 -0.00000000000E+00 -0.50000000000E+03  0.50000000000E+03  0.00000000000E+00 0. -1.
         23    2    1    2    0    0 -0.66577403796E+02  0.18830715984E+02  0.44002970771E+03  0.45856509209E+03  0.10894334976E+03 0.  0.
        -11    1    1    2    0    0  0.40461207711E+02 -0.11128691128E+03 -0.32583746452E+02  0.12281525347E+03  0.00000000000E+00 0. -1.
         11    1    1    2    0    0  0.26116196085E+02  0.92456195294E+02 -0.40744596125E+03  0.41861965445E+03  0.00000000000E+00 0. -1.
        -15    1    3    3    0    0 -0.67326994442E+02  0.50209852273E+02  0.39378564760E+03  0.40264655397E+03  0.17770000000E+01 0. -1.
         15    1    3    3    0    0  0.74959064561E+00 -0.31379136289E+02  0.46244060110E+02  0.55918538114E+02  0.17770000000E+01 0.  1.
</event>
<event>
 7    1  0.2288857E-006  0.5363678E+03  0.7546771E-02  0.9321920E-01
        -11   -1    0    0    0    0  0.00000000000E+00  0.00000000000E+00  0.50000000000E+03  0.50000000000E+03  0.00000000000E+00 0.  1.
         11   -1    0    0    0    0 -0.00000000000E+00 -0.00000000000E+00 -0.50000000000E+03  0.50000000000E+03  0.00000000000E+00 0.  1.
         23    2    1    2    0    0  0.10167894410E+03 -0.60347578723E+01 -0.42063573227E+02  0.14909724514E+03  0.10042717928E+03 0.  0.
        -11    1    1    2    0    0 -0.20557030450E+03  0.54589427357E+02  0.41196560508E+03  0.46363219845E+03  0.00000000000E+00 0.  1.
         11    1    1    2    0    0  0.10389136040E+03 -0.48554669485E+02 -0.36990203185E+03  0.38727055641E+03  0.00000000000E+00 0.  1.
        -15    1    3    3    0    0  0.57214692719E+02  0.26527156077E+02 -0.63893227386E+02  0.89792612765E+02  0.17770000000E+01 0.  1.
         15    1    3    3    0    0  0.44464251386E+02 -0.32561913949E+02  0.21829654159E+02  0.59304632374E+02  0.17770000000E+01 0. -1.
</event>
<event>
 7    1  0.2288857E-006  0.5092965E+03  0.7546771E-02  0.9379245E-01
        -11   -1    0    0    0    0  0.00000000000E+00  0.00000000000E+00  0.50000000000E+03  0.50000000000E+03  0.00000000000E+00 0. -1.
         11   -1    0    0    0    0 -0.00000000000E+00 -0.00000000000E+00 -0.50000000000E+03  0.50000000000E+03  0.00000000000E+00 0.  1.
         23    2    1    2    0    0  0.34127767236E+02 -0.63641169666E+02 -0.25221010559E+03  0.27740327676E+03  0.90153966211E+02 0.  0.
        -11    1    1    2    0    0 -0.11607795531E+03  0.10241885626E+03  0.46564605786E+03  0.49070354088E+03  0.00000000000E+00 0. -1.
         11    1    1    2    0    0  0.81950188076E+02 -0.38777686596E+02 -0.21343595227E+03  0.23189318236E+03  0.00000000000E+00 0.  1.
        -15    1    3    3    0    0  0.89818004969E+01  0.23144048037E+02 -0.47275244558E+02  0.53426830120E+02  0.17770000000E+01 0. -1.
         15    1    3    3    0    0  0.25145966739E+02 -0.86785217703E+02 -0.20493486103E+03  0.22397644664E+03  0.17770000000E+01 0.  1.
</event>
<event>
 7    1  0.2288857E-006  0.5109165E+03  0.7546771E-02  0.9375709E-01
        -11   -1    0    0    0    0  0.00000000000E+00  0.00000000000E+00  0.50000000000E+03  0.50000000000E+03  0.00000000000E+00 0.  1.
         11   -1    0    0    0    0 -0.00000000000E+00 -0.00000000000E+00 -0.50000000000E+03  0.50000000000E+03  0.00000000000E+00 0.  1.
         23    2    1    2    0    0 -0.13187942059E+02  0.40504461177E+02  0.20511164026E+03  0.22758795588E+03  0.88943574823E+02 0.  0.
        -11    1    1    2    0    0 -0.58646323952E+02 -0.25972768685E+01  0.27718032697E+03  0.28332855631E+03  0.00000000000E+00 0.  1.
         11    1    1    2    0    0  0.71834266012E+02 -0.37907184309E+02 -0.48229196723E+03  0.48908348781E+03  0.00000000000E+00 0.  1.
        -15    1    3    3    0    0 -0.13843279171E+02  0.66410310001E+02  0.17569270816E+03  0.18834290824E+03  0.17770000000E+01 0. -1.
         15    1    3    3    0    0  0.65533711181E+00 -0.25905848824E+02  0.29418932093E+02  0.39245047643E+02  0.17770000000E+01 0.  1.
</event>
<event>
 7    1  0.2288857E-006  0.5393098E+03  0.7546771E-02  0.9315907E-01
        -11   -1    0    0    0    0  0.00000000000E+00  0.00000000000E+00  0.50000000000E+03  0.50000000000E+03  0.00000000000E+00 0.  1.
         11   -1    0    0    0    0 -0.00000000000E+00 -0.00000000000E+00 -0.50000000000E+03  0.50000000000E+03  0.00000000000E+00 0. -1.
         23    2    1    2    0    0 -0.87356808165E+02 -0.69502636914E+02  0.26446470158E+03  0.30222831442E+03  0.94543890236E+02 0.  0.
        -11    1    1    2    0    0 -0.10977067647E+03  0.15367663460E+03  0.14332315999E+03  0.23708149996E+03  0.00000000000E+00 0.  1.
         11    1    1    2    0    0  0.19712748463E+03 -0.84173997690E+02 -0.40778786157E+03  0.46069018562E+03  0.00000000000E+00 0. -1.
        -15    1    3    3    0    0 -0.96382116353E+02 -0.36775667754E+02  0.23714074976E+03  0.25861333109E+03  0.17770000000E+01 0.  1.
         15    1    3    3    0    0  0.90253081876E+01 -0.32726969161E+02  0.27323951818E+02  0.43614983323E+02  0.17770000000E+01 0. -1.
</event>
<event>
 7    1  0.2288857E-006  0.4045089E+03  0.7546771E-02  0.9643171E-01
        -11   -1    0    0    0    0  0.00000000000E+00  0.00000000000E+00  0.50000000000E+03  0.50000000000E+03  0.00000000000E+00 0. -1.
         11   -1    0    0    0    0 -0.00000000000E+00 -0.00000000000E+00 -0.50000000000E+03  0.50000000000E+03  0.00000000000E+00 0.  1.
         23    2    1    2    0    0 -0.10436510410E+02 -0.39488448431E+02  0.34242749586E+03  0.35681478826E+03  0.91607559139E+02 0.  0.
        -11    1    1    2    0    0 -0.49316229532E+02 -0.15961409038E+03  0.70156162848E+02  0.18119226123E+03  0.00000000000E+00 0. -1.
         11    1    1    2    0    0  0.59752739942E+02  0.19910253881E+03 -0.41258365871E+03  0.46199295051E+03  0.00000000000E+00 0.  1.
        -15    1    3    3    0    0 -0.40023053318E+02  0.27336482051E+01  0.81725703736E+02  0.91058036490E+02  0.17770000000E+01 0.  1.
         15    1    3    3    0    0  0.29586542907E+02 -0.42222096636E+02  0.26070179212E+03  0.26575675177E+03  0.17770000000E+01 0. -1.
</event>
<event>
 7    1  0.2288857E-006  0.5323440E+03  0.7546771E-02  0.9330211E-01
        -11   -1    0    0    0    0  0.00000000000E+00  0.00000000000E+00  0.50000000000E+03  0.50000000000E+03  0.00000000000E+00 0.  1.
         11   -1    0    0    0    0 -0.00000000000E+00 -0.00000000000E+00 -0.50000000000E+03  0.50000000000E+03  0.00000000000E+00 0. -1.
         23    2    1    2    0    0  0.78267509229E+01  0.18097230440E+03 -0.25340381608E+03  0.32437028774E+03  0.90500588778E+02 0.  0.
        -11    1    1    2    0    0 -0.36961724637E+02 -0.12067999039E+03  0.45030243363E+03  0.46765597495E+03  0.00000000000E+00 0.  1.
         11    1    1    2    0    0  0.29134973714E+02 -0.60292314014E+02 -0.19689861755E+03  0.20797373732E+03  0.00000000000E+00 0. -1.
        -15    1    3    3    0    0 -0.38105513658E+02  0.55676568954E+02 -0.10460160325E+03  0.12448519443E+03  0.17770000000E+01 0.  1.
         15    1    3    3    0    0  0.45932264581E+02  0.12529573545E+03 -0.14880221283E+03  0.19988509330E+03  0.17770000000E+01 0. -1.
</event>
<event>
 7    1  0.2288857E-006  0.4626190E+03  0.7546771E-02  0.9487571E-01
        -11   -1    0    0    0    0  0.00000000000E+00  0.00000000000E+00  0.50000000000E+03  0.50000000000E+03  0.00000000000E+00 0.  1.
         11   -1    0    0    0    0 -0.00000000000E+00 -0.00000000000E+00 -0.50000000000E+03  0.50000000000E+03  0.00000000000E+00 0.  1.
         23    2    1    2    0    0 -0.17177113119E+03  0.32348167525E+03 -0.20332818979E+03  0.42876531705E+03  0.91387245321E+02 0.  0.
        -11    1    1    2    0    0  0.20100049741E+03 -0.35714968130E+03  0.27018570903E+03  0.49087413069E+03  0.00000000000E+00 0.  1.
         11    1    1    2    0    0 -0.29229366226E+02  0.33668006052E+02 -0.66857519237E+02  0.80360552264E+02  0.00000000000E+00 0.  1.
        -15    1    3    3    0    0 -0.11108391236E+03  0.24444438095E+03 -0.18835153313E+03  0.32798193353E+03  0.17770000000E+01 0.  1.
         15    1    3    3    0    0 -0.60687218825E+02  0.79037294298E+02 -0.14976656666E+02  0.10078338351E+03  0.17770000000E+01 0. -1.
</event>
<event>
 7    1  0.2288857E-006  0.4324101E+03  0.7546771E-02  0.9565207E-01
        -11   -1    0    0    0    0  0.00000000000E+00  0.00000000000E+00  0.50000000000E+03  0.50000000000E+03  0.00000000000E+00 0.  1.
         11   -1    0    0    0    0 -0.00000000000E+00 -0.00000000000E+00 -0.50000000000E+03  0.50000000000E+03  0.00000000000E+00 0. -1.
         23    2    1    2    0    0 -0.28705346316E+02 -0.88189225878E+02 -0.58513468365E+00  0.13022084715E+03  0.91410011386E+02 0.  0.
        -11    1    1    2    0    0 -0.88549439016E+02  0.19111362628E+03  0.39388340554E+03  0.44666492862E+03  0.00000000000E+00 0.  1.
         11    1    1    2    0    0  0.11725478533E+03 -0.10292440040E+03 -0.39329827086E+03  0.42311422423E+03  0.00000000000E+00 0. -1.
        -15    1    3    3    0    0 -0.10889270113E+02  0.18744173453E+02 -0.14063349963E+01  0.21795773653E+02  0.17770000000E+01 0. -1.
         15    1    3    3    0    0 -0.17816076203E+02 -0.10693339933E+03  0.82120031262E+00  0.10842507350E+03  0.17770000000E+01 0.  1.
</event>
<event>
 7    1  0.2288857E-006  0.5292261E+03  0.7546771E-02  0.9336689E-01
        -11   -1    0    0    0    0  0.00000000000E+00  0.00000000000E+00  0.50000000000E+03  0.50000000000E+03  0.00000000000E+00 0. -1.
         11   -1    0    0    0    0 -0.00000000000E+00 -0.00000000000E+00 -0.50000000000E+03  0.50000000000E+03  0.00000000000E+00 0. -1.
         23    2    1    2    0    0  0.48896396506E+02  0.30073820869E+02  0.37506849333E+03  0.39043453615E+03  0.92018802595E+02 0.  0.
        -11    1    1    2    0    0  0.56803117925E+02  0.11066273850E+03  0.61565104789E+02  0.13879156323E+03  0.00000000000E+00 0. -1.
         11    1    1    2    0    0 -0.10569951443E+03 -0.14073655937E+03 -0.43663359812E+03  0.47077390062E+03  0.00000000000E+00 0. -1.
        -15    1    3    3    0    0 -0.26535456540E+02  0.54109977591E+01  0.66640310172E+02  0.71954833190E+02  0.17770000000E+01 0.  1.
         15    1    3    3    0    0  0.75431853046E+02  0.24662823110E+02  0.30842818316E+03  0.31847970296E+03  0.17770000000E+01 0. -1.
</event>
<event>
 7    1  0.2288857E-006  0.5101923E+03  0.7546771E-02  0.9377288E-01
        -11   -1    0    0    0    0  0.00000000000E+00  0.00000000000E+00  0.50000000000E+03  0.50000000000E+03  0.00000000000E+00 0.  1.
         11   -1    0    0    0    0 -0.00000000000E+00 -0.00000000000E+00 -0.50000000000E+03  0.50000000000E+03  0.00000000000E+00 0. -1.
         23    2    1    2    0    0  0.23901843618E+03  0.20751664895E+02 -0.32325764667E+03  0.41297012973E+03  0.92132391091E+02 0.  0.
        -11    1    1    2    0    0 -0.25207776187E+03 -0.35555039062E+02  0.41845459724E+03  0.48980772634E+03  0.00000000000E+00 0.  1.
         11    1    1    2    0    0  0.13059325692E+02  0.14803374167E+02 -0.95196950566E+02  0.97222143935E+02  0.00000000000E+00 0. -1.
        -15    1    3    3    0    0  0.20977369303E+03  0.83200899835E+01 -0.21653869482E+03  0.30160634984E+03  0.17770000000E+01 0. -1.
         15    1    3    3    0    0  0.29244743150E+02  0.12431574911E+02 -0.10671895185E+03  0.11136377988E+03  0.17770000000E+01 0.  1.
</event>
<event>
 7    1  0.2288857E-006  0.4765623E+03  0.7546771E-02  0.9453837E-01
        -11   -1    0    0    0    0  0.00000000000E+00  0.00000000000E+00  0.50000000000E+03  0.50000000000E+03  0.00000000000E+00 0.  1.
         11   -1    0    0    0    0 -0.00000000000E+00 -0.00000000000E+00 -0.50000000000E+03  0.50000000000E+03  0.00000000000E+00 0. -1.
         23    2    1    2    0    0  0.15064882552E+03 -0.24149989488E+02 -0.41607970682E+03  0.45332456683E+03  0.95407284024E+02 0.  0.
        -11    1    1    2    0    0 -0.15168726173E+03  0.55155794177E+01  0.46773742093E+03  0.49174967404E+03  0.00000000000E+00 0.  1.
         11    1    1    2    0    0  0.10384362084E+01  0.18634410070E+02 -0.51657714108E+02  0.54925759123E+02  0.00000000000E+00 0. -1.
        -15    1    3    3    0    0  0.91785168529E+02  0.32640920227E+02 -0.20610684689E+03  0.22797617617E+03  0.17770000000E+01 0.  1.
         15    1    3    3    0    0  0.58863656989E+02 -0.56790909714E+02 -0.20997285993E+03  0.22534839067E+03  0.17770000000E+01 0. -1.
</event>
<event>
 7    1  0.2288857E-006  0.4178188E+03  0.7546771E-02  0.9605169E-01
        -11   -1    0    0    0    0  0.00000000000E+00  0.00000000000E+00  0.50000000000E+03  0.50000000000E+03  0.00000000000E+00 0.  1.
         11   -1    0    0    0    0 -0.00000000000E+00 -0.00000000000E+00 -0.50000000000E+03  0.50000000000E+03  0.00000000000E+00 0. -1.
         23    2    1    2    0    0 -0.66205208606E+02  0.30523305422E+02  0.36564191389E+03  0.38351238023E+03  0.89849511798E+02 0.  0.
        -11    1    1    2    0    0  0.13397621022E+03  0.47235707098E+01  0.85447802559E+02  0.15897567105E+03  0.00000000000E+00 0.  1.
         11    1    1    2    0    0 -0.67771001609E+02 -0.35246876131E+02 -0.45108971645E+03  0.45751194872E+03  0.00000000000E+00 0. -1.
        -15    1    3    3    0    0 -0.82334303050E+02  0.43617936631E+02  0.32076062584E+03  0.33402394925E+03  0.17770000000E+01 0. -1.
         15    1    3    3    0    0  0.16129094444E+02 -0.13094631209E+02  0.44881288057E+02  0.49488430979E+02  0.17770000000E+01 0.  1.
</event>
<event>
 7    1  0.2288857E-006  0.5361861E+03  0.7546771E-02  0.9322293E-01
        -11   -1    0    0    0    0  0.00000000000E+00  0.00000000000E+00  0.50000000000E+03  0.50000000000E+03  0.00000000000E+00 0. -1.
         11   -1    0    0    0    0 -0.00000000000E+00 -0.00000000000E+00 -0.50000000000E+03  0.50000000000E+03  0.00000000000E+00 0. -1.
         23    2    1    2    0    0  0.41875275683E+02  0.10193631613E+02  0.65064321173E+02  0.12237791584E+03  0.94263139974E+02 0.  0.
        -11    1    1    2    0    0 -0.10303182851E+03 -0.13392169733E+03  0.37773880526E+03  0.41380814842E+03  0.00000000000E+00 0. -1.
         11    1    1    2    0    0  0.61156552824E+02  0.12372806571E+03 -0.44280312644E+03  0.46381393573E+03  0.00000000000E+00 0. -1.
        -15    1    3    3    0    0  0.45162895442E+02  0.26315464858E+02  0.82917652924E+02  0.98034104835E+02  0.17770000000E+01 0.  1.
         15    1    3    3    0    0 -0.32876197584E+01 -0.16121833245E+02 -0.17853331751E+02  0.24343811010E+02  0.17770000000E+01 0. -1.
</event>
<event>
 7    1  0.2288857E-006  0.4768412E+03  0.7546771E-02  0.9453175E-01
        -11   -1    0    0    0    0  0.00000000000E+00  0.00000000000E+00  0.50000000000E+03  0.50000000000E+03  0.00000000000E+00 0. -1.
         11   -1    0    0    0    0 -0.00000000000E+00 -0.00000000000E+00 -0.50000000000E+03  0.50000000000E+03  0.00000000000E+00 0.  1.
         23    2    1    2    0    0  0.89844546947E+01 -0.53260457339E+02  0.47740437644E+03  0.48833384331E+03  0.87393404397E+02 0.  0.
        -11    1    1    2    0    0 -0.51453045574E+01 -0.43908675869E+02 -0.29078795186E+02  0.52915236983E+02  0.00000000000E+00 0. -1.
         11    1    1    2    0    0 -0.38391501373E+01  0.97169133208E+02 -0.44832558126E+03  0.45875091971E+03  0.00000000000E+00 0.  1.
        -15    1    3    3    0    0 -0.32950940753E+02 -0.49282264966E+02  0.24037009255E+03  0.24757916968E+03  0.17770000000E+01 0.  1.
         15    1    3    3    0    0  0.41935395448E+02 -0.39781923736E+01  0.23703428389E+03  0.24075467363E+03  0.17770000000E+01 0. -1.
</event>
<event>
 7    1  0.2288857E-006  0.5095151E+03  0.7546771E-02  0.9378767E-01
        -11   -1    0    0    0    0  0.00000000000E+00  0.00000000000E+00  0.50000000000E+03  0.50000000000E+03  0.00000000000E+00 0.  1.
         11   -1    0    0    0    0 -0.00000000000E+00 -0.00000000000E+00 -0.50000000000E+03  0.50000000000E+03  0.00000000000E+00 0.  1.
         23    2    1    2    0    0  0.52643777468E+02  0.39142644247E+02 -0.22896090529E+03  0.25656502466E+03  0.95388688140E+02 0.  0.
        -11    1    1    2    0    0 -0.13290243477E+03 -0.84569552395E+02  0.46450008599E+03  0.49048485832E+03  0.00000000000E+00 0.  1.
         11    1    1    2    0    0  0.80258657299E+02  0.45426908148E+02 -0.23553918070E+03  0.25295011702E+03  0.00000000000E+00 0.  1.
        -15    1    3    3    0    0  0.19437250549E+02  0.68532572010E+02 -0.14696854675E+03  0.16333227359E+03  0.17770000000E+01 0. -1.
         15    1    3    3    0    0  0.33206526919E+02 -0.29389927762E+02 -0.81992358541E+02  0.93232751070E+02  0.17770000000E+01 0.  1.
</event>
<event>
 7    1  0.2288857E-006  0.3566152E+03  0.7546771E-02  0.9794059E-01
        -11   -1    0    0    0    0  0.00000000000E+00  0.00000000000E+00  0.50000000000E+03  0.50000000000E+03  0.00000000000E+00 0.  1.
         11   -1    0    0    0    0 -0.00000000000E+00 -0.00000000000E+00 -0.50000000000E+03  0.50000000000E+03  0.00000000000E+00 0. -1.
         23    2    1    2    0    0  0.13393996978E+03 -0.20582931215E+03  0.18431881010E+03  0.32016106636E+03  0.90686622008E+02 0.  0.
        -11    1    1    2    0    0 -0.35152704829E+02  0.12006906449E+03  0.22098697714E+03  0.25394396423E+03  0.00000000000E+00 0.  1.
         11    1    1    2    0    0 -0.98787264955E+02  0.85760247660E+02 -0.40530578724E+03  0.42589496941E+03  0.00000000000E+00 0. -1.
        -15    1    3    3    0    0  0.31934534970E+01 -0.15094387495E+02 -0.96896104944E+01  0.18305325991E+02  0.17770000000E+01 0. -1.
         15    1    3    3    0    0  0.13074651629E+03 -0.19073492465E+03  0.19400842059E+03  0.30185574037E+03  0.17770000000E+01 0.  1.
</event>
<event>
 7    1  0.2288857E-006  0.4595530E+03  0.7546771E-02  0.9495158E-01
        -11   -1    0    0    0    0  0.00000000000E+00  0.00000000000E+00  0.50000000000E+03  0.50000000000E+03  0.00000000000E+00 0. -1.
         11   -1    0    0    0    0 -0.00000000000E+00 -0.00000000000E+00 -0.50000000000E+03  0.50000000000E+03  0.00000000000E+00 0.  1.
         23    2    1    2    0    0 -0.88861114651E+02 -0.26469474716E+03 -0.37054871066E+03  0.47241550162E+03  0.88940723724E+02 0.  0.
        -11    1    1    2    0    0  0.34743175587E+02  0.20187156930E+03  0.39168535059E+03  0.44201429005E+03  0.00000000000E+00 0. -1.
         11    1    1    2    0    0  0.54117939064E+02  0.62823177858E+02 -0.21136639936E+02  0.85570208323E+02  0.00000000000E+00 0.  1.
        -15    1    3    3    0    0 -0.21149560192E+02 -0.19336353264E+03 -0.23905544910E+03  0.30820030033E+03  0.17770000000E+01 0.  1.
         15    1    3    3    0    0 -0.67711554459E+02 -0.71331214517E+02 -0.13149326156E+03  0.16421520130E+03  0.17770000000E+01 0. -1.
</event>
<event>
 7    1  0.2288857E-006  0.3442703E+03  0.7546771E-02  0.9837107E-01
        -11   -1    0    0    0    0  0.00000000000E+00  0.00000000000E+00  0.50000000000E+03  0.50000000000E+03  0.00000000000E+00 0. -1.
         11   -1    0    0    0    0 -0.00000000000E+00 -0.00000000000E+00 -0.50000000000E+03  0.50000000000E+03  0.00000000000E+00 0.  1.
         23    2    1    2    0    0 -0.39052797608E+02 -0.18944434587E+03  0.21638416538E+03  0.30388996794E+03  0.90070663416E+02 0.  0.
        -11    1    1    2    0    0 -0.20074267379E+03  0.12860463197E+03  0.12915270462E+03  0.27114054207E+03  0.00000000000E+00 0. -1.
         11    1    1    2    0    0  0.23979547140E+03  0.60839713896E+02 -0.34553687000E+03  0.42496948998E+03  0.00000000000E+00 0.  1.
        -15    1    3    3    0    0 -0.46113311695E+02 -0.15207251072E+03  0.21287692081E+03  0.26565433777E+03  0.17770000000E+01 0. -1.
         15    1    3    3    0    0  0.70605140873E+01 -0.37371835147E+02  0.35072445677E+01  0.38235630175E+02  0.17770000000E+01 0.  1.
</event>
<event>
 7    1  0.2288857E-006  0.4105003E+03  0.7546771E-02  0.9625874E-01
        -11   -1    0    0    0    0  0.00000000000E+00  0.00000000000E+00  0.50000000000E+03  0.50000000000E+03  0.00000000000E+00 0. -1.
         11   -1    0    0    0    0 -0.00000000000E+00 -0.00000000000E+00 -0.50000000000E+03  0.50000000000E+03  0.00000000000E+00 0. -1.
         23    2    1    2    0    0 -0.73175714678E+02  0.21183269460E+03  0.40180409591E+03  0.46929654157E+03  0.92546943344E+02 0.  0.
        -11    1    1    2    0    0  0.11007431660E+03 -0.11868281498E+03 -0.56960540816E+02  0.17159973472E+03  0.00000000000E+00 0. -1.
         11    1    1    2    0    0 -0.36898601918E+02 -0.93149879617E+02 -0.34484355509E+03  0.35910372371E+03  0.00000000000E+00 0. -1.
        -15    1    3    3    0    0 -0.94804279034E+02  0.18437812528E+03  0.34931238548E+03  0.40620862224E+03  0.17770000000E+01 0. -1.
         15    1    3    3    0    0  0.21628564357E+02  0.27454569319E+02  0.52491710431E+02  0.63087919331E+02  0.17770000000E+01 0.  1.
</event>
<event>
 7    1  0.2288857E-006  0.4444772E+03  0.7546771E-02  0.9533407E-01
        -11   -1    0    0    0    0  0.00000000000E+00  0.00000000000E+00  0.50000000000E+03  0.50000000000E+03  0.00000000000E+00 0.  1.
         11   -1    0    0    0    0 -0.00000000000E+00 -0.00000000000E+00 -0.50000000000E+03  0.50000000000E+03  0.00000000000E+00 0. -1.
         23    2    1    2    0    0 -0.12063232116E+03  0.16247489917E+02  0.45057200827E+03  0.47517488830E+03  0.89218282908E+02 0.  0.
        -11    1    1    2    0    0  0.65728121971E+02  0.75154518767E+02 -0.52665872830E+02  0.11288083039E+03  0.00000000000E+00 0.  1.
         11    1    1    2    0    0  0.54904199184E+02 -0.91402008683E+02 -0.39790613544E+03  0.41194428130E+03  0.00000000000E+00 0. -1.
        -15    1    3    3    0    0 -0.24417286038E+02  0.33114147160E+02  0.61432008581E+02  0.73958096290E+02  0.17770000000E+01 0. -1.
         15    1    3    3    0    0 -0.96215035117E+02 -0.16866657243E+02  0.38913999969E+03  0.40121679201E+03  0.17770000000E+01 0.  1.
</event>
<event>
 7    1  0.2288857E-006  0.5137837E+03  0.7546771E-02  0.9369485E-01
        -11   -1    0    0    0    0  0.00000000000E+00  0.00000000000E+00  0.50000000000E+03  0.50000000000E+03  0.00000000000E+00 0. -1.
         11   -1    0    0    0    0 -0.00000000000E+00 -0.00000000000E+00 -0.50000000000E+03  0.50000000000E+03  0.00000000000E+00 0. -1.
         23    2    1    2    0    0 -0.14326117995E+02  0.61363727650E+02  0.29276481914E+03  0.31273915182E+03  0.90132086574E+02 0.  0.
        -11    1    1    2    0    0 -0.10239457880E+03  0.26792695242E+02  0.17092803340E+03  0.20104449977E+03  0.00000000000E+00 0. -1.
         11    1    1    2    0    0  0.11672069680E+03 -0.88156422892E+02 -0.46369285254E+03  0.48621634840E+03  0.00000000000E+00 0. -1.
        -15    1    3    3    0    0 -0.51441947249E+01  0.72395545330E+02  0.28873958210E+03  0.29772685758E+03  0.17770000000E+01 0. -1.
         15    1    3    3    0    0 -0.91819232699E+01 -0.11031817681E+02  0.40252370374E+01  0.15012294244E+02  0.17770000000E+01 0.  1.
</event>
<event>
 7    1  0.2288857E-006  0.4143359E+03  0.7546771E-02  0.9614966E-01
        -11   -1    0    0    0    0  0.00000000000E+00  0.00000000000E+00  0.50000000000E+03  0.50000000000E+03  0.00000000000E+00 0.  1.
         11   -1    0    0    0    0 -0.00000000000E+00 -0.00000000000E+00 -0.50000000000E+03  0.50000000000E+03  0.00000000000E+00 0. -1.
         23    2    1    2    0    0  0.15929107404E+03  0.11335550715E+03  0.34619539678E+03  0.40779084968E+03  0.90658739603E+02 0.  0.
        -11    1    1    2    0    0 -0.15240362600E+03  0.16472215344E+02  0.60833521444E+02  0.16492093993E+03  0.00000000000E+00 0.  1.
         11    1    1    2    0    0 -0.68874480365E+01 -0.12982772250E+03 -0.40702891822E+03  0.42728821039E+03  0.00000000000E+00 0. -1.
        -15    1    3    3    0    0 -0.11360910810E+02  0.80051864825E+01  0.14412984282E+02  0.20100874358E+02  0.17770000000E+01 0. -1.
         15    1    3    3    0    0  0.17065198485E+03  0.10535032067E+03  0.33178241249E+03  0.38768997532E+03  0.17770000000E+01 0.  1.
</event>
<event>
 7    1  0.2288857E-006  0.4103703E+03  0.7546771E-02  0.9626247E-01
        -11   -1    0    0    0    0  0.00000000000E+00  0.00000000000E+00  0.50000000000E+03  0.50000000000E+03  0.00000000000E+00 0. -1.
         11   -1    0    0    0    0 -0.00000000000E+00 -0.00000000000E+00 -0.50000000000E+03  0.50000000000E+03  0.00000000000E+00 0. -1.
         23    2    1    2    0    0  0.93778125186E+02 -0.95780721292E+02 -0.39814128181E+02  0.16743261158E+03  0.92088171236E+02 0.  0.
        -11    1    1    2    0    0  0.60466556466E+02 -0.29813598680E+03  0.21725790811E+03  0.37382117344E+03  0.00000000000E+00 0. -1.
         11    1    1    2    0    0 -0.15424468165E+03  0.39391670809E+03 -0.17744377993E+03  0.45874621499E+03  0.00000000000E+00 0. -1.
        -15    1    3    3    0    0 -0.41994990457E+01  0.10922267979E+02  0.86587874203E+01  0.14665062517E+02  0.17770000000E+01 0. -1.
         15    1    3    3    0    0  0.97977624232E+02 -0.10670298927E+03 -0.48472915602E+02  0.15276754906E+03  0.17770000000E+01 0.  1.
</event>
<event>
 7    1  0.2288857E-006  0.4844926E+03  0.7546771E-02  0.9435193E-01
        -11   -1    0    0    0    0  0.00000000000E+00  0.00000000000E+00  0.50000000000E+03  0.50000000000E+03  0.00000000000E+00 0.  1.
         11   -1    0    0    0    0 -0.00000000000E+00 -0.00000000000E+00 -0.50000000000E+03  0.50000000000E+03  0.00000000000E+00 0.  1.
         23    2    1    2    0    0  0.10704237246E+03 -0.33554065069E+03  0.31226460033E+03  0.48020200727E+03  0.95074651728E+02 0.  0.
        -11    1    1    2    0    0 -0.82526462658E+02  0.36466591578E+03 -0.30129977830E+03  0.48018059475E+03  0.00000000000E+00 0.  1.
         11    1    1    2    0    0 -0.24515909804E+02 -0.29125265097E+02 -0.10964822026E+02  0.39617397978E+02  0.00000000000E+00 0.  1.
        -15    1    3    3    0    0  0.10457247614E+03 -0.20434771166E+03  0.23199209912E+03  0.32636924152E+03  0.17770000000E+01 0.  1.
         15    1    3    3    0    0  0.24698963188E+01 -0.13119293903E+03  0.80272501207E+02  0.15383276575E+03  0.17770000000E+01 0. -1.
</event>
<event>
 7    1  0.2288857E-006  0.5076159E+03  0.7546771E-02  0.9382928E-01
        -11   -1    0    0    0    0  0.00000000000E+00  0.00000000000E+00  0.50000000000E+03  0.50000000000E+03  0.00000000000E+00 0. -1.
         11   -1    0    0    0    0 -0.00000000000E+00 -0.00000000000E+00 -0.50000000000E+03  0.50000000000E+03  0.00000000000E+00 0. -1.
         23    2    1    2    0    0  0.14327037107E+03 -0.78212036277E+02  0.45550901856E+03  0.49238412682E+03  0.91159972093E+02 0.  0.
        -11    1    1    2    0    0 -0.84143328883E+02 -0.21323040519E+02 -0.93665532528E+02  0.12770279494E+03  0.00000000000E+00 0. -1.
         11    1    1    2    0    0 -0.59127042189E+02  0.99535076796E+02 -0.36184348603E+03  0.37991307823E+03  0.00000000000E+00 0. -1.
        -15    1    3    3    0    0  0.29800186743E+02 -0.59951515379E+02  0.11600345626E+03  0.13394847860E+03  0.17770000000E+01 0.  1.
         15    1    3    3    0    0  0.11347018433E+03 -0.18260520898E+02  0.33950556229E+03  0.35843564822E+03  0.17770000000E+01 0. -1.
</event>
<event>
 7    1  0.2288857E-006  0.5388901E+03  0.7546771E-02  0.9316762E-01
        -11   -1    0    0    0    0  0.00000000000E+00  0.00000000000E+00  0.50000000000E+03  0.50000000000E+03  0.00000000000E+00 0.  1.
         11   -1    0    0    0    0 -0.00000000000E+00 -0.00000000000E+00 -0.50000000000E+03  0.50000000000E+03  0.00000000000E+00 0. -1.
         23    2    1    2    0    0 -0.36906171248E+02  0.56994317365E+02  0.30139665370E+03  0.32236258909E+03  0.92017815106E+02 0.  0.
        -11    1    1    2    0    0  0.15662711393E+03 -0.41501901749E+02  0.14363050965E+03  0.21652755938E+03  0.00000000000E+00 0.  1.
         11    1    1    2    0    0 -0.11972094268E+03 -0.15492415616E+02 -0.44502716335E+03  0.46110985153E+03  0.00000000000E+00 0. -1.
        -15    1    3    3    0    0 -0.34366721296E+02  0.68173969585E+02  0.30123063327E+03  0.31076005827E+03  0.17770000000E+01 0.  1.
         15    1    3    3    0    0 -0.25394499513E+01 -0.11179652219E+02  0.16602042541E+00  0.11602530827E+02  0.17770000000E+01 0. -1.
</event>
<event>
 7    1  0.2288857E-006  0.5245076E+03  0.7546771E-02  0.9346582E-01
        -11   -1    0    0    0    0  0.00000000000E+00  0.00000000000E+00  0.50000000000E+03  0.50000000000E+03  0.00000000000E+00 0.  1.
         11   -1    0    0    0    0 -0.00000000000E+00 -0.00000000000E+00 -0.50000000000E+03  0.50000000000E+03  0.00000000000E+00 0. -1.
         23    2    1    2    0    0  0.88076277571E+02  0.65155356252E+02  0.28128989054E+03  0.31564214261E+03  0.92213385956E+02 0.  0.
        -11    1    1    2    0    0 -0.93546899880E+02  0.38585198173E+02  0.18271547519E+03  0.20886547074E+03  0.00000000000E+00 0.  1.
         11    1    1    2    0    0  0.54706223089E+01 -0.10374055442E+03 -0.46400536573E+03  0.47549238665E+03  0.00000000000E+00 0. -1.
        -15    1    3    3    0    0  0.32832122244E+02 -0.71802206847E+01  0.20470226054E+02  0.39391518171E+02  0.17770000000E+01 0. -1.
         15    1    3    3    0    0  0.55244155327E+02  0.72335576936E+02  0.26081966449E+03  0.27625062443E+03  0.17770000000E+01 0.  1.
</event>
<event>
 7    1  0.2288857E-006  0.5155711E+03  0.7546771E-02  0.9365627E-01
        -11   -1    0    0    0    0  0.00000000000E+00  0.00000000000E+00  0.50000000000E+03  0.50000000000E+03  0.00000000000E+00 0.  1.
         11   -1    0    0    0    0 -0.00000000000E+00 -0.00000000000E+00 -0.50000000000E+03  0.50000000000E+03  0.00000000000E+00 0.  1.
         23    2    1    2    0    0  0.61159200047E+02 -0.58890146807E+02 -0.91522233025E+02  0.15434706566E+03  0.90764532718E+02 0.  0.
        -11    1    1    2    0    0 -0.28145919573E+03  0.17738996971E+03  0.35211485315E+03  0.48442889058E+03  0.00000000000E+00 0.  1.
         11    1    1    2    0    0  0.22029999568E+03 -0.11849982291E+03 -0.26059262012E+03  0.36122404376E+03  0.00000000000E+00 0.  1.
        -15    1    3    3    0    0  0.37871665573E+02  0.14122243338E+02 -0.57914575780E+02  0.70646702874E+02  0.17770000000E+01 0.  1.
         15    1    3    3    0    0  0.23287534474E+02 -0.73012390145E+02 -0.33607657245E+02  0.83700362789E+02  0.17770000000E+01 0. -1.
</event>
<event>
 7    1  0.2288857E-006  0.5286416E+03  0.7546771E-02  0.9337908E-01
        -11   -1    0    0    0    0  0.00000000000E+00  0.00000000000E+00  0.50000000000E+03  0.50000000000E+03  0.00000000000E+00 0.  1.
         11   -1    0    0    0    0 -0.00000000000E+00 -0.00000000000E+00 -0.50000000000E+03  0.50000000000E+03  0.00000000000E+00 0.  1.
         23    2    1    2    0    0 -0.43304179521E+02  0.49947873118E+02  0.79885201173E+02  0.13948723768E+03  0.93300600830E+02 0.  0.
        -11    1    1    2    0    0  0.82060331161E+02 -0.41630791207E+03 -0.20526220719E+03  0.47135840854E+03  0.00000000000E+00 0.  1.
         11    1    1    2    0    0 -0.38756151640E+02  0.36636003895E+03  0.12537700602E+03  0.38915435378E+03  0.00000000000E+00 0.  1.
        -15    1    3    3    0    0 -0.56645184093E+02  0.12593221390E+02  0.97153009177E+01  0.58862644409E+02  0.17770000000E+01 0.  1.
         15    1    3    3    0    0  0.13341004572E+02  0.37354651728E+02  0.70169900255E+02  0.80624593268E+02  0.17770000000E+01 0. -1.
</event>
<event>
 7    1  0.2288857E-006  0.4156824E+03  0.7546771E-02  0.9611167E-01
        -11   -1    0    0    0    0  0.00000000000E+00  0.00000000000E+00  0.50000000000E+03  0.50000000000E+03  0.00000000000E+00 0. -1.
         11   -1    0    0    0    0 -0.00000000000E+00 -0.00000000000E+00 -0.50000000000E+03  0.50000000000E+03  0.00000000000E+00 0.  1.
         23    2    1    2    0    0  0.51395280402E+02  0.65909724892E+02  0.43444208550E+03  0.45127968171E+03  0.89038524166E+02 0.  0.
        -11    1    1    2    0    0 -0.93892540178E+02 -0.12081122360E+03 -0.54402163410E+02  0.16239075169E+03  0.00000000000E+00 0. -1.
         11    1    1    2    0    0  0.42497259776E+02  0.54901498711E+02 -0.38003992209E+03  0.38632956660E+03  0.00000000000E+00 0.  1.
        -15    1    3    3    0    0 -0.19243828767E+02  0.29425963722E+02  0.71120865602E+02  0.79357088780E+02  0.17770000000E+01 0.  1.
         15    1    3    3    0    0  0.70639109168E+02  0.36483761170E+02  0.36332121990E+03  0.37192259293E+03  0.17770000000E+01 0. -1.
</event>
<event>
 7    1  0.2288857E-006  0.5200877E+03  0.7546771E-02  0.9355951E-01
        -11   -1    0    0    0    0  0.00000000000E+00  0.00000000000E+00  0.50000000000E+03  0.50000000000E+03  0.00000000000E+00 0.  1.
         11   -1    0    0    0    0 -0.00000000000E+00 -0.00000000000E+00 -0.50000000000E+03  0.50000000000E+03  0.00000000000E+00 0. -1.
         23    2    1    2    0    0 -0.42001483763E+02 -0.12336824844E+02 -0.18044444424E+03  0.20694421206E+03  0.91374983262E+02 0.  0.
        -11    1    1    2    0    0  0.70666248035E+02 -0.13579342608E+03  0.45484308230E+03  0.47991228646E+03  0.00000000000E+00 0.  1.
         11    1    1    2    0    0 -0.28664764272E+02  0.14813025092E+03 -0.27439863806E+03  0.31314350148E+03  0.00000000000E+00 0. -1.
        -15    1    3    3    0    0 -0.49027464449E+02 -0.39014916160E+02 -0.16201927499E+03  0.17372178664E+03  0.17770000000E+01 0. -1.
         15    1    3    3    0    0  0.70259806855E+01  0.26678091315E+02 -0.18425169241E+02  0.33222425429E+02  0.17770000000E+01 0.  1.
</event>
<event>
 7    1  0.2288857E-006  0.5141023E+03  0.7546771E-02  0.9368796E-01
        -11   -1    0    0    0    0  0.00000000000E+00  0.00000000000E+00  0.50000000000E+03  0.50000000000E+03  0.00000000000E+00 0. -1.
         11   -1    0    0    0    0 -0.00000000000E+00 -0.00000000000E+00 -0.50000000000E+03  0.50000000000E+03  0.00000000000E+00 0. -1.
         23    2    1    2    0    0  0.19250232581E+02 -0.28653310185E+02 -0.19093591810E+03  0.21385112405E+03  0.89912150441E+02 0.  0.
        -11    1    1    2    0    0 -0.97142000841E+02 -0.28393708522E+02  0.47524080359E+03  0.48589771805E+03  0.00000000000E+00 0. -1.
         11    1    1    2    0    0  0.77891768260E+02  0.57047018707E+02 -0.28430488549E+03  0.30025115790E+03  0.00000000000E+00 0. -1.
        -15    1    3    3    0    0  0.38666584653E+02  0.14601511396E+02 -0.48641480278E+02  0.63854993825E+02  0.17770000000E+01 0.  1.
         15    1    3    3    0    0 -0.19416352071E+02 -0.43254821581E+02 -0.14229443782E+03  0.14999613022E+03  0.17770000000E+01 0. -1.
</event>
<event>
 7    1  0.2288857E-006  0.4506467E+03  0.7546771E-02  0.9517562E-01
        -11   -1    0    0    0    0  0.00000000000E+00  0.00000000000E+00  0.50000000000E+03  0.50000000000E+03  0.00000000000E+00 0.  1.
         11   -1    0    0    0    0 -0.00000000000E+00 -0.00000000000E+00 -0.50000000000E+03  0.50000000000E+03  0.00000000000E+00 0. -1.
         23    2    1    2    0    0 -0.23455153803E+01  0.63055263091E+02  0.46558162719E+03  0.47891004609E+03  0.92774527897E+02 0.  0.
        -11    1    1    2    0    0  0.62937089307E+02  0.46546898490E+02 -0.66153371948E+02  0.10248882666E+03  0.00000000000E+00 0.  1.
         11    1    1    2    0    0 -0.60591573926E+02 -0.10960216158E+03 -0.39942825524E+03  0.41860112725E+03  0.00000000000E+00 0. -1.
        -15    1    3    3    0    0 -0.34188851984E+02  0.58222032067E+02  0.40178167349E+03  0.40741913738E+03  0.17770000000E+01 0.  1.
         15    1    3    3    0    0  0.31843336604E+02  0.48332310238E+01  0.63799953694E+02  0.71490908712E+02  0.17770000000E+01 0. -1.
</event>
<event>
 7    1  0.2288857E-006  0.3792584E+03  0.7546771E-02  0.9719752E-01
        -11   -1    0    0    0    0  0.00000000000E+00  0.00000000000E+00  0.50000000000E+03  0.50000000000E+03  0.00000000000E+00 0.  1.
         11   -1    0    0    0    0 -0.00000000000E+00 -0.00000000000E+00 -0.50000000000E+03  0.50000000000E+03  0.00000000000E+00 0. -1.
         23    2    1    2    0    0 -0.15685584203E+03 -0.14548499246E+03  0.21325374087E+03  0.32543109986E+03  0.12107272423E+03 0.  0.
        -11    1    1    2    0    0  0.12711267980E+03 -0.11067214284E+03  0.15233371508E+03  0.22718168350E+03  0.00000000000E+00 0.  1.
         11    1    1    2    0    0  0.29743162234E+02  0.25615713530E+03 -0.36558745596E+03  0.44738721664E+03  0.00000000000E+00 0. -1.
        -15    1    3    3    0    0 -0.14800055239E+03 -0.16111275812E+03  0.21568173367E+03  0.30721857416E+03  0.17770000000E+01 0.  1.
         15    1    3    3    0    0 -0.88552896371E+01  0.15627765669E+02 -0.24279928016E+01  0.18212525701E+02  0.17770000000E+01 0. -1.
</event>
<event>
 7    1  0.2288857E-006  0.4259816E+03  0.7546771E-02  0.9582603E-01
        -11   -1    0    0    0    0  0.00000000000E+00  0.00000000000E+00  0.50000000000E+03  0.50000000000E+03  0.00000000000E+00 0.  1.
         11   -1    0    0    0    0 -0.00000000000E+00 -0.00000000000E+00 -0.50000000000E+03  0.50000000000E+03  0.00000000000E+00 0. -1.
         23    2    1    2    0    0  0.20517336237E+03 -0.30444467020E+02  0.32344031467E+03  0.39490310751E+03  0.91169364171E+02 0.  0.
        -11    1    1    2    0    0 -0.80943893197E+02  0.20924896837E+02  0.11900846272E+03  0.14543995102E+03  0.00000000000E+00 0.  1.
         11    1    1    2    0    0 -0.12422946918E+03  0.95195701831E+01 -0.44244877739E+03  0.45965694147E+03  0.00000000000E+00 0. -1.
        -15    1    3    3    0    0  0.47877933651E+02 -0.47698429122E+02  0.11161049715E+03  0.13048945350E+03  0.17770000000E+01 0.  1.
         15    1    3    3    0    0  0.15729542872E+03  0.17253962102E+02  0.21182981752E+03  0.26441365401E+03  0.17770000000E+01 0. -1.
</event>
<event>
 7    1  0.2288857E-006  0.3936517E+03  0.7546771E-02  0.9675346E-01
        -11   -1    0    0    0    0  0.00000000000E+00  0.00000000000E+00  0.50000000000E+03  0.50000000000E+03  0.00000000000E+00 0.  1.
         11   -1    0    0    0    0 -0.00000000000E+00 -0.00000000000E+00 -0.50000000000E+03  0.50000000000E+03  0.00000000000E+00 0.  1.
         23    2    1    2    0    0  0.16682657474E+03 -0.28454014195E+02 -0.40854583208E+02  0.19367715590E+03  0.84858746078E+02 0.  0.
        -11    1    1    2    0    0 -0.24866180937E+03  0.11483967317E+03  0.36769330285E+03  0.45849668585E+03  0.00000000000E+00 0.  1.
         11    1    1    2    0    0  0.81835234633E+02 -0.86385658973E+02 -0.32683871964E+03  0.34782615825E+03  0.00000000000E+00 0.  1.
        -15    1    3    3    0    0  0.56503470151E+02  0.22126107636E+02  0.10983427183E+02  0.61692788719E+02  0.17770000000E+01 0. -1.
         15    1    3    3    0    0  0.11032310459E+03 -0.50580121831E+02 -0.51838010391E+02  0.13198436718E+03  0.17770000000E+01 0.  1.
</event>
<event>
 7    1  0.2288857E-006  0.3318713E+03  0.7546771E-02  0.9882338E-01
        -11   -1    0    0    0    0  0.00000000000E+00  0.00000000000E+00  0.50000000000E+03  0.50000000000E+03  0.00000000000E+00 0. -1.
         11   -1    0    0    0    0 -0.00000000000E+00 -0.00000000000E+00 -0.50000000000E+03  0.50000000000E+03  0.00000000000E+00 0. -1.
         23    2    1    2    0    0 -0.20137540429E+03 -0.27653145497E+03  0.15332132484E+03  0.38786677374E+03  0.99556549134E+02 0.  0.
        -11    1    1    2    0    0  0.20952370539E+03  0.20874907577E+03  0.12827225958E+03  0.32238196651E+03  0.00000000000E+00 0. -1.
         11    1    1    2    0    0 -0.81483010976E+01  0.67782379201E+02 -0.28159358442E+03  0.28975125975E+03  0.00000000000E+00 0. -1.
        -15    1    3    3    0    0 -0.15017413157E+03 -0.26149155685E+03  0.14187620970E+03  0.33325983962E+03  0.17770000000E+01 0. -1.
         15    1    3    3    0    0 -0.51201272727E+02 -0.15039898124E+02  0.11445115146E+02  0.54606934121E+02  0.17770000000E+01 0.  1.
</event>
<event>
 7    1  0.2957777E-006  0.5071796E+03  0.7546771E-02  0.9383887E-01
        -11   -1    0    0    0    0  0.00000000000E+00  0.00000000000E+00  0.50000000000E+03  0.50000000000E+03  0.00000000000E+00 0. -1.
         11   -1    0    0    0    0 -0.00000000000E+00 -0.00000000000E+00 -0.50000000000E+03  0.50000000000E+03  0.00000000000E+00 0. -1.
         23    2    1    2    0    0  0.71225825189E+02  0.31571067965E+02 -0.35384508664E+03  0.37433186641E+03  0.94064607411E+02 0.  0.
        -11    1    1    2    0    0 -0.81624864807E+02 -0.67605447104E+02  0.48128876672E+03  0.49282044600E+03  0.00000000000E+00 0. -1.
         11    1    1    2    0    0  0.10399039618E+02  0.36034379139E+02 -0.12744368007E+03  0.13284768758E+03  0.00000000000E+00 0. -1.
        -15    1    3    3    0    0  0.35592371604E+02 -0.30734288546E+02 -0.18425982058E+03  0.19017426907E+03  0.17770000000E+01 0. -1.
         15    1    3    3    0    0  0.35633453585E+02  0.62305356510E+02 -0.16958526606E+03  0.18415759734E+03  0.17770000000E+01 0.  1.
</event>
<event>
 7    1  0.2288857E-006  0.5131821E+03  0.7546771E-02  0.9370788E-01
        -11   -1    0    0    0    0  0.00000000000E+00  0.00000000000E+00  0.50000000000E+03  0.50000000000E+03  0.00000000000E+00 0.  1.
         11   -1    0    0    0    0 -0.00000000000E+00 -0.00000000000E+00 -0.50000000000E+03  0.50000000000E+03  0.00000000000E+00 0.  1.
         23    2    1    2    0    0  0.11253501916E+02  0.65276472867E+02  0.35002503685E+03  0.37475752117E+03  0.11635297175E+03 0.  0.
        -11    1    1    2    0    0  0.57203796145E+02  0.29648551514E+02  0.12251548108E+03  0.13842454264E+03  0.00000000000E+00 0.  1.
         11    1    1    2    0    0 -0.68457298061E+02 -0.94925024381E+02 -0.47254051793E+03  0.48681793619E+03  0.00000000000E+00 0.  1.
        -15    1    3    3    0    0  0.76860608323E+01  0.82309818760E+02  0.34735550429E+03  0.35706159957E+03  0.17770000000E+01 0.  1.
         15    1    3    3    0    0  0.35674410833E+01 -0.17033345893E+02  0.26695325590E+01  0.17695921600E+02  0.17770000000E+01 0. -1.
</event>
<event>
 7    1  0.2363927E-006  0.5073045E+03  0.7546771E-02  0.9383612E-01
        -11   -1    0    0    0    0  0.00000000000E+00  0.00000000000E+00  0.50000000000E+03  0.50000000000E+03  0.00000000000E+00 0. -1.
         11   -1    0    0    0    0 -0.00000000000E+00 -0.00000000000E+00 -0.50000000000E+03  0.50000000000E+03  0.00000000000E+00 0. -1.
         23    2    1    2    0    0  0.62708846264E+02  0.80396124438E+02 -0.35748292517E+03  0.38295833780E+03  0.92016903188E+02 0.  0.
        -11    1    1    2    0    0 -0.93072898574E+02 -0.75160482721E+02  0.47795106667E+03  0.49269552945E+03  0.00000000000E+00 0. -1.
         11    1    1    2    0    0  0.30364052311E+02 -0.52356417170E+01 -0.12046814149E+03  0.12434613276E+03  0.00000000000E+00 0. -1.
        -15    1    3    3    0    0  0.42945302233E+02 -0.76403234640E+01 -0.79555677959E+02  0.90746554486E+02  0.17770000000E+01 0.  1.
         15    1    3    3    0    0  0.19763544030E+02  0.88036447902E+02 -0.27792724721E+03  0.29221178331E+03  0.17770000000E+01 0. -1.
</event>
<event>
 7    1  0.2288857E-006  0.3574987E+03  0.7546771E-02  0.9791050E-01
        -11   -1    0    0    0    0  0.00000000000E+00  0.00000000000E+00  0.50000000000E+03  0.50000000000E+03  0.00000000000E+00 0.  1.
         11   -1    0    0    0    0 -0.00000000000E+00 -0.00000000000E+00 -0.50000000000E+03  0.50000000000E+03  0.00000000000E+00 0. -1.
         23    2    1    2    0    0 -0.22430589608E+03 -0.12652040710E+03  0.23065002469E+03  0.35804713858E+03  0.93154555076E+02 0.  0.
        -11    1    1    2    0    0  0.35554898277E+03 -0.70382262857E+02 -0.14072690203E+03  0.38880946880E+03  0.00000000000E+00 0.  1.
         11    1    1    2    0    0 -0.13124308669E+03  0.19690266995E+03 -0.89923122653E+02  0.25314339262E+03  0.00000000000E+00 0. -1.
        -15    1    3    3    0    0 -0.12344245390E+03 -0.84880640914E+02  0.18913171541E+03  0.24128142517E+03  0.17770000000E+01 0.  1.
         15    1    3    3    0    0 -0.10086344218E+03 -0.41639766181E+02  0.41518309278E+02  0.11676571342E+03  0.17770000000E+01 0. -1.
</event>
<event>
 7    1  0.2288857E-006  0.5190801E+03  0.7546771E-02  0.9358100E-01
        -11   -1    0    0    0    0  0.00000000000E+00  0.00000000000E+00  0.50000000000E+03  0.50000000000E+03  0.00000000000E+00 0. -1.
         11   -1    0    0    0    0 -0.00000000000E+00 -0.00000000000E+00 -0.50000000000E+03  0.50000000000E+03  0.00000000000E+00 0.  1.
         23    2    1    2    0    0 -0.26427282349E+02  0.12375927021E+01  0.24635681557E+03  0.26400469893E+03  0.91142018788E+02 0.  0.
        -11    1    1    2    0    0 -0.15587163966E+03  0.49335380173E+02  0.19578952057E+03  0.25507544796E+03  0.00000000000E+00 0. -1.
         11    1    1    2    0    0  0.18229892201E+03 -0.50572972876E+02 -0.44214633615E+03  0.48091985311E+03  0.00000000000E+00 0.  1.
        -15    1    3    3    0    0 -0.21640878152E+01  0.44059009528E+02  0.14005482208E+03  0.14684818867E+03  0.17770000000E+01 0.  1.
         15    1    3    3    0    0 -0.24263194534E+02 -0.42821416826E+02  0.10630199349E+03  0.11715651026E+03  0.17770000000E+01 0. -1.
</event>
<event>
 7    1  0.2288857E-006  0.3733503E+03  0.7546771E-02  0.9738594E-01
        -11   -1    0    0    0    0  0.00000000000E+00  0.00000000000E+00  0.50000000000E+03  0.50000000000E+03  0.00000000000E+00 0.  1.
         11   -1    0    0    0    0 -0.00000000000E+00 -0.00000000000E+00 -0.50000000000E+03  0.50000000000E+03  0.00000000000E+00 0. -1.
         23    2    1    2    0    0 -0.17562266534E+02  0.26158906451E+03 -0.17053839047E+03  0.32511969099E+03  0.88781749071E+02 0.  0.
        -11    1    1    2    0    0 -0.11888473048E+03 -0.24367740450E+03  0.35377335559E+03  0.44572171109E+03  0.00000000000E+00 0.  1.
         11    1    1    2    0    0  0.13644699702E+03 -0.17911660012E+02 -0.18323496513E+03  0.22915859793E+03  0.00000000000E+00 0. -1.
        -15    1    3    3    0    0  0.29689526851E+02  0.16106159738E+03 -0.12017341398E+03  0.20314308581E+03  0.17770000000E+01 0. -1.
         15    1    3    3    0    0 -0.47251793385E+02  0.10052746713E+03 -0.50364976489E+02  0.12197660518E+03  0.17770000000E+01 0.  1.
</event>
<event>
 7    1  0.2288857E-006  0.5246793E+03  0.7546771E-02  0.9346220E-01
        -11   -1    0    0    0    0  0.00000000000E+00  0.00000000000E+00  0.50000000000E+03  0.50000000000E+03  0.00000000000E+00 0. -1.
         11   -1    0    0    0    0 -0.00000000000E+00 -0.00000000000E+00 -0.50000000000E+03  0.50000000000E+03  0.00000000000E+00 0. -1.
         23    2    1    2    0    0 -0.16899675839E+03  0.86309723457E+02 -0.25981522898E+03  0.33544501214E+03  0.94921705888E+02 0.  0.
        -11    1    1    2    0    0  0.13000713918E+03 -0.17492701402E+03  0.42240794742E+03  0.47532072384E+03  0.00000000000E+00 0. -1.
         11    1    1    2    0    0  0.38989619209E+02  0.88617290560E+02 -0.16259271843E+03  0.18923426402E+03  0.00000000000E+00 0. -1.
        -15    1    3    3    0    0 -0.82659250344E+02  0.93409247623E+02 -0.13894903053E+03  0.18672929611E+03  0.17770000000E+01 0.  1.
         15    1    3    3    0    0 -0.86337508044E+02 -0.70995241666E+01 -0.12086619845E+03  0.14871571603E+03  0.17770000000E+01 0. -1.
</event>
<event>
 7    1  0.2473594E-006  0.5063672E+03  0.7546771E-02  0.9385674E-01
        -11   -1    0    0    0    0  0.00000000000E+00  0.00000000000E+00  0.50000000000E+03  0.50000000000E+03  0.00000000000E+00 0.  1.
         11   -1    0    0    0    0 -0.00000000000E+00 -0.00000000000E+00 -0.50000000000E+03  0.50000000000E+03  0.00000000000E+00 0. -1.
         23    2    1    2    0    0  0.76155077326E+02 -0.11762338924E+02 -0.33526136479E+03  0.35659687940E+03  0.93931907565E+02 0.  0.
        -11    1    1    2    0    0 -0.10188081321E+03  0.18674157447E+02  0.48264370365E+03  0.49363282805E+03  0.00000000000E+00 0.  1.
         11    1    1    2    0    0  0.25725735887E+02 -0.69118185233E+01 -0.14738233886E+03  0.14977029255E+03  0.00000000000E+00 0. -1.
        -15    1    3    3    0    0  0.71328327096E+02 -0.45700909597E+02 -0.26811561897E+03  0.28118578600E+03  0.17770000000E+01 0. -1.
         15    1    3    3    0    0  0.48267502297E+01  0.33938570673E+02 -0.67145745813E+02  0.75411093395E+02  0.17770000000E+01 0.  1.
</event>
<event>
 7    1  0.2288857E-006  0.5067649E+03  0.7546771E-02  0.9384799E-01
        -11   -1    0    0    0    0  0.00000000000E+00  0.00000000000E+00  0.50000000000E+03  0.50000000000E+03  0.00000000000E+00 0. -1.
         11   -1    0    0    0    0 -0.00000000000E+00 -0.00000000000E+00 -0.50000000000E+03  0.50000000000E+03  0.00000000000E+00 0. -1.
         23    2    1    2    0    0  0.97855630373E+02  0.45068079413E+02 -0.31199387613E+03  0.34232121127E+03  0.90756689937E+02 0.  0.
        -11    1    1    2    0    0 -0.12234025491E+03 -0.65125893510E+02  0.47336277741E+03  0.49323507481E+03  0.00000000000E+00 0. -1.
         11    1    1    2    0    0  0.24484624541E+02  0.20057814097E+02 -0.16136890128E+03  0.16444371392E+03  0.00000000000E+00 0. -1.
        -15    1    3    3    0    0  0.13734725986E+02 -0.26698883606E+02 -0.74466975202E+02  0.80311650515E+02  0.17770000000E+01 0.  1.
         15    1    3    3    0    0  0.84120904387E+02  0.71766963019E+02 -0.23752690093E+03  0.26200956076E+03  0.17770000000E+01 0. -1.
</event>
<event>
 7    1  0.2288857E-006  0.5087629E+03  0.7546771E-02  0.9380413E-01
        -11   -1    0    0    0    0  0.00000000000E+00  0.00000000000E+00  0.50000000000E+03  0.50000000000E+03  0.00000000000E+00 0.  1.
         11   -1    0    0    0    0 -0.00000000000E+00 -0.00000000000E+00 -0.50000000000E+03  0.50000000000E+03  0.00000000000E+00 0.  1.
         23    2    1    2    0    0 -0.48287080780E+02 -0.12214329956E+03  0.46435464491E+03  0.49123708476E+03  0.91858638089E+02 0.  0.
        -11    1    1    2    0    0 -0.77289005268E+01  0.10029738705E+03 -0.10887004784E+03  0.14822951483E+03  0.00000000000E+00 0.  1.
         11    1    1    2    0    0  0.56015981307E+02  0.21845912514E+02 -0.35548459707E+03  0.36053340041E+03  0.00000000000E+00 0.  1.
        -15    1    3    3    0    0 -0.74967014297E+02 -0.91896517646E+02  0.31739033893E+03  0.33882858227E+03  0.17770000000E+01 0.  1.
         15    1    3    3    0    0  0.26679933517E+02 -0.30246781915E+02  0.14696430598E+03  0.15240850248E+03  0.17770000000E+01 0. -1.
</event>
<event>
 7    1  0.2288857E-006  0.4248216E+03  0.7546771E-02  0.9585776E-01
        -11   -1    0    0    0    0  0.00000000000E+00  0.00000000000E+00  0.50000000000E+03  0.50000000000E+03  0.00000000000E+00 0. -1.
         11   -1    0    0    0    0 -0.00000000000E+00 -0.00000000000E+00 -0.50000000000E+03  0.50000000000E+03  0.00000000000E+00 0. -1.
         23    2    1    2    0    0  0.10019623240E+03 -0.21250644976E+03  0.33871773241E+03  0.42200244936E+03  0.90322139281E+02 0.  0.
        -11    1    1    2    0    0  0.13908264615E+03  0.42227984161E+02 -0.23619305052E+02  0.14725846895E+03  0.00000000000E+00 0. -1.
         11    1    1    2    0    0 -0.23927887855E+03  0.17027846560E+03 -0.31509842736E+03  0.43073908168E+03  0.00000000000E+00 0. -1.
        -15    1    3    3    0    0  0.36671916869E+02 -0.12980502045E+02  0.81492975339E+02  0.90319353844E+02  0.17770000000E+01 0.  1.
         15    1    3    3    0    0  0.63524315531E+02 -0.19952594771E+03  0.25722475707E+03  0.33168309552E+03  0.17770000000E+01 0. -1.
</event>
<event>
 7    1  0.2288857E-006  0.4554580E+03  0.7546771E-02  0.9505392E-01
        -11   -1    0    0    0    0  0.00000000000E+00  0.00000000000E+00  0.50000000000E+03  0.50000000000E+03  0.00000000000E+00 0.  1.
         11   -1    0    0    0    0 -0.00000000000E+00 -0.00000000000E+00 -0.50000000000E+03  0.50000000000E+03  0.00000000000E+00 0. -1.
         23    2    1    2    0    0  0.16440824590E+02  0.95293745249E+01  0.44239894802E+03  0.45219715614E+03  0.91675128160E+02 0.  0.
        -11    1    1    2    0    0 -0.75842700908E+02 -0.54494855066E+02  0.56888921719E+01  0.93563710935E+02  0.00000000000E+00 0.  1.
         11    1    1    2    0    0  0.59401876318E+02  0.44965480541E+02 -0.44808784019E+03  0.45423913292E+03  0.00000000000E+00 0. -1.
        -15    1    3    3    0    0  0.53874926467E+02  0.87276039637E+01  0.30104817306E+03  0.30596051870E+03  0.17770000000E+01 0.  1.
         15    1    3    3    0    0 -0.37434101877E+02  0.80177056122E+00  0.14135077496E+03  0.14623663744E+03  0.17770000000E+01 0. -1.
</event>
<event>
 7    1  0.2288857E-006  0.5172676E+03  0.7546771E-02  0.9361980E-01
        -11   -1    0    0    0    0  0.00000000000E+00  0.00000000000E+00  0.50000000000E+03  0.50000000000E+03  0.00000000000E+00 0.  1.
         11   -1    0    0    0    0 -0.00000000000E+00 -0.00000000000E+00 -0.50000000000E+03  0.50000000000E+03  0.00000000000E+00 0. -1.
         23    2    1    2    0    0  0.52254524066E+02 -0.28053647572E+00 -0.12364707300E+03  0.16234769168E+03  0.91310242275E+02 0.  0.
        -11    1    1    2    0    0 -0.77056671611E+02 -0.54974155521E+02  0.47336108339E+03  0.48273243487E+03  0.00000000000E+00 0.  1.
         11    1    1    2    0    0  0.24802147545E+02  0.55254691997E+02 -0.34971401038E+03  0.35491987345E+03  0.00000000000E+00 0. -1.
        -15    1    3    3    0    0  0.14396461870E+02 -0.22453076948E+02 -0.11439200719E+03  0.11747377502E+03  0.17770000000E+01 0. -1.
         15    1    3    3    0    0  0.37858062197E+02  0.22172540472E+02 -0.92550658145E+01  0.44873916661E+02  0.17770000000E+01 0.  1.
</event>
<event>
 7    1  0.2288857E-006  0.4367979E+03  0.7546771E-02  0.9553518E-01
        -11   -1    0    0    0    0  0.00000000000E+00  0.00000000000E+00  0.50000000000E+03  0.50000000000E+03  0.00000000000E+00 0.  1.
         11   -1    0    0    0    0 -0.00000000000E+00 -0.00000000000E+00 -0.50000000000E+03  0.50000000000E+03  0.00000000000E+00 0.  1.
         23    2    1    2    0    0 -0.26607889930E+03  0.67388718858E+02  0.29248436027E+03  0.41152106569E+03  0.91996013091E+02 0.  0.
        -11    1    1    2    0    0  0.24623990361E+03  0.11123821552E+02 -0.39022145964E+03  0.46155239908E+03  0.00000000000E+00 0.  1.
         11    1    1    2    0    0  0.19838995693E+02 -0.78512540410E+02  0.97737099370E+02  0.12692653523E+03  0.00000000000E+00 0.  1.
        -15    1    3    3    0    0 -0.20285116311E+02 -0.18560726518E+02  0.41835741180E+02  0.50093647119E+02  0.17770000000E+01 0. -1.
         15    1    3    3    0    0 -0.24579378299E+03  0.85949445376E+02  0.25064861909E+03  0.36142741857E+03  0.17770000000E+01 0.  1.
</event>
<event>
 7    1  0.2288857E-006  0.5083957E+03  0.7546771E-02  0.9381217E-01
        -11   -1    0    0    0    0  0.00000000000E+00  0.00000000000E+00  0.50000000000E+03  0.50000000000E+03  0.00000000000E+00 0.  1.
         11   -1    0    0    0    0 -0.00000000000E+00 -0.00000000000E+00 -0.50000000000E+03  0.50000000000E+03  0.00000000000E+00 0. -1.
         23    2    1    2    0    0 -0.23530354234E+02 -0.61721190275E+02  0.22953169485E+03  0.25520360165E+03  0.89893806527E+02 0.  0.
        -11    1    1    2    0    0 -0.15288715131E+02 -0.83772344821E+02  0.23844216940E+03  0.25319205895E+03  0.00000000000E+00 0.  1.
         11    1    1    2    0    0  0.38819069365E+02  0.14549353510E+03 -0.46797386425E+03  0.49160433941E+03  0.00000000000E+00 0. -1.
        -15    1    3    3    0    0  0.22500177891E+01 -0.77860328843E+02  0.13484351754E+03  0.15573447062E+03  0.17770000000E+01 0. -1.
         15    1    3    3    0    0 -0.25780372023E+02  0.16139138568E+02  0.94688177315E+02  0.99469131029E+02  0.17770000000E+01 0.  1.
</event>
<event>
 7    1  0.3292597E-006  0.5074870E+03  0.7546771E-02  0.9383211E-01
        -11   -1    0    0    0    0  0.00000000000E+00  0.00000000000E+00  0.50000000000E+03  0.50000000000E+03  0.00000000000E+00 0.  1.
         11   -1    0    0    0    0 -0.00000000000E+00 -0.00000000000E+00 -0.50000000000E+03  0.50000000000E+03  0.00000000000E+00 0. -1.
         23    2    1    2    0    0 -0.52693010474E+02  0.35357978830E+01 -0.29528464953E+03  0.31324178108E+03  0.90212714964E+02 0.  0.
        -11    1    1    2    0    0  0.90496765694E+02  0.26800207712E+02  0.48338512953E+03  0.49251304468E+03  0.00000000000E+00 0.  1.
         11    1    1    2    0    0 -0.37803755219E+02 -0.30336005595E+02 -0.18810047999E+03  0.19424517424E+03  0.00000000000E+00 0. -1.
        -15    1    3    3    0    0 -0.75869539000E+01 -0.31988598000E+02 -0.41171792065E+02  0.52717231171E+02  0.17770000000E+01 0. -1.
         15    1    3    3    0    0 -0.45106056574E+02  0.35524395883E+02 -0.25411285747E+03  0.26052454990E+03  0.17770000000E+01 0.  1.
</event>
<event>
 7    1  0.2288857E-006  0.5068362E+03  0.7546771E-02  0.9384642E-01
        -11   -1    0    0    0    0  0.00000000000E+00  0.00000000000E+00  0.50000000000E+03  0.50000000000E+03  0.00000000000E+00 0. -1.
         11   -1    0    0    0    0 -0.00000000000E+00 -0.00000000000E+00 -0.50000000000E+03  0.50000000000E+03  0.00000000000E+00 0.  1.
         23    2    1    2    0    0 -0.31575696740E+02  0.78177920594E+02 -0.30377536293E+03  0.32794365490E+03  0.90325842212E+02 0.  0.
        -11    1    1    2    0    0  0.31416438065E+02 -0.13718476356E+03  0.47265615896E+03  0.49316376239E+03  0.00000000000E+00 0. -1.
         11    1    1    2    0    0  0.15925867499E+00  0.59006842963E+02 -0.16888079603E+03  0.17889258271E+03  0.00000000000E+00 0.  1.
        -15    1    3    3    0    0 -0.58092982374E+02  0.42057332903E+02 -0.13006768753E+03  0.14854081904E+03  0.17770000000E+01 0.  1.
         15    1    3    3    0    0  0.26517285634E+02  0.36120587690E+02 -0.17370767540E+03  0.17940283586E+03  0.17770000000E+01 0. -1.
</event>
<event>
 7    1  0.2288857E-006  0.4564542E+03  0.7546771E-02  0.9502892E-01
        -11   -1    0    0    0    0  0.00000000000E+00  0.00000000000E+00  0.50000000000E+03  0.50000000000E+03  0.00000000000E+00 0. -1.
         11   -1    0    0    0    0 -0.00000000000E+00 -0.00000000000E+00 -0.50000000000E+03  0.50000000000E+03  0.00000000000E+00 0.  1.
         23    2    1    2    0    0 -0.85291179674E+02  0.10812626537E+03 -0.37983555014E+03  0.41529143986E+03  0.96052383019E+02 0.  0.
        -11    1    1    2    0    0  0.73274416452E+02 -0.12929206403E+03  0.46915618734E+03  0.49213118784E+03  0.00000000000E+00 0. -1.
         11    1    1    2    0    0  0.12016763221E+02  0.21165798664E+02 -0.89320637202E+02  0.92577372297E+02  0.00000000000E+00 0.  1.
        -15    1    3    3    0    0 -0.19996329414E+02  0.89529066158E+02 -0.15196744594E+03  0.17751779976E+03  0.17770000000E+01 0. -1.
         15    1    3    3    0    0 -0.65294850260E+02  0.18597199209E+02 -0.22786810419E+03  0.23777364010E+03  0.17770000000E+01 0.  1.
</event>
<event>
 7    1  0.2288857E-006  0.5129314E+03  0.7546771E-02  0.9371331E-01
        -11   -1    0    0    0    0  0.00000000000E+00  0.00000000000E+00  0.50000000000E+03  0.50000000000E+03  0.00000000000E+00 0.  1.
         11   -1    0    0    0    0 -0.00000000000E+00 -0.00000000000E+00 -0.50000000000E+03  0.50000000000E+03  0.00000000000E+00 0. -1.
         23    2    1    2    0    0  0.53781559255E+02  0.26201104250E+02  0.18826127876E+03  0.21761080516E+03  0.91286359665E+02 0.  0.
        -11    1    1    2    0    0 -0.79857191152E+01  0.64163716363E+02  0.28815532212E+03  0.29532057814E+03  0.00000000000E+00 0.  1.
         11    1    1    2    0    0 -0.45795840140E+02 -0.90364820613E+02 -0.47641660088E+03  0.48706861670E+03  0.00000000000E+00 0. -1.
        -15    1    3    3    0    0  0.34256378073E+02 -0.95008455966E+01  0.16872191885E+03  0.17243552167E+03  0.17770000000E+01 0.  1.
         15    1    3    3    0    0  0.19525181182E+02  0.35701949847E+02  0.19539359910E+02  0.45175283483E+02  0.17770000000E+01 0. -1.
</event>
<event>
 7    1  0.2288857E-006  0.3830267E+03  0.7546771E-02  0.9707925E-01
        -11   -1    0    0    0    0  0.00000000000E+00  0.00000000000E+00  0.50000000000E+03  0.50000000000E+03  0.00000000000E+00 0.  1.
         11   -1    0    0    0    0 -0.00000000000E+00 -0.00000000000E+00 -0.50000000000E+03  0.50000000000E+03  0.00000000000E+00 0. -1.
         23    2    1    2    0    0  0.21214955269E+03 -0.19325959316E+02  0.26675877161E+03  0.35363716242E+03  0.92293417994E+02 0.  0.
        -11    1    1    2    0    0 -0.11922210637E+03  0.10423264977E+03  0.14565946770E+03  0.21516281383E+03  0.00000000000E+00 0.  1.
         11    1    1    2    0    0 -0.92927446320E+02 -0.84906690458E+02 -0.41241823931E+03  0.43120002375E+03  0.00000000000E+00 0. -1.
        -15    1    3    3    0    0  0.19167550910E+03 -0.36775147103E+02  0.26127032115E+03  0.32612459379E+03  0.17770000000E+01 0.  1.
         15    1    3    3    0    0  0.20474043591E+02  0.17449187787E+02  0.54884504660E+01  0.27512568635E+02  0.17770000000E+01 0. -1.
</event>
<event>
 7    1  0.2288857E-006  0.5084418E+03  0.7546771E-02  0.9381116E-01
        -11   -1    0    0    0    0  0.00000000000E+00  0.00000000000E+00  0.50000000000E+03  0.50000000000E+03  0.00000000000E+00 0.  1.
         11   -1    0    0    0    0 -0.00000000000E+00 -0.00000000000E+00 -0.50000000000E+03  0.50000000000E+03  0.00000000000E+00 0. -1.
         23    2    1    2    0    0 -0.42484302805E+02  0.90542985019E+02 -0.22388519101E+03  0.26114320298E+03  0.89823413360E+02 0.  0.
        -11    1    1    2    0    0  0.88899918149E+02 -0.20906202806E+03  0.43591210231E+03  0.49155822439E+03  0.00000000000E+00 0.  1.
         11    1    1    2    0    0 -0.46415615344E+02  0.11851904304E+03 -0.21202691130E+03  0.24729857263E+03  0.00000000000E+00 0. -1.
        -15    1    3    3    0    0 -0.19259621880E+02  0.64565462863E+02 -0.21474668667E+03  0.22507538558E+03  0.17770000000E+01 0. -1.
         15    1    3    3    0    0 -0.23224680925E+02  0.25977522156E+02 -0.91385043429E+01  0.36067817401E+02  0.17770000000E+01 0.  1.
</event>
<event>
 7    1  0.2288857E-006  0.4224494E+03  0.7546771E-02  0.9592301E-01
        -11   -1    0    0    0    0  0.00000000000E+00  0.00000000000E+00  0.50000000000E+03  0.50000000000E+03  0.00000000000E+00 0.  1.
         11   -1    0    0    0    0 -0.00000000000E+00 -0.00000000000E+00 -0.50000000000E+03  0.50000000000E+03  0.00000000000E+00 0. -1.
         23    2    1    2    0    0 -0.30975090289E+03 -0.17244347880E+03 -0.19137267616E+03  0.41214896638E+03  0.86953401805E+02 0.  0.
        -11    1    1    2    0    0  0.24541605982E+03  0.15567658355E+03  0.32658658605E+03  0.43717621078E+03  0.00000000000E+00 0.  1.
         11    1    1    2    0    0  0.64334843067E+02  0.16766895247E+02 -0.13521390990E+03  0.15067482284E+03  0.00000000000E+00 0. -1.
        -15    1    3    3    0    0 -0.10758168548E+03 -0.97843810279E+02 -0.10772344250E+03  0.18098267335E+03  0.17770000000E+01 0. -1.
         15    1    3    3    0    0 -0.20216921740E+03 -0.74599668520E+02 -0.83649233659E+02  0.23116629302E+03  0.17770000000E+01 0.  1.
</event>
<event>
 7    1  0.2288857E-006  0.4157161E+03  0.7546771E-02  0.9611072E-01
        -11   -1    0    0    0    0  0.00000000000E+00  0.00000000000E+00  0.50000000000E+03  0.50000000000E+03  0.00000000000E+00 0.  1.
         11   -1    0    0    0    0 -0.00000000000E+00 -0.00000000000E+00 -0.50000000000E+03  0.50000000000E+03  0.00000000000E+00 0. -1.
         23    2    1    2    0    0 -0.75407877085E+02 -0.12447868920E+03  0.38038608712E+03  0.41830902324E+03  0.95433598180E+02 0.  0.
        -11    1    1    2    0    0  0.14040687304E+03  0.78242932592E+02  0.30097098535E+02  0.16352945251E+03  0.00000000000E+00 0.  1.
         11    1    1    2    0    0 -0.64998995952E+02  0.46235756606E+02 -0.41048318565E+03  0.41816152425E+03  0.00000000000E+00 0. -1.
        -15    1    3    3    0    0 -0.28993883098E+01 -0.42348433948E+02  0.22001934478E+03  0.22408361412E+03  0.17770000000E+01 0.  1.
         15    1    3    3    0    0 -0.72508488775E+02 -0.82130255249E+02  0.16036674234E+03  0.19422540913E+03  0.17770000000E+01 0. -1.
</event>
<event>
 7    1  0.2288857E-006  0.4909177E+03  0.7546771E-02  0.9420364E-01
        -11   -1    0    0    0    0  0.00000000000E+00  0.00000000000E+00  0.50000000000E+03  0.50000000000E+03  0.00000000000E+00 0. -1.
         11   -1    0    0    0    0 -0.00000000000E+00 -0.00000000000E+00 -0.50000000000E+03  0.50000000000E+03  0.00000000000E+00 0. -1.
         23    2    1    2    0    0 -0.16120439641E+03  0.30786448627E+02 -0.44288247615E+03  0.48116907393E+03  0.91891932113E+02 0.  0.
        -11    1    1    2    0    0  0.15696232356E+03 -0.19108065898E+02  0.46626797573E+03  0.49234958555E+03  0.00000000000E+00 0. -1.
         11    1    1    2    0    0  0.42420728513E+01 -0.11678382729E+02 -0.23385499581E+02  0.26481340523E+02  0.00000000000E+00 0. -1.
        -15    1    3    3    0    0 -0.63385178171E+02  0.12906861209E+02 -0.70333270324E+02  0.95572980081E+02  0.17770000000E+01 0.  1.
         15    1    3    3    0    0 -0.97819218237E+02  0.17879587418E+02 -0.37254920582E+03  0.38559609385E+03  0.17770000000E+01 0. -1.
</event>
<event>
 7    1  0.2288857E-006  0.4183558E+03  0.7546771E-02  0.9603668E-01
        -11   -1    0    0    0    0  0.00000000000E+00  0.00000000000E+00  0.50000000000E+03  0.50000000000E+03  0.00000000000E+00 0. -1.
         11   -1    0    0    0    0 -0.00000000000E+00 -0.00000000000E+00 -0.50000000000E+03  0.50000000000E+03  0.00000000000E+00 0.  1.
         23    2    1    2    0    0  0.10690834679E+03 -0.24956781105E+03  0.37539118781E+03  0.47560538937E+03  0.10755675520E+03 0.  0.
        -11    1    1    2    0    0 -0.53899341122E+02  0.14922061434E+03 -0.30829346788E+02  0.16162419169E+03  0.00000000000E+00 0. -1.
         11    1    1    2    0    0 -0.53009005670E+02  0.10034719671E+03 -0.34456184102E+03  0.36277041894E+03  0.00000000000E+00 0.  1.
        -15    1    3    3    0    0  0.10163239207E+03 -0.23933710019E+03  0.38208422239E+03  0.46217193919E+03  0.17770000000E+01 0. -1.
         15    1    3    3    0    0  0.52759547216E+01 -0.10230710858E+02 -0.66930345806E+01  0.13433450182E+02  0.17770000000E+01 0.  1.
</event>
<event>
 7    1  0.2288857E-006  0.5333533E+03  0.7546771E-02  0.9328124E-01
        -11   -1    0    0    0    0  0.00000000000E+00  0.00000000000E+00  0.50000000000E+03  0.50000000000E+03  0.00000000000E+00 0.  1.
         11   -1    0    0    0    0 -0.00000000000E+00 -0.00000000000E+00 -0.50000000000E+03  0.50000000000E+03  0.00000000000E+00 0. -1.
         23    2    1    2    0    0 -0.67098882511E+01 -0.83960356980E+02  0.32385489309E+03  0.34703908876E+03  0.91977025387E+02 0.  0.
        -11    1    1    2    0    0 -0.13272943191E+03 -0.10326318635E+03  0.80203474180E+02  0.18631421047E+03  0.00000000000E+00 0.  1.
         11    1    1    2    0    0  0.13943932016E+03  0.18722354333E+03 -0.40405836727E+03  0.46664670078E+03  0.00000000000E+00 0. -1.
        -15    1    3    3    0    0 -0.13922334293E+02 -0.97227868400E+02  0.31378199544E+03  0.32879992119E+03  0.17770000000E+01 0.  1.
         15    1    3    3    0    0  0.72124460418E+01  0.13267511420E+02  0.10072897653E+02  0.18239167561E+02  0.17770000000E+01 0. -1.
</event>
<event>
 6    1  0.3777509E-006  0.3969406E+03  0.7546771E-02  0.9665484E-01
        -11   -1    0    0    0    0  0.00000000000E+00  0.00000000000E+00  0.50000000000E+03  0.50000000000E+03  0.00000000000E+00 0.  1.
         11   -1    0    0    0    0 -0.00000000000E+00 -0.00000000000E+00 -0.50000000000E+03  0.50000000000E+03  0.00000000000E+00 0. -1.
        -11    1    1    2    0    0 -0.86169819126E+02 -0.11448365889E+03  0.38472158792E+03  0.41053921383E+03  0.00000000000E+00 0.  1.
         11    1    1    2    0    0  0.54963600080E+02  0.51251061471E+02 -0.37911031256E+03  0.38648712491E+03  0.00000000000E+00 0. -1.
        -15    1    1    2    0    0 -0.27858760428E+02 -0.39047073534E+02 -0.56689162772E+02  0.74280572082E+02  0.17770000000E+01 0.  1.
         15    1    1    2    0    0  0.59064979473E+02  0.10227967095E+03  0.51077887408E+02  0.12869308917E+03  0.17770000000E+01 0. -1.
</event>
<event>
 7    1  0.2288857E-006  0.5381093E+03  0.7546771E-02  0.9318356E-01
        -11   -1    0    0    0    0  0.00000000000E+00  0.00000000000E+00  0.50000000000E+03  0.50000000000E+03  0.00000000000E+00 0.  1.
         11   -1    0    0    0    0 -0.00000000000E+00 -0.00000000000E+00 -0.50000000000E+03  0.50000000000E+03  0.00000000000E+00 0. -1.
         23    2    1    2    0    0 -0.33625448341E+01 -0.24092450128E+02 -0.40332049872E+02  0.10168359273E+03  0.90117289815E+02 0.  0.
        -11    1    1    2    0    0  0.32415723743E+02 -0.18796022872E+03  0.42066997563E+03  0.46189073938E+03  0.00000000000E+00 0.  1.
         11    1    1    2    0    0 -0.29053178909E+02  0.21205267885E+03 -0.38033792576E+03  0.43642566788E+03  0.00000000000E+00 0. -1.
        -15    1    3    3    0    0  0.28272114427E+02  0.10404819308E+02 -0.45458788710E+02  0.54564016705E+02  0.17770000000E+01 0. -1.
         15    1    3    3    0    0 -0.31634659261E+02 -0.34497269436E+02  0.51267388386E+01  0.47119576029E+02  0.17770000000E+01 0.  1.
</event>
<event>
 7    1  0.2288857E-006  0.5129794E+03  0.7546771E-02  0.9371227E-01
        -11   -1    0    0    0    0  0.00000000000E+00  0.00000000000E+00  0.50000000000E+03  0.50000000000E+03  0.00000000000E+00 0. -1.
         11   -1    0    0    0    0 -0.00000000000E+00 -0.00000000000E+00 -0.50000000000E+03  0.50000000000E+03  0.00000000000E+00 0.  1.
         23    2    1    2    0    0  0.85288826348E+02 -0.12604438617E+02  0.34043091735E+03  0.36285166560E+03  0.91296582460E+02 0.  0.
        -11    1    1    2    0    0  0.96766002865E+02 -0.37445450440E+02  0.10850125204E+03  0.15012775480E+03  0.00000000000E+00 0. -1.
         11    1    1    2    0    0 -0.18205482921E+03  0.50049889057E+02 -0.44893216939E+03  0.48702057959E+03  0.00000000000E+00 0.  1.
        -15    1    3    3    0    0  0.54506596019E+02 -0.35543260486E+02  0.30035117555E+03  0.30732438686E+03  0.17770000000E+01 0.  1.
         15    1    3    3    0    0  0.30782230329E+02  0.22938821869E+02  0.40079741805E+02  0.55527278746E+02  0.17770000000E+01 0. -1.
</event>
<event>
 7    1  0.2288857E-006  0.5171588E+03  0.7546771E-02  0.9362213E-01
        -11   -1    0    0    0    0  0.00000000000E+00  0.00000000000E+00  0.50000000000E+03  0.50000000000E+03  0.00000000000E+00 0.  1.
         11   -1    0    0    0    0 -0.00000000000E+00 -0.00000000000E+00 -0.50000000000E+03  0.50000000000E+03  0.00000000000E+00 0. -1.
         23    2    1    2    0    0  0.24627917548E+02 -0.21759655272E+02  0.17526916398E+03  0.20015450561E+03  0.90898456286E+02 0.  0.
        -11    1    1    2    0    0  0.89297699206E+02 -0.16665661877E+03  0.25444688482E+03  0.31700429786E+03  0.00000000000E+00 0.  1.
         11    1    1    2    0    0 -0.11392561675E+03  0.18841627404E+03 -0.42971604880E+03  0.48284119653E+03  0.00000000000E+00 0. -1.
        -15    1    3    3    0    0  0.26934488534E+02  0.31498369470E+02  0.57817720585E+02  0.71159402011E+02  0.17770000000E+01 0.  1.
         15    1    3    3    0    0 -0.23065709858E+01 -0.53258024743E+02  0.11745144339E+03  0.12899510360E+03  0.17770000000E+01 0. -1.
</event>
<event>
 7    1  0.2288857E-006  0.3606679E+03  0.7546771E-02  0.9780332E-01
        -11   -1    0    0    0    0  0.00000000000E+00  0.00000000000E+00  0.50000000000E+03  0.50000000000E+03  0.00000000000E+00 0. -1.
         11   -1    0    0    0    0 -0.00000000000E+00 -0.00000000000E+00 -0.50000000000E+03  0.50000000000E+03  0.00000000000E+00 0. -1.
         23    2    1    2    0    0  0.20075488375E+03  0.10869555838E+03 -0.12709398288E+02  0.24329387787E+03  0.83145261106E+02 0.  0.
        -11    1    1    2    0    0 -0.10851699972E+03  0.28281592440E+02  0.35735616465E+03  0.37453867105E+03  0.00000000000E+00 0. -1.
         11    1    1    2    0    0 -0.92237884036E+02 -0.13697715082E+03 -0.34464676636E+03  0.38216745108E+03  0.00000000000E+00 0. -1.
        -15    1    3    3    0    0  0.88537527802E+02  0.18468573986E+02 -0.36111076696E+02  0.97402000203E+02  0.17770000000E+01 0.  1.
         15    1    3    3    0    0  0.11221735595E+03  0.90226984393E+02  0.23401678408E+02  0.14589187767E+03  0.17770000000E+01 0. -1.
</event>
<event>
 7    1  0.2288857E-006  0.5020058E+03  0.7546771E-02  0.9395333E-01
        -11   -1    0    0    0    0  0.00000000000E+00  0.00000000000E+00  0.50000000000E+03  0.50000000000E+03  0.00000000000E+00 0. -1.
         11   -1    0    0    0    0 -0.00000000000E+00 -0.00000000000E+00 -0.50000000000E+03  0.50000000000E+03  0.00000000000E+00 0.  1.
         23    2    1    2    0    0  0.58498626245E+01  0.15937563949E+03  0.46752481848E+03  0.50200582238E+03  0.89417976083E+02 0.  0.
        -11    1    1    2    0    0  0.19492438187E+02 -0.24915506977E+02 -0.12991647506E+03  0.13371248306E+03  0.00000000000E+00 0. -1.
         11    1    1    2    0    0 -0.25342300812E+02 -0.13446013252E+03 -0.33760834342E+03  0.36428169456E+03  0.00000000000E+00 0.  1.
        -15    1    3    3    0    0 -0.20070650953E+02  0.15516313363E+03  0.40435964336E+03  0.43357618474E+03  0.17770000000E+01 0. -1.
         15    1    3    3    0    0  0.25920513578E+02  0.42125058650E+01  0.63165175122E+02  0.68429637636E+02  0.17770000000E+01 0.  1.
</event>
<event>
 7    1  0.2288857E-006  0.5093437E+03  0.7546771E-02  0.9379142E-01
        -11   -1    0    0    0    0  0.00000000000E+00  0.00000000000E+00  0.50000000000E+03  0.50000000000E+03  0.00000000000E+00 0. -1.
         11   -1    0    0    0    0 -0.00000000000E+00 -0.00000000000E+00 -0.50000000000E+03  0.50000000000E+03  0.00000000000E+00 0. -1.
         23    2    1    2    0    0  0.31745445783E+02  0.47048577194E+02 -0.30324811361E+03  0.32203682237E+03  0.92341510791E+02 0.  0.
        -11    1    1    2    0    0 -0.12307178640E+02 -0.11418317064E+03  0.47702658688E+03  0.49065632340E+03  0.00000000000E+00 0. -1.
         11    1    1    2    0    0 -0.19438267143E+02  0.67134593442E+02 -0.17377847328E+03  0.18730685423E+03  0.00000000000E+00 0. -1.
        -15    1    3    3    0    0  0.29768246964E+02  0.66329389234E+02 -0.28874945710E+03  0.29776692749E+03  0.17770000000E+01 0. -1.
         15    1    3    3    0    0  0.19771988193E+01 -0.19280812041E+02 -0.14498656507E+02  0.24269894883E+02  0.17770000000E+01 0.  1.
</event>
<event>
 7    1  0.2288857E-006  0.5312739E+03  0.7546771E-02  0.9332429E-01
        -11   -1    0    0    0    0  0.00000000000E+00  0.00000000000E+00  0.50000000000E+03  0.50000000000E+03  0.00000000000E+00 0. -1.
         11   -1    0    0    0    0 -0.00000000000E+00 -0.00000000000E+00 -0.50000000000E+03  0.50000000000E+03  0.00000000000E+00 0. -1.
         23    2    1    2    0    0  0.13363948994E+03  0.33724523162E+02 -0.16691700929E+03  0.23537666179E+03  0.92433912556E+02 0.  0.
        -11    1    1    2    0    0 -0.15205628170E+03  0.93597265800E+02  0.43338499361E+03  0.46872605395E+03  0.00000000000E+00 0. -1.
         11    1    1    2    0    0  0.18416791754E+02 -0.12732178896E+03 -0.26646798432E+03  0.29589728426E+03  0.00000000000E+00 0. -1.
        -15    1    3    3    0    0  0.85847425250E+02 -0.20210288189E+02 -0.60969348550E+02  0.10723178336E+03  0.17770000000E+01 0.  1.
         15    1    3    3    0    0  0.47792064695E+02  0.53934811351E+02 -0.10594766074E+03  0.12814487843E+03  0.17770000000E+01 0. -1.
</event>
<event>
 7    1  0.2288857E-006  0.4845663E+03  0.7546771E-02  0.9435022E-01
        -11   -1    0    0    0    0  0.00000000000E+00  0.00000000000E+00  0.50000000000E+03  0.50000000000E+03  0.00000000000E+00 0.  1.
         11   -1    0    0    0    0 -0.00000000000E+00 -0.00000000000E+00 -0.50000000000E+03  0.50000000000E+03  0.00000000000E+00 0. -1.
         23    2    1    2    0    0 -0.42771427800E+02 -0.42950773030E+02  0.46427153402E+03  0.47682554177E+03  0.90224032550E+02 0.  0.
        -11    1    1    2    0    0 -0.26926286207E+02 -0.25588870575E+02  0.10374231775E+02  0.38567342029E+02  0.00000000000E+00 0.  1.
         11    1    1    2    0    0  0.69697714008E+02  0.68539643605E+02 -0.47464576579E+03  0.48460711620E+03  0.00000000000E+00 0. -1.
        -15    1    3    3    0    0  0.58618901670E+01 -0.53819308320E+02  0.17189938984E+03  0.18023162226E+03  0.17770000000E+01 0. -1.
         15    1    3    3    0    0 -0.48633317967E+02  0.10868535290E+02  0.29237214418E+03  0.29659391952E+03  0.17770000000E+01 0.  1.
</event>
<event>
 7    1  0.2288857E-006  0.5307513E+03  0.7546771E-02  0.9333514E-01
        -11   -1    0    0    0    0  0.00000000000E+00  0.00000000000E+00  0.50000000000E+03  0.50000000000E+03  0.00000000000E+00 0. -1.
         11   -1    0    0    0    0 -0.00000000000E+00 -0.00000000000E+00 -0.50000000000E+03  0.50000000000E+03  0.00000000000E+00 0.  1.
         23    2    1    2    0    0 -0.14396434192E+03 -0.47644506859E+02  0.28573513876E+03  0.33773250507E+03  0.97071853184E+02 0.  0.
        -11    1    1    2    0    0 -0.34157837330E+02  0.12728477570E+03  0.14102507958E+03  0.19301876864E+03  0.00000000000E+00 0. -1.
         11    1    1    2    0    0  0.17812217925E+03 -0.79640268843E+02 -0.42676021834E+03  0.46924872629E+03  0.00000000000E+00 0.  1.
        -15    1    3    3    0    0 -0.13296521598E+03 -0.55855021063E+02  0.28945687703E+03  0.32340063919E+03  0.17770000000E+01 0. -1.
         15    1    3    3    0    0 -0.10999125938E+02  0.82105142040E+01 -0.37217382696E+01  0.14331865881E+02  0.17770000000E+01 0.  1.
</event>
<event>
 7    1  0.2288857E-006  0.5189996E+03  0.7546771E-02  0.9358272E-01
        -11   -1    0    0    0    0  0.00000000000E+00  0.00000000000E+00  0.50000000000E+03  0.50000000000E+03  0.00000000000E+00 0.  1.
         11   -1    0    0    0    0 -0.00000000000E+00 -0.00000000000E+00 -0.50000000000E+03  0.50000000000E+03  0.00000000000E+00 0. -1.
         23    2    1    2    0    0  0.10823599523E+03  0.31026582412E+02 -0.15466441632E+03  0.21019147516E+03  0.87072929632E+02 0.  0.
        -11    1    1    2    0    0 -0.11782565880E+03 -0.81518971022E+02  0.45916569472E+03  0.48100037808E+03  0.00000000000E+00 0.  1.
         11    1    1    2    0    0  0.95896635697E+01  0.50492388610E+02 -0.30450127840E+03  0.30880814676E+03  0.00000000000E+00 0. -1.
        -15    1    3    3    0    0  0.66788848348E+02  0.53260165123E+02 -0.59795357362E+02  0.10428824451E+03  0.17770000000E+01 0. -1.
         15    1    3    3    0    0  0.41447146880E+02 -0.22233582711E+02 -0.94869058959E+02  0.10590323065E+03  0.17770000000E+01 0.  1.
</event>
<event>
 7    1  0.2288857E-006  0.4318809E+03  0.7546771E-02  0.9566627E-01
        -11   -1    0    0    0    0  0.00000000000E+00  0.00000000000E+00  0.50000000000E+03  0.50000000000E+03  0.00000000000E+00 0.  1.
         11   -1    0    0    0    0 -0.00000000000E+00 -0.00000000000E+00 -0.50000000000E+03  0.50000000000E+03  0.00000000000E+00 0. -1.
         23    2    1    2    0    0 -0.91608170254E+02 -0.19317846788E+02 -0.12760512423E+02  0.13108537037E+03  0.90858723217E+02 0.  0.
        -11    1    1    2    0    0  0.68418293594E+02  0.19168138699E+03  0.39756539129E+03  0.44663302315E+03  0.00000000000E+00 0.  1.
         11    1    1    2    0    0  0.23189876661E+02 -0.17236354020E+03 -0.38480487887E+03  0.42228160648E+03  0.00000000000E+00 0. -1.
        -15    1    3    3    0    0  0.89447832044E+01 -0.27927794617E+02 -0.54874725226E+01  0.29887136738E+02  0.17770000000E+01 0. -1.
         15    1    3    3    0    0 -0.10055295346E+03  0.86099478289E+01 -0.72730399001E+01  0.10119823363E+03  0.17770000000E+01 0.  1.
</event>
<event>
 7    1  0.2288857E-006  0.5366447E+03  0.7546771E-02  0.9321352E-01
        -11   -1    0    0    0    0  0.00000000000E+00  0.00000000000E+00  0.50000000000E+03  0.50000000000E+03  0.00000000000E+00 0.  1.
         11   -1    0    0    0    0 -0.00000000000E+00 -0.00000000000E+00 -0.50000000000E+03  0.50000000000E+03  0.00000000000E+00 0. -1.
         23    2    1    2    0    0 -0.75895685606E+02  0.13538505704E+03  0.20039102025E+03  0.26939522664E+03  0.91257648301E+02 0.  0.
        -11    1    1    2    0    0  0.53961947269E+02 -0.56249275111E+02  0.25562938943E+03  0.26724942926E+03  0.00000000000E+00 0.  1.
         11    1    1    2    0    0  0.21933738336E+02 -0.79135781933E+02 -0.45602040968E+03  0.46335534410E+03  0.00000000000E+00 0. -1.
        -15    1    3    3    0    0 -0.62588158264E+02  0.24073513450E+02  0.87891832316E+02  0.11056646653E+03  0.17770000000E+01 0.  1.
         15    1    3    3    0    0 -0.13307527342E+02  0.11131154359E+03  0.11249918794E+03  0.15882876011E+03  0.17770000000E+01 0. -1.
</event>
<event>
 7    1  0.2288857E-006  0.4915589E+03  0.7546771E-02  0.9418898E-01
        -11   -1    0    0    0    0  0.00000000000E+00  0.00000000000E+00  0.50000000000E+03  0.50000000000E+03  0.00000000000E+00 0.  1.
         11   -1    0    0    0    0 -0.00000000000E+00 -0.00000000000E+00 -0.50000000000E+03  0.50000000000E+03  0.00000000000E+00 0. -1.
         23    2    1    2    0    0 -0.56439367183E+01 -0.30610192884E+03 -0.36544646739E+03  0.48536527066E+03  0.91093800945E+02 0.  0.
        -11    1    1    2    0    0 -0.14315035469E+02  0.30765363602E+03  0.38054423944E+03  0.48956061746E+03  0.00000000000E+00 0.  1.
         11    1    1    2    0    0  0.19958972187E+02 -0.15517071731E+01 -0.15097772053E+02  0.25074111886E+02  0.00000000000E+00 0. -1.
        -15    1    3    3    0    0 -0.45819720088E+02 -0.11839473461E+03 -0.13247008600E+03  0.18348907691E+03  0.17770000000E+01 0.  1.
         15    1    3    3    0    0  0.40175783369E+02 -0.18770719423E+03 -0.23297638139E+03  0.30187619374E+03  0.17770000000E+01 0. -1.
</event>
<event>
 7    1  0.2288857E-006  0.5257267E+03  0.7546771E-02  0.9344016E-01
        -11   -1    0    0    0    0  0.00000000000E+00  0.00000000000E+00  0.50000000000E+03  0.50000000000E+03  0.00000000000E+00 0. -1.
         11   -1    0    0    0    0 -0.00000000000E+00 -0.00000000000E+00 -0.50000000000E+03  0.50000000000E+03  0.00000000000E+00 0.  1.
         23    2    1    2    0    0  0.14971415269E+03  0.49040401858E+02 -0.28653778706E+03  0.34334100448E+03  0.10468931850E+03 0.  0.
        -11    1    1    2    0    0 -0.31984364802E+03 -0.89064033218E+02  0.33867802562E+03  0.47427330331E+03  0.00000000000E+00 0. -1.
         11    1    1    2    0    0  0.17012949533E+03  0.40023631360E+02 -0.52140238557E+02  0.18238569222E+03  0.00000000000E+00 0.  1.
        -15    1    3    3    0    0  0.23877160742E+02  0.68897905552E+01  0.27449486713E+01  0.25065523957E+02  0.17770000000E+01 0. -1.
         15    1    3    3    0    0  0.12583699195E+03  0.42150611303E+02 -0.28928273574E+03  0.31827548052E+03  0.17770000000E+01 0.  1.
</event>
<event>
 7    1  0.2288857E-006  0.4880520E+03  0.7546771E-02  0.9426949E-01
        -11   -1    0    0    0    0  0.00000000000E+00  0.00000000000E+00  0.50000000000E+03  0.50000000000E+03  0.00000000000E+00 0.  1.
         11   -1    0    0    0    0 -0.00000000000E+00 -0.00000000000E+00 -0.50000000000E+03  0.50000000000E+03  0.00000000000E+00 0. -1.
         23    2    1    2    0    0  0.87351852902E+02 -0.75936574916E+02  0.45801757932E+03  0.48287625424E+03  0.99963314925E+02 0.  0.
        -11    1    1    2    0    0  0.32045457733E+02 -0.99732424763E+01  0.25300344262E+01  0.33656767536E+02  0.00000000000E+00 0.  1.
         11    1    1    2    0    0 -0.11939731063E+03  0.85909817392E+02 -0.46054761374E+03  0.48346697822E+03  0.00000000000E+00 0. -1.
        -15    1    3    3    0    0  0.90146108945E+02 -0.86249501804E+02  0.45475824088E+03  0.47156496148E+03  0.17770000000E+01 0.  1.
         15    1    3    3    0    0 -0.27942560436E+01  0.10312926888E+02  0.32593384360E+01  0.11311292759E+02  0.17770000000E+01 0. -1.
</event>
<event>
 7    1  0.2288857E-006  0.5078649E+03  0.7546771E-02  0.9382381E-01
        -11   -1    0    0    0    0  0.00000000000E+00  0.00000000000E+00  0.50000000000E+03  0.50000000000E+03  0.00000000000E+00 0.  1.
         11   -1    0    0    0    0 -0.00000000000E+00 -0.00000000000E+00 -0.50000000000E+03  0.50000000000E+03  0.00000000000E+00 0.  1.
         23    2    1    2    0    0  0.24157709073E+02  0.51290127729E+02  0.48126612084E+03  0.49213511388E+03  0.85823185326E+02 0.  0.
        -11    1    1    2    0    0  0.20773368823E+02  0.34789136887E+02 -0.43454121425E+02  0.59414455871E+02  0.00000000000E+00 0.  1.
         11    1    1    2    0    0 -0.44931077896E+02 -0.86079264617E+02 -0.43781199941E+03  0.44845043025E+03  0.00000000000E+00 0.  1.
        -15    1    3    3    0    0  0.37786117631E+02 -0.93286505997E+01  0.14337476880E+03  0.14857421198E+03  0.17770000000E+01 0. -1.
         15    1    3    3    0    0 -0.13628408557E+02  0.60618778329E+02  0.33789135204E+03  0.34356090190E+03  0.17770000000E+01 0.  1.
</event>
<event>
 7    1  0.2288857E-006  0.5322354E+03  0.7546771E-02  0.9330436E-01
        -11   -1    0    0    0    0  0.00000000000E+00  0.00000000000E+00  0.50000000000E+03  0.50000000000E+03  0.00000000000E+00 0. -1.
         11   -1    0    0    0    0 -0.00000000000E+00 -0.00000000000E+00 -0.50000000000E+03  0.50000000000E+03  0.00000000000E+00 0. -1.
         23    2    1    2    0    0 -0.16051095312E+02  0.18845568035E+03 -0.25019567265E+03  0.32646134432E+03  0.90586718719E+02 0.  0.
        -11    1    1    2    0    0  0.62665744098E+02 -0.13516207650E+03  0.44340494816E+03  0.46776461009E+03  0.00000000000E+00 0. -1.
         11    1    1    2    0    0 -0.46614648786E+02 -0.53293603854E+02 -0.19320927551E+03  0.20577404558E+03  0.00000000000E+00 0. -1.
        -15    1    3    3    0    0 -0.30762444057E+02  0.15919815624E+02 -0.26939108115E+02  0.43916304135E+02  0.17770000000E+01 0.  1.
         15    1    3    3    0    0  0.14711348744E+02  0.17253586473E+03 -0.22325656453E+03  0.28254504019E+03  0.17770000000E+01 0. -1.
</event>
<event>
 7    1  0.2288857E-006  0.4365269E+03  0.7546771E-02  0.9554235E-01
        -11   -1    0    0    0    0  0.00000000000E+00  0.00000000000E+00  0.50000000000E+03  0.50000000000E+03  0.00000000000E+00 0.  1.
         11   -1    0    0    0    0 -0.00000000000E+00 -0.00000000000E+00 -0.50000000000E+03  0.50000000000E+03  0.00000000000E+00 0. -1.
         23    2    1    2    0    0  0.15941096454E+03  0.23856332254E+03  0.30731697167E+03  0.43017307873E+03  0.90999132477E+02 0.  0.
        -11    1    1    2    0    0 -0.66594430635E+02 -0.62966350885E+02  0.88227945508E+02  0.12721536819E+03  0.00000000000E+00 0.  1.
         11    1    1    2    0    0 -0.92816533909E+02 -0.17559697165E+03 -0.39554491717E+03  0.44261155308E+03  0.00000000000E+00 0. -1.
        -15    1    3    3    0    0  0.78124640574E+01  0.58104232420E+02  0.28891983384E+02  0.65383796560E+02  0.17770000000E+01 0. -1.
         15    1    3    3    0    0  0.15159850049E+03  0.18045909012E+03  0.27842498828E+03  0.36478928217E+03  0.17770000000E+01 0.  1.
</event>
<event>
 6    1  0.4408245E-006  0.4768755E+03  0.7546771E-02  0.9453093E-01
        -11   -1    0    0    0    0  0.00000000000E+00  0.00000000000E+00  0.50000000000E+03  0.50000000000E+03  0.00000000000E+00 0. -1.
         11   -1    0    0    0    0 -0.00000000000E+00 -0.00000000000E+00 -0.50000000000E+03  0.50000000000E+03  0.00000000000E+00 0.  1.
        -11    1    1    2    0    0 -0.11307083614E+03  0.42536687041E+02  0.47268828576E+03  0.48788174718E+03  0.00000000000E+00 0. -1.
         11    1    1    2    0    0 -0.38062209525E+01 -0.15945462245E+02 -0.60900435252E+02  0.63068281236E+02  0.00000000000E+00 0.  1.
        -15    1    1    2    0    0  0.49508155306E+02 -0.56319393496E+02 -0.33238632584E+03  0.34074441867E+03  0.17770000000E+01 0.  1.
         15    1    1    2    0    0  0.67368901789E+02  0.29728168700E+02 -0.79401524674E+02  0.10830555291E+03  0.17770000000E+01 0. -1.
</event>
<event>
 7    1  0.2288857E-006  0.5320414E+03  0.7546771E-02  0.9330837E-01
        -11   -1    0    0    0    0  0.00000000000E+00  0.00000000000E+00  0.50000000000E+03  0.50000000000E+03  0.00000000000E+00 0. -1.
         11   -1    0    0    0    0 -0.00000000000E+00 -0.00000000000E+00 -0.50000000000E+03  0.50000000000E+03  0.00000000000E+00 0.  1.
         23    2    1    2    0    0 -0.12426223604E+03  0.22308304869E+02  0.16464703889E+03  0.23203242022E+03  0.10388278416E+03 0.  0.
        -11    1    1    2    0    0  0.49038316692E+02  0.19451159272E+02  0.29533420607E+03  0.30000899549E+03  0.00000000000E+00 0. -1.
         11    1    1    2    0    0  0.75223919348E+02 -0.41759464142E+02 -0.45998124496E+03  0.46795858429E+03  0.00000000000E+00 0.  1.
        -15    1    3    3    0    0 -0.76146921447E+02  0.16831960329E+02  0.16615046687E+03  0.18355054863E+03  0.17770000000E+01 0. -1.
         15    1    3    3    0    0 -0.48115314592E+02  0.54763445399E+01 -0.15034279747E+01  0.48481871586E+02  0.17770000000E+01 0.  1.
</event>
<event>
 7    1  0.2288857E-006  0.4512493E+03  0.7546771E-02  0.9516029E-01
        -11   -1    0    0    0    0  0.00000000000E+00  0.00000000000E+00  0.50000000000E+03  0.50000000000E+03  0.00000000000E+00 0.  1.
         11   -1    0    0    0    0 -0.00000000000E+00 -0.00000000000E+00 -0.50000000000E+03  0.50000000000E+03  0.00000000000E+00 0.  1.
         23    2    1    2    0    0 -0.18159426904E+03 -0.12977743931E+03  0.39006227379E+03  0.45792890302E+03  0.87929747411E+02 0.  0.
        -11    1    1    2    0    0  0.66298016860E+02  0.68556354789E+02  0.31753630247E+02  0.10051713215E+03  0.00000000000E+00 0.  1.
         11    1    1    2    0    0  0.11529625218E+03  0.61221084523E+02 -0.42181590404E+03  0.44155396483E+03  0.00000000000E+00 0.  1.
        -15    1    3    3    0    0 -0.18606279294E+02 -0.25361017489E+01  0.99659167666E+02  0.10142846183E+03  0.17770000000E+01 0. -1.
         15    1    3    3    0    0 -0.16298798975E+03 -0.12724133756E+03  0.29040310613E+03  0.35650044118E+03  0.17770000000E+01 0.  1.
</event>
<event>
 7    1  0.2288857E-006  0.3502450E+03  0.7546771E-02  0.9816035E-01
        -11   -1    0    0    0    0  0.00000000000E+00  0.00000000000E+00  0.50000000000E+03  0.50000000000E+03  0.00000000000E+00 0. -1.
         11   -1    0    0    0    0 -0.00000000000E+00 -0.00000000000E+00 -0.50000000000E+03  0.50000000000E+03  0.00000000000E+00 0.  1.
         23    2    1    2    0    0  0.25559441331E+03 -0.27046911048E+02  0.21308936439E+03  0.34549497976E+03  0.88880055734E+02 0.  0.
        -11    1    1    2    0    0 -0.19291452489E+03 -0.82663085184E+02  0.15786479139E+03  0.26262233707E+03  0.00000000000E+00 0. -1.
         11    1    1    2    0    0 -0.62679888419E+02  0.10970999623E+03 -0.37095415578E+03  0.39188268318E+03  0.00000000000E+00 0.  1.
        -15    1    3    3    0    0  0.24768325860E+03 -0.41731496831E+02  0.18205998932E+03  0.31022171403E+03  0.17770000000E+01 0.  1.
         15    1    3    3    0    0  0.79111547144E+01  0.14684585783E+02  0.31029375073E+02  0.35273265726E+02  0.17770000000E+01 0. -1.
</event>
<event>
 7    1  0.2288857E-006  0.5151750E+03  0.7546771E-02  0.9366480E-01
        -11   -1    0    0    0    0  0.00000000000E+00  0.00000000000E+00  0.50000000000E+03  0.50000000000E+03  0.00000000000E+00 0. -1.
         11   -1    0    0    0    0 -0.00000000000E+00 -0.00000000000E+00 -0.50000000000E+03  0.50000000000E+03  0.00000000000E+00 0. -1.
         23    2    1    2    0    0  0.14079017492E+02  0.21636020343E+02  0.37820056591E+03  0.38969620325E+03  0.90338954286E+02 0.  0.
        -11    1    1    2    0    0  0.79797279310E+02  0.43297052034E+01  0.96739742712E+02  0.12547880280E+03  0.00000000000E+00 0. -1.
         11    1    1    2    0    0 -0.93876296802E+02 -0.25965725547E+02 -0.47494030862E+03  0.48482499395E+03  0.00000000000E+00 0. -1.
        -15    1    3    3    0    0  0.44926948337E+02 -0.55071030310E+01  0.27316989078E+03  0.27690017304E+03  0.17770000000E+01 0. -1.
         15    1    3    3    0    0 -0.30847930845E+02  0.27143123374E+02  0.10503067513E+03  0.11279603021E+03  0.17770000000E+01 0.  1.
</event>
<event>
 7    1  0.2288857E-006  0.4017826E+03  0.7546771E-02  0.9651148E-01
        -11   -1    0    0    0    0  0.00000000000E+00  0.00000000000E+00  0.50000000000E+03  0.50000000000E+03  0.00000000000E+00 0. -1.
         11   -1    0    0    0    0 -0.00000000000E+00 -0.00000000000E+00 -0.50000000000E+03  0.50000000000E+03  0.00000000000E+00 0. -1.
         23    2    1    2    0    0  0.99526052533E+02  0.22303452052E+03 -0.22458525185E+03  0.35150870352E+03  0.11606033270E+03 0.  0.
        -11    1    1    2    0    0 -0.16372746465E+03 -0.16465526918E+03  0.39446372844E+03  0.45773319020E+03  0.00000000000E+00 0. -1.
         11    1    1    2    0    0  0.64201412115E+02 -0.58379251336E+02 -0.16987847659E+03  0.19075810628E+03  0.00000000000E+00 0. -1.
        -15    1    3    3    0    0  0.72925635362E+02  0.39290550842E+02 -0.50743397885E+02  0.97159383677E+02  0.17770000000E+01 0.  1.
         15    1    3    3    0    0  0.26600417171E+02  0.18374396968E+03 -0.17384185397E+03  0.25434931985E+03  0.17770000000E+01 0. -1.
</event>
<event>
 7    1  0.2288857E-006  0.5399058E+03  0.7546771E-02  0.9314694E-01
        -11   -1    0    0    0    0  0.00000000000E+00  0.00000000000E+00  0.50000000000E+03  0.50000000000E+03  0.00000000000E+00 0.  1.
         11   -1    0    0    0    0 -0.00000000000E+00 -0.00000000000E+00 -0.50000000000E+03  0.50000000000E+03  0.00000000000E+00 0. -1.
         23    2    1    2    0    0 -0.77511301573E+02 -0.61468263310E+02  0.15870844320E+03  0.20747664015E+03  0.89843402633E+02 0.  0.
        -11    1    1    2    0    0  0.15397098282E+03  0.25236566916E+02  0.29353910423E+03  0.33242917076E+03  0.00000000000E+00 0.  1.
         11    1    1    2    0    0 -0.76459681246E+02  0.36231696394E+02 -0.45224754743E+03  0.46009418909E+03  0.00000000000E+00 0. -1.
        -15    1    3    3    0    0  0.33620587806E+01 -0.18530713207E+02  0.92636843184E+02  0.94548575956E+02  0.17770000000E+01 0.  1.
         15    1    3    3    0    0 -0.80873360354E+02 -0.42937550103E+02  0.66071600020E+02  0.11292806419E+03  0.17770000000E+01 0. -1.
</event>
<event>
 7    1  0.2288857E-006  0.4211565E+03  0.7546771E-02  0.9595876E-01
        -11   -1    0    0    0    0  0.00000000000E+00  0.00000000000E+00  0.50000000000E+03  0.50000000000E+03  0.00000000000E+00 0.  1.
         11   -1    0    0    0    0 -0.00000000000E+00 -0.00000000000E+00 -0.50000000000E+03  0.50000000000E+03  0.00000000000E+00 0. -1.
         23    2    1    2    0    0 -0.86853894409E+02 -0.53651539391E+02  0.13262532050E+02  0.15141937333E+03  0.11103983614E+03 0.  0.
        -11    1    1    2    0    0  0.16021276601E+03  0.24933411108E+02  0.39804220058E+03  0.42979925410E+03  0.00000000000E+00 0.  1.
         11    1    1    2    0    0 -0.73358871597E+02  0.28718128282E+02 -0.41130473263E+03  0.41878137258E+03  0.00000000000E+00 0. -1.
        -15    1    3    3    0    0 -0.72555463659E+02 -0.34673291863E+02  0.59063583419E+02  0.99790766560E+02  0.17770000000E+01 0.  1.
         15    1    3    3    0    0 -0.14298430750E+02 -0.18978247528E+02 -0.45801051368E+02  0.51628606766E+02  0.17770000000E+01 0. -1.
</event>
<event>
 7    1  0.2288857E-006  0.5283019E+03  0.7546771E-02  0.9338618E-01
        -11   -1    0    0    0    0  0.00000000000E+00  0.00000000000E+00  0.50000000000E+03  0.50000000000E+03  0.00000000000E+00 0. -1.
         11   -1    0    0    0    0 -0.00000000000E+00 -0.00000000000E+00 -0.50000000000E+03  0.50000000000E+03  0.00000000000E+00 0. -1.
         23    2    1    2    0    0 -0.20767965946E+02  0.46798978319E+02  0.33314444195E+03  0.34869892124E+03  0.89354718348E+02 0.  0.
        -11    1    1    2    0    0 -0.90811502099E+02 -0.94686215666E+02  0.12265810448E+03  0.17960294804E+03  0.00000000000E+00 0. -1.
         11    1    1    2    0    0  0.11157946804E+03  0.47887237347E+02 -0.45580254643E+03  0.47169813072E+03  0.00000000000E+00 0. -1.
        -15    1    3    3    0    0  0.25692812752E+02 -0.80761739219E+01  0.53102457792E+02  0.59568229493E+02  0.17770000000E+01 0.  1.
         15    1    3    3    0    0 -0.46460778698E+02  0.54875152241E+02  0.28004198416E+03  0.28913069175E+03  0.17770000000E+01 0. -1.
</event>
<event>
 7    1  0.2288857E-006  0.4151402E+03  0.7546771E-02  0.9612694E-01
        -11   -1    0    0    0    0  0.00000000000E+00  0.00000000000E+00  0.50000000000E+03  0.50000000000E+03  0.00000000000E+00 0.  1.
         11   -1    0    0    0    0 -0.00000000000E+00 -0.00000000000E+00 -0.50000000000E+03  0.50000000000E+03  0.00000000000E+00 0.  1.
         23    2    1    2    0    0  0.92331053441E+02 -0.79525552988E+02  0.40464174146E+02  0.15984980884E+03  0.95211737673E+02 0.  0.
        -11    1    1    2    0    0 -0.20513918239E+03  0.19267035617E+03  0.33178038692E+03  0.43506571393E+03  0.00000000000E+00 0.  1.
         11    1    1    2    0    0  0.11280812895E+03 -0.11314480319E+03 -0.37224456106E+03  0.40508447722E+03  0.00000000000E+00 0.  1.
        -15    1    3    3    0    0  0.89387877143E+02 -0.21848589571E+02  0.52517574803E+01  0.92186181893E+02  0.17770000000E+01 0.  1.
         15    1    3    3    0    0  0.29431762980E+01 -0.57676963418E+02  0.35212416666E+02  0.67663626952E+02  0.17770000000E+01 0. -1.
</event>
<event>
 7    1  0.2288857E-006  0.5149691E+03  0.7546771E-02  0.9366924E-01
        -11   -1    0    0    0    0  0.00000000000E+00  0.00000000000E+00  0.50000000000E+03  0.50000000000E+03  0.00000000000E+00 0. -1.
         11   -1    0    0    0    0 -0.00000000000E+00 -0.00000000000E+00 -0.50000000000E+03  0.50000000000E+03  0.00000000000E+00 0. -1.
         23    2    1    2    0    0 -0.40005286182E+02  0.49635911825E+02 -0.12458704100E+03  0.16584822973E+03  0.88991897686E+02 0.  0.
        -11    1    1    2    0    0  0.45544995789E+02 -0.15295384742E+03  0.45802379028E+03  0.48503094596E+03  0.00000000000E+00 0. -1.
         11    1    1    2    0    0 -0.55397096077E+01  0.10331793559E+03 -0.33343674928E+03  0.34912082431E+03  0.00000000000E+00 0. -1.
        -15    1    3    3    0    0 -0.50420587479E+02  0.67803389139E+01 -0.10670298137E+03  0.11822390875E+03  0.17770000000E+01 0.  1.
         15    1    3    3    0    0  0.10415301297E+02  0.42855572911E+02 -0.17884059623E+02  0.47624320974E+02  0.17770000000E+01 0. -1.
</event>
<event>
 7    1  0.2288857E-006  0.4057339E+03  0.7546771E-02  0.9639609E-01
        -11   -1    0    0    0    0  0.00000000000E+00  0.00000000000E+00  0.50000000000E+03  0.50000000000E+03  0.00000000000E+00 0. -1.
         11   -1    0    0    0    0 -0.00000000000E+00 -0.00000000000E+00 -0.50000000000E+03  0.50000000000E+03  0.00000000000E+00 0.  1.
         23    2    1    2    0    0 -0.74796201608E+02  0.87160539549E+02  0.97554567763E+02  0.17465872035E+03  0.88302567764E+02 0.  0.
        -11    1    1    2    0    0  0.25801680648E+03  0.49563368926E+02  0.28000161625E+03  0.38396628116E+03  0.00000000000E+00 0. -1.
         11    1    1    2    0    0 -0.18322060487E+03 -0.13672390848E+03 -0.37755618402E+03  0.44137499849E+03  0.00000000000E+00 0.  1.
        -15    1    3    3    0    0 -0.35228756852E+02  0.20987226161E+02 -0.10063350384E+02  0.42260593006E+02  0.17770000000E+01 0. -1.
         15    1    3    3    0    0 -0.39567444756E+02  0.66173313388E+02  0.10761791815E+03  0.13239812735E+03  0.17770000000E+01 0.  1.
</event>
<event>
 7    1  0.2288857E-006  0.5222593E+03  0.7546771E-02  0.9351336E-01
        -11   -1    0    0    0    0  0.00000000000E+00  0.00000000000E+00  0.50000000000E+03  0.50000000000E+03  0.00000000000E+00 0. -1.
         11   -1    0    0    0    0 -0.00000000000E+00 -0.00000000000E+00 -0.50000000000E+03  0.50000000000E+03  0.00000000000E+00 0. -1.
         23    2    1    2    0    0 -0.12905413233E+03  0.29862748564E+02  0.28558371615E+03  0.32843712580E+03  0.93627634023E+02 0.  0.
        -11    1    1    2    0    0  0.50084786952E+02 -0.25019462398E+02  0.18556016888E+03  0.19382217535E+03  0.00000000000E+00 0. -1.
         11    1    1    2    0    0  0.78969345376E+02 -0.48432861656E+01 -0.47114388503E+03  0.47774069885E+03  0.00000000000E+00 0. -1.
        -15    1    3    3    0    0 -0.10428001850E+03  0.55588326924E+02  0.25623194932E+03  0.28217433251E+03  0.17770000000E+01 0.  1.
         15    1    3    3    0    0 -0.24774113825E+02 -0.25725578360E+02  0.29351766834E+02  0.46262793291E+02  0.17770000000E+01 0. -1.
</event>
<event>
 7    1  0.2288857E-006  0.4752860E+03  0.7546771E-02  0.9456873E-01
        -11   -1    0    0    0    0  0.00000000000E+00  0.00000000000E+00  0.50000000000E+03  0.50000000000E+03  0.00000000000E+00 0. -1.
         11   -1    0    0    0    0 -0.00000000000E+00 -0.00000000000E+00 -0.50000000000E+03  0.50000000000E+03  0.00000000000E+00 0. -1.
         23    2    1    2    0    0  0.10119819847E+03 -0.67261260768E+02  0.46400104693E+03  0.48830310629E+03  0.91530320071E+02 0.  0.
        -11    1    1    2    0    0 -0.13555188117E+02 -0.44877781436E+02 -0.31756840825E+02  0.56623805335E+02  0.00000000000E+00 0. -1.
         11    1    1    2    0    0 -0.87643010353E+02  0.11213904220E+03 -0.43224420610E+03  0.45507308837E+03  0.00000000000E+00 0. -1.
        -15    1    3    3    0    0  0.45359067868E+02 -0.78411325441E+02  0.33959209719E+03  0.35147081130E+03  0.17770000000E+01 0. -1.
         15    1    3    3    0    0  0.55839130602E+02  0.11150064672E+02  0.12440894974E+03  0.13683229499E+03  0.17770000000E+01 0.  1.
</event>
<event>
 7    1  0.2288857E-006  0.4100654E+03  0.7546771E-02  0.9627120E-01
        -11   -1    0    0    0    0  0.00000000000E+00  0.00000000000E+00  0.50000000000E+03  0.50000000000E+03  0.00000000000E+00 0. -1.
         11   -1    0    0    0    0 -0.00000000000E+00 -0.00000000000E+00 -0.50000000000E+03  0.50000000000E+03  0.00000000000E+00 0. -1.
         23    2    1    2    0    0 -0.89978764774E+02  0.64126141193E+02 -0.10218859210E+03  0.16617432600E+03  0.70448975656E+02 0.  0.
        -11    1    1    2    0    0  0.72510793536E+02  0.45253519674E+02  0.45555584123E+03  0.46350493061E+03  0.00000000000E+00 0. -1.
         11    1    1    2    0    0  0.17467971238E+02 -0.10937966087E+03 -0.35336724913E+03  0.37032074339E+03  0.00000000000E+00 0. -1.
        -15    1    3    3    0    0 -0.92002347039E+02  0.54186282688E+02 -0.59468076315E+02  0.12223009008E+03  0.17770000000E+01 0.  1.
         15    1    3    3    0    0  0.20235822649E+01  0.99398585049E+01 -0.42720515782E+02  0.43944235913E+02  0.17770000000E+01 0. -1.
</event>
<event>
 7    1  0.2288857E-006  0.4480054E+03  0.7546771E-02  0.9524313E-01
        -11   -1    0    0    0    0  0.00000000000E+00  0.00000000000E+00  0.50000000000E+03  0.50000000000E+03  0.00000000000E+00 0.  1.
         11   -1    0    0    0    0 -0.00000000000E+00 -0.00000000000E+00 -0.50000000000E+03  0.50000000000E+03  0.00000000000E+00 0. -1.
         23    2    1    2    0    0 -0.10049609606E+03  0.12582284815E+03  0.40481624011E+03  0.44045540731E+03  0.64760505948E+02 0.  0.
        -11    1    1    2    0    0 -0.83776747427E+02 -0.59047393149E+02  0.77511256339E+01  0.10278724627E+03  0.00000000000E+00 0.  1.
         11    1    1    2    0    0  0.18427284348E+03 -0.66775454997E+02 -0.41256736574E+03  0.45675734642E+03  0.00000000000E+00 0. -1.
        -15    1    3    3    0    0 -0.98021325470E+02  0.85441543743E+02  0.26995473600E+03  0.29964504812E+03  0.17770000000E+01 0.  1.
         15    1    3    3    0    0 -0.24747705847E+01  0.40381304404E+02  0.13486150411E+03  0.14081035919E+03  0.17770000000E+01 0. -1.
</event>
<event>
 7    1  0.2288857E-006  0.5148086E+03  0.7546771E-02  0.9367271E-01
        -11   -1    0    0    0    0  0.00000000000E+00  0.00000000000E+00  0.50000000000E+03  0.50000000000E+03  0.00000000000E+00 0. -1.
         11   -1    0    0    0    0 -0.00000000000E+00 -0.00000000000E+00 -0.50000000000E+03  0.50000000000E+03  0.00000000000E+00 0.  1.
         23    2    1    2    0    0  0.15343033313E+01  0.15911406062E+02  0.34039254287E+03  0.35115985998E+03  0.84797624313E+02 0.  0.
        -11    1    1    2    0    0  0.92021568947E+02  0.51664862428E+01  0.13522670915E+03  0.16364878429E+03  0.00000000000E+00 0. -1.
         11    1    1    2    0    0 -0.93555872278E+02 -0.21077892305E+02 -0.47561925202E+03  0.48519135573E+03  0.00000000000E+00 0.  1.
        -15    1    3    3    0    0  0.43009535590E+02  0.86241119254E+01  0.18676910876E+03  0.19185946204E+03  0.17770000000E+01 0.  1.
         15    1    3    3    0    0 -0.41475232259E+02  0.72872941363E+01  0.15362343411E+03  0.15930039794E+03  0.17770000000E+01 0. -1.
</event>
<event>
 7    1  0.3087879E-006  0.5244991E+03  0.7546771E-02  0.9346600E-01
        -11   -1    0    0    0    0  0.00000000000E+00  0.00000000000E+00  0.50000000000E+03  0.50000000000E+03  0.00000000000E+00 0. -1.
         11   -1    0    0    0    0 -0.00000000000E+00 -0.00000000000E+00 -0.50000000000E+03  0.50000000000E+03  0.00000000000E+00 0. -1.
         23    2    1    2    0    0  0.15896569608E+02 -0.22036467110E+02 -0.20208806297E+03  0.22341160487E+03  0.91295417119E+02 0.  0.
        -11    1    1    2    0    0 -0.16800431691E+03  0.18481481946E+03  0.40462225735E+03  0.47550093495E+03  0.00000000000E+00 0. -1.
         11    1    1    2    0    0  0.15210774730E+03 -0.16277835235E+03 -0.20253419438E+03  0.30108746018E+03  0.00000000000E+00 0. -1.
        -15    1    3    3    0    0  0.27658613382E+02  0.30013762390E+02 -0.10394819072E+03  0.11168799805E+03  0.17770000000E+01 0. -1.
         15    1    3    3    0    0 -0.11762043774E+02 -0.52050229500E+02 -0.98139872257E+02  0.11172360682E+03  0.17770000000E+01 0.  1.
</event>
<event>
 7    1  0.2288857E-006  0.5318082E+03  0.7546771E-02  0.9331321E-01
        -11   -1    0    0    0    0  0.00000000000E+00  0.00000000000E+00  0.50000000000E+03  0.50000000000E+03  0.00000000000E+00 0.  1.
         11   -1    0    0    0    0 -0.00000000000E+00 -0.00000000000E+00 -0.50000000000E+03  0.50000000000E+03  0.00000000000E+00 0. -1.
         23    2    1    2    0    0  0.21880089732E+02  0.24453802563E+02  0.30025164065E+03  0.31523842487E+03  0.90263447857E+02 0.  0.
        -11    1    1    2    0    0  0.47259859512E+02 -0.15456025926E+03  0.14415305311E+03  0.21656978271E+03  0.00000000000E+00 0.  1.
         11    1    1    2    0    0 -0.69139949244E+02  0.13010645669E+03 -0.44440469375E+03  0.46819179242E+03  0.00000000000E+00 0. -1.
        -15    1    3    3    0    0  0.48223302875E+02  0.39334279127E+02  0.15861132512E+03  0.17039185027E+03  0.17770000000E+01 0.  1.
         15    1    3    3    0    0 -0.26343213143E+02 -0.14880476564E+02  0.14164031553E+03  0.14484657460E+03  0.17770000000E+01 0. -1.
</event>
<event>
 7    1  0.2288857E-006  0.5097147E+03  0.7546771E-02  0.9378331E-01
        -11   -1    0    0    0    0  0.00000000000E+00  0.00000000000E+00  0.50000000000E+03  0.50000000000E+03  0.00000000000E+00 0. -1.
         11   -1    0    0    0    0 -0.00000000000E+00 -0.00000000000E+00 -0.50000000000E+03  0.50000000000E+03  0.00000000000E+00 0.  1.
         23    2    1    2    0    0 -0.13450078441E+03  0.25926486641E+02  0.30991378276E+03  0.35081580028E+03  0.90898455787E+02 0.  0.
        -11    1    1    2    0    0 -0.61815218121E+02 -0.46220967493E+02  0.13889334427E+03  0.15889889902E+03  0.00000000000E+00 0. -1.
         11    1    1    2    0    0  0.19631600253E+03  0.20294480852E+02 -0.44880712704E+03  0.49028530070E+03  0.00000000000E+00 0.  1.
        -15    1    3    3    0    0 -0.12878407753E+03  0.44123837301E+02  0.29954517059E+03  0.32903300532E+03  0.17770000000E+01 0. -1.
         15    1    3    3    0    0 -0.57167068802E+01 -0.18197350660E+02  0.10368612176E+02  0.21782794955E+02  0.17770000000E+01 0.  1.
</event>
<event>
 7    1  0.2288857E-006  0.4667125E+03  0.7546771E-02  0.9477537E-01
        -11   -1    0    0    0    0  0.00000000000E+00  0.00000000000E+00  0.50000000000E+03  0.50000000000E+03  0.00000000000E+00 0.  1.
         11   -1    0    0    0    0 -0.00000000000E+00 -0.00000000000E+00 -0.50000000000E+03  0.50000000000E+03  0.00000000000E+00 0. -1.
         23    2    1    2    0    0 -0.45960510313E+02  0.25134130122E+02  0.42954866820E+03  0.44344174393E+03  0.96873262080E+02 0.  0.
        -11    1    1    2    0    0 -0.80455294051E+01  0.59700692112E+02  0.42623794068E+02  0.73794925319E+02  0.00000000000E+00 0.  1.
         11    1    1    2    0    0  0.54006039718E+02 -0.84834822234E+02 -0.47217246227E+03  0.48276333075E+03  0.00000000000E+00 0. -1.
        -15    1    3    3    0    0 -0.14805611486E+02  0.60280121312E+02  0.21394187808E+03  0.22277159622E+03  0.17770000000E+01 0.  1.
         15    1    3    3    0    0 -0.31154898827E+02 -0.35145991190E+02  0.21560679012E+03  0.22067014771E+03  0.17770000000E+01 0. -1.
</event>
<event>
 7    1  0.2288857E-006  0.4452740E+03  0.7546771E-02  0.9531346E-01
        -11   -1    0    0    0    0  0.00000000000E+00  0.00000000000E+00  0.50000000000E+03  0.50000000000E+03  0.00000000000E+00 0.  1.
         11   -1    0    0    0    0 -0.00000000000E+00 -0.00000000000E+00 -0.50000000000E+03  0.50000000000E+03  0.00000000000E+00 0.  1.
         23    2    1    2    0    0 -0.21345583179E+02  0.44402033121E+02  0.46853946430E+03  0.47996085774E+03  0.91684354680E+02 0.  0.
        -11    1    1    2    0    0  0.86278760113E+02 -0.26940950108E+02 -0.65991016893E+02  0.11191359859E+03  0.00000000000E+00 0.  1.
         11    1    1    2    0    0 -0.64933176933E+02 -0.17461083013E+02 -0.40254844740E+03  0.40812554367E+03  0.00000000000E+00 0.  1.
        -15    1    3    3    0    0 -0.23616932049E+02 -0.21283580101E+02  0.83836099360E+02  0.89679426550E+02  0.17770000000E+01 0. -1.
         15    1    3    3    0    0  0.22713488699E+01  0.65685613222E+02  0.38470336494E+03  0.39028143119E+03  0.17770000000E+01 0.  1.
</event>
<event>
 7    1  0.2288857E-006  0.5110619E+03  0.7546771E-02  0.9375392E-01
        -11   -1    0    0    0    0  0.00000000000E+00  0.00000000000E+00  0.50000000000E+03  0.50000000000E+03  0.00000000000E+00 0.  1.
         11   -1    0    0    0    0 -0.00000000000E+00 -0.00000000000E+00 -0.50000000000E+03  0.50000000000E+03  0.00000000000E+00 0. -1.
         23    2    1    2    0    0  0.42798825848E+01 -0.42963994959E+02  0.22953401692E+03  0.24839493061E+03  0.84557402815E+02 0.  0.
        -11    1    1    2    0    0  0.80565420504E+02 -0.89801315004E+02  0.23332138432E+03  0.26266695936E+03  0.00000000000E+00 0.  1.
         11    1    1    2    0    0 -0.84845303089E+02  0.13276530996E+03 -0.46285540124E+03  0.48893811003E+03  0.00000000000E+00 0. -1.
        -15    1    3    3    0    0 -0.39382245041E+02 -0.23656141826E+02  0.13225109668E+03  0.14001458700E+03  0.17770000000E+01 0.  1.
         15    1    3    3    0    0  0.43662127626E+02 -0.19307853133E+02  0.97282920240E+02  0.10838034361E+03  0.17770000000E+01 0. -1.
</event>
<event>
 7    1  0.2288857E-006  0.3380538E+03  0.7546771E-02  0.9859524E-01
        -11   -1    0    0    0    0  0.00000000000E+00  0.00000000000E+00  0.50000000000E+03  0.50000000000E+03  0.00000000000E+00 0.  1.
         11   -1    0    0    0    0 -0.00000000000E+00 -0.00000000000E+00 -0.50000000000E+03  0.50000000000E+03  0.00000000000E+00 0. -1.
         23    2    1    2    0    0  0.53359670771E+02 -0.22896526148E+03 -0.11040262724E+03  0.27571928460E+03  0.92520475416E+02 0.  0.
        -11    1    1    2    0    0 -0.23516165962E+02  0.14555682198E+03  0.39742721314E+03  0.42389643573E+03  0.00000000000E+00 0.  1.
         11    1    1    2    0    0 -0.29843504809E+02  0.83408439502E+02 -0.28702458590E+03  0.30038427967E+03  0.00000000000E+00 0. -1.
        -15    1    3    3    0    0  0.79607173812E+01 -0.16851254410E+02 -0.45643723701E+02  0.49334015027E+02  0.17770000000E+01 0. -1.
         15    1    3    3    0    0  0.45398953390E+02 -0.21211400707E+03 -0.64758903537E+02  0.22638526957E+03  0.17770000000E+01 0.  1.
</event>
<event>
 6    1  0.2288857E-006  0.4320743E+03  0.7546771E-02  0.9566108E-01
        -11   -1    0    0    0    0  0.00000000000E+00  0.00000000000E+00  0.50000000000E+03  0.50000000000E+03  0.00000000000E+00 0. -1.
         11   -1    0    0    0    0 -0.00000000000E+00 -0.00000000000E+00 -0.50000000000E+03  0.50000000000E+03  0.00000000000E+00 0.  1.
        -11    1    1    2    0    0  0.70088596052E+02  0.40705633213E+02  0.43517240801E+03  0.44265605673E+03  0.00000000000E+00 0. -1.
         11    1    1    2    0    0 -0.10016105897E+03 -0.37253289850E+02 -0.40868746785E+03  0.42242809059E+03  0.00000000000E+00 0.  1.
        -15    1    1    2    0    0  0.41938238488E+01 -0.54219719876E+02  0.23335980936E+02  0.59203816745E+02  0.17770000000E+01 0. -1.
         15    1    1    2    0    0  0.25878639066E+02  0.50767376512E+02 -0.49820921093E+02  0.75712035935E+02  0.17770000000E+01 0.  1.
</event>
<event>
 7    1  0.2288857E-006  0.3494680E+03  0.7546771E-02  0.9818750E-01
        -11   -1    0    0    0    0  0.00000000000E+00  0.00000000000E+00  0.50000000000E+03  0.50000000000E+03  0.00000000000E+00 0. -1.
         11   -1    0    0    0    0 -0.00000000000E+00 -0.00000000000E+00 -0.50000000000E+03  0.50000000000E+03  0.00000000000E+00 0.  1.
         23    2    1    2    0    0 -0.14947523668E+03 -0.12133454000E+03 -0.14940920589E+03  0.25979754815E+03  0.90037426896E+02 0.  0.
        -11    1    1    2    0    0 -0.44685921578E+01  0.24894781292E+03  0.36776433174E+03  0.44412339003E+03  0.00000000000E+00 0. -1.
         11    1    1    2    0    0  0.15394382884E+03 -0.12761327292E+03 -0.21835512585E+03  0.29607906182E+03  0.00000000000E+00 0.  1.
        -15    1    3    3    0    0 -0.12405366045E+03 -0.57765396487E+02 -0.12965215313E+03  0.18851787778E+03  0.17770000000E+01 0.  1.
         15    1    3    3    0    0 -0.25421576234E+02 -0.63569143516E+02 -0.19757052758E+02  0.71279670371E+02  0.17770000000E+01 0. -1.
</event>
<event>
 7    1  0.2288857E-006  0.4064554E+03  0.7546771E-02  0.9637517E-01
        -11   -1    0    0    0    0  0.00000000000E+00  0.00000000000E+00  0.50000000000E+03  0.50000000000E+03  0.00000000000E+00 0.  1.
         11   -1    0    0    0    0 -0.00000000000E+00 -0.00000000000E+00 -0.50000000000E+03  0.50000000000E+03  0.00000000000E+00 0. -1.
         23    2    1    2    0    0  0.24273053781E+02  0.95108920080E+02  0.11021560784E+03  0.17380010283E+03  0.91782938033E+02 0.  0.
        -11    1    1    2    0    0 -0.10609386678E+03 -0.12541003935E+03  0.33468527624E+03  0.37282411493E+03  0.00000000000E+00 0.  1.
         11    1    1    2    0    0  0.81820812994E+02  0.30301119273E+02 -0.44490088408E+03  0.45337578224E+03  0.00000000000E+00 0. -1.
        -15    1    3    3    0    0  0.11835050097E+02  0.90155487841E+02  0.12447517515E+03  0.15416000569E+03  0.17770000000E+01 0.  1.
         15    1    3    3    0    0  0.12438003684E+02  0.49534322395E+01 -0.14259567311E+02  0.19640097135E+02  0.17770000000E+01 0. -1.
</event>
<event>
 7    1  0.2288857E-006  0.4706842E+03  0.7546771E-02  0.9467906E-01
        -11   -1    0    0    0    0  0.00000000000E+00  0.00000000000E+00  0.50000000000E+03  0.50000000000E+03  0.00000000000E+00 0. -1.
         11   -1    0    0    0    0 -0.00000000000E+00 -0.00000000000E+00 -0.50000000000E+03  0.50000000000E+03  0.00000000000E+00 0.  1.
         23    2    1    2    0    0 -0.22015593341E+02 -0.33186429858E+02  0.45329312321E+03  0.46393976809E+03  0.90440186812E+02 0.  0.
        -11    1    1    2    0    0 -0.47823519365E+02 -0.43802346101E+02  0.60215365491E+01  0.65130587521E+02  0.00000000000E+00 0. -1.
         11    1    1    2    0    0  0.69839112706E+02  0.76988775960E+02 -0.45931465976E+03  0.47092964438E+03  0.00000000000E+00 0.  1.
        -15    1    3    3    0    0 -0.57123191469E+02 -0.18103570077E+02  0.30138953106E+03  0.30729400485E+03  0.17770000000E+01 0. -1.
         15    1    3    3    0    0  0.35107598128E+02 -0.15082859781E+02  0.15190359215E+03  0.15664576325E+03  0.17770000000E+01 0.  1.
</event>
<event>
 7    1  0.2288857E-006  0.5288311E+03  0.7546771E-02  0.9337513E-01
        -11   -1    0    0    0    0  0.00000000000E+00  0.00000000000E+00  0.50000000000E+03  0.50000000000E+03  0.00000000000E+00 0.  1.
         11   -1    0    0    0    0 -0.00000000000E+00 -0.00000000000E+00 -0.50000000000E+03  0.50000000000E+03  0.00000000000E+00 0. -1.
         23    2    1    2    0    0 -0.76281128274E+01 -0.13926081899E+03  0.33918496105E+03  0.37813805466E+03  0.92142209462E+02 0.  0.
        -11    1    1    2    0    0 -0.12095018846E+03 -0.79374217948E+01  0.89534574710E+02  0.15069303508E+03  0.00000000000E+00 0.  1.
         11    1    1    2    0    0  0.12857830129E+03  0.14719824078E+03 -0.42871953576E+03  0.47116891026E+03  0.00000000000E+00 0. -1.
        -15    1    3    3    0    0  0.12544513709E+02  0.88381804743E+00  0.25770779587E+01  0.12959360260E+02  0.17770000000E+01 0. -1.
         15    1    3    3    0    0 -0.20172626537E+02 -0.14014463704E+03  0.33660788309E+03  0.36517869440E+03  0.17770000000E+01 0.  1.
</event>
<event>
 7    1  0.2288857E-006  0.4852254E+03  0.7546771E-02  0.9433490E-01
        -11   -1    0    0    0    0  0.00000000000E+00  0.00000000000E+00  0.50000000000E+03  0.50000000000E+03  0.00000000000E+00 0. -1.
         11   -1    0    0    0    0 -0.00000000000E+00 -0.00000000000E+00 -0.50000000000E+03  0.50000000000E+03  0.00000000000E+00 0.  1.
         23    2    1    2    0    0  0.12290300641E+03 -0.65854665263E+02  0.45029726043E+03  0.47998518500E+03  0.90422171744E+02 0.  0.
        -11    1    1    2    0    0  0.31132619439E+02  0.20009083639E+02  0.48519517710E+01  0.37324855756E+02  0.00000000000E+00 0. -1.
         11    1    1    2    0    0 -0.15403562585E+03  0.45845581624E+02 -0.45514921220E+03  0.48268995925E+03  0.00000000000E+00 0.  1.
        -15    1    3    3    0    0  0.97396647350E+02 -0.88808881964E+02  0.35905151378E+03  0.38248434178E+03  0.17770000000E+01 0. -1.
         15    1    3    3    0    0  0.25506359064E+02  0.22954216701E+02  0.91245746651E+02  0.97500843216E+02  0.17770000000E+01 0.  1.
</event>
<event>
 7    1  0.2288857E-006  0.5380291E+03  0.7546771E-02  0.9318520E-01
        -11   -1    0    0    0    0  0.00000000000E+00  0.00000000000E+00  0.50000000000E+03  0.50000000000E+03  0.00000000000E+00 0. -1.
         11   -1    0    0    0    0 -0.00000000000E+00 -0.00000000000E+00 -0.50000000000E+03  0.50000000000E+03  0.00000000000E+00 0.  1.
         23    2    1    2    0    0  0.66240331847E+02 -0.64632883729E+02  0.28257694530E+03  0.31232859321E+03  0.95573159950E+02 0.  0.
        -11    1    1    2    0    0  0.19486020377E+02  0.15581623128E+03  0.16211816152E+03  0.22570046791E+03  0.00000000000E+00 0. -1.
         11    1    1    2    0    0 -0.85726352223E+02 -0.91183347550E+02 -0.44469510682E+03  0.46197093887E+03  0.00000000000E+00 0.  1.
        -15    1    3    3    0    0  0.77734404592E+02 -0.60385369761E+02  0.28330706926E+03  0.29992513026E+03  0.17770000000E+01 0. -1.
         15    1    3    3    0    0 -0.11494072746E+02 -0.42475139674E+01 -0.73012396696E+00  0.12403462952E+02  0.17770000000E+01 0.  1.
</event>
<event>
 7    1  0.2722247E-006  0.5056736E+03  0.7546771E-02  0.9387203E-01
        -11   -1    0    0    0    0  0.00000000000E+00  0.00000000000E+00  0.50000000000E+03  0.50000000000E+03  0.00000000000E+00 0.  1.
         11   -1    0    0    0    0 -0.00000000000E+00 -0.00000000000E+00 -0.50000000000E+03  0.50000000000E+03  0.00000000000E+00 0. -1.
         23    2    1    2    0    0  0.61435242454E+02 -0.55840435606E+02 -0.36054520030E+03  0.38095763778E+03  0.90793375608E+02 0.  0.
        -11    1    1    2    0    0 -0.92654007254E+02  0.77046689539E+02  0.47941384383E+03  0.49432640136E+03  0.00000000000E+00 0.  1.
         11    1    1    2    0    0  0.31218764800E+02 -0.21206253933E+02 -0.11886864352E+03  0.12471596087E+03  0.00000000000E+00 0. -1.
        -15    1    3    3    0    0  0.32714229359E+02  0.22361192592E+02 -0.11213363352E+03  0.11894264682E+03  0.17770000000E+01 0. -1.
         15    1    3    3    0    0  0.28721013095E+02 -0.78201628198E+02 -0.24841156678E+03  0.26201499095E+03  0.17770000000E+01 0.  1.
</event>
<event>
 7    1  0.2288857E-006  0.5148302E+03  0.7546771E-02  0.9367224E-01
        -11   -1    0    0    0    0  0.00000000000E+00  0.00000000000E+00  0.50000000000E+03  0.50000000000E+03  0.00000000000E+00 0. -1.
         11   -1    0    0    0    0 -0.00000000000E+00 -0.00000000000E+00 -0.50000000000E+03  0.50000000000E+03  0.00000000000E+00 0.  1.
         23    2    1    2    0    0  0.32342815537E+02  0.29953155146E+02 -0.15301465812E+03  0.18249657938E+03  0.89153051914E+02 0.  0.
        -11    1    1    2    0    0 -0.16451769947E+03  0.34172455288E+00  0.45642472283E+03  0.48516978247E+03  0.00000000000E+00 0. -1.
         11    1    1    2    0    0  0.13217488394E+03 -0.30294879699E+02 -0.30341006470E+03  0.33233363815E+03  0.00000000000E+00 0.  1.
        -15    1    3    3    0    0  0.52618387866E+01  0.53089715141E+02 -0.48709791470E+02  0.72263450756E+02  0.17770000000E+01 0.  1.
         15    1    3    3    0    0  0.27080976750E+02 -0.23136559995E+02 -0.10430486665E+03  0.11023312863E+03  0.17770000000E+01 0. -1.
</event>
<event>
 7    1  0.2288857E-006  0.5180580E+03  0.7546771E-02  0.9360286E-01
        -11   -1    0    0    0    0  0.00000000000E+00  0.00000000000E+00  0.50000000000E+03  0.50000000000E+03  0.00000000000E+00 0. -1.
         11   -1    0    0    0    0 -0.00000000000E+00 -0.00000000000E+00 -0.50000000000E+03  0.50000000000E+03  0.00000000000E+00 0. -1.
         23    2    1    2    0    0  0.58741045660E+02  0.75017562529E+02 -0.11992419130E+03  0.17766596950E+03  0.90029105996E+02 0.  0.
        -11    1    1    2    0    0 -0.17190529729E+03 -0.93519594084E+02  0.44042109458E+03  0.48194199471E+03  0.00000000000E+00 0. -1.
         11    1    1    2    0    0  0.11316425163E+03  0.18502031555E+02 -0.32049690328E+03  0.34039203579E+03  0.00000000000E+00 0. -1.
        -15    1    3    3    0    0  0.70582691350E+02  0.86242659514E+02 -0.88906994572E+02  0.14257392486E+03  0.17770000000E+01 0.  1.
         15    1    3    3    0    0 -0.11841645690E+02 -0.11225096985E+02 -0.31017196726E+02  0.35092044635E+02  0.17770000000E+01 0. -1.
</event>
<event>
 7    1  0.2288857E-006  0.3686532E+03  0.7546771E-02  0.9753843E-01
        -11   -1    0    0    0    0  0.00000000000E+00  0.00000000000E+00  0.50000000000E+03  0.50000000000E+03  0.00000000000E+00 0.  1.
         11   -1    0    0    0    0 -0.00000000000E+00 -0.00000000000E+00 -0.50000000000E+03  0.50000000000E+03  0.00000000000E+00 0.  1.
         23    2    1    2    0    0  0.40581754082E+02 -0.12701661491E+02  0.43513272510E+03  0.44688181133E+03  0.92491371937E+02 0.  0.
        -11    1    1    2    0    0 -0.16413931604E+03 -0.83133878033E+02 -0.25728481783E+03  0.31630433800E+03  0.00000000000E+00 0.  1.
         11    1    1    2    0    0  0.12355756196E+03  0.95835539524E+02 -0.17784790726E+03  0.23681385067E+03  0.00000000000E+00 0.  1.
        -15    1    3    3    0    0  0.56219517092E+02  0.20382892593E+02  0.33403372587E+03  0.33934905947E+03  0.17770000000E+01 0.  1.
         15    1    3    3    0    0 -0.15637763010E+02 -0.33084554084E+02  0.10109899922E+03  0.10753275187E+03  0.17770000000E+01 0. -1.
</event>
<event>
 7    1  0.2288857E-006  0.4594758E+03  0.7546771E-02  0.9495350E-01
        -11   -1    0    0    0    0  0.00000000000E+00  0.00000000000E+00  0.50000000000E+03  0.50000000000E+03  0.00000000000E+00 0.  1.
         11   -1    0    0    0    0 -0.00000000000E+00 -0.00000000000E+00 -0.50000000000E+03  0.50000000000E+03  0.00000000000E+00 0. -1.
         23    2    1    2    0    0  0.36921756936E+01  0.10619139020E+03  0.40047839211E+03  0.42419349775E+03  0.90922700509E+02 0.  0.
        -11    1    1    2    0    0  0.45215037278E+02  0.12084835452E+02  0.72235589224E+02  0.86072197570E+02  0.00000000000E+00 0.  1.
         11    1    1    2    0    0 -0.48907212972E+02 -0.11827622565E+03 -0.47271398134E+03  0.48973430468E+03  0.00000000000E+00 0. -1.
        -15    1    3    3    0    0  0.34127543686E+02  0.61269057983E+02  0.31658913624E+03  0.32426906362E+03  0.17770000000E+01 0. -1.
         15    1    3    3    0    0 -0.30435367992E+02  0.44922332214E+02  0.83889255870E+02  0.99924434128E+02  0.17770000000E+01 0.  1.
</event>
<event>
 7    1  0.2288857E-006  0.5327514E+03  0.7546771E-02  0.9329368E-01
        -11   -1    0    0    0    0  0.00000000000E+00  0.00000000000E+00  0.50000000000E+03  0.50000000000E+03  0.00000000000E+00 0. -1.
         11   -1    0    0    0    0 -0.00000000000E+00 -0.00000000000E+00 -0.50000000000E+03  0.50000000000E+03  0.00000000000E+00 0.  1.
         23    2    1    2    0    0 -0.51497352148E+02  0.27731560326E+01  0.28255283099E+03  0.30098779661E+03  0.89988242200E+02 0.  0.
        -11    1    1    2    0    0  0.11774390942E+03  0.11137570800E+03  0.16566888623E+03  0.23176357868E+03  0.00000000000E+00 0. -1.
         11    1    1    2    0    0 -0.66246557268E+02 -0.11414886403E+03 -0.44822171722E+03  0.46724862471E+03  0.00000000000E+00 0.  1.
        -15    1    3    3    0    0 -0.20056345065E+01  0.24728439538E+02  0.17393750719E+02  0.30351582905E+02  0.17770000000E+01 0.  1.
         15    1    3    3    0    0 -0.49491717641E+02 -0.21955283505E+02  0.26515908027E+03  0.27063621370E+03  0.17770000000E+01 0. -1.
</event>
<event>
 7    1  0.2288857E-006  0.4671959E+03  0.7546771E-02  0.9476360E-01
        -11   -1    0    0    0    0  0.00000000000E+00  0.00000000000E+00  0.50000000000E+03  0.50000000000E+03  0.00000000000E+00 0.  1.
         11   -1    0    0    0    0 -0.00000000000E+00 -0.00000000000E+00 -0.50000000000E+03  0.50000000000E+03  0.00000000000E+00 0. -1.
         23    2    1    2    0    0 -0.15368665148E+03  0.69372661111E+02  0.41919513960E+03  0.46103174151E+03  0.91616312187E+02 0.  0.
        -11    1    1    2    0    0  0.29910598098E+02 -0.57540366922E+02  0.31028034002E+02  0.71890726788E+02  0.00000000000E+00 0.  1.
         11    1    1    2    0    0  0.12377605339E+03 -0.11832294189E+02 -0.45022317360E+03  0.46707753171E+03  0.00000000000E+00 0. -1.
        -15    1    3    3    0    0 -0.13697567975E+03  0.18599175610E+02  0.31089270382E+03  0.34024358509E+03  0.17770000000E+01 0.  1.
         15    1    3    3    0    0 -0.16710971736E+02  0.50773485502E+02  0.10830243578E+03  0.12078815642E+03  0.17770000000E+01 0. -1.
</event>
<event>
 7    1  0.2288857E-006  0.4060318E+03  0.7546771E-02  0.9638745E-01
        -11   -1    0    0    0    0  0.00000000000E+00  0.00000000000E+00  0.50000000000E+03  0.50000000000E+03  0.00000000000E+00 0.  1.
         11   -1    0    0    0    0 -0.00000000000E+00 -0.00000000000E+00 -0.50000000000E+03  0.50000000000E+03  0.00000000000E+00 0. -1.
         23    2    1    2    0    0 -0.18982008178E+03  0.26410878390E+03 -0.19547552359E+03  0.39001522901E+03  0.90089318761E+02 0.  0.
        -11    1    1    2    0    0  0.19257875308E+03 -0.16972797063E+03  0.34689138944E+03  0.43154118716E+03  0.00000000000E+00 0.  1.
         11    1    1    2    0    0 -0.27586713010E+01 -0.94380813271E+02 -0.15141586585E+03  0.17844358383E+03  0.00000000000E+00 0. -1.
        -15    1    3    3    0    0 -0.12025288390E+03  0.22815923730E+03 -0.16374945665E+03  0.30550685088E+03  0.17770000000E+01 0. -1.
         15    1    3    3    0    0 -0.69567197879E+02  0.35949546602E+02 -0.31726066941E+02  0.84508378130E+02  0.17770000000E+01 0.  1.
</event>
<event>
 7    1  0.2288857E-006  0.4048681E+03  0.7546771E-02  0.9642125E-01
        -11   -1    0    0    0    0  0.00000000000E+00  0.00000000000E+00  0.50000000000E+03  0.50000000000E+03  0.00000000000E+00 0.  1.
         11   -1    0    0    0    0 -0.00000000000E+00 -0.00000000000E+00 -0.50000000000E+03  0.50000000000E+03  0.00000000000E+00 0. -1.
         23    2    1    2    0    0  0.64411060205E+02 -0.97737470555E+02  0.95141139265E+02  0.17633378996E+03  0.91325633161E+02 0.  0.
        -11    1    1    2    0    0 -0.33722992664E+01  0.18682334919E+03  0.33314858614E+03  0.38197161760E+03  0.00000000000E+00 0.  1.
         11    1    1    2    0    0 -0.61038760938E+02 -0.89085878631E+02 -0.42828972541E+03  0.44169459245E+03  0.00000000000E+00 0. -1.
        -15    1    3    3    0    0  0.45545222325E+02 -0.20916058602E+01  0.53485453115E+02  0.70303581101E+02  0.17770000000E+01 0.  1.
         15    1    3    3    0    0  0.18865837879E+02 -0.95645864694E+02  0.41655686150E+02  0.10603020885E+03  0.17770000000E+01 0. -1.
</event>
<event>
 7    1  0.2288857E-006  0.4677542E+03  0.7546771E-02  0.9475001E-01
        -11   -1    0    0    0    0  0.00000000000E+00  0.00000000000E+00  0.50000000000E+03  0.50000000000E+03  0.00000000000E+00 0.  1.
         11   -1    0    0    0    0 -0.00000000000E+00 -0.00000000000E+00 -0.50000000000E+03  0.50000000000E+03  0.00000000000E+00 0. -1.
         23    2    1    2    0    0  0.43613068992E+02  0.88431619355E+02  0.43074684120E+03  0.45102007207E+03  0.90299574298E+02 0.  0.
        -11    1    1    2    0    0 -0.59246639245E+02  0.66251780455E+01  0.37828230028E+02  0.70604760696E+02  0.00000000000E+00 0.  1.
         11    1    1    2    0    0  0.15633570252E+02 -0.95056797401E+02 -0.46857507123E+03  0.47837516723E+03  0.00000000000E+00 0. -1.
        -15    1    3    3    0    0  0.48945661386E+02  0.10189707760E+03  0.41218916687E+03  0.42741286739E+03  0.17770000000E+01 0.  1.
         15    1    3    3    0    0 -0.53325923939E+01 -0.13465458249E+02  0.18557674325E+02  0.23607204681E+02  0.17770000000E+01 0. -1.
</event>
<event>
 7    1  0.2288857E-006  0.4073096E+03  0.7546771E-02  0.9635046E-01
        -11   -1    0    0    0    0  0.00000000000E+00  0.00000000000E+00  0.50000000000E+03  0.50000000000E+03  0.00000000000E+00 0.  1.
         11   -1    0    0    0    0 -0.00000000000E+00 -0.00000000000E+00 -0.50000000000E+03  0.50000000000E+03  0.00000000000E+00 0. -1.
         23    2    1    2    0    0  0.17991626712E+03  0.17726310180E+02  0.32008058370E+03  0.37900352545E+03  0.92238858389E+02 0.  0.
        -11    1    1    2    0    0 -0.72736533963E+02 -0.12907607785E+03  0.96402620328E+02  0.17676171093E+03  0.00000000000E+00 0.  1.
         11    1    1    2    0    0 -0.10717973315E+03  0.11134976767E+03 -0.41648320403E+03  0.44423476361E+03  0.00000000000E+00 0. -1.
        -15    1    3    3    0    0  0.95085715544E+02  0.47192964121E+02  0.12341177191E+03  0.16279463240E+03  0.17770000000E+01 0.  1.
         15    1    3    3    0    0  0.84830551571E+02 -0.29466653941E+02  0.19666881180E+03  0.21620889306E+03  0.17770000000E+01 0. -1.
</event>
<event>
 7    1  0.2288857E-006  0.5367230E+03  0.7546771E-02  0.9321192E-01
        -11   -1    0    0    0    0  0.00000000000E+00  0.00000000000E+00  0.50000000000E+03  0.50000000000E+03  0.00000000000E+00 0.  1.
         11   -1    0    0    0    0 -0.00000000000E+00 -0.00000000000E+00 -0.50000000000E+03  0.50000000000E+03  0.00000000000E+00 0. -1.
         23    2    1    2    0    0  0.18590491539E+03  0.19396142560E+01  0.29162881229E+03  0.35964450512E+03  0.98652958581E+02 0.  0.
        -11    1    1    2    0    0 -0.31662668469E+02 -0.11588576402E+03  0.13009522206E+03  0.17707851840E+03  0.00000000000E+00 0.  1.
         11    1    1    2    0    0 -0.15424224692E+03  0.11394614976E+03 -0.42172403435E+03  0.46327697647E+03  0.00000000000E+00 0. -1.
        -15    1    3    3    0    0  0.14559615915E+03 -0.17173250931E+00  0.28310076516E+03  0.31835117719E+03  0.17770000000E+01 0.  1.
         15    1    3    3    0    0  0.40308756245E+02  0.21113467653E+01  0.85280471245E+01  0.41293327935E+02  0.17770000000E+01 0. -1.
</event>
<event>
 6    1  0.2288857E-006  0.5473218E+03  0.7546771E-02  0.9299736E-01
        -11   -1    0    0    0    0  0.00000000000E+00  0.00000000000E+00  0.50000000000E+03  0.50000000000E+03  0.00000000000E+00 0.  1.
         11   -1    0    0    0    0 -0.00000000000E+00 -0.00000000000E+00 -0.50000000000E+03  0.50000000000E+03  0.00000000000E+00 0. -1.
        -11    1    1    2    0    0  0.13813578411E+03 -0.49073590209E+02  0.24998851349E+03  0.28979987747E+03  0.00000000000E+00 0.  1.
         11    1    1    2    0    0 -0.11176736913E+03 -0.11588515748E+01 -0.43866188000E+03  0.45267817786E+03  0.00000000000E+00 0. -1.
        -15    1    1    2    0    0  0.36480907712E+02  0.79023395310E+02  0.44833059357E+02  0.97921982078E+02  0.17770000000E+01 0.  1.
         15    1    1    2    0    0 -0.62849322685E+02 -0.28790953526E+02  0.14384030716E+03  0.15959996259E+03  0.17770000000E+01 0. -1.
</event>
<event>
 7    1  0.2288857E-006  0.4979583E+03  0.7546771E-02  0.9404390E-01
        -11   -1    0    0    0    0  0.00000000000E+00  0.00000000000E+00  0.50000000000E+03  0.50000000000E+03  0.00000000000E+00 0.  1.
         11   -1    0    0    0    0 -0.00000000000E+00 -0.00000000000E+00 -0.50000000000E+03  0.50000000000E+03  0.00000000000E+00 0.  1.
         23    2    1    2    0    0 -0.11077076469E+03 -0.79723172388E+02  0.46952638275E+03  0.49735453858E+03  0.90997617667E+02 0.  0.
        -11    1    1    2    0    0  0.11321086740E+02 -0.38906524514E+01  0.31978349452E+01  0.12390735644E+02  0.00000000000E+00 0.  1.
         11    1    1    2    0    0  0.99449677952E+02  0.83613824839E+02 -0.47272421770E+03  0.49025472578E+03  0.00000000000E+00 0.  1.
        -15    1    3    3    0    0  0.51214444980E+01 -0.39824244199E+02  0.14434992784E+03  0.14984077888E+03  0.17770000000E+01 0. -1.
         15    1    3    3    0    0 -0.11589220919E+03 -0.39898928189E+02  0.32517645491E+03  0.34751375970E+03  0.17770000000E+01 0.  1.
</event>
<event>
 7    1  0.2288857E-006  0.3698906E+03  0.7546771E-02  0.9749802E-01
        -11   -1    0    0    0    0  0.00000000000E+00  0.00000000000E+00  0.50000000000E+03  0.50000000000E+03  0.00000000000E+00 0.  1.
         11   -1    0    0    0    0 -0.00000000000E+00 -0.00000000000E+00 -0.50000000000E+03  0.50000000000E+03  0.00000000000E+00 0.  1.
         23    2    1    2    0    0  0.15033717985E+03 -0.25139371882E+03  0.32802669246E+03  0.44850993152E+03  0.88088468017E+02 0.  0.
        -11    1    1    2    0    0 -0.85962639871E+02  0.21697975188E+03 -0.19225019382E+02  0.23417811501E+03  0.00000000000E+00 0.  1.
         11    1    1    2    0    0 -0.64374539983E+02  0.34413966937E+02 -0.30880167308E+03  0.31731195347E+03  0.00000000000E+00 0.  1.
        -15    1    3    3    0    0  0.15533242021E+03 -0.23985680218E+03  0.28478050920E+03  0.40343839984E+03  0.17770000000E+01 0.  1.
         15    1    3    3    0    0 -0.49952403614E+01 -0.11536916643E+02  0.43246183263E+02  0.45071531677E+02  0.17770000000E+01 0. -1.
</event>
<event>
 7    1  0.2288857E-006  0.5216609E+03  0.7546771E-02  0.9352605E-01
        -11   -1    0    0    0    0  0.00000000000E+00  0.00000000000E+00  0.50000000000E+03  0.50000000000E+03  0.00000000000E+00 0.  1.
         11   -1    0    0    0    0 -0.00000000000E+00 -0.00000000000E+00 -0.50000000000E+03  0.50000000000E+03  0.00000000000E+00 0. -1.
         23    2    1    2    0    0 -0.64119880429E+02 -0.84900504991E+01 -0.13064891311E+03  0.17166975853E+03  0.90652785251E+02 0.  0.
        -11    1    1    2    0    0  0.57246314155E+02  0.15084474997E+03  0.45030765840E+03  0.47833907042E+03  0.00000000000E+00 0.  1.
         11    1    1    2    0    0  0.68735662744E+01 -0.14235469947E+03 -0.31965874529E+03  0.34999117105E+03  0.00000000000E+00 0. -1.
        -15    1    3    3    0    0 -0.36054821062E+02  0.26057152632E+02 -0.13788244763E+02  0.46606853013E+02  0.17770000000E+01 0.  1.
         15    1    3    3    0    0 -0.28065059367E+02 -0.34547203131E+02 -0.11686066834E+03  0.12506290552E+03  0.17770000000E+01 0. -1.
</event>
<event>
 7    1  0.2288857E-006  0.5086220E+03  0.7546771E-02  0.9380721E-01
        -11   -1    0    0    0    0  0.00000000000E+00  0.00000000000E+00  0.50000000000E+03  0.50000000000E+03  0.00000000000E+00 0.  1.
         11   -1    0    0    0    0 -0.00000000000E+00 -0.00000000000E+00 -0.50000000000E+03  0.50000000000E+03  0.00000000000E+00 0. -1.
         23    2    1    2    0    0  0.17693029142E+03  0.24785721784E+01 -0.26185758846E+03  0.33241890325E+03  0.10306531552E+03 0.  0.
        -11    1    1    2    0    0 -0.26961140351E+03 -0.24663493263E+02  0.41006549486E+03  0.49137796743E+03  0.00000000000E+00 0.  1.
         11    1    1    2    0    0  0.92681112082E+02  0.22184921084E+02 -0.14820790640E+03  0.17620312932E+03  0.00000000000E+00 0. -1.
        -15    1    3    3    0    0  0.92727269180E+02  0.44697014457E+02 -0.91457424550E+02  0.13770906937E+03  0.17770000000E+01 0.  1.
         15    1    3    3    0    0  0.84203022244E+02 -0.42218442279E+02 -0.17040016391E+03  0.19470983389E+03  0.17770000000E+01 0. -1.
</event>
<event>
 7    1  0.2288857E-006  0.3579252E+03  0.7546771E-02  0.9789601E-01
        -11   -1    0    0    0    0  0.00000000000E+00  0.00000000000E+00  0.50000000000E+03  0.50000000000E+03  0.00000000000E+00 0.  1.
         11   -1    0    0    0    0 -0.00000000000E+00 -0.00000000000E+00 -0.50000000000E+03  0.50000000000E+03  0.00000000000E+00 0. -1.
         23    2    1    2    0    0 -0.20981011531E+03 -0.29822378438E+02 -0.19702649879E+03  0.30316412871E+03  0.90439974411E+02 0.  0.
        -11    1    1    2    0    0  0.11543230466E+03  0.62795239867E+01  0.42952514801E+03  0.44480996185E+03  0.00000000000E+00 0.  1.
         11    1    1    2    0    0  0.94377810646E+02  0.23542854452E+02 -0.23249864923E+03  0.25202590944E+03  0.00000000000E+00 0. -1.
        -15    1    3    3    0    0 -0.57251807839E+02 -0.79068498087E+01 -0.11463014663E+03  0.12838814595E+03  0.17770000000E+01 0.  1.
         15    1    3    3    0    0 -0.15255830747E+03 -0.21915528630E+02 -0.82396352158E+02  0.17477598276E+03  0.17770000000E+01 0. -1.
</event>
<event>
 7    1  0.2288857E-006  0.4933601E+03  0.7546771E-02  0.9414791E-01
        -11   -1    0    0    0    0  0.00000000000E+00  0.00000000000E+00  0.50000000000E+03  0.50000000000E+03  0.00000000000E+00 0.  1.
         11   -1    0    0    0    0 -0.00000000000E+00 -0.00000000000E+00 -0.50000000000E+03  0.50000000000E+03  0.00000000000E+00 0.  1.
         23    2    1    2    0    0 -0.42505919356E+01 -0.17846255551E+03  0.44727312013E+03  0.48998469826E+03  0.90359334278E+02 0.  0.
        -11    1    1    2    0    0  0.80323935827E+01  0.14854614333E+02  0.13130521803E+02  0.21391342091E+02  0.00000000000E+00 0.  1.
         11    1    1    2    0    0 -0.37818016471E+01  0.16360794118E+03 -0.46040364193E+03  0.48862395965E+03  0.00000000000E+00 0.  1.
        -15    1    3    3    0    0  0.23577355205E+02 -0.23972043788E+02  0.33785499152E+02  0.47698723712E+02  0.17770000000E+01 0. -1.
         15    1    3    3    0    0 -0.27827947141E+02 -0.15449051173E+03  0.41348762097E+03  0.44228597455E+03  0.17770000000E+01 0.  1.
</event>
<event>
 7    1  0.2288857E-006  0.5318648E+03  0.7546771E-02  0.9331203E-01
        -11   -1    0    0    0    0  0.00000000000E+00  0.00000000000E+00  0.50000000000E+03  0.50000000000E+03  0.00000000000E+00 0.  1.
         11   -1    0    0    0    0 -0.00000000000E+00 -0.00000000000E+00 -0.50000000000E+03  0.50000000000E+03  0.00000000000E+00 0. -1.
         23    2    1    2    0    0  0.44429310885E+02 -0.60512571956E+02  0.63047479516E+02  0.13066929032E+03  0.86392961101E+02 0.  0.
        -11    1    1    2    0    0 -0.91050210803E+02 -0.67252249889E+02  0.38489584959E+03  0.40119548980E+03  0.00000000000E+00 0.  1.
         11    1    1    2    0    0  0.46620899918E+02  0.12776482184E+03 -0.44794332910E+03  0.46813521989E+03  0.00000000000E+00 0. -1.
        -15    1    3    3    0    0 -0.51480433737E+01 -0.28124857661E+02 -0.15273330848E+02  0.32464478022E+02  0.17770000000E+01 0.  1.
         15    1    3    3    0    0  0.49577354259E+02 -0.32387714295E+02  0.78320810364E+02  0.98204812294E+02  0.17770000000E+01 0. -1.
</event>
<event>
 7    1  0.2288857E-006  0.5017503E+03  0.7546771E-02  0.9395902E-01
        -11   -1    0    0    0    0  0.00000000000E+00  0.00000000000E+00  0.50000000000E+03  0.50000000000E+03  0.00000000000E+00 0. -1.
         11   -1    0    0    0    0 -0.00000000000E+00 -0.00000000000E+00 -0.50000000000E+03  0.50000000000E+03  0.00000000000E+00 0.  1.
         23    2    1    2    0    0 -0.17264298081E+03  0.65590829846E+02  0.45731756393E+03  0.50175027093E+03  0.92229194488E+02 0.  0.
        -11    1    1    2    0    0  0.12930221933E+03 -0.17367814548E+02 -0.26655738778E+03  0.29677187516E+03  0.00000000000E+00 0.  1.
         11    1    1    2    0    0  0.43340761481E+02 -0.48223015298E+02 -0.19076017615E+03  0.20147785391E+03  0.00000000000E+00 0. -1.
        -15    1    3    3    0    0 -0.12488729993E+02 -0.14605015310E+02  0.14689474967E+02  0.24253108107E+02  0.17770000000E+01 0.  1.
         15    1    3    3    0    0 -0.16015425082E+03  0.80195845156E+02  0.44262808896E+03  0.47749716282E+03  0.17770000000E+01 0. -1.
</event>
<event>
 7    1  0.2288857E-006  0.5209173E+03  0.7546771E-02  0.9354185E-01
        -11   -1    0    0    0    0  0.00000000000E+00  0.00000000000E+00  0.50000000000E+03  0.50000000000E+03  0.00000000000E+00 0. -1.
         11   -1    0    0    0    0 -0.00000000000E+00 -0.00000000000E+00 -0.50000000000E+03  0.50000000000E+03  0.00000000000E+00 0. -1.
         23    2    1    2    0    0  0.20028375420E+02 -0.14616679373E+03  0.29460465428E+03  0.34268089010E+03  0.94193538552E+02 0.  0.
        -11    1    1    2    0    0 -0.98318475697E+02 -0.22344195770E+02  0.14697765911E+03  0.17823641049E+03  0.00000000000E+00 0. -1.
         11    1    1    2    0    0  0.78290100277E+02  0.16851098950E+03 -0.44158231339E+03  0.47908269941E+03  0.00000000000E+00 0. -1.
        -15    1    3    3    0    0  0.31895651934E+02 -0.28310232537E+02  0.28296400098E+02  0.51211774682E+02  0.17770000000E+01 0.  1.
         15    1    3    3    0    0 -0.11867276513E+02 -0.11785656119E+03  0.26630825418E+03  0.29146911541E+03  0.17770000000E+01 0. -1.
</event>
<event>
 7    1  0.2288857E-006  0.5011151E+03  0.7546771E-02  0.9397318E-01
        -11   -1    0    0    0    0  0.00000000000E+00  0.00000000000E+00  0.50000000000E+03  0.50000000000E+03  0.00000000000E+00 0. -1.
         11   -1    0    0    0    0 -0.00000000000E+00 -0.00000000000E+00 -0.50000000000E+03  0.50000000000E+03  0.00000000000E+00 0.  1.
         23    2    1    2    0    0  0.66936829331E+02  0.70713508033E+02  0.48308337537E+03  0.50111511633E+03  0.90916846134E+02 0.  0.
        -11    1    1    2    0    0  0.89362208193E+01  0.76890144287E+01 -0.20872029277E+02  0.23971203381E+02  0.00000000000E+00 0. -1.
         11    1    1    2    0    0 -0.75873050151E+02 -0.78402522461E+02 -0.46221134610E+03  0.47491368029E+03  0.00000000000E+00 0.  1.
        -15    1    3    3    0    0 -0.55307090207E+01 -0.14212461530E+02  0.22837854660E+02  0.27519232175E+02  0.17770000000E+01 0.  1.
         15    1    3    3    0    0  0.72467538352E+02  0.84925969563E+02  0.46024552071E+03  0.47359588415E+03  0.17770000000E+01 0. -1.
</event>
<event>
 7    1  0.2288857E-006  0.4006108E+03  0.7546771E-02  0.9654598E-01
        -11   -1    0    0    0    0  0.00000000000E+00  0.00000000000E+00  0.50000000000E+03  0.50000000000E+03  0.00000000000E+00 0.  1.
         11   -1    0    0    0    0 -0.00000000000E+00 -0.00000000000E+00 -0.50000000000E+03  0.50000000000E+03  0.00000000000E+00 0. -1.
         23    2    1    2    0    0  0.90813553751E+01 -0.64222738669E+02  0.36848470294E+03  0.38621625859E+03  0.95786172884E+02 0.  0.
        -11    1    1    2    0    0  0.18543101279E+03  0.31397222328E+02  0.85485133894E+01  0.18826450318E+03  0.00000000000E+00 0.  1.
         11    1    1    2    0    0 -0.19451236817E+03  0.32825516341E+02 -0.37703321633E+03  0.42551923824E+03  0.00000000000E+00 0. -1.
        -15    1    3    3    0    0  0.38224805971E+02 -0.74526144026E+02  0.28955786701E+03  0.30143357148E+03  0.17770000000E+01 0.  1.
         15    1    3    3    0    0 -0.29143450596E+02  0.10303405357E+02  0.78926835931E+02  0.84782687110E+02  0.17770000000E+01 0. -1.
</event>
<event>
 7    1  0.2288857E-006  0.5298830E+03  0.7546771E-02  0.9335320E-01
        -11   -1    0    0    0    0  0.00000000000E+00  0.00000000000E+00  0.50000000000E+03  0.50000000000E+03  0.00000000000E+00 0. -1.
         11   -1    0    0    0    0 -0.00000000000E+00 -0.00000000000E+00 -0.50000000000E+03  0.50000000000E+03  0.00000000000E+00 0.  1.
         23    2    1    2    0    0  0.78753278854E+01  0.73097474473E+02  0.93202869916E+00  0.11695035537E+03  0.90946442367E+02 0.  0.
        -11    1    1    2    0    0 -0.11799376845E+03 -0.37299643895E+03  0.26069350954E+03  0.47011698414E+03  0.00000000000E+00 0. -1.
         11    1    1    2    0    0  0.11011844057E+03  0.29989896447E+03 -0.26162553824E+03  0.41293266049E+03  0.00000000000E+00 0.  1.
        -15    1    3    3    0    0  0.40173701255E+02  0.35464416876E+02 -0.26971423527E+02  0.60018884969E+02  0.17770000000E+01 0.  1.
         15    1    3    3    0    0 -0.32298373370E+02  0.37633057597E+02  0.27903452226E+02  0.56931470397E+02  0.17770000000E+01 0. -1.
</event>
<event>
 7    1  0.2288857E-006  0.4874780E+03  0.7546771E-02  0.9428273E-01
        -11   -1    0    0    0    0  0.00000000000E+00  0.00000000000E+00  0.50000000000E+03  0.50000000000E+03  0.00000000000E+00 0. -1.
         11   -1    0    0    0    0 -0.00000000000E+00 -0.00000000000E+00 -0.50000000000E+03  0.50000000000E+03  0.00000000000E+00 0.  1.
         23    2    1    2    0    0 -0.87508994307E+02  0.45344094797E+02  0.45941615563E+03  0.47896393021E+03  0.92894194505E+02 0.  0.
        -11    1    1    2    0    0 -0.29765929698E+02  0.10864007657E+02  0.10558978559E+02  0.33399539837E+02  0.00000000000E+00 0. -1.
         11    1    1    2    0    0  0.11727492400E+03 -0.56208102454E+02 -0.46997513419E+03  0.48763652995E+03  0.00000000000E+00 0.  1.
        -15    1    3    3    0    0 -0.10184742939E+03  0.56620929999E+02  0.41066479792E+03  0.42688120428E+03  0.17770000000E+01 0. -1.
         15    1    3    3    0    0  0.14338435087E+02 -0.11276835202E+02  0.48751357709E+02  0.52082725931E+02  0.17770000000E+01 0.  1.
</event>
<event>
 6    1  0.2288857E-006  0.3885656E+03  0.7546771E-02  0.9690803E-01
        -11   -1    0    0    0    0  0.00000000000E+00  0.00000000000E+00  0.50000000000E+03  0.50000000000E+03  0.00000000000E+00 0. -1.
         11   -1    0    0    0    0 -0.00000000000E+00 -0.00000000000E+00 -0.50000000000E+03  0.50000000000E+03  0.00000000000E+00 0.  1.
        -11    1    1    2    0    0 -0.69052005011E+02  0.53634990397E+02  0.33669677949E+03  0.34786435993E+03  0.00000000000E+00 0. -1.
         11    1    1    2    0    0  0.44626098431E+02  0.63743464276E+02 -0.43811825283E+03  0.44497451766E+03  0.00000000000E+00 0.  1.
        -15    1    1    2    0    0 -0.35044883723E+02 -0.11150487979E+03  0.45944973178E+02  0.12560087731E+03  0.17770000000E+01 0. -1.
         15    1    1    2    0    0  0.59470790303E+02 -0.58735748823E+01  0.55476500166E+02  0.81560245101E+02  0.17770000000E+01 0.  1.
</event>
<event>
 7    1  0.2288857E-006  0.5338039E+03  0.7546771E-02  0.9327194E-01
        -11   -1    0    0    0    0  0.00000000000E+00  0.00000000000E+00  0.50000000000E+03  0.50000000000E+03  0.00000000000E+00 0. -1.
         11   -1    0    0    0    0 -0.00000000000E+00 -0.00000000000E+00 -0.50000000000E+03  0.50000000000E+03  0.00000000000E+00 0.  1.
         23    2    1    2    0    0  0.57538750720E+02 -0.17088247176E+03  0.27879049577E+03  0.34384138931E+03  0.89393699359E+02 0.  0.
        -11    1    1    2    0    0  0.73234411050E+02  0.75183055900E+02  0.15833508294E+03  0.18996254722E+03  0.00000000000E+00 0. -1.
         11    1    1    2    0    0 -0.13077316177E+03  0.95699415864E+02 -0.43712557870E+03  0.46619606347E+03  0.00000000000E+00 0.  1.
        -15    1    3    3    0    0  0.76563302652E+02 -0.16244712887E+03  0.25815131653E+03  0.31447777178E+03  0.17770000000E+01 0. -1.
         15    1    3    3    0    0 -0.19024551932E+02 -0.84353428977E+01  0.20639179239E+02  0.29363617534E+02  0.17770000000E+01 0.  1.
</event>
<event>
 7    1  0.2288857E-006  0.5149957E+03  0.7546771E-02  0.9366867E-01
        -11   -1    0    0    0    0  0.00000000000E+00  0.00000000000E+00  0.50000000000E+03  0.50000000000E+03  0.00000000000E+00 0. -1.
         11   -1    0    0    0    0 -0.00000000000E+00 -0.00000000000E+00 -0.50000000000E+03  0.50000000000E+03  0.00000000000E+00 0.  1.
         23    2    1    2    0    0  0.44975342492E+02 -0.53757050123E+01  0.29074384175E+03  0.30817743979E+03  0.91595159517E+02 0.  0.
        -11    1    1    2    0    0  0.45752920410E+02 -0.10355870982E+03  0.17307816812E+03  0.20681824964E+03  0.00000000000E+00 0. -1.
         11    1    1    2    0    0 -0.90728262902E+02  0.10893441483E+03 -0.46382200987E+03  0.48500431056E+03  0.00000000000E+00 0.  1.
        -15    1    3    3    0    0  0.59126680769E+02 -0.18156545817E+02  0.27885141659E+03  0.28563419753E+03  0.17770000000E+01 0.  1.
         15    1    3    3    0    0 -0.14151338277E+02  0.12780840804E+02  0.11892425159E+02  0.22543242266E+02  0.17770000000E+01 0. -1.
</event>
<event>
 7    1  0.2288857E-006  0.5079118E+03  0.7546771E-02  0.9382278E-01
        -11   -1    0    0    0    0  0.00000000000E+00  0.00000000000E+00  0.50000000000E+03  0.50000000000E+03  0.00000000000E+00 0.  1.
         11   -1    0    0    0    0 -0.00000000000E+00 -0.00000000000E+00 -0.50000000000E+03  0.50000000000E+03  0.00000000000E+00 0.  1.
         23    2    1    2    0    0 -0.81550527216E+02  0.24822397080E+02  0.47585859801E+03  0.49208820587E+03  0.91884477336E+02 0.  0.
        -11    1    1    2    0    0  0.13378278372E+02 -0.64797394150E+02 -0.78009489111E+02  0.10228959386E+03  0.00000000000E+00 0.  1.
         11    1    1    2    0    0  0.68172248843E+02  0.39974997070E+02 -0.39784910889E+03  0.40562220027E+03  0.00000000000E+00 0.  1.
        -15    1    3    3    0    0  0.14577939659E+02 -0.14349993731E+02  0.58056227530E+02  0.61580207281E+02  0.17770000000E+01 0. -1.
         15    1    3    3    0    0 -0.96128466875E+02  0.39172390810E+02  0.41780237048E+03  0.43050799859E+03  0.17770000000E+01 0.  1.
</event>
<event>
 7    1  0.2288857E-006  0.5022611E+03  0.7546771E-02  0.9394765E-01
        -11   -1    0    0    0    0  0.00000000000E+00  0.00000000000E+00  0.50000000000E+03  0.50000000000E+03  0.00000000000E+00 0.  1.
         11   -1    0    0    0    0 -0.00000000000E+00 -0.00000000000E+00 -0.50000000000E+03  0.50000000000E+03  0.00000000000E+00 0. -1.
         23    2    1    2    0    0  0.47841682409E+02  0.85350693661E+02  0.47879483527E+03  0.49773893205E+03  0.94477419105E+02 0.  0.
        -11    1    1    2    0    0  0.17291594028E+02 -0.22400490362E+02 -0.20105635711E+02  0.34713366011E+02  0.00000000000E+00 0.  1.
         11    1    1    2    0    0 -0.65133276437E+02 -0.62950203298E+02 -0.45868919956E+03  0.46754770193E+03  0.00000000000E+00 0. -1.
        -15    1    3    3    0    0  0.48991784995E+02 -0.13484079645E+01  0.18755525329E+03  0.19386114610E+03  0.17770000000E+01 0.  1.
         15    1    3    3    0    0 -0.11501025859E+01  0.86699101625E+02  0.29123958198E+03  0.30387778596E+03  0.17770000000E+01 0. -1.
</event>
<event>
 7    1  0.2288857E-006  0.5110540E+03  0.7546771E-02  0.9375410E-01
        -11   -1    0    0    0    0  0.00000000000E+00  0.00000000000E+00  0.50000000000E+03  0.50000000000E+03  0.00000000000E+00 0. -1.
         11   -1    0    0    0    0 -0.00000000000E+00 -0.00000000000E+00 -0.50000000000E+03  0.50000000000E+03  0.00000000000E+00 0.  1.
         23    2    1    2    0    0 -0.19298016744E+02 -0.15443268587E+03 -0.36038578931E+03  0.40303256437E+03  0.91298756249E+02 0.  0.
        -11    1    1    2    0    0  0.39426824091E+02  0.23871043918E+03  0.42488944771E+03  0.48894600009E+03  0.00000000000E+00 0. -1.
         11    1    1    2    0    0 -0.20128807347E+02 -0.84277753318E+02 -0.64503658397E+02  0.10802143554E+03  0.00000000000E+00 0.  1.
        -15    1    3    3    0    0  0.28058034446E+02 -0.10867390194E+03 -0.25696965298E+03  0.28041724366E+03  0.17770000000E+01 0.  1.
         15    1    3    3    0    0 -0.47356051190E+02 -0.45758783928E+02 -0.10341613633E+03  0.12261532071E+03  0.17770000000E+01 0. -1.
</event>
<event>
 7    1  0.2288857E-006  0.5311996E+03  0.7546771E-02  0.9332583E-01
        -11   -1    0    0    0    0  0.00000000000E+00  0.00000000000E+00  0.50000000000E+03  0.50000000000E+03  0.00000000000E+00 0.  1.
         11   -1    0    0    0    0 -0.00000000000E+00 -0.00000000000E+00 -0.50000000000E+03  0.50000000000E+03  0.00000000000E+00 0.  1.
         23    2    1    2    0    0  0.17820608129E+02 -0.25221214450E+02 -0.10892822729E+03  0.14413011800E+03  0.89187714853E+02 0.  0.
        -11    1    1    2    0    0 -0.26524637751E+02 -0.20179593293E+03  0.42231341151E+03  0.46880035462E+03  0.00000000000E+00 0.  1.
         11    1    1    2    0    0  0.87040296220E+01  0.22701714738E+03 -0.31338518422E+03  0.38706952738E+03  0.00000000000E+00 0.  1.
        -15    1    3    3    0    0  0.17613472943E+02  0.29413468707E+02 -0.66839144084E+02  0.75139972593E+02  0.17770000000E+01 0.  1.
         15    1    3    3    0    0  0.20713518604E+00 -0.54634683157E+02 -0.42089083207E+02  0.68990145403E+02  0.17770000000E+01 0. -1.
</event>
<event>
 7    1  0.2288857E-006  0.5214239E+03  0.7546771E-02  0.9353108E-01
        -11   -1    0    0    0    0  0.00000000000E+00  0.00000000000E+00  0.50000000000E+03  0.50000000000E+03  0.00000000000E+00 0. -1.
         11   -1    0    0    0    0 -0.00000000000E+00 -0.00000000000E+00 -0.50000000000E+03  0.50000000000E+03  0.00000000000E+00 0.  1.
         23    2    1    2    0    0  0.15543204465E+02 -0.35783987846E+02  0.30982286568E+03  0.32549416733E+03  0.91837682243E+02 0.  0.
        -11    1    1    2    0    0 -0.11830763712E+03 -0.51969736868E+00  0.15617776885E+03  0.19592973886E+03  0.00000000000E+00 0. -1.
         11    1    1    2    0    0  0.10276443266E+03  0.36303685215E+02 -0.46600063453E+03  0.47857609381E+03  0.00000000000E+00 0.  1.
        -15    1    3    3    0    0  0.36869287415E+02  0.18441063432E+02  0.11779666587E+03  0.12481437976E+03  0.17770000000E+01 0.  1.
         15    1    3    3    0    0 -0.21326082950E+02 -0.54225051277E+02  0.19202619980E+03  0.20067978757E+03  0.17770000000E+01 0. -1.
</event>
<event>
 7    1  0.2288857E-006  0.5174883E+03  0.7546771E-02  0.9361507E-01
        -11   -1    0    0    0    0  0.00000000000E+00  0.00000000000E+00  0.50000000000E+03  0.50000000000E+03  0.00000000000E+00 0.  1.
         11   -1    0    0    0    0 -0.00000000000E+00 -0.00000000000E+00 -0.50000000000E+03  0.50000000000E+03  0.00000000000E+00 0. -1.
         23    2    1    2    0    0 -0.28057425668E+03  0.51961603070E+02  0.37826057808E+03  0.48251171670E+03  0.91184264644E+02 0.  0.
        -11    1    1    2    0    0  0.13622812283E+03 -0.70951079967E+02 -0.55335719825E+02  0.16326113771E+03  0.00000000000E+00 0.  1.
         11    1    1    2    0    0  0.14434613385E+03  0.18989476896E+02 -0.32292485825E+03  0.35422714558E+03  0.00000000000E+00 0. -1.
        -15    1    3    3    0    0 -0.24893831236E+03  0.36716846529E+02  0.36813521162E+03  0.44592051079E+03  0.17770000000E+01 0.  1.
         15    1    3    3    0    0 -0.31635944323E+02  0.15244756541E+02  0.10125366461E+02  0.36591205913E+02  0.17770000000E+01 0. -1.
</event>
<event>
 7    1  0.2288857E-006  0.5230868E+03  0.7546771E-02  0.9349583E-01
        -11   -1    0    0    0    0  0.00000000000E+00  0.00000000000E+00  0.50000000000E+03  0.50000000000E+03  0.00000000000E+00 0.  1.
         11   -1    0    0    0    0 -0.00000000000E+00 -0.00000000000E+00 -0.50000000000E+03  0.50000000000E+03  0.00000000000E+00 0.  1.
         23    2    1    2    0    0  0.62656130541E+02 -0.32577201812E+01  0.12908137173E+03  0.17012588469E+03  0.91347756839E+02 0.  0.
        -11    1    1    2    0    0 -0.26460928200E+02  0.11015643307E+03  0.33428544748E+03  0.35296087725E+03  0.00000000000E+00 0.  1.
         11    1    1    2    0    0 -0.36195202341E+02 -0.10689871288E+03 -0.46336681921E+03  0.47691323806E+03  0.00000000000E+00 0.  1.
        -15    1    3    3    0    0  0.10221407116E+02 -0.29556625442E+02  0.99679381526E+02  0.10448544445E+03  0.17770000000E+01 0. -1.
         15    1    3    3    0    0  0.52434723426E+02  0.26298905260E+02  0.29401990204E+02  0.65640440245E+02  0.17770000000E+01 0.  1.
</event>
<event>
 7    1  0.2288857E-006  0.3379739E+03  0.7546771E-02  0.9859816E-01
        -11   -1    0    0    0    0  0.00000000000E+00  0.00000000000E+00  0.50000000000E+03  0.50000000000E+03  0.00000000000E+00 0.  1.
         11   -1    0    0    0    0 -0.00000000000E+00 -0.00000000000E+00 -0.50000000000E+03  0.50000000000E+03  0.00000000000E+00 0.  1.
         23    2    1    2    0    0 -0.22832022919E+03  0.28222878386E+03  0.39040596945E+02  0.37639895282E+03  0.91481090818E+02 0.  0.
        -11    1    1    2    0    0  0.27632382496E+03 -0.10696678814E+03  0.17397684760E+03  0.34360543288E+03  0.00000000000E+00 0.  1.
         11    1    1    2    0    0 -0.48003595770E+02 -0.17526199572E+03 -0.21301744454E+03  0.27999561430E+03  0.00000000000E+00 0.  1.
        -15    1    3    3    0    0 -0.10863620793E+02  0.34648672565E+01  0.19060170103E+02  0.22281637624E+02  0.17770000000E+01 0. -1.
         15    1    3    3    0    0 -0.21745660839E+03  0.27876391660E+03  0.19980426842E+02  0.35411731519E+03  0.17770000000E+01 0.  1.
</event>
<event>
 7    1  0.2288857E-006  0.5298903E+03  0.7546771E-02  0.9335305E-01
        -11   -1    0    0    0    0  0.00000000000E+00  0.00000000000E+00  0.50000000000E+03  0.50000000000E+03  0.00000000000E+00 0. -1.
         11   -1    0    0    0    0 -0.00000000000E+00 -0.00000000000E+00 -0.50000000000E+03  0.50000000000E+03  0.00000000000E+00 0. -1.
         23    2    1    2    0    0  0.94468840289E+02  0.48722045390E+02  0.18077123047E+03  0.24049998334E+03  0.11774465903E+03 0.  0.
        -11    1    1    2    0    0 -0.58926040156E+02  0.24116848588E+02  0.28229927491E+03  0.28939036129E+03  0.00000000000E+00 0. -1.
         11    1    1    2    0    0 -0.35542800133E+02 -0.72838893978E+02 -0.46307050538E+03  0.47010965537E+03  0.00000000000E+00 0. -1.
        -15    1    3    3    0    0  0.13674521609E+02 -0.27508356913E+02  0.95843404205E+02  0.10066189994E+03  0.17770000000E+01 0.  1.
         15    1    3    3    0    0  0.80794318680E+02  0.76230402304E+02  0.84927826264E+02  0.13983808340E+03  0.17770000000E+01 0. -1.
</event>
<event>
 7    1  0.2288857E-006  0.4785509E+03  0.7546771E-02  0.9449126E-01
        -11   -1    0    0    0    0  0.00000000000E+00  0.00000000000E+00  0.50000000000E+03  0.50000000000E+03  0.00000000000E+00 0.  1.
         11   -1    0    0    0    0 -0.00000000000E+00 -0.00000000000E+00 -0.50000000000E+03  0.50000000000E+03  0.00000000000E+00 0. -1.
         23    2    1    2    0    0  0.80007375843E+02  0.51899907650E+02  0.46959469650E+03  0.48770689836E+03  0.90796801320E+02 0.  0.
        -11    1    1    2    0    0 -0.43049485157E+01 -0.48130100057E+02 -0.13821101492E+02  0.50259943888E+02  0.00000000000E+00 0.  1.
         11    1    1    2    0    0 -0.75702427327E+02 -0.37698075934E+01 -0.45577359501E+03  0.46203315775E+03  0.00000000000E+00 0. -1.
        -15    1    3    3    0    0  0.86807550852E+02  0.68778931859E+02  0.36192005389E+03  0.37849091863E+03  0.17770000000E+01 0.  1.
         15    1    3    3    0    0 -0.68001750093E+01 -0.16879024209E+02  0.10767464261E+03  0.10921597973E+03  0.17770000000E+01 0. -1.
</event>
<event>
 7    1  0.2288857E-006  0.5103779E+03  0.7546771E-02  0.9376883E-01
        -11   -1    0    0    0    0  0.00000000000E+00  0.00000000000E+00  0.50000000000E+03  0.50000000000E+03  0.00000000000E+00 0.  1.
         11   -1    0    0    0    0 -0.00000000000E+00 -0.00000000000E+00 -0.50000000000E+03  0.50000000000E+03  0.00000000000E+00 0. -1.
         23    2    1    2    0    0  0.63041369221E+02 -0.68248695845E+02  0.37909158540E+03  0.40109400589E+03  0.92378962539E+02 0.  0.
        -11    1    1    2    0    0 -0.33933771321E+02 -0.94176851638E+01  0.10345423512E+03  0.10928390729E+03  0.00000000000E+00 0.  1.
         11    1    1    2    0    0 -0.29107597900E+02  0.77666381009E+02 -0.48254582052E+03  0.48962208681E+03  0.00000000000E+00 0. -1.
        -15    1    3    3    0    0 -0.11448355272E+02 -0.37503614129E+02  0.57958819063E+02  0.69999773909E+02  0.17770000000E+01 0.  1.
         15    1    3    3    0    0  0.74489724493E+02 -0.30745081717E+02  0.32113276634E+03  0.33109423198E+03  0.17770000000E+01 0. -1.
</event>
<event>
 7    1  0.2288857E-006  0.4694876E+03  0.7546771E-02  0.9470797E-01
        -11   -1    0    0    0    0  0.00000000000E+00  0.00000000000E+00  0.50000000000E+03  0.50000000000E+03  0.00000000000E+00 0.  1.
         11   -1    0    0    0    0 -0.00000000000E+00 -0.00000000000E+00 -0.50000000000E+03  0.50000000000E+03  0.00000000000E+00 0.  1.
         23    2    1    2    0    0 -0.56351807880E+02 -0.13478387270E+02  0.45353825632E+03  0.46637556666E+03  0.91934901158E+02 0.  0.
        -11    1    1    2    0    0 -0.45135489225E+02  0.50399201918E+02 -0.25732934702E+00  0.67656176066E+02  0.00000000000E+00 0.  1.
         11    1    1    2    0    0  0.10148729711E+03 -0.36920814648E+02 -0.45328092698E+03  0.46596825728E+03  0.00000000000E+00 0.  1.
        -15    1    3    3    0    0 -0.59522675867E+01  0.35544735411E+02  0.20163545552E+03  0.20483864956E+03  0.17770000000E+01 0.  1.
         15    1    3    3    0    0 -0.50399540294E+02 -0.49023122680E+02  0.25190280081E+03  0.26153691709E+03  0.17770000000E+01 0. -1.
</event>
<event>
 7    1  0.2288857E-006  0.5152334E+03  0.7546771E-02  0.9366354E-01
        -11   -1    0    0    0    0  0.00000000000E+00  0.00000000000E+00  0.50000000000E+03  0.50000000000E+03  0.00000000000E+00 0. -1.
         11   -1    0    0    0    0 -0.00000000000E+00 -0.00000000000E+00 -0.50000000000E+03  0.50000000000E+03  0.00000000000E+00 0.  1.
         23    2    1    2    0    0 -0.10208021804E+03 -0.39015852853E+02  0.30394686816E+03  0.33568343215E+03  0.91416958306E+02 0.  0.
        -11    1    1    2    0    0  0.15705508982E+02  0.45336253716E+02  0.17302071535E+03  0.17955001212E+03  0.00000000000E+00 0. -1.
         11    1    1    2    0    0  0.86374709062E+02 -0.63204008633E+01 -0.47696758351E+03  0.48476655573E+03  0.00000000000E+00 0.  1.
        -15    1    3    3    0    0 -0.95666740948E+02 -0.59675097046E+02  0.28630770863E+03  0.30771497246E+03  0.17770000000E+01 0. -1.
         15    1    3    3    0    0 -0.64134770963E+01  0.20659244194E+02  0.17639159534E+02  0.27968459686E+02  0.17770000000E+01 0.  1.
</event>
<event>
 7    1  0.2288857E-006  0.5064703E+03  0.7546771E-02  0.9385447E-01
        -11   -1    0    0    0    0  0.00000000000E+00  0.00000000000E+00  0.50000000000E+03  0.50000000000E+03  0.00000000000E+00 0.  1.
         11   -1    0    0    0    0 -0.00000000000E+00 -0.00000000000E+00 -0.50000000000E+03  0.50000000000E+03  0.00000000000E+00 0. -1.
         23    2    1    2    0    0  0.62010584928E+01 -0.56298779712E+02  0.32741619743E+03  0.34492810709E+03  0.92552833550E+02 0.  0.
        -11    1    1    2    0    0 -0.81629143026E+01 -0.31141579650E+02  0.15830174480E+03  0.16154217270E+03  0.00000000000E+00 0.  1.
         11    1    1    2    0    0  0.19618558098E+01  0.87440359362E+02 -0.48571794223E+03  0.49352972021E+03  0.00000000000E+00 0. -1.
        -15    1    3    3    0    0 -0.19645260999E+01  0.24928347697E+02  0.53165659381E+02  0.58779477270E+02  0.17770000000E+01 0.  1.
         15    1    3    3    0    0  0.81655845927E+01 -0.81227127410E+02  0.27425053805E+03  0.28614862982E+03  0.17770000000E+01 0. -1.
</event>
<event>
 7    1  0.2288857E-006  0.5298685E+03  0.7546771E-02  0.9335350E-01
        -11   -1    0    0    0    0  0.00000000000E+00  0.00000000000E+00  0.50000000000E+03  0.50000000000E+03  0.00000000000E+00 0. -1.
         11   -1    0    0    0    0 -0.00000000000E+00 -0.00000000000E+00 -0.50000000000E+03  0.50000000000E+03  0.00000000000E+00 0.  1.
         23    2    1    2    0    0 -0.14898678058E+03 -0.54137781625E+02  0.17646433745E+03  0.25427247418E+03  0.91579847949E+02 0.  0.
        -11    1    1    2    0    0 -0.83218485211E+01  0.70633730393E+02  0.26626075690E+03  0.27559602264E+03  0.00000000000E+00 0. -1.
         11    1    1    2    0    0  0.15730862910E+03 -0.16495948768E+02 -0.44272509435E+03  0.47013150318E+03  0.00000000000E+00 0.  1.
        -15    1    3    3    0    0 -0.83714222728E+02 -0.24217560215E+02  0.31846387570E+02  0.92800384913E+02  0.17770000000E+01 0.  1.
         15    1    3    3    0    0 -0.65272557848E+02 -0.29920221410E+02  0.14461794988E+03  0.16147208927E+03  0.17770000000E+01 0. -1.
</event>
<event>
 7    1  0.2288857E-006  0.3692883E+03  0.7546771E-02  0.9751767E-01
        -11   -1    0    0    0    0  0.00000000000E+00  0.00000000000E+00  0.50000000000E+03  0.50000000000E+03  0.00000000000E+00 0.  1.
         11   -1    0    0    0    0 -0.00000000000E+00 -0.00000000000E+00 -0.50000000000E+03  0.50000000000E+03  0.00000000000E+00 0. -1.
         23    2    1    2    0    0  0.32686905538E+01  0.20483200579E+03  0.20631600152E+02  0.23326144974E+03  0.10962849118E+03 0.  0.
        -11    1    1    2    0    0  0.45004741579E+02 -0.12848028416E+03  0.35510004710E+03  0.38030074104E+03  0.00000000000E+00 0.  1.
         11    1    1    2    0    0 -0.48273432133E+02 -0.76351721626E+02 -0.37573164725E+03  0.38643780922E+03  0.00000000000E+00 0. -1.
        -15    1    3    3    0    0  0.34198829614E+02  0.37032696418E+02 -0.25473607104E+02  0.56507016722E+02  0.17770000000E+01 0. -1.
         15    1    3    3    0    0 -0.30930139060E+02  0.16779930937E+03  0.46105207256E+02  0.17675443302E+03  0.17770000000E+01 0.  1.
</event>
<event>
 7    1  0.2288857E-006  0.4682234E+03  0.7546771E-02  0.9473861E-01
        -11   -1    0    0    0    0  0.00000000000E+00  0.00000000000E+00  0.50000000000E+03  0.50000000000E+03  0.00000000000E+00 0.  1.
         11   -1    0    0    0    0 -0.00000000000E+00 -0.00000000000E+00 -0.50000000000E+03  0.50000000000E+03  0.00000000000E+00 0.  1.
         23    2    1    2    0    0 -0.58742885880E+02 -0.61724121540E+02  0.42064645169E+03  0.43884921448E+03  0.91567471890E+02 0.  0.
        -11    1    1    2    0    0  0.21941225239E+02 -0.25518438368E+02  0.61332434131E+02  0.69959099038E+02  0.00000000000E+00 0.  1.
         11    1    1    2    0    0  0.36801660641E+02  0.87242559908E+02 -0.48197888582E+03  0.49119168648E+03  0.00000000000E+00 0.  1.
        -15    1    3    3    0    0 -0.19614593327E+02  0.14310154044E+02  0.28493141727E+02  0.37477054775E+02  0.17770000000E+01 0.  1.
         15    1    3    3    0    0 -0.39128292553E+02 -0.76034275583E+02  0.39215330997E+03  0.40137215971E+03  0.17770000000E+01 0. -1.
</event>
<event>
 7    1  0.2288857E-006  0.4920662E+03  0.7546771E-02  0.9417739E-01
        -11   -1    0    0    0    0  0.00000000000E+00  0.00000000000E+00  0.50000000000E+03  0.50000000000E+03  0.00000000000E+00 0.  1.
         11   -1    0    0    0    0 -0.00000000000E+00 -0.00000000000E+00 -0.50000000000E+03  0.50000000000E+03  0.00000000000E+00 0. -1.
         23    2    1    2    0    0 -0.19177668628E+03  0.83087253031E+02  0.42448241928E+03  0.48204507666E+03  0.92197302799E+02 0.  0.
        -11    1    1    2    0    0  0.78703302239E+00  0.12991031344E+02  0.20497153847E+02  0.24280025374E+02  0.00000000000E+00 0.  1.
         11    1    1    2    0    0  0.19098965326E+03 -0.96078284375E+02 -0.44497957312E+03  0.49367489796E+03  0.00000000000E+00 0. -1.
        -15    1    3    3    0    0 -0.17765461516E+03  0.66483070085E+02  0.41832381263E+03  0.45932464645E+03  0.17770000000E+01 0.  1.
         15    1    3    3    0    0 -0.14122071122E+02  0.16604182947E+02  0.61586066428E+01  0.22720430209E+02  0.17770000000E+01 0. -1.
</event>
<event>
 7    1  0.2288857E-006  0.5305693E+03  0.7546771E-02  0.9333892E-01
        -11   -1    0    0    0    0  0.00000000000E+00  0.00000000000E+00  0.50000000000E+03  0.50000000000E+03  0.00000000000E+00 0. -1.
         11   -1    0    0    0    0 -0.00000000000E+00 -0.00000000000E+00 -0.50000000000E+03  0.50000000000E+03  0.00000000000E+00 0.  1.
         23    2    1    2    0    0  0.56317607120E+02  0.16253822716E+02  0.11697850363E+03  0.15857105721E+03  0.89582086652E+02 0.  0.
        -11    1    1    2    0    0 -0.12766505057E+03  0.14289726759E+03  0.31884903527E+03  0.37199825472E+03  0.00000000000E+00 0. -1.
         11    1    1    2    0    0  0.71347443453E+02 -0.15915109030E+03 -0.43582753890E+03  0.46943068807E+03  0.00000000000E+00 0.  1.
        -15    1    3    3    0    0  0.34843894621E+02 -0.29137462470E+02  0.20652112186E+02  0.49927509234E+02  0.17770000000E+01 0.  1.
         15    1    3    3    0    0  0.21473712498E+02  0.45391285186E+02  0.96326391447E+02  0.10864354798E+03  0.17770000000E+01 0. -1.
</event>
<event>
 7    1  0.2288857E-006  0.5256238E+03  0.7546771E-02  0.9344232E-01
        -11   -1    0    0    0    0  0.00000000000E+00  0.00000000000E+00  0.50000000000E+03  0.50000000000E+03  0.00000000000E+00 0. -1.
         11   -1    0    0    0    0 -0.00000000000E+00 -0.00000000000E+00 -0.50000000000E+03  0.50000000000E+03  0.00000000000E+00 0.  1.
         23    2    1    2    0    0  0.30130256686E+02 -0.10101952503E+03 -0.21760616802E+03  0.26075864981E+03  0.97620962331E+02 0.  0.
        -11    1    1    2    0    0 -0.11318772971E+03  0.32299472991E+02  0.45954116875E+03  0.47437622610E+03  0.00000000000E+00 0. -1.
         11    1    1    2    0    0  0.83057473023E+02  0.68720052040E+02 -0.24193500074E+03  0.26486512409E+03  0.00000000000E+00 0.  1.
        -15    1    3    3    0    0  0.49464263305E+02 -0.54402564973E+02 -0.58945324597E+02  0.94255299271E+02  0.17770000000E+01 0. -1.
         15    1    3    3    0    0 -0.19334006619E+02 -0.46616960059E+02 -0.15866084342E+03  0.16650335054E+03  0.17770000000E+01 0.  1.
</event>
<event>
 7    1  0.2288857E-006  0.5163682E+03  0.7546771E-02  0.9363911E-01
        -11   -1    0    0    0    0  0.00000000000E+00  0.00000000000E+00  0.50000000000E+03  0.50000000000E+03  0.00000000000E+00 0.  1.
         11   -1    0    0    0    0 -0.00000000000E+00 -0.00000000000E+00 -0.50000000000E+03  0.50000000000E+03  0.00000000000E+00 0. -1.
         23    2    1    2    0    0  0.87239594263E+02  0.10513323609E+03  0.38496166687E+03  0.41855113878E+03  0.91245967966E+02 0.  0.
        -11    1    1    2    0    0  0.32914716569E+02 -0.46064061422E+02  0.79767806382E+02  0.97817070374E+02  0.00000000000E+00 0.  1.
         11    1    1    2    0    0 -0.12015431083E+03 -0.59069174666E+02 -0.46472947326E+03  0.48363179085E+03  0.00000000000E+00 0. -1.
        -15    1    3    3    0    0  0.82684896550E+02  0.76432244380E+02  0.36802427553E+03  0.38486842584E+03  0.17770000000E+01 0.  1.
         15    1    3    3    0    0  0.45546977136E+01  0.28700991708E+02  0.16937391344E+02  0.33682712938E+02  0.17770000000E+01 0. -1.
</event>
<event>
 7    1  0.2288857E-006  0.5407644E+03  0.7546771E-02  0.9312949E-01
        -11   -1    0    0    0    0  0.00000000000E+00  0.00000000000E+00  0.50000000000E+03  0.50000000000E+03  0.00000000000E+00 0. -1.
         11   -1    0    0    0    0 -0.00000000000E+00 -0.00000000000E+00 -0.50000000000E+03  0.50000000000E+03  0.00000000000E+00 0. -1.
         23    2    1    2    0    0 -0.22905480560E+02 -0.28666008470E+02  0.28707988971E+03  0.30324444135E+03  0.90531359502E+02 0.  0.
        -11    1    1    2    0    0 -0.21163421469E+03 -0.31416015712E+02  0.10314903945E+03  0.23751995960E+03  0.00000000000E+00 0. -1.
         11    1    1    2    0    0  0.23453969525E+03  0.60082024182E+02 -0.39022892916E+03  0.45923559905E+03  0.00000000000E+00 0. -1.
        -15    1    3    3    0    0  0.29072575988E+02  0.12161340933E+02  0.91883127381E+02  0.97153382412E+02  0.17770000000E+01 0.  1.
         15    1    3    3    0    0 -0.51978056549E+02 -0.40827349402E+02  0.19519676233E+03  0.20609105894E+03  0.17770000000E+01 0. -1.
</event>
<event>
 7    1  0.2288857E-006  0.4969652E+03  0.7546771E-02  0.9406626E-01
        -11   -1    0    0    0    0  0.00000000000E+00  0.00000000000E+00  0.50000000000E+03  0.50000000000E+03  0.00000000000E+00 0.  1.
         11   -1    0    0    0    0 -0.00000000000E+00 -0.00000000000E+00 -0.50000000000E+03  0.50000000000E+03  0.00000000000E+00 0.  1.
         23    2    1    2    0    0 -0.77056863864E+02 -0.13561566346E+03  0.46194732052E+03  0.49911452896E+03  0.10672683655E+03 0.  0.
        -11    1    1    2    0    0  0.15106812288E+02 -0.76440415723E+01 -0.44633811472E+01  0.17509109638E+02  0.00000000000E+00 0.  1.
         11    1    1    2    0    0  0.61950051577E+02  0.14325970503E+03 -0.45748393937E+03  0.48337636140E+03  0.00000000000E+00 0.  1.
        -15    1    3    3    0    0 -0.40948001943E+02 -0.13499770754E+03  0.42329156477E+03  0.44618384825E+03  0.17770000000E+01 0.  1.
         15    1    3    3    0    0 -0.36108861922E+02 -0.61795591132E+00  0.38655755749E+02  0.52930680709E+02  0.17770000000E+01 0. -1.
</event>
<event>
 7    1  0.2288857E-006  0.5261529E+03  0.7546771E-02  0.9343120E-01
        -11   -1    0    0    0    0  0.00000000000E+00  0.00000000000E+00  0.50000000000E+03  0.50000000000E+03  0.00000000000E+00 0. -1.
         11   -1    0    0    0    0 -0.00000000000E+00 -0.00000000000E+00 -0.50000000000E+03  0.50000000000E+03  0.00000000000E+00 0.  1.
         23    2    1    2    0    0  0.61629531030E+01 -0.13794485074E+03 -0.36513662622E+03  0.40105275339E+03  0.91933624746E+02 0.  0.
        -11    1    1    2    0    0 -0.10297520776E+03  0.19618448158E+03  0.41885419640E+03  0.47384710833E+03  0.00000000000E+00 0. -1.
         11    1    1    2    0    0  0.96812254656E+02 -0.58239630843E+02 -0.53717570184E+02  0.12510013828E+03  0.00000000000E+00 0.  1.
        -15    1    3    3    0    0 -0.12476202536E+02 -0.32601283839E+02 -0.21248262499E+02  0.40904104023E+02  0.17770000000E+01 0. -1.
         15    1    3    3    0    0  0.18639155639E+02 -0.10534356690E+03 -0.34388836372E+03  0.36014864937E+03  0.17770000000E+01 0.  1.
</event>
<event>
 7    1  0.2288857E-006  0.5173348E+03  0.7546771E-02  0.9361836E-01
        -11   -1    0    0    0    0  0.00000000000E+00  0.00000000000E+00  0.50000000000E+03  0.50000000000E+03  0.00000000000E+00 0. -1.
         11   -1    0    0    0    0 -0.00000000000E+00 -0.00000000000E+00 -0.50000000000E+03  0.50000000000E+03  0.00000000000E+00 0. -1.
         23    2    1    2    0    0  0.69601415893E+02 -0.11395486154E+02 -0.25397793928E+03  0.27874665657E+03  0.90668024753E+02 0.  0.
        -11    1    1    2    0    0 -0.11140329743E+03 -0.10577443161E+03  0.45756609192E+03  0.48266515674E+03  0.00000000000E+00 0. -1.
         11    1    1    2    0    0  0.41801881540E+02  0.11716991777E+03 -0.20358815264E+03  0.23858818668E+03  0.00000000000E+00 0. -1.
        -15    1    3    3    0    0  0.90363286413E+02 -0.17712534954E+02 -0.18958982509E+03  0.21077646200E+03  0.17770000000E+01 0. -1.
         15    1    3    3    0    0 -0.20761870520E+02  0.63170487997E+01 -0.64388114189E+02  0.67970194577E+02  0.17770000000E+01 0.  1.
</event>
<event>
 7    1  0.2288857E-006  0.3965150E+03  0.7546771E-02  0.9666754E-01
        -11   -1    0    0    0    0  0.00000000000E+00  0.00000000000E+00  0.50000000000E+03  0.50000000000E+03  0.00000000000E+00 0. -1.
         11   -1    0    0    0    0 -0.00000000000E+00 -0.00000000000E+00 -0.50000000000E+03  0.50000000000E+03  0.00000000000E+00 0.  1.
         23    2    1    2    0    0  0.27888032885E+03 -0.61886321452E+02  0.34391031434E+03  0.45619765021E+03  0.90762531632E+02 0.  0.
        -11    1    1    2    0    0 -0.17935634189E+03  0.73030369988E+02 -0.85881958902E+01  0.19384501393E+03  0.00000000000E+00 0. -1.
         11    1    1    2    0    0 -0.99523986966E+02 -0.11144048535E+02 -0.33532211845E+03  0.34995733586E+03  0.00000000000E+00 0.  1.
        -15    1    3    3    0    0  0.19768608732E+02  0.14834049937E+02  0.10215158624E+02  0.26802129084E+02  0.17770000000E+01 0.  1.
         15    1    3    3    0    0  0.25911172012E+03 -0.76720371389E+02  0.33369515572E+03  0.42939552113E+03  0.17770000000E+01 0. -1.
</event>
<event>
 7    1  0.2288857E-006  0.5185869E+03  0.7546771E-02  0.9359154E-01
        -11   -1    0    0    0    0  0.00000000000E+00  0.00000000000E+00  0.50000000000E+03  0.50000000000E+03  0.00000000000E+00 0.  1.
         11   -1    0    0    0    0 -0.00000000000E+00 -0.00000000000E+00 -0.50000000000E+03  0.50000000000E+03  0.00000000000E+00 0.  1.
         23    2    1    2    0    0  0.83454486093E+02 -0.22017008034E+02  0.31969973154E+03  0.34683385441E+03  0.10313294492E+03 0.  0.
        -11    1    1    2    0    0  0.69052668972E+02 -0.10189548427E+03  0.11978381920E+03  0.17175309065E+03  0.00000000000E+00 0.  1.
         11    1    1    2    0    0 -0.15250715507E+03  0.12391249230E+03 -0.43948355074E+03  0.48141305494E+03  0.00000000000E+00 0.  1.
        -15    1    3    3    0    0 -0.18981097768E+02 -0.23220421911E+02  0.10003846230E+03  0.10445248553E+03  0.17770000000E+01 0.  1.
         15    1    3    3    0    0  0.10243558386E+03  0.12034138763E+01  0.21966126924E+03  0.24238136888E+03  0.17770000000E+01 0. -1.
</event>
<event>
 7    1  0.2288857E-006  0.4920632E+03  0.7546771E-02  0.9417746E-01
        -11   -1    0    0    0    0  0.00000000000E+00  0.00000000000E+00  0.50000000000E+03  0.50000000000E+03  0.00000000000E+00 0.  1.
         11   -1    0    0    0    0 -0.00000000000E+00 -0.00000000000E+00 -0.50000000000E+03  0.50000000000E+03  0.00000000000E+00 0.  1.
         23    2    1    2    0    0  0.10195844589E+03  0.10557126981E+03  0.45766524141E+03  0.48922919165E+03  0.91361430969E+02 0.  0.
        -11    1    1    2    0    0 -0.11261987050E+02 -0.17468574487E+02  0.12260643238E+02  0.24131034365E+02  0.00000000000E+00 0.  1.
         11    1    1    2    0    0 -0.90696458842E+02 -0.88102695319E+02 -0.46992588465E+03  0.48663977399E+03  0.00000000000E+00 0.  1.
        -15    1    3    3    0    0  0.11826791900E+03  0.10096494129E+03  0.42077834228E+03  0.44859646799E+03  0.17770000000E+01 0.  1.
         15    1    3    3    0    0 -0.16309473105E+02  0.46063285180E+01  0.36886899129E+02  0.40632723657E+02  0.17770000000E+01 0. -1.
</event>
<event>
 7    1  0.2288857E-006  0.5209961E+03  0.7546771E-02  0.9354017E-01
        -11   -1    0    0    0    0  0.00000000000E+00  0.00000000000E+00  0.50000000000E+03  0.50000000000E+03  0.00000000000E+00 0.  1.
         11   -1    0    0    0    0 -0.00000000000E+00 -0.00000000000E+00 -0.50000000000E+03  0.50000000000E+03  0.00000000000E+00 0. -1.
         23    2    1    2    0    0 -0.32951372129E+03 -0.12759117689E+03  0.31023872393E+03  0.47900389963E+03  0.91311932956E+02 0.  0.
        -11    1    1    2    0    0  0.21537179242E+03  0.36525725024E+02 -0.52340401084E+02  0.22463004061E+03  0.00000000000E+00 0.  1.
         11    1    1    2    0    0  0.11414192887E+03  0.91065451869E+02 -0.25789832285E+03  0.29636605976E+03  0.00000000000E+00 0. -1.
        -15    1    3    3    0    0 -0.15956212177E+03 -0.13381649458E+02  0.13185333105E+03  0.20743094726E+03  0.17770000000E+01 0. -1.
         15    1    3    3    0    0 -0.16995159952E+03 -0.11420952743E+03  0.17838539288E+03  0.27157295237E+03  0.17770000000E+01 0.  1.
</event>
<event>
 7    1  0.2288857E-006  0.5297134E+03  0.7546771E-02  0.9335673E-01
        -11   -1    0    0    0    0  0.00000000000E+00  0.00000000000E+00  0.50000000000E+03  0.50000000000E+03  0.00000000000E+00 0. -1.
         11   -1    0    0    0    0 -0.00000000000E+00 -0.00000000000E+00 -0.50000000000E+03  0.50000000000E+03  0.00000000000E+00 0.  1.
         23    2    1    2    0    0  0.18316241135E+03  0.45334258625E+02 -0.26954383979E+03  0.34245924761E+03  0.94977843559E+02 0.  0.
        -11    1    1    2    0    0 -0.14063915795E+03 -0.10933880243E+02  0.44863184965E+03  0.47028657116E+03  0.00000000000E+00 0. -1.
         11    1    1    2    0    0 -0.42523253404E+02 -0.34400378382E+02 -0.17908800987E+03  0.18725418124E+03  0.00000000000E+00 0.  1.
        -15    1    3    3    0    0  0.13762335933E+03  0.43210277286E+02 -0.12498196279E+03  0.19086897561E+03  0.17770000000E+01 0. -1.
         15    1    3    3    0    0  0.45539052020E+02  0.21239813398E+01 -0.14456187700E+03  0.15159027200E+03  0.17770000000E+01 0.  1.
</event>
<event>
 7    1  0.2288857E-006  0.5232822E+03  0.7546771E-02  0.9349170E-01
        -11   -1    0    0    0    0  0.00000000000E+00  0.00000000000E+00  0.50000000000E+03  0.50000000000E+03  0.00000000000E+00 0. -1.
         11   -1    0    0    0    0 -0.00000000000E+00 -0.00000000000E+00 -0.50000000000E+03  0.50000000000E+03  0.00000000000E+00 0. -1.
         23    2    1    2    0    0 -0.37452768018E+02 -0.48494918632E+01  0.38081032429E+03  0.39350775779E+03  0.91682195384E+02 0.  0.
        -11    1    1    2    0    0  0.26362560106E+01 -0.99736365524E+02  0.82988631488E+02  0.12977444051E+03  0.00000000000E+00 0. -1.
         11    1    1    2    0    0  0.34816512007E+02  0.10458585739E+03 -0.46379895578E+03  0.47671780170E+03  0.00000000000E+00 0. -1.
        -15    1    3    3    0    0 -0.66646601555E+02  0.69115121334E+01  0.23791699536E+03  0.24717846369E+03  0.17770000000E+01 0.  1.
         15    1    3    3    0    0  0.29193833537E+02 -0.11761003997E+02  0.14289332893E+03  0.14632929410E+03  0.17770000000E+01 0. -1.
</event>
<event>
 7    1  0.2288857E-006  0.4760869E+03  0.7546771E-02  0.9454966E-01
        -11   -1    0    0    0    0  0.00000000000E+00  0.00000000000E+00  0.50000000000E+03  0.50000000000E+03  0.00000000000E+00 0.  1.
         11   -1    0    0    0    0 -0.00000000000E+00 -0.00000000000E+00 -0.50000000000E+03  0.50000000000E+03  0.00000000000E+00 0. -1.
         23    2    1    2    0    0 -0.13173695724E+02  0.12163017599E+03  0.45630186923E+03  0.48119515967E+03  0.91487375389E+02 0.  0.
        -11    1    1    2    0    0  0.17499237329E+02  0.46345409111E+02 -0.24103699042E+02  0.55091819359E+02  0.00000000000E+00 0.  1.
         11    1    1    2    0    0 -0.43255416053E+01 -0.16797558510E+03 -0.43219817019E+03  0.46371302097E+03  0.00000000000E+00 0. -1.
        -15    1    3    3    0    0 -0.44962762713E+02  0.45650925656E+02  0.13416056474E+03  0.14868716120E+03  0.17770000000E+01 0.  1.
         15    1    3    3    0    0  0.31789066989E+02  0.75979250333E+02  0.32214130449E+03  0.33250799847E+03  0.17770000000E+01 0. -1.
</event>
<event>
 7    1  0.2288857E-006  0.3600069E+03  0.7546771E-02  0.9782558E-01
        -11   -1    0    0    0    0  0.00000000000E+00  0.00000000000E+00  0.50000000000E+03  0.50000000000E+03  0.00000000000E+00 0.  1.
         11   -1    0    0    0    0 -0.00000000000E+00 -0.00000000000E+00 -0.50000000000E+03  0.50000000000E+03  0.00000000000E+00 0.  1.
         23    2    1    2    0    0  0.65352631982E+02 -0.10666365527E+03  0.18911363578E+03  0.24512786273E+03  0.93142900907E+02 0.  0.
        -11    1    1    2    0    0 -0.25507400084E+03 -0.68997598217E+02  0.16863825387E+03  0.31346814054E+03  0.00000000000E+00 0.  1.
         11    1    1    2    0    0  0.18972136886E+03  0.17566125349E+03 -0.35775188965E+03  0.44140399673E+03  0.00000000000E+00 0.  1.
        -15    1    3    3    0    0  0.51892346612E+02 -0.10509462450E+03  0.19708139059E+03  0.22930749657E+03  0.17770000000E+01 0.  1.
         15    1    3    3    0    0  0.13460285370E+02 -0.15690307747E+01 -0.79677548170E+01  0.15820366167E+02  0.17770000000E+01 0. -1.
</event>
<event>
 7    1  0.2288857E-006  0.4096336E+03  0.7546771E-02  0.9628357E-01
        -11   -1    0    0    0    0  0.00000000000E+00  0.00000000000E+00  0.50000000000E+03  0.50000000000E+03  0.00000000000E+00 0.  1.
         11   -1    0    0    0    0 -0.00000000000E+00 -0.00000000000E+00 -0.50000000000E+03  0.50000000000E+03  0.00000000000E+00 0.  1.
         23    2    1    2    0    0 -0.21798122976E+03 -0.34902414883E+02  0.30914675999E+03  0.39090472627E+03  0.92199732746E+02 0.  0.
        -11    1    1    2    0    0  0.47045242914E+02  0.14818538178E+03  0.75774974081E+02  0.17295666784E+03  0.00000000000E+00 0.  1.
         11    1    1    2    0    0  0.17093598684E+03 -0.11328296690E+03 -0.38492173407E+03  0.43613860589E+03  0.00000000000E+00 0.  1.
        -15    1    3    3    0    0 -0.22169616782E+03 -0.23585437679E+02  0.30572225833E+03  0.37838435573E+03  0.17770000000E+01 0.  1.
         15    1    3    3    0    0  0.37149380613E+01 -0.11316977204E+02  0.34245016602E+01  0.12520370539E+02  0.17770000000E+01 0. -1.
</event>
<event>
 7    1  0.2288857E-006  0.5225907E+03  0.7546771E-02  0.9350633E-01
        -11   -1    0    0    0    0  0.00000000000E+00  0.00000000000E+00  0.50000000000E+03  0.50000000000E+03  0.00000000000E+00 0. -1.
         11   -1    0    0    0    0 -0.00000000000E+00 -0.00000000000E+00 -0.50000000000E+03  0.50000000000E+03  0.00000000000E+00 0.  1.
         23    2    1    2    0    0 -0.25512498940E+02  0.13673530174E+02 -0.96626052948E+02  0.13682800694E+03  0.92452454515E+02 0.  0.
        -11    1    1    2    0    0 -0.61109781888E+02 -0.74371982497E+02  0.46760462379E+03  0.47740934366E+03  0.00000000000E+00 0. -1.
         11    1    1    2    0    0  0.86622280827E+02  0.60698452323E+02 -0.37097857084E+03  0.38576264940E+03  0.00000000000E+00 0.  1.
        -15    1    3    3    0    0 -0.39084912828E+02  0.37471153899E+02 -0.24125369582E+02  0.59303532541E+02  0.17770000000E+01 0.  1.
         15    1    3    3    0    0  0.13572413888E+02 -0.23797623725E+02 -0.72500683366E+02  0.77524474402E+02  0.17770000000E+01 0. -1.
</event>
<event>
 7    1  0.2288857E-006  0.3326034E+03  0.7546771E-02  0.9879609E-01
        -11   -1    0    0    0    0  0.00000000000E+00  0.00000000000E+00  0.50000000000E+03  0.50000000000E+03  0.00000000000E+00 0.  1.
         11   -1    0    0    0    0 -0.00000000000E+00 -0.00000000000E+00 -0.50000000000E+03  0.50000000000E+03  0.00000000000E+00 0. -1.
         23    2    1    2    0    0  0.53606400369E+01 -0.24887106329E+03  0.98216952137E+02  0.28298378049E+03  0.92020148475E+02 0.  0.
        -11    1    1    2    0    0 -0.12336394846E+03  0.14745626119E+03  0.26180304084E+03  0.32481201476E+03  0.00000000000E+00 0.  1.
         11    1    1    2    0    0  0.11800330842E+03  0.10141480210E+03 -0.36001999297E+03  0.39220420475E+03  0.00000000000E+00 0. -1.
        -15    1    3    3    0    0  0.46649463554E+02 -0.92717350456E+02  0.35592401218E+02  0.10973903717E+03  0.17770000000E+01 0.  1.
         15    1    3    3    0    0 -0.41288823518E+02 -0.15615371284E+03  0.62624550918E+02  0.17324474332E+03  0.17770000000E+01 0. -1.
</event>
<event>
 7    1  0.2288857E-006  0.4653209E+03  0.7546771E-02  0.9480936E-01
        -11   -1    0    0    0    0  0.00000000000E+00  0.00000000000E+00  0.50000000000E+03  0.50000000000E+03  0.00000000000E+00 0.  1.
         11   -1    0    0    0    0 -0.00000000000E+00 -0.00000000000E+00 -0.50000000000E+03  0.50000000000E+03  0.00000000000E+00 0. -1.
         23    2    1    2    0    0  0.49123408868E+02 -0.52658633161E+02  0.42196963734E+03  0.43745004158E+03  0.90100627579E+02 0.  0.
        -11    1    1    2    0    0 -0.20766827797E+02 -0.47686871217E+02  0.54186479970E+02  0.75109742609E+02  0.00000000000E+00 0.  1.
         11    1    1    2    0    0 -0.28356581071E+02  0.10034550438E+03 -0.47615611731E+03  0.48744021582E+03  0.00000000000E+00 0. -1.
        -15    1    3    3    0    0  0.50153392207E+01  0.24246691820E+02  0.63602077955E+02  0.68274722562E+02  0.17770000000E+01 0. -1.
         15    1    3    3    0    0  0.44108069647E+02 -0.76905324981E+02  0.35836755939E+03  0.36917531901E+03  0.17770000000E+01 0.  1.
</event>
<event>
 7    1  0.2288857E-006  0.4534754E+03  0.7546771E-02  0.9510387E-01
        -11   -1    0    0    0    0  0.00000000000E+00  0.00000000000E+00  0.50000000000E+03  0.50000000000E+03  0.00000000000E+00 0. -1.
         11   -1    0    0    0    0 -0.00000000000E+00 -0.00000000000E+00 -0.50000000000E+03  0.50000000000E+03  0.00000000000E+00 0. -1.
         23    2    1    2    0    0 -0.16296277053E+03  0.16414569180E+03  0.35666689317E+03  0.43469888200E+03  0.90835965416E+02 0.  0.
        -11    1    1    2    0    0  0.66213201135E+02  0.53512189413E+02  0.46517659938E+02  0.97013582072E+02  0.00000000000E+00 0. -1.
         11    1    1    2    0    0  0.96749569397E+02 -0.21765788122E+03 -0.40318455311E+03  0.46828753592E+03  0.00000000000E+00 0. -1.
        -15    1    3    3    0    0 -0.13599153837E+02 -0.79921928196E+01  0.51020746679E+02  0.53433009010E+02  0.17770000000E+01 0.  1.
         15    1    3    3    0    0 -0.14936361669E+03  0.17213788462E+03  0.30564614649E+03  0.38126587299E+03  0.17770000000E+01 0. -1.
</event>
<event>
 7    1  0.2288857E-006  0.4569631E+03  0.7546771E-02  0.9501617E-01
        -11   -1    0    0    0    0  0.00000000000E+00  0.00000000000E+00  0.50000000000E+03  0.50000000000E+03  0.00000000000E+00 0.  1.
         11   -1    0    0    0    0 -0.00000000000E+00 -0.00000000000E+00 -0.50000000000E+03  0.50000000000E+03  0.00000000000E+00 0.  1.
         23    2    1    2    0    0 -0.25123602008E+02 -0.24501111779E+02  0.43869788269E+03  0.44928702852E+03  0.90396359761E+02 0.  0.
        -11    1    1    2    0    0 -0.33636194808E+02 -0.83979937979E+02  0.45852290545E+01  0.90581719511E+02  0.00000000000E+00 0.  1.
         11    1    1    2    0    0  0.58759796817E+02  0.10848104976E+03 -0.44328311175E+03  0.46013125197E+03  0.00000000000E+00 0.  1.
        -15    1    3    3    0    0 -0.39343724500E+02 -0.52008138396E+02  0.32167191978E+03  0.32822059171E+03  0.17770000000E+01 0.  1.
         15    1    3    3    0    0  0.14220122492E+02  0.27507026617E+02  0.11702596292E+03  0.12106643681E+03  0.17770000000E+01 0. -1.
</event>
<event>
 7    1  0.2288857E-006  0.5116738E+03  0.7546771E-02  0.9374061E-01
        -11   -1    0    0    0    0  0.00000000000E+00  0.00000000000E+00  0.50000000000E+03  0.50000000000E+03  0.00000000000E+00 0. -1.
         11   -1    0    0    0    0 -0.00000000000E+00 -0.00000000000E+00 -0.50000000000E+03  0.50000000000E+03  0.00000000000E+00 0. -1.
         23    2    1    2    0    0  0.17529208918E+03 -0.60186339687E+02  0.44290630931E+03  0.48832620970E+03  0.89144692743E+02 0.  0.
        -11    1    1    2    0    0 -0.68566530666E+02  0.75344738428E+02 -0.70267938283E+02  0.12375694682E+03  0.00000000000E+00 0. -1.
         11    1    1    2    0    0 -0.10672555851E+03 -0.15158398741E+02 -0.37263837102E+03  0.38791684348E+03  0.00000000000E+00 0. -1.
        -15    1    3    3    0    0  0.78419240319E+02  0.16490169057E+02  0.20793111249E+03  0.22284525617E+03  0.17770000000E+01 0.  1.
         15    1    3    3    0    0  0.96872848861E+02 -0.76676508744E+02  0.23497519682E+03  0.26548095353E+03  0.17770000000E+01 0. -1.
</event>
<event>
 6    1  0.2508858E-006  0.3377166E+03  0.7546771E-02  0.9860755E-01
        -11   -1    0    0    0    0  0.00000000000E+00  0.00000000000E+00  0.50000000000E+03  0.50000000000E+03  0.00000000000E+00 0.  1.
         11   -1    0    0    0    0 -0.00000000000E+00 -0.00000000000E+00 -0.50000000000E+03  0.50000000000E+03  0.00000000000E+00 0.  1.
        -11    1    1    2    0    0 -0.42449361921E+02  0.82399566858E+02  0.30259248763E+03  0.31647093155E+03  0.00000000000E+00 0.  1.
         11    1    1    2    0    0 -0.54565120762E+02  0.45746734028E+02 -0.37487213852E+03  0.38157467987E+03  0.00000000000E+00 0.  1.
        -15    1    1    2    0    0  0.91033844997E+02 -0.63654253275E+02  0.15883651497E+03  0.19383297220E+03  0.17770000000E+01 0.  1.
         15    1    1    2    0    0  0.59806376851E+01 -0.64492047610E+02 -0.86556864081E+02  0.10812141638E+03  0.17770000000E+01 0. -1.
</event>
<event>
 7    1  0.2288857E-006  0.3328404E+03  0.7546771E-02  0.9878727E-01
        -11   -1    0    0    0    0  0.00000000000E+00  0.00000000000E+00  0.50000000000E+03  0.50000000000E+03  0.00000000000E+00 0.  1.
         11   -1    0    0    0    0 -0.00000000000E+00 -0.00000000000E+00 -0.50000000000E+03  0.50000000000E+03  0.00000000000E+00 0. -1.
         23    2    1    2    0    0  0.12560544774E+03 -0.23463659242E+03  0.27773136244E+02  0.28255072187E+03  0.90733148997E+02 0.  0.
        -11    1    1    2    0    0 -0.60680662175E+02  0.51374019549E+02  0.31418263803E+03  0.32408665922E+03  0.00000000000E+00 0.  1.
         11    1    1    2    0    0 -0.64924785567E+02  0.18326257287E+03 -0.34195577427E+03  0.39336261891E+03  0.00000000000E+00 0. -1.
        -15    1    3    3    0    0  0.28986737891E+00 -0.37343091582E+02 -0.22273136812E+02  0.43518281957E+02  0.17770000000E+01 0. -1.
         15    1    3    3    0    0  0.12531558036E+03 -0.19729350084E+03  0.50046273056E+02  0.23903243992E+03  0.17770000000E+01 0.  1.
</event>
<event>
 7    1  0.2288857E-006  0.5081153E+03  0.7546771E-02  0.9381832E-01
        -11   -1    0    0    0    0  0.00000000000E+00  0.00000000000E+00  0.50000000000E+03  0.50000000000E+03  0.00000000000E+00 0.  1.
         11   -1    0    0    0    0 -0.00000000000E+00 -0.00000000000E+00 -0.50000000000E+03  0.50000000000E+03  0.00000000000E+00 0. -1.
         23    2    1    2    0    0  0.73630630849E+02 -0.11849468751E+02  0.38603639516E+03  0.40211466612E+03  0.84322159688E+02 0.  0.
        -11    1    1    2    0    0  0.60356337089E+02 -0.66208508438E+01  0.86887365800E+02  0.10600064824E+03  0.00000000000E+00 0.  1.
         11    1    1    2    0    0 -0.13398696794E+03  0.18470319595E+02 -0.47292376096E+03  0.49188468563E+03  0.00000000000E+00 0. -1.
        -15    1    3    3    0    0 -0.96923874837E+01 -0.25033393884E+02  0.69508980793E+02  0.74533679128E+02  0.17770000000E+01 0. -1.
         15    1    3    3    0    0  0.83323018332E+02  0.13183925133E+02  0.31652741437E+03  0.32758098699E+03  0.17770000000E+01 0.  1.
</event>
<event>
 7    1  0.2288857E-006  0.5188608E+03  0.7546771E-02  0.9358569E-01
        -11   -1    0    0    0    0  0.00000000000E+00  0.00000000000E+00  0.50000000000E+03  0.50000000000E+03  0.00000000000E+00 0.  1.
         11   -1    0    0    0    0 -0.00000000000E+00 -0.00000000000E+00 -0.50000000000E+03  0.50000000000E+03  0.00000000000E+00 0. -1.
         23    2    1    2    0    0 -0.69180300678E+02 -0.29833128005E+02  0.34444190124E+03  0.36480883525E+03  0.93644719114E+02 0.  0.
        -11    1    1    2    0    0 -0.77143883737E+02 -0.90655894045E+02  0.97787189903E+02  0.15405195368E+03  0.00000000000E+00 0.  1.
         11    1    1    2    0    0  0.14632418442E+03  0.12048902205E+03 -0.44222909114E+03  0.48113921107E+03  0.00000000000E+00 0. -1.
        -15    1    3    3    0    0  0.64604835536E+01 -0.39826874653E+02  0.80624411015E+02  0.90174115870E+02  0.17770000000E+01 0. -1.
         15    1    3    3    0    0 -0.75640784232E+02  0.99937466482E+01  0.26381749022E+03  0.27463471938E+03  0.17770000000E+01 0.  1.
</event>
<event>
 7    1  0.2288857E-006  0.5251334E+03  0.7546771E-02  0.9345264E-01
        -11   -1    0    0    0    0  0.00000000000E+00  0.00000000000E+00  0.50000000000E+03  0.50000000000E+03  0.00000000000E+00 0. -1.
         11   -1    0    0    0    0 -0.00000000000E+00 -0.00000000000E+00 -0.50000000000E+03  0.50000000000E+03  0.00000000000E+00 0.  1.
         23    2    1    2    0    0  0.12025446096E+03 -0.14007160381E+03  0.17815268792E+03  0.27217267583E+03  0.90875715552E+02 0.  0.
        -11    1    1    2    0    0 -0.45576964997E+02 -0.20902847406E+03  0.13497772513E+03  0.25296076571E+03  0.00000000000E+00 0. -1.
         11    1    1    2    0    0 -0.74677495964E+02  0.34910007787E+03 -0.31313041305E+03  0.47486655847E+03  0.00000000000E+00 0.  1.
        -15    1    3    3    0    0  0.11980440295E+03 -0.12054991106E+03  0.18516808123E+03  0.25134787060E+03  0.17770000000E+01 0. -1.
         15    1    3    3    0    0  0.45005800935E+00 -0.19521692758E+02 -0.70153933067E+01  0.20824805223E+02  0.17770000000E+01 0.  1.
</event>
<event>
 7    1  0.2288857E-006  0.4792743E+03  0.7546771E-02  0.9447418E-01
        -11   -1    0    0    0    0  0.00000000000E+00  0.00000000000E+00  0.50000000000E+03  0.50000000000E+03  0.00000000000E+00 0. -1.
         11   -1    0    0    0    0 -0.00000000000E+00 -0.00000000000E+00 -0.50000000000E+03  0.50000000000E+03  0.00000000000E+00 0.  1.
         23    2    1    2    0    0  0.10009248590E+03  0.50703796097E+02  0.44850442085E+03  0.47112248983E+03  0.90613488116E+02 0.  0.
        -11    1    1    2    0    0 -0.35614910388E+02  0.26038740112E+02  0.20951358601E+02  0.48840528824E+02  0.00000000000E+00 0. -1.
         11    1    1    2    0    0 -0.64477575509E+02 -0.76742536209E+02 -0.46945577945E+03  0.48003698135E+03  0.00000000000E+00 0.  1.
        -15    1    3    3    0    0  0.24435376159E+02  0.21868334501E+02  0.28811011399E+02  0.43686883257E+02  0.17770000000E+01 0.  1.
         15    1    3    3    0    0  0.75657109738E+02  0.28835461596E+02  0.41969340945E+03  0.42743560657E+03  0.17770000000E+01 0. -1.
</event>
<event>
 7    1  0.2288857E-006  0.3914669E+03  0.7546771E-02  0.9681955E-01
        -11   -1    0    0    0    0  0.00000000000E+00  0.00000000000E+00  0.50000000000E+03  0.50000000000E+03  0.00000000000E+00 0. -1.
         11   -1    0    0    0    0 -0.00000000000E+00 -0.00000000000E+00 -0.50000000000E+03  0.50000000000E+03  0.00000000000E+00 0. -1.
         23    2    1    2    0    0  0.48189681012E+02  0.19420715587E+03  0.30474246487E+03  0.37587822762E+03  0.91530363031E+02 0.  0.
        -11    1    1    2    0    0  0.41445802891E+02 -0.16626495539E+03  0.10686260074E+03  0.20194406504E+03  0.00000000000E+00 0. -1.
         11    1    1    2    0    0 -0.89635483902E+02 -0.27942200482E+02 -0.41160506561E+03  0.42217770734E+03  0.00000000000E+00 0. -1.
        -15    1    3    3    0    0  0.54060967559E+02  0.61350482300E+02  0.15744183044E+03  0.17741915791E+03  0.17770000000E+01 0.  1.
         15    1    3    3    0    0 -0.58712865472E+01  0.13285667357E+03  0.14730063442E+03  0.19845906970E+03  0.17770000000E+01 0. -1.
</event>
<event>
 7    1  0.2288857E-006  0.5407503E+03  0.7546771E-02  0.9312978E-01
        -11   -1    0    0    0    0  0.00000000000E+00  0.00000000000E+00  0.50000000000E+03  0.50000000000E+03  0.00000000000E+00 0.  1.
         11   -1    0    0    0    0 -0.00000000000E+00 -0.00000000000E+00 -0.50000000000E+03  0.50000000000E+03  0.00000000000E+00 0. -1.
         23    2    1    2    0    0 -0.82077176596E+01 -0.53574530987E+00  0.19020481822E+02  0.93789761951E+02  0.91471782894E+02 0.  0.
        -11    1    1    2    0    0 -0.37874285879E+03 -0.20917327383E+03  0.11213450065E+03  0.44696057746E+03  0.00000000000E+00 0.  1.
         11    1    1    2    0    0  0.38695057645E+03  0.20970901914E+03 -0.13115498247E+03  0.45924966059E+03  0.00000000000E+00 0. -1.
        -15    1    3    3    0    0 -0.23093956050E+02  0.37333822266E+02  0.27978137983E+02  0.52087225161E+02  0.17770000000E+01 0.  1.
         15    1    3    3    0    0  0.14886238390E+02 -0.37869567576E+02 -0.89576561607E+01  0.41702536789E+02  0.17770000000E+01 0. -1.
</event>
<event>
 7    1  0.2288857E-006  0.5249419E+03  0.7546771E-02  0.9345667E-01
        -11   -1    0    0    0    0  0.00000000000E+00  0.00000000000E+00  0.50000000000E+03  0.50000000000E+03  0.00000000000E+00 0.  1.
         11   -1    0    0    0    0 -0.00000000000E+00 -0.00000000000E+00 -0.50000000000E+03  0.50000000000E+03  0.00000000000E+00 0. -1.
         23    2    1    2    0    0  0.54996952560E+01  0.84574192129E+01  0.40104164050E+03  0.41422063739E+03  0.10316280547E+03 0.  0.
        -11    1    1    2    0    0 -0.40549668329E+01 -0.87793588964E+02  0.67342700203E+02  0.11072125491E+03  0.00000000000E+00 0.  1.
         11    1    1    2    0    0 -0.14447284232E+01  0.79336169751E+02 -0.46838434071E+03  0.47505810770E+03  0.00000000000E+00 0. -1.
        -15    1    3    3    0    0 -0.21347966668E+02 -0.38051721480E+02  0.25275651809E+03  0.25650084669E+03  0.17770000000E+01 0.  1.
         15    1    3    3    0    0  0.26847661924E+02  0.46509140693E+02  0.14828512242E+03  0.15771979070E+03  0.17770000000E+01 0. -1.
</event>
<event>
 7    1  0.2288857E-006  0.5039189E+03  0.7546771E-02  0.9391083E-01
        -11   -1    0    0    0    0  0.00000000000E+00  0.00000000000E+00  0.50000000000E+03  0.50000000000E+03  0.00000000000E+00 0.  1.
         11   -1    0    0    0    0 -0.00000000000E+00 -0.00000000000E+00 -0.50000000000E+03  0.50000000000E+03  0.00000000000E+00 0.  1.
         23    2    1    2    0    0 -0.14524002016E+03  0.73349822201E+02  0.45952511553E+03  0.49608113354E+03  0.91969013125E+02 0.  0.
        -11    1    1    2    0    0  0.16309075092E+03 -0.84624706709E+02 -0.38734937475E+03  0.42871840658E+03  0.00000000000E+00 0.  1.
         11    1    1    2    0    0 -0.17850730766E+02  0.11274884508E+02 -0.72175740780E+02  0.75200459883E+02  0.00000000000E+00 0.  1.
        -15    1    3    3    0    0 -0.13428325217E+03  0.87459075157E+02  0.44503084754E+03  0.47300813379E+03  0.17770000000E+01 0.  1.
         15    1    3    3    0    0 -0.10956767987E+02 -0.14109252956E+02  0.14494267990E+02  0.23072999745E+02  0.17770000000E+01 0. -1.
</event>
<event>
 7    1  0.2288857E-006  0.5006421E+03  0.7546771E-02  0.9398374E-01
        -11   -1    0    0    0    0  0.00000000000E+00  0.00000000000E+00  0.50000000000E+03  0.50000000000E+03  0.00000000000E+00 0.  1.
         11   -1    0    0    0    0 -0.00000000000E+00 -0.00000000000E+00 -0.50000000000E+03  0.50000000000E+03  0.00000000000E+00 0. -1.
         23    2    1    2    0    0 -0.98549583792E+02  0.29908591677E+02  0.47806105337E+03  0.49935794103E+03  0.10104176462E+03 0.  0.
        -11    1    1    2    0    0  0.49497762491E+02  0.22789603121E+02 -0.84475667755E+02  0.10052627987E+03  0.00000000000E+00 0.  1.
         11    1    1    2    0    0  0.49051821301E+02 -0.52698194798E+02 -0.39358538562E+03  0.40011577910E+03  0.00000000000E+00 0. -1.
        -15    1    3    3    0    0 -0.10732109265E+03  0.36168802836E+02  0.47455843506E+03  0.48788816879E+03  0.17770000000E+01 0.  1.
         15    1    3    3    0    0  0.87715088546E+01 -0.62602111587E+01  0.35026183143E+01  0.11469772247E+02  0.17770000000E+01 0. -1.
</event>
<event>
 7    1  0.2288857E-006  0.3722374E+03  0.7546771E-02  0.9742186E-01
        -11   -1    0    0    0    0  0.00000000000E+00  0.00000000000E+00  0.50000000000E+03  0.50000000000E+03  0.00000000000E+00 0.  1.
         11   -1    0    0    0    0 -0.00000000000E+00 -0.00000000000E+00 -0.50000000000E+03  0.50000000000E+03  0.00000000000E+00 0. -1.
         23    2    1    2    0    0  0.16360685655E+03  0.82021632502E+02 -0.95100901132E+02  0.22748361823E+03  0.95968033511E+02 0.  0.
        -11    1    1    2    0    0 -0.14814248054E+03  0.14961654658E+03  0.36200006457E+03  0.41877840477E+03  0.00000000000E+00 0.  1.
         11    1    1    2    0    0 -0.15464376010E+02 -0.23163817908E+03 -0.26689916344E+03  0.35373797701E+03  0.00000000000E+00 0. -1.
        -15    1    3    3    0    0  0.13895121820E+03  0.82837554648E+02 -0.39355532165E+02  0.16649779920E+03  0.17770000000E+01 0.  1.
         15    1    3    3    0    0  0.24655638357E+02 -0.81592214577E+00 -0.55745368968E+02  0.60985819024E+02  0.17770000000E+01 0. -1.
</event>
<event>
 7    1  0.2288857E-006  0.5251959E+03  0.7546771E-02  0.9345132E-01
        -11   -1    0    0    0    0  0.00000000000E+00  0.00000000000E+00  0.50000000000E+03  0.50000000000E+03  0.00000000000E+00 0.  1.
         11   -1    0    0    0    0 -0.00000000000E+00 -0.00000000000E+00 -0.50000000000E+03  0.50000000000E+03  0.00000000000E+00 0. -1.
         23    2    1    2    0    0 -0.10092509571E+03  0.42551550499E+02 -0.11469011471E+03  0.17981167153E+03  0.84746123281E+02 0.  0.
        -11    1    1    2    0    0  0.13878671473E+03  0.99206314794E+01  0.45395903612E+03  0.47480414656E+03  0.00000000000E+00 0.  1.
         11    1    1    2    0    0 -0.37861619029E+02 -0.52472181978E+02 -0.33926892141E+03  0.34538418191E+03  0.00000000000E+00 0. -1.
        -15    1    3    3    0    0 -0.21324562930E+02  0.27854426246E+02 -0.87689464156E+02  0.94462722270E+02  0.17770000000E+01 0.  1.
         15    1    3    3    0    0 -0.79600532777E+02  0.14697124252E+02 -0.27000650554E+02  0.85348949255E+02  0.17770000000E+01 0. -1.
</event>
<event>
 7    1  0.2288857E-006  0.5138129E+03  0.7546771E-02  0.9369422E-01
        -11   -1    0    0    0    0  0.00000000000E+00  0.00000000000E+00  0.50000000000E+03  0.50000000000E+03  0.00000000000E+00 0. -1.
         11   -1    0    0    0    0 -0.00000000000E+00 -0.00000000000E+00 -0.50000000000E+03  0.50000000000E+03  0.00000000000E+00 0.  1.
         23    2    1    2    0    0  0.14366925058E+03  0.36291965430E+02 -0.26869938127E+03  0.32011322690E+03  0.91187500377E+02 0.  0.
        -11    1    1    2    0    0 -0.30395338764E+03 -0.39339630420E+02  0.37741577604E+03  0.48618714132E+03  0.00000000000E+00 0. -1.
         11    1    1    2    0    0  0.16028413707E+03  0.30476649899E+01 -0.10871639477E+03  0.19369963178E+03  0.00000000000E+00 0.  1.
        -15    1    3    3    0    0  0.10435266469E+03 -0.15638940113E+02 -0.19510775194E+03  0.22182030491E+03  0.17770000000E+01 0.  1.
         15    1    3    3    0    0  0.39316585885E+02  0.51930905543E+02 -0.73591629337E+02  0.98292921991E+02  0.17770000000E+01 0. -1.
</event>
<event>
 6    1  0.2288857E-006  0.5161890E+03  0.7546771E-02  0.9364297E-01
        -11   -1    0    0    0    0  0.00000000000E+00  0.00000000000E+00  0.50000000000E+03  0.50000000000E+03  0.00000000000E+00 0.  1.
         11   -1    0    0    0    0 -0.00000000000E+00 -0.00000000000E+00 -0.50000000000E+03  0.50000000000E+03  0.00000000000E+00 0.  1.
        -11    1    1    2    0    0 -0.34965399272E+02 -0.29656128478E+01 -0.49875508100E+02  0.60983114991E+02  0.00000000000E+00 0.  1.
         11    1    1    2    0    0  0.76137986183E+02  0.15316070640E+02 -0.41563423663E+03  0.42282785341E+03  0.00000000000E+00 0.  1.
        -15    1    1    2    0    0 -0.11560906562E+03 -0.38919113829E+02  0.38281838097E+03  0.40178753591E+03  0.17770000000E+01 0.  1.
         15    1    1    2    0    0  0.74436478713E+02  0.26568656037E+02  0.82691363761E+02  0.11440149569E+03  0.17770000000E+01 0. -1.
</event>
<event>
 7    1  0.2288857E-006  0.4419353E+03  0.7546771E-02  0.9540016E-01
        -11   -1    0    0    0    0  0.00000000000E+00  0.00000000000E+00  0.50000000000E+03  0.50000000000E+03  0.00000000000E+00 0.  1.
         11   -1    0    0    0    0 -0.00000000000E+00 -0.00000000000E+00 -0.50000000000E+03  0.50000000000E+03  0.00000000000E+00 0. -1.
         23    2    1    2    0    0  0.31918228261E+02  0.56947452733E+02 -0.30606549683E+02  0.11319344985E+03  0.87259443832E+02 0.  0.
        -11    1    1    2    0    0 -0.10550726148E+03 -0.45035816833E+02  0.44818122169E+03  0.46262988933E+03  0.00000000000E+00 0.  1.
         11    1    1    2    0    0  0.73589033220E+02 -0.11911635900E+02 -0.41757467201E+03  0.42417666082E+03  0.00000000000E+00 0. -1.
        -15    1    3    3    0    0  0.26365262356E+02  0.74338470562E+02 -0.16456302697E+01  0.78912616815E+02  0.17770000000E+01 0.  1.
         15    1    3    3    0    0  0.55529659049E+01 -0.17391017829E+02 -0.28960919413E+02  0.34280833037E+02  0.17770000000E+01 0. -1.
</event>
<event>
 7    1  0.2288857E-006  0.3843691E+03  0.7546771E-02  0.9703747E-01
        -11   -1    0    0    0    0  0.00000000000E+00  0.00000000000E+00  0.50000000000E+03  0.50000000000E+03  0.00000000000E+00 0.  1.
         11   -1    0    0    0    0 -0.00000000000E+00 -0.00000000000E+00 -0.50000000000E+03  0.50000000000E+03  0.00000000000E+00 0.  1.
         23    2    1    2    0    0  0.31078485594E+03  0.42884462669E+02  0.26655530297E+03  0.42173571473E+03  0.91558613533E+02 0.  0.
        -11    1    1    2    0    0 -0.27010343934E+03 -0.20547256122E+03 -0.13516199505E+03  0.36529933789E+03  0.00000000000E+00 0.  1.
         11    1    1    2    0    0 -0.40681416600E+02  0.16258809855E+03 -0.13139330793E+03  0.21296494739E+03  0.00000000000E+00 0.  1.
        -15    1    3    3    0    0  0.17109699893E+03  0.45857900039E+02  0.96796667721E+02  0.20186600172E+03  0.17770000000E+01 0. -1.
         15    1    3    3    0    0  0.13968785701E+03 -0.29734373698E+01  0.16975863525E+03  0.21986971300E+03  0.17770000000E+01 0.  1.
</event>
<event>
 7    1  0.2288857E-006  0.4286450E+03  0.7546771E-02  0.9575356E-01
        -11   -1    0    0    0    0  0.00000000000E+00  0.00000000000E+00  0.50000000000E+03  0.50000000000E+03  0.00000000000E+00 0.  1.
         11   -1    0    0    0    0 -0.00000000000E+00 -0.00000000000E+00 -0.50000000000E+03  0.50000000000E+03  0.00000000000E+00 0.  1.
         23    2    1    2    0    0  0.41009107720E+02  0.78693837628E+02 -0.54430233309E+02  0.13641259962E+03  0.88154863965E+02 0.  0.
        -11    1    1    2    0    0  0.27960981518E+02 -0.77536744426E+02  0.45231695820E+03  0.45976558581E+03  0.00000000000E+00 0.  1.
         11    1    1    2    0    0 -0.68970089238E+02 -0.11570932027E+01 -0.39788672489E+03  0.40382181456E+03  0.00000000000E+00 0.  1.
        -15    1    3    3    0    0 -0.21204320786E+02  0.52823744075E+02 -0.32302675855E+02  0.65472068506E+02  0.17770000000E+01 0. -1.
         15    1    3    3    0    0  0.62213428506E+02  0.25870093553E+02 -0.22127557454E+02  0.70940531115E+02  0.17770000000E+01 0.  1.
</event>
<event>
 7    1  0.2288857E-006  0.4118605E+03  0.7546771E-02  0.9621992E-01
        -11   -1    0    0    0    0  0.00000000000E+00  0.00000000000E+00  0.50000000000E+03  0.50000000000E+03  0.00000000000E+00 0. -1.
         11   -1    0    0    0    0 -0.00000000000E+00 -0.00000000000E+00 -0.50000000000E+03  0.50000000000E+03  0.00000000000E+00 0.  1.
         23    2    1    2    0    0  0.22974773886E+03  0.21190279222E+03 -0.22880502216E+03  0.39796475332E+03  0.91309308740E+02 0.  0.
        -11    1    1    2    0    0 -0.10539829736E+03 -0.25105169530E+03  0.33655548676E+03  0.43290339622E+03  0.00000000000E+00 0. -1.
         11    1    1    2    0    0 -0.12434944151E+03  0.39148903080E+02 -0.10775046460E+03  0.16913185045E+03  0.00000000000E+00 0.  1.
        -15    1    3    3    0    0  0.14984326293E+03  0.18127651932E+03 -0.13587064640E+03  0.27162137283E+03  0.17770000000E+01 0.  1.
         15    1    3    3    0    0  0.79904475938E+02  0.30626272901E+02 -0.92934375760E+02  0.12634338049E+03  0.17770000000E+01 0. -1.
</event>
<event>
 7    1  0.2288857E-006  0.4726515E+03  0.7546771E-02  0.9463173E-01
        -11   -1    0    0    0    0  0.00000000000E+00  0.00000000000E+00  0.50000000000E+03  0.50000000000E+03  0.00000000000E+00 0.  1.
         11   -1    0    0    0    0 -0.00000000000E+00 -0.00000000000E+00 -0.50000000000E+03  0.50000000000E+03  0.00000000000E+00 0. -1.
         23    2    1    2    0    0 -0.28465206169E+02 -0.40437291802E+02  0.45957497679E+03  0.47059172777E+03  0.88328774595E+02 0.  0.
        -11    1    1    2    0    0 -0.60797762451E+02  0.52866641856E+01 -0.11346613013E+01  0.61037727624E+02  0.00000000000E+00 0.  1.
         11    1    1    2    0    0  0.89262968620E+02  0.35150627616E+02 -0.45844031549E+03  0.46837054461E+03  0.00000000000E+00 0. -1.
        -15    1    3    3    0    0 -0.55108640699E+02 -0.70194728690E+01  0.31322896237E+03  0.31812226560E+03  0.17770000000E+01 0. -1.
         15    1    3    3    0    0  0.26643434530E+02 -0.33417818933E+02  0.14634601443E+03  0.15246946217E+03  0.17770000000E+01 0.  1.
</event>
<event>
 7    1  0.2288857E-006  0.5232418E+03  0.7546771E-02  0.9349255E-01
        -11   -1    0    0    0    0  0.00000000000E+00  0.00000000000E+00  0.50000000000E+03  0.50000000000E+03  0.00000000000E+00 0.  1.
         11   -1    0    0    0    0 -0.00000000000E+00 -0.00000000000E+00 -0.50000000000E+03  0.50000000000E+03  0.00000000000E+00 0. -1.
         23    2    1    2    0    0  0.71461825786E+02  0.98609067867E+02 -0.18968169412E+03  0.24397268842E+03  0.93343381127E+02 0.  0.
        -11    1    1    2    0    0  0.15700596618E+02 -0.16929780110E+03  0.44541011605E+03  0.47675824657E+03  0.00000000000E+00 0.  1.
         11    1    1    2    0    0 -0.87162422404E+02  0.70688733235E+02 -0.25572842193E+03  0.27926906501E+03  0.00000000000E+00 0. -1.
        -15    1    3    3    0    0  0.38721478254E+02  0.23326101818E+02 -0.14197108176E+03  0.14900471701E+03  0.17770000000E+01 0.  1.
         15    1    3    3    0    0  0.32740347533E+02  0.75282966049E+02 -0.47710612354E+02  0.94967971411E+02  0.17770000000E+01 0. -1.
</event>
<event>
 7    1  0.2288857E-006  0.5191994E+03  0.7546771E-02  0.9357845E-01
        -11   -1    0    0    0    0  0.00000000000E+00  0.00000000000E+00  0.50000000000E+03  0.50000000000E+03  0.00000000000E+00 0.  1.
         11   -1    0    0    0    0 -0.00000000000E+00 -0.00000000000E+00 -0.50000000000E+03  0.50000000000E+03  0.00000000000E+00 0. -1.
         23    2    1    2    0    0 -0.12296026468E+03 -0.20124356041E+02 -0.23848110823E+03  0.28414328541E+03  0.91323333635E+02 0.  0.
        -11    1    1    2    0    0  0.90784173339E+02  0.44004606626E+02  0.47009680287E+03  0.48080055699E+03  0.00000000000E+00 0.  1.
         11    1    1    2    0    0  0.32176091340E+02 -0.23880250585E+02 -0.23161569464E+03  0.23505615760E+03  0.00000000000E+00 0. -1.
        -15    1    3    3    0    0 -0.16177625651E+02 -0.30236583284E+02 -0.11767127947E+03  0.12257917556E+03  0.17770000000E+01 0.  1.
         15    1    3    3    0    0 -0.10678263903E+03  0.10112227243E+02 -0.12080982876E+03  0.16156410985E+03  0.17770000000E+01 0. -1.
</event>
<event>
 6    1  0.2288857E-006  0.4412830E+03  0.7546771E-02  0.9541719E-01
        -11   -1    0    0    0    0  0.00000000000E+00  0.00000000000E+00  0.50000000000E+03  0.50000000000E+03  0.00000000000E+00 0.  1.
         11   -1    0    0    0    0 -0.00000000000E+00 -0.00000000000E+00 -0.50000000000E+03  0.50000000000E+03  0.00000000000E+00 0.  1.
        -11    1    1    2    0    0 -0.20880045629E+02  0.18778458166E+03  0.43224615463E+03  0.47173696443E+03  0.00000000000E+00 0.  1.
         11    1    1    2    0    0  0.28146293203E+02  0.23408110739E+01 -0.13583167188E+03  0.13873693201E+03  0.00000000000E+00 0.  1.
        -15    1    1    2    0    0 -0.85379964572E+02 -0.10039016795E+03 -0.17971546273E+03  0.22286482325E+03  0.17770000000E+01 0.  1.
         15    1    1    2    0    0  0.78113716997E+02 -0.89735224782E+02 -0.11669902003E+03  0.16666128031E+03  0.17770000000E+01 0. -1.
</event>
<event>
 7    1  0.2288857E-006  0.4468331E+03  0.7546771E-02  0.9527325E-01
        -11   -1    0    0    0    0  0.00000000000E+00  0.00000000000E+00  0.50000000000E+03  0.50000000000E+03  0.00000000000E+00 0. -1.
         11   -1    0    0    0    0 -0.00000000000E+00 -0.00000000000E+00 -0.50000000000E+03  0.50000000000E+03  0.00000000000E+00 0.  1.
         23    2    1    2    0    0  0.25549925932E+03 -0.11025799095E+03 -0.32619080707E+03  0.43821414861E+03  0.90523485035E+02 0.  0.
        -11    1    1    2    0    0 -0.27454765316E+03  0.85064435400E+01  0.36005644596E+03  0.45286799149E+03  0.00000000000E+00 0. -1.
         11    1    1    2    0    0  0.19048393844E+02  0.10175154741E+03 -0.33865638891E+02  0.10891785990E+03  0.00000000000E+00 0.  1.
        -15    1    3    3    0    0  0.24066076014E+02  0.10961190417E+02 -0.10684904458E+02  0.28577064621E+02  0.17770000000E+01 0. -1.
         15    1    3    3    0    0  0.23143318330E+03 -0.12121918136E+03 -0.31550590261E+03  0.40963708399E+03  0.17770000000E+01 0.  1.
</event>
<event>
 7    1  0.2288857E-006  0.5182045E+03  0.7546771E-02  0.9359972E-01
        -11   -1    0    0    0    0  0.00000000000E+00  0.00000000000E+00  0.50000000000E+03  0.50000000000E+03  0.00000000000E+00 0. -1.
         11   -1    0    0    0    0 -0.00000000000E+00 -0.00000000000E+00 -0.50000000000E+03  0.50000000000E+03  0.00000000000E+00 0.  1.
         23    2    1    2    0    0 -0.13715790968E+01 -0.22831966387E+02  0.15266680323E+03  0.17902944533E+03  0.90670886001E+02 0.  0.
        -11    1    1    2    0    0 -0.11164488899E+03  0.63487268192E+02  0.31391796657E+03  0.33917503474E+03  0.00000000000E+00 0. -1.
         11    1    1    2    0    0  0.11301646808E+03 -0.40655301805E+02 -0.46658476979E+03  0.48179551993E+03  0.00000000000E+00 0.  1.
        -15    1    3    3    0    0  0.14706844979E+02 -0.54031150396E+02  0.11236114897E+03  0.12555413983E+03  0.17770000000E+01 0.  1.
         15    1    3    3    0    0 -0.16078424076E+02  0.31199184009E+02  0.40305654262E+02  0.53475305498E+02  0.17770000000E+01 0. -1.
</event>
<event>
 7    1  0.2288857E-006  0.3998747E+03  0.7546771E-02  0.9656771E-01
        -11   -1    0    0    0    0  0.00000000000E+00  0.00000000000E+00  0.50000000000E+03  0.50000000000E+03  0.00000000000E+00 0. -1.
         11   -1    0    0    0    0 -0.00000000000E+00 -0.00000000000E+00 -0.50000000000E+03  0.50000000000E+03  0.00000000000E+00 0.  1.
         23    2    1    2    0    0 -0.23622199985E+03 -0.14146265986E+03  0.33124451543E+03  0.44021216666E+03  0.90836695901E+02 0.  0.
        -11    1    1    2    0    0  0.28461271560E+03 -0.15026744582E+02 -0.23794903599E+03  0.37128148979E+03  0.00000000000E+00 0. -1.
         11    1    1    2    0    0 -0.48390715744E+02  0.15648940444E+03 -0.93295479443E+02  0.18850634355E+03  0.00000000000E+00 0.  1.
        -15    1    3    3    0    0 -0.22184765859E+03 -0.11125077559E+03  0.24973344283E+03  0.35208389467E+03  0.17770000000E+01 0. -1.
         15    1    3    3    0    0 -0.14374341267E+02 -0.30211884266E+02  0.81511072606E+02  0.88128271991E+02  0.17770000000E+01 0.  1.
</event>
<event>
 7    1  0.2288857E-006  0.4295100E+03  0.7546771E-02  0.9573014E-01
        -11   -1    0    0    0    0  0.00000000000E+00  0.00000000000E+00  0.50000000000E+03  0.50000000000E+03  0.00000000000E+00 0.  1.
         11   -1    0    0    0    0 -0.00000000000E+00 -0.00000000000E+00 -0.50000000000E+03  0.50000000000E+03  0.00000000000E+00 0.  1.
         23    2    1    2    0    0  0.36122959246E+01  0.11529480673E+02  0.38381749822E+03  0.39454034097E+03  0.90555127476E+02 0.  0.
        -11    1    1    2    0    0  0.11803192460E+03  0.37963206783E+02  0.63472237709E+02  0.13928914263E+03  0.00000000000E+00 0.  1.
         11    1    1    2    0    0 -0.12164422052E+03 -0.49492687456E+02 -0.44728973592E+03  0.46617051640E+03  0.00000000000E+00 0.  1.
        -15    1    3    3    0    0 -0.21707285623E+02  0.43373685428E+02  0.16603863943E+03  0.17298690803E+03  0.17770000000E+01 0.  1.
         15    1    3    3    0    0  0.25319581548E+02 -0.31844204756E+02  0.21777885878E+03  0.22155343294E+03  0.17770000000E+01 0. -1.
</event>
<event>
 6    1  0.2288857E-006  0.5442687E+03  0.7546771E-02  0.9305863E-01
        -11   -1    0    0    0    0  0.00000000000E+00  0.00000000000E+00  0.50000000000E+03  0.50000000000E+03  0.00000000000E+00 0.  1.
         11   -1    0    0    0    0 -0.00000000000E+00 -0.00000000000E+00 -0.50000000000E+03  0.50000000000E+03  0.00000000000E+00 0.  1.
        -11    1    1    2    0    0  0.30863269116E+01  0.10589452664E+03  0.23664603182E+03  0.25927691868E+03  0.00000000000E+00 0.  1.
         11    1    1    2    0    0  0.14098788555E+03 -0.34185177050E+02 -0.43202403409E+03  0.45573125440E+03  0.00000000000E+00 0.  1.
        -15    1    1    2    0    0 -0.77583945031E+02  0.17195493903E+02  0.28278966361E+02  0.84367121586E+02  0.17770000000E+01 0. -1.
         15    1    1    2    0    0 -0.66490267430E+02 -0.88904843488E+02  0.16709903592E+03  0.20062470534E+03  0.17770000000E+01 0.  1.
</event>
<event>
 7    1  0.2288857E-006  0.4462276E+03  0.7546771E-02  0.9528884E-01
        -11   -1    0    0    0    0  0.00000000000E+00  0.00000000000E+00  0.50000000000E+03  0.50000000000E+03  0.00000000000E+00 0. -1.
         11   -1    0    0    0    0 -0.00000000000E+00 -0.00000000000E+00 -0.50000000000E+03  0.50000000000E+03  0.00000000000E+00 0.  1.
         23    2    1    2    0    0  0.32337456436E+02 -0.31500172836E+02  0.24344395638E+02  0.10607216230E+03  0.92847628072E+02 0.  0.
        -11    1    1    2    0    0 -0.46678525032E+02  0.17867209332E+03  0.40215178469E+03  0.44252532081E+03  0.00000000000E+00 0. -1.
         11    1    1    2    0    0  0.14341068595E+02 -0.14717192048E+03 -0.42649618032E+03  0.45140251689E+03  0.00000000000E+00 0.  1.
        -15    1    3    3    0    0  0.84682800848E+01 -0.40112206024E+02 -0.26758335447E+02  0.48988438275E+02  0.17770000000E+01 0.  1.
         15    1    3    3    0    0  0.23869176352E+02  0.86120331877E+01  0.51102731084E+02  0.57083724025E+02  0.17770000000E+01 0. -1.
</event>
<event>
 7    1  0.2288857E-006  0.5219723E+03  0.7546771E-02  0.9351944E-01
        -11   -1    0    0    0    0  0.00000000000E+00  0.00000000000E+00  0.50000000000E+03  0.50000000000E+03  0.00000000000E+00 0. -1.
         11   -1    0    0    0    0 -0.00000000000E+00 -0.00000000000E+00 -0.50000000000E+03  0.50000000000E+03  0.00000000000E+00 0. -1.
         23    2    1    2    0    0 -0.13639223113E+03 -0.93765955059E+02 -0.27110630194E+03  0.33080929278E+03  0.92418970992E+02 0.  0.
        -11    1    1    2    0    0  0.83984501127E+02  0.14609375112E+03  0.44734064887E+03  0.47802765263E+03  0.00000000000E+00 0. -1.
         11    1    1    2    0    0  0.52407730000E+02 -0.52327796059E+02 -0.17623434693E+03  0.19116305459E+03  0.00000000000E+00 0. -1.
        -15    1    3    3    0    0 -0.42616322958E+02 -0.27896836716E+02 -0.17166635614E+03  0.17907227603E+03  0.17770000000E+01 0.  1.
         15    1    3    3    0    0 -0.93775908170E+02 -0.65869118343E+02 -0.99439945797E+02  0.15173701675E+03  0.17770000000E+01 0. -1.
</event>
<event>
 7    1  0.2288857E-006  0.5174911E+03  0.7546771E-02  0.9361501E-01
        -11   -1    0    0    0    0  0.00000000000E+00  0.00000000000E+00  0.50000000000E+03  0.50000000000E+03  0.00000000000E+00 0.  1.
         11   -1    0    0    0    0 -0.00000000000E+00 -0.00000000000E+00 -0.50000000000E+03  0.50000000000E+03  0.00000000000E+00 0. -1.
         23    2    1    2    0    0  0.37846343469E+02  0.66821624875E+02  0.96859997302E+02  0.15275419420E+03  0.89746919187E+02 0.  0.
        -11    1    1    2    0    0  0.91221138132E+02  0.83118446004E+02  0.34322450500E+03  0.36473693663E+03  0.00000000000E+00 0.  1.
         11    1    1    2    0    0 -0.12906748160E+03 -0.14994007088E+03 -0.44008450230E+03  0.48250886917E+03  0.00000000000E+00 0. -1.
        -15    1    3    3    0    0  0.51127262176E+02  0.76165578930E+02  0.53019004176E+02  0.10596869766E+03  0.17770000000E+01 0.  1.
         15    1    3    3    0    0 -0.13280918707E+02 -0.93439540546E+01  0.43840993126E+02  0.46785496539E+02  0.17770000000E+01 0. -1.
</event>
<event>
 7    1  0.2288857E-006  0.4926172E+03  0.7546771E-02  0.9416482E-01
        -11   -1    0    0    0    0  0.00000000000E+00  0.00000000000E+00  0.50000000000E+03  0.50000000000E+03  0.00000000000E+00 0.  1.
         11   -1    0    0    0    0 -0.00000000000E+00 -0.00000000000E+00 -0.50000000000E+03  0.50000000000E+03  0.00000000000E+00 0.  1.
         23    2    1    2    0    0 -0.29752348268E+02  0.15696266691E+03  0.44971264961E+03  0.48607099686E+03  0.92201224221E+02 0.  0.
        -11    1    1    2    0    0  0.14387408076E+02  0.15553566122E+02  0.94403224826E+01  0.23195487036E+02  0.00000000000E+00 0.  1.
         11    1    1    2    0    0  0.15364940192E+02 -0.17251623303E+03 -0.45915297209E+03  0.49073351610E+03  0.00000000000E+00 0.  1.
        -15    1    3    3    0    0 -0.33524846253E+02  0.31004029308E+02  0.53826796260E+02  0.70609113252E+02  0.17770000000E+01 0. -1.
         15    1    3    3    0    0  0.37724979855E+01  0.12595863760E+03  0.39588585335E+03  0.41546188361E+03  0.17770000000E+01 0.  1.
</event>
<event>
 7    1  0.2288857E-006  0.4632178E+03  0.7546771E-02  0.9486096E-01
        -11   -1    0    0    0    0  0.00000000000E+00  0.00000000000E+00  0.50000000000E+03  0.50000000000E+03  0.00000000000E+00 0. -1.
         11   -1    0    0    0    0 -0.00000000000E+00 -0.00000000000E+00 -0.50000000000E+03  0.50000000000E+03  0.00000000000E+00 0. -1.
         23    2    1    2    0    0 -0.91220037783E+02 -0.31468762369E+02  0.41347335785E+03  0.43400076869E+03  0.89917024365E+02 0.  0.
        -11    1    1    2    0    0  0.10797821160E+02  0.40789797890E+02  0.66766941605E+02  0.78982435041E+02  0.00000000000E+00 0. -1.
         11    1    1    2    0    0  0.80422216623E+02 -0.93210355207E+01 -0.48024029946E+03  0.48701679627E+03  0.00000000000E+00 0. -1.
        -15    1    3    3    0    0 -0.27050340416E+02 -0.12901019688E+02  0.22918302212E+02  0.37769875972E+02  0.17770000000E+01 0.  1.
         15    1    3    3    0    0 -0.64169697367E+02 -0.18567742681E+02  0.39055505564E+03  0.39623089272E+03  0.17770000000E+01 0. -1.
</event>
<event>
 7    1  0.2288857E-006  0.5239965E+03  0.7546771E-02  0.9347661E-01
        -11   -1    0    0    0    0  0.00000000000E+00  0.00000000000E+00  0.50000000000E+03  0.50000000000E+03  0.00000000000E+00 0.  1.
         11   -1    0    0    0    0 -0.00000000000E+00 -0.00000000000E+00 -0.50000000000E+03  0.50000000000E+03  0.00000000000E+00 0. -1.
         23    2    1    2    0    0  0.29638760633E+02 -0.12473696384E+02 -0.16667160555E+03  0.19266657136E+03  0.91142385253E+02 0.  0.
        -11    1    1    2    0    0  0.12809968337E+03  0.23837262444E+02  0.45782269098E+03  0.47600352975E+03  0.00000000000E+00 0.  1.
         11    1    1    2    0    0 -0.15773844400E+03 -0.11363566060E+02 -0.29115108543E+03  0.33132989889E+03  0.00000000000E+00 0. -1.
        -15    1    3    3    0    0 -0.79717661935E+01 -0.38838061891E+02 -0.12307129076E+03  0.12931219759E+03  0.17770000000E+01 0. -1.
         15    1    3    3    0    0  0.37610526827E+02  0.26364365507E+02 -0.43600314790E+02  0.63354373768E+02  0.17770000000E+01 0.  1.
</event>
<event>
 7    1  0.2288857E-006  0.4922798E+03  0.7546771E-02  0.9417252E-01
        -11   -1    0    0    0    0  0.00000000000E+00  0.00000000000E+00  0.50000000000E+03  0.50000000000E+03  0.00000000000E+00 0.  1.
         11   -1    0    0    0    0 -0.00000000000E+00 -0.00000000000E+00 -0.50000000000E+03  0.50000000000E+03  0.00000000000E+00 0. -1.
         23    2    1    2    0    0 -0.34618844964E+02  0.10217703468E+03  0.46618826061E+03  0.48707231065E+03  0.90935859954E+02 0.  0.
        -11    1    1    2    0    0 -0.18358996152E+02 -0.96113312330E+01  0.11347856030E+02  0.23626346824E+02  0.00000000000E+00 0.  1.
         11    1    1    2    0    0  0.52977841116E+02 -0.92565703445E+02 -0.47753611664E+03  0.48930134253E+03  0.00000000000E+00 0. -1.
        -15    1    3    3    0    0 -0.51793720619E+02  0.52587577487E+02  0.37181209081E+03  0.37907180244E+03  0.17770000000E+01 0.  1.
         15    1    3    3    0    0  0.17174875656E+02  0.49589457191E+02  0.94376169800E+02  0.10800050821E+03  0.17770000000E+01 0. -1.
</event>
<event>
 7    1  0.2288857E-006  0.3782610E+03  0.7546771E-02  0.9722907E-01
        -11   -1    0    0    0    0  0.00000000000E+00  0.00000000000E+00  0.50000000000E+03  0.50000000000E+03  0.00000000000E+00 0. -1.
         11   -1    0    0    0    0 -0.00000000000E+00 -0.00000000000E+00 -0.50000000000E+03  0.50000000000E+03  0.00000000000E+00 0. -1.
         23    2    1    2    0    0  0.19907247799E+02  0.17400598886E+03  0.90267549319E+02  0.21824039852E+03  0.93841666725E+02 0.  0.
        -11    1    1    2    0    0  0.45359205849E+02 -0.19145609004E+03  0.31472722499E+03  0.37116858450E+03  0.00000000000E+00 0. -1.
         11    1    1    2    0    0 -0.65266453648E+02  0.17450101189E+02 -0.40499477431E+03  0.41059101698E+03  0.00000000000E+00 0. -1.
        -15    1    3    3    0    0  0.12732872493E+02  0.33854562840E+02 -0.18514480346E+02  0.40671872080E+02  0.17770000000E+01 0.  1.
         15    1    3    3    0    0  0.71743753061E+01  0.14015142602E+03  0.10878202966E+03  0.17756852644E+03  0.17770000000E+01 0. -1.
</event>
<event>
 7    1  0.2288857E-006  0.5135946E+03  0.7546771E-02  0.9369894E-01
        -11   -1    0    0    0    0  0.00000000000E+00  0.00000000000E+00  0.50000000000E+03  0.50000000000E+03  0.00000000000E+00 0.  1.
         11   -1    0    0    0    0 -0.00000000000E+00 -0.00000000000E+00 -0.50000000000E+03  0.50000000000E+03  0.00000000000E+00 0. -1.
         23    2    1    2    0    0 -0.42841305055E+01 -0.20465709531E+02 -0.22043990028E+03  0.23903919473E+03  0.90048808641E+02 0.  0.
        -11    1    1    2    0    0  0.90649868961E+02  0.11110275314E+03  0.46478917182E+03  0.48640538108E+03  0.00000000000E+00 0.  1.
         11    1    1    2    0    0 -0.86365738455E+02 -0.90637043609E+02 -0.24434927154E+03  0.27455542420E+03  0.00000000000E+00 0. -1.
        -15    1    3    3    0    0 -0.38590371941E+02  0.11493183275E+02 -0.63285051726E+02  0.75029764556E+02  0.17770000000E+01 0. -1.
         15    1    3    3    0    0  0.34306241435E+02 -0.31958892806E+02 -0.15715484856E+03  0.16400943017E+03  0.17770000000E+01 0.  1.
</event>
<event>
 7    1  0.2288857E-006  0.4542783E+03  0.7546771E-02  0.9508361E-01
        -11   -1    0    0    0    0  0.00000000000E+00  0.00000000000E+00  0.50000000000E+03  0.50000000000E+03  0.00000000000E+00 0.  1.
         11   -1    0    0    0    0 -0.00000000000E+00 -0.00000000000E+00 -0.50000000000E+03  0.50000000000E+03  0.00000000000E+00 0.  1.
         23    2    1    2    0    0 -0.10619823089E+02  0.63648672672E+02  0.43271038113E+03  0.44720021572E+03  0.92659726033E+02 0.  0.
        -11    1    1    2    0    0  0.91748869607E+02  0.26791686129E+02  0.77457226164E+01  0.95893929624E+02  0.00000000000E+00 0.  1.
         11    1    1    2    0    0 -0.81129046518E+02 -0.90440358801E+02 -0.44045610375E+03  0.45690585465E+03  0.00000000000E+00 0.  1.
        -15    1    3    3    0    0  0.21426061042E+02 -0.14758419671E+02  0.14290657292E+03  0.14526642199E+03  0.17770000000E+01 0. -1.
         15    1    3    3    0    0 -0.32045884132E+02  0.78407092343E+02  0.28980380821E+03  0.30193379374E+03  0.17770000000E+01 0.  1.
</event>
<event>
 7    1  0.2288857E-006  0.5135652E+03  0.7546771E-02  0.9369958E-01
        -11   -1    0    0    0    0  0.00000000000E+00  0.00000000000E+00  0.50000000000E+03  0.50000000000E+03  0.00000000000E+00 0. -1.
         11   -1    0    0    0    0 -0.00000000000E+00 -0.00000000000E+00 -0.50000000000E+03  0.50000000000E+03  0.00000000000E+00 0.  1.
         23    2    1    2    0    0 -0.30699936018E+02 -0.11839148270E+02  0.24414875584E+03  0.26263486818E+03  0.91026411025E+02 0.  0.
        -11    1    1    2    0    0 -0.10159231202E+03 -0.81111662450E+02  0.21462975536E+03  0.25093033203E+03  0.00000000000E+00 0. -1.
         11    1    1    2    0    0  0.13229224804E+03  0.92950810720E+02 -0.45877851120E+03  0.48643479979E+03  0.00000000000E+00 0.  1.
        -15    1    3    3    0    0  0.12298455911E+02  0.70973303468E+01  0.31938744536E+00  0.14313764466E+02  0.17770000000E+01 0.  1.
         15    1    3    3    0    0 -0.42998391929E+02 -0.18936478617E+02  0.24382936839E+03  0.24832110371E+03  0.17770000000E+01 0. -1.
</event>
<event>
 7    1  0.2288857E-006  0.4963523E+03  0.7546771E-02  0.9408009E-01
        -11   -1    0    0    0    0  0.00000000000E+00  0.00000000000E+00  0.50000000000E+03  0.50000000000E+03  0.00000000000E+00 0. -1.
         11   -1    0    0    0    0 -0.00000000000E+00 -0.00000000000E+00 -0.50000000000E+03  0.50000000000E+03  0.00000000000E+00 0. -1.
         23    2    1    2    0    0 -0.53534660221E+02 -0.12155332617E+03  0.46686636086E+03  0.49530728032E+03  0.98609999917E+02 0.  0.
        -11    1    1    2    0    0 -0.87614965261E+01  0.13858667964E+02  0.46467287513E+01  0.17041672078E+02  0.00000000000E+00 0. -1.
         11    1    1    2    0    0  0.62296156748E+02  0.10769465820E+03 -0.47151308961E+03  0.48765104760E+03  0.00000000000E+00 0. -1.
        -15    1    3    3    0    0 -0.74529839400E+02 -0.47444478182E+02  0.24662880435E+03  0.26198206109E+03  0.17770000000E+01 0. -1.
         15    1    3    3    0    0  0.20995179178E+02 -0.74108847983E+02  0.22023755652E+03  0.23332521923E+03  0.17770000000E+01 0.  1.
</event>
<event>
 7    1  0.2288857E-006  0.5258697E+03  0.7546771E-02  0.9343715E-01
        -11   -1    0    0    0    0  0.00000000000E+00  0.00000000000E+00  0.50000000000E+03  0.50000000000E+03  0.00000000000E+00 0. -1.
         11   -1    0    0    0    0 -0.00000000000E+00 -0.00000000000E+00 -0.50000000000E+03  0.50000000000E+03  0.00000000000E+00 0. -1.
         23    2    1    2    0    0 -0.69336629192E+02 -0.56255148317E+02  0.29784849603E+03  0.32433362716E+03  0.92229958550E+02 0.  0.
        -11    1    1    2    0    0  0.10927212590E+03 -0.29159625320E+02  0.16681160189E+03  0.20153608057E+03  0.00000000000E+00 0. -1.
         11    1    1    2    0    0 -0.39935496708E+02  0.85414773637E+02 -0.46466009792E+03  0.47413029227E+03  0.00000000000E+00 0. -1.
        -15    1    3    3    0    0  0.17070506218E+02 -0.34672043094E+02  0.10516363606E+03  0.11205400855E+03  0.17770000000E+01 0. -1.
         15    1    3    3    0    0 -0.86407135410E+02 -0.21583105223E+02  0.19268485998E+03  0.21227961860E+03  0.17770000000E+01 0.  1.
</event>
<event>
 7    1  0.2288857E-006  0.5171357E+03  0.7546771E-02  0.9362263E-01
        -11   -1    0    0    0    0  0.00000000000E+00  0.00000000000E+00  0.50000000000E+03  0.50000000000E+03  0.00000000000E+00 0.  1.
         11   -1    0    0    0    0 -0.00000000000E+00 -0.00000000000E+00 -0.50000000000E+03  0.50000000000E+03  0.00000000000E+00 0.  1.
         23    2    1    2    0    0  0.41720460054E+02  0.27265795797E+02  0.14977821261E+03  0.18181332855E+03  0.90213929402E+02 0.  0.
        -11    1    1    2    0    0 -0.54831978877E+02  0.86149625540E+02  0.31939441665E+03  0.33532237813E+03  0.00000000000E+00 0.  1.
         11    1    1    2    0    0  0.13111518823E+02 -0.11341542134E+03 -0.46917262926E+03  0.48286429332E+03  0.00000000000E+00 0.  1.
        -15    1    3    3    0    0  0.70145501264E+02  0.24654081585E+02  0.10466603406E+03  0.12839918808E+03  0.17770000000E+01 0.  1.
         15    1    3    3    0    0 -0.28425041210E+02  0.26117142117E+01  0.45112178554E+02  0.53414140467E+02  0.17770000000E+01 0. -1.
</event>
<event>
 7    1  0.2288857E-006  0.5196517E+03  0.7546771E-02  0.9356880E-01
        -11   -1    0    0    0    0  0.00000000000E+00  0.00000000000E+00  0.50000000000E+03  0.50000000000E+03  0.00000000000E+00 0. -1.
         11   -1    0    0    0    0 -0.00000000000E+00 -0.00000000000E+00 -0.50000000000E+03  0.50000000000E+03  0.00000000000E+00 0.  1.
         23    2    1    2    0    0  0.10301806757E+03  0.84713345113E+02  0.34644929507E+03  0.38211896579E+03  0.90546766234E+02 0.  0.
        -11    1    1    2    0    0 -0.59834488840E+02  0.32831245732E+01  0.12379138252E+03  0.13753272828E+03  0.00000000000E+00 0. -1.
         11    1    1    2    0    0 -0.43183578733E+02 -0.87996469686E+02 -0.47024067759E+03  0.48034830593E+03  0.00000000000E+00 0.  1.
        -15    1    3    3    0    0  0.89690426927E+02  0.35431296219E+02  0.29173046120E+03  0.30726140199E+03  0.17770000000E+01 0. -1.
         15    1    3    3    0    0  0.13327640646E+02  0.49282048894E+02  0.54718833866E+02  0.74857563793E+02  0.17770000000E+01 0.  1.
</event>
<event>
 7    1  0.2288857E-006  0.4756750E+03  0.7546771E-02  0.9455946E-01
        -11   -1    0    0    0    0  0.00000000000E+00  0.00000000000E+00  0.50000000000E+03  0.50000000000E+03  0.00000000000E+00 0.  1.
         11   -1    0    0    0    0 -0.00000000000E+00 -0.00000000000E+00 -0.50000000000E+03  0.50000000000E+03  0.00000000000E+00 0. -1.
         23    2    1    2    0    0 -0.14757758501E+03 -0.62270384078E+02  0.42137519380E+03  0.45923677998E+03  0.87661974713E+02 0.  0.
        -11    1    1    2    0    0 -0.51241432943E+00  0.37576632656E+02  0.40410939128E+02  0.55184326502E+02  0.00000000000E+00 0.  1.
         11    1    1    2    0    0  0.14808999934E+03  0.24693751422E+02 -0.46178613293E+03  0.48557889351E+03  0.00000000000E+00 0. -1.
        -15    1    3    3    0    0 -0.13568360102E+02  0.20798834883E+02  0.59951542074E+02  0.64915614873E+02  0.17770000000E+01 0. -1.
         15    1    3    3    0    0 -0.13400922491E+03 -0.83069218961E+02  0.36142365172E+03  0.39432116511E+03  0.17770000000E+01 0.  1.
</event>
<event>
 7    1  0.2288857E-006  0.4186938E+03  0.7546771E-02  0.9602724E-01
        -11   -1    0    0    0    0  0.00000000000E+00  0.00000000000E+00  0.50000000000E+03  0.50000000000E+03  0.00000000000E+00 0. -1.
         11   -1    0    0    0    0 -0.00000000000E+00 -0.00000000000E+00 -0.50000000000E+03  0.50000000000E+03  0.00000000000E+00 0.  1.
         23    2    1    2    0    0  0.18682631524E+03  0.36966069993E+02  0.38602055946E+03  0.44500741683E+03  0.11291220621E+03 0.  0.
        -11    1    1    2    0    0 -0.97637273585E+02 -0.12875752248E+03 -0.14727978046E+02  0.16226043919E+03  0.00000000000E+00 0. -1.
         11    1    1    2    0    0 -0.89189041654E+02  0.91791452490E+02 -0.37129258141E+03  0.39273214398E+03  0.00000000000E+00 0.  1.
        -15    1    3    3    0    0  0.12967647860E+03 -0.29779763990E+02  0.24622921497E+03  0.27988356057E+03  0.17770000000E+01 0. -1.
         15    1    3    3    0    0  0.57149836643E+02  0.66745833983E+02  0.13979134449E+03  0.16512385626E+03  0.17770000000E+01 0.  1.
</event>
<event>
 7    1  0.2288857E-006  0.5181360E+03  0.7546771E-02  0.9360119E-01
        -11   -1    0    0    0    0  0.00000000000E+00  0.00000000000E+00  0.50000000000E+03  0.50000000000E+03  0.00000000000E+00 0.  1.
         11   -1    0    0    0    0 -0.00000000000E+00 -0.00000000000E+00 -0.50000000000E+03  0.50000000000E+03  0.00000000000E+00 0. -1.
         23    2    1    2    0    0 -0.96932858573E+01  0.20445933423E+03  0.36194765984E+03  0.42566630485E+03  0.91039087621E+02 0.  0.
        -11    1    1    2    0    0 -0.31239582630E+02  0.84301360218E+02  0.21633699235E+02  0.92469712879E+02  0.00000000000E+00 0.  1.
         11    1    1    2    0    0  0.40932868487E+02 -0.28876069445E+03 -0.38358135908E+03  0.48186398227E+03  0.00000000000E+00 0. -1.
        -15    1    3    3    0    0 -0.20161772575E+02  0.20985969291E+03  0.33032402003E+03  0.39187332611E+03  0.17770000000E+01 0.  1.
         15    1    3    3    0    0  0.10468486718E+02 -0.54003586773E+01  0.31623639811E+02  0.33792978736E+02  0.17770000000E+01 0. -1.
</event>
<event>
 7    1  0.2288857E-006  0.3434552E+03  0.7546771E-02  0.9840017E-01
        -11   -1    0    0    0    0  0.00000000000E+00  0.00000000000E+00  0.50000000000E+03  0.50000000000E+03  0.00000000000E+00 0. -1.
         11   -1    0    0    0    0 -0.00000000000E+00 -0.00000000000E+00 -0.50000000000E+03  0.50000000000E+03  0.00000000000E+00 0. -1.
         23    2    1    2    0    0 -0.52275226433E+02  0.16390321510E+03  0.18452382724E+03  0.26822691870E+03  0.91102545933E+02 0.  0.
        -11    1    1    2    0    0  0.13366088336E+03 -0.98733891002E+02  0.24151576466E+03  0.29316118016E+03  0.00000000000E+00 0. -1.
         11    1    1    2    0    0 -0.81385656927E+02 -0.65169324097E+02 -0.42603959190E+03  0.43861190114E+03  0.00000000000E+00 0. -1.
        -15    1    3    3    0    0 -0.40101977305E+02  0.50826617957E+02  0.19196871330E+02  0.67551397281E+02  0.17770000000E+01 0.  1.
         15    1    3    3    0    0 -0.12173249128E+02  0.11307659714E+03  0.16532695591E+03  0.20067552142E+03  0.17770000000E+01 0. -1.
</event>
<event>
 7    1  0.2288857E-006  0.4484131E+03  0.7546771E-02  0.9523268E-01
        -11   -1    0    0    0    0  0.00000000000E+00  0.00000000000E+00  0.50000000000E+03  0.50000000000E+03  0.00000000000E+00 0. -1.
         11   -1    0    0    0    0 -0.00000000000E+00 -0.00000000000E+00 -0.50000000000E+03  0.50000000000E+03  0.00000000000E+00 0.  1.
         23    2    1    2    0    0 -0.91972593230E+01 -0.34164148221E+02 -0.82410188759E+01  0.10243841905E+03  0.95780669772E+02 0.  0.
        -11    1    1    2    0    0 -0.10430969913E+03  0.14113752214E+03  0.42110824233E+03  0.45621537156E+03  0.00000000000E+00 0. -1.
         11    1    1    2    0    0  0.11350695846E+03 -0.10697337392E+03 -0.41286722345E+03  0.44134620940E+03  0.00000000000E+00 0.  1.
        -15    1    3    3    0    0 -0.46195634868E+02 -0.12121613386E+02 -0.27597363505E+02  0.55188245065E+02  0.17770000000E+01 0.  1.
         15    1    3    3    0    0  0.36998375545E+02 -0.22042534834E+02  0.19356344629E+02  0.47250173981E+02  0.17770000000E+01 0. -1.
</event>
<event>
 7    1  0.2288857E-006  0.3887929E+03  0.7546771E-02  0.9690106E-01
        -11   -1    0    0    0    0  0.00000000000E+00  0.00000000000E+00  0.50000000000E+03  0.50000000000E+03  0.00000000000E+00 0.  1.
         11   -1    0    0    0    0 -0.00000000000E+00 -0.00000000000E+00 -0.50000000000E+03  0.50000000000E+03  0.00000000000E+00 0.  1.
         23    2    1    2    0    0 -0.15312313223E+03  0.30345420932E+02  0.72158381719E+02  0.20362451276E+03  0.10903472817E+03 0.  0.
        -11    1    1    2    0    0  0.74643589946E+02 -0.13482152689E+02  0.35435091663E+03  0.36237826381E+03  0.00000000000E+00 0.  1.
         11    1    1    2    0    0  0.78479542284E+02 -0.16863268243E+02 -0.42650929835E+03  0.43399722344E+03  0.00000000000E+00 0.  1.
        -15    1    3    3    0    0  0.26325472712E+01  0.32564763376E+02  0.20200099160E+01  0.32781584585E+02  0.17770000000E+01 0. -1.
         15    1    3    3    0    0 -0.15575567950E+03 -0.22193424439E+01  0.70138371803E+02  0.17084292817E+03  0.17770000000E+01 0.  1.
</event>
<event>
 7    1  0.2288857E-006  0.5141708E+03  0.7546771E-02  0.9368648E-01
        -11   -1    0    0    0    0  0.00000000000E+00  0.00000000000E+00  0.50000000000E+03  0.50000000000E+03  0.00000000000E+00 0. -1.
         11   -1    0    0    0    0 -0.00000000000E+00 -0.00000000000E+00 -0.50000000000E+03  0.50000000000E+03  0.00000000000E+00 0.  1.
         23    2    1    2    0    0  0.49408389481E+02  0.25786353580E+02 -0.13678849529E+03  0.17373229319E+03  0.91464158386E+02 0.  0.
        -11    1    1    2    0    0 -0.20028664777E+03 -0.24164896368E+02  0.44196303657E+03  0.48582919755E+03  0.00000000000E+00 0. -1.
         11    1    1    2    0    0  0.15087825829E+03 -0.16214572116E+01 -0.30517454128E+03  0.34043850927E+03  0.00000000000E+00 0.  1.
        -15    1    3    3    0    0  0.34760684694E+02 -0.11032881577E+02 -0.12799826679E+03  0.13310425879E+03  0.17770000000E+01 0. -1.
         15    1    3    3    0    0  0.14647704788E+02  0.36819235157E+02 -0.87902284996E+01  0.40628034399E+02  0.17770000000E+01 0.  1.
</event>
<event>
 7    1  0.2288857E-006  0.4605795E+03  0.7546771E-02  0.9492611E-01
        -11   -1    0    0    0    0  0.00000000000E+00  0.00000000000E+00  0.50000000000E+03  0.50000000000E+03  0.00000000000E+00 0.  1.
         11   -1    0    0    0    0 -0.00000000000E+00 -0.00000000000E+00 -0.50000000000E+03  0.50000000000E+03  0.00000000000E+00 0.  1.
         23    2    1    2    0    0  0.69505415941E+02 -0.34044825850E+02  0.42465618040E+03  0.44087436607E+03  0.89706644600E+02 0.  0.
        -11    1    1    2    0    0 -0.55109891655E+02 -0.45583381710E+02  0.43711599684E+02  0.83819143358E+02  0.00000000000E+00 0.  1.
         11    1    1    2    0    0 -0.14395524287E+02  0.79628207560E+02 -0.46836778009E+03  0.47530649058E+03  0.00000000000E+00 0.  1.
        -15    1    3    3    0    0  0.76745573704E+02 -0.94844123736E+01  0.39084029113E+03  0.39842079270E+03  0.17770000000E+01 0.  1.
         15    1    3    3    0    0 -0.72401577626E+01 -0.24560413476E+02  0.33815889276E+02  0.42453573361E+02  0.17770000000E+01 0. -1.
</event>
<event>
 7    1  0.2288857E-006  0.5010179E+03  0.7546771E-02  0.9397535E-01
        -11   -1    0    0    0    0  0.00000000000E+00  0.00000000000E+00  0.50000000000E+03  0.50000000000E+03  0.00000000000E+00 0. -1.
         11   -1    0    0    0    0 -0.00000000000E+00 -0.00000000000E+00 -0.50000000000E+03  0.50000000000E+03  0.00000000000E+00 0.  1.
         23    2    1    2    0    0  0.56842556770E+02 -0.15122127022E+03  0.46573289456E+03  0.50101791179E+03  0.89514635885E+02 0.  0.
        -11    1    1    2    0    0  0.15567301132E+02  0.63692458087E+01 -0.53475141872E+02  0.56057996352E+02  0.00000000000E+00 0. -1.
         11    1    1    2    0    0 -0.72409857902E+02  0.14485202441E+03 -0.41225775269E+03  0.44292409186E+03  0.00000000000E+00 0.  1.
        -15    1    3    3    0    0  0.69137726367E+01  0.10977258231E+02  0.56301240878E+02  0.57803874470E+02  0.17770000000E+01 0.  1.
         15    1    3    3    0    0  0.49928784133E+02 -0.16219852845E+03  0.40943165368E+03  0.44321403732E+03  0.17770000000E+01 0. -1.
</event>
<event>
 7    1  0.2288857E-006  0.3463332E+03  0.7546771E-02  0.9829780E-01
        -11   -1    0    0    0    0  0.00000000000E+00  0.00000000000E+00  0.50000000000E+03  0.50000000000E+03  0.00000000000E+00 0.  1.
         11   -1    0    0    0    0 -0.00000000000E+00 -0.00000000000E+00 -0.50000000000E+03  0.50000000000E+03  0.00000000000E+00 0.  1.
         23    2    1    2    0    0  0.13269826010E+02  0.17166587563E+03  0.17827094941E+03  0.26432848453E+03  0.91889907993E+02 0.  0.
        -11    1    1    2    0    0  0.33719300000E+02 -0.89712451703E+02  0.26533751263E+03  0.28211577551E+03  0.00000000000E+00 0.  1.
         11    1    1    2    0    0 -0.46989126010E+02 -0.81953423928E+02 -0.44360846204E+03  0.45355573996E+03  0.00000000000E+00 0.  1.
        -15    1    3    3    0    0 -0.22625161762E+02  0.13973345466E+02  0.46639887604E+01  0.27056659964E+02  0.17770000000E+01 0.  1.
         15    1    3    3    0    0  0.35894987772E+02  0.15769253016E+03  0.17360696065E+03  0.23727182456E+03  0.17770000000E+01 0. -1.
</event>
<event>
 7    1  0.2288857E-006  0.5123429E+03  0.7546771E-02  0.9372607E-01
        -11   -1    0    0    0    0  0.00000000000E+00  0.00000000000E+00  0.50000000000E+03  0.50000000000E+03  0.00000000000E+00 0. -1.
         11   -1    0    0    0    0 -0.00000000000E+00 -0.00000000000E+00 -0.50000000000E+03  0.50000000000E+03  0.00000000000E+00 0.  1.
         23    2    1    2    0    0 -0.35797253104E+01  0.49191913526E+01  0.30109805658E+03  0.31439817478E+03  0.90272696594E+02 0.  0.
        -11    1    1    2    0    0  0.53104838143E+02  0.66342670104E+02  0.17877535408E+03  0.19794469161E+03  0.00000000000E+00 0. -1.
         11    1    1    2    0    0 -0.49525112833E+02 -0.71261861456E+02 -0.47987341066E+03  0.48765713361E+03  0.00000000000E+00 0.  1.
        -15    1    3    3    0    0  0.40939988658E+02  0.14499083073E+02  0.17499052110E+03  0.18030847535E+03  0.17770000000E+01 0. -1.
         15    1    3    3    0    0 -0.44519713968E+02 -0.95798917207E+01  0.12610753548E+03  0.13408969942E+03  0.17770000000E+01 0.  1.
</event>
<event>
 7    1  0.2288857E-006  0.3347070E+03  0.7546771E-02  0.9871809E-01
        -11   -1    0    0    0    0  0.00000000000E+00  0.00000000000E+00  0.50000000000E+03  0.50000000000E+03  0.00000000000E+00 0.  1.
         11   -1    0    0    0    0 -0.00000000000E+00 -0.00000000000E+00 -0.50000000000E+03  0.50000000000E+03  0.00000000000E+00 0.  1.
         23    2    1    2    0    0 -0.17443438037E+02 -0.20691101042E+03  0.16444022991E+03  0.28008884124E+03  0.91064427785E+02 0.  0.
        -11    1    1    2    0    0  0.33710090623E+02  0.12480851799E+03  0.25836299358E+03  0.28890305091E+03  0.00000000000E+00 0.  1.
         11    1    1    2    0    0 -0.16266652586E+02  0.82102492438E+02 -0.42280322348E+03  0.43100810786E+03  0.00000000000E+00 0.  1.
        -15    1    3    3    0    0 -0.29056720916E+02 -0.37954669055E+02  0.73934874996E+02  0.88058920066E+02  0.17770000000E+01 0.  1.
         15    1    3    3    0    0  0.11613282879E+02 -0.16895634137E+03  0.90505354909E+02  0.19202992117E+03  0.17770000000E+01 0. -1.
</event>
<event>
 7    1  0.2288857E-006  0.4569192E+03  0.7546771E-02  0.9501727E-01
        -11   -1    0    0    0    0  0.00000000000E+00  0.00000000000E+00  0.50000000000E+03  0.50000000000E+03  0.00000000000E+00 0.  1.
         11   -1    0    0    0    0 -0.00000000000E+00 -0.00000000000E+00 -0.50000000000E+03  0.50000000000E+03  0.00000000000E+00 0. -1.
         23    2    1    2    0    0  0.11222365285E+03  0.94707015413E+02 -0.38016638127E+03  0.42129504927E+03  0.10676831957E+03 0.  0.
        -11    1    1    2    0    0 -0.12326612390E+03 -0.16817317021E+03  0.43764230002E+03  0.48477575770E+03  0.00000000000E+00 0.  1.
         11    1    1    2    0    0  0.11042471045E+02  0.73466154797E+02 -0.57475918754E+02  0.93929193034E+02  0.00000000000E+00 0. -1.
        -15    1    3    3    0    0  0.60632132304E+02  0.10859291089E+03 -0.30184571454E+03  0.32647001222E+03  0.17770000000E+01 0.  1.
         15    1    3    3    0    0  0.51591520549E+02 -0.13885895477E+02 -0.78320666725E+02  0.94825037047E+02  0.17770000000E+01 0. -1.
</event>
<event>
 7    1  0.2288857E-006  0.5313935E+03  0.7546771E-02  0.9332181E-01
        -11   -1    0    0    0    0  0.00000000000E+00  0.00000000000E+00  0.50000000000E+03  0.50000000000E+03  0.00000000000E+00 0.  1.
         11   -1    0    0    0    0 -0.00000000000E+00 -0.00000000000E+00 -0.50000000000E+03  0.50000000000E+03  0.00000000000E+00 0. -1.
         23    2    1    2    0    0  0.10572465509E+03 -0.37805207705E+02 -0.13087930270E+03  0.19814257800E+03  0.97591766656E+02 0.  0.
        -11    1    1    2    0    0 -0.55771110766E+02  0.98623324514E+02  0.45470328795E+03  0.46860650551E+03  0.00000000000E+00 0.  1.
         11    1    1    2    0    0 -0.49953544320E+02 -0.60818116809E+02 -0.32382398524E+03  0.33325091649E+03  0.00000000000E+00 0. -1.
        -15    1    3    3    0    0  0.96677152402E+02 -0.63965195240E+02 -0.82214574152E+02  0.14212815319E+03  0.17770000000E+01 0.  1.
         15    1    3    3    0    0  0.90475026844E+01  0.26159987535E+02 -0.48664728552E+02  0.56014424809E+02  0.17770000000E+01 0. -1.
</event>
<event>
 7    1  0.2294554E-006  0.4068280E+03  0.7546771E-02  0.9636439E-01
        -11   -1    0    0    0    0  0.00000000000E+00  0.00000000000E+00  0.50000000000E+03  0.50000000000E+03  0.00000000000E+00 0.  1.
         11   -1    0    0    0    0 -0.00000000000E+00 -0.00000000000E+00 -0.50000000000E+03  0.50000000000E+03  0.00000000000E+00 0. -1.
         23    2    1    2    0    0 -0.12089918714E+03 -0.45222693961E+01  0.93607368976E+02  0.17208970506E+03  0.78838205759E+02 0.  0.
        -11    1    1    2    0    0  0.63147553688E+02 -0.46324281205E+02  0.35969572982E+03  0.36812303734E+03  0.00000000000E+00 0.  1.
         11    1    1    2    0    0  0.57751633455E+02  0.50846550601E+02 -0.45330309880E+03  0.45978725761E+03  0.00000000000E+00 0. -1.
        -15    1    3    3    0    0 -0.88594516400E+02 -0.15586236116E+02  0.10286937038E+03  0.13666449496E+03  0.17770000000E+01 0.  1.
         15    1    3    3    0    0 -0.32304670744E+02  0.11063966720E+02 -0.92620013991E+01  0.35425210096E+02  0.17770000000E+01 0. -1.
</event>
<event>
 7    1  0.2288857E-006  0.4896838E+03  0.7546771E-02  0.9423193E-01
        -11   -1    0    0    0    0  0.00000000000E+00  0.00000000000E+00  0.50000000000E+03  0.50000000000E+03  0.00000000000E+00 0.  1.
         11   -1    0    0    0    0 -0.00000000000E+00 -0.00000000000E+00 -0.50000000000E+03  0.50000000000E+03  0.00000000000E+00 0. -1.
         23    2    1    2    0    0 -0.83840374639E+01 -0.10687901107E+03 -0.45726234400E+03  0.47715492116E+03  0.84229166339E+02 0.  0.
        -11    1    1    2    0    0  0.12216091815E+01  0.11949499351E+03  0.48067231937E+03  0.49530437553E+03  0.00000000000E+00 0.  1.
         11    1    1    2    0    0  0.71624282824E+01 -0.12615982431E+02 -0.23409975378E+02  0.27540703310E+02  0.00000000000E+00 0. -1.
        -15    1    3    3    0    0 -0.40334374419E+02 -0.23395323540E+02 -0.14286640614E+03  0.15029361482E+03  0.17770000000E+01 0. -1.
         15    1    3    3    0    0  0.31950336955E+02 -0.83483687535E+02 -0.31439593785E+03  0.32686130634E+03  0.17770000000E+01 0.  1.
</event>
<event>
 7    1  0.2288857E-006  0.5379567E+03  0.7546771E-02  0.9318667E-01
        -11   -1    0    0    0    0  0.00000000000E+00  0.00000000000E+00  0.50000000000E+03  0.50000000000E+03  0.00000000000E+00 0.  1.
         11   -1    0    0    0    0 -0.00000000000E+00 -0.00000000000E+00 -0.50000000000E+03  0.50000000000E+03  0.00000000000E+00 0. -1.
         23    2    1    2    0    0 -0.81950101511E+02 -0.12560481791E+02  0.20985146203E+03  0.24329631941E+03  0.91004824515E+02 0.  0.
        -11    1    1    2    0    0  0.16400423392E+03 -0.33199861889E+02  0.24253895124E+03  0.29466041885E+03  0.00000000000E+00 0.  1.
         11    1    1    2    0    0 -0.82054132404E+02  0.45760343681E+02 -0.45239041326E+03  0.46204326173E+03  0.00000000000E+00 0. -1.
        -15    1    3    3    0    0 -0.25765243448E+01  0.24635357555E+02  0.98440239161E+02  0.10152427165E+03  0.17770000000E+01 0.  1.
         15    1    3    3    0    0 -0.79373577166E+02 -0.37195839346E+02  0.11141122286E+03  0.14177204776E+03  0.17770000000E+01 0. -1.
</event>
<event>
 7    1  0.2288857E-006  0.5114882E+03  0.7546771E-02  0.9374465E-01
        -11   -1    0    0    0    0  0.00000000000E+00  0.00000000000E+00  0.50000000000E+03  0.50000000000E+03  0.00000000000E+00 0.  1.
         11   -1    0    0    0    0 -0.00000000000E+00 -0.00000000000E+00 -0.50000000000E+03  0.50000000000E+03  0.00000000000E+00 0. -1.
         23    2    1    2    0    0  0.13079528200E+02  0.87355243244E+02  0.34877703932E+03  0.37629007373E+03  0.11021244872E+03 0.  0.
        -11    1    1    2    0    0  0.26997454845E+02 -0.10810948015E+02  0.13203330491E+03  0.13519812414E+03  0.00000000000E+00 0.  1.
         11    1    1    2    0    0 -0.40076983045E+02 -0.76544295229E+02 -0.48081034423E+03  0.48851180213E+03  0.00000000000E+00 0. -1.
        -15    1    3    3    0    0  0.93943491050E+01  0.62367254753E+02  0.34496047619E+03  0.35068335592E+03  0.17770000000E+01 0.  1.
         15    1    3    3    0    0  0.36851790949E+01  0.24987988491E+02  0.38165631313E+01  0.25606717808E+02  0.17770000000E+01 0. -1.
</event>
<event>
 7    1  0.2288857E-006  0.5380169E+03  0.7546771E-02  0.9318544E-01
        -11   -1    0    0    0    0  0.00000000000E+00  0.00000000000E+00  0.50000000000E+03  0.50000000000E+03  0.00000000000E+00 0. -1.
         11   -1    0    0    0    0 -0.00000000000E+00 -0.00000000000E+00 -0.50000000000E+03  0.50000000000E+03  0.00000000000E+00 0.  1.
         23    2    1    2    0    0 -0.16910549791E+02 -0.20563520410E+00 -0.24326333473E+02  0.95606207775E+02  0.90899766143E+02 0.  0.
        -11    1    1    2    0    0 -0.44388386473E+02  0.20628434752E+03  0.41098026899E+03  0.46198305422E+03  0.00000000000E+00 0. -1.
         11    1    1    2    0    0  0.61298936265E+02 -0.20607871231E+03 -0.38665393552E+03  0.44241073801E+03  0.00000000000E+00 0.  1.
        -15    1    3    3    0    0 -0.37926732357E+02  0.28724491587E+02  0.68905790276E+01  0.48105833873E+02  0.17770000000E+01 0. -1.
         15    1    3    3    0    0  0.21016182566E+02 -0.28930126791E+02 -0.31216912500E+02  0.47500373902E+02  0.17770000000E+01 0.  1.
</event>
<event>
 7    1  0.2288857E-006  0.5275082E+03  0.7546771E-02  0.9340278E-01
        -11   -1    0    0    0    0  0.00000000000E+00  0.00000000000E+00  0.50000000000E+03  0.50000000000E+03  0.00000000000E+00 0.  1.
         11   -1    0    0    0    0 -0.00000000000E+00 -0.00000000000E+00 -0.50000000000E+03  0.50000000000E+03  0.00000000000E+00 0. -1.
         23    2    1    2    0    0 -0.20376414417E+03  0.28188192711E+02 -0.33147771412E+03  0.39930911210E+03  0.85181520245E+02 0.  0.
        -11    1    1    2    0    0  0.17306274955E+03  0.35881748981E+02  0.43818979944E+03  0.47249181531E+03  0.00000000000E+00 0.  1.
         11    1    1    2    0    0  0.30701394613E+02 -0.64069941692E+02 -0.10671208533E+03  0.12819907260E+03  0.00000000000E+00 0. -1.
        -15    1    3    3    0    0 -0.17287639161E+03  0.22634023025E+02 -0.20566437591E+03  0.26962852042E+03  0.17770000000E+01 0. -1.
         15    1    3    3    0    0 -0.30887752555E+02  0.55541696867E+01 -0.12581333820E+03  0.12968059168E+03  0.17770000000E+01 0.  1.
</event>
<event>
 7    1  0.2419092E-006  0.5127649E+03  0.7546771E-02  0.9371692E-01
        -11   -1    0    0    0    0  0.00000000000E+00  0.00000000000E+00  0.50000000000E+03  0.50000000000E+03  0.00000000000E+00 0.  1.
         11   -1    0    0    0    0 -0.00000000000E+00 -0.00000000000E+00 -0.50000000000E+03  0.50000000000E+03  0.00000000000E+00 0. -1.
         23    2    1    2    0    0 -0.94065679880E+02 -0.99648132813E+02 -0.15064272403E+03  0.22324511005E+03  0.91471560350E+02 0.  0.
        -11    1    1    2    0    0  0.20054370035E+03  0.31258825875E+03  0.31538685726E+03  0.48723512290E+03  0.00000000000E+00 0.  1.
         11    1    1    2    0    0 -0.10647802047E+03 -0.21294012594E+03 -0.16474413323E+03  0.28951976705E+03  0.00000000000E+00 0. -1.
        -15    1    3    3    0    0  0.13443746247E+02 -0.30644511414E+02 -0.51878223534E+02  0.61760247725E+02  0.17770000000E+01 0.  1.
         15    1    3    3    0    0 -0.10750942613E+03 -0.69003621399E+02 -0.98764500493E+02  0.16148486232E+03  0.17770000000E+01 0. -1.
</event>
<event>
 7    1  0.2288857E-006  0.5135817E+03  0.7546771E-02  0.9369922E-01
        -11   -1    0    0    0    0  0.00000000000E+00  0.00000000000E+00  0.50000000000E+03  0.50000000000E+03  0.00000000000E+00 0. -1.
         11   -1    0    0    0    0 -0.00000000000E+00 -0.00000000000E+00 -0.50000000000E+03  0.50000000000E+03  0.00000000000E+00 0.  1.
         23    2    1    2    0    0 -0.12175900995E+02 -0.19303341913E+02  0.17242545558E+03  0.19665059074E+03  0.91760806074E+02 0.  0.
        -11    1    1    2    0    0 -0.87532760705E+02  0.24232512960E+02  0.30363820131E+03  0.31693115369E+03  0.00000000000E+00 0. -1.
         11    1    1    2    0    0  0.99708661700E+02 -0.49291710461E+01 -0.47606365689E+03  0.48641825558E+03  0.00000000000E+00 0.  1.
        -15    1    3    3    0    0 -0.21043438438E+02  0.25849294879E+02  0.12937557186E+03  0.13361215764E+03  0.17770000000E+01 0. -1.
         15    1    3    3    0    0  0.88675374425E+01 -0.45152636793E+02  0.43049883719E+02  0.63038433093E+02  0.17770000000E+01 0.  1.
</event>
<event>
 7    1  0.2288857E-006  0.3839060E+03  0.7546771E-02  0.9705186E-01
        -11   -1    0    0    0    0  0.00000000000E+00  0.00000000000E+00  0.50000000000E+03  0.50000000000E+03  0.00000000000E+00 0. -1.
         11   -1    0    0    0    0 -0.00000000000E+00 -0.00000000000E+00 -0.50000000000E+03  0.50000000000E+03  0.00000000000E+00 0. -1.
         23    2    1    2    0    0  0.55847211846E+02  0.14632302323E+03  0.78949944862E+02  0.21241028493E+03  0.11981526260E+03 0.  0.
        -11    1    1    2    0    0 -0.44234189933E+02 -0.22464259942E+03  0.31295597805E+03  0.38776591550E+03  0.00000000000E+00 0. -1.
         11    1    1    2    0    0 -0.11613021913E+02  0.78319576188E+02 -0.39190592291E+03  0.39982379957E+03  0.00000000000E+00 0. -1.
        -15    1    3    3    0    0 -0.14576551325E+02 -0.91643562527E+01  0.30326661220E+02  0.34918839955E+02  0.17770000000E+01 0. -1.
         15    1    3    3    0    0  0.70423763171E+02  0.15548737948E+03  0.48623283642E+02  0.17749144497E+03  0.17770000000E+01 0.  1.
</event>
<event>
 7    1  0.2288857E-006  0.4703863E+03  0.7546771E-02  0.9468625E-01
        -11   -1    0    0    0    0  0.00000000000E+00  0.00000000000E+00  0.50000000000E+03  0.50000000000E+03  0.00000000000E+00 0. -1.
         11   -1    0    0    0    0 -0.00000000000E+00 -0.00000000000E+00 -0.50000000000E+03  0.50000000000E+03  0.00000000000E+00 0.  1.
         23    2    1    2    0    0 -0.10440963903E+03 -0.39010682676E+02  0.42071884589E+03  0.44320043365E+03  0.83660450751E+02 0.  0.
        -11    1    1    2    0    0 -0.38523943150E+02 -0.23174175041E+02  0.46251453187E+02  0.64500647334E+02  0.00000000000E+00 0. -1.
         11    1    1    2    0    0  0.14293358218E+03  0.62184857716E+02 -0.46697029908E+03  0.49229891901E+03  0.00000000000E+00 0.  1.
        -15    1    3    3    0    0 -0.95612694236E+02 -0.22591167329E+01  0.23602921442E+03  0.25467594841E+03  0.17770000000E+01 0.  1.
         15    1    3    3    0    0 -0.87969447895E+01 -0.36751565943E+02  0.18468963146E+03  0.18852448524E+03  0.17770000000E+01 0. -1.
</event>
<event>
 7    1  0.2288857E-006  0.5024234E+03  0.7546771E-02  0.9394403E-01
        -11   -1    0    0    0    0  0.00000000000E+00  0.00000000000E+00  0.50000000000E+03  0.50000000000E+03  0.00000000000E+00 0.  1.
         11   -1    0    0    0    0 -0.00000000000E+00 -0.00000000000E+00 -0.50000000000E+03  0.50000000000E+03  0.00000000000E+00 0. -1.
         23    2    1    2    0    0  0.58067645837E+02 -0.94335303167E+02  0.48144924834E+03  0.50242342198E+03  0.91459910949E+02 0.  0.
        -11    1    1    2    0    0  0.62023753958E+01  0.10475444803E+02 -0.15038050789E+02  0.19348058712E+02  0.00000000000E+00 0.  1.
         11    1    1    2    0    0 -0.64270021233E+02  0.83859858363E+02 -0.46641119755E+03  0.47822851931E+03  0.00000000000E+00 0. -1.
        -15    1    3    3    0    0 -0.18413106278E+01 -0.70853056715E+02  0.33549200475E+03  0.34290171923E+03  0.17770000000E+01 0.  1.
         15    1    3    3    0    0  0.59908956465E+02 -0.23482246451E+02  0.14595724360E+03  0.15952170276E+03  0.17770000000E+01 0. -1.
</event>
<event>
 7    1  0.2288857E-006  0.3427617E+03  0.7546771E-02  0.9842500E-01
        -11   -1    0    0    0    0  0.00000000000E+00  0.00000000000E+00  0.50000000000E+03  0.50000000000E+03  0.00000000000E+00 0. -1.
         11   -1    0    0    0    0 -0.00000000000E+00 -0.00000000000E+00 -0.50000000000E+03  0.50000000000E+03  0.00000000000E+00 0.  1.
         23    2    1    2    0    0  0.66413266912E+02  0.37579395070E+03  0.13524073833E+03  0.41512109558E+03  0.91671431126E+02 0.  0.
        -11    1    1    2    0    0 -0.81078333605E+02 -0.22316788687E+03  0.13575843056E+03  0.27351042645E+03  0.00000000000E+00 0. -1.
         11    1    1    2    0    0  0.14665066693E+02 -0.15262606383E+03 -0.27099916888E+03  0.31136847798E+03  0.00000000000E+00 0.  1.
        -15    1    3    3    0    0  0.88693111521E+02  0.32479849000E+03  0.11275677225E+03  0.35507432258E+03  0.17770000000E+01 0.  1.
         15    1    3    3    0    0 -0.22279844609E+02  0.50995460699E+02  0.22483966081E+02  0.60046772998E+02  0.17770000000E+01 0. -1.
</event>
<event>
 7    1  0.2288857E-006  0.4636071E+03  0.7546771E-02  0.9485139E-01
        -11   -1    0    0    0    0  0.00000000000E+00  0.00000000000E+00  0.50000000000E+03  0.50000000000E+03  0.00000000000E+00 0.  1.
         11   -1    0    0    0    0 -0.00000000000E+00 -0.00000000000E+00 -0.50000000000E+03  0.50000000000E+03  0.00000000000E+00 0. -1.
         23    2    1    2    0    0  0.46256168819E+02 -0.10034891891E+02  0.41881564001E+03  0.43229739851E+03  0.96094579641E+02 0.  0.
        -11    1    1    2    0    0  0.28431075091E+02  0.39402223512E+02  0.62824821508E+02  0.79421781937E+02  0.00000000000E+00 0.  1.
         11    1    1    2    0    0 -0.74687243909E+02 -0.29367331621E+02 -0.48164046152E+03  0.48828081955E+03  0.00000000000E+00 0. -1.
        -15    1    3    3    0    0  0.33297363958E+02  0.38559888135E+02  0.14035794330E+03  0.14932879627E+03  0.17770000000E+01 0.  1.
         15    1    3    3    0    0  0.12958804860E+02 -0.48594780026E+02  0.27845769671E+03  0.28296860224E+03  0.17770000000E+01 0. -1.
</event>
<event>
 7    1  0.2288857E-006  0.4226198E+03  0.7546771E-02  0.9591831E-01
        -11   -1    0    0    0    0  0.00000000000E+00  0.00000000000E+00  0.50000000000E+03  0.50000000000E+03  0.00000000000E+00 0. -1.
         11   -1    0    0    0    0 -0.00000000000E+00 -0.00000000000E+00 -0.50000000000E+03  0.50000000000E+03  0.00000000000E+00 0.  1.
         23    2    1    2    0    0 -0.84226714882E+02 -0.73867392476E+02  0.21624976395E+02  0.14709434959E+03  0.92836290884E+02 0.  0.
        -11    1    1    2    0    0  0.12502558815E+02  0.72977393644E+02  0.40935514799E+03  0.41599717685E+03  0.00000000000E+00 0. -1.
         11    1    1    2    0    0  0.71724156067E+02  0.88999883158E+00 -0.43098012438E+03  0.43690847357E+03  0.00000000000E+00 0.  1.
        -15    1    3    3    0    0 -0.55423144512E+02 -0.69319900183E+02  0.53668282914E+02  0.10373242419E+03  0.17770000000E+01 0. -1.
         15    1    3    3    0    0 -0.28803570370E+02 -0.45474922933E+01 -0.32043306519E+02  0.43361925394E+02  0.17770000000E+01 0.  1.
</event>
<event>
 7    1  0.2288857E-006  0.5295273E+03  0.7546771E-02  0.9336061E-01
        -11   -1    0    0    0    0  0.00000000000E+00  0.00000000000E+00  0.50000000000E+03  0.50000000000E+03  0.00000000000E+00 0. -1.
         11   -1    0    0    0    0 -0.00000000000E+00 -0.00000000000E+00 -0.50000000000E+03  0.50000000000E+03  0.00000000000E+00 0.  1.
         23    2    1    2    0    0  0.33997888903E+02 -0.82397519234E+02  0.22962375987E+03  0.26241089135E+03  0.90483131999E+02 0.  0.
        -11    1    1    2    0    0  0.30517457569E+02  0.12416020460E+03  0.23452949561E+03  0.26711637152E+03  0.00000000000E+00 0. -1.
         11    1    1    2    0    0 -0.64515346472E+02 -0.41762685369E+02 -0.46415325547E+03  0.47047273713E+03  0.00000000000E+00 0.  1.
        -15    1    3    3    0    0 -0.30665072784E+01 -0.13344164900E+02 -0.52722956596E+01  0.14779209529E+02  0.17770000000E+01 0.  1.
         15    1    3    3    0    0  0.37064396182E+02 -0.69053354334E+02  0.23489605553E+03  0.24763168182E+03  0.17770000000E+01 0. -1.
</event>
<event>
 7    1  0.2288857E-006  0.5319942E+03  0.7546771E-02  0.9330935E-01
        -11   -1    0    0    0    0  0.00000000000E+00  0.00000000000E+00  0.50000000000E+03  0.50000000000E+03  0.00000000000E+00 0.  1.
         11   -1    0    0    0    0 -0.00000000000E+00 -0.00000000000E+00 -0.50000000000E+03  0.50000000000E+03  0.00000000000E+00 0. -1.
         23    2    1    2    0    0 -0.11453573278E+03  0.73015396020E+02  0.32732579919E+03  0.36571832701E+03  0.90321834331E+02 0.  0.
        -11    1    1    2    0    0  0.87213158155E+02  0.87132897426E+02  0.11157677186E+03  0.16627583344E+03  0.00000000000E+00 0.  1.
         11    1    1    2    0    0  0.27322574621E+02 -0.16014829345E+03 -0.43890257105E+03  0.46800583955E+03  0.00000000000E+00 0. -1.
        -15    1    3    3    0    0 -0.12284928848E+03  0.81022267035E+02  0.27291364199E+03  0.31006703976E+03  0.17770000000E+01 0.  1.
         15    1    3    3    0    0  0.83135557023E+01 -0.80068710157E+01  0.54412157199E+02  0.55651287244E+02  0.17770000000E+01 0. -1.
</event>
<event>
 7    1  0.2288857E-006  0.5146655E+03  0.7546771E-02  0.9367580E-01
        -11   -1    0    0    0    0  0.00000000000E+00  0.00000000000E+00  0.50000000000E+03  0.50000000000E+03  0.00000000000E+00 0.  1.
         11   -1    0    0    0    0 -0.00000000000E+00 -0.00000000000E+00 -0.50000000000E+03  0.50000000000E+03  0.00000000000E+00 0. -1.
         23    2    1    2    0    0  0.57310624663E+01  0.73264344715E+02 -0.25172725119E+03  0.27693130785E+03  0.89015903037E+02 0.  0.
        -11    1    1    2    0    0 -0.11146152434E+03 -0.87562549293E+02  0.46417530187E+03  0.48533450559E+03  0.00000000000E+00 0.  1.
         11    1    1    2    0    0  0.10573046187E+03  0.14298204578E+02 -0.21244805068E+03  0.23773418656E+03  0.00000000000E+00 0. -1.
        -15    1    3    3    0    0 -0.68802983080E+01  0.87754456047E+02 -0.23649392581E+03  0.25235038683E+03  0.17770000000E+01 0. -1.
         15    1    3    3    0    0  0.12611360774E+02 -0.14490111333E+02 -0.15233325381E+02  0.24580921019E+02  0.17770000000E+01 0.  1.
</event>
<event>
 7    1  0.2288857E-006  0.3959927E+03  0.7546771E-02  0.9668316E-01
        -11   -1    0    0    0    0  0.00000000000E+00  0.00000000000E+00  0.50000000000E+03  0.50000000000E+03  0.00000000000E+00 0. -1.
         11   -1    0    0    0    0 -0.00000000000E+00 -0.00000000000E+00 -0.50000000000E+03  0.50000000000E+03  0.00000000000E+00 0.  1.
         23    2    1    2    0    0  0.12102651604E+03 -0.70037157506E+01  0.11554781006E+03  0.19050095752E+03  0.90790135955E+02 0.  0.
        -11    1    1    2    0    0 -0.41283963463E+02  0.24246951565E+03  0.26077994628E+03  0.35847177301E+03  0.00000000000E+00 0. -1.
         11    1    1    2    0    0 -0.79742552578E+02 -0.23546579990E+03 -0.37632775634E+03  0.45102726947E+03  0.00000000000E+00 0.  1.
        -15    1    3    3    0    0  0.57915402464E+02  0.55399073769E+01 -0.29891818287E-01  0.58206898550E+02  0.17770000000E+01 0. -1.
         15    1    3    3    0    0  0.63111113577E+02 -0.12543623128E+02  0.11557770188E+03  0.13229405897E+03  0.17770000000E+01 0.  1.
</event>
<event>
 7    1  0.2288857E-006  0.3614919E+03  0.7546771E-02  0.9777565E-01
        -11   -1    0    0    0    0  0.00000000000E+00  0.00000000000E+00  0.50000000000E+03  0.50000000000E+03  0.00000000000E+00 0.  1.
         11   -1    0    0    0    0 -0.00000000000E+00 -0.00000000000E+00 -0.50000000000E+03  0.50000000000E+03  0.00000000000E+00 0.  1.
         23    2    1    2    0    0  0.17763268082E+03 -0.79734644023E+01  0.13274658177E+03  0.24373006926E+03  0.10082532549E+03 0.  0.
        -11    1    1    2    0    0 -0.10226861308E+03 -0.51259450561E+01  0.29990716930E+03  0.31690606610E+03  0.00000000000E+00 0.  1.
         11    1    1    2    0    0 -0.75364067738E+02  0.13099409458E+02 -0.43265375107E+03  0.43936386464E+03  0.00000000000E+00 0.  1.
        -15    1    3    3    0    0  0.14784426325E+03  0.13917179881E+01  0.14776080094E+03  0.20903654006E+03  0.17770000000E+01 0. -1.
         15    1    3    3    0    0  0.29788417568E+02 -0.93651823904E+01 -0.15014219170E+02  0.34693529205E+02  0.17770000000E+01 0.  1.
</event>
<event>
 7    1  0.2288857E-006  0.5325381E+03  0.7546771E-02  0.9329809E-01
        -11   -1    0    0    0    0  0.00000000000E+00  0.00000000000E+00  0.50000000000E+03  0.50000000000E+03  0.00000000000E+00 0.  1.
         11   -1    0    0    0    0 -0.00000000000E+00 -0.00000000000E+00 -0.50000000000E+03  0.50000000000E+03  0.00000000000E+00 0.  1.
         23    2    1    2    0    0 -0.80535782945E+02  0.12627428766E+02  0.33338167739E+03  0.35504539836E+03  0.90930895682E+02 0.  0.
        -11    1    1    2    0    0  0.76655295196E+02 -0.98646521099E+02  0.12608132747E+03  0.17749273659E+03  0.00000000000E+00 0.  1.
         11    1    1    2    0    0  0.38804877493E+01  0.86019092333E+02 -0.45946300486E+03  0.46746186504E+03  0.00000000000E+00 0.  1.
        -15    1    3    3    0    0 -0.97663619455E+02  0.76176411685E+01  0.31260531502E+03  0.32759952951E+03  0.17770000000E+01 0.  1.
         15    1    3    3    0    0  0.17127836511E+02  0.50097875970E+01  0.20776362365E+02  0.27445868859E+02  0.17770000000E+01 0. -1.
</event>
<event>
 7    1  0.2288857E-006  0.5157493E+03  0.7546771E-02  0.9365243E-01
        -11   -1    0    0    0    0  0.00000000000E+00  0.00000000000E+00  0.50000000000E+03  0.50000000000E+03  0.00000000000E+00 0.  1.
         11   -1    0    0    0    0 -0.00000000000E+00 -0.00000000000E+00 -0.50000000000E+03  0.50000000000E+03  0.00000000000E+00 0.  1.
         23    2    1    2    0    0 -0.74152761424E+02 -0.37758909691E+01  0.29911497705E+03  0.32098481425E+03  0.89713946014E+02 0.  0.
        -11    1    1    2    0    0 -0.41715350408E+01  0.95003617762E+02  0.16997090513E+03  0.19476446720E+03  0.00000000000E+00 0.  1.
         11    1    1    2    0    0  0.78324296465E+02 -0.91227726793E+02 -0.46908588218E+03  0.48425071854E+03  0.00000000000E+00 0.  1.
        -15    1    3    3    0    0  0.15921610907E+02 -0.17893788168E+02  0.45092905212E+02  0.51090245432E+02  0.17770000000E+01 0. -1.
         15    1    3    3    0    0 -0.90074372331E+02  0.14117897198E+02  0.25402207183E+03  0.26989456882E+03  0.17770000000E+01 0.  1.
</event>
<event>
 7    1  0.2288857E-006  0.5102937E+03  0.7546771E-02  0.9377067E-01
        -11   -1    0    0    0    0  0.00000000000E+00  0.00000000000E+00  0.50000000000E+03  0.50000000000E+03  0.00000000000E+00 0.  1.
         11   -1    0    0    0    0 -0.00000000000E+00 -0.00000000000E+00 -0.50000000000E+03  0.50000000000E+03  0.00000000000E+00 0. -1.
         23    2    1    2    0    0 -0.91163794251E+02  0.69105641476E+02 -0.22221286142E+03  0.26804456287E+03  0.96865395459E+02 0.  0.
        -11    1    1    2    0    0  0.13980359742E+03 -0.11446975349E+03  0.45515258891E+03  0.48970628903E+03  0.00000000000E+00 0.  1.
         11    1    1    2    0    0 -0.48639803172E+02  0.45364112017E+02 -0.23293972750E+03  0.24224914811E+03  0.00000000000E+00 0. -1.
        -15    1    3    3    0    0  0.43634834399E+01  0.52589818303E+02 -0.83868925487E+02  0.99105415433E+02  0.17770000000E+01 0.  1.
         15    1    3    3    0    0 -0.95527277691E+02  0.16515823174E+02 -0.13834393593E+03  0.16893914743E+03  0.17770000000E+01 0. -1.
</event>
<event>
 7    1  0.2288857E-006  0.4551141E+03  0.7546771E-02  0.9506256E-01
        -11   -1    0    0    0    0  0.00000000000E+00  0.00000000000E+00  0.50000000000E+03  0.50000000000E+03  0.00000000000E+00 0. -1.
         11   -1    0    0    0    0 -0.00000000000E+00 -0.00000000000E+00 -0.50000000000E+03  0.50000000000E+03  0.00000000000E+00 0.  1.
         23    2    1    2    0    0 -0.86688701144E+00  0.12216153165E+02  0.45457681333E+03  0.46505714284E+03  0.97406781052E+02 0.  0.
        -11    1    1    2    0    0 -0.29217333346E+02  0.86518830754E+02 -0.27207458366E+02  0.95285919388E+02  0.00000000000E+00 0. -1.
         11    1    1    2    0    0  0.30084220358E+02 -0.98734983919E+02 -0.42736935497E+03  0.43965693777E+03  0.00000000000E+00 0.  1.
        -15    1    3    3    0    0  0.47161450972E+02  0.13391574512E+02  0.26329396889E+03  0.26782533209E+03  0.17770000000E+01 0. -1.
         15    1    3    3    0    0 -0.48028337983E+02 -0.11754213472E+01  0.19128284444E+03  0.19723181075E+03  0.17770000000E+01 0.  1.
</event>
<event>
 7    1  0.2288857E-006  0.3460105E+03  0.7546771E-02  0.9830923E-01
        -11   -1    0    0    0    0  0.00000000000E+00  0.00000000000E+00  0.50000000000E+03  0.50000000000E+03  0.00000000000E+00 0.  1.
         11   -1    0    0    0    0 -0.00000000000E+00 -0.00000000000E+00 -0.50000000000E+03  0.50000000000E+03  0.00000000000E+00 0.  1.
         23    2    1    2    0    0 -0.20595141296E+03 -0.74953235692E+02  0.19744360646E+03  0.31754016339E+03  0.11753214707E+03 0.  0.
        -11    1    1    2    0    0 -0.20008263054E+03  0.38570775071E+02 -0.18404571952E+03  0.27457893329E+03  0.00000000000E+00 0.  1.
         11    1    1    2    0    0  0.40603404350E+03  0.36382460621E+02 -0.13397886944E+02  0.40788090332E+03  0.00000000000E+00 0.  1.
        -15    1    3    3    0    0 -0.90966011543E+02 -0.72620665193E+01  0.15062842352E+03  0.17612391254E+03  0.17770000000E+01 0.  1.
         15    1    3    3    0    0 -0.11498540142E+03 -0.67691169172E+02  0.46815182940E+02  0.14141625085E+03  0.17770000000E+01 0. -1.
</event>
<event>
 7    1  0.2288857E-006  0.5093543E+03  0.7546771E-02  0.9379119E-01
        -11   -1    0    0    0    0  0.00000000000E+00  0.00000000000E+00  0.50000000000E+03  0.50000000000E+03  0.00000000000E+00 0. -1.
         11   -1    0    0    0    0 -0.00000000000E+00 -0.00000000000E+00 -0.50000000000E+03  0.50000000000E+03  0.00000000000E+00 0.  1.
         23    2    1    2    0    0  0.19223822615E+02  0.40585126598E+02  0.35493518114E+03  0.36835611848E+03  0.87695720283E+02 0.  0.
        -11    1    1    2    0    0 -0.23045568502E+02  0.60817878689E+02  0.12510230360E+03  0.14099822326E+03  0.00000000000E+00 0. -1.
         11    1    1    2    0    0  0.38217458870E+01 -0.10140300529E+03 -0.48003748473E+03  0.49064565826E+03  0.00000000000E+00 0.  1.
        -15    1    3    3    0    0 -0.33996302822E+02  0.49540802237E+01  0.11829795209E+03  0.12319843633E+03  0.17770000000E+01 0.  1.
         15    1    3    3    0    0  0.53220125437E+02  0.35631046375E+02  0.23663722904E+03  0.24515768215E+03  0.17770000000E+01 0. -1.
</event>
<event>
 7    1  0.2288857E-006  0.5154986E+03  0.7546771E-02  0.9365783E-01
        -11   -1    0    0    0    0  0.00000000000E+00  0.00000000000E+00  0.50000000000E+03  0.50000000000E+03  0.00000000000E+00 0.  1.
         11   -1    0    0    0    0 -0.00000000000E+00 -0.00000000000E+00 -0.50000000000E+03  0.50000000000E+03  0.00000000000E+00 0. -1.
         23    2    1    2    0    0  0.40894857156E+02 -0.18061916156E+02  0.14470483275E+03  0.17699717415E+03  0.91596336618E+02 0.  0.
        -11    1    1    2    0    0  0.32955545766E+02  0.51117165722E+02  0.33299280785E+03  0.33850146633E+03  0.00000000000E+00 0.  1.
         11    1    1    2    0    0 -0.73850402923E+02 -0.33055249566E+02 -0.47769764060E+03  0.48450135951E+03  0.00000000000E+00 0. -1.
        -15    1    3    3    0    0  0.28741391386E+02 -0.51154029804E+02  0.12097172764E+03  0.13446233288E+03  0.17770000000E+01 0. -1.
         15    1    3    3    0    0  0.12153465770E+02  0.33092113648E+02  0.23733105101E+02  0.42534841280E+02  0.17770000000E+01 0.  1.
</event>
<event>
 7    1  0.2288857E-006  0.4809153E+03  0.7546771E-02  0.9443556E-01
        -11   -1    0    0    0    0  0.00000000000E+00  0.00000000000E+00  0.50000000000E+03  0.50000000000E+03  0.00000000000E+00 0.  1.
         11   -1    0    0    0    0 -0.00000000000E+00 -0.00000000000E+00 -0.50000000000E+03  0.50000000000E+03  0.00000000000E+00 0.  1.
         23    2    1    2    0    0  0.13081730048E+03 -0.28803370905E+02  0.46412469086E+03  0.49234126567E+03  0.95107270688E+02 0.  0.
        -11    1    1    2    0    0 -0.42322782177E+02  0.15344615206E+02 -0.11768705257E+02  0.46531468174E+02  0.00000000000E+00 0.  1.
         11    1    1    2    0    0 -0.88494518302E+02  0.13458755699E+02 -0.45235598561E+03  0.46112726615E+03  0.00000000000E+00 0.  1.
        -15    1    3    3    0    0  0.13083635035E+03  0.30516090285E+01  0.34418803783E+03  0.36823365681E+03  0.17770000000E+01 0.  1.
         15    1    3    3    0    0 -0.19049870725E-01 -0.31854979934E+02  0.11993665303E+03  0.12410760886E+03  0.17770000000E+01 0. -1.
</event>
<event>
 7    1  0.2288857E-006  0.5310140E+03  0.7546771E-02  0.9332968E-01
        -11   -1    0    0    0    0  0.00000000000E+00  0.00000000000E+00  0.50000000000E+03  0.50000000000E+03  0.00000000000E+00 0.  1.
         11   -1    0    0    0    0 -0.00000000000E+00 -0.00000000000E+00 -0.50000000000E+03  0.50000000000E+03  0.00000000000E+00 0.  1.
         23    2    1    2    0    0 -0.32845537909E+02 -0.21992824344E+02  0.34009236695E+03  0.35437550677E+03  0.91414813088E+02 0.  0.
        -11    1    1    2    0    0  0.43149855008E+02  0.12474067922E+03  0.11738397353E+03  0.17663845641E+03  0.00000000000E+00 0.  1.
         11    1    1    2    0    0 -0.10304317099E+02 -0.10274785488E+03 -0.45747634049E+03  0.46898603683E+03  0.00000000000E+00 0.  1.
        -15    1    3    3    0    0 -0.21642408812E+01  0.34109571558E+02  0.91700971800E+02  0.97879378668E+02  0.17770000000E+01 0.  1.
         15    1    3    3    0    0 -0.30681297027E+02 -0.56102395902E+02  0.24839139515E+03  0.25649612810E+03  0.17770000000E+01 0. -1.
</event>
<event>
 6    1  0.2758104E-006  0.4529356E+03  0.7546771E-02  0.9511752E-01
        -11   -1    0    0    0    0  0.00000000000E+00  0.00000000000E+00  0.50000000000E+03  0.50000000000E+03  0.00000000000E+00 0.  1.
         11   -1    0    0    0    0 -0.00000000000E+00 -0.00000000000E+00 -0.50000000000E+03  0.50000000000E+03  0.00000000000E+00 0.  1.
        -11    1    1    2    0    0  0.57330373106E+02  0.12846646280E+03  0.46126008994E+03  0.48223570411E+03  0.00000000000E+00 0.  1.
         11    1    1    2    0    0 -0.61438113871E+01  0.19096904983E+02 -0.10545248235E+03  0.10734367346E+03  0.00000000000E+00 0.  1.
        -15    1    1    2    0    0 -0.93260284031E+02 -0.73425381079E+02 -0.19153577075E+03  0.22533946918E+03  0.17770000000E+01 0.  1.
         15    1    1    2    0    0  0.42073722312E+02 -0.74137986709E+02 -0.16427183685E+03  0.18508115326E+03  0.17770000000E+01 0. -1.
</event>
<event>
 7    1  0.2288857E-006  0.4043570E+03  0.7546771E-02  0.9643614E-01
        -11   -1    0    0    0    0  0.00000000000E+00  0.00000000000E+00  0.50000000000E+03  0.50000000000E+03  0.00000000000E+00 0.  1.
         11   -1    0    0    0    0 -0.00000000000E+00 -0.00000000000E+00 -0.50000000000E+03  0.50000000000E+03  0.00000000000E+00 0. -1.
         23    2    1    2    0    0  0.57801785912E+02 -0.90288109022E+02  0.38281444381E+03  0.40833186563E+03  0.93247117992E+02 0.  0.
        -11    1    1    2    0    0 -0.10025407095E+03 -0.14352397419E+03 -0.48798708326E+02  0.18174521684E+03  0.00000000000E+00 0.  1.
         11    1    1    2    0    0  0.42452285041E+02  0.23381208322E+03 -0.33401573548E+03  0.40992291753E+03  0.00000000000E+00 0. -1.
        -15    1    3    3    0    0  0.20317583579E+02 -0.10100679562E+03  0.27525831137E+03  0.29391405661E+03  0.17770000000E+01 0.  1.
         15    1    3    3    0    0  0.37484202333E+02  0.10718686600E+02  0.10755613244E+03  0.11441780902E+03  0.17770000000E+01 0. -1.
</event>
<event>
 7    1  0.2288857E-006  0.5146682E+03  0.7546771E-02  0.9367574E-01
        -11   -1    0    0    0    0  0.00000000000E+00  0.00000000000E+00  0.50000000000E+03  0.50000000000E+03  0.00000000000E+00 0.  1.
         11   -1    0    0    0    0 -0.00000000000E+00 -0.00000000000E+00 -0.50000000000E+03  0.50000000000E+03  0.00000000000E+00 0. -1.
         23    2    1    2    0    0 -0.37513634395E+02 -0.32974383917E+02  0.40872677123E+03  0.42195042522E+03  0.92141223471E+02 0.  0.
        -11    1    1    2    0    0 -0.59487014997E+02  0.24573124392E+02  0.66738562578E+02  0.92717739029E+02  0.00000000000E+00 0.  1.
         11    1    1    2    0    0  0.97000649392E+02  0.84012595249E+01 -0.47546533381E+03  0.48533183575E+03  0.00000000000E+00 0. -1.
        -15    1    3    3    0    0  0.26935113224E+00  0.29527789708E+02  0.82498785323E+02  0.87642285592E+02  0.17770000000E+01 0. -1.
         15    1    3    3    0    0 -0.37782985527E+02 -0.62502173625E+02  0.32622798591E+03  0.33430813963E+03  0.17770000000E+01 0.  1.
</event>
<event>
 7    1  0.2288857E-006  0.5377837E+03  0.7546771E-02  0.9319021E-01
        -11   -1    0    0    0    0  0.00000000000E+00  0.00000000000E+00  0.50000000000E+03  0.50000000000E+03  0.00000000000E+00 0.  1.
         11   -1    0    0    0    0 -0.00000000000E+00 -0.00000000000E+00 -0.50000000000E+03  0.50000000000E+03  0.00000000000E+00 0. -1.
         23    2    1    2    0    0 -0.99584008458E+02  0.15167823907E+03 -0.16763787896E+03  0.26249284599E+03  0.88751184712E+02 0.  0.
        -11    1    1    2    0    0  0.11701004425E+02 -0.17552449986E+03  0.42743201961E+03  0.46221628589E+03  0.00000000000E+00 0.  1.
         11    1    1    2    0    0  0.87883004033E+02  0.23846260797E+02 -0.25979414065E+03  0.27529086812E+03  0.00000000000E+00 0. -1.
        -15    1    3    3    0    0 -0.11350483161E+03  0.14948975973E+03 -0.15768381676E+03  0.24514868725E+03  0.17770000000E+01 0. -1.
         15    1    3    3    0    0  0.13920823154E+02  0.21884793331E+01 -0.99540621964E+01  0.17344158737E+02  0.17770000000E+01 0.  1.
</event>
<event>
 7    1  0.2359311E-006  0.4692645E+03  0.7546771E-02  0.9471337E-01
        -11   -1    0    0    0    0  0.00000000000E+00  0.00000000000E+00  0.50000000000E+03  0.50000000000E+03  0.00000000000E+00 0.  1.
         11   -1    0    0    0    0 -0.00000000000E+00 -0.00000000000E+00 -0.50000000000E+03  0.50000000000E+03  0.00000000000E+00 0. -1.
         23    2    1    2    0    0 -0.13446234306E+03 -0.79785067305E+02 -0.39131850490E+03  0.43568394943E+03  0.11065510762E+03 0.  0.
        -11    1    1    2    0    0  0.14766552674E+03  0.86677989106E+02  0.46167292469E+03  0.49240234664E+03  0.00000000000E+00 0.  1.
         11    1    1    2    0    0 -0.13203183676E+02 -0.68929218005E+01 -0.70354419787E+02  0.71913703935E+02  0.00000000000E+00 0. -1.
        -15    1    3    3    0    0 -0.51402747450E+02 -0.86234707585E+00 -0.37187461628E+02  0.63474806965E+02  0.17770000000E+01 0.  1.
         15    1    3    3    0    0 -0.83059595609E+02 -0.78922720229E+02 -0.35413104328E+03  0.37220914246E+03  0.17770000000E+01 0. -1.
</event>
<event>
 6    1  0.2288857E-006  0.1000000E+04  0.7546771E-02  0.8684367E-01
        -11   -1    0    0    0    0  0.00000000000E+00  0.00000000000E+00  0.50000000000E+03  0.50000000000E+03  0.00000000000E+00 0.  1.
         11   -1    0    0    0    0 -0.00000000000E+00 -0.00000000000E+00 -0.50000000000E+03  0.50000000000E+03  0.00000000000E+00 0. -1.
        -11    1    1    2    0    0  0.38615415820E+02  0.32175817825E+01 -0.13083342611E+03  0.13645104822E+03  0.00000000000E+00 0.  1.
         11    1    1    2    0    0 -0.27837720480E+02  0.71405397745E+02 -0.26895125927E+03  0.27965773612E+03  0.00000000000E+00 0. -1.
        -15    1    1    2    0    0  0.78494242965E+02 -0.14456559805E+03  0.43504820723E+03  0.46511359759E+03  0.17770000000E+01 0.  1.
         15    1    1    2    0    0 -0.89271938305E+02  0.69942618520E+02 -0.35263521849E+02  0.11877761808E+03  0.17770000000E+01 0. -1.
</event>
<event>
 7    1  0.2288857E-006  0.5153622E+03  0.7546771E-02  0.9366077E-01
        -11   -1    0    0    0    0  0.00000000000E+00  0.00000000000E+00  0.50000000000E+03  0.50000000000E+03  0.00000000000E+00 0. -1.
         11   -1    0    0    0    0 -0.00000000000E+00 -0.00000000000E+00 -0.50000000000E+03  0.50000000000E+03  0.00000000000E+00 0.  1.
         23    2    1    2    0    0 -0.54871057711E+02  0.41232306788E+01 -0.12461241910E+03  0.16424435729E+03  0.91761211319E+02 0.  0.
        -11    1    1    2    0    0  0.13898328066E+03 -0.72341982422E+02  0.45861103550E+03  0.48463779940E+03  0.00000000000E+00 0. -1.
         11    1    1    2    0    0 -0.84112222952E+02  0.68218751743E+02 -0.33399861639E+03  0.35111784331E+03  0.00000000000E+00 0.  1.
        -15    1    3    3    0    0 -0.64932943592E+02 -0.70869936689E+01 -0.36520186223E+02  0.74855823912E+02  0.17770000000E+01 0. -1.
         15    1    3    3    0    0  0.10061885881E+02  0.11210224348E+02 -0.88092232881E+02  0.89388533383E+02  0.17770000000E+01 0.  1.
</event>
<event>
 7    1  0.2288857E-006  0.4827006E+03  0.7546771E-02  0.9439373E-01
        -11   -1    0    0    0    0  0.00000000000E+00  0.00000000000E+00  0.50000000000E+03  0.50000000000E+03  0.00000000000E+00 0. -1.
         11   -1    0    0    0    0 -0.00000000000E+00 -0.00000000000E+00 -0.50000000000E+03  0.50000000000E+03  0.00000000000E+00 0. -1.
         23    2    1    2    0    0 -0.65735697594E+02 -0.56590202085E+02  0.46854880193E+03  0.48505689751E+03  0.90656390431E+02 0.  0.
        -11    1    1    2    0    0  0.33736188716E+02 -0.25115673660E+02 -0.40776584791E+01  0.42255825529E+02  0.00000000000E+00 0. -1.
         11    1    1    2    0    0  0.31999508878E+02  0.81705875745E+02 -0.46447114345E+03  0.47268727696E+03  0.00000000000E+00 0. -1.
        -15    1    3    3    0    0  0.17671606051E+02 -0.29406965147E+02  0.86734088344E+02  0.93289951599E+02  0.17770000000E+01 0.  1.
         15    1    3    3    0    0 -0.83407303645E+02 -0.27183236938E+02  0.38181471359E+03  0.39176694591E+03  0.17770000000E+01 0. -1.
</event>
<event>
 7    1  0.2288857E-006  0.3165600E+03  0.7546771E-02  0.9941212E-01
        -11   -1    0    0    0    0  0.00000000000E+00  0.00000000000E+00  0.50000000000E+03  0.50000000000E+03  0.00000000000E+00 0.  1.
         11   -1    0    0    0    0 -0.00000000000E+00 -0.00000000000E+00 -0.50000000000E+03  0.50000000000E+03  0.00000000000E+00 0.  1.
         23    2    1    2    0    0  0.51149943281E+02 -0.23578835370E+03  0.16528882774E+03  0.30259493159E+03  0.77658429098E+02 0.  0.
        -11    1    1    2    0    0 -0.15064691214E+03  0.24650286558E+03  0.17833773603E+03  0.33950331806E+03  0.00000000000E+00 0.  1.
         11    1    1    2    0    0  0.99496968864E+02 -0.10714511882E+02 -0.34362656377E+03  0.35790175035E+03  0.00000000000E+00 0.  1.
        -15    1    3    3    0    0  0.40982975880E+02 -0.79448818494E+02  0.26431524264E+02  0.93238952568E+02  0.17770000000E+01 0. -1.
         15    1    3    3    0    0  0.10166967402E+02 -0.15633953521E+03  0.13885730348E+03  0.20935597902E+03  0.17770000000E+01 0.  1.
</event>
<event>
 7    1  0.2288857E-006  0.3847930E+03  0.7546771E-02  0.9702431E-01
        -11   -1    0    0    0    0  0.00000000000E+00  0.00000000000E+00  0.50000000000E+03  0.50000000000E+03  0.00000000000E+00 0.  1.
         11   -1    0    0    0    0 -0.00000000000E+00 -0.00000000000E+00 -0.50000000000E+03  0.50000000000E+03  0.00000000000E+00 0. -1.
         23    2    1    2    0    0 -0.12875710456E+03 -0.45571031085E+02  0.34782350185E+03  0.38171953524E+03  0.77932690810E+02 0.  0.
        -11    1    1    2    0    0  0.20004144490E+03 -0.46714244200E+02  0.43477123152E+02  0.20997395202E+03  0.00000000000E+00 0.  1.
         11    1    1    2    0    0 -0.71284340342E+02  0.92285275285E+02 -0.39130062501E+03  0.40830651274E+03  0.00000000000E+00 0. -1.
        -15    1    3    3    0    0 -0.32690396921E+02  0.89781876864E+01  0.16209416448E+03  0.16561082632E+03  0.17770000000E+01 0. -1.
         15    1    3    3    0    0 -0.96066707638E+02 -0.54549218772E+02  0.18572933737E+03  0.21610870893E+03  0.17770000000E+01 0.  1.
</event>
<event>
 7    1  0.2288857E-006  0.5203815E+03  0.7546771E-02  0.9355325E-01
        -11   -1    0    0    0    0  0.00000000000E+00  0.00000000000E+00  0.50000000000E+03  0.50000000000E+03  0.00000000000E+00 0. -1.
         11   -1    0    0    0    0 -0.00000000000E+00 -0.00000000000E+00 -0.50000000000E+03  0.50000000000E+03  0.00000000000E+00 0.  1.
         23    2    1    2    0    0 -0.43425800177E+02 -0.63543479994E+02  0.19977323584E+03  0.23316406532E+03  0.92371865990E+02 0.  0.
        -11    1    1    2    0    0 -0.52998083377E+02  0.83591449372E+02  0.26962474256E+03  0.28721738988E+03  0.00000000000E+00 0. -1.
         11    1    1    2    0    0  0.96423883554E+02 -0.20047969378E+02 -0.46939797840E+03  0.47961854480E+03  0.00000000000E+00 0.  1.
        -15    1    3    3    0    0 -0.24871942760E+02 -0.53926602385E+02  0.20338210023E+03  0.21188234567E+03  0.17770000000E+01 0. -1.
         15    1    3    3    0    0 -0.18553857417E+02 -0.96168776091E+01 -0.36088643940E+01  0.21281719649E+02  0.17770000000E+01 0.  1.
</event>
<event>
 6    1  0.2288857E-006  0.5261074E+03  0.7546771E-02  0.9343216E-01
        -11   -1    0    0    0    0  0.00000000000E+00  0.00000000000E+00  0.50000000000E+03  0.50000000000E+03  0.00000000000E+00 0.  1.
         11   -1    0    0    0    0 -0.00000000000E+00 -0.00000000000E+00 -0.50000000000E+03  0.50000000000E+03  0.00000000000E+00 0. -1.
        -11    1    1    2    0    0  0.23166463295E+03 -0.63290262317E+02  0.40853401224E+03  0.47389260241E+03  0.00000000000E+00 0.  1.
         11    1    1    2    0    0 -0.15986927610E+02  0.48141619441E+02 -0.67737548868E+02  0.84626076971E+02  0.00000000000E+00 0. -1.
        -15    1    1    2    0    0 -0.61237996713E+02  0.22853928939E+02  0.19997721535E+01  0.65418278233E+02  0.17770000000E+01 0.  1.
         15    1    1    2    0    0 -0.15443970862E+03 -0.77052860632E+01 -0.34279623552E+03  0.37606304239E+03  0.17770000000E+01 0. -1.
</event>
<event>
 7    1  0.2288857E-006  0.5163549E+03  0.7546771E-02  0.9363940E-01
        -11   -1    0    0    0    0  0.00000000000E+00  0.00000000000E+00  0.50000000000E+03  0.50000000000E+03  0.00000000000E+00 0.  1.
         11   -1    0    0    0    0 -0.00000000000E+00 -0.00000000000E+00 -0.50000000000E+03  0.50000000000E+03  0.00000000000E+00 0. -1.
         23    2    1    2    0    0  0.46490689211E+02  0.50177274255E+02  0.12086443509E+03  0.16606563902E+03  0.91051863020E+02 0.  0.
        -11    1    1    2    0    0  0.54087687801E+01  0.10998508189E+03  0.33253058999E+03  0.35028926090E+03  0.00000000000E+00 0.  1.
         11    1    1    2    0    0 -0.51899457991E+02 -0.16016235615E+03 -0.45339502508E+03  0.48364510008E+03  0.00000000000E+00 0. -1.
        -15    1    3    3    0    0  0.42758588273E+02 -0.40596084658E+01  0.98090019409E+02  0.10709615739E+03  0.17770000000E+01 0.  1.
         15    1    3    3    0    0  0.37321009374E+01  0.54236882720E+02  0.22774415676E+02  0.58969481624E+02  0.17770000000E+01 0. -1.
</event>
<event>
 7    1  0.2288857E-006  0.5328527E+03  0.7546771E-02  0.9329158E-01
        -11   -1    0    0    0    0  0.00000000000E+00  0.00000000000E+00  0.50000000000E+03  0.50000000000E+03  0.00000000000E+00 0. -1.
         11   -1    0    0    0    0 -0.00000000000E+00 -0.00000000000E+00 -0.50000000000E+03  0.50000000000E+03  0.00000000000E+00 0. -1.
         23    2    1    2    0    0  0.17417845552E+02  0.17352900193E+02  0.24247684480E+03  0.26022676871E+03  0.91205517371E+02 0.  0.
        -11    1    1    2    0    0 -0.18762524578E+03 -0.50192157534E+02  0.19131758980E+03  0.27262594466E+03  0.00000000000E+00 0. -1.
         11    1    1    2    0    0  0.17020740023E+03  0.32839257341E+02 -0.43379443460E+03  0.46714728663E+03  0.00000000000E+00 0. -1.
        -15    1    3    3    0    0  0.59816764913E+00  0.50806073126E+02  0.18292912076E+03  0.18986267622E+03  0.17770000000E+01 0.  1.
         15    1    3    3    0    0  0.16819677903E+02 -0.33453172933E+02  0.59547724042E+02  0.70364092488E+02  0.17770000000E+01 0. -1.
</event>
<event>
 7    1  0.2288857E-006  0.4734273E+03  0.7546771E-02  0.9461314E-01
        -11   -1    0    0    0    0  0.00000000000E+00  0.00000000000E+00  0.50000000000E+03  0.50000000000E+03  0.00000000000E+00 0. -1.
         11   -1    0    0    0    0 -0.00000000000E+00 -0.00000000000E+00 -0.50000000000E+03  0.50000000000E+03  0.00000000000E+00 0.  1.
         23    2    1    2    0    0 -0.11919891093E+03 -0.52869396907E+02  0.44776934920E+03  0.47544017308E+03  0.92425183817E+02 0.  0.
        -11    1    1    2    0    0  0.52534191607E+02 -0.29330304011E+02  0.42486626613E+01  0.60317154738E+02  0.00000000000E+00 0. -1.
         11    1    1    2    0    0  0.66664719320E+02  0.82199700918E+02 -0.45201801186E+03  0.46424267218E+03  0.00000000000E+00 0.  1.
        -15    1    3    3    0    0  0.72663084302E+01  0.13901443930E+02  0.30542141453E+02  0.34380656118E+02  0.17770000000E+01 0.  1.
         15    1    3    3    0    0 -0.12646521936E+03 -0.66770840837E+02  0.41722720774E+03  0.44105951696E+03  0.17770000000E+01 0. -1.
</event>
<event>
 7    1  0.2288857E-006  0.5130768E+03  0.7546771E-02  0.9371016E-01
        -11   -1    0    0    0    0  0.00000000000E+00  0.00000000000E+00  0.50000000000E+03  0.50000000000E+03  0.00000000000E+00 0.  1.
         11   -1    0    0    0    0 -0.00000000000E+00 -0.00000000000E+00 -0.50000000000E+03  0.50000000000E+03  0.00000000000E+00 0. -1.
         23    2    1    2    0    0 -0.96822530781E+02  0.19199099278E+02 -0.27925092543E+03  0.30928307013E+03  0.89060261810E+02 0.  0.
        -11    1    1    2    0    0  0.81149648813E+02  0.12519415242E+02  0.47995018138E+03  0.48692317450E+03  0.00000000000E+00 0.  1.
         11    1    1    2    0    0  0.15672881968E+02 -0.31718514520E+02 -0.20069925594E+03  0.20379375537E+03  0.00000000000E+00 0. -1.
        -15    1    3    3    0    0 -0.77973268917E+02 -0.22000604897E+02 -0.12901835818E+03  0.15235731606E+03  0.17770000000E+01 0.  1.
         15    1    3    3    0    0 -0.18849261864E+02  0.41199704176E+02 -0.15023256725E+03  0.15692575407E+03  0.17770000000E+01 0. -1.
</event>
<event>
 7    1  0.2288857E-006  0.5085311E+03  0.7546771E-02  0.9380921E-01
        -11   -1    0    0    0    0  0.00000000000E+00  0.00000000000E+00  0.50000000000E+03  0.50000000000E+03  0.00000000000E+00 0.  1.
         11   -1    0    0    0    0 -0.00000000000E+00 -0.00000000000E+00 -0.50000000000E+03  0.50000000000E+03  0.00000000000E+00 0. -1.
         23    2    1    2    0    0  0.28508268259E+02 -0.72316026941E+02  0.37511392929E+03  0.39392286964E+03  0.91773842493E+02 0.  0.
        -11    1    1    2    0    0  0.33604467006E+02 -0.52530564733E+02  0.96157793578E+02  0.11460820957E+03  0.00000000000E+00 0.  1.
         11    1    1    2    0    0 -0.62112735265E+02  0.12484659167E+03 -0.47127172287E+03  0.49146892080E+03  0.00000000000E+00 0. -1.
        -15    1    3    3    0    0  0.24156103748E+02 -0.86635865881E+02  0.36463130648E+03  0.37556415963E+03  0.17770000000E+01 0.  1.
         15    1    3    3    0    0  0.43521645102E+01  0.14319838939E+02  0.10482622809E+02  0.18358710007E+02  0.17770000000E+01 0. -1.
</event>
<event>
 7    1  0.2288857E-006  0.3636207E+03  0.7546771E-02  0.9770452E-01
        -11   -1    0    0    0    0  0.00000000000E+00  0.00000000000E+00  0.50000000000E+03  0.50000000000E+03  0.00000000000E+00 0.  1.
         11   -1    0    0    0    0 -0.00000000000E+00 -0.00000000000E+00 -0.50000000000E+03  0.50000000000E+03  0.00000000000E+00 0. -1.
         23    2    1    2    0    0 -0.43995678166E+02 -0.32532947571E+02 -0.21478391578E+03  0.23973275339E+03  0.91354530241E+02 0.  0.
        -11    1    1    2    0    0  0.17260976710E+03 -0.19226000499E+03  0.37524977797E+03  0.45559898715E+03  0.00000000000E+00 0.  1.
         11    1    1    2    0    0 -0.12861408894E+03  0.22479295256E+03 -0.16046586219E+03  0.30466825946E+03  0.00000000000E+00 0. -1.
        -15    1    3    3    0    0 -0.82202951272E+01 -0.52122480459E+02 -0.17475669636E+03  0.18255790006E+03  0.17770000000E+01 0.  1.
         15    1    3    3    0    0 -0.35775383039E+02  0.19589532887E+02 -0.40027219419E+02  0.57174853334E+02  0.17770000000E+01 0. -1.
</event>
<event>
 7    1  0.2288857E-006  0.4127049E+03  0.7546771E-02  0.9619589E-01
        -11   -1    0    0    0    0  0.00000000000E+00  0.00000000000E+00  0.50000000000E+03  0.50000000000E+03  0.00000000000E+00 0. -1.
         11   -1    0    0    0    0 -0.00000000000E+00 -0.00000000000E+00 -0.50000000000E+03  0.50000000000E+03  0.00000000000E+00 0.  1.
         23    2    1    2    0    0 -0.71008282976E+02 -0.92510327199E+01  0.36814007056E+03  0.38227978826E+03  0.74047060064E+02 0.  0.
        -11    1    1    2    0    0  0.12712651741E+03  0.71415063003E+02  0.76914418722E+02  0.16485475564E+03  0.00000000000E+00 0. -1.
         11    1    1    2    0    0 -0.56118234429E+02 -0.62164030283E+02 -0.44505448928E+03  0.45286545610E+03  0.00000000000E+00 0.  1.
        -15    1    3    3    0    0 -0.64434564923E+02  0.12405544939E+02  0.33922445985E+03  0.34551715238E+03  0.17770000000E+01 0. -1.
         15    1    3    3    0    0 -0.65737180527E+01 -0.21656577659E+02  0.28915610709E+02  0.36762635877E+02  0.17770000000E+01 0.  1.
</event>
<event>
 6    1  0.2288857E-006  0.5020701E+03  0.7546771E-02  0.9395190E-01
        -11   -1    0    0    0    0  0.00000000000E+00  0.00000000000E+00  0.50000000000E+03  0.50000000000E+03  0.00000000000E+00 0.  1.
         11   -1    0    0    0    0 -0.00000000000E+00 -0.00000000000E+00 -0.50000000000E+03  0.50000000000E+03  0.00000000000E+00 0. -1.
        -11    1    1    2    0    0  0.66284453978E+02  0.93546518020E+01 -0.63607358537E+02  0.92341942851E+02  0.00000000000E+00 0.  1.
         11    1    1    2    0    0  0.72181835860E+02  0.22221232009E+02 -0.39849418023E+03  0.40558798337E+03  0.00000000000E+00 0. -1.
        -15    1    1    2    0    0 -0.79595678389E+02  0.46658002966E+02  0.16253710047E+03  0.18690614762E+03  0.17770000000E+01 0.  1.
         15    1    1    2    0    0 -0.58870611448E+02 -0.78233886777E+02  0.29956443829E+03  0.31516392616E+03  0.17770000000E+01 0. -1.
</event>
<event>
 7    1  0.2288857E-006  0.4849102E+03  0.7546771E-02  0.9434222E-01
        -11   -1    0    0    0    0  0.00000000000E+00  0.00000000000E+00  0.50000000000E+03  0.50000000000E+03  0.00000000000E+00 0.  1.
         11   -1    0    0    0    0 -0.00000000000E+00 -0.00000000000E+00 -0.50000000000E+03  0.50000000000E+03  0.00000000000E+00 0.  1.
         23    2    1    2    0    0  0.83784433977E+01  0.54286294131E+02  0.48004704884E+03  0.49183818924E+03  0.91882725527E+02 0.  0.
        -11    1    1    2    0    0 -0.10660122712E+02  0.31928215071E+02 -0.18071975493E+02  0.38205306334E+02  0.00000000000E+00 0.  1.
         11    1    1    2    0    0  0.22816793144E+01 -0.86214509202E+02 -0.46197507335E+03  0.46995650443E+03  0.00000000000E+00 0.  1.
        -15    1    3    3    0    0  0.15932081327E+02  0.73298190690E+02  0.44448520118E+03  0.45077345504E+03  0.17770000000E+01 0.  1.
         15    1    3    3    0    0 -0.75536379292E+01 -0.19011896558E+02  0.35561847662E+02  0.41064734199E+02  0.17770000000E+01 0. -1.
</event>
<event>
 7    1  0.2288857E-006  0.5121591E+03  0.7546771E-02  0.9373006E-01
        -11   -1    0    0    0    0  0.00000000000E+00  0.00000000000E+00  0.50000000000E+03  0.50000000000E+03  0.00000000000E+00 0. -1.
         11   -1    0    0    0    0 -0.00000000000E+00 -0.00000000000E+00 -0.50000000000E+03  0.50000000000E+03  0.00000000000E+00 0.  1.
         23    2    1    2    0    0 -0.61068174192E+01 -0.90412214917E+02  0.37243461482E+03  0.39310784571E+03  0.87261527684E+02 0.  0.
        -11    1    1    2    0    0  0.59302897723E+02 -0.43363390871E+02  0.93680202096E+02  0.11905123943E+03  0.00000000000E+00 0. -1.
         11    1    1    2    0    0 -0.53196080304E+02  0.13377560579E+03 -0.46611481692E+03  0.48784091486E+03  0.00000000000E+00 0.  1.
        -15    1    3    3    0    0  0.34354761568E+02 -0.10163678929E+02  0.11087801339E+03  0.11653600986E+03  0.17770000000E+01 0.  1.
         15    1    3    3    0    0 -0.40461578987E+02 -0.80248535988E+02  0.26155660143E+03  0.27657183585E+03  0.17770000000E+01 0. -1.
</event>
<event>
 7    1  0.2288857E-006  0.5218859E+03  0.7546771E-02  0.9352127E-01
        -11   -1    0    0    0    0  0.00000000000E+00  0.00000000000E+00  0.50000000000E+03  0.50000000000E+03  0.00000000000E+00 0.  1.
         11   -1    0    0    0    0 -0.00000000000E+00 -0.00000000000E+00 -0.50000000000E+03  0.50000000000E+03  0.00000000000E+00 0. -1.
         23    2    1    2    0    0 -0.41346338161E+02  0.66978030368E+02  0.35425406503E+03  0.37400714002E+03  0.90497635121E+02 0.  0.
        -11    1    1    2    0    0 -0.72671440265E+02 -0.66876577878E+02  0.11006591967E+03  0.14787873942E+03  0.00000000000E+00 0.  1.
         11    1    1    2    0    0  0.11401777843E+03 -0.10145248993E+00 -0.46431998470E+03  0.47811412056E+03  0.00000000000E+00 0. -1.
        -15    1    3    3    0    0 -0.65012796402E+02  0.28151874542E+02  0.25770350248E+03  0.26727035873E+03  0.17770000000E+01 0.  1.
         15    1    3    3    0    0  0.23666458241E+02  0.38826155825E+02  0.96550562546E+02  0.10673678128E+03  0.17770000000E+01 0. -1.
</event>
<event>
 7    1  0.2288857E-006  0.5147163E+03  0.7546771E-02  0.9367470E-01
        -11   -1    0    0    0    0  0.00000000000E+00  0.00000000000E+00  0.50000000000E+03  0.50000000000E+03  0.00000000000E+00 0. -1.
         11   -1    0    0    0    0 -0.00000000000E+00 -0.00000000000E+00 -0.50000000000E+03  0.50000000000E+03  0.00000000000E+00 0. -1.
         23    2    1    2    0    0 -0.36625821382E+02  0.93545302592E+01 -0.60513196393E+02  0.93689701563E+02  0.60720303137E+02 0.  0.
        -11    1    1    2    0    0  0.10377497230E+03  0.61850058359E+02  0.47000593840E+03  0.48528368685E+03  0.00000000000E+00 0. -1.
         11    1    1    2    0    0 -0.67149150914E+02 -0.71204588618E+02 -0.40949274201E+03  0.42102661159E+03  0.00000000000E+00 0. -1.
        -15    1    3    3    0    0 -0.21953118532E+02 -0.24947539326E+02 -0.21175707695E+02  0.39444739283E+02  0.17770000000E+01 0. -1.
         15    1    3    3    0    0 -0.14672702850E+02  0.34302069585E+02 -0.39337488698E+02  0.54244962280E+02  0.17770000000E+01 0.  1.
</event>
<event>
 7    1  0.2288857E-006  0.4575865E+03  0.7546771E-02  0.9500058E-01
        -11   -1    0    0    0    0  0.00000000000E+00  0.00000000000E+00  0.50000000000E+03  0.50000000000E+03  0.00000000000E+00 0.  1.
         11   -1    0    0    0    0 -0.00000000000E+00 -0.00000000000E+00 -0.50000000000E+03  0.50000000000E+03  0.00000000000E+00 0. -1.
         23    2    1    2    0    0  0.44353415288E+02  0.95747758916E+02 -0.39926281495E+03  0.42293642052E+03  0.91266432034E+02 0.  0.
        -11    1    1    2    0    0 -0.11749400302E+01 -0.96728905355E+02  0.47776759753E+03  0.48746255124E+03  0.00000000000E+00 0.  1.
         11    1    1    2    0    0 -0.43178475258E+02  0.98114643923E+00 -0.78504782574E+02  0.89601028236E+02  0.00000000000E+00 0. -1.
        -15    1    3    3    0    0  0.40699576496E+01  0.84600362033E+02 -0.17058180641E+03  0.19046022214E+03  0.17770000000E+01 0.  1.
         15    1    3    3    0    0  0.40283457639E+02  0.11147396883E+02 -0.22868100855E+03  0.23247619838E+03  0.17770000000E+01 0. -1.
</event>
<event>
 7    1  0.2288857E-006  0.5222355E+03  0.7546771E-02  0.9351386E-01
        -11   -1    0    0    0    0  0.00000000000E+00  0.00000000000E+00  0.50000000000E+03  0.50000000000E+03  0.00000000000E+00 0.  1.
         11   -1    0    0    0    0 -0.00000000000E+00 -0.00000000000E+00 -0.50000000000E+03  0.50000000000E+03  0.00000000000E+00 0. -1.
         23    2    1    2    0    0 -0.15586214224E+02  0.28980764328E+02 -0.12085180286E+03  0.15461872282E+03  0.90658570557E+02 0.  0.
        -11    1    1    2    0    0  0.20784200499E+02  0.89282258301E+02  0.46888762917E+03  0.47776449577E+03  0.00000000000E+00 0.  1.
         11    1    1    2    0    0 -0.51979862745E+01 -0.11826302263E+03 -0.34803582630E+03  0.36761678141E+03  0.00000000000E+00 0. -1.
        -15    1    3    3    0    0 -0.41105734694E+02  0.48130305269E+02 -0.91197939657E+02  0.11102445513E+03  0.17770000000E+01 0. -1.
         15    1    3    3    0    0  0.25519520469E+02 -0.19149540940E+02 -0.29653863207E+02  0.43594267688E+02  0.17770000000E+01 0.  1.
</event>
<event>
 7    1  0.2288857E-006  0.4213017E+03  0.7546771E-02  0.9595474E-01
        -11   -1    0    0    0    0  0.00000000000E+00  0.00000000000E+00  0.50000000000E+03  0.50000000000E+03  0.00000000000E+00 0.  1.
         11   -1    0    0    0    0 -0.00000000000E+00 -0.00000000000E+00 -0.50000000000E+03  0.50000000000E+03  0.00000000000E+00 0. -1.
         23    2    1    2    0    0 -0.17705747463E+03  0.10644755008E+03  0.41768828059E+03  0.47535950916E+03  0.93929404165E+02 0.  0.
        -11    1    1    2    0    0  0.13168777196E+03 -0.59683188145E+02 -0.52706739702E+02  0.15388876711E+03  0.00000000000E+00 0.  1.
         11    1    1    2    0    0  0.45369702666E+02 -0.46764361936E+02 -0.36498154088E+03  0.37075172374E+03  0.00000000000E+00 0. -1.
        -15    1    3    3    0    0 -0.17929874810E+03  0.94725747744E+02  0.41648736993E+03  0.46323416907E+03  0.17770000000E+01 0.  1.
         15    1    3    3    0    0  0.22412734696E+01  0.11721802338E+02  0.12009106574E+01  0.12125340087E+02  0.17770000000E+01 0. -1.
</event>
<event>
 7    1  0.2288857E-006  0.5332159E+03  0.7546771E-02  0.9328408E-01
        -11   -1    0    0    0    0  0.00000000000E+00  0.00000000000E+00  0.50000000000E+03  0.50000000000E+03  0.00000000000E+00 0. -1.
         11   -1    0    0    0    0 -0.00000000000E+00 -0.00000000000E+00 -0.50000000000E+03  0.50000000000E+03  0.00000000000E+00 0.  1.
         23    2    1    2    0    0  0.39586386453E+01 -0.11613971502E+03 -0.87572272364E+02  0.17477037907E+03  0.96807428899E+02 0.  0.
        -11    1    1    2    0    0  0.53421227990E+02  0.14600201537E+03  0.44013289791E+03  0.46678408704E+03  0.00000000000E+00 0. -1.
         11    1    1    2    0    0 -0.57379866636E+02 -0.29862300347E+02 -0.35256062555E+03  0.35844553389E+03  0.00000000000E+00 0.  1.
        -15    1    3    3    0    0  0.38855360654E+02 -0.10232556167E+03 -0.46018348716E+02  0.11874807692E+03  0.17770000000E+01 0. -1.
         15    1    3    3    0    0 -0.34896722009E+02 -0.13814153344E+02 -0.41553923648E+02  0.56022302158E+02  0.17770000000E+01 0.  1.
</event>
<event>
 7    1  0.2288857E-006  0.5140459E+03  0.7546771E-02  0.9368918E-01
        -11   -1    0    0    0    0  0.00000000000E+00  0.00000000000E+00  0.50000000000E+03  0.50000000000E+03  0.00000000000E+00 0.  1.
         11   -1    0    0    0    0 -0.00000000000E+00 -0.00000000000E+00 -0.50000000000E+03  0.50000000000E+03  0.00000000000E+00 0. -1.
         23    2    1    2    0    0 -0.58386079605E+02 -0.30700080524E+02 -0.15138602001E+03  0.18927841498E+03  0.92504930076E+02 0.  0.
        -11    1    1    2    0    0  0.92681711116E+02  0.12179216018E+03  0.46122462718E+03  0.48595409925E+03  0.00000000000E+00 0.  1.
         11    1    1    2    0    0 -0.34295631511E+02 -0.91092079654E+02 -0.30983860717E+03  0.32476748577E+03  0.00000000000E+00 0. -1.
        -15    1    3    3    0    0 -0.16955445097E+02 -0.31286570858E+02 -0.36324085557E+01  0.35814644427E+02  0.17770000000E+01 0.  1.
         15    1    3    3    0    0 -0.41430634509E+02  0.58649033446E+00 -0.14775361145E+03  0.15346377056E+03  0.17770000000E+01 0. -1.
</event>
<event>
 7    1  0.2288857E-006  0.5325532E+03  0.7546771E-02  0.9329778E-01
        -11   -1    0    0    0    0  0.00000000000E+00  0.00000000000E+00  0.50000000000E+03  0.50000000000E+03  0.00000000000E+00 0.  1.
         11   -1    0    0    0    0 -0.00000000000E+00 -0.00000000000E+00 -0.50000000000E+03  0.50000000000E+03  0.00000000000E+00 0. -1.
         23    2    1    2    0    0  0.58372541244E+01  0.87339070487E+02  0.35443695150E+03  0.37605539875E+03  0.90166088788E+02 0.  0.
        -11    1    1    2    0    0 -0.11948657895E+03 -0.32594156154E+02  0.95666772702E+02  0.15649777303E+03  0.00000000000E+00 0.  1.
         11    1    1    2    0    0  0.11364932482E+03 -0.54744914333E+02 -0.45010372420E+03  0.46744682823E+03  0.00000000000E+00 0. -1.
        -15    1    3    3    0    0  0.29050461579E+02  0.95290972943E+02  0.30450831470E+03  0.32039471015E+03  0.17770000000E+01 0. -1.
         15    1    3    3    0    0 -0.23213207454E+02 -0.79519024566E+01  0.49928636798E+02  0.55660688592E+02  0.17770000000E+01 0.  1.
</event>
<event>
 7    1  0.2288857E-006  0.4126006E+03  0.7546771E-02  0.9619886E-01
        -11   -1    0    0    0    0  0.00000000000E+00  0.00000000000E+00  0.50000000000E+03  0.50000000000E+03  0.00000000000E+00 0.  1.
         11   -1    0    0    0    0 -0.00000000000E+00 -0.00000000000E+00 -0.50000000000E+03  0.50000000000E+03  0.00000000000E+00 0.  1.
         23    2    1    2    0    0 -0.63723907541E+02 -0.11019753998E+03  0.40442327064E+02  0.16405938817E+03  0.95266294245E+02 0.  0.
        -11    1    1    2    0    0  0.84577764431E+02  0.79682439453E+01  0.38686372444E+03  0.39608134573E+03  0.00000000000E+00 0.  1.
         11    1    1    2    0    0 -0.20853856890E+02  0.10222929603E+03 -0.42730605151E+03  0.43985926610E+03  0.00000000000E+00 0.  1.
        -15    1    3    3    0    0  0.16548001906E+02 -0.20819093145E+02 -0.16241568408E+02  0.31212453922E+02  0.17770000000E+01 0. -1.
         15    1    3    3    0    0 -0.80271909447E+02 -0.89378446831E+02  0.56683895472E+02  0.13284693425E+03  0.17770000000E+01 0.  1.
</event>
<event>
 7    1  0.2288857E-006  0.5145385E+03  0.7546771E-02  0.9367854E-01
        -11   -1    0    0    0    0  0.00000000000E+00  0.00000000000E+00  0.50000000000E+03  0.50000000000E+03  0.00000000000E+00 0. -1.
         11   -1    0    0    0    0 -0.00000000000E+00 -0.00000000000E+00 -0.50000000000E+03  0.50000000000E+03  0.00000000000E+00 0. -1.
         23    2    1    2    0    0  0.34082429815E+02 -0.10355544387E+03 -0.15693818961E+03  0.21256352966E+03  0.93103795861E+02 0.  0.
        -11    1    1    2    0    0 -0.24011830058E+02  0.18991798077E+03  0.44612494037E+03  0.48546150189E+03  0.00000000000E+00 0. -1.
         11    1    1    2    0    0 -0.10070599757E+02 -0.86362536896E+02 -0.28918675075E+03  0.30197496845E+03  0.00000000000E+00 0. -1.
        -15    1    3    3    0    0 -0.20721314204E+02 -0.47440592396E+02 -0.10883816937E+03  0.12053583496E+03  0.17770000000E+01 0.  1.
         15    1    3    3    0    0  0.54803744019E+02 -0.56114851475E+02 -0.48100020247E+02  0.92027694697E+02  0.17770000000E+01 0. -1.
</event>
<event>
 7    1  0.2288857E-006  0.4153969E+03  0.7546771E-02  0.9611971E-01
        -11   -1    0    0    0    0  0.00000000000E+00  0.00000000000E+00  0.50000000000E+03  0.50000000000E+03  0.00000000000E+00 0. -1.
         11   -1    0    0    0    0 -0.00000000000E+00 -0.00000000000E+00 -0.50000000000E+03  0.50000000000E+03  0.00000000000E+00 0. -1.
         23    2    1    2    0    0 -0.40903568753E+01 -0.87664679832E+02  0.94842255120E+02  0.15921745360E+03  0.93023207126E+02 0.  0.
        -11    1    1    2    0    0  0.10785497661E+03  0.10739905810E+03  0.35100967433E+03  0.38258991771E+03  0.00000000000E+00 0. -1.
         11    1    1    2    0    0 -0.10376461973E+03 -0.19734378270E+02 -0.44585192945E+03  0.45819262869E+03  0.00000000000E+00 0. -1.
        -15    1    3    3    0    0 -0.64036392026E+01 -0.10640906051E+03  0.68388733933E+02  0.12666519416E+03  0.17770000000E+01 0.  1.
         15    1    3    3    0    0  0.23132823273E+01  0.18744380679E+02  0.26453521187E+02  0.32552259436E+02  0.17770000000E+01 0. -1.
</event>
<event>
 7    1  0.2288857E-006  0.4162422E+03  0.7546771E-02  0.9609591E-01
        -11   -1    0    0    0    0  0.00000000000E+00  0.00000000000E+00  0.50000000000E+03  0.50000000000E+03  0.00000000000E+00 0.  1.
         11   -1    0    0    0    0 -0.00000000000E+00 -0.00000000000E+00 -0.50000000000E+03  0.50000000000E+03  0.00000000000E+00 0. -1.
         23    2    1    2    0    0  0.10622866754E+03 -0.14513508839E+02  0.71036465153E+02  0.15763915585E+03  0.91152357773E+02 0.  0.
        -11    1    1    2    0    0 -0.16834506439E+03  0.71669362109E+02  0.35963129242E+03  0.40349872944E+03  0.00000000000E+00 0.  1.
         11    1    1    2    0    0  0.62116396851E+02 -0.57155853271E+02 -0.43066775757E+03  0.43886211472E+03  0.00000000000E+00 0. -1.
        -15    1    3    3    0    0  0.50631731698E+02 -0.50677525594E+02  0.21421178718E+02  0.74791767473E+02  0.17770000000E+01 0. -1.
         15    1    3    3    0    0  0.55596935845E+02  0.36164016755E+02  0.49615286435E+02  0.82847388373E+02  0.17770000000E+01 0.  1.
</event>
<event>
 7    1  0.2288857E-006  0.5127071E+03  0.7546771E-02  0.9371817E-01
        -11   -1    0    0    0    0  0.00000000000E+00  0.00000000000E+00  0.50000000000E+03  0.50000000000E+03  0.00000000000E+00 0.  1.
         11   -1    0    0    0    0 -0.00000000000E+00 -0.00000000000E+00 -0.50000000000E+03  0.50000000000E+03  0.00000000000E+00 0.  1.
         23    2    1    2    0    0  0.23054645846E+02 -0.33237366448E+03  0.17013911900E+03  0.38420069089E+03  0.87516178684E+02 0.  0.
        -11    1    1    2    0    0 -0.61779680141E+02  0.45474461213E+03 -0.16384432457E+03  0.48729288302E+03  0.00000000000E+00 0.  1.
         11    1    1    2    0    0  0.38725034296E+02 -0.12237094766E+03 -0.62947944247E+01  0.12850642610E+03  0.00000000000E+00 0.  1.
        -15    1    3    3    0    0 -0.17715956587E+02 -0.13384294746E+02  0.16944773083E+02  0.27987095732E+02  0.17770000000E+01 0. -1.
         15    1    3    3    0    0  0.40770602433E+02 -0.31898936973E+03  0.15319434591E+03  0.35621359516E+03  0.17770000000E+01 0.  1.
</event>
<event>
 6    1  0.2288857E-006  0.3545943E+03  0.7546771E-02  0.9800977E-01
        -11   -1    0    0    0    0  0.00000000000E+00  0.00000000000E+00  0.50000000000E+03  0.50000000000E+03  0.00000000000E+00 0.  1.
         11   -1    0    0    0    0 -0.00000000000E+00 -0.00000000000E+00 -0.50000000000E+03  0.50000000000E+03  0.00000000000E+00 0.  1.
        -11    1    1    2    0    0 -0.18124236494E+03  0.17729410515E+03  0.95774113101E+02  0.27102523002E+03  0.00000000000E+00 0.  1.
         11    1    1    2    0    0  0.11197704309E+03 -0.19012714907E+03 -0.35746332621E+03  0.42008001687E+03  0.00000000000E+00 0.  1.
        -15    1    1    2    0    0  0.10058432294E+03  0.52448634111E+02  0.17517990427E+03  0.20870846133E+03  0.17770000000E+01 0.  1.
         15    1    1    2    0    0 -0.31319001095E+02 -0.39615590188E+02  0.86509308832E+02  0.10018629177E+03  0.17770000000E+01 0. -1.
</event>
<event>
 7    1  0.2288857E-006  0.5168902E+03  0.7546771E-02  0.9362790E-01
        -11   -1    0    0    0    0  0.00000000000E+00  0.00000000000E+00  0.50000000000E+03  0.50000000000E+03  0.00000000000E+00 0.  1.
         11   -1    0    0    0    0 -0.00000000000E+00 -0.00000000000E+00 -0.50000000000E+03  0.50000000000E+03  0.00000000000E+00 0.  1.
         23    2    1    2    0    0  0.12750400418E+02 -0.15520282936E+02  0.21382931755E+03  0.23307632245E+03  0.90543598047E+02 0.  0.
        -11    1    1    2    0    0 -0.11375012767E+03  0.28841479957E+02  0.25841709763E+03  0.28381388066E+03  0.00000000000E+00 0.  1.
         11    1    1    2    0    0  0.10099972725E+03 -0.13321197021E+02 -0.47224641518E+03  0.48310979689E+03  0.00000000000E+00 0.  1.
        -15    1    3    3    0    0  0.29630734730E+02  0.13718511251E+02  0.24783460610E+02  0.41031154510E+02  0.17770000000E+01 0. -1.
         15    1    3    3    0    0 -0.16880334312E+02 -0.29238794187E+02  0.18904585694E+03  0.19204516794E+03  0.17770000000E+01 0.  1.
</event>
<event>
 7    1  0.2288857E-006  0.4840768E+03  0.7546771E-02  0.9436161E-01
        -11   -1    0    0    0    0  0.00000000000E+00  0.00000000000E+00  0.50000000000E+03  0.50000000000E+03  0.00000000000E+00 0.  1.
         11   -1    0    0    0    0 -0.00000000000E+00 -0.00000000000E+00 -0.50000000000E+03  0.50000000000E+03  0.00000000000E+00 0. -1.
         23    2    1    2    0    0  0.12726993509E+03  0.89714475103E+02  0.44400696973E+03  0.47931312533E+03  0.91392338384E+02 0.  0.
        -11    1    1    2    0    0 -0.33827517612E+02 -0.52520227824E+01  0.20163612300E+02  0.39729786711E+02  0.00000000000E+00 0.  1.
         11    1    1    2    0    0 -0.93442417478E+02 -0.84462452321E+02 -0.46417058203E+03  0.48095708796E+03  0.00000000000E+00 0. -1.
        -15    1    3    3    0    0  0.12904226896E+03  0.46432444758E+02  0.33281211493E+03  0.35996519371E+03  0.17770000000E+01 0.  1.
         15    1    3    3    0    0 -0.17723338738E+01  0.43282030345E+02  0.11119485480E+03  0.11934793162E+03  0.17770000000E+01 0. -1.
</event>
<event>
 7    1  0.2288857E-006  0.5350186E+03  0.7546771E-02  0.9324691E-01
        -11   -1    0    0    0    0  0.00000000000E+00  0.00000000000E+00  0.50000000000E+03  0.50000000000E+03  0.00000000000E+00 0.  1.
         11   -1    0    0    0    0 -0.00000000000E+00 -0.00000000000E+00 -0.50000000000E+03  0.50000000000E+03  0.00000000000E+00 0.  1.
         23    2    1    2    0    0 -0.34815544289E+01  0.12850167087E+03  0.16223619032E+03  0.23511825916E+03  0.11151328934E+03 0.  0.
        -11    1    1    2    0    0  0.93637563355E+02 -0.30501991868E+02  0.28326990203E+03  0.29990032040E+03  0.00000000000E+00 0.  1.
         11    1    1    2    0    0 -0.90156008926E+02 -0.97999679005E+02 -0.44550609236E+03  0.46498142044E+03  0.00000000000E+00 0.  1.
        -15    1    3    3    0    0 -0.35776895132E+02  0.78167202878E+02  0.15169053681E+03  0.17436534782E+03  0.17770000000E+01 0.  1.
         15    1    3    3    0    0  0.32295340703E+02  0.50334467995E+02  0.10545653510E+02  0.60752911341E+02  0.17770000000E+01 0. -1.
</event>
<event>
 7    1  0.2288857E-006  0.5121700E+03  0.7546771E-02  0.9372983E-01
        -11   -1    0    0    0    0  0.00000000000E+00  0.00000000000E+00  0.50000000000E+03  0.50000000000E+03  0.00000000000E+00 0. -1.
         11   -1    0    0    0    0 -0.00000000000E+00 -0.00000000000E+00 -0.50000000000E+03  0.50000000000E+03  0.00000000000E+00 0.  1.
         23    2    1    2    0    0 -0.56351072276E+02  0.11446066915E+02 -0.27174675116E+03  0.29578297474E+03  0.10166029502E+03 0.  0.
        -11    1    1    2    0    0  0.70698383937E+02 -0.82807780625E+02  0.47552361448E+03  0.48782998878E+03  0.00000000000E+00 0. -1.
         11    1    1    2    0    0 -0.14347311661E+02  0.71361713710E+02 -0.20377686332E+03  0.21638703649E+03  0.00000000000E+00 0.  1.
        -15    1    3    3    0    0 -0.13460120333E+02 -0.43522003333E+02 -0.85311546283E+02  0.96729298932E+02  0.17770000000E+01 0. -1.
         15    1    3    3    0    0 -0.42890951943E+02  0.54968070248E+02 -0.18643520488E+03  0.19905367580E+03  0.17770000000E+01 0.  1.
</event>
<event>
 7    1  0.2288857E-006  0.4397796E+03  0.7546771E-02  0.9545657E-01
        -11   -1    0    0    0    0  0.00000000000E+00  0.00000000000E+00  0.50000000000E+03  0.50000000000E+03  0.00000000000E+00 0. -1.
         11   -1    0    0    0    0 -0.00000000000E+00 -0.00000000000E+00 -0.50000000000E+03  0.50000000000E+03  0.00000000000E+00 0.  1.
         23    2    1    2    0    0  0.89407607425E+02  0.70934930602E+02 -0.38949801733E+03  0.41657698223E+03  0.93819997724E+02 0.  0.
        -11    1    1    2    0    0  0.92756553510E+01 -0.11394500810E+03  0.44699407042E+03  0.46138183931E+03  0.00000000000E+00 0. -1.
         11    1    1    2    0    0 -0.98683262776E+02  0.43010077498E+02 -0.57496053094E+02  0.12204117846E+03  0.00000000000E+00 0.  1.
        -15    1    3    3    0    0 -0.11709220732E+01  0.54577862567E+02 -0.12163594853E+03  0.13333632605E+03  0.17770000000E+01 0. -1.
         15    1    3    3    0    0  0.90578529498E+02  0.16357068035E+02 -0.26786206880E+03  0.28324065617E+03  0.17770000000E+01 0.  1.
</event>
<event>
 7    1  0.2288857E-006  0.5157198E+03  0.7546771E-02  0.9365307E-01
        -11   -1    0    0    0    0  0.00000000000E+00  0.00000000000E+00  0.50000000000E+03  0.50000000000E+03  0.00000000000E+00 0.  1.
         11   -1    0    0    0    0 -0.00000000000E+00 -0.00000000000E+00 -0.50000000000E+03  0.50000000000E+03  0.00000000000E+00 0.  1.
         23    2    1    2    0    0 -0.49672494086E+01  0.22622711051E+02  0.32391004178E+03  0.33736885539E+03  0.91452549428E+02 0.  0.
        -11    1    1    2    0    0 -0.10598666569E+01  0.10704922692E+03  0.14264778034E+03  0.17835091684E+03  0.00000000000E+00 0.  1.
         11    1    1    2    0    0  0.60271160655E+01 -0.12967193797E+03 -0.46655782212E+03  0.48428022777E+03  0.00000000000E+00 0.  1.
        -15    1    3    3    0    0  0.21986654335E+02  0.48033578683E+02  0.13758182415E+03  0.14738573105E+03  0.17770000000E+01 0.  1.
         15    1    3    3    0    0 -0.26953903743E+02 -0.25410867633E+02  0.18632821762E+03  0.18998312434E+03  0.17770000000E+01 0. -1.
</event>
<event>
 7    1  0.2398020E-006  0.5169323E+03  0.7546771E-02  0.9362700E-01
        -11   -1    0    0    0    0  0.00000000000E+00  0.00000000000E+00  0.50000000000E+03  0.50000000000E+03  0.00000000000E+00 0. -1.
         11   -1    0    0    0    0 -0.00000000000E+00 -0.00000000000E+00 -0.50000000000E+03  0.50000000000E+03  0.00000000000E+00 0.  1.
         23    2    1    2    0    0 -0.22321507408E+02 -0.59608848334E+02 -0.40700812594E+03  0.42185077097E+03  0.90834981675E+02 0.  0.
        -11    1    1    2    0    0  0.83370594052E+02  0.10492144361E+03  0.46410693164E+03  0.48306770673E+03  0.00000000000E+00 0. -1.
         11    1    1    2    0    0 -0.61049086644E+02 -0.45312595273E+02 -0.57098805706E+02  0.95081522303E+02  0.00000000000E+00 0.  1.
        -15    1    3    3    0    0 -0.53549982659E+02 -0.28243859920E+02 -0.16374976688E+03  0.17459226829E+03  0.17770000000E+01 0. -1.
         15    1    3    3    0    0  0.31228475251E+02 -0.31364988413E+02 -0.24325835906E+03  0.24725850268E+03  0.17770000000E+01 0.  1.
</event>
<event>
 7    1  0.2288857E-006  0.4923264E+03  0.7546771E-02  0.9417146E-01
        -11   -1    0    0    0    0  0.00000000000E+00  0.00000000000E+00  0.50000000000E+03  0.50000000000E+03  0.00000000000E+00 0.  1.
         11   -1    0    0    0    0 -0.00000000000E+00 -0.00000000000E+00 -0.50000000000E+03  0.50000000000E+03  0.00000000000E+00 0. -1.
         23    2    1    2    0    0 -0.64385094474E+02 -0.71402590330E+02  0.46615115873E+03  0.48732261999E+03  0.10460718366E+03 0.  0.
        -11    1    1    2    0    0 -0.52157762740E+01  0.22312401499E+02  0.12776604225E+02  0.26235266309E+02  0.00000000000E+00 0.  1.
         11    1    1    2    0    0  0.69600870748E+02  0.49090188831E+02 -0.47892776296E+03  0.48644211370E+03  0.00000000000E+00 0. -1.
        -15    1    3    3    0    0  0.24250638796E+02  0.32240038272E+01  0.11349187854E+03  0.11611223840E+03  0.17770000000E+01 0.  1.
         15    1    3    3    0    0 -0.88635733270E+02 -0.74626594157E+02  0.35265928019E+03  0.37121038159E+03  0.17770000000E+01 0. -1.
</event>
<event>
 7    1  0.2288857E-006  0.3187273E+03  0.7546771E-02  0.9932664E-01
        -11   -1    0    0    0    0  0.00000000000E+00  0.00000000000E+00  0.50000000000E+03  0.50000000000E+03  0.00000000000E+00 0.  1.
         11   -1    0    0    0    0 -0.00000000000E+00 -0.00000000000E+00 -0.50000000000E+03  0.50000000000E+03  0.00000000000E+00 0. -1.
         23    2    1    2    0    0 -0.17903927266E+03  0.17615939380E+03  0.13674845099E+03  0.30133295987E+03  0.94943249782E+02 0.  0.
        -11    1    1    2    0    0  0.84378669987E+02 -0.15600339012E+03  0.24633781875E+03  0.30354429433E+03  0.00000000000E+00 0.  1.
         11    1    1    2    0    0  0.94660602668E+02 -0.20156003680E+02 -0.38308626974E+03  0.39512274580E+03  0.00000000000E+00 0. -1.
        -15    1    3    3    0    0 -0.49771227294E+02  0.13464144234E+02 -0.17205548473E+01  0.51619533941E+02  0.17770000000E+01 0. -1.
         15    1    3    3    0    0 -0.12926804536E+03  0.16269524956E+03  0.13846900584E+03  0.24971342593E+03  0.17770000000E+01 0.  1.
</event>
<event>
 7    1  0.2288857E-006  0.5154413E+03  0.7546771E-02  0.9365906E-01
        -11   -1    0    0    0    0  0.00000000000E+00  0.00000000000E+00  0.50000000000E+03  0.50000000000E+03  0.00000000000E+00 0. -1.
         11   -1    0    0    0    0 -0.00000000000E+00 -0.00000000000E+00 -0.50000000000E+03  0.50000000000E+03  0.00000000000E+00 0.  1.
         23    2    1    2    0    0 -0.45590576594E+02 -0.13770463098E+01  0.21043227642E+03  0.23254119781E+03  0.87825217278E+02 0.  0.
        -11    1    1    2    0    0  0.41969539356E+02  0.82896218946E+02  0.26720635228E+03  0.28290008846E+03  0.00000000000E+00 0. -1.
         11    1    1    2    0    0  0.36210372380E+01 -0.81519172636E+02 -0.47763862871E+03  0.48455871373E+03  0.00000000000E+00 0.  1.
        -15    1    3    3    0    0  0.11363344092E+02 -0.80540015594E+00 -0.27676673861E+01  0.11857148482E+02  0.17770000000E+01 0.  1.
         15    1    3    3    0    0 -0.56953920686E+02 -0.57164615390E+00  0.21319994381E+03  0.22068404933E+03  0.17770000000E+01 0. -1.
</event>
<event>
 7    1  0.2288857E-006  0.3831568E+03  0.7546771E-02  0.9707519E-01
        -11   -1    0    0    0    0  0.00000000000E+00  0.00000000000E+00  0.50000000000E+03  0.50000000000E+03  0.00000000000E+00 0. -1.
         11   -1    0    0    0    0 -0.00000000000E+00 -0.00000000000E+00 -0.50000000000E+03  0.50000000000E+03  0.00000000000E+00 0. -1.
         23    2    1    2    0    0 -0.13395318439E+02 -0.41320845219E+02  0.43840178129E+03  0.45180429317E+03  0.10022051027E+03 0.  0.
        -11    1    1    2    0    0  0.15923422470E+03 -0.15211016830E+02 -0.14591700423E+03  0.21651486202E+03  0.00000000000E+00 0. -1.
         11    1    1    2    0    0 -0.14583890626E+03  0.56531862048E+02 -0.29248477706E+03  0.33168084482E+03  0.00000000000E+00 0. -1.
        -15    1    3    3    0    0  0.13961415205E+02  0.29790416765E+02  0.13979544421E+03  0.14362560355E+03  0.17770000000E+01 0.  1.
         15    1    3    3    0    0 -0.27356733644E+02 -0.71111261984E+02  0.29860633708E+03  0.30817868961E+03  0.17770000000E+01 0. -1.
</event>
<event>
 7    1  0.2288857E-006  0.5113148E+03  0.7546771E-02  0.9374842E-01
        -11   -1    0    0    0    0  0.00000000000E+00  0.00000000000E+00  0.50000000000E+03  0.50000000000E+03  0.00000000000E+00 0.  1.
         11   -1    0    0    0    0 -0.00000000000E+00 -0.00000000000E+00 -0.50000000000E+03  0.50000000000E+03  0.00000000000E+00 0.  1.
         23    2    1    2    0    0 -0.37130897877E+02 -0.37332138243E+02  0.21420545206E+03  0.23823164510E+03  0.89988604353E+02 0.  0.
        -11    1    1    2    0    0 -0.10708753345E+03 -0.84871323919E+02  0.23643922219E+03  0.27308311415E+03  0.00000000000E+00 0.  1.
         11    1    1    2    0    0  0.14421843133E+03  0.12220346216E+03 -0.45064467425E+03  0.48868524075E+03  0.00000000000E+00 0.  1.
        -15    1    3    3    0    0  0.10826618807E+00 -0.58983479379E+02  0.14681719342E+03  0.15823245108E+03  0.17770000000E+01 0.  1.
         15    1    3    3    0    0 -0.37239164065E+02  0.21651341136E+02  0.67388258638E+02  0.79999194024E+02  0.17770000000E+01 0. -1.
</event>
<event>
 7    1  0.2288857E-006  0.3574329E+03  0.7546771E-02  0.9791274E-01
        -11   -1    0    0    0    0  0.00000000000E+00  0.00000000000E+00  0.50000000000E+03  0.50000000000E+03  0.00000000000E+00 0.  1.
         11   -1    0    0    0    0 -0.00000000000E+00 -0.00000000000E+00 -0.50000000000E+03  0.50000000000E+03  0.00000000000E+00 0. -1.
         23    2    1    2    0    0  0.21389845735E+03  0.14494377409E+03 -0.17567776306E+03  0.32491207157E+03  0.89128727734E+02 0.  0.
        -11    1    1    2    0    0 -0.18923610605E+03  0.43076260695E+01  0.37783494730E+03  0.42259686094E+03  0.00000000000E+00 0.  1.
         11    1    1    2    0    0 -0.24662351306E+02 -0.14925140016E+03 -0.20215718424E+03  0.25249106749E+03  0.00000000000E+00 0. -1.
        -15    1    3    3    0    0  0.20012768845E+03  0.12470003824E+03 -0.12113565919E+03  0.26510035247E+03  0.17770000000E+01 0. -1.
         15    1    3    3    0    0  0.13770768900E+02  0.20243735856E+02 -0.54542103874E+02  0.59811719098E+02  0.17770000000E+01 0.  1.
</event>
<event>
 7    1  0.2288857E-006  0.5106628E+03  0.7546771E-02  0.9376262E-01
        -11   -1    0    0    0    0  0.00000000000E+00  0.00000000000E+00  0.50000000000E+03  0.50000000000E+03  0.00000000000E+00 0.  1.
         11   -1    0    0    0    0 -0.00000000000E+00 -0.00000000000E+00 -0.50000000000E+03  0.50000000000E+03  0.00000000000E+00 0. -1.
         23    2    1    2    0    0 -0.10458267938E+03  0.78673040855E+02  0.38214167943E+03  0.41396461342E+03  0.90594998853E+02 0.  0.
        -11    1    1    2    0    0 -0.53717298191E+02  0.50630812382E+02  0.62462097018E+02  0.96698194664E+02  0.00000000000E+00 0.  1.
         11    1    1    2    0    0  0.15829997757E+03 -0.12930385324E+03 -0.44460377645E+03  0.48933719192E+03  0.00000000000E+00 0. -1.
        -15    1    3    3    0    0 -0.56528467769E+02  0.77573734654E+02  0.15930362683E+03  0.18599450322E+03  0.17770000000E+01 0.  1.
         15    1    3    3    0    0 -0.48054211607E+02  0.10993062007E+01  0.22283805260E+03  0.22797011020E+03  0.17770000000E+01 0. -1.
</event>
<event>
 7    1  0.2288857E-006  0.5096596E+03  0.7546771E-02  0.9378451E-01
        -11   -1    0    0    0    0  0.00000000000E+00  0.00000000000E+00  0.50000000000E+03  0.50000000000E+03  0.00000000000E+00 0. -1.
         11   -1    0    0    0    0 -0.00000000000E+00 -0.00000000000E+00 -0.50000000000E+03  0.50000000000E+03  0.00000000000E+00 0.  1.
         23    2    1    2    0    0  0.51730392721E+02  0.43359063018E+02  0.37818616658E+03  0.39465395045E+03  0.90393153148E+02 0.  0.
        -11    1    1    2    0    0  0.57185881932E+02 -0.12947174237E+02  0.98936550430E+02  0.11500563214E+03  0.00000000000E+00 0. -1.
         11    1    1    2    0    0 -0.10891627465E+03 -0.30411888781E+02 -0.47712271701E+03  0.49034041741E+03  0.00000000000E+00 0.  1.
        -15    1    3    3    0    0 -0.13552352455E+02 -0.45322390373E+01  0.96739118286E+01  0.17347903240E+02  0.17770000000E+01 0.  1.
         15    1    3    3    0    0  0.65282745176E+02  0.47891302055E+02  0.36851225475E+03  0.37730604721E+03  0.17770000000E+01 0. -1.
</event>
<event>
 6    1  0.2288857E-006  0.3757957E+03  0.7546771E-02  0.9730751E-01
        -11   -1    0    0    0    0  0.00000000000E+00  0.00000000000E+00  0.50000000000E+03  0.50000000000E+03  0.00000000000E+00 0.  1.
         11   -1    0    0    0    0 -0.00000000000E+00 -0.00000000000E+00 -0.50000000000E+03  0.50000000000E+03  0.00000000000E+00 0. -1.
        -11    1    1    2    0    0  0.43486416297E+01 -0.60991734386E+02  0.34757523841E+03  0.35291280610E+03  0.00000000000E+00 0.  1.
         11    1    1    2    0    0  0.89607902429E+02 -0.55480982476E+02 -0.40174960220E+03  0.41534378346E+03  0.00000000000E+00 0. -1.
        -15    1    1    2    0    0 -0.25848905505E+02  0.80785658326E+02 -0.52846898686E+02  0.99952193257E+02  0.17770000000E+01 0.  1.
         15    1    1    2    0    0 -0.68107638554E+02  0.35687058535E+02  0.10702126247E+03  0.13179121718E+03  0.17770000000E+01 0. -1.
</event>
<event>
 7    1  0.2288857E-006  0.4957457E+03  0.7546771E-02  0.9409380E-01
        -11   -1    0    0    0    0  0.00000000000E+00  0.00000000000E+00  0.50000000000E+03  0.50000000000E+03  0.00000000000E+00 0.  1.
         11   -1    0    0    0    0 -0.00000000000E+00 -0.00000000000E+00 -0.50000000000E+03  0.50000000000E+03  0.00000000000E+00 0. -1.
         23    2    1    2    0    0 -0.87106788725E+02  0.79696611141E+02  0.46858124588E+03  0.49168088854E+03  0.90788598960E+02 0.  0.
        -11    1    1    2    0    0 -0.99513123825E+01 -0.10590127623E+02  0.83297941433E+01  0.16750071393E+02  0.00000000000E+00 0.  1.
         11    1    1    2    0    0  0.97058101108E+02 -0.69106483518E+02 -0.47691104002E+03  0.49156904006E+03  0.00000000000E+00 0. -1.
        -15    1    3    3    0    0 -0.67718116316E+02  0.23762194782E+02  0.13517425269E+03  0.15305430898E+03  0.17770000000E+01 0. -1.
         15    1    3    3    0    0 -0.19388672409E+02  0.55934416360E+02  0.33340699318E+03  0.33862657956E+03  0.17770000000E+01 0.  1.
</event>
<event>
 7    1  0.2288857E-006  0.4625130E+03  0.7546771E-02  0.9487832E-01
        -11   -1    0    0    0    0  0.00000000000E+00  0.00000000000E+00  0.50000000000E+03  0.50000000000E+03  0.00000000000E+00 0. -1.
         11   -1    0    0    0    0 -0.00000000000E+00 -0.00000000000E+00 -0.50000000000E+03  0.50000000000E+03  0.00000000000E+00 0.  1.
         23    2    1    2    0    0 -0.23188008345E+02 -0.31364053497E+00 -0.77005339682E+01  0.74651302872E+02  0.70538902002E+02 0.  0.
        -11    1    1    2    0    0 -0.13970568935E+03 -0.10360606019E+03  0.42842068067E+03  0.46238098466E+03  0.00000000000E+00 0. -1.
         11    1    1    2    0    0  0.16289369770E+03  0.10391970072E+03 -0.42072014671E+03  0.46296771247E+03  0.00000000000E+00 0.  1.
        -15    1    3    3    0    0  0.15629119064E+02 -0.13018616567E+02  0.17273369696E+02  0.26744733495E+02  0.17770000000E+01 0.  1.
         15    1    3    3    0    0 -0.38817127409E+02  0.12704976032E+02 -0.24973903664E+02  0.47906569377E+02  0.17770000000E+01 0. -1.
</event>
<event>
 7    1  0.2288857E-006  0.3313620E+03  0.7546771E-02  0.9884241E-01
        -11   -1    0    0    0    0  0.00000000000E+00  0.00000000000E+00  0.50000000000E+03  0.50000000000E+03  0.00000000000E+00 0.  1.
         11   -1    0    0    0    0 -0.00000000000E+00 -0.00000000000E+00 -0.50000000000E+03  0.50000000000E+03  0.00000000000E+00 0.  1.
         23    2    1    2    0    0  0.15019164780E+03 -0.39501715446E+01  0.22415689689E+03  0.28444252131E+03  0.89933856711E+02 0.  0.
        -11    1    1    2    0    0 -0.18186914408E+03 -0.23078618871E+03  0.10325585988E+03  0.31144890925E+03  0.00000000000E+00 0.  1.
         11    1    1    2    0    0  0.31677496288E+02  0.23473636026E+03 -0.32741275677E+03  0.40410856944E+03  0.00000000000E+00 0.  1.
        -15    1    3    3    0    0  0.70080356075E+02  0.64594819302E+01  0.34728612142E+02  0.78499779903E+02  0.17770000000E+01 0.  1.
         15    1    3    3    0    0  0.80111291721E+02 -0.10409653475E+02  0.18942828475E+03  0.20594274141E+03  0.17770000000E+01 0. -1.
</event>
<event>
 7    1  0.2288857E-006  0.5176531E+03  0.7546771E-02  0.9361153E-01
        -11   -1    0    0    0    0  0.00000000000E+00  0.00000000000E+00  0.50000000000E+03  0.50000000000E+03  0.00000000000E+00 0.  1.
         11   -1    0    0    0    0 -0.00000000000E+00 -0.00000000000E+00 -0.50000000000E+03  0.50000000000E+03  0.00000000000E+00 0. -1.
         23    2    1    2    0    0 -0.23890993896E+02  0.40233332575E+01 -0.21183733354E+03  0.23584344078E+03  0.10079735056E+03 0.  0.
        -11    1    1    2    0    0 -0.30043132373E+02  0.84206725270E+02  0.47398855424E+03  0.48234687926E+03  0.00000000000E+00 0.  1.
         11    1    1    2    0    0  0.53934126269E+02 -0.88230058527E+02 -0.26215122070E+03  0.28180967996E+03  0.00000000000E+00 0. -1.
        -15    1    3    3    0    0 -0.51626453194E+02 -0.12877808375E+02 -0.58518067172E+02  0.79111633357E+02  0.17770000000E+01 0.  1.
         15    1    3    3    0    0  0.27735459298E+02  0.16901141633E+02 -0.15331926637E+03  0.15673180743E+03  0.17770000000E+01 0. -1.
</event>
<event>
 7    1  0.2288857E-006  0.5179346E+03  0.7546771E-02  0.9360550E-01
        -11   -1    0    0    0    0  0.00000000000E+00  0.00000000000E+00  0.50000000000E+03  0.50000000000E+03  0.00000000000E+00 0. -1.
         11   -1    0    0    0    0 -0.00000000000E+00 -0.00000000000E+00 -0.50000000000E+03  0.50000000000E+03  0.00000000000E+00 0.  1.
         23    2    1    2    0    0 -0.50739567151E+02  0.24857788330E+02 -0.13886694890E+03  0.17736075771E+03  0.94764949014E+02 0.  0.
        -11    1    1    2    0    0  0.13404210450E+03  0.51219350432E+02  0.46021334937E+03  0.48206538413E+03  0.00000000000E+00 0. -1.
         11    1    1    2    0    0 -0.83302537346E+02 -0.76077138761E+02 -0.32134640047E+03  0.34057385817E+03  0.00000000000E+00 0.  1.
        -15    1    3    3    0    0 -0.61123877321E+02 -0.19750648569E+02 -0.86702952248E+02  0.10792023052E+03  0.17770000000E+01 0. -1.
         15    1    3    3    0    0  0.10384310171E+02  0.44608436898E+02 -0.52163996653E+02  0.69440527187E+02  0.17770000000E+01 0.  1.
</event>
<event>
 7    1  0.2288857E-006  0.3552672E+03  0.7546771E-02  0.9798668E-01
        -11   -1    0    0    0    0  0.00000000000E+00  0.00000000000E+00  0.50000000000E+03  0.50000000000E+03  0.00000000000E+00 0.  1.
         11   -1    0    0    0    0 -0.00000000000E+00 -0.00000000000E+00 -0.50000000000E+03  0.50000000000E+03  0.00000000000E+00 0.  1.
         23    2    1    2    0    0 -0.72357444968E+02 -0.51908919497E+02 -0.36592209230E+03  0.38743901770E+03  0.90993840674E+02 0.  0.
        -11    1    1    2    0    0 -0.14881381020E+03  0.15274751005E+03  0.28585841127E+03  0.35664041165E+03  0.00000000000E+00 0.  1.
         11    1    1    2    0    0  0.22117125517E+03 -0.10083859055E+03  0.80063681033E+02  0.25592057064E+03  0.00000000000E+00 0.  1.
        -15    1    3    3    0    0 -0.17306293903E+02  0.21932553432E+02 -0.15151185086E+03  0.15407642061E+03  0.17770000000E+01 0. -1.
         15    1    3    3    0    0 -0.55051151065E+02 -0.73841472929E+02 -0.21441024144E+03  0.23336259709E+03  0.17770000000E+01 0.  1.
</event>
<event>
 7    1  0.2288857E-006  0.5020447E+03  0.7546771E-02  0.9395246E-01
        -11   -1    0    0    0    0  0.00000000000E+00  0.00000000000E+00  0.50000000000E+03  0.50000000000E+03  0.00000000000E+00 0. -1.
         11   -1    0    0    0    0 -0.00000000000E+00 -0.00000000000E+00 -0.50000000000E+03  0.50000000000E+03  0.00000000000E+00 0.  1.
         23    2    1    2    0    0 -0.20922873162E+03  0.12464856746E+03  0.42949251849E+03  0.50204472277E+03  0.90945877959E+02 0.  0.
        -11    1    1    2    0    0  0.20710335571E+03 -0.10909202999E+03 -0.41561822467E+03  0.47700249436E+03  0.00000000000E+00 0.  1.
         11    1    1    2    0    0  0.21253759103E+01 -0.15556537477E+02 -0.13874293818E+02  0.20952782870E+02  0.00000000000E+00 0. -1.
        -15    1    3    3    0    0 -0.14358384436E+02 -0.85951363983E+01  0.73244785247E+01  0.18353345417E+02  0.17770000000E+01 0.  1.
         15    1    3    3    0    0 -0.19487034718E+03  0.13324370386E+03  0.42216803996E+03  0.48369137735E+03  0.17770000000E+01 0. -1.
</event>
<event>
 7    1  0.2288857E-006  0.4071501E+03  0.7546771E-02  0.9635507E-01
        -11   -1    0    0    0    0  0.00000000000E+00  0.00000000000E+00  0.50000000000E+03  0.50000000000E+03  0.00000000000E+00 0. -1.
         11   -1    0    0    0    0 -0.00000000000E+00 -0.00000000000E+00 -0.50000000000E+03  0.50000000000E+03  0.00000000000E+00 0.  1.
         23    2    1    2    0    0  0.18690150997E+03  0.52437357527E+02  0.30525805889E+03  0.37210707995E+03  0.87174225185E+02 0.  0.
        -11    1    1    2    0    0 -0.10994554929E+03  0.51079214750E+02  0.12772874766E+03  0.17610151324E+03  0.00000000000E+00 0. -1.
         11    1    1    2    0    0 -0.76955960687E+02 -0.10351657228E+03 -0.43298680655E+03  0.45179140681E+03  0.00000000000E+00 0.  1.
        -15    1    3    3    0    0  0.19691320978E+02  0.29441011583E+02  0.20174058584E+02  0.40800387910E+02  0.17770000000E+01 0.  1.
         15    1    3    3    0    0  0.16721018899E+03  0.22996345944E+02  0.28508400031E+03  0.33130669204E+03  0.17770000000E+01 0. -1.
</event>
<event>
 7    1  0.2288857E-006  0.3766151E+03  0.7546771E-02  0.9728137E-01
        -11   -1    0    0    0    0  0.00000000000E+00  0.00000000000E+00  0.50000000000E+03  0.50000000000E+03  0.00000000000E+00 0.  1.
         11   -1    0    0    0    0 -0.00000000000E+00 -0.00000000000E+00 -0.50000000000E+03  0.50000000000E+03  0.00000000000E+00 0.  1.
         23    2    1    2    0    0  0.20256841524E+03  0.28659832587E+03  0.16357687920E+03  0.39754641247E+03  0.90073255852E+02 0.  0.
        -11    1    1    2    0    0 -0.24372767978E+03 -0.28317949961E+03  0.57086329703E+02  0.37795854261E+03  0.00000000000E+00 0.  1.
         11    1    1    2    0    0  0.41159264539E+02 -0.34188262525E+01 -0.22066320890E+03  0.22449504492E+03  0.00000000000E+00 0.  1.
        -15    1    3    3    0    0  0.18141525274E+03  0.28635847987E+03  0.16339634972E+03  0.37631661902E+03  0.17770000000E+01 0.  1.
         15    1    3    3    0    0  0.21153162504E+02  0.23984599338E+00  0.18052947124E+00  0.21229793449E+02  0.17770000000E+01 0. -1.
</event>
<event>
 6    1  0.2288857E-006  0.4836509E+03  0.7546771E-02  0.9437154E-01
        -11   -1    0    0    0    0  0.00000000000E+00  0.00000000000E+00  0.50000000000E+03  0.50000000000E+03  0.00000000000E+00 0.  1.
         11   -1    0    0    0    0 -0.00000000000E+00 -0.00000000000E+00 -0.50000000000E+03  0.50000000000E+03  0.00000000000E+00 0.  1.
        -11    1    1    2    0    0  0.41234955200E+00  0.47288869565E+02  0.12614792181E+02  0.48944256033E+02  0.00000000000E+00 0.  1.
         11    1    1    2    0    0  0.11989520946E+03 -0.12371878788E+03 -0.44537343351E+03  0.47753397261E+03  0.00000000000E+00 0.  1.
        -15    1    1    2    0    0 -0.14101323309E+03  0.44822754110E+02  0.38591044920E+03  0.41330841235E+03  0.17770000000E+01 0.  1.
         15    1    1    2    0    0  0.20705674074E+02  0.31607164203E+02  0.46848192127E+02  0.60213359003E+02  0.17770000000E+01 0. -1.
</event>
<event>
 7    1  0.2288857E-006  0.4242725E+03  0.7546771E-02  0.9587283E-01
        -11   -1    0    0    0    0  0.00000000000E+00  0.00000000000E+00  0.50000000000E+03  0.50000000000E+03  0.00000000000E+00 0.  1.
         11   -1    0    0    0    0 -0.00000000000E+00 -0.00000000000E+00 -0.50000000000E+03  0.50000000000E+03  0.00000000000E+00 0. -1.
         23    2    1    2    0    0  0.58725746382E+02  0.78989991944E+02  0.54046020136E+02  0.14405738545E+03  0.90240932476E+02 0.  0.
        -11    1    1    2    0    0  0.22417046713E+03 -0.27483710544E+03  0.21887861975E+03  0.41676814063E+03  0.00000000000E+00 0.  1.
         11    1    1    2    0    0 -0.28289621351E+03  0.19584711350E+03 -0.27292463989E+03  0.43917447392E+03  0.00000000000E+00 0. -1.
        -15    1    3    3    0    0  0.48923492697E+02  0.88362732601E+01  0.53696841713E+02  0.73199019131E+02  0.17770000000E+01 0.  1.
         15    1    3    3    0    0  0.98022536853E+01  0.70153718684E+02  0.34917842235E+00  0.70858366316E+02  0.17770000000E+01 0. -1.
</event>
<event>
 7    1  0.2288857E-006  0.5215186E+03  0.7546771E-02  0.9352907E-01
        -11   -1    0    0    0    0  0.00000000000E+00  0.00000000000E+00  0.50000000000E+03  0.50000000000E+03  0.00000000000E+00 0.  1.
         11   -1    0    0    0    0 -0.00000000000E+00 -0.00000000000E+00 -0.50000000000E+03  0.50000000000E+03  0.00000000000E+00 0. -1.
         23    2    1    2    0    0 -0.57223271479E+01  0.46233131235E+01  0.25350654935E+03  0.26994239930E+03  0.92461929071E+02 0.  0.
        -11    1    1    2    0    0  0.71490557898E+02 -0.12896810880E+03  0.20383065347E+03  0.25157624739E+03  0.00000000000E+00 0.  1.
         11    1    1    2    0    0 -0.65768230750E+02  0.12434479568E+03 -0.45733720281E+03  0.47848135331E+03  0.00000000000E+00 0. -1.
        -15    1    3    3    0    0  0.34900733888E+02  0.37236426496E+01  0.19819642311E+03  0.20128811839E+03  0.17770000000E+01 0.  1.
         15    1    3    3    0    0 -0.40623061036E+02  0.89967047393E+00  0.55310126233E+02  0.68654280914E+02  0.17770000000E+01 0. -1.
</event>
<event>
 7    1  0.2288857E-006  0.4885660E+03  0.7546771E-02  0.9425764E-01
        -11   -1    0    0    0    0  0.00000000000E+00  0.00000000000E+00  0.50000000000E+03  0.50000000000E+03  0.00000000000E+00 0.  1.
         11   -1    0    0    0    0 -0.00000000000E+00 -0.00000000000E+00 -0.50000000000E+03  0.50000000000E+03  0.00000000000E+00 0.  1.
         23    2    1    2    0    0 -0.13673390654E+03 -0.12863317459E+02 -0.44119214558E+03  0.47494003938E+03  0.10979938775E+03 0.  0.
        -11    1    1    2    0    0  0.13657827876E+03 -0.51702423410E+01  0.47088510017E+03  0.49031942160E+03  0.00000000000E+00 0.  1.
         11    1    1    2    0    0  0.15562778636E+00  0.18033559800E+02 -0.29692954596E+02  0.34740539024E+02  0.00000000000E+00 0.  1.
        -15    1    3    3    0    0 -0.63164611294E+02 -0.40631314555E+01 -0.35785435715E+03  0.36341323010E+03  0.17770000000E+01 0.  1.
         15    1    3    3    0    0 -0.73569295248E+02 -0.88001860030E+01 -0.83337788430E+02  0.11152680927E+03  0.17770000000E+01 0. -1.
</event>
<event>
 7    1  0.2288857E-006  0.3490443E+03  0.7546771E-02  0.9820233E-01
        -11   -1    0    0    0    0  0.00000000000E+00  0.00000000000E+00  0.50000000000E+03  0.50000000000E+03  0.00000000000E+00 0. -1.
         11   -1    0    0    0    0 -0.00000000000E+00 -0.00000000000E+00 -0.50000000000E+03  0.50000000000E+03  0.00000000000E+00 0.  1.
         23    2    1    2    0    0  0.39068213480E+02  0.34140906501E+01  0.24230627201E+03  0.26001484390E+03  0.85775336053E+02 0.  0.
        -11    1    1    2    0    0 -0.32311524657E+03  0.75124717010E+02  0.37201718906E+02  0.33381305181E+03  0.00000000000E+00 0. -1.
         11    1    1    2    0    0  0.28404703309E+03 -0.78538807660E+02 -0.27950799092E+03  0.40617210429E+03  0.00000000000E+00 0.  1.
        -15    1    3    3    0    0  0.23523610305E+02 -0.34687929371E+02  0.18339981013E+03  0.18813628245E+03  0.17770000000E+01 0.  1.
         15    1    3    3    0    0  0.15544603175E+02  0.38102020021E+02  0.58906461875E+02  0.71878561457E+02  0.17770000000E+01 0. -1.
</event>
<event>
 7    1  0.2288857E-006  0.5092263E+03  0.7546771E-02  0.9379399E-01
        -11   -1    0    0    0    0  0.00000000000E+00  0.00000000000E+00  0.50000000000E+03  0.50000000000E+03  0.00000000000E+00 0.  1.
         11   -1    0    0    0    0 -0.00000000000E+00 -0.00000000000E+00 -0.50000000000E+03  0.50000000000E+03  0.00000000000E+00 0.  1.
         23    2    1    2    0    0 -0.40279273725E+02  0.95595749679E+02  0.36868350488E+03  0.39373782196E+03  0.91328957196E+02 0.  0.
        -11    1    1    2    0    0 -0.48272322726E+02  0.52807411486E+02  0.90657286644E+02  0.11548845601E+03  0.00000000000E+00 0.  1.
         11    1    1    2    0    0  0.88551596451E+02 -0.14840316117E+03 -0.45934079153E+03  0.49077372203E+03  0.00000000000E+00 0.  1.
        -15    1    3    3    0    0 -0.44094076155E+02  0.67073640769E+02  0.35066571366E+03  0.35973985226E+03  0.17770000000E+01 0.  1.
         15    1    3    3    0    0  0.38148024304E+01  0.28522108910E+02  0.18017791219E+02  0.33997969699E+02  0.17770000000E+01 0. -1.
</event>
<event>
 7    1  0.2288857E-006  0.4778117E+03  0.7546771E-02  0.9450874E-01
        -11   -1    0    0    0    0  0.00000000000E+00  0.00000000000E+00  0.50000000000E+03  0.50000000000E+03  0.00000000000E+00 0. -1.
         11   -1    0    0    0    0 -0.00000000000E+00 -0.00000000000E+00 -0.50000000000E+03  0.50000000000E+03  0.00000000000E+00 0.  1.
         23    2    1    2    0    0  0.19304096571E+03  0.86236379320E+02 -0.40941053009E+03  0.46965380816E+03  0.90863578042E+02 0.  0.
        -11    1    1    2    0    0 -0.15531442746E+03 -0.10163953184E+03  0.44120541609E+03  0.47865998893E+03  0.00000000000E+00 0. -1.
         11    1    1    2    0    0 -0.37726538242E+02  0.15403152519E+02 -0.31794886004E+02  0.51686202910E+02  0.00000000000E+00 0.  1.
        -15    1    3    3    0    0  0.17074617884E+03  0.98561997248E+02 -0.31301308080E+03  0.36993117112E+03  0.17770000000E+01 0.  1.
         15    1    3    3    0    0  0.22294786862E+02 -0.12325617928E+02 -0.96397449294E+02  0.99722637038E+02  0.17770000000E+01 0. -1.
</event>
<event>
 7    1  0.2288857E-006  0.3917884E+03  0.7546771E-02  0.9680979E-01
        -11   -1    0    0    0    0  0.00000000000E+00  0.00000000000E+00  0.50000000000E+03  0.50000000000E+03  0.00000000000E+00 0. -1.
         11   -1    0    0    0    0 -0.00000000000E+00 -0.00000000000E+00 -0.50000000000E+03  0.50000000000E+03  0.00000000000E+00 0. -1.
         23    2    1    2    0    0  0.10169196949E+03  0.55086151566E+02  0.32914046555E+03  0.36096150687E+03  0.92650000663E+02 0.  0.
        -11    1    1    2    0    0 -0.17518073450E+03 -0.85103999539E+01  0.99507722999E+02  0.20164945719E+03  0.00000000000E+00 0. -1.
         11    1    1    2    0    0  0.73488765013E+02 -0.46575751612E+02 -0.42864818855E+03  0.43738903595E+03  0.00000000000E+00 0. -1.
        -15    1    3    3    0    0  0.20320494389E+02 -0.25224477354E+02  0.95142261597E+02  0.10052066663E+03  0.17770000000E+01 0.  1.
         15    1    3    3    0    0  0.81371475097E+02  0.80310628920E+02  0.23399820395E+03  0.26044084023E+03  0.17770000000E+01 0. -1.
</event>
<event>
 7    1  0.2288857E-006  0.3610359E+03  0.7546771E-02  0.9779095E-01
        -11   -1    0    0    0    0  0.00000000000E+00  0.00000000000E+00  0.50000000000E+03  0.50000000000E+03  0.00000000000E+00 0. -1.
         11   -1    0    0    0    0 -0.00000000000E+00 -0.00000000000E+00 -0.50000000000E+03  0.50000000000E+03  0.00000000000E+00 0. -1.
         23    2    1    2    0    0  0.17676544830E+03  0.92210922218E+00  0.41898603922E+03  0.46434500925E+03  0.93915454314E+02 0.  0.
        -11    1    1    2    0    0 -0.22555755869E+03 -0.23321400207E+02 -0.17665865499E+03  0.28745152700E+03  0.00000000000E+00 0. -1.
         11    1    1    2    0    0  0.48792110390E+02  0.22399290985E+02 -0.24232738422E+03  0.24820346375E+03  0.00000000000E+00 0. -1.
        -15    1    3    3    0    0  0.16172422708E+03 -0.30255739355E+02  0.32743257334E+03  0.36644970078E+03  0.17770000000E+01 0. -1.
         15    1    3    3    0    0  0.15041221224E+02  0.31177848578E+02  0.91553465876E+02  0.97895308471E+02  0.17770000000E+01 0.  1.
</event>
<event>
 7    1  0.2288857E-006  0.3593279E+03  0.7546771E-02  0.9784849E-01
        -11   -1    0    0    0    0  0.00000000000E+00  0.00000000000E+00  0.50000000000E+03  0.50000000000E+03  0.00000000000E+00 0.  1.
         11   -1    0    0    0    0 -0.00000000000E+00 -0.00000000000E+00 -0.50000000000E+03  0.50000000000E+03  0.00000000000E+00 0. -1.
         23    2    1    2    0    0 -0.57758857365E+01 -0.13682144699E+03  0.27469322036E+03  0.32051850574E+03  0.92316184918E+02 0.  0.
        -11    1    1    2    0    0 -0.14274570044E+03  0.16168211182E+03  0.12713626112E+03  0.25036187643E+03  0.00000000000E+00 0.  1.
         11    1    1    2    0    0  0.14852158618E+03 -0.24860664832E+02 -0.40182948148E+03  0.42911961783E+03  0.00000000000E+00 0. -1.
        -15    1    3    3    0    0  0.35571724230E+02 -0.76079356896E+02  0.97565828740E+02  0.12874651365E+03  0.17770000000E+01 0.  1.
         15    1    3    3    0    0 -0.41347609966E+02 -0.60742090092E+02  0.17712739162E+03  0.19177199209E+03  0.17770000000E+01 0. -1.
</event>
<event>
 7    1  0.2288857E-006  0.5250111E+03  0.7546771E-02  0.9345521E-01
        -11   -1    0    0    0    0  0.00000000000E+00  0.00000000000E+00  0.50000000000E+03  0.50000000000E+03  0.00000000000E+00 0.  1.
         11   -1    0    0    0    0 -0.00000000000E+00 -0.00000000000E+00 -0.50000000000E+03  0.50000000000E+03  0.00000000000E+00 0. -1.
         23    2    1    2    0    0 -0.78943940441E+01 -0.75301669106E+02  0.17634908421E+03  0.21215616108E+03  0.90435470662E+02 0.  0.
        -11    1    1    2    0    0 -0.21275399682E+03 -0.68996939917E+02  0.21875420434E+03  0.31285498685E+03  0.00000000000E+00 0.  1.
         11    1    1    2    0    0  0.22064839087E+03  0.14429860902E+03 -0.39510328856E+03  0.47498885206E+03  0.00000000000E+00 0. -1.
        -15    1    3    3    0    0  0.14220806637E+02 -0.56947432809E+02  0.35990913031E+02  0.68874850233E+02  0.17770000000E+01 0. -1.
         15    1    3    3    0    0 -0.22115200681E+02 -0.18354236297E+02  0.14035817118E+03  0.14328131085E+03  0.17770000000E+01 0.  1.
</event>
<event>
 7    1  0.2288857E-006  0.4208783E+03  0.7546771E-02  0.9596647E-01
        -11   -1    0    0    0    0  0.00000000000E+00  0.00000000000E+00  0.50000000000E+03  0.50000000000E+03  0.00000000000E+00 0. -1.
         11   -1    0    0    0    0 -0.00000000000E+00 -0.00000000000E+00 -0.50000000000E+03  0.50000000000E+03  0.00000000000E+00 0. -1.
         23    2    1    2    0    0 -0.59816658984E+02  0.12069807403E+02  0.39842664678E+03  0.41308316002E+03  0.90389110430E+02 0.  0.
        -11    1    1    2    0    0  0.14914819000E+03  0.30310997322E+02  0.23108122217E+02  0.15394130196E+03  0.00000000000E+00 0. -1.
         11    1    1    2    0    0 -0.89331531011E+02 -0.42380804725E+02 -0.42153476900E+03  0.43297553801E+03  0.00000000000E+00 0. -1.
        -15    1    3    3    0    0 -0.45736067505E+01 -0.35459678212E+02  0.14753573837E+03  0.15181652902E+03  0.17770000000E+01 0.  1.
         15    1    3    3    0    0 -0.55243052233E+02  0.47529485616E+02  0.25089090841E+03  0.26126663100E+03  0.17770000000E+01 0. -1.
</event>
<event>
 7    1  0.2288857E-006  0.5141276E+03  0.7546771E-02  0.9368741E-01
        -11   -1    0    0    0    0  0.00000000000E+00  0.00000000000E+00  0.50000000000E+03  0.50000000000E+03  0.00000000000E+00 0. -1.
         11   -1    0    0    0    0 -0.00000000000E+00 -0.00000000000E+00 -0.50000000000E+03  0.50000000000E+03  0.00000000000E+00 0.  1.
         23    2    1    2    0    0  0.65797475592E+02 -0.83286692532E+02 -0.30313454272E+03  0.33376649603E+03  0.90793953194E+02 0.  0.
        -11    1    1    2    0    0 -0.28448695235E+02  0.74091708320E+02  0.47934649923E+03  0.48587238636E+03  0.00000000000E+00 0. -1.
         11    1    1    2    0    0 -0.37348780357E+02  0.91949842123E+01 -0.17621195651E+03  0.18036111761E+03  0.00000000000E+00 0.  1.
        -15    1    3    3    0    0  0.41360774637E+02 -0.13550577463E+02 -0.21198234256E+03  0.21641165199E+03  0.17770000000E+01 0. -1.
         15    1    3    3    0    0  0.24436700955E+02 -0.69736115069E+02 -0.91152200155E+02  0.11735484404E+03  0.17770000000E+01 0.  1.
</event>
<event>
 7    1  0.2288857E-006  0.4310464E+03  0.7546771E-02  0.9568870E-01
        -11   -1    0    0    0    0  0.00000000000E+00  0.00000000000E+00  0.50000000000E+03  0.50000000000E+03  0.00000000000E+00 0.  1.
         11   -1    0    0    0    0 -0.00000000000E+00 -0.00000000000E+00 -0.50000000000E+03  0.50000000000E+03  0.00000000000E+00 0.  1.
         23    2    1    2    0    0 -0.13362187467E+03 -0.34281787243E+02  0.38417040736E+03  0.41913634901E+03  0.95175263826E+02 0.  0.
        -11    1    1    2    0    0 -0.56247338102E+01  0.13520154307E+03  0.24468193907E+02  0.13751286264E+03  0.00000000000E+00 0.  1.
         11    1    1    2    0    0  0.13924660848E+03 -0.10091975582E+03 -0.40863860126E+03  0.44335078835E+03  0.00000000000E+00 0.  1.
        -15    1    3    3    0    0 -0.14462198224E+03 -0.39009039778E+02  0.31367700186E+03  0.34761133778E+03  0.17770000000E+01 0.  1.
         15    1    3    3    0    0  0.11000107568E+02  0.47272525351E+01  0.70493405499E+02  0.71525011226E+02  0.17770000000E+01 0. -1.
</event>
<event>
 7    1  0.2288857E-006  0.5167648E+03  0.7546771E-02  0.9363059E-01
        -11   -1    0    0    0    0  0.00000000000E+00  0.00000000000E+00  0.50000000000E+03  0.50000000000E+03  0.00000000000E+00 0.  1.
         11   -1    0    0    0    0 -0.00000000000E+00 -0.00000000000E+00 -0.50000000000E+03  0.50000000000E+03  0.00000000000E+00 0. -1.
         23    2    1    2    0    0  0.13922396466E+03 -0.46741858064E+02 -0.17190295142E+03  0.24401906484E+03  0.91796327087E+02 0.  0.
        -11    1    1    2    0    0 -0.33809335803E+03 -0.24599630333E+02  0.34438937705E+03  0.48323524663E+03  0.00000000000E+00 0.  1.
         11    1    1    2    0    0  0.19886939337E+03  0.71341488397E+02 -0.17248642563E+03  0.27274568853E+03  0.00000000000E+00 0. -1.
        -15    1    3    3    0    0  0.28421979235E+02  0.14332555921E+02 -0.16872927156E+01  0.31925471783E+02  0.17770000000E+01 0.  1.
         15    1    3    3    0    0  0.11080198542E+03 -0.61074413985E+02 -0.17021565871E+03  0.21209359306E+03  0.17770000000E+01 0. -1.
</event>
<event>
 7    1  0.2288857E-006  0.5001166E+03  0.7546771E-02  0.9399549E-01
        -11   -1    0    0    0    0  0.00000000000E+00  0.00000000000E+00  0.50000000000E+03  0.50000000000E+03  0.00000000000E+00 0. -1.
         11   -1    0    0    0    0 -0.00000000000E+00 -0.00000000000E+00 -0.50000000000E+03  0.50000000000E+03  0.00000000000E+00 0.  1.
         23    2    1    2    0    0  0.67809307508E+02 -0.10913601285E+03  0.47494729762E+03  0.50011655042E+03  0.89626207119E+02 0.  0.
        -11    1    1    2    0    0 -0.67590214523E+02  0.12339526783E+03 -0.44504416023E+03  0.46675382567E+03  0.00000000000E+00 0.  1.
         11    1    1    2    0    0 -0.21909298488E+00 -0.14259254989E+02 -0.29903137392E+02  0.33129623910E+02  0.00000000000E+00 0. -1.
        -15    1    3    3    0    0 -0.92143745304E+01  0.10271824205E+02  0.56909841126E+02  0.58585858502E+02  0.17770000000E+01 0.  1.
         15    1    3    3    0    0  0.77023682038E+02 -0.11940783705E+03  0.41803745649E+03  0.44153069192E+03  0.17770000000E+01 0. -1.
</event>
<event>
 7    1  0.2288857E-006  0.4549883E+03  0.7546771E-02  0.9506573E-01
        -11   -1    0    0    0    0  0.00000000000E+00  0.00000000000E+00  0.50000000000E+03  0.50000000000E+03  0.00000000000E+00 0. -1.
         11   -1    0    0    0    0 -0.00000000000E+00 -0.00000000000E+00 -0.50000000000E+03  0.50000000000E+03  0.00000000000E+00 0. -1.
         23    2    1    2    0    0 -0.10219796601E+02  0.44600527555E+02  0.44561986806E+03  0.45710209286E+03  0.90948365514E+02 0.  0.
        -11    1    1    2    0    0  0.23063367995E+02  0.89677677084E+02 -0.17767256798E+02  0.94285100225E+02  0.00000000000E+00 0. -1.
         11    1    1    2    0    0 -0.12843571394E+02 -0.13427820464E+03 -0.42785261126E+03  0.44861280691E+03  0.00000000000E+00 0. -1.
        -15    1    3    3    0    0  0.95263716839E+01  0.69041042934E+02  0.32936749388E+03  0.33666529540E+03  0.17770000000E+01 0. -1.
         15    1    3    3    0    0 -0.19746168285E+02 -0.24440515379E+02  0.11625237417E+03  0.12043679746E+03  0.17770000000E+01 0.  1.
</event>
<event>
 7    1  0.2288857E-006  0.4599746E+03  0.7546771E-02  0.9494112E-01
        -11   -1    0    0    0    0  0.00000000000E+00  0.00000000000E+00  0.50000000000E+03  0.50000000000E+03  0.00000000000E+00 0.  1.
         11   -1    0    0    0    0 -0.00000000000E+00 -0.00000000000E+00 -0.50000000000E+03  0.50000000000E+03  0.00000000000E+00 0. -1.
         23    2    1    2    0    0  0.32264595378E+02  0.22986950322E+03 -0.35635905090E+03  0.43483298560E+03  0.90592271066E+02 0.  0.
        -11    1    1    2    0    0 -0.27403121798E+02 -0.31466742954E+03  0.36152901347E+03  0.48007265063E+03  0.00000000000E+00 0.  1.
         11    1    1    2    0    0 -0.48614735797E+01  0.84797926318E+02 -0.51699625724E+01  0.85094363775E+02  0.00000000000E+00 0. -1.
        -15    1    3    3    0    0  0.41935899876E+02  0.69324382655E+02 -0.73334017252E+02  0.10929558795E+03  0.17770000000E+01 0.  1.
         15    1    3    3    0    0 -0.96713044975E+01  0.16054512057E+03 -0.28302503365E+03  0.32553739765E+03  0.17770000000E+01 0. -1.
</event>
<event>
 7    1  0.2288857E-006  0.3762874E+03  0.7546771E-02  0.9729181E-01
        -11   -1    0    0    0    0  0.00000000000E+00  0.00000000000E+00  0.50000000000E+03  0.50000000000E+03  0.00000000000E+00 0. -1.
         11   -1    0    0    0    0 -0.00000000000E+00 -0.00000000000E+00 -0.50000000000E+03  0.50000000000E+03  0.00000000000E+00 0. -1.
         23    2    1    2    0    0  0.15011682099E+03  0.63450473614E+02  0.36374536086E+03  0.40894906181E+03  0.91474723599E+02 0.  0.
        -11    1    1    2    0    0 -0.21377790212E+03 -0.70867836189E+02 -0.35998519095E+01  0.22524697684E+03  0.00000000000E+00 0. -1.
         11    1    1    2    0    0  0.63661081138E+02  0.74173625749E+01 -0.36014550896E+03  0.36580396135E+03  0.00000000000E+00 0. -1.
        -15    1    3    3    0    0  0.11867964072E+03  0.86998306921E+02  0.27551687078E+03  0.31235599297E+03  0.17770000000E+01 0. -1.
         15    1    3    3    0    0  0.31437180264E+02 -0.23547833306E+02  0.88228490081E+02  0.96593068837E+02  0.17770000000E+01 0.  1.
</event>
<event>
 7    1  0.2288857E-006  0.4357832E+03  0.7546771E-02  0.9556208E-01
        -11   -1    0    0    0    0  0.00000000000E+00  0.00000000000E+00  0.50000000000E+03  0.50000000000E+03  0.00000000000E+00 0. -1.
         11   -1    0    0    0    0 -0.00000000000E+00 -0.00000000000E+00 -0.50000000000E+03  0.50000000000E+03  0.00000000000E+00 0.  1.
         23    2    1    2    0    0 -0.26198932741E+02  0.52811570544E+02  0.39028485500E+03  0.40497888581E+03  0.90610064856E+02 0.  0.
        -11    1    1    2    0    0  0.10916904943E+03  0.27690857102E+02  0.61745932473E+02  0.12844152404E+03  0.00000000000E+00 0. -1.
         11    1    1    2    0    0 -0.82970116691E+02 -0.80502427646E+02 -0.45203078747E+03  0.46657959015E+03  0.00000000000E+00 0.  1.
        -15    1    3    3    0    0 -0.15098113740E+02 -0.15116618977E+02  0.23591924899E+02  0.31877921156E+02  0.17770000000E+01 0.  1.
         15    1    3    3    0    0 -0.11100819001E+02  0.67928189521E+02  0.36669293010E+03  0.37310096466E+03  0.17770000000E+01 0. -1.
</event>
<event>
 7    1  0.2288857E-006  0.3320146E+03  0.7546771E-02  0.9881803E-01
        -11   -1    0    0    0    0  0.00000000000E+00  0.00000000000E+00  0.50000000000E+03  0.50000000000E+03  0.00000000000E+00 0.  1.
         11   -1    0    0    0    0 -0.00000000000E+00 -0.00000000000E+00 -0.50000000000E+03  0.50000000000E+03  0.00000000000E+00 0. -1.
         23    2    1    2    0    0  0.40367283075E+02 -0.15027559377E+03  0.21777102282E+03  0.28405917167E+03  0.95147900688E+02 0.  0.
        -11    1    1    2    0    0 -0.42487550586E+02  0.22829109553E+03  0.19045283607E+03  0.30032365711E+03  0.00000000000E+00 0.  1.
         11    1    1    2    0    0  0.21202675107E+01 -0.78015501761E+02 -0.40822385889E+03  0.41561717122E+03  0.00000000000E+00 0. -1.
        -15    1    3    3    0    0  0.44745332724E+02 -0.11959083752E+03  0.99801805578E+02  0.16207304324E+03  0.17770000000E+01 0.  1.
         15    1    3    3    0    0 -0.43780496489E+01 -0.30684756252E+02  0.11796921724E+03  0.12198612843E+03  0.17770000000E+01 0. -1.
</event>
<event>
 7    1  0.2288857E-006  0.5221247E+03  0.7546771E-02  0.9351621E-01
        -11   -1    0    0    0    0  0.00000000000E+00  0.00000000000E+00  0.50000000000E+03  0.50000000000E+03  0.00000000000E+00 0.  1.
         11   -1    0    0    0    0 -0.00000000000E+00 -0.00000000000E+00 -0.50000000000E+03  0.50000000000E+03  0.00000000000E+00 0. -1.
         23    2    1    2    0    0  0.20931791308E+03 -0.26011890567E+02 -0.21706341160E+03  0.31591654654E+03  0.90532494358E+02 0.  0.
        -11    1    1    2    0    0 -0.23635730528E+03 -0.27222681755E+02  0.41443808979E+03  0.47787527707E+03  0.00000000000E+00 0.  1.
         11    1    1    2    0    0  0.27039392199E+02  0.53234572322E+02 -0.19737467819E+03  0.20620817639E+03  0.00000000000E+00 0. -1.
        -15    1    3    3    0    0  0.13087525388E+02  0.69865882011E+01 -0.61623727641E+02  0.63409283806E+02  0.17770000000E+01 0.  1.
         15    1    3    3    0    0  0.19623038769E+03 -0.32998478769E+02 -0.15543968396E+03  0.25250726273E+03  0.17770000000E+01 0. -1.
</event>
<event>
 7    1  0.2288857E-006  0.4223812E+03  0.7546771E-02  0.9592489E-01
        -11   -1    0    0    0    0  0.00000000000E+00  0.00000000000E+00  0.50000000000E+03  0.50000000000E+03  0.00000000000E+00 0.  1.
         11   -1    0    0    0    0 -0.00000000000E+00 -0.00000000000E+00 -0.50000000000E+03  0.50000000000E+03  0.00000000000E+00 0. -1.
         23    2    1    2    0    0 -0.86851303083E+02  0.10972421522E+03  0.35837426239E+03  0.39520768546E+03  0.90412667525E+02 0.  0.
        -11    1    1    2    0    0  0.12012048204E+03 -0.30862744010E+02  0.86854810158E+02  0.15141069058E+03  0.00000000000E+00 0.  1.
         11    1    1    2    0    0 -0.33269178959E+02 -0.78861471213E+02 -0.44522907255E+03  0.45338162397E+03  0.00000000000E+00 0. -1.
        -15    1    3    3    0    0 -0.29731795024E+02  0.36033849690E+02  0.24001678986E+03  0.24452737086E+03  0.17770000000E+01 0.  1.
         15    1    3    3    0    0 -0.57119508059E+02  0.73690365532E+02  0.11835747253E+03  0.15068031459E+03  0.17770000000E+01 0. -1.
</event>
<event>
 7    1  0.2288857E-006  0.5237278E+03  0.7546771E-02  0.9348228E-01
        -11   -1    0    0    0    0  0.00000000000E+00  0.00000000000E+00  0.50000000000E+03  0.50000000000E+03  0.00000000000E+00 0.  1.
         11   -1    0    0    0    0 -0.00000000000E+00 -0.00000000000E+00 -0.50000000000E+03  0.50000000000E+03  0.00000000000E+00 0. -1.
         23    2    1    2    0    0  0.81828718675E+02 -0.10451200421E+03 -0.11122627184E+03  0.19395366763E+03  0.87338670796E+02 0.  0.
        -11    1    1    2    0    0 -0.17334599151E+03  0.11741772007E+03  0.42778434674E+03  0.47627219221E+03  0.00000000000E+00 0.  1.
         11    1    1    2    0    0  0.91517272837E+02 -0.12905715860E+02 -0.31655807490E+03  0.32977414016E+03  0.00000000000E+00 0. -1.
        -15    1    3    3    0    0  0.43830247204E+02 -0.98069280894E+02 -0.11222559691E+03  0.15535899316E+03  0.17770000000E+01 0. -1.
         15    1    3    3    0    0  0.37998471471E+02 -0.64427233174E+01  0.99932507272E+00  0.38594674470E+02  0.17770000000E+01 0.  1.
</event>
<event>
 7    1  0.2288857E-006  0.4065771E+03  0.7546771E-02  0.9637165E-01
        -11   -1    0    0    0    0  0.00000000000E+00  0.00000000000E+00  0.50000000000E+03  0.50000000000E+03  0.00000000000E+00 0. -1.
         11   -1    0    0    0    0 -0.00000000000E+00 -0.00000000000E+00 -0.50000000000E+03  0.50000000000E+03  0.00000000000E+00 0.  1.
         23    2    1    2    0    0 -0.82829264540E+02 -0.62496398350E+01  0.12093329556E+03  0.17371647696E+03  0.93020467266E+02 0.  0.
        -11    1    1    2    0    0  0.17764846437E+03 -0.96318157062E+02  0.31180386390E+03  0.37156131905E+03  0.00000000000E+00 0. -1.
         11    1    1    2    0    0 -0.94819199825E+02  0.10256779690E+03 -0.43273715946E+03  0.45472220399E+03  0.00000000000E+00 0.  1.
        -15    1    3    3    0    0  0.17119841270E+02  0.67399499509E+01  0.41313654481E+02  0.45260265863E+02  0.17770000000E+01 0. -1.
         15    1    3    3    0    0 -0.99949105810E+02 -0.12989589786E+02  0.79619641081E+02  0.12845621110E+03  0.17770000000E+01 0.  1.
</event>
<event>
 7    1  0.2288857E-006  0.3435101E+03  0.7546771E-02  0.9839821E-01
        -11   -1    0    0    0    0  0.00000000000E+00  0.00000000000E+00  0.50000000000E+03  0.50000000000E+03  0.00000000000E+00 0.  1.
         11   -1    0    0    0    0 -0.00000000000E+00 -0.00000000000E+00 -0.50000000000E+03  0.50000000000E+03  0.00000000000E+00 0.  1.
         23    2    1    2    0    0 -0.55906018168E+02  0.12633761157E+03  0.24813772819E+03  0.29955928417E+03  0.95272019058E+02 0.  0.
        -11    1    1    2    0    0  0.67833053979E+00 -0.21717615942E+03  0.16569698693E+03  0.27316924393E+03  0.00000000000E+00 0.  1.
         11    1    1    2    0    0  0.55227687628E+02  0.90838547846E+02 -0.41383471513E+03  0.42727147190E+03  0.00000000000E+00 0.  1.
        -15    1    3    3    0    0 -0.77391268835E+02  0.61898679596E+02  0.16094107153E+03  0.18901333620E+03  0.17770000000E+01 0.  1.
         15    1    3    3    0    0  0.21485250668E+02  0.64438931974E+02  0.87196656663E+02  0.11054594797E+03  0.17770000000E+01 0. -1.
</event>
<event>
 7    1  0.2288857E-006  0.5192627E+03  0.7546771E-02  0.9357710E-01
        -11   -1    0    0    0    0  0.00000000000E+00  0.00000000000E+00  0.50000000000E+03  0.50000000000E+03  0.00000000000E+00 0.  1.
         11   -1    0    0    0    0 -0.00000000000E+00 -0.00000000000E+00 -0.50000000000E+03  0.50000000000E+03  0.00000000000E+00 0. -1.
         23    2    1    2    0    0  0.12671075784E+02 -0.46611922489E+02  0.20593574660E+03  0.23030331841E+03  0.91087097124E+02 0.  0.
        -11    1    1    2    0    0 -0.13550540690E+03 -0.14549926322E+02  0.25480206665E+03  0.28895935497E+03  0.00000000000E+00 0.  1.
         11    1    1    2    0    0  0.12283433112E+03  0.61161848810E+02 -0.46073781325E+03  0.48073732662E+03  0.00000000000E+00 0. -1.
        -15    1    3    3    0    0  0.33013127463E+02  0.18567657395E+01  0.23940778610E+02  0.40861140137E+02  0.17770000000E+01 0. -1.
         15    1    3    3    0    0 -0.20342051679E+02 -0.48468688228E+02  0.18199496799E+03  0.18944217827E+03  0.17770000000E+01 0.  1.
</event>
<event>
 7    1  0.2288857E-006  0.5354667E+03  0.7546771E-02  0.9323770E-01
        -11   -1    0    0    0    0  0.00000000000E+00  0.00000000000E+00  0.50000000000E+03  0.50000000000E+03  0.00000000000E+00 0.  1.
         11   -1    0    0    0    0 -0.00000000000E+00 -0.00000000000E+00 -0.50000000000E+03  0.50000000000E+03  0.00000000000E+00 0. -1.
         23    2    1    2    0    0 -0.24768593451E+02  0.53067927198E+02  0.14720671724E+03  0.19657815462E+03  0.11637639432E+03 0.  0.
        -11    1    1    2    0    0  0.24978864436E+02 -0.13417552037E+03  0.31019099772E+03  0.33888857904E+03  0.00000000000E+00 0.  1.
         11    1    1    2    0    0 -0.21027098468E+00  0.81107593168E+02 -0.45739771496E+03  0.46453326634E+03  0.00000000000E+00 0. -1.
        -15    1    3    3    0    0  0.28860775250E+02 -0.22081975638E+02  0.56051943758E+02  0.66824667034E+02  0.17770000000E+01 0.  1.
         15    1    3    3    0    0 -0.53629368701E+02  0.75149902836E+02  0.91154773483E+02  0.12975348759E+03  0.17770000000E+01 0. -1.
</event>
<event>
 7    1  0.2288857E-006  0.4620630E+03  0.7546771E-02  0.9488942E-01
        -11   -1    0    0    0    0  0.00000000000E+00  0.00000000000E+00  0.50000000000E+03  0.50000000000E+03  0.00000000000E+00 0.  1.
         11   -1    0    0    0    0 -0.00000000000E+00 -0.00000000000E+00 -0.50000000000E+03  0.50000000000E+03  0.00000000000E+00 0. -1.
         23    2    1    2    0    0  0.12962417672E+03 -0.94397032024E+02 -0.38108032718E+03  0.42372891701E+03  0.92794140456E+02 0.  0.
        -11    1    1    2    0    0 -0.15132371220E+03  0.10469512529E+03  0.45911815002E+03  0.49462047149E+03  0.00000000000E+00 0.  1.
         11    1    1    2    0    0  0.21699535475E+02 -0.10298093267E+02 -0.78037822841E+02  0.81650611501E+02  0.00000000000E+00 0. -1.
        -15    1    3    3    0    0  0.73155992799E+02 -0.53064661094E+01 -0.10425891234E+03  0.12748739701E+03  0.17770000000E+01 0.  1.
         15    1    3    3    0    0  0.56468183922E+02 -0.89090565915E+02 -0.27682141484E+03  0.29624152000E+03  0.17770000000E+01 0. -1.
</event>
<event>
 7    1  0.2288857E-006  0.4625089E+03  0.7546771E-02  0.9487842E-01
        -11   -1    0    0    0    0  0.00000000000E+00  0.00000000000E+00  0.50000000000E+03  0.50000000000E+03  0.00000000000E+00 0. -1.
         11   -1    0    0    0    0 -0.00000000000E+00 -0.00000000000E+00 -0.50000000000E+03  0.50000000000E+03  0.00000000000E+00 0.  1.
         23    2    1    2    0    0  0.84301318449E+02 -0.11591265693E+03  0.42875764336E+03  0.46147316790E+03  0.92638607636E+02 0.  0.
        -11    1    1    2    0    0 -0.55572791373E+02 -0.58294047800E+02 -0.64504258400E+01  0.80796900580E+02  0.00000000000E+00 0. -1.
         11    1    1    2    0    0 -0.28728527075E+02  0.17420670473E+03 -0.42230721752E+03  0.45772993152E+03  0.00000000000E+00 0.  1.
        -15    1    3    3    0    0 -0.13263699588E+02  0.57802642486E+01  0.32499008436E+02  0.35618540957E+02  0.17770000000E+01 0.  1.
         15    1    3    3    0    0  0.97565018037E+02 -0.12169292118E+03  0.39625863492E+03  0.42585462694E+03  0.17770000000E+01 0. -1.
</event>
<event>
 7    1  0.2478357E-006  0.5111832E+03  0.7546771E-02  0.9375128E-01
        -11   -1    0    0    0    0  0.00000000000E+00  0.00000000000E+00  0.50000000000E+03  0.50000000000E+03  0.00000000000E+00 0.  1.
         11   -1    0    0    0    0 -0.00000000000E+00 -0.00000000000E+00 -0.50000000000E+03  0.50000000000E+03  0.00000000000E+00 0. -1.
         23    2    1    2    0    0 -0.10175433994E+01 -0.10208045932E+03 -0.27369831081E+03  0.30489955294E+03  0.87358551233E+02 0.  0.
        -11    1    1    2    0    0 -0.72827102843E+02  0.19619567471E+03  0.44175257559E+03  0.48881680385E+03  0.00000000000E+00 0.  1.
         11    1    1    2    0    0  0.73844646242E+02 -0.94115215390E+02 -0.16805426478E+03  0.20628364321E+03  0.00000000000E+00 0. -1.
        -15    1    3    3    0    0  0.28613446790E+02 -0.87718837782E+01 -0.11128989601E+03  0.11525742477E+03  0.17770000000E+01 0.  1.
         15    1    3    3    0    0 -0.29630990189E+02 -0.93308575546E+02 -0.16240841480E+03  0.18964212817E+03  0.17770000000E+01 0. -1.
</event>
<event>
 7    1  0.2288857E-006  0.4019557E+03  0.7546771E-02  0.9650640E-01
        -11   -1    0    0    0    0  0.00000000000E+00  0.00000000000E+00  0.50000000000E+03  0.50000000000E+03  0.00000000000E+00 0.  1.
         11   -1    0    0    0    0 -0.00000000000E+00 -0.00000000000E+00 -0.50000000000E+03  0.50000000000E+03  0.00000000000E+00 0. -1.
         23    2    1    2    0    0  0.65399140555E+02  0.13257194317E+03  0.52163747086E+02  0.18094751391E+03  0.90380189084E+02 0.  0.
        -11    1    1    2    0    0 -0.15249595268E+03  0.95525264910E+02  0.32398833683E+03  0.37060563166E+03  0.00000000000E+00 0.  1.
         11    1    1    2    0    0  0.87096812121E+02 -0.22809720808E+03 -0.37615208391E+03  0.44844685443E+03  0.00000000000E+00 0. -1.
        -15    1    3    3    0    0  0.14693509617E+00  0.43466090378E+02 -0.21152401867E+02  0.48372558713E+02  0.17770000000E+01 0. -1.
         15    1    3    3    0    0  0.65252205459E+02  0.89105852791E+02  0.73316148953E+02  0.13257495520E+03  0.17770000000E+01 0.  1.
</event>
<event>
 6    1  0.2288857E-006  0.2538744E+03  0.7546771E-02  0.1022602E+00
        -11   -1    0    0    0    0  0.00000000000E+00  0.00000000000E+00  0.50000000000E+03  0.50000000000E+03  0.00000000000E+00 0. -1.
         11   -1    0    0    0    0 -0.00000000000E+00 -0.00000000000E+00 -0.50000000000E+03  0.50000000000E+03  0.00000000000E+00 0. -1.
        -11    1    1    2    0    0  0.17575586790E+03  0.26557553085E+03 -0.11720100091E+03  0.33934725916E+03  0.00000000000E+00 0. -1.
         11    1    1    2    0    0 -0.17367269044E+03 -0.62754414728E+02 -0.12737533601E+03  0.22433188850E+03  0.00000000000E+00 0. -1.
        -15    1    1    2    0    0  0.14511966949E+03 -0.10332301777E+03  0.16033354702E+03  0.23967763455E+03  0.17770000000E+01 0. -1.
         15    1    1    2    0    0 -0.14720284695E+03 -0.99498098347E+02  0.84242789906E+02  0.19664321779E+03  0.17770000000E+01 0.  1.
</event>
<event>
 7    1  0.2288857E-006  0.4840158E+03  0.7546771E-02  0.9436303E-01
        -11   -1    0    0    0    0  0.00000000000E+00  0.00000000000E+00  0.50000000000E+03  0.50000000000E+03  0.00000000000E+00 0.  1.
         11   -1    0    0    0    0 -0.00000000000E+00 -0.00000000000E+00 -0.50000000000E+03  0.50000000000E+03  0.00000000000E+00 0. -1.
         23    2    1    2    0    0 -0.92891340094E+02 -0.29317335180E+02  0.46585126662E+03  0.48399109670E+03  0.87986770992E+02 0.  0.
        -11    1    1    2    0    0 -0.29223711533E+02  0.25693823432E+02 -0.49918454906E+01  0.39231574015E+02  0.00000000000E+00 0.  1.
         11    1    1    2    0    0  0.12211505163E+03  0.36235117483E+01 -0.46085942113E+03  0.47677732928E+03  0.00000000000E+00 0. -1.
        -15    1    3    3    0    0 -0.63772777212E+02 -0.60690772352E+02  0.32993554975E+03  0.34148347205E+03  0.17770000000E+01 0.  1.
         15    1    3    3    0    0 -0.29118562883E+02  0.31373437172E+02  0.13591571687E+03  0.14250762466E+03  0.17770000000E+01 0. -1.
</event>
<event>
 7    1  0.2288857E-006  0.4156240E+03  0.7546771E-02  0.9611331E-01
        -11   -1    0    0    0    0  0.00000000000E+00  0.00000000000E+00  0.50000000000E+03  0.50000000000E+03  0.00000000000E+00 0. -1.
         11   -1    0    0    0    0 -0.00000000000E+00 -0.00000000000E+00 -0.50000000000E+03  0.50000000000E+03  0.00000000000E+00 0.  1.
         23    2    1    2    0    0  0.11428689943E+03  0.24786392068E+03 -0.25823499135E+03  0.38724493302E+03  0.93676618431E+02 0.  0.
        -11    1    1    2    0    0  0.14963336232E+02 -0.27659084005E+03  0.35389584848E+03  0.44940924089E+03  0.00000000000E+00 0. -1.
         11    1    1    2    0    0 -0.12925023566E+03  0.28726919369E+02 -0.95660857126E+02  0.16334582609E+03  0.00000000000E+00 0.  1.
        -15    1    3    3    0    0  0.12628601923E+03  0.23812475219E+03 -0.22718567308E+03  0.35251672874E+03  0.17770000000E+01 0.  1.
         15    1    3    3    0    0 -0.11999119802E+02  0.97391684857E+01 -0.31049318269E+02  0.34728204284E+02  0.17770000000E+01 0. -1.
</event>
<event>
 7    1  0.2288857E-006  0.4748901E+03  0.7546771E-02  0.9457817E-01
        -11   -1    0    0    0    0  0.00000000000E+00  0.00000000000E+00  0.50000000000E+03  0.50000000000E+03  0.00000000000E+00 0. -1.
         11   -1    0    0    0    0 -0.00000000000E+00 -0.00000000000E+00 -0.50000000000E+03  0.50000000000E+03  0.00000000000E+00 0. -1.
         23    2    1    2    0    0 -0.11282541468E+03  0.83873006428E+02  0.41628358030E+03  0.44882629172E+03  0.91590204231E+02 0.  0.
        -11    1    1    2    0    0 -0.15918624928E+02  0.29063821551E+02  0.46852818904E+02  0.57387237100E+02  0.00000000000E+00 0. -1.
         11    1    1    2    0    0  0.12874403961E+03 -0.11293682798E+03 -0.46313639920E+03  0.49378647118E+03  0.00000000000E+00 0. -1.
        -15    1    3    3    0    0  0.44907131982E+01  0.11005595936E+02  0.20735385932E+01  0.12196185397E+02  0.17770000000E+01 0.  1.
         15    1    3    3    0    0 -0.11731612788E+03  0.72867410491E+02  0.41421004171E+03  0.43663010633E+03  0.17770000000E+01 0. -1.
</event>
<event>
 7    1  0.2288857E-006  0.4524967E+03  0.7546771E-02  0.9512864E-01
        -11   -1    0    0    0    0  0.00000000000E+00  0.00000000000E+00  0.50000000000E+03  0.50000000000E+03  0.00000000000E+00 0.  1.
         11   -1    0    0    0    0 -0.00000000000E+00 -0.00000000000E+00 -0.50000000000E+03  0.50000000000E+03  0.00000000000E+00 0. -1.
         23    2    1    2    0    0  0.10594407000E+03  0.13953327549E+03 -0.35481615599E+03  0.41115981722E+03  0.11164322552E+03 0.  0.
        -11    1    1    2    0    0 -0.87834768318E+02 -0.14182638852E+03  0.45624224696E+03  0.48578458078E+03  0.00000000000E+00 0.  1.
         11    1    1    2    0    0 -0.18109301684E+02  0.22931130256E+01 -0.10142609097E+03  0.10305560200E+03  0.00000000000E+00 0. -1.
        -15    1    3    3    0    0  0.14754216113E+02  0.83529720536E+02 -0.23827550762E+03  0.25292939008E+03  0.17770000000E+01 0.  1.
         15    1    3    3    0    0  0.91189853889E+02  0.56003554959E+02 -0.11654064837E+03  0.15823042714E+03  0.17770000000E+01 0. -1.
</event>
<event>
 7    1  0.2288857E-006  0.5313614E+03  0.7546771E-02  0.9332247E-01
        -11   -1    0    0    0    0  0.00000000000E+00  0.00000000000E+00  0.50000000000E+03  0.50000000000E+03  0.00000000000E+00 0.  1.
         11   -1    0    0    0    0 -0.00000000000E+00 -0.00000000000E+00 -0.50000000000E+03  0.50000000000E+03  0.00000000000E+00 0. -1.
         23    2    1    2    0    0  0.80830899614E+02 -0.81401737985E+02  0.26775456170E+03  0.30508148375E+03  0.90677059601E+02 0.  0.
        -11    1    1    2    0    0  0.13742598196E+02  0.12314216675E+03  0.18934030764E+03  0.22627992473E+03  0.00000000000E+00 0.  1.
         11    1    1    2    0    0 -0.94573497811E+02 -0.41740428766E+02 -0.45709486934E+03  0.46863859152E+03  0.00000000000E+00 0. -1.
        -15    1    3    3    0    0  0.20442571955E+02 -0.33275496169E+02  0.16874041894E+02  0.42579906203E+02  0.17770000000E+01 0.  1.
         15    1    3    3    0    0  0.60388327660E+02 -0.48126241816E+02  0.25088051981E+03  0.26250157755E+03  0.17770000000E+01 0. -1.
</event>
<event>
 7    1  0.2288857E-006  0.4929881E+03  0.7546771E-02  0.9415637E-01
        -11   -1    0    0    0    0  0.00000000000E+00  0.00000000000E+00  0.50000000000E+03  0.50000000000E+03  0.00000000000E+00 0. -1.
         11   -1    0    0    0    0 -0.00000000000E+00 -0.00000000000E+00 -0.50000000000E+03  0.50000000000E+03  0.00000000000E+00 0.  1.
         23    2    1    2    0    0  0.47330912803E+02 -0.15856288897E+03  0.45063937636E+03  0.48998489136E+03  0.98116976986E+02 0.  0.
        -11    1    1    2    0    0 -0.21567266901E+02  0.23576492558E+01  0.92898171638E+01  0.23600979101E+02  0.00000000000E+00 0. -1.
         11    1    1    2    0    0 -0.25763645902E+02  0.15620523971E+03 -0.45992919352E+03  0.48641412954E+03  0.00000000000E+00 0.  1.
        -15    1    3    3    0    0  0.29347161845E+02 -0.15074980437E+03  0.44299465659E+03  0.46886478107E+03  0.17770000000E+01 0. -1.
         15    1    3    3    0    0  0.17983750958E+02 -0.78130845975E+01  0.76447197608E+01  0.21120110290E+02  0.17770000000E+01 0.  1.
</event>
<event>
 7    1  0.2288857E-006  0.5148015E+03  0.7546771E-02  0.9367286E-01
        -11   -1    0    0    0    0  0.00000000000E+00  0.00000000000E+00  0.50000000000E+03  0.50000000000E+03  0.00000000000E+00 0. -1.
         11   -1    0    0    0    0 -0.00000000000E+00 -0.00000000000E+00 -0.50000000000E+03  0.50000000000E+03  0.00000000000E+00 0. -1.
         23    2    1    2    0    0 -0.57897455330E+02 -0.11789826938E+03  0.26970916537E+03  0.31344135935E+03  0.90831352558E+02 0.  0.
        -11    1    1    2    0    0  0.44704912275E+02 -0.19897472307E+02  0.19532401942E+03  0.20136015283E+03  0.00000000000E+00 0. -1.
         11    1    1    2    0    0  0.13192543055E+02  0.13779574169E+03 -0.46503318479E+03  0.48519848782E+03  0.00000000000E+00 0. -1.
        -15    1    3    3    0    0 -0.41463546899E+02 -0.12088311297E+03  0.26754513659E+03  0.29650549837E+03  0.17770000000E+01 0. -1.
         15    1    3    3    0    0 -0.16433908431E+02  0.29848435829E+01  0.21640287827E+01  0.16935860979E+02  0.17770000000E+01 0.  1.
</event>
<event>
 7    1  0.2288857E-006  0.5368932E+03  0.7546771E-02  0.9320843E-01
        -11   -1    0    0    0    0  0.00000000000E+00  0.00000000000E+00  0.50000000000E+03  0.50000000000E+03  0.00000000000E+00 0.  1.
         11   -1    0    0    0    0 -0.00000000000E+00 -0.00000000000E+00 -0.50000000000E+03  0.50000000000E+03  0.00000000000E+00 0. -1.
         23    2    1    2    0    0 -0.19887755752E+03  0.18329461483E+02 -0.22722228633E+03  0.31721035063E+03  0.95415863970E+02 0.  0.
        -11    1    1    2    0    0  0.18595375912E+03  0.99206365827E+02  0.41236779848E+03  0.46310679630E+03  0.00000000000E+00 0.  1.
         11    1    1    2    0    0  0.12923798392E+02 -0.11753582731E+03 -0.18514551215E+03  0.21968285308E+03  0.00000000000E+00 0. -1.
        -15    1    3    3    0    0 -0.20668324332E+03  0.27451106314E+02 -0.20826873071E+03  0.29470417070E+03  0.17770000000E+01 0.  1.
         15    1    3    3    0    0  0.78056858026E+01 -0.91216448318E+01 -0.18953555615E+02  0.22506179924E+02  0.17770000000E+01 0. -1.
</event>
<event>
 7    1  0.2288857E-006  0.4675355E+03  0.7546771E-02  0.9475533E-01
        -11   -1    0    0    0    0  0.00000000000E+00  0.00000000000E+00  0.50000000000E+03  0.50000000000E+03  0.00000000000E+00 0.  1.
         11   -1    0    0    0    0 -0.00000000000E+00 -0.00000000000E+00 -0.50000000000E+03  0.50000000000E+03  0.00000000000E+00 0. -1.
         23    2    1    2    0    0  0.16296298113E+03 -0.17417731020E+02 -0.39305653557E+03  0.43529359732E+03  0.90148572586E+02 0.  0.
        -11    1    1    2    0    0 -0.17029365850E+03  0.30693645614E+02  0.46240400919E+03  0.49372006008E+03  0.00000000000E+00 0.  1.
         11    1    1    2    0    0  0.73306773683E+01 -0.13275914594E+02 -0.69347473624E+02  0.70986342609E+02  0.00000000000E+00 0. -1.
        -15    1    3    3    0    0 -0.10930456918E+02  0.16193424512E+01 -0.35714554983E+02  0.37427053384E+02  0.17770000000E+01 0.  1.
         15    1    3    3    0    0  0.17389343805E+03 -0.19037073471E+02 -0.35734198058E+03  0.39786654393E+03  0.17770000000E+01 0. -1.
</event>
<event>
 7    1  0.2288857E-006  0.4182640E+03  0.7546771E-02  0.9603924E-01
        -11   -1    0    0    0    0  0.00000000000E+00  0.00000000000E+00  0.50000000000E+03  0.50000000000E+03  0.00000000000E+00 0.  1.
         11   -1    0    0    0    0 -0.00000000000E+00 -0.00000000000E+00 -0.50000000000E+03  0.50000000000E+03  0.00000000000E+00 0. -1.
         23    2    1    2    0    0 -0.11110804849E+02  0.12599039486E+03  0.31226761391E+02  0.15338839939E+03  0.80968270686E+02 0.  0.
        -11    1    1    2    0    0  0.10354483774E+03 -0.10530902430E+03  0.38886924454E+03  0.41596972651E+03  0.00000000000E+00 0.  1.
         11    1    1    2    0    0 -0.92434032891E+02 -0.20681370559E+02 -0.42009600594E+03  0.43064187410E+03  0.00000000000E+00 0. -1.
        -15    1    3    3    0    0  0.11107043585E+02  0.43897565765E+02  0.48727070676E+02  0.66542075733E+02  0.17770000000E+01 0.  1.
         15    1    3    3    0    0 -0.22217848434E+02  0.82092829099E+02 -0.17500309284E+02  0.86846323656E+02  0.17770000000E+01 0. -1.
</event>
<event>
 7    1  0.2288857E-006  0.3448156E+03  0.7546771E-02  0.9835165E-01
        -11   -1    0    0    0    0  0.00000000000E+00  0.00000000000E+00  0.50000000000E+03  0.50000000000E+03  0.00000000000E+00 0.  1.
         11   -1    0    0    0    0 -0.00000000000E+00 -0.00000000000E+00 -0.50000000000E+03  0.50000000000E+03  0.00000000000E+00 0.  1.
         23    2    1    2    0    0  0.23430262787E+02  0.25384963391E+03  0.26521274269E+03  0.37892645336E+03  0.90878183978E+02 0.  0.
        -11    1    1    2    0    0 -0.99630120653E+02 -0.23956293315E+03  0.76642345144E+02  0.27053762945E+03  0.00000000000E+00 0.  1.
         11    1    1    2    0    0  0.76199857866E+02 -0.14286700758E+02 -0.34185508784E+03  0.35053591719E+03  0.00000000000E+00 0.  1.
        -15    1    3    3    0    0  0.35636746832E+02  0.22529735959E+03  0.18769095068E+03  0.29539791580E+03  0.17770000000E+01 0.  1.
         15    1    3    3    0    0 -0.12206484045E+02  0.28552274317E+02  0.77521792017E+02  0.83528537566E+02  0.17770000000E+01 0. -1.
</event>
<event>
 7    1  0.2288857E-006  0.5108680E+03  0.7546771E-02  0.9375815E-01
        -11   -1    0    0    0    0  0.00000000000E+00  0.00000000000E+00  0.50000000000E+03  0.50000000000E+03  0.00000000000E+00 0.  1.
         11   -1    0    0    0    0 -0.00000000000E+00 -0.00000000000E+00 -0.50000000000E+03  0.50000000000E+03  0.00000000000E+00 0. -1.
         23    2    1    2    0    0 -0.10463079134E+03 -0.17605324088E+02  0.34325659790E+03  0.37117407362E+03  0.93207032978E+02 0.  0.
        -11    1    1    2    0    0 -0.66343546085E+02  0.45599846946E+02  0.11416467664E+03  0.13969389944E+03  0.00000000000E+00 0.  1.
         11    1    1    2    0    0  0.17097433742E+03 -0.27994522858E+02 -0.45742127454E+03  0.48913202693E+03  0.00000000000E+00 0. -1.
        -15    1    3    3    0    0 -0.10580363696E+03 -0.43853935979E+02  0.26841823896E+03  0.29183743083E+03  0.17770000000E+01 0.  1.
         15    1    3    3    0    0  0.11728456200E+01  0.26248611891E+02  0.74838358936E+02  0.79336642797E+02  0.17770000000E+01 0. -1.
</event>
<event>
 7    1  0.2288857E-006  0.5306329E+03  0.7546771E-02  0.9333760E-01
        -11   -1    0    0    0    0  0.00000000000E+00  0.00000000000E+00  0.50000000000E+03  0.50000000000E+03  0.00000000000E+00 0. -1.
         11   -1    0    0    0    0 -0.00000000000E+00 -0.00000000000E+00 -0.50000000000E+03  0.50000000000E+03  0.00000000000E+00 0. -1.
         23    2    1    2    0    0 -0.13822864674E+03  0.11454441053E+03 -0.18399142114E+03  0.26946701659E+03  0.80821093865E+02 0.  0.
        -11    1    1    2    0    0  0.14168324606E+03 -0.71987712331E+02  0.44164358459E+03  0.46936705120E+03  0.00000000000E+00 0. -1.
         11    1    1    2    0    0 -0.34545993256E+01 -0.42556698201E+02 -0.25765216345E+03  0.26116593221E+03  0.00000000000E+00 0. -1.
        -15    1    3    3    0    0 -0.25781992084E+02  0.19781149131E+02  0.17058972221E+01  0.32589458282E+02  0.17770000000E+01 0. -1.
         15    1    3    3    0    0 -0.11244665465E+03  0.94763261401E+02 -0.18569731836E+03  0.23687755831E+03  0.17770000000E+01 0.  1.
</event>
<event>
 7    1  0.2288857E-006  0.5175213E+03  0.7546771E-02  0.9361436E-01
        -11   -1    0    0    0    0  0.00000000000E+00  0.00000000000E+00  0.50000000000E+03  0.50000000000E+03  0.00000000000E+00 0.  1.
         11   -1    0    0    0    0 -0.00000000000E+00 -0.00000000000E+00 -0.50000000000E+03  0.50000000000E+03  0.00000000000E+00 0. -1.
         23    2    1    2    0    0  0.38614989404E+02 -0.37647451414E+01  0.18302638898E+03  0.20940532012E+03  0.94056569793E+02 0.  0.
        -11    1    1    2    0    0  0.11970384090E+03  0.11820306485E+03  0.25813654012E+03  0.30811596422E+03  0.00000000000E+00 0.  1.
         11    1    1    2    0    0 -0.15831883031E+03 -0.11443831971E+03 -0.44116292910E+03  0.48247871565E+03  0.00000000000E+00 0. -1.
        -15    1    3    3    0    0  0.62851947091E+02  0.18503972171E+02  0.14471458070E+03  0.15886545199E+03  0.17770000000E+01 0.  1.
         15    1    3    3    0    0 -0.24236957687E+02 -0.22268717313E+02  0.38311808280E+02  0.50539868137E+02  0.17770000000E+01 0. -1.
</event>
<event>
 7    1  0.2288857E-006  0.4279923E+03  0.7546771E-02  0.9577127E-01
        -11   -1    0    0    0    0  0.00000000000E+00  0.00000000000E+00  0.50000000000E+03  0.50000000000E+03  0.00000000000E+00 0.  1.
         11   -1    0    0    0    0 -0.00000000000E+00 -0.00000000000E+00 -0.50000000000E+03  0.50000000000E+03  0.00000000000E+00 0. -1.
         23    2    1    2    0    0  0.84257330811E+01  0.62788421980E+02  0.81877906143E+02  0.13777795664E+03  0.90914217317E+02 0.  0.
        -11    1    1    2    0    0 -0.49229416964E+02 -0.20315615132E+03  0.34922724894E+03  0.40700814330E+03  0.00000000000E+00 0.  1.
         11    1    1    2    0    0  0.40803683883E+02  0.14036772934E+03 -0.43110515509E+03  0.45521390005E+03  0.00000000000E+00 0. -1.
        -15    1    3    3    0    0  0.54900242390E+01  0.42494534272E+02 -0.96563384669E+01  0.43958257594E+02  0.17770000000E+01 0.  1.
         15    1    3    3    0    0  0.29357088420E+01  0.20293887708E+02  0.91534244610E+02  0.93819699051E+02  0.17770000000E+01 0. -1.
</event>
<event>
 7    1  0.2288857E-006  0.5311009E+03  0.7546771E-02  0.9332788E-01
        -11   -1    0    0    0    0  0.00000000000E+00  0.00000000000E+00  0.50000000000E+03  0.50000000000E+03  0.00000000000E+00 0.  1.
         11   -1    0    0    0    0 -0.00000000000E+00 -0.00000000000E+00 -0.50000000000E+03  0.50000000000E+03  0.00000000000E+00 0. -1.
         23    2    1    2    0    0  0.64483587565E+01 -0.12329169241E+03 -0.12730107901E+03  0.20978418943E+03  0.11207773495E+03 0.  0.
        -11    1    1    2    0    0  0.67642539569E+02  0.15103078409E+03  0.43872605252E+03  0.46889909369E+03  0.00000000000E+00 0.  1.
         11    1    1    2    0    0 -0.74090898325E+02 -0.27739091681E+02 -0.31142497351E+03  0.32131671688E+03  0.00000000000E+00 0. -1.
        -15    1    3    3    0    0 -0.38288554082E+02 -0.61634209248E+02 -0.15067489254E+02  0.74128105903E+02  0.17770000000E+01 0.  1.
         15    1    3    3    0    0  0.44736912839E+02 -0.61657483161E+02 -0.11223358975E+03  0.13565608353E+03  0.17770000000E+01 0. -1.
</event>
<event>
 7    1  0.2288857E-006  0.3094193E+03  0.7546771E-02  0.9969907E-01
        -11   -1    0    0    0    0  0.00000000000E+00  0.00000000000E+00  0.50000000000E+03  0.50000000000E+03  0.00000000000E+00 0.  1.
         11   -1    0    0    0    0 -0.00000000000E+00 -0.00000000000E+00 -0.50000000000E+03  0.50000000000E+03  0.00000000000E+00 0. -1.
         23    2    1    2    0    0  0.18014658508E+03  0.33933495988E+02  0.29027418012E+03  0.35467544802E+03  0.89057843646E+02 0.  0.
        -11    1    1    2    0    0 -0.31133468894E+03  0.57077412486E+02 -0.28574916052E+01  0.31653638782E+03  0.00000000000E+00 0.  1.
         11    1    1    2    0    0  0.13118810386E+03 -0.91010908475E+02 -0.28741668852E+03  0.32878816416E+03  0.00000000000E+00 0. -1.
        -15    1    3    3    0    0  0.12295737963E+03 -0.71761644531E+01  0.12737633988E+03  0.17719453781E+03  0.17770000000E+01 0. -1.
         15    1    3    3    0    0  0.57189205457E+02  0.41109660442E+02  0.16289784025E+03  0.17748091021E+03  0.17770000000E+01 0.  1.
</event>
<event>
 7    1  0.2288857E-006  0.5204988E+03  0.7546771E-02  0.9355075E-01
        -11   -1    0    0    0    0  0.00000000000E+00  0.00000000000E+00  0.50000000000E+03  0.50000000000E+03  0.00000000000E+00 0. -1.
         11   -1    0    0    0    0 -0.00000000000E+00 -0.00000000000E+00 -0.50000000000E+03  0.50000000000E+03  0.00000000000E+00 0.  1.
         23    2    1    2    0    0 -0.43093218047E+02 -0.10964248014E+02  0.37045162313E+03  0.38426454763E+03  0.91910811701E+02 0.  0.
        -11    1    1    2    0    0 -0.83460361938E+02  0.59945408913E+02  0.89446624856E+02  0.13623429364E+03  0.00000000000E+00 0. -1.
         11    1    1    2    0    0  0.12655357998E+03 -0.48981160900E+02 -0.45989824798E+03  0.47950115874E+03  0.00000000000E+00 0.  1.
        -15    1    3    3    0    0 -0.64601099420E+02 -0.29147519663E+02  0.21846407976E+03  0.22967932389E+03  0.17770000000E+01 0.  1.
         15    1    3    3    0    0  0.21507881373E+02  0.18183271649E+02  0.15198754337E+03  0.15458522373E+03  0.17770000000E+01 0. -1.
</event>
<event>
 7    1  0.2655181E-006  0.5120872E+03  0.7546771E-02  0.9373163E-01
        -11   -1    0    0    0    0  0.00000000000E+00  0.00000000000E+00  0.50000000000E+03  0.50000000000E+03  0.00000000000E+00 0.  1.
         11   -1    0    0    0    0 -0.00000000000E+00 -0.00000000000E+00 -0.50000000000E+03  0.50000000000E+03  0.00000000000E+00 0. -1.
         23    2    1    2    0    0 -0.54463668386E+02 -0.20701745203E+02 -0.16917739322E+03  0.20061311229E+03  0.90718118473E+02 0.  0.
        -11    1    1    2    0    0  0.18450565710E+03  0.10571364721E+03  0.43913691002E+03  0.48791283899E+03  0.00000000000E+00 0.  1.
         11    1    1    2    0    0 -0.13004198872E+03 -0.85011902003E+02 -0.26995951680E+03  0.31147404872E+03  0.00000000000E+00 0. -1.
        -15    1    3    3    0    0 -0.60530004318E+02  0.12609153766E+02 -0.59547570951E+02  0.85860020478E+02  0.17770000000E+01 0.  1.
         15    1    3    3    0    0  0.60663359312E+01 -0.33310898969E+02 -0.10962982227E+03  0.11475309181E+03  0.17770000000E+01 0. -1.
</event>
<event>
 7    1  0.2288857E-006  0.5101207E+03  0.7546771E-02  0.9377444E-01
        -11   -1    0    0    0    0  0.00000000000E+00  0.00000000000E+00  0.50000000000E+03  0.50000000000E+03  0.00000000000E+00 0.  1.
         11   -1    0    0    0    0 -0.00000000000E+00 -0.00000000000E+00 -0.50000000000E+03  0.50000000000E+03  0.00000000000E+00 0.  1.
         23    2    1    2    0    0 -0.76576985283E+02  0.88792217904E+02  0.46641570933E+03  0.48987928145E+03  0.93220190165E+02 0.  0.
        -11    1    1    2    0    0  0.88062193328E+02 -0.10687977687E+02 -0.93281986343E+02  0.12872727658E+03  0.00000000000E+00 0.  1.
         11    1    1    2    0    0 -0.11485208045E+02 -0.78104240218E+02 -0.37313372298E+03  0.38139344196E+03  0.00000000000E+00 0.  1.
        -15    1    3    3    0    0 -0.90301428062E+02  0.62036973077E+02  0.42351331496E+03  0.43745813470E+03  0.17770000000E+01 0.  1.
         15    1    3    3    0    0  0.13724442779E+02  0.26755244827E+02  0.42902394365E+02  0.52421146750E+02  0.17770000000E+01 0. -1.
</event>
<event>
 7    1  0.2288857E-006  0.5140181E+03  0.7546771E-02  0.9368978E-01
        -11   -1    0    0    0    0  0.00000000000E+00  0.00000000000E+00  0.50000000000E+03  0.50000000000E+03  0.00000000000E+00 0. -1.
         11   -1    0    0    0    0 -0.00000000000E+00 -0.00000000000E+00 -0.50000000000E+03  0.50000000000E+03  0.00000000000E+00 0.  1.
         23    2    1    2    0    0 -0.10117940841E+03  0.33565104959E+01  0.15984913680E+03  0.20956598706E+03  0.90097822110E+02 0.  0.
        -11    1    1    2    0    0 -0.22607254571E+03 -0.59658298153E+02  0.19499539137E+03  0.30445214914E+03  0.00000000000E+00 0. -1.
         11    1    1    2    0    0  0.32725195412E+03  0.56301787657E+02 -0.35484452817E+03  0.48598186380E+03  0.00000000000E+00 0.  1.
        -15    1    3    3    0    0 -0.77865673064E+02  0.30022103345E+02  0.15174367819E+03  0.17318686824E+03  0.17770000000E+01 0. -1.
         15    1    3    3    0    0 -0.23313735344E+02 -0.26665592849E+02  0.81054586025E+01  0.36379118816E+02  0.17770000000E+01 0.  1.
</event>
<event>
 7    1  0.2288857E-006  0.4412979E+03  0.7546771E-02  0.9541680E-01
        -11   -1    0    0    0    0  0.00000000000E+00  0.00000000000E+00  0.50000000000E+03  0.50000000000E+03  0.00000000000E+00 0.  1.
         11   -1    0    0    0    0 -0.00000000000E+00 -0.00000000000E+00 -0.50000000000E+03  0.50000000000E+03  0.00000000000E+00 0.  1.
         23    2    1    2    0    0 -0.19573330381E+02  0.12349469901E+02  0.43870106252E+03  0.44872804683E+03  0.91447324120E+02 0.  0.
        -11    1    1    2    0    0 -0.97163481011E+02  0.62078226627E+02 -0.29115158925E+02  0.11892073302E+03  0.00000000000E+00 0.  1.
         11    1    1    2    0    0  0.11673681139E+03 -0.74427696528E+02 -0.40958590359E+03  0.43235122015E+03  0.00000000000E+00 0.  1.
        -15    1    3    3    0    0 -0.28682395856E+02  0.48844194088E+02  0.26538686601E+03  0.27137019274E+03  0.17770000000E+01 0.  1.
         15    1    3    3    0    0  0.91090654750E+01 -0.36494724187E+02  0.17331419651E+03  0.17735785409E+03  0.17770000000E+01 0. -1.
</event>
<event>
 7    1  0.2288857E-006  0.5203529E+03  0.7546771E-02  0.9355386E-01
        -11   -1    0    0    0    0  0.00000000000E+00  0.00000000000E+00  0.50000000000E+03  0.50000000000E+03  0.00000000000E+00 0.  1.
         11   -1    0    0    0    0 -0.00000000000E+00 -0.00000000000E+00 -0.50000000000E+03  0.50000000000E+03  0.00000000000E+00 0. -1.
         23    2    1    2    0    0 -0.13606094563E+03  0.20097389273E+02  0.37469674906E+03  0.40913030641E+03  0.89852478431E+02 0.  0.
        -11    1    1    2    0    0  0.32792338196E+02 -0.52150753233E+02  0.92603543028E+02  0.11122254577E+03  0.00000000000E+00 0.  1.
         11    1    1    2    0    0  0.10326860743E+03  0.32053363960E+02 -0.46730029209E+03  0.47964714782E+03  0.00000000000E+00 0. -1.
        -15    1    3    3    0    0 -0.11475846373E+03  0.51840104525E+02  0.29267135932E+03  0.31861667209E+03  0.17770000000E+01 0.  1.
         15    1    3    3    0    0 -0.21302481902E+02 -0.31742715252E+02  0.82025389742E+02  0.90513634321E+02  0.17770000000E+01 0. -1.
</event>
<event>
 7    1  0.2288857E-006  0.4066610E+03  0.7546771E-02  0.9636922E-01
        -11   -1    0    0    0    0  0.00000000000E+00  0.00000000000E+00  0.50000000000E+03  0.50000000000E+03  0.00000000000E+00 0. -1.
         11   -1    0    0    0    0 -0.00000000000E+00 -0.00000000000E+00 -0.50000000000E+03  0.50000000000E+03  0.00000000000E+00 0.  1.
         23    2    1    2    0    0  0.11711155613E+03 -0.81982397234E+02  0.26875824427E+02  0.17377297254E+03  0.95071057693E+02 0.  0.
        -11    1    1    2    0    0  0.36486443917E+02  0.14332295750E+03  0.36881389372E+03  0.39736182370E+03  0.00000000000E+00 0. -1.
         11    1    1    2    0    0 -0.15359800004E+03 -0.61340560265E+02 -0.39568971815E+03  0.42886520376E+03  0.00000000000E+00 0.  1.
        -15    1    3    3    0    0  0.99767421136E+02 -0.54898941621E+02 -0.21258684915E+02  0.11585560636E+03  0.17770000000E+01 0.  1.
         15    1    3    3    0    0  0.17344134992E+02 -0.27083455613E+02  0.48134509342E+02  0.57917366179E+02  0.17770000000E+01 0. -1.
</event>
<event>
 7    1  0.2288857E-006  0.4706760E+03  0.7546771E-02  0.9467926E-01
        -11   -1    0    0    0    0  0.00000000000E+00  0.00000000000E+00  0.50000000000E+03  0.50000000000E+03  0.00000000000E+00 0. -1.
         11   -1    0    0    0    0 -0.00000000000E+00 -0.00000000000E+00 -0.50000000000E+03  0.50000000000E+03  0.00000000000E+00 0.  1.
         23    2    1    2    0    0 -0.10528282957E+03  0.93757342102E+01  0.44847593188E+03  0.46980124485E+03  0.91706976834E+02 0.  0.
        -11    1    1    2    0    0  0.46922469513E+02  0.44523622681E+02  0.95047913601E+01  0.65378988831E+02  0.00000000000E+00 0. -1.
         11    1    1    2    0    0  0.58360360053E+02 -0.53899356891E+02 -0.45798072324E+03  0.46481976631E+03  0.00000000000E+00 0.  1.
        -15    1    3    3    0    0 -0.33693644265E+02  0.46419547604E+02  0.22581303826E+03  0.23299081965E+03  0.17770000000E+01 0. -1.
         15    1    3    3    0    0 -0.71589185301E+02 -0.37043813394E+02  0.22266289362E+03  0.23681042521E+03  0.17770000000E+01 0.  1.
</event>
<event>
 7    1  0.2288857E-006  0.4123787E+03  0.7546771E-02  0.9620517E-01
        -11   -1    0    0    0    0  0.00000000000E+00  0.00000000000E+00  0.50000000000E+03  0.50000000000E+03  0.00000000000E+00 0. -1.
         11   -1    0    0    0    0 -0.00000000000E+00 -0.00000000000E+00 -0.50000000000E+03  0.50000000000E+03  0.00000000000E+00 0.  1.
         23    2    1    2    0    0 -0.35455850748E+03  0.23642279919E+03 -0.15333699256E+02  0.44289440227E+03  0.11963634073E+03 0.  0.
        -11    1    1    2    0    0  0.31555775010E+03 -0.14651259035E+03  0.15954089065E+03  0.38274786553E+03  0.00000000000E+00 0. -1.
         11    1    1    2    0    0  0.39000757378E+02 -0.89910208844E+02 -0.14420719139E+03  0.17435773220E+03  0.00000000000E+00 0.  1.
        -15    1    3    3    0    0 -0.34860795974E+03  0.20871091150E+03  0.76100558747E+01  0.40638506968E+03  0.17770000000E+01 0. -1.
         15    1    3    3    0    0 -0.59505477354E+01  0.27711887691E+02 -0.22943755131E+02  0.36509332591E+02  0.17770000000E+01 0.  1.
</event>
<event>
 7    1  0.2288857E-006  0.5391989E+03  0.7546771E-02  0.9316133E-01
        -11   -1    0    0    0    0  0.00000000000E+00  0.00000000000E+00  0.50000000000E+03  0.50000000000E+03  0.00000000000E+00 0. -1.
         11   -1    0    0    0    0 -0.00000000000E+00 -0.00000000000E+00 -0.50000000000E+03  0.50000000000E+03  0.00000000000E+00 0.  1.
         23    2    1    2    0    0 -0.15233884830E+02 -0.34603673911E+01 -0.10581194351E+02  0.93357306668E+02  0.91430736871E+02 0.  0.
        -11    1    1    2    0    0  0.14608889990E+03  0.36327829454E+02  0.43551810548E+03  0.46080114808E+03  0.00000000000E+00 0. -1.
         11    1    1    2    0    0 -0.13085501507E+03 -0.32867462063E+02 -0.42493691113E+03  0.44584154525E+03  0.00000000000E+00 0.  1.
        -15    1    3    3    0    0 -0.10851520087E+02  0.43540092151E+02  0.18787138270E+00  0.44907551006E+02  0.17770000000E+01 0. -1.
         15    1    3    3    0    0 -0.43823647428E+01 -0.47000459542E+02 -0.10769065734E+02  0.48449755662E+02  0.17770000000E+01 0.  1.
</event>
<event>
 7    1  0.2288857E-006  0.5215510E+03  0.7546771E-02  0.9352838E-01
        -11   -1    0    0    0    0  0.00000000000E+00  0.00000000000E+00  0.50000000000E+03  0.50000000000E+03  0.00000000000E+00 0.  1.
         11   -1    0    0    0    0 -0.00000000000E+00 -0.00000000000E+00 -0.50000000000E+03  0.50000000000E+03  0.00000000000E+00 0. -1.
         23    2    1    2    0    0 -0.11893564083E+03 -0.91625009246E+02  0.34245667707E+03  0.38525684367E+03  0.92765462039E+02 0.  0.
        -11    1    1    2    0    0  0.39001891759E+02  0.34899894685E+02  0.12584488004E+03  0.13629410861E+03  0.00000000000E+00 0.  1.
         11    1    1    2    0    0  0.79933749067E+02  0.56725114561E+02 -0.46830155711E+03  0.47844904771E+03  0.00000000000E+00 0. -1.
        -15    1    3    3    0    0 -0.51464557393E+02  0.69960764122E+00  0.52413951310E+02  0.73481086951E+02  0.17770000000E+01 0. -1.
         15    1    3    3    0    0 -0.67471083432E+02 -0.92324616888E+02  0.29004272576E+03  0.31177575672E+03  0.17770000000E+01 0.  1.
</event>
<event>
 7    1  0.2288857E-006  0.4536332E+03  0.7546771E-02  0.9509989E-01
        -11   -1    0    0    0    0  0.00000000000E+00  0.00000000000E+00  0.50000000000E+03  0.50000000000E+03  0.00000000000E+00 0.  1.
         11   -1    0    0    0    0 -0.00000000000E+00 -0.00000000000E+00 -0.50000000000E+03  0.50000000000E+03  0.00000000000E+00 0. -1.
         23    2    1    2    0    0 -0.39797414386E+02  0.36251923355E+02  0.43915865721E+03  0.45194803747E+03  0.92188210920E+02 0.  0.
        -11    1    1    2    0    0 -0.18359575413E+02 -0.95128285065E+02  0.42594732899E+01  0.96977356849E+02  0.00000000000E+00 0.  1.
         11    1    1    2    0    0  0.58156989800E+02  0.58876361710E+02 -0.44341813050E+03  0.45107460568E+03  0.00000000000E+00 0. -1.
        -15    1    3    3    0    0  0.26622084655E+01 -0.28283128264E+02  0.14788058668E+03  0.15059498114E+03  0.17770000000E+01 0. -1.
         15    1    3    3    0    0 -0.42459622852E+02  0.64535051619E+02  0.29127807053E+03  0.30135305633E+03  0.17770000000E+01 0.  1.
</event>
<event>
 7    1  0.2288857E-006  0.5100156E+03  0.7546771E-02  0.9377674E-01
        -11   -1    0    0    0    0  0.00000000000E+00  0.00000000000E+00  0.50000000000E+03  0.50000000000E+03  0.00000000000E+00 0.  1.
         11   -1    0    0    0    0 -0.00000000000E+00 -0.00000000000E+00 -0.50000000000E+03  0.50000000000E+03  0.00000000000E+00 0. -1.
         23    2    1    2    0    0  0.16384370514E+02  0.37490260670E+02  0.22674581105E+03  0.24815640117E+03  0.92162733077E+02 0.  0.
        -11    1    1    2    0    0 -0.26772564498E+02  0.64058376428E+02  0.25248761105E+03  0.26185919792E+03  0.00000000000E+00 0.  1.
         11    1    1    2    0    0  0.10388193984E+02 -0.10154863710E+03 -0.47923342211E+03  0.48998440091E+03  0.00000000000E+00 0. -1.
        -15    1    3    3    0    0  0.51944612444E+02  0.35876827848E+02  0.16757171067E+03  0.17907770795E+03  0.17770000000E+01 0.  1.
         15    1    3    3    0    0 -0.35560241930E+02  0.16134328218E+01  0.59174100379E+02  0.69078693215E+02  0.17770000000E+01 0. -1.
</event>
<event>
 7    1  0.2288857E-006  0.3834380E+03  0.7546771E-02  0.9706643E-01
        -11   -1    0    0    0    0  0.00000000000E+00  0.00000000000E+00  0.50000000000E+03  0.50000000000E+03  0.00000000000E+00 0. -1.
         11   -1    0    0    0    0 -0.00000000000E+00 -0.00000000000E+00 -0.50000000000E+03  0.50000000000E+03  0.00000000000E+00 0.  1.
         23    2    1    2    0    0 -0.32732204336E+02 -0.16629175016E+03 -0.82483042670E+02  0.21029967957E+03  0.93263924052E+02 0.  0.
        -11    1    1    2    0    0  0.12816976471E+02  0.83655632079E+02  0.42676729596E+03  0.43507799826E+03  0.00000000000E+00 0. -1.
         11    1    1    2    0    0  0.19915227865E+02  0.82636118079E+02 -0.34428425329E+03  0.35462232217E+03  0.00000000000E+00 0.  1.
        -15    1    3    3    0    0  0.71018612756E+01 -0.14572994714E+03 -0.77338611738E+02  0.16514258240E+03  0.17770000000E+01 0. -1.
         15    1    3    3    0    0 -0.39834065611E+02 -0.20561803014E+02 -0.51444309316E+01  0.45157097171E+02  0.17770000000E+01 0.  1.
</event>
<event>
 7    1  0.2288857E-006  0.5122826E+03  0.7546771E-02  0.9372738E-01
        -11   -1    0    0    0    0  0.00000000000E+00  0.00000000000E+00  0.50000000000E+03  0.50000000000E+03  0.00000000000E+00 0. -1.
         11   -1    0    0    0    0 -0.00000000000E+00 -0.00000000000E+00 -0.50000000000E+03  0.50000000000E+03  0.00000000000E+00 0.  1.
         23    2    1    2    0    0 -0.61223427931E+02 -0.89748589572E+02 -0.93665169998E+02  0.16794146010E+03  0.87338722753E+02 0.  0.
        -11    1    1    2    0    0  0.21505957583E+03  0.29555313556E+03  0.32290246483E+03  0.48771741704E+03  0.00000000000E+00 0. -1.
         11    1    1    2    0    0 -0.15383614790E+03 -0.20580454599E+03 -0.22923729483E+03  0.34434112286E+03  0.00000000000E+00 0.  1.
        -15    1    3    3    0    0 -0.59817392758E+02 -0.13005942884E+02 -0.29956696518E+02  0.68175042515E+02  0.17770000000E+01 0.  1.
         15    1    3    3    0    0 -0.14060351732E+01 -0.76742646688E+02 -0.63708473480E+02  0.99766417585E+02  0.17770000000E+01 0. -1.
</event>
<event>
 7    1  0.2288857E-006  0.4939536E+03  0.7546771E-02  0.9413442E-01
        -11   -1    0    0    0    0  0.00000000000E+00  0.00000000000E+00  0.50000000000E+03  0.50000000000E+03  0.00000000000E+00 0.  1.
         11   -1    0    0    0    0 -0.00000000000E+00 -0.00000000000E+00 -0.50000000000E+03  0.50000000000E+03  0.00000000000E+00 0. -1.
         23    2    1    2    0    0  0.71305232018E+02 -0.84135993716E+02  0.46349128969E+03  0.48520443076E+03  0.91846951312E+02 0.  0.
        -11    1    1    2    0    0  0.55291101078E+01 -0.12695823404E+02  0.15106090805E+02  0.20492656487E+02  0.00000000000E+00 0.  1.
         11    1    1    2    0    0 -0.76834342126E+02  0.96831817120E+02 -0.47859738049E+03  0.49430291275E+03  0.00000000000E+00 0. -1.
        -15    1    3    3    0    0  0.33087391604E+02 -0.62147333992E+02  0.40931861153E+03  0.41533354076E+03  0.17770000000E+01 0.  1.
         15    1    3    3    0    0  0.38217840415E+02 -0.21988659724E+02  0.54172678159E+02  0.69870890007E+02  0.17770000000E+01 0. -1.
</event>
<event>
 7    1  0.2288857E-006  0.5385175E+03  0.7546771E-02  0.9317522E-01
        -11   -1    0    0    0    0  0.00000000000E+00  0.00000000000E+00  0.50000000000E+03  0.50000000000E+03  0.00000000000E+00 0.  1.
         11   -1    0    0    0    0 -0.00000000000E+00 -0.00000000000E+00 -0.50000000000E+03  0.50000000000E+03  0.00000000000E+00 0. -1.
         23    2    1    2    0    0 -0.29526432055E+02  0.10478739484E+03  0.18152027578E+03  0.23260211073E+03  0.96446477840E+02 0.  0.
        -11    1    1    2    0    0 -0.26183763253E+03  0.84400871790E+01  0.15796848647E+03  0.30591538634E+03  0.00000000000E+00 0.  1.
         11    1    1    2    0    0  0.29136406459E+03 -0.11322748202E+03 -0.33948876225E+03  0.46148250293E+03  0.00000000000E+00 0. -1.
        -15    1    3    3    0    0  0.66783719556E+01  0.86843772059E+02  0.16921657410E+03  0.19032563694E+03  0.17770000000E+01 0.  1.
         15    1    3    3    0    0 -0.36204804011E+02  0.17943622784E+02  0.12303701684E+02  0.42276473791E+02  0.17770000000E+01 0. -1.
</event>
<event>
 7    1  0.2288857E-006  0.5108066E+03  0.7546771E-02  0.9375949E-01
        -11   -1    0    0    0    0  0.00000000000E+00  0.00000000000E+00  0.50000000000E+03  0.50000000000E+03  0.00000000000E+00 0. -1.
         11   -1    0    0    0    0 -0.00000000000E+00 -0.00000000000E+00 -0.50000000000E+03  0.50000000000E+03  0.00000000000E+00 0.  1.
         23    2    1    2    0    0 -0.99465141231E+02 -0.46378716279E+02 -0.37024950772E+03  0.39673777639E+03  0.90949797169E+02 0.  0.
        -11    1    1    2    0    0  0.10466969155E+03  0.86877376204E+01  0.47778551009E+03  0.48919343287E+03  0.00000000000E+00 0. -1.
         11    1    1    2    0    0 -0.52045503144E+01  0.37690978658E+02 -0.10753600236E+03  0.11406879074E+03  0.00000000000E+00 0.  1.
        -15    1    3    3    0    0 -0.56421328946E+02 -0.20555612793E+02 -0.32036037620E+03  0.32594451667E+03  0.17770000000E+01 0.  1.
         15    1    3    3    0    0 -0.43043812284E+02 -0.25823103485E+02 -0.49889131522E+02  0.70793259726E+02  0.17770000000E+01 0. -1.
</event>
<event>
 7    1  0.2288857E-006  0.5133501E+03  0.7546771E-02  0.9370424E-01
        -11   -1    0    0    0    0  0.00000000000E+00  0.00000000000E+00  0.50000000000E+03  0.50000000000E+03  0.00000000000E+00 0. -1.
         11   -1    0    0    0    0 -0.00000000000E+00 -0.00000000000E+00 -0.50000000000E+03  0.50000000000E+03  0.00000000000E+00 0. -1.
         23    2    1    2    0    0 -0.87703985327E+02  0.29880776354E+02 -0.15578581463E+03  0.20299123441E+03  0.91385837893E+02 0.  0.
        -11    1    1    2    0    0  0.15245023758E+03 -0.85847317244E+02  0.45411158645E+03  0.48664994582E+03  0.00000000000E+00 0. -1.
         11    1    1    2    0    0 -0.64746252248E+02  0.55966540890E+02 -0.29832577182E+03  0.31035881977E+03  0.00000000000E+00 0. -1.
        -15    1    3    3    0    0 -0.15962067732E+02  0.14276102085E+02 -0.11886552978E+03  0.12079224559E+03  0.17770000000E+01 0. -1.
         15    1    3    3    0    0 -0.71741917596E+02  0.15604674269E+02 -0.36920284857E+02  0.82198988815E+02  0.17770000000E+01 0.  1.
</event>
<event>
 7    1  0.2288857E-006  0.4616451E+03  0.7546771E-02  0.9489974E-01
        -11   -1    0    0    0    0  0.00000000000E+00  0.00000000000E+00  0.50000000000E+03  0.50000000000E+03  0.00000000000E+00 0.  1.
         11   -1    0    0    0    0 -0.00000000000E+00 -0.00000000000E+00 -0.50000000000E+03  0.50000000000E+03  0.00000000000E+00 0. -1.
         23    2    1    2    0    0 -0.72484176712E+02  0.58696610960E+02  0.42902254397E+03  0.44876033922E+03  0.92877611965E+02 0.  0.
        -11    1    1    2    0    0 -0.79178507459E+02  0.21793597300E+02  0.72047900815E+01  0.82438497844E+02  0.00000000000E+00 0.  1.
         11    1    1    2    0    0  0.15166268417E+03 -0.80490208260E+02 -0.43622733406E+03  0.46880116294E+03  0.00000000000E+00 0. -1.
        -15    1    3    3    0    0 -0.11422010312E+02  0.60235122587E+02  0.29720241562E+03  0.30346526307E+03  0.17770000000E+01 0.  1.
         15    1    3    3    0    0 -0.61062166399E+02 -0.15385116272E+01  0.13182012836E+03  0.14529507615E+03  0.17770000000E+01 0. -1.
</event>
<event>
 7    1  0.2288857E-006  0.4059785E+03  0.7546771E-02  0.9638899E-01
        -11   -1    0    0    0    0  0.00000000000E+00  0.00000000000E+00  0.50000000000E+03  0.50000000000E+03  0.00000000000E+00 0. -1.
         11   -1    0    0    0    0 -0.00000000000E+00 -0.00000000000E+00 -0.50000000000E+03  0.50000000000E+03  0.00000000000E+00 0.  1.
         23    2    1    2    0    0 -0.19193860866E+03 -0.14650776662E+03  0.30802576141E+03  0.40135703134E+03  0.88896803879E+02 0.  0.
        -11    1    1    2    0    0  0.12570282160E+03  0.76074180649E+02  0.10103197859E+03  0.17831416382E+03  0.00000000000E+00 0. -1.
         11    1    1    2    0    0  0.66235787061E+02  0.70433585974E+02 -0.40905774000E+03  0.42032880484E+03  0.00000000000E+00 0.  1.
        -15    1    3    3    0    0 -0.17214310189E+03 -0.14109746412E+03  0.30889839700E+03  0.38074022549E+03  0.17770000000E+01 0. -1.
         15    1    3    3    0    0 -0.19795506775E+02 -0.54103025010E+01 -0.87263559032E+00  0.20616805851E+02  0.17770000000E+01 0.  1.
</event>
<event>
 7    1  0.2288857E-006  0.5271700E+03  0.7546771E-02  0.9340986E-01
        -11   -1    0    0    0    0  0.00000000000E+00  0.00000000000E+00  0.50000000000E+03  0.50000000000E+03  0.00000000000E+00 0.  1.
         11   -1    0    0    0    0 -0.00000000000E+00 -0.00000000000E+00 -0.50000000000E+03  0.50000000000E+03  0.00000000000E+00 0.  1.
         23    2    1    2    0    0  0.41723726437E+02 -0.65157072030E+02  0.11521546473E+03  0.16663872013E+03  0.92236361320E+02 0.  0.
        -11    1    1    2    0    0  0.95773659764E+02  0.86332339395E+02  0.33668525159E+03  0.36053130983E+03  0.00000000000E+00 0.  1.
         11    1    1    2    0    0 -0.13749738620E+03 -0.21175267365E+02 -0.45190071632E+03  0.47282997004E+03  0.00000000000E+00 0.  1.
        -15    1    3    3    0    0  0.47621674097E+02 -0.79673174171E+02  0.11849539701E+03  0.15053224029E+03  0.17770000000E+01 0.  1.
         15    1    3    3    0    0 -0.58979476599E+01  0.14516102141E+02 -0.32799322766E+01  0.16106479836E+02  0.17770000000E+01 0. -1.
</event>
<event>
 7    1  0.2288857E-006  0.5000928E+03  0.7546771E-02  0.9399602E-01
        -11   -1    0    0    0    0  0.00000000000E+00  0.00000000000E+00  0.50000000000E+03  0.50000000000E+03  0.00000000000E+00 0.  1.
         11   -1    0    0    0    0 -0.00000000000E+00 -0.00000000000E+00 -0.50000000000E+03  0.50000000000E+03  0.00000000000E+00 0. -1.
         23    2    1    2    0    0  0.18033486525E+02 -0.72771213024E+02  0.48599698938E+03  0.49990716131E+03  0.89962437513E+02 0.  0.
        -11    1    1    2    0    0 -0.19660183093E+01 -0.18655701631E+02 -0.35713914646E+02  0.40340849405E+02  0.00000000000E+00 0.  1.
         11    1    1    2    0    0 -0.16067468215E+02  0.91426914655E+02 -0.45028307473E+03  0.45975198928E+03  0.00000000000E+00 0. -1.
        -15    1    3    3    0    0  0.71648179432E+01 -0.90635856145E+02  0.44070652749E+03  0.44999066005E+03  0.17770000000E+01 0.  1.
         15    1    3    3    0    0  0.10868668581E+02  0.17864643121E+02  0.45290461893E+02  0.49916501260E+02  0.17770000000E+01 0. -1.
</event>
<event>
 7    1  0.2288857E-006  0.5218135E+03  0.7546771E-02  0.9352281E-01
        -11   -1    0    0    0    0  0.00000000000E+00  0.00000000000E+00  0.50000000000E+03  0.50000000000E+03  0.00000000000E+00 0. -1.
         11   -1    0    0    0    0 -0.00000000000E+00 -0.00000000000E+00 -0.50000000000E+03  0.50000000000E+03  0.00000000000E+00 0.  1.
         23    2    1    2    0    0  0.16988643213E+02 -0.47285459851E+02 -0.16694657020E+03  0.20131263049E+03  0.10065331183E+03 0.  0.
        -11    1    1    2    0    0 -0.11075040491E+03 -0.26406731122E+02  0.46443442013E+03  0.47818646807E+03  0.00000000000E+00 0. -1.
         11    1    1    2    0    0  0.93761761699E+02  0.73692190973E+02 -0.29748784993E+03  0.32050090144E+03  0.00000000000E+00 0.  1.
        -15    1    3    3    0    0 -0.41874969278E+02 -0.13706688172E+02 -0.55760815314E+02  0.71090172360E+02  0.17770000000E+01 0. -1.
         15    1    3    3    0    0  0.58863612491E+02 -0.33578771679E+02 -0.11118575489E+03  0.13022245813E+03  0.17770000000E+01 0.  1.
</event>
<event>
 7    1  0.2288857E-006  0.5249905E+03  0.7546771E-02  0.9345565E-01
        -11   -1    0    0    0    0  0.00000000000E+00  0.00000000000E+00  0.50000000000E+03  0.50000000000E+03  0.00000000000E+00 0. -1.
         11   -1    0    0    0    0 -0.00000000000E+00 -0.00000000000E+00 -0.50000000000E+03  0.50000000000E+03  0.00000000000E+00 0.  1.
         23    2    1    2    0    0 -0.12043525352E+02  0.25006748022E+02  0.88701411092E+02  0.12968748023E+03  0.90446217445E+02 0.  0.
        -11    1    1    2    0    0 -0.82223860883E+02 -0.12417004026E+03  0.36617692253E+03  0.39530304930E+03  0.00000000000E+00 0. -1.
         11    1    1    2    0    0  0.94267386235E+02  0.99163292235E+02 -0.45487833362E+03  0.47500947046E+03  0.00000000000E+00 0.  1.
        -15    1    3    3    0    0 -0.47855919226E+02  0.21219349352E+02  0.74198351862E+02  0.90824021822E+02  0.17770000000E+01 0. -1.
         15    1    3    3    0    0  0.35812393874E+02  0.37873986700E+01  0.14503059230E+02  0.38863458412E+02  0.17770000000E+01 0.  1.
</event>
<event>
 7    1  0.2288857E-006  0.4634444E+03  0.7546771E-02  0.9485539E-01
        -11   -1    0    0    0    0  0.00000000000E+00  0.00000000000E+00  0.50000000000E+03  0.50000000000E+03  0.00000000000E+00 0.  1.
         11   -1    0    0    0    0 -0.00000000000E+00 -0.00000000000E+00 -0.50000000000E+03  0.50000000000E+03  0.00000000000E+00 0. -1.
         23    2    1    2    0    0  0.88793725969E+02  0.50933668660E+02  0.41602313420E+03  0.43746282577E+03  0.88430262737E+02 0.  0.
        -11    1    1    2    0    0  0.13177129259E+02  0.63948126091E+02  0.43209690592E+02  0.78294807792E+02  0.00000000000E+00 0.  1.
         11    1    1    2    0    0 -0.10197085523E+03 -0.11488179475E+03 -0.45923282479E+03  0.48424236643E+03  0.00000000000E+00 0. -1.
        -15    1    3    3    0    0 -0.95214740836E+01 -0.13434343835E+02  0.73336180014E+02  0.75183063858E+02  0.17770000000E+01 0. -1.
         15    1    3    3    0    0  0.98315200052E+02  0.64368012495E+02  0.34268695419E+03  0.36227976192E+03  0.17770000000E+01 0.  1.
</event>
<event>
 7    1  0.2288857E-006  0.4088867E+03  0.7546771E-02  0.9630502E-01
        -11   -1    0    0    0    0  0.00000000000E+00  0.00000000000E+00  0.50000000000E+03  0.50000000000E+03  0.00000000000E+00 0.  1.
         11   -1    0    0    0    0 -0.00000000000E+00 -0.00000000000E+00 -0.50000000000E+03  0.50000000000E+03  0.00000000000E+00 0. -1.
         23    2    1    2    0    0  0.38438806753E+02 -0.14009242492E+03 -0.43718136095E+01  0.16941228310E+03  0.87051591177E+02 0.  0.
        -11    1    1    2    0    0  0.93754028682E+02  0.17701433516E+03  0.38060680975E+03  0.43009933315E+03  0.00000000000E+00 0.  1.
         11    1    1    2    0    0 -0.13219283544E+03 -0.36921910237E+02 -0.37623499614E+03  0.40048838375E+03  0.00000000000E+00 0. -1.
        -15    1    3    3    0    0  0.26163101429E+01  0.11125238554E+02 -0.78190920629E+01  0.13961086682E+02  0.17770000000E+01 0. -1.
         15    1    3    3    0    0  0.35822496610E+02 -0.15121766348E+03  0.34472784534E+01  0.15545119642E+03  0.17770000000E+01 0.  1.
</event>
<event>
 7    1  0.2288857E-006  0.5131902E+03  0.7546771E-02  0.9370770E-01
        -11   -1    0    0    0    0  0.00000000000E+00  0.00000000000E+00  0.50000000000E+03  0.50000000000E+03  0.00000000000E+00 0.  1.
         11   -1    0    0    0    0 -0.00000000000E+00 -0.00000000000E+00 -0.50000000000E+03  0.50000000000E+03  0.00000000000E+00 0. -1.
         23    2    1    2    0    0 -0.87451647090E+02 -0.49874748944E+02  0.35376468281E+03  0.37905411294E+03  0.91636720675E+02 0.  0.
        -11    1    1    2    0    0 -0.12845957887E+02  0.52904318146E+02  0.12259124004E+03  0.13413611612E+03  0.00000000000E+00 0.  1.
         11    1    1    2    0    0  0.10029760498E+03 -0.30295692026E+01 -0.47635592285E+03  0.48680977094E+03  0.00000000000E+00 0. -1.
        -15    1    3    3    0    0 -0.52014761962E+02  0.19795761755E+02  0.18209810320E+03  0.19042133431E+03  0.17770000000E+01 0. -1.
         15    1    3    3    0    0 -0.35436885128E+02 -0.69670510699E+02  0.17166657961E+03  0.18863277863E+03  0.17770000000E+01 0.  1.
</event>
<event>
 7    1  0.2288857E-006  0.3768461E+03  0.7546771E-02  0.9727401E-01
        -11   -1    0    0    0    0  0.00000000000E+00  0.00000000000E+00  0.50000000000E+03  0.50000000000E+03  0.00000000000E+00 0.  1.
         11   -1    0    0    0    0 -0.00000000000E+00 -0.00000000000E+00 -0.50000000000E+03  0.50000000000E+03  0.00000000000E+00 0. -1.
         23    2    1    2    0    0  0.11625944729E+03  0.55768943069E+02  0.34583956848E+03  0.37784154384E+03  0.80825683001E+02 0.  0.
        -11    1    1    2    0    0 -0.13747395324E+03 -0.17123441397E+03  0.36139945290E+02  0.22254529425E+03  0.00000000000E+00 0.  1.
         11    1    1    2    0    0  0.21214505956E+02  0.11546547090E+03 -0.38197951377E+03  0.39961316191E+03  0.00000000000E+00 0. -1.
        -15    1    3    3    0    0  0.10022934256E+03  0.71113269669E+01  0.21538147725E+03  0.23767379021E+03  0.17770000000E+01 0. -1.
         15    1    3    3    0    0  0.16030104728E+02  0.48657616102E+02  0.13045809123E+03  0.14016775363E+03  0.17770000000E+01 0.  1.
</event>
<event>
 7    1  0.2288857E-006  0.5031472E+03  0.7546771E-02  0.9392795E-01
        -11   -1    0    0    0    0  0.00000000000E+00  0.00000000000E+00  0.50000000000E+03  0.50000000000E+03  0.00000000000E+00 0.  1.
         11   -1    0    0    0    0 -0.00000000000E+00 -0.00000000000E+00 -0.50000000000E+03  0.50000000000E+03  0.00000000000E+00 0. -1.
         23    2    1    2    0    0  0.11289993117E+03 -0.32964828311E+02  0.47479280285E+03  0.49685278349E+03  0.87186056592E+02 0.  0.
        -11    1    1    2    0    0 -0.11079004956E+02  0.28787746678E+02 -0.19283088204E+02  0.36377413326E+02  0.00000000000E+00 0.  1.
         11    1    1    2    0    0 -0.10182092621E+03  0.41770816325E+01 -0.45550971465E+03  0.46676980318E+03  0.00000000000E+00 0. -1.
        -15    1    3    3    0    0  0.71697492194E+02  0.18134081813E+02  0.32476660364E+03  0.33308539428E+03  0.17770000000E+01 0.  1.
         15    1    3    3    0    0  0.41202438973E+02 -0.51098910124E+02  0.15002619921E+03  0.16376738922E+03  0.17770000000E+01 0. -1.
</event>
<event>
 7    1  0.2288857E-006  0.3663688E+03  0.7546771E-02  0.9761347E-01
        -11   -1    0    0    0    0  0.00000000000E+00  0.00000000000E+00  0.50000000000E+03  0.50000000000E+03  0.00000000000E+00 0. -1.
         11   -1    0    0    0    0 -0.00000000000E+00 -0.00000000000E+00 -0.50000000000E+03  0.50000000000E+03  0.00000000000E+00 0.  1.
         23    2    1    2    0    0  0.49468909630E+01  0.88115182192E+02  0.33004952732E+03  0.35346193985E+03  0.90630543295E+02 0.  0.
        -11    1    1    2    0    0 -0.23401985519E+03  0.47379396017E+02 -0.22509175490E+02  0.23982652641E+03  0.00000000000E+00 0. -1.
         11    1    1    2    0    0  0.22907296423E+03 -0.13549457821E+03 -0.30754035183E+03  0.40671153373E+03  0.00000000000E+00 0.  1.
        -15    1    3    3    0    0 -0.21440999851E+02 -0.55049342287E+01  0.25820230118E+02  0.34056758328E+02  0.17770000000E+01 0.  1.
         15    1    3    3    0    0  0.26387890814E+02  0.93620116420E+02  0.30422929720E+03  0.31940518153E+03  0.17770000000E+01 0. -1.
</event>
<event>
 7    1  0.2288857E-006  0.5163934E+03  0.7546771E-02  0.9363857E-01
        -11   -1    0    0    0    0  0.00000000000E+00  0.00000000000E+00  0.50000000000E+03  0.50000000000E+03  0.00000000000E+00 0. -1.
         11   -1    0    0    0    0 -0.00000000000E+00 -0.00000000000E+00 -0.50000000000E+03  0.50000000000E+03  0.00000000000E+00 0.  1.
         23    2    1    2    0    0  0.14336182696E+03  0.12639766107E+02 -0.24289387208E+03  0.30246583187E+03  0.10851621647E+03 0.  0.
        -11    1    1    2    0    0 -0.19372928426E+03 -0.99512092048E+02  0.43178888670E+03  0.48360659086E+03  0.00000000000E+00 0. -1.
         11    1    1    2    0    0  0.50367457298E+02  0.86872325940E+02 -0.18889501462E+03  0.21392757728E+03  0.00000000000E+00 0.  1.
        -15    1    3    3    0    0  0.79796198525E+02  0.46103816400E+02 -0.71620238832E+02  0.11672879476E+03  0.17770000000E+01 0. -1.
         15    1    3    3    0    0  0.63565628435E+02 -0.33464050293E+02 -0.17127363325E+03  0.18573703711E+03  0.17770000000E+01 0.  1.
</event>
<event>
 7    1  0.2288857E-006  0.5134647E+03  0.7546771E-02  0.9370175E-01
        -11   -1    0    0    0    0  0.00000000000E+00  0.00000000000E+00  0.50000000000E+03  0.50000000000E+03  0.00000000000E+00 0.  1.
         11   -1    0    0    0    0 -0.00000000000E+00 -0.00000000000E+00 -0.50000000000E+03  0.50000000000E+03  0.00000000000E+00 0. -1.
         23    2    1    2    0    0 -0.56993002159E+02 -0.13727035927E+02 -0.13684105993E+03  0.17444985605E+03  0.90943074395E+02 0.  0.
        -11    1    1    2    0    0  0.16572511257E+03 -0.47112527114E+01  0.45741620637E+03  0.48653529644E+03  0.00000000000E+00 0.  1.
         11    1    1    2    0    0 -0.10873211041E+03  0.18438288639E+02 -0.32057514643E+03  0.33901484751E+03  0.00000000000E+00 0. -1.
        -15    1    3    3    0    0 -0.67632795318E+02  0.13911442384E+02 -0.57940069045E+02  0.90155047344E+02  0.17770000000E+01 0.  1.
         15    1    3    3    0    0  0.10639793159E+02 -0.27638478311E+02 -0.78900990890E+02  0.84294808702E+02  0.17770000000E+01 0. -1.
</event>
<event>
 7    1  0.2288857E-006  0.4051329E+03  0.7546771E-02  0.9641355E-01
        -11   -1    0    0    0    0  0.00000000000E+00  0.00000000000E+00  0.50000000000E+03  0.50000000000E+03  0.00000000000E+00 0. -1.
         11   -1    0    0    0    0 -0.00000000000E+00 -0.00000000000E+00 -0.50000000000E+03  0.50000000000E+03  0.00000000000E+00 0.  1.
         23    2    1    2    0    0 -0.11825274187E+03  0.91967706661E+02  0.49783362745E+01  0.17598704620E+03  0.92221941914E+02 0.  0.
        -11    1    1    2    0    0  0.28403604498E+02 -0.11500154889E+03  0.39553866857E+03  0.41289582140E+03  0.00000000000E+00 0. -1.
         11    1    1    2    0    0  0.89849137374E+02  0.23033842229E+02 -0.40051700485E+03  0.41111713239E+03  0.00000000000E+00 0.  1.
        -15    1    3    3    0    0 -0.13026877870E+03  0.66398557741E+02 -0.40288129536E+01  0.14628093600E+03  0.17770000000E+01 0. -1.
         15    1    3    3    0    0  0.12016036823E+02  0.25569148920E+02  0.90071492280E+01  0.29706110207E+02  0.17770000000E+01 0.  1.
</event>
<event>
 7    1  0.2288857E-006  0.4595681E+03  0.7546771E-02  0.9495121E-01
        -11   -1    0    0    0    0  0.00000000000E+00  0.00000000000E+00  0.50000000000E+03  0.50000000000E+03  0.00000000000E+00 0.  1.
         11   -1    0    0    0    0 -0.00000000000E+00 -0.00000000000E+00 -0.50000000000E+03  0.50000000000E+03  0.00000000000E+00 0. -1.
         23    2    1    2    0    0 -0.22574051209E+02  0.14837705085E+03  0.40483665145E+03  0.44138922198E+03  0.91686388914E+02 0.  0.
        -11    1    1    2    0    0 -0.14047882446E+02 -0.61728010979E+02  0.58273217763E+02  0.86043350987E+02  0.00000000000E+00 0.  1.
         11    1    1    2    0    0  0.36621933655E+02 -0.86649039873E+02 -0.46310986921E+03  0.47256742704E+03  0.00000000000E+00 0. -1.
        -15    1    3    3    0    0  0.22241817031E+02  0.99623004075E+02  0.30447733443E+03  0.32113711445E+03  0.17770000000E+01 0.  1.
         15    1    3    3    0    0 -0.44815868239E+02  0.48754046776E+02  0.10035931702E+03  0.12025210753E+03  0.17770000000E+01 0. -1.
</event>
<event>
 6    1  0.2288857E-006  0.3635958E+03  0.7546771E-02  0.9770535E-01
        -11   -1    0    0    0    0  0.00000000000E+00  0.00000000000E+00  0.50000000000E+03  0.50000000000E+03  0.00000000000E+00 0.  1.
         11   -1    0    0    0    0 -0.00000000000E+00 -0.00000000000E+00 -0.50000000000E+03  0.50000000000E+03  0.00000000000E+00 0.  1.
        -11    1    1    2    0    0 -0.39494633870E+02 -0.16949871175E+03  0.36124550673E+03  0.40098373474E+03  0.00000000000E+00 0.  1.
         11    1    1    2    0    0  0.10289589581E+03 -0.69729724577E+01 -0.33493769670E+03  0.35045605772E+03  0.00000000000E+00 0.  1.
        -15    1    1    2    0    0 -0.48154541729E+02  0.19316940461E+03  0.16854752750E+02  0.19980119916E+03  0.17770000000E+01 0. -1.
         15    1    1    2    0    0 -0.15246720209E+02 -0.16697720402E+02 -0.43162562784E+02  0.48759008387E+02  0.17770000000E+01 0.  1.
</event>
<event>
 7    1  0.2288857E-006  0.5134448E+03  0.7546771E-02  0.9370218E-01
        -11   -1    0    0    0    0  0.00000000000E+00  0.00000000000E+00  0.50000000000E+03  0.50000000000E+03  0.00000000000E+00 0.  1.
         11   -1    0    0    0    0 -0.00000000000E+00 -0.00000000000E+00 -0.50000000000E+03  0.50000000000E+03  0.00000000000E+00 0.  1.
         23    2    1    2    0    0 -0.19322845233E+02  0.49851509224E+02  0.12939077777E+03  0.16560056600E+03  0.88447887307E+02 0.  0.
        -11    1    1    2    0    0  0.58538156609E+01  0.13861865279E+03  0.31897684521E+03  0.34784425515E+03  0.00000000000E+00 0.  1.
         11    1    1    2    0    0  0.13469029572E+02 -0.18847016202E+03 -0.44836762298E+03  0.48655517885E+03  0.00000000000E+00 0.  1.
        -15    1    3    3    0    0 -0.34648072515E+02  0.64412176467E+02  0.65210081095E+02  0.98004743822E+02  0.17770000000E+01 0.  1.
         15    1    3    3    0    0  0.15325227282E+02 -0.14560667243E+02  0.64180696673E+02  0.67595822181E+02  0.17770000000E+01 0. -1.
</event>
<event>
 7    1  0.2288857E-006  0.4422149E+03  0.7546771E-02  0.9539287E-01
        -11   -1    0    0    0    0  0.00000000000E+00  0.00000000000E+00  0.50000000000E+03  0.50000000000E+03  0.00000000000E+00 0. -1.
         11   -1    0    0    0    0 -0.00000000000E+00 -0.00000000000E+00 -0.50000000000E+03  0.50000000000E+03  0.00000000000E+00 0. -1.
         23    2    1    2    0    0  0.14621019154E+03 -0.11100928746E+03  0.42626505663E+03  0.47327977185E+03  0.92689599847E+02 0.  0.
        -11    1    1    2    0    0  0.49312241716E+02  0.82235212589E+02 -0.67965776910E+02  0.11753158811E+03  0.00000000000E+00 0. -1.
         11    1    1    2    0    0 -0.19552243326E+03  0.28774074871E+02 -0.35829927972E+03  0.40918864004E+03  0.00000000000E+00 0. -1.
        -15    1    3    3    0    0  0.21119264136E+02  0.14387479099E+02  0.85112494855E+02  0.88883729568E+02  0.17770000000E+01 0.  1.
         15    1    3    3    0    0  0.12509092741E+03 -0.12539676656E+03  0.34115256178E+03  0.38439604228E+03  0.17770000000E+01 0. -1.
</event>
<event>
 7    1  0.2288857E-006  0.5265624E+03  0.7546771E-02  0.9342260E-01
        -11   -1    0    0    0    0  0.00000000000E+00  0.00000000000E+00  0.50000000000E+03  0.50000000000E+03  0.00000000000E+00 0.  1.
         11   -1    0    0    0    0 -0.00000000000E+00 -0.00000000000E+00 -0.50000000000E+03  0.50000000000E+03  0.00000000000E+00 0. -1.
         23    2    1    2    0    0 -0.35469600554E+02  0.13772538729E+03  0.31337007708E+03  0.35605184473E+03  0.91355000198E+02 0.  0.
        -11    1    1    2    0    0 -0.11554810465E+03 -0.29052936913E+02  0.12197706428E+03  0.17051053293E+03  0.00000000000E+00 0.  1.
         11    1    1    2    0    0  0.15101770520E+03 -0.10867245037E+03 -0.43534714136E+03  0.47343762234E+03  0.00000000000E+00 0. -1.
        -15    1    3    3    0    0 -0.46669970725E+02  0.37848568598E+02  0.17490907788E+03  0.18495119239E+03  0.17770000000E+01 0.  1.
         15    1    3    3    0    0  0.11200370172E+02  0.99876818690E+02  0.13846099920E+03  0.17110065234E+03  0.17770000000E+01 0. -1.
</event>
<event>
 7    1  0.2288857E-006  0.5225216E+03  0.7546771E-02  0.9350780E-01
        -11   -1    0    0    0    0  0.00000000000E+00  0.00000000000E+00  0.50000000000E+03  0.50000000000E+03  0.00000000000E+00 0. -1.
         11   -1    0    0    0    0 -0.00000000000E+00 -0.00000000000E+00 -0.50000000000E+03  0.50000000000E+03  0.00000000000E+00 0. -1.
         23    2    1    2    0    0 -0.76319284993E+02  0.11873824690E+03  0.25276936865E+03  0.30650557176E+03  0.10064744037E+03 0.  0.
        -11    1    1    2    0    0  0.49806943822E+02 -0.47402132247E+01  0.21014219982E+03  0.21601607676E+03  0.00000000000E+00 0. -1.
         11    1    1    2    0    0  0.26512341171E+02 -0.11399803367E+03 -0.46291156847E+03  0.47747835148E+03  0.00000000000E+00 0. -1.
        -15    1    3    3    0    0 -0.21461736896E+02  0.64091625041E+02  0.36607604254E+02  0.76887040320E+02  0.17770000000E+01 0.  1.
         15    1    3    3    0    0 -0.54857548097E+02  0.54646621858E+02  0.21616176440E+03  0.22961853144E+03  0.17770000000E+01 0. -1.
</event>
<event>
 7    1  0.2288857E-006  0.5121608E+03  0.7546771E-02  0.9373003E-01
        -11   -1    0    0    0    0  0.00000000000E+00  0.00000000000E+00  0.50000000000E+03  0.50000000000E+03  0.00000000000E+00 0.  1.
         11   -1    0    0    0    0 -0.00000000000E+00 -0.00000000000E+00 -0.50000000000E+03  0.50000000000E+03  0.00000000000E+00 0. -1.
         23    2    1    2    0    0  0.35457345928E+02 -0.15624121759E+03 -0.27002465409E+03  0.33002922539E+03  0.10167317413E+03 0.  0.
        -11    1    1    2    0    0  0.12467249720E+02  0.24326323529E+03  0.42267559415E+03  0.48783920696E+03  0.00000000000E+00 0.  1.
         11    1    1    2    0    0 -0.47924595648E+02 -0.87022017708E+02 -0.15265094006E+03  0.18213156765E+03  0.00000000000E+00 0. -1.
        -15    1    3    3    0    0 -0.80032948544E+00 -0.56198343641E+02 -0.18634897646E+03  0.19464838328E+03  0.17770000000E+01 0. -1.
         15    1    3    3    0    0  0.36257675414E+02 -0.10004287395E+03 -0.83675677630E+02  0.13538084211E+03  0.17770000000E+01 0.  1.
</event>
<event>
 7    1  0.2288857E-006  0.5110470E+03  0.7546771E-02  0.9375425E-01
        -11   -1    0    0    0    0  0.00000000000E+00  0.00000000000E+00  0.50000000000E+03  0.50000000000E+03  0.00000000000E+00 0.  1.
         11   -1    0    0    0    0 -0.00000000000E+00 -0.00000000000E+00 -0.50000000000E+03  0.50000000000E+03  0.00000000000E+00 0. -1.
         23    2    1    2    0    0 -0.44890793480E+02  0.63630659367E+02  0.37392839737E+03  0.39257826159E+03  0.90725966324E+02 0.  0.
        -11    1    1    2    0    0  0.24067657447E+02  0.61693647055E+02  0.98231793166E+02  0.11846874445E+03  0.00000000000E+00 0.  1.
         11    1    1    2    0    0  0.20823136033E+02 -0.12532430642E+03 -0.47216019054E+03  0.48895299396E+03  0.00000000000E+00 0. -1.
        -15    1    3    3    0    0 -0.72082732735E+02  0.45965536034E+02  0.29729083760E+03  0.30934406526E+03  0.17770000000E+01 0.  1.
         15    1    3    3    0    0  0.27191939255E+02  0.17665123333E+02  0.76637559768E+02  0.83234196332E+02  0.17770000000E+01 0. -1.
</event>
<event>
 7    1  0.2288857E-006  0.4080471E+03  0.7546771E-02  0.9632919E-01
        -11   -1    0    0    0    0  0.00000000000E+00  0.00000000000E+00  0.50000000000E+03  0.50000000000E+03  0.00000000000E+00 0.  1.
         11   -1    0    0    0    0 -0.00000000000E+00 -0.00000000000E+00 -0.50000000000E+03  0.50000000000E+03  0.00000000000E+00 0. -1.
         23    2    1    2    0    0  0.12413697016E+03  0.16245976677E+02 -0.73457463590E+02  0.17109739576E+03  0.90578147256E+02 0.  0.
        -11    1    1    2    0    0 -0.95542842299E+02 -0.83792166175E+02  0.43851056069E+03  0.45655347296E+03  0.00000000000E+00 0.  1.
         11    1    1    2    0    0 -0.28594127858E+02  0.67546189498E+02 -0.36505309710E+03  0.37234913129E+03  0.00000000000E+00 0. -1.
        -15    1    3    3    0    0  0.46319714213E+02  0.36278249467E+02  0.46201184866E+01  0.59043463084E+02  0.17770000000E+01 0. -1.
         15    1    3    3    0    0  0.77817255944E+02 -0.20032272790E+02 -0.78077582077E+02  0.11205393267E+03  0.17770000000E+01 0.  1.
</event>
<event>
 7    1  0.2288857E-006  0.4906816E+03  0.7546771E-02  0.9420905E-01
        -11   -1    0    0    0    0  0.00000000000E+00  0.00000000000E+00  0.50000000000E+03  0.50000000000E+03  0.00000000000E+00 0.  1.
         11   -1    0    0    0    0 -0.00000000000E+00 -0.00000000000E+00 -0.50000000000E+03  0.50000000000E+03  0.00000000000E+00 0. -1.
         23    2    1    2    0    0  0.36619973325E+03  0.19481252236E+03  0.22364725533E+03  0.48013187191E+03  0.91947572591E+02 0.  0.
        -11    1    1    2    0    0  0.70499114748E+01  0.21220875876E+02  0.15051971614E+02  0.26955308832E+02  0.00000000000E+00 0.  1.
         11    1    1    2    0    0 -0.37324964473E+03 -0.21603339824E+03 -0.23869922694E+03  0.49291281926E+03  0.00000000000E+00 0. -1.
        -15    1    3    3    0    0  0.34911170344E+03  0.17896505635E+03  0.18222377621E+03  0.43256922593E+03  0.17770000000E+01 0.  1.
         15    1    3    3    0    0  0.17088029814E+02  0.15847466012E+02  0.41423479118E+02  0.47562645986E+02  0.17770000000E+01 0. -1.
</event>
<event>
 7    1  0.2288857E-006  0.3652494E+03  0.7546771E-02  0.9765046E-01
        -11   -1    0    0    0    0  0.00000000000E+00  0.00000000000E+00  0.50000000000E+03  0.50000000000E+03  0.00000000000E+00 0.  1.
         11   -1    0    0    0    0 -0.00000000000E+00 -0.00000000000E+00 -0.50000000000E+03  0.50000000000E+03  0.00000000000E+00 0. -1.
         23    2    1    2    0    0  0.12746846034E+02  0.13096888246E+03  0.17578792085E+03  0.23721222792E+03  0.89738050472E+02 0.  0.
        -11    1    1    2    0    0  0.11820437236E+03 -0.14076529406E+03  0.25391666669E+03  0.31346581198E+03  0.00000000000E+00 0.  1.
         11    1    1    2    0    0 -0.13095121839E+03  0.97964115959E+01 -0.42970458754E+03  0.44932196010E+03  0.00000000000E+00 0. -1.
        -15    1    3    3    0    0 -0.20744570665E+02  0.76680952620E+01  0.62934371394E+02  0.66731025234E+02  0.17770000000E+01 0.  1.
         15    1    3    3    0    0  0.33491416698E+02  0.12330078720E+03  0.11285354946E+03  0.17048120269E+03  0.17770000000E+01 0. -1.
</event>
<event>
 7    1  0.2288857E-006  0.4400000E+03  0.7546771E-02  0.9545079E-01
        -11   -1    0    0    0    0  0.00000000000E+00  0.00000000000E+00  0.50000000000E+03  0.50000000000E+03  0.00000000000E+00 0.  1.
         11   -1    0    0    0    0 -0.00000000000E+00 -0.00000000000E+00 -0.50000000000E+03  0.50000000000E+03  0.00000000000E+00 0. -1.
         23    2    1    2    0    0 -0.10845470771E+02 -0.35878122439E+02  0.17499741897E+02  0.11902838498E+03  0.11160937038E+03 0.  0.
        -11    1    1    2    0    0  0.29783122102E+02  0.27932730702E+03  0.34437641824E+03  0.44441635462E+03  0.00000000000E+00 0.  1.
         11    1    1    2    0    0 -0.18937651331E+02 -0.24344918458E+03 -0.36187616014E+03  0.43655526041E+03  0.00000000000E+00 0. -1.
        -15    1    3    3    0    0  0.50009581927E+02 -0.12056105652E+02  0.48678522199E+00  0.51475262572E+02  0.17770000000E+01 0.  1.
         15    1    3    3    0    0 -0.60855052698E+02 -0.23822016787E+02  0.17012956675E+02  0.67553122404E+02  0.17770000000E+01 0. -1.
</event>
<event>
 7    1  0.2288857E-006  0.4714657E+03  0.7546771E-02  0.9466023E-01
        -11   -1    0    0    0    0  0.00000000000E+00  0.00000000000E+00  0.50000000000E+03  0.50000000000E+03  0.00000000000E+00 0.  1.
         11   -1    0    0    0    0 -0.00000000000E+00 -0.00000000000E+00 -0.50000000000E+03  0.50000000000E+03  0.00000000000E+00 0. -1.
         23    2    1    2    0    0 -0.16685250447E+03 -0.15593116542E+03 -0.36793161971E+03  0.44307671626E+03  0.93749736613E+02 0.  0.
        -11    1    1    2    0    0  0.16752378457E+03  0.17214512070E+03  0.43012280102E+03  0.49264975889E+03  0.00000000000E+00 0.  1.
         11    1    1    2    0    0 -0.67128010244E+00 -0.16213955283E+02 -0.62191181313E+02  0.64273524845E+02  0.00000000000E+00 0. -1.
        -15    1    3    3    0    0 -0.12242333655E+02 -0.16193432887E+02 -0.10803255179E+03  0.10993767315E+03  0.17770000000E+01 0.  1.
         15    1    3    3    0    0 -0.15461017081E+03 -0.13973773253E+03 -0.25989906792E+03  0.33313904311E+03  0.17770000000E+01 0. -1.
</event>
<event>
 7    1  0.2288857E-006  0.5116348E+03  0.7546771E-02  0.9374146E-01
        -11   -1    0    0    0    0  0.00000000000E+00  0.00000000000E+00  0.50000000000E+03  0.50000000000E+03  0.00000000000E+00 0.  1.
         11   -1    0    0    0    0 -0.00000000000E+00 -0.00000000000E+00 -0.50000000000E+03  0.50000000000E+03  0.00000000000E+00 0. -1.
         23    2    1    2    0    0  0.17276262754E+03  0.11497487037E+03 -0.16686174169E+03  0.28191318409E+03  0.92552991489E+02 0.  0.
        -11    1    1    2    0    0 -0.30137685144E+03 -0.14933884262E+03  0.35407691978E+03  0.48836519288E+03  0.00000000000E+00 0.  1.
         11    1    1    2    0    0  0.12861422390E+03  0.34363972253E+02 -0.18721517809E+03  0.22972162303E+03  0.00000000000E+00 0. -1.
        -15    1    3    3    0    0  0.11073794141E+03  0.24142323287E+02 -0.58736115037E+02  0.12766688052E+03  0.17770000000E+01 0. -1.
         15    1    3    3    0    0  0.62024686127E+02  0.90832547081E+02 -0.10812562665E+03  0.15424630357E+03  0.17770000000E+01 0.  1.
</event>
<event>
 7    1  0.2288857E-006  0.4247171E+03  0.7546771E-02  0.9586063E-01
        -11   -1    0    0    0    0  0.00000000000E+00  0.00000000000E+00  0.50000000000E+03  0.50000000000E+03  0.00000000000E+00 0.  1.
         11   -1    0    0    0    0 -0.00000000000E+00 -0.00000000000E+00 -0.50000000000E+03  0.50000000000E+03  0.00000000000E+00 0. -1.
         23    2    1    2    0    0  0.21362238526E+02  0.10878276346E+03  0.33245292562E+01  0.14335568290E+03  0.90828214031E+02 0.  0.
        -11    1    1    2    0    0 -0.90165193003E+02 -0.24492554492E+03  0.37032614545E+03  0.45305599939E+03  0.00000000000E+00 0.  1.
         11    1    1    2    0    0  0.68802954477E+02  0.13614278146E+03 -0.37365067470E+03  0.40358831771E+03  0.00000000000E+00 0. -1.
        -15    1    3    3    0    0 -0.27425179402E+02  0.84287477081E+02  0.37404602577E+01  0.88733691628E+02  0.17770000000E+01 0.  1.
         15    1    3    3    0    0  0.48787417928E+02  0.24495286375E+02 -0.41593100151E+00  0.54621991270E+02  0.17770000000E+01 0. -1.
</event>
<event>
 7    1  0.2288857E-006  0.4317865E+03  0.7546771E-02  0.9566880E-01
        -11   -1    0    0    0    0  0.00000000000E+00  0.00000000000E+00  0.50000000000E+03  0.50000000000E+03  0.00000000000E+00 0.  1.
         11   -1    0    0    0    0 -0.00000000000E+00 -0.00000000000E+00 -0.50000000000E+03  0.50000000000E+03  0.00000000000E+00 0. -1.
         23    2    1    2    0    0 -0.61265050087E+02  0.83033808151E+02  0.40192891197E+03  0.42488347832E+03  0.91274860766E+02 0.  0.
        -11    1    1    2    0    0  0.13268096535E+03 -0.99189752556E+01  0.25642153586E+02  0.13549961136E+03  0.00000000000E+00 0.  1.
         11    1    1    2    0    0 -0.71415915266E+02 -0.73114832895E+02 -0.42757106556E+03  0.43961691033E+03  0.00000000000E+00 0. -1.
        -15    1    3    3    0    0 -0.79123838900E+02  0.88392661403E+02  0.35727957866E+03  0.37646473876E+03  0.17770000000E+01 0.  1.
         15    1    3    3    0    0  0.17858788812E+02 -0.53588532519E+01  0.44649333309E+02  0.48418739554E+02  0.17770000000E+01 0. -1.
</event>
<event>
 7    1  0.2288857E-006  0.4725453E+03  0.7546771E-02  0.9463428E-01
        -11   -1    0    0    0    0  0.00000000000E+00  0.00000000000E+00  0.50000000000E+03  0.50000000000E+03  0.00000000000E+00 0. -1.
         11   -1    0    0    0    0 -0.00000000000E+00 -0.00000000000E+00 -0.50000000000E+03  0.50000000000E+03  0.00000000000E+00 0.  1.
         23    2    1    2    0    0 -0.11028270091E+03  0.18568638628E+02  0.42896105847E+03  0.45215487045E+03  0.89047002919E+02 0.  0.
        -11    1    1    2    0    0  0.19436346738E+02  0.35860288356E+02  0.45849701235E+02  0.61367148857E+02  0.00000000000E+00 0. -1.
         11    1    1    2    0    0  0.90846354169E+02 -0.54428926984E+02 -0.47481075971E+03  0.48647798069E+03  0.00000000000E+00 0.  1.
        -15    1    3    3    0    0 -0.35091734421E+02 -0.46435409591E+01  0.32935574203E+02  0.48382869638E+02  0.17770000000E+01 0.  1.
         15    1    3    3    0    0 -0.75190966486E+02  0.23212179588E+02  0.39602548427E+03  0.40377200082E+03  0.17770000000E+01 0. -1.
</event>
<event>
 7    1  0.2288857E-006  0.5188310E+03  0.7546771E-02  0.9358632E-01
        -11   -1    0    0    0    0  0.00000000000E+00  0.00000000000E+00  0.50000000000E+03  0.50000000000E+03  0.00000000000E+00 0.  1.
         11   -1    0    0    0    0 -0.00000000000E+00 -0.00000000000E+00 -0.50000000000E+03  0.50000000000E+03  0.00000000000E+00 0. -1.
         23    2    1    2    0    0  0.20287755645E+02 -0.26491474533E+02  0.21234203039E+03  0.24037604119E+03  0.10760163593E+03 0.  0.
        -11    1    1    2    0    0 -0.65458410412E+02 -0.11293896309E+03  0.24596172874E+03  0.27845499615E+03  0.00000000000E+00 0.  1.
         11    1    1    2    0    0  0.45170654767E+02  0.13943043763E+03 -0.45830375913E+03  0.48116896266E+03  0.00000000000E+00 0. -1.
        -15    1    3    3    0    0  0.43372478065E+02 -0.47225556027E+02  0.19390401103E+03  0.20423845921E+03  0.17770000000E+01 0.  1.
         15    1    3    3    0    0 -0.23084722421E+02  0.20734081494E+02  0.18438019357E+02  0.36137581982E+02  0.17770000000E+01 0. -1.
</event>
<event>
 7    1  0.2288857E-006  0.3939441E+03  0.7546771E-02  0.9674465E-01
        -11   -1    0    0    0    0  0.00000000000E+00  0.00000000000E+00  0.50000000000E+03  0.50000000000E+03  0.00000000000E+00 0. -1.
         11   -1    0    0    0    0 -0.00000000000E+00 -0.00000000000E+00 -0.50000000000E+03  0.50000000000E+03  0.00000000000E+00 0.  1.
         23    2    1    2    0    0 -0.87279930249E+02 -0.23842325828E+02  0.14501301882E+03  0.19378493252E+03  0.91310359330E+02 0.  0.
        -11    1    1    2    0    0  0.12909811474E+03 -0.21744691225E+03  0.24083591953E+03  0.34921543926E+03  0.00000000000E+00 0. -1.
         11    1    1    2    0    0 -0.41818184495E+02  0.24128923808E+03 -0.38584893835E+03  0.45699962822E+03  0.00000000000E+00 0.  1.
        -15    1    3    3    0    0 -0.10039946970E+03 -0.37601306484E+02  0.13442688243E+03  0.17195248244E+03  0.17770000000E+01 0.  1.
         15    1    3    3    0    0  0.13119539456E+02  0.13758980656E+02  0.10586136385E+02  0.21832450086E+02  0.17770000000E+01 0. -1.
</event>
<event>
 7    1  0.2288857E-006  0.4440038E+03  0.7546771E-02  0.9534635E-01
        -11   -1    0    0    0    0  0.00000000000E+00  0.00000000000E+00  0.50000000000E+03  0.50000000000E+03  0.00000000000E+00 0.  1.
         11   -1    0    0    0    0 -0.00000000000E+00 -0.00000000000E+00 -0.50000000000E+03  0.50000000000E+03  0.00000000000E+00 0. -1.
         23    2    1    2    0    0 -0.24007328433E+01  0.54799876137E+02 -0.10270853619E+02  0.11024052501E+03  0.95072040989E+02 0.  0.
        -11    1    1    2    0    0 -0.28344187014E+03 -0.19314317193E+03  0.30315100782E+03  0.45775988483E+03  0.00000000000E+00 0.  1.
         11    1    1    2    0    0  0.28584260299E+03  0.13834329579E+03 -0.29288015421E+03  0.43199959016E+03  0.00000000000E+00 0. -1.
        -15    1    3    3    0    0  0.40034785128E+02  0.58379840977E+01 -0.19188682275E+02  0.44813271863E+02  0.17770000000E+01 0.  1.
         15    1    3    3    0    0 -0.42435517972E+02  0.48961892039E+02  0.89178286564E+01  0.65427253148E+02  0.17770000000E+01 0. -1.
</event>
<event>
 7    1  0.2288857E-006  0.3402837E+03  0.7546771E-02  0.9851424E-01
        -11   -1    0    0    0    0  0.00000000000E+00  0.00000000000E+00  0.50000000000E+03  0.50000000000E+03  0.00000000000E+00 0. -1.
         11   -1    0    0    0    0 -0.00000000000E+00 -0.00000000000E+00 -0.50000000000E+03  0.50000000000E+03  0.00000000000E+00 0.  1.
         23    2    1    2    0    0  0.23270782051E+03  0.65749475869E+02 -0.10883743566E+03  0.28081858413E+03  0.92398952873E+02 0.  0.
        -11    1    1    2    0    0 -0.22348798632E+03 -0.15825999128E+02  0.38117927200E+03  0.44214814224E+03  0.00000000000E+00 0. -1.
         11    1    1    2    0    0 -0.92198341854E+01 -0.49923476742E+02 -0.27234183635E+03  0.27703327363E+03  0.00000000000E+00 0.  1.
        -15    1    3    3    0    0  0.18014951512E+03  0.89407122880E+02 -0.81634125964E+02  0.21705936900E+03  0.17770000000E+01 0.  1.
         15    1    3    3    0    0  0.52558305393E+02 -0.23657647011E+02 -0.27203309691E+02  0.63759215138E+02  0.17770000000E+01 0. -1.
</event>
<event>
 7    1  0.2288857E-006  0.4817964E+03  0.7546771E-02  0.9441489E-01
        -11   -1    0    0    0    0  0.00000000000E+00  0.00000000000E+00  0.50000000000E+03  0.50000000000E+03  0.00000000000E+00 0. -1.
         11   -1    0    0    0    0 -0.00000000000E+00 -0.00000000000E+00 -0.50000000000E+03  0.50000000000E+03  0.00000000000E+00 0. -1.
         23    2    1    2    0    0 -0.11535007095E+03 -0.22886127432E+02  0.44802214384E+03  0.47458403170E+03  0.10332835076E+03 0.  0.
        -11    1    1    2    0    0 -0.43709660638E+02  0.15388454696E+02  0.36632111458E+01  0.46483955156E+02  0.00000000000E+00 0. -1.
         11    1    1    2    0    0  0.15905973159E+03  0.74976727365E+01 -0.45168535499E+03  0.47893201315E+03  0.00000000000E+00 0. -1.
        -15    1    3    3    0    0 -0.64738314624E+02 -0.48104842283E+02  0.14147670365E+03  0.16286172244E+03  0.17770000000E+01 0.  1.
         15    1    3    3    0    0 -0.50611756329E+02  0.25218714851E+02  0.30654544019E+03  0.31172230926E+03  0.17770000000E+01 0. -1.
</event>
<event>
 7    1  0.2288857E-006  0.4870690E+03  0.7546771E-02  0.9429218E-01
        -11   -1    0    0    0    0  0.00000000000E+00  0.00000000000E+00  0.50000000000E+03  0.50000000000E+03  0.00000000000E+00 0. -1.
         11   -1    0    0    0    0 -0.00000000000E+00 -0.00000000000E+00 -0.50000000000E+03  0.50000000000E+03  0.00000000000E+00 0.  1.
         23    2    1    2    0    0  0.12071994326E+03  0.52677707832E+02  0.44797992580E+03  0.47579174389E+03  0.91342892621E+02 0.  0.
        -11    1    1    2    0    0  0.29930815203E+02  0.54825253423E+01  0.14962405207E+02  0.33908484962E+02  0.00000000000E+00 0. -1.
         11    1    1    2    0    0 -0.15065075846E+03 -0.58160233175E+02 -0.46294233101E+03  0.49029977115E+03  0.00000000000E+00 0.  1.
        -15    1    3    3    0    0  0.10209195246E+03  0.75253691140E+02  0.31422729416E+03  0.33886256051E+03  0.17770000000E+01 0. -1.
         15    1    3    3    0    0  0.18627990798E+02 -0.22575983308E+02  0.13375263164E+03  0.13692918338E+03  0.17770000000E+01 0.  1.
</event>
<event>
 7    1  0.2288857E-006  0.5201870E+03  0.7546771E-02  0.9355739E-01
        -11   -1    0    0    0    0  0.00000000000E+00  0.00000000000E+00  0.50000000000E+03  0.50000000000E+03  0.00000000000E+00 0.  1.
         11   -1    0    0    0    0 -0.00000000000E+00 -0.00000000000E+00 -0.50000000000E+03  0.50000000000E+03  0.00000000000E+00 0. -1.
         23    2    1    2    0    0 -0.15652147293E+02 -0.14303562648E+02  0.12761784985E+03  0.15753768577E+03  0.89901196970E+02 0.  0.
        -11    1    1    2    0    0 -0.13494367092E+03 -0.18001535523E+03  0.28442779608E+03  0.36264927081E+03  0.00000000000E+00 0.  1.
         11    1    1    2    0    0  0.15059581821E+03  0.19431891788E+03 -0.41204564593E+03  0.47981304342E+03  0.00000000000E+00 0. -1.
        -15    1    3    3    0    0 -0.86041832245E+01  0.34450151534E+02  0.24300883859E+02  0.43064319279E+02  0.17770000000E+01 0.  1.
         15    1    3    3    0    0 -0.70479640681E+01 -0.48753714182E+02  0.10331696600E+03  0.11447336649E+03  0.17770000000E+01 0. -1.
</event>
<event>
 7    1  0.2288857E-006  0.4330537E+03  0.7546771E-02  0.9563483E-01
        -11   -1    0    0    0    0  0.00000000000E+00  0.00000000000E+00  0.50000000000E+03  0.50000000000E+03  0.00000000000E+00 0.  1.
         11   -1    0    0    0    0 -0.00000000000E+00 -0.00000000000E+00 -0.50000000000E+03  0.50000000000E+03  0.00000000000E+00 0.  1.
         23    2    1    2    0    0 -0.14067971742E+02 -0.82495669281E+02  0.41135138455E+03  0.43048907061E+03  0.95432882535E+02 0.  0.
        -11    1    1    2    0    0  0.86377397501E+02  0.10104194677E+03  0.17619493117E+02  0.13409316293E+03  0.00000000000E+00 0.  1.
         11    1    1    2    0    0 -0.72309425759E+02 -0.18546277489E+02 -0.42897087767E+03  0.43541776646E+03  0.00000000000E+00 0.  1.
        -15    1    3    3    0    0 -0.48549915180E+02 -0.78186473500E+02  0.29148324998E+03  0.30567280162E+03  0.17770000000E+01 0.  1.
         15    1    3    3    0    0  0.34481943438E+02 -0.43091957811E+01  0.11986813457E+03  0.12481626899E+03  0.17770000000E+01 0. -1.
</event>
<event>
 7    1  0.2288857E-006  0.4386030E+03  0.7546771E-02  0.9548751E-01
        -11   -1    0    0    0    0  0.00000000000E+00  0.00000000000E+00  0.50000000000E+03  0.50000000000E+03  0.00000000000E+00 0.  1.
         11   -1    0    0    0    0 -0.00000000000E+00 -0.00000000000E+00 -0.50000000000E+03  0.50000000000E+03  0.00000000000E+00 0.  1.
         23    2    1    2    0    0 -0.20289667006E+02  0.40810736147E+02 -0.10038881060E+02  0.12155342164E+03  0.11223755346E+03 0.  0.
        -11    1    1    2    0    0  0.69721371613E+02 -0.10160097062E+03  0.43202187309E+03  0.44925129462E+03  0.00000000000E+00 0.  1.
         11    1    1    2    0    0 -0.49431704607E+02  0.60790234470E+02 -0.42198299203E+03  0.42919528374E+03  0.00000000000E+00 0.  1.
        -15    1    3    3    0    0  0.32653785654E+02 -0.13558361794E+02  0.19122422762E+02  0.40235850598E+02  0.17770000000E+01 0.  1.
         15    1    3    3    0    0 -0.52943452660E+02  0.54369097941E+02 -0.29161303822E+02  0.81317571041E+02  0.17770000000E+01 0. -1.
</event>
<event>
 7    1  0.2288857E-006  0.5173843E+03  0.7546771E-02  0.9361730E-01
        -11   -1    0    0    0    0  0.00000000000E+00  0.00000000000E+00  0.50000000000E+03  0.50000000000E+03  0.00000000000E+00 0.  1.
         11   -1    0    0    0    0 -0.00000000000E+00 -0.00000000000E+00 -0.50000000000E+03  0.50000000000E+03  0.00000000000E+00 0. -1.
         23    2    1    2    0    0  0.87368785629E+02 -0.73484435152E+02  0.39428251576E+03  0.42063832720E+03  0.91894685194E+02 0.  0.
        -11    1    1    2    0    0  0.22234815103E+02  0.56378462837E+02  0.75411344206E+02  0.96746002033E+02  0.00000000000E+00 0.  1.
         11    1    1    2    0    0 -0.10960360073E+03  0.17105972315E+02 -0.46969385996E+03  0.48261567077E+03  0.00000000000E+00 0. -1.
        -15    1    3    3    0    0  0.65096560575E+02 -0.89694917148E+02  0.35969410841E+03  0.37638510826E+03  0.17770000000E+01 0.  1.
         15    1    3    3    0    0  0.22272225054E+02  0.16210481996E+02  0.34588407344E+02  0.44253218945E+02  0.17770000000E+01 0. -1.
</event>
<event>
 7    1  0.2288857E-006  0.4127265E+03  0.7546771E-02  0.9619528E-01
        -11   -1    0    0    0    0  0.00000000000E+00  0.00000000000E+00  0.50000000000E+03  0.50000000000E+03  0.00000000000E+00 0. -1.
         11   -1    0    0    0    0 -0.00000000000E+00 -0.00000000000E+00 -0.50000000000E+03  0.50000000000E+03  0.00000000000E+00 0.  1.
         23    2    1    2    0    0 -0.70165278814E+02  0.94619982175E+02  0.68090252694E+02  0.16340861685E+03  0.90498542376E+02 0.  0.
        -11    1    1    2    0    0  0.24054761046E+02 -0.18759332579E+03  0.35431031094E+03  0.40162878862E+03  0.00000000000E+00 0. -1.
         11    1    1    2    0    0  0.46110517768E+02  0.92973343616E+02 -0.42240056364E+03  0.43496259452E+03  0.00000000000E+00 0.  1.
        -15    1    3    3    0    0 -0.65744924080E+02  0.18468802341E+02  0.50914119745E+02  0.85199160915E+02  0.17770000000E+01 0.  1.
         15    1    3    3    0    0 -0.44203547331E+01  0.76151179834E+02  0.17176132949E+02  0.78209455938E+02  0.17770000000E+01 0. -1.
</event>
<event>
 7    1  0.2288857E-006  0.5195525E+03  0.7546771E-02  0.9357092E-01
        -11   -1    0    0    0    0  0.00000000000E+00  0.00000000000E+00  0.50000000000E+03  0.50000000000E+03  0.00000000000E+00 0. -1.
         11   -1    0    0    0    0 -0.00000000000E+00 -0.00000000000E+00 -0.50000000000E+03  0.50000000000E+03  0.00000000000E+00 0. -1.
         23    2    1    2    0    0  0.14041062968E+02  0.34985426972E+02  0.16162862535E+03  0.19080124994E+03  0.94128491427E+02 0.  0.
        -11    1    1    2    0    0  0.83112533684E+02 -0.86610928286E+02  0.30605266706E+03  0.32875124512E+03  0.00000000000E+00 0. -1.
         11    1    1    2    0    0 -0.97153596653E+02  0.51625501313E+02 -0.46768129241E+03  0.48044750493E+03  0.00000000000E+00 0. -1.
        -15    1    3    3    0    0 -0.11247478729E+02  0.39727439474E+02  0.15967533622E+03  0.16493679381E+03  0.17770000000E+01 0. -1.
         15    1    3    3    0    0  0.25288541698E+02 -0.47420125016E+01  0.19532891256E+01  0.25864456135E+02  0.17770000000E+01 0.  1.
</event>
<event>
 7    1  0.2288857E-006  0.4807435E+03  0.7546771E-02  0.9443959E-01
        -11   -1    0    0    0    0  0.00000000000E+00  0.00000000000E+00  0.50000000000E+03  0.50000000000E+03  0.00000000000E+00 0. -1.
         11   -1    0    0    0    0 -0.00000000000E+00 -0.00000000000E+00 -0.50000000000E+03  0.50000000000E+03  0.00000000000E+00 0. -1.
         23    2    1    2    0    0  0.14920097471E+03  0.17277923446E+03  0.42484351194E+03  0.49071821187E+03  0.90546999447E+02 0.  0.
        -11    1    1    2    0    0 -0.17982166317E+03 -0.14894031168E+03 -0.40013039260E+03  0.46327462490E+03  0.00000000000E+00 0. -1.
         11    1    1    2    0    0  0.30620688462E+02 -0.23838922782E+02 -0.24713119335E+02  0.46007163231E+02  0.00000000000E+00 0. -1.
        -15    1    3    3    0    0  0.58900922551E+02  0.16428691538E+02  0.14858451733E+03  0.16068521121E+03  0.17770000000E+01 0.  1.
         15    1    3    3    0    0  0.90300052158E+02  0.15635054292E+03  0.27625899461E+03  0.33003300066E+03  0.17770000000E+01 0. -1.
</event>
<event>
 7    1  0.2288857E-006  0.5116650E+03  0.7546771E-02  0.9374080E-01
        -11   -1    0    0    0    0  0.00000000000E+00  0.00000000000E+00  0.50000000000E+03  0.50000000000E+03  0.00000000000E+00 0.  1.
         11   -1    0    0    0    0 -0.00000000000E+00 -0.00000000000E+00 -0.50000000000E+03  0.50000000000E+03  0.00000000000E+00 0.  1.
         23    2    1    2    0    0 -0.25545106319E+02  0.14421672611E+02  0.40365382708E+03  0.41521486258E+03  0.92770862322E+02 0.  0.
        -11    1    1    2    0    0 -0.17500379782E+02  0.54059211800E+02  0.77935713610E+02  0.96450179517E+02  0.00000000000E+00 0.  1.
         11    1    1    2    0    0  0.43045486101E+02 -0.68480884411E+02 -0.48158954069E+03  0.48833495790E+03  0.00000000000E+00 0.  1.
        -15    1    3    3    0    0 -0.30929743549E+02  0.49029036194E+02  0.30617873335E+03  0.31162328204E+03  0.17770000000E+01 0.  1.
         15    1    3    3    0    0  0.53846372301E+01 -0.34607363583E+02  0.97475093733E+02  0.10359158054E+03  0.17770000000E+01 0. -1.
</event>
<event>
 7    1  0.2288857E-006  0.5259729E+03  0.7546771E-02  0.9343498E-01
        -11   -1    0    0    0    0  0.00000000000E+00  0.00000000000E+00  0.50000000000E+03  0.50000000000E+03  0.00000000000E+00 0.  1.
         11   -1    0    0    0    0 -0.00000000000E+00 -0.00000000000E+00 -0.50000000000E+03  0.50000000000E+03  0.00000000000E+00 0.  1.
         23    2    1    2    0    0  0.12641069536E+02  0.10727466619E+03  0.35137638577E+03  0.38036188023E+03  0.97683902515E+02 0.  0.
        -11    1    1    2    0    0 -0.95652028540E+02 -0.22233661991E+02  0.10751240230E+03  0.14561099868E+03  0.00000000000E+00 0.  1.
         11    1    1    2    0    0  0.83010959005E+02 -0.85041004197E+02 -0.45888878807E+03  0.47402712109E+03  0.00000000000E+00 0.  1.
        -15    1    3    3    0    0  0.44885336247E+02  0.95095455117E+02  0.30449576512E+03  0.32214696599E+03  0.17770000000E+01 0.  1.
         15    1    3    3    0    0 -0.32244266712E+02  0.12179211071E+02  0.46880620654E+02  0.58214914240E+02  0.17770000000E+01 0. -1.
</event>
<event>
 7    1  0.2288857E-006  0.4193731E+03  0.7546771E-02  0.9600830E-01
        -11   -1    0    0    0    0  0.00000000000E+00  0.00000000000E+00  0.50000000000E+03  0.50000000000E+03  0.00000000000E+00 0.  1.
         11   -1    0    0    0    0 -0.00000000000E+00 -0.00000000000E+00 -0.50000000000E+03  0.50000000000E+03  0.00000000000E+00 0. -1.
         23    2    1    2    0    0  0.19692459420E+02 -0.64766588413E+01  0.36894638909E+03  0.38023429462E+03  0.89593195680E+02 0.  0.
        -11    1    1    2    0    0  0.33499692714E+01 -0.13960574298E+03  0.70263218869E+02  0.15632627960E+03  0.00000000000E+00 0.  1.
         11    1    1    2    0    0 -0.23042428692E+02  0.14608240182E+03 -0.43920960796E+03  0.46343942578E+03  0.00000000000E+00 0. -1.
        -15    1    3    3    0    0  0.40396393903E+02  0.24150643370E+02  0.27937794508E+03  0.28332016544E+03  0.17770000000E+01 0.  1.
         15    1    3    3    0    0 -0.20703934482E+02 -0.30627302211E+02  0.89568444009E+02  0.96914129181E+02  0.17770000000E+01 0. -1.
</event>
<event>
 7    1  0.2288857E-006  0.3587521E+03  0.7546771E-02  0.9786797E-01
        -11   -1    0    0    0    0  0.00000000000E+00  0.00000000000E+00  0.50000000000E+03  0.50000000000E+03  0.00000000000E+00 0. -1.
         11   -1    0    0    0    0 -0.00000000000E+00 -0.00000000000E+00 -0.50000000000E+03  0.50000000000E+03  0.00000000000E+00 0.  1.
         23    2    1    2    0    0 -0.14982926003E+03 -0.16203918310E+03  0.30605986147E+03  0.38813515289E+03  0.90943686329E+02 0.  0.
        -11    1    1    2    0    0  0.20870831106E+03  0.13054640313E+03  0.48641491075E+02  0.25093329219E+03  0.00000000000E+00 0. -1.
         11    1    1    2    0    0 -0.58879051029E+02  0.31492779966E+02 -0.35470135255E+03  0.36093155492E+03  0.00000000000E+00 0.  1.
        -15    1    3    3    0    0 -0.77185768093E+02 -0.82784155227E+02  0.82535247870E+02  0.14009312625E+03  0.17770000000E+01 0.  1.
         15    1    3    3    0    0 -0.72643491936E+02 -0.79255027873E+02  0.22352461360E+03  0.24804202664E+03  0.17770000000E+01 0. -1.
</event>
<event>
 7    1  0.2288857E-006  0.3545709E+03  0.7546771E-02  0.9801057E-01
        -11   -1    0    0    0    0  0.00000000000E+00  0.00000000000E+00  0.50000000000E+03  0.50000000000E+03  0.00000000000E+00 0.  1.
         11   -1    0    0    0    0 -0.00000000000E+00 -0.00000000000E+00 -0.50000000000E+03  0.50000000000E+03  0.00000000000E+00 0. -1.
         23    2    1    2    0    0 -0.14078705592E+03 -0.11594664139E+03  0.14884285413E+03  0.25280461879E+03  0.92148582687E+02 0.  0.
        -11    1    1    2    0    0  0.14883883075E+03  0.20560717260E+03  0.23924367268E+03  0.34880487652E+03  0.00000000000E+00 0.  1.
         11    1    1    2    0    0 -0.80517748231E+01 -0.89660531210E+02 -0.38808652681E+03  0.39839050469E+03  0.00000000000E+00 0. -1.
        -15    1    3    3    0    0 -0.39277302940E+02 -0.43281667953E+02  0.10554378362E+03  0.12065926113E+03  0.17770000000E+01 0.  1.
         15    1    3    3    0    0 -0.10150975298E+03 -0.72664973438E+02  0.43299070514E+02  0.13214535766E+03  0.17770000000E+01 0. -1.
</event>
<event>
 7    1  0.2288857E-006  0.5185507E+03  0.7546771E-02  0.9359232E-01
        -11   -1    0    0    0    0  0.00000000000E+00  0.00000000000E+00  0.50000000000E+03  0.50000000000E+03  0.00000000000E+00 0. -1.
         11   -1    0    0    0    0 -0.00000000000E+00 -0.00000000000E+00 -0.50000000000E+03  0.50000000000E+03  0.00000000000E+00 0.  1.
         23    2    1    2    0    0 -0.28177103122E+02  0.62947194498E+02  0.11550827477E+03  0.16142102094E+03  0.89209226117E+02 0.  0.
        -11    1    1    2    0    0 -0.18065938030E+03  0.43942286655E+02  0.30491456416E+03  0.35712970709E+03  0.00000000000E+00 0. -1.
         11    1    1    2    0    0  0.20883648342E+03 -0.10688948115E+03 -0.42042283893E+03  0.48144927197E+03  0.00000000000E+00 0.  1.
        -15    1    3    3    0    0  0.19227359248E+02 -0.17353084781E+01 -0.16248105024E+01  0.19455086156E+02  0.17770000000E+01 0.  1.
         15    1    3    3    0    0 -0.47404462369E+02  0.64682502977E+02  0.11713308527E+03  0.14196593478E+03  0.17770000000E+01 0. -1.
</event>
<event>
 7    1  0.2288857E-006  0.5378574E+03  0.7546771E-02  0.9318870E-01
        -11   -1    0    0    0    0  0.00000000000E+00  0.00000000000E+00  0.50000000000E+03  0.50000000000E+03  0.00000000000E+00 0. -1.
         11   -1    0    0    0    0 -0.00000000000E+00 -0.00000000000E+00 -0.50000000000E+03  0.50000000000E+03  0.00000000000E+00 0.  1.
         23    2    1    2    0    0  0.16777801632E+03  0.81079996288E+01 -0.16522158109E+03  0.25341481944E+03  0.93304327009E+02 0.  0.
        -11    1    1    2    0    0 -0.14632021175E+03 -0.14469999766E+03  0.41379711186E+03  0.46214255752E+03  0.00000000000E+00 0. -1.
         11    1    1    2    0    0 -0.21457804571E+02  0.13659199803E+03 -0.24857553077E+03  0.28444262304E+03  0.00000000000E+00 0.  1.
        -15    1    3    3    0    0  0.75825881768E+02  0.48800506076E+02 -0.62996533138E+02  0.11001261135E+03  0.17770000000E+01 0. -1.
         15    1    3    3    0    0  0.91952134549E+02 -0.40692506447E+02 -0.10222504795E+03  0.14340220809E+03  0.17770000000E+01 0.  1.
</event>
<event>
 7    1  0.2288857E-006  0.3913643E+03  0.7546771E-02  0.9682266E-01
        -11   -1    0    0    0    0  0.00000000000E+00  0.00000000000E+00  0.50000000000E+03  0.50000000000E+03  0.00000000000E+00 0. -1.
         11   -1    0    0    0    0 -0.00000000000E+00 -0.00000000000E+00 -0.50000000000E+03  0.50000000000E+03  0.00000000000E+00 0. -1.
         23    2    1    2    0    0  0.13594269022E+03  0.10578907559E+03  0.62161697161E+02  0.19613436716E+03  0.70234392218E+02 0.  0.
        -11    1    1    2    0    0 -0.10087966877E+03 -0.28298548571E+02  0.35911584133E+03  0.37408782781E+03  0.00000000000E+00 0. -1.
         11    1    1    2    0    0 -0.35063021455E+02 -0.77490527015E+02 -0.42127753849E+03  0.42977780502E+03  0.00000000000E+00 0. -1.
        -15    1    3    3    0    0  0.12881573493E+03  0.85424728556E+02  0.74091484895E+02  0.17141640434E+03  0.17770000000E+01 0. -1.
         15    1    3    3    0    0  0.71269552946E+01  0.20364347030E+02 -0.11929787734E+02  0.24717962823E+02  0.17770000000E+01 0.  1.
</event>
<event>
 7    1  0.2288857E-006  0.4028889E+03  0.7546771E-02  0.9647903E-01
        -11   -1    0    0    0    0  0.00000000000E+00  0.00000000000E+00  0.50000000000E+03  0.50000000000E+03  0.00000000000E+00 0. -1.
         11   -1    0    0    0    0 -0.00000000000E+00 -0.00000000000E+00 -0.50000000000E+03  0.50000000000E+03  0.00000000000E+00 0.  1.
         23    2    1    2    0    0  0.23263502263E+03 -0.10244174587E+03 -0.23107051946E+03  0.35532134948E+03  0.90809203153E+02 0.  0.
        -11    1    1    2    0    0 -0.17829645350E+03  0.13285517932E+03  0.40385282356E+03  0.46101759956E+03  0.00000000000E+00 0. -1.
         11    1    1    2    0    0 -0.54338569129E+02 -0.30413433444E+02 -0.17278230411E+03  0.18366105096E+03  0.00000000000E+00 0.  1.
        -15    1    3    3    0    0  0.18892828187E+03 -0.45209634100E+02 -0.14129680750E+03  0.24022021615E+03  0.17770000000E+01 0.  1.
         15    1    3    3    0    0  0.43706740762E+02 -0.57232111774E+02 -0.89773711958E+02  0.11510113333E+03  0.17770000000E+01 0. -1.
</event>
<event>
 7    1  0.2288857E-006  0.5199528E+03  0.7546771E-02  0.9356238E-01
        -11   -1    0    0    0    0  0.00000000000E+00  0.00000000000E+00  0.50000000000E+03  0.50000000000E+03  0.00000000000E+00 0. -1.
         11   -1    0    0    0    0 -0.00000000000E+00 -0.00000000000E+00 -0.50000000000E+03  0.50000000000E+03  0.00000000000E+00 0. -1.
         23    2    1    2    0    0 -0.38612042529E+02  0.63514033532E+02 -0.16658637057E+03  0.20367032746E+03  0.90585104419E+02 0.  0.
        -11    1    1    2    0    0  0.11894841380E+03  0.35081308819E+01  0.46506370627E+03  0.48004716750E+03  0.00000000000E+00 0. -1.
         11    1    1    2    0    0 -0.80336371273E+02 -0.67022164414E+02 -0.29847733570E+03  0.31628250505E+03  0.00000000000E+00 0. -1.
        -15    1    3    3    0    0 -0.30428264288E+02 -0.11899021962E+02 -0.19300109071E+02  0.37988392048E+02  0.17770000000E+01 0. -1.
         15    1    3    3    0    0 -0.81837782409E+01  0.75413055494E+02 -0.14728626150E+03  0.16568193541E+03  0.17770000000E+01 0.  1.
</event>
<event>
 7    1  0.2288857E-006  0.5170050E+03  0.7546771E-02  0.9362543E-01
        -11   -1    0    0    0    0  0.00000000000E+00  0.00000000000E+00  0.50000000000E+03  0.50000000000E+03  0.00000000000E+00 0. -1.
         11   -1    0    0    0    0 -0.00000000000E+00 -0.00000000000E+00 -0.50000000000E+03  0.50000000000E+03  0.00000000000E+00 0.  1.
         23    2    1    2    0    0  0.91265192229E+02 -0.11440074790E+02  0.32135853148E+03  0.34610201712E+03  0.89750152489E+02 0.  0.
        -11    1    1    2    0    0  0.11627231760E+03 -0.62710088207E+02  0.10842523087E+03  0.17090300668E+03  0.00000000000E+00 0. -1.
         11    1    1    2    0    0 -0.20753750983E+03  0.74150162997E+02 -0.42978376235E+03  0.48299497620E+03  0.00000000000E+00 0.  1.
        -15    1    3    3    0    0 -0.16372361505E+01 -0.12414359437E+02  0.11693747668E+01  0.12701260914E+02  0.17770000000E+01 0.  1.
         15    1    3    3    0    0  0.92902428379E+02  0.97428464742E+00  0.32018915672E+03  0.33340075620E+03  0.17770000000E+01 0. -1.
</event>
<event>
 7    1  0.2288857E-006  0.4009492E+03  0.7546771E-02  0.9653600E-01
        -11   -1    0    0    0    0  0.00000000000E+00  0.00000000000E+00  0.50000000000E+03  0.50000000000E+03  0.00000000000E+00 0. -1.
         11   -1    0    0    0    0 -0.00000000000E+00 -0.00000000000E+00 -0.50000000000E+03  0.50000000000E+03  0.00000000000E+00 0.  1.
         23    2    1    2    0    0  0.66242217806E+02 -0.19597296492E+03  0.30493608979E+03  0.38015934866E+03  0.93496936406E+02 0.  0.
        -11    1    1    2    0    0 -0.47507497347E+01  0.14368751088E+03  0.12002486073E+03  0.18728224048E+03  0.00000000000E+00 0. -1.
         11    1    1    2    0    0 -0.61491468071E+02  0.52285454038E+02 -0.42496095051E+03  0.43255841087E+03  0.00000000000E+00 0.  1.
        -15    1    3    3    0    0  0.15934197568E+02 -0.67096123116E+02  0.36221264395E+02  0.77916147959E+02  0.17770000000E+01 0.  1.
         15    1    3    3    0    0  0.50308020238E+02 -0.12887684180E+03  0.26871482539E+03  0.30224320070E+03  0.17770000000E+01 0. -1.
</event>
<event>
 7    1  0.2288857E-006  0.4638508E+03  0.7546771E-02  0.9484540E-01
        -11   -1    0    0    0    0  0.00000000000E+00  0.00000000000E+00  0.50000000000E+03  0.50000000000E+03  0.00000000000E+00 0.  1.
         11   -1    0    0    0    0 -0.00000000000E+00 -0.00000000000E+00 -0.50000000000E+03  0.50000000000E+03  0.00000000000E+00 0. -1.
         23    2    1    2    0    0  0.84775545102E+02 -0.66481170267E+02  0.45219362931E+03  0.47380608899E+03  0.91686926744E+02 0.  0.
        -11    1    1    2    0    0  0.12903828606E+02 -0.68068461416E+02 -0.36124552624E+02  0.78133267784E+02  0.00000000000E+00 0.  1.
         11    1    1    2    0    0 -0.97679373708E+02  0.13454963168E+03 -0.41606907668E+03  0.44806064322E+03  0.00000000000E+00 0. -1.
        -15    1    3    3    0    0  0.10120214694E+03 -0.71806286088E+02  0.39822502922E+03  0.41711431155E+03  0.17770000000E+01 0.  1.
         15    1    3    3    0    0 -0.16426601838E+02  0.53251158214E+01  0.53968600081E+02  0.56691777447E+02  0.17770000000E+01 0. -1.
</event>
<event>
 7    1  0.2288857E-006  0.4686091E+03  0.7546771E-02  0.9472925E-01
        -11   -1    0    0    0    0  0.00000000000E+00  0.00000000000E+00  0.50000000000E+03  0.50000000000E+03  0.00000000000E+00 0.  1.
         11   -1    0    0    0    0 -0.00000000000E+00 -0.00000000000E+00 -0.50000000000E+03  0.50000000000E+03  0.00000000000E+00 0. -1.
         23    2    1    2    0    0 -0.10532692226E+03  0.93318625854E+02  0.43418967058E+03  0.46550793159E+03  0.91514140163E+02 0.  0.
        -11    1    1    2    0    0 -0.11162401142E+02 -0.66548223899E+02  0.15460918632E+02  0.69226478376E+02  0.00000000000E+00 0.  1.
         11    1    1    2    0    0  0.11648932340E+03 -0.26770401955E+02 -0.44965058922E+03  0.46526559003E+03  0.00000000000E+00 0. -1.
        -15    1    3    3    0    0 -0.95306448305E+02  0.74905318308E+02  0.42602855681E+03  0.44294199930E+03  0.17770000000E+01 0.  1.
         15    1    3    3    0    0 -0.10020473953E+02  0.18413307545E+02  0.81611137716E+01  0.22565932288E+02  0.17770000000E+01 0. -1.
</event>
<event>
 7    1  0.2288857E-006  0.4773154E+03  0.7546771E-02  0.9452050E-01
        -11   -1    0    0    0    0  0.00000000000E+00  0.00000000000E+00  0.50000000000E+03  0.50000000000E+03  0.00000000000E+00 0. -1.
         11   -1    0    0    0    0 -0.00000000000E+00 -0.00000000000E+00 -0.50000000000E+03  0.50000000000E+03  0.00000000000E+00 0. -1.
         23    2    1    2    0    0  0.66334556757E+02 -0.55564642269E+02  0.45591091342E+03  0.47275288221E+03  0.90292988465E+02 0.  0.
        -11    1    1    2    0    0  0.50894635914E+02  0.12831723839E+02  0.21149100710E+01  0.52529895736E+02  0.00000000000E+00 0. -1.
         11    1    1    2    0    0 -0.11722919267E+03  0.42732918430E+02 -0.45802582349E+03  0.47471722206E+03  0.00000000000E+00 0. -1.
        -15    1    3    3    0    0 -0.52643667979E+01 -0.51958636076E+02  0.16196279891E+03  0.17018378119E+03  0.17770000000E+01 0.  1.
         15    1    3    3    0    0  0.71598923555E+02 -0.36060061936E+01  0.29394811451E+03  0.30256910101E+03  0.17770000000E+01 0. -1.
</event>
<event>
 7    1  0.2288857E-006  0.3490718E+03  0.7546771E-02  0.9820137E-01
        -11   -1    0    0    0    0  0.00000000000E+00  0.00000000000E+00  0.50000000000E+03  0.50000000000E+03  0.00000000000E+00 0. -1.
         11   -1    0    0    0    0 -0.00000000000E+00 -0.00000000000E+00 -0.50000000000E+03  0.50000000000E+03  0.00000000000E+00 0. -1.
         23    2    1    2    0    0 -0.10982562302E+03  0.99344628427E+02  0.42054749424E+03  0.45641271846E+03  0.97577415395E+02 0.  0.
        -11    1    1    2    0    0  0.17300182875E+03 -0.14057875191E+03 -0.16555765043E+03  0.27767130542E+03  0.00000000000E+00 0. -1.
         11    1    1    2    0    0 -0.63176205725E+02  0.41234123486E+02 -0.25498984381E+03  0.26591597612E+03  0.00000000000E+00 0. -1.
        -15    1    3    3    0    0 -0.10762333529E+03  0.83852858884E+02  0.41892024400E+03  0.44058076763E+03  0.17770000000E+01 0. -1.
         15    1    3    3    0    0 -0.22022877280E+01  0.15491769543E+02  0.16272502363E+01  0.15831950832E+02  0.17770000000E+01 0.  1.
</event>
<event>
 7    1  0.2288857E-006  0.4715109E+03  0.7546771E-02  0.9465914E-01
        -11   -1    0    0    0    0  0.00000000000E+00  0.00000000000E+00  0.50000000000E+03  0.50000000000E+03  0.00000000000E+00 0. -1.
         11   -1    0    0    0    0 -0.00000000000E+00 -0.00000000000E+00 -0.50000000000E+03  0.50000000000E+03  0.00000000000E+00 0.  1.
         23    2    1    2    0    0  0.15666260176E+02  0.22983240069E+03  0.40934141925E+03  0.47885553242E+03  0.93133556223E+02 0.  0.
        -11    1    1    2    0    0 -0.22518477972E+02  0.42505069576E+02 -0.42325657166E+02  0.64072022321E+02  0.00000000000E+00 0. -1.
         11    1    1    2    0    0  0.68522177959E+01 -0.27233747026E+03 -0.36701576209E+03  0.45707244526E+03  0.00000000000E+00 0.  1.
        -15    1    3    3    0    0  0.12675755610E+02  0.34715651525E+01  0.67883277158E+02  0.69166636405E+02  0.17770000000E+01 0.  1.
         15    1    3    3    0    0  0.29905045657E+01  0.22636083554E+03  0.34145814209E+03  0.40968889601E+03  0.17770000000E+01 0. -1.
</event>
<event>
 7    1  0.2288857E-006  0.4750009E+03  0.7546771E-02  0.9457553E-01
        -11   -1    0    0    0    0  0.00000000000E+00  0.00000000000E+00  0.50000000000E+03  0.50000000000E+03  0.00000000000E+00 0. -1.
         11   -1    0    0    0    0 -0.00000000000E+00 -0.00000000000E+00 -0.50000000000E+03  0.50000000000E+03  0.00000000000E+00 0. -1.
         23    2    1    2    0    0 -0.12670765604E+03  0.39061209112E+02  0.45392640770E+03  0.48100760289E+03  0.87968871063E+02 0.  0.
        -11    1    1    2    0    0 -0.42705420882E+02  0.23945082792E+02 -0.28239126273E+02  0.56520511456E+02  0.00000000000E+00 0. -1.
         11    1    1    2    0    0  0.16941307692E+03 -0.63006291905E+02 -0.42568728142E+03  0.46247188565E+03  0.00000000000E+00 0. -1.
        -15    1    3    3    0    0 -0.12678168781E+03  0.71800282432E+01  0.35293190895E+03  0.37508564256E+03  0.17770000000E+01 0.  1.
         15    1    3    3    0    0  0.74031766650E-01  0.31881180869E+02  0.10099449875E+03  0.10592196033E+03  0.17770000000E+01 0. -1.
</event>
<event>
 7    1  0.2288857E-006  0.5258560E+03  0.7546771E-02  0.9343744E-01
        -11   -1    0    0    0    0  0.00000000000E+00  0.00000000000E+00  0.50000000000E+03  0.50000000000E+03  0.00000000000E+00 0.  1.
         11   -1    0    0    0    0 -0.00000000000E+00 -0.00000000000E+00 -0.50000000000E+03  0.50000000000E+03  0.00000000000E+00 0.  1.
         23    2    1    2    0    0  0.40201038764E+01  0.28077122569E+02  0.27576987059E+03  0.29276369880E+03  0.94112038358E+02 0.  0.
        -11    1    1    2    0    0  0.43102701674E+01 -0.14273887957E+03  0.18422557099E+03  0.23309231471E+03  0.00000000000E+00 0.  1.
         11    1    1    2    0    0 -0.83303740438E+01  0.11466175701E+03 -0.45999544158E+03  0.47414398649E+03  0.00000000000E+00 0.  1.
        -15    1    3    3    0    0  0.38011476337E+02 -0.17094022358E+02  0.11978706705E+03  0.12684312002E+03  0.17770000000E+01 0.  1.
         15    1    3    3    0    0 -0.33991372461E+02  0.45171144926E+02  0.15598280354E+03  0.16592057878E+03  0.17770000000E+01 0. -1.
</event>
<event>
 7    1  0.2288857E-006  0.3804129E+03  0.7546771E-02  0.9716113E-01
        -11   -1    0    0    0    0  0.00000000000E+00  0.00000000000E+00  0.50000000000E+03  0.50000000000E+03  0.00000000000E+00 0.  1.
         11   -1    0    0    0    0 -0.00000000000E+00 -0.00000000000E+00 -0.50000000000E+03  0.50000000000E+03  0.00000000000E+00 0. -1.
         23    2    1    2    0    0  0.45894031178E+02  0.48858554858E+02  0.18092651090E+03  0.21508997636E+03  0.95057220145E+02 0.  0.
        -11    1    1    2    0    0 -0.56972328023E+02 -0.24694777194E+03  0.22127321160E+03  0.33643852692E+03  0.00000000000E+00 0.  1.
         11    1    1    2    0    0  0.11078296845E+02  0.19808921708E+03 -0.40219972251E+03  0.44847149672E+03  0.00000000000E+00 0. -1.
        -15    1    3    3    0    0 -0.16086913580E+02  0.23467320822E+02  0.12379811044E+03  0.12703792273E+03  0.17770000000E+01 0.  1.
         15    1    3    3    0    0  0.61980944758E+02  0.25391234036E+02  0.57128400464E+02  0.88052053625E+02  0.17770000000E+01 0. -1.
</event>
<event>
 7    1  0.2288857E-006  0.5080902E+03  0.7546771E-02  0.9381887E-01
        -11   -1    0    0    0    0  0.00000000000E+00  0.00000000000E+00  0.50000000000E+03  0.50000000000E+03  0.00000000000E+00 0.  1.
         11   -1    0    0    0    0 -0.00000000000E+00 -0.00000000000E+00 -0.50000000000E+03  0.50000000000E+03  0.00000000000E+00 0. -1.
         23    2    1    2    0    0  0.44353696498E+02 -0.47857339863E+02  0.24396676224E+03  0.26866272410E+03  0.91664076235E+02 0.  0.
        -11    1    1    2    0    0  0.42046219956E+02 -0.38041901514E+02  0.23261652058E+03  0.23942747655E+03  0.00000000000E+00 0.  1.
         11    1    1    2    0    0 -0.86399916455E+02  0.85899241377E+02 -0.47658328282E+03  0.49190979935E+03  0.00000000000E+00 0. -1.
        -15    1    3    3    0    0  0.35219750700E+02  0.21292275071E+02  0.69940478425E+02  0.81170315192E+02  0.17770000000E+01 0. -1.
         15    1    3    3    0    0  0.91339457988E+01 -0.69149614933E+02  0.17402628381E+03  0.18749240891E+03  0.17770000000E+01 0.  1.
</event>
<event>
 7    1  0.2288857E-006  0.5279673E+03  0.7546771E-02  0.9339317E-01
        -11   -1    0    0    0    0  0.00000000000E+00  0.00000000000E+00  0.50000000000E+03  0.50000000000E+03  0.00000000000E+00 0. -1.
         11   -1    0    0    0    0 -0.00000000000E+00 -0.00000000000E+00 -0.50000000000E+03  0.50000000000E+03  0.00000000000E+00 0.  1.
         23    2    1    2    0    0 -0.35395741316E+02  0.49333897470E+01  0.20964189434E+03  0.22948392443E+03  0.86231959686E+02 0.  0.
        -11    1    1    2    0    0  0.42634232112E+02 -0.19396624237E+03  0.22282668704E+03  0.29848335529E+03  0.00000000000E+00 0. -1.
         11    1    1    2    0    0 -0.72384907953E+01  0.18903285263E+03 -0.43246858139E+03  0.47203272027E+03  0.00000000000E+00 0.  1.
        -15    1    3    3    0    0  0.15143105929E+02  0.31518253464E+02  0.98114804623E+02  0.10417478857E+03  0.17770000000E+01 0.  1.
         15    1    3    3    0    0 -0.50538847246E+02 -0.26584863717E+02  0.11152708972E+03  0.12530913586E+03  0.17770000000E+01 0. -1.
</event>
<event>
 7    1  0.2288857E-006  0.5182476E+03  0.7546771E-02  0.9359880E-01
        -11   -1    0    0    0    0  0.00000000000E+00  0.00000000000E+00  0.50000000000E+03  0.50000000000E+03  0.00000000000E+00 0.  1.
         11   -1    0    0    0    0 -0.00000000000E+00 -0.00000000000E+00 -0.50000000000E+03  0.50000000000E+03  0.00000000000E+00 0. -1.
         23    2    1    2    0    0 -0.41122859429E+02 -0.69423411252E+02  0.13134567189E+03  0.17668755923E+03  0.86348760649E+02 0.  0.
        -11    1    1    2    0    0  0.54756454038E+02 -0.23473929844E+03  0.24199676404E+03  0.34156001126E+03  0.00000000000E+00 0.  1.
         11    1    1    2    0    0 -0.13633594609E+02  0.30416270969E+03 -0.37334243593E+03  0.48175242950E+03  0.00000000000E+00 0. -1.
        -15    1    3    3    0    0 -0.30300133103E+02  0.14077579477E+00  0.32712133812E+01  0.30528289338E+02  0.17770000000E+01 0. -1.
         15    1    3    3    0    0 -0.10822726325E+02 -0.69564187047E+02  0.12807445851E+03  0.14615926989E+03  0.17770000000E+01 0.  1.
</event>
<event>
 7    1  0.2288857E-006  0.5205838E+03  0.7546771E-02  0.9354894E-01
        -11   -1    0    0    0    0  0.00000000000E+00  0.00000000000E+00  0.50000000000E+03  0.50000000000E+03  0.00000000000E+00 0.  1.
         11   -1    0    0    0    0 -0.00000000000E+00 -0.00000000000E+00 -0.50000000000E+03  0.50000000000E+03  0.00000000000E+00 0. -1.
         23    2    1    2    0    0 -0.13525892665E+02 -0.49378000826E+02  0.21733284148E+03  0.24403282649E+03  0.98474969814E+02 0.  0.
        -11    1    1    2    0    0  0.97354298699E+02  0.46228877305E+02  0.25468702796E+03  0.27655099129E+03  0.00000000000E+00 0.  1.
         11    1    1    2    0    0 -0.83828406034E+02  0.31491235212E+01 -0.47201986944E+03  0.47941618223E+03  0.00000000000E+00 0. -1.
        -15    1    3    3    0    0 -0.36401761704E+02 -0.24413461187E+02  0.20219727238E+03  0.20690094255E+03  0.17770000000E+01 0.  1.
         15    1    3    3    0    0  0.22875869039E+02 -0.24964539639E+02  0.15135569102E+02  0.37131883937E+02  0.17770000000E+01 0. -1.
</event>
<event>
 7    1  0.2288857E-006  0.5290959E+03  0.7546771E-02  0.9336960E-01
        -11   -1    0    0    0    0  0.00000000000E+00  0.00000000000E+00  0.50000000000E+03  0.50000000000E+03  0.00000000000E+00 0. -1.
         11   -1    0    0    0    0 -0.00000000000E+00 -0.00000000000E+00 -0.50000000000E+03  0.50000000000E+03  0.00000000000E+00 0. -1.
         23    2    1    2    0    0  0.62062439392E+02  0.31039076568E+02 -0.18908890957E+03  0.22081107212E+03  0.90486149155E+02 0.  0.
        -11    1    1    2    0    0 -0.90657851638E+02  0.14974546869E+03  0.43715909374E+03  0.47090405041E+03  0.00000000000E+00 0. -1.
         11    1    1    2    0    0  0.28595412246E+02 -0.18078454525E+03 -0.24807018416E+03  0.30828487747E+03  0.00000000000E+00 0. -1.
        -15    1    3    3    0    0  0.45208090178E+02  0.56370281112E+02 -0.81249314237E+02  0.10874736228E+03  0.17770000000E+01 0. -1.
         15    1    3    3    0    0  0.16854349214E+02 -0.25331204544E+02 -0.10783959534E+03  0.11206370984E+03  0.17770000000E+01 0.  1.
</event>
<event>
 7    1  0.2288857E-006  0.5135889E+03  0.7546771E-02  0.9369907E-01
        -11   -1    0    0    0    0  0.00000000000E+00  0.00000000000E+00  0.50000000000E+03  0.50000000000E+03  0.00000000000E+00 0.  1.
         11   -1    0    0    0    0 -0.00000000000E+00 -0.00000000000E+00 -0.50000000000E+03  0.50000000000E+03  0.00000000000E+00 0. -1.
         23    2    1    2    0    0  0.16156804714E+02  0.47175526409E+01  0.34188509646E+03  0.35372441598E+03  0.89175364505E+02 0.  0.
        -11    1    1    2    0    0  0.87164376444E+02  0.16989211047E+02  0.13292997282E+03  0.15986444097E+03  0.00000000000E+00 0.  1.
         11    1    1    2    0    0 -0.10332118116E+03 -0.21706763688E+02 -0.47481506928E+03  0.48641114305E+03  0.00000000000E+00 0. -1.
        -15    1    3    3    0    0  0.29023045689E+02 -0.33336155801E+02  0.24270894331E+03  0.24670716519E+03  0.17770000000E+01 0.  1.
         15    1    3    3    0    0 -0.12866240976E+02  0.38053708442E+02  0.99176153147E+02  0.10701725078E+03  0.17770000000E+01 0. -1.
</event>
<event>
 7    1  0.2288857E-006  0.5355062E+03  0.7546771E-02  0.9323689E-01
        -11   -1    0    0    0    0  0.00000000000E+00  0.00000000000E+00  0.50000000000E+03  0.50000000000E+03  0.00000000000E+00 0. -1.
         11   -1    0    0    0    0 -0.00000000000E+00 -0.00000000000E+00 -0.50000000000E+03  0.50000000000E+03  0.00000000000E+00 0.  1.
         23    2    1    2    0    0  0.23047363333E+02 -0.87014409269E+02  0.24652195975E+03  0.27781771588E+03  0.91142296666E+02 0.  0.
        -11    1    1    2    0    0 -0.17262408452E+03  0.28038456089E+02  0.18925678986E+03  0.25768849817E+03  0.00000000000E+00 0. -1.
         11    1    1    2    0    0  0.14957672119E+03  0.58975953180E+02 -0.43577874961E+03  0.46449378595E+03  0.00000000000E+00 0.  1.
        -15    1    3    3    0    0  0.62576003729E+00  0.18265749769E+02  0.20855275252E+02  0.27787216937E+02  0.17770000000E+01 0.  1.
         15    1    3    3    0    0  0.22421603295E+02 -0.10528015904E+03  0.22566668450E+03  0.25003049894E+03  0.17770000000E+01 0. -1.
</event>
<event>
 7    1  0.2288857E-006  0.4038773E+03  0.7546771E-02  0.9645013E-01
        -11   -1    0    0    0    0  0.00000000000E+00  0.00000000000E+00  0.50000000000E+03  0.50000000000E+03  0.00000000000E+00 0.  1.
         11   -1    0    0    0    0 -0.00000000000E+00 -0.00000000000E+00 -0.50000000000E+03  0.50000000000E+03  0.00000000000E+00 0. -1.
         23    2    1    2    0    0  0.10393880435E+03 -0.88159065607E+02  0.65751968486E+02  0.17819335477E+03  0.94097047910E+02 0.  0.
        -11    1    1    2    0    0 -0.98086051680E+02 -0.31652493117E+02  0.36260637146E+03  0.37696967316E+03  0.00000000000E+00 0.  1.
         11    1    1    2    0    0 -0.58527526704E+01  0.11981155872E+03 -0.42835833995E+03  0.44483697207E+03  0.00000000000E+00 0. -1.
        -15    1    3    3    0    0  0.11456220526E+03 -0.65863168836E+02  0.74768124359E+02  0.15184164789E+03  0.17770000000E+01 0. -1.
         15    1    3    3    0    0 -0.10623400914E+02 -0.22295896771E+02 -0.90161558733E+01  0.26351706880E+02  0.17770000000E+01 0.  1.
</event>
<event>
 6    1  0.2288857E-006  0.3842392E+03  0.7546771E-02  0.9704150E-01
        -11   -1    0    0    0    0  0.00000000000E+00  0.00000000000E+00  0.50000000000E+03  0.50000000000E+03  0.00000000000E+00 0. -1.
         11   -1    0    0    0    0 -0.00000000000E+00 -0.00000000000E+00 -0.50000000000E+03  0.50000000000E+03  0.00000000000E+00 0. -1.
        -11    1    1    2    0    0 -0.14414943156E+02 -0.21265569506E+03  0.85774300547E+02  0.22975523033E+03  0.00000000000E+00 0. -1.
         11    1    1    2    0    0 -0.11995635452E+03  0.52335305556E+02 -0.36507288334E+03  0.38782305417E+03  0.00000000000E+00 0. -1.
        -15    1    1    2    0    0 -0.32803339896E+02  0.46345657562E+02  0.82463554019E+02  0.10013677923E+03  0.17770000000E+01 0.  1.
         15    1    1    2    0    0  0.16717463757E+03  0.11397473194E+03  0.19683502877E+03  0.28228493628E+03  0.17770000000E+01 0. -1.
</event>
<event>
 7    1  0.2288857E-006  0.5172311E+03  0.7546771E-02  0.9362058E-01
        -11   -1    0    0    0    0  0.00000000000E+00  0.00000000000E+00  0.50000000000E+03  0.50000000000E+03  0.00000000000E+00 0. -1.
         11   -1    0    0    0    0 -0.00000000000E+00 -0.00000000000E+00 -0.50000000000E+03  0.50000000000E+03  0.00000000000E+00 0.  1.
         23    2    1    2    0    0 -0.97119655434E+02  0.30448700951E+02  0.37954080170E+03  0.40317724152E+03  0.90229247261E+02 0.  0.
        -11    1    1    2    0    0 -0.14658737794E+00  0.81373304538E+02  0.79916445865E+02  0.11405382282E+03  0.00000000000E+00 0. -1.
         11    1    1    2    0    0  0.97266242812E+02 -0.11182200549E+03 -0.45945724757E+03  0.48276893567E+03  0.00000000000E+00 0.  1.
        -15    1    3    3    0    0 -0.35001512920E+02  0.56209017984E+02  0.14984014656E+03  0.16382852883E+03  0.17770000000E+01 0.  1.
         15    1    3    3    0    0 -0.62118142514E+02 -0.25760317033E+02  0.22970065514E+03  0.23934871269E+03  0.17770000000E+01 0. -1.
</event>
<event>
 7    1  0.2288857E-006  0.4314512E+03  0.7546771E-02  0.9567781E-01
        -11   -1    0    0    0    0  0.00000000000E+00  0.00000000000E+00  0.50000000000E+03  0.50000000000E+03  0.00000000000E+00 0.  1.
         11   -1    0    0    0    0 -0.00000000000E+00 -0.00000000000E+00 -0.50000000000E+03  0.50000000000E+03  0.00000000000E+00 0. -1.
         23    2    1    2    0    0  0.27487021835E+03 -0.26089748312E+03 -0.14556958453E+03  0.41696357717E+03  0.95115651235E+02 0.  0.
        -11    1    1    2    0    0 -0.24533059029E+03  0.24774391686E+03  0.27849612191E+03  0.44623338825E+03  0.00000000000E+00 0.  1.
         11    1    1    2    0    0 -0.29539628052E+02  0.13153566264E+02 -0.13292653737E+03  0.13680303458E+03  0.00000000000E+00 0. -1.
        -15    1    3    3    0    0  0.27180238066E+03 -0.24264368853E+03 -0.11663564306E+03  0.38256963376E+03  0.17770000000E+01 0.  1.
         15    1    3    3    0    0  0.30678376921E+01 -0.18253794593E+02 -0.28933941472E+02  0.34393943409E+02  0.17770000000E+01 0. -1.
</event>
<event>
 7    1  0.2288857E-006  0.4928446E+03  0.7546771E-02  0.9415964E-01
        -11   -1    0    0    0    0  0.00000000000E+00  0.00000000000E+00  0.50000000000E+03  0.50000000000E+03  0.00000000000E+00 0.  1.
         11   -1    0    0    0    0 -0.00000000000E+00 -0.00000000000E+00 -0.50000000000E+03  0.50000000000E+03  0.00000000000E+00 0. -1.
         23    2    1    2    0    0  0.22781734270E+02 -0.76313825448E+02  0.48000203923E+03  0.49748776320E+03  0.10367887683E+03 0.  0.
        -11    1    1    2    0    0  0.22410742646E+02 -0.13496866571E+01 -0.11038983499E+02  0.25018437136E+02  0.00000000000E+00 0.  1.
         11    1    1    2    0    0 -0.45192476916E+02  0.77663512105E+02 -0.46896305573E+03  0.47749379967E+03  0.00000000000E+00 0. -1.
        -15    1    3    3    0    0  0.53144561604E+02 -0.25562438224E+02  0.34614650447E+03  0.35113863781E+03  0.17770000000E+01 0.  1.
         15    1    3    3    0    0 -0.30362827334E+02 -0.50751387224E+02  0.13385553476E+03  0.14634912539E+03  0.17770000000E+01 0. -1.
</event>
<event>
 7    1  0.2288857E-006  0.4760556E+03  0.7546771E-02  0.9455041E-01
        -11   -1    0    0    0    0  0.00000000000E+00  0.00000000000E+00  0.50000000000E+03  0.50000000000E+03  0.00000000000E+00 0. -1.
         11   -1    0    0    0    0 -0.00000000000E+00 -0.00000000000E+00 -0.50000000000E+03  0.50000000000E+03  0.00000000000E+00 0.  1.
         23    2    1    2    0    0  0.18466964169E+02  0.81325882221E+02  0.43590702349E+03  0.45347902613E+03  0.93130908574E+02 0.  0.
        -11    1    1    2    0    0 -0.25435538256E+02  0.21948745861E+02  0.44123077501E+02  0.55457731827E+02  0.00000000000E+00 0. -1.
         11    1    1    2    0    0  0.69685740864E+01 -0.10327462808E+03 -0.48003010099E+03  0.49106324204E+03  0.00000000000E+00 0.  1.
        -15    1    3    3    0    0 -0.32419553534E+02  0.15468063343E+02  0.20255538034E+03  0.20572342664E+03  0.17770000000E+01 0. -1.
         15    1    3    3    0    0  0.50886517703E+02  0.65857818878E+02  0.23335164315E+03  0.24775559949E+03  0.17770000000E+01 0.  1.
</event>
<event>
 6    1  0.2288857E-006  0.3552375E+03  0.7546771E-02  0.9798770E-01
        -11   -1    0    0    0    0  0.00000000000E+00  0.00000000000E+00  0.50000000000E+03  0.50000000000E+03  0.00000000000E+00 0.  1.
         11   -1    0    0    0    0 -0.00000000000E+00 -0.00000000000E+00 -0.50000000000E+03  0.50000000000E+03  0.00000000000E+00 0. -1.
        -11    1    1    2    0    0  0.19436432540E+03  0.74722299633E-01  0.30139877170E+03  0.35863451612E+03  0.00000000000E+00 0.  1.
         11    1    1    2    0    0 -0.25699494807E+02 -0.79771131614E+02 -0.36971216352E+03  0.37909231241E+03  0.00000000000E+00 0. -1.
        -15    1    1    2    0    0 -0.44596538112E+02  0.30990850729E+01 -0.55284540986E+02  0.71119573543E+02  0.17770000000E+01 0.  1.
         15    1    1    2    0    0 -0.12406829248E+03  0.76597324241E+02  0.12359793280E+03  0.19115359793E+03  0.17770000000E+01 0. -1.
</event>
<event>
 7    1  0.2288857E-006  0.3774310E+03  0.7546771E-02  0.9725541E-01
        -11   -1    0    0    0    0  0.00000000000E+00  0.00000000000E+00  0.50000000000E+03  0.50000000000E+03  0.00000000000E+00 0.  1.
         11   -1    0    0    0    0 -0.00000000000E+00 -0.00000000000E+00 -0.50000000000E+03  0.50000000000E+03  0.00000000000E+00 0.  1.
         23    2    1    2    0    0 -0.25721134334E+03 -0.20421739308E+03  0.15624894554E+03  0.37456199201E+03  0.89557434642E+02 0.  0.
        -11    1    1    2    0    0  0.18052735281E+03  0.35916616728E+03 -0.15126870335E+02  0.40226767586E+03  0.00000000000E+00 0.  1.
         11    1    1    2    0    0  0.76683990532E+02 -0.15494877421E+03 -0.14112207521E+03  0.22317033213E+03  0.00000000000E+00 0.  1.
        -15    1    3    3    0    0 -0.14227863909E+03 -0.65305397865E+02  0.99651686225E+02  0.18558454253E+03  0.17770000000E+01 0. -1.
         15    1    3    3    0    0 -0.11493270425E+03 -0.13891199521E+03  0.56597259316E+02  0.18897744948E+03  0.17770000000E+01 0.  1.
</event>
<event>
 7    1  0.2288857E-006  0.3413576E+03  0.7546771E-02  0.9847547E-01
        -11   -1    0    0    0    0  0.00000000000E+00  0.00000000000E+00  0.50000000000E+03  0.50000000000E+03  0.00000000000E+00 0.  1.
         11   -1    0    0    0    0 -0.00000000000E+00 -0.00000000000E+00 -0.50000000000E+03  0.50000000000E+03  0.00000000000E+00 0. -1.
         23    2    1    2    0    0  0.75987910204E+02 -0.29227170101E+03 -0.52803795770E+02  0.31934737865E+03  0.89429288798E+02 0.  0.
        -11    1    1    2    0    0 -0.36786745488E+02  0.24532784483E+03  0.32093591025E+03  0.40563391695E+03  0.00000000000E+00 0.  1.
         11    1    1    2    0    0 -0.39201164716E+02  0.46943856183E+02 -0.26813211448E+03  0.27501870439E+03  0.00000000000E+00 0. -1.
        -15    1    3    3    0    0  0.42974058055E+02 -0.26690893093E+03 -0.30452590692E+02  0.27206187731E+03  0.17770000000E+01 0. -1.
         15    1    3    3    0    0  0.33013852149E+02 -0.25362770084E+02 -0.22351205078E+02  0.47285501345E+02  0.17770000000E+01 0.  1.
</event>
<event>
 7    1  0.2333084E-006  0.4759813E+03  0.7546771E-02  0.9455218E-01
        -11   -1    0    0    0    0  0.00000000000E+00  0.00000000000E+00  0.50000000000E+03  0.50000000000E+03  0.00000000000E+00 0. -1.
         11   -1    0    0    0    0 -0.00000000000E+00 -0.00000000000E+00 -0.50000000000E+03  0.50000000000E+03  0.00000000000E+00 0. -1.
         23    2    1    2    0    0 -0.91973186552E+02 -0.44206997452E+02 -0.43077886631E+03  0.45203237458E+03  0.91375655082E+02 0.  0.
        -11    1    1    2    0    0  0.88158706488E+02  0.29275456880E+02  0.48385919240E+03  0.49269537036E+03  0.00000000000E+00 0. -1.
         11    1    1    2    0    0  0.38144800647E+01  0.14931540572E+02 -0.53080326083E+02  0.55272255057E+02  0.00000000000E+00 0. -1.
        -15    1    3    3    0    0  0.15848035195E+02  0.67183830992E+01 -0.67332043652E+02  0.69520203699E+02  0.17770000000E+01 0.  1.
         15    1    3    3    0    0 -0.10782122175E+03 -0.50925380551E+02 -0.36344682266E+03  0.38251217089E+03  0.17770000000E+01 0. -1.
</event>
<event>
 7    1  0.2288857E-006  0.5190094E+03  0.7546771E-02  0.9358251E-01
        -11   -1    0    0    0    0  0.00000000000E+00  0.00000000000E+00  0.50000000000E+03  0.50000000000E+03  0.00000000000E+00 0. -1.
         11   -1    0    0    0    0 -0.00000000000E+00 -0.00000000000E+00 -0.50000000000E+03  0.50000000000E+03  0.00000000000E+00 0. -1.
         23    2    1    2    0    0 -0.93699326463E+02 -0.35934861051E+03  0.29215523001E+03  0.48099064436E+03  0.89924045053E+02 0.  0.
        -11    1    1    2    0    0  0.82380334063E+02  0.33578705152E+03 -0.15415289009E+03  0.37855326829E+03  0.00000000000E+00 0. -1.
         11    1    1    2    0    0  0.11318992400E+02  0.23561558999E+02 -0.13800233992E+03  0.14045608735E+03  0.00000000000E+00 0. -1.
        -15    1    3    3    0    0 -0.91902959630E+02 -0.23979714012E+03  0.23640531187E+03  0.34905508391E+03  0.17770000000E+01 0.  1.
         15    1    3    3    0    0 -0.17963668327E+01 -0.11955147040E+03  0.55749918144E+02  0.13193556045E+03  0.17770000000E+01 0. -1.
</event>
<event>
 7    1  0.2288857E-006  0.5266077E+03  0.7546771E-02  0.9342165E-01
        -11   -1    0    0    0    0  0.00000000000E+00  0.00000000000E+00  0.50000000000E+03  0.50000000000E+03  0.00000000000E+00 0.  1.
         11   -1    0    0    0    0 -0.00000000000E+00 -0.00000000000E+00 -0.50000000000E+03  0.50000000000E+03  0.00000000000E+00 0. -1.
         23    2    1    2    0    0 -0.96444629567E+02  0.59290252156E+02 -0.20041775733E+03  0.24754296954E+03  0.91067797489E+02 0.  0.
        -11    1    1    2    0    0  0.65563831734E+02 -0.26427203815E+03  0.38724917581E+03  0.47339227956E+03  0.00000000000E+00 0.  1.
         11    1    1    2    0    0  0.30880797833E+02  0.20498178600E+03 -0.18683141848E+03  0.27906475090E+03  0.00000000000E+00 0. -1.
        -15    1    3    3    0    0 -0.11224984997E+03  0.60587627236E+02 -0.16393359367E+03  0.20772161721E+03  0.17770000000E+01 0. -1.
         15    1    3    3    0    0  0.15805220405E+02 -0.12973750804E+01 -0.36484163660E+02  0.39821352326E+02  0.17770000000E+01 0.  1.
</event>
<event>
 7    1  0.2288857E-006  0.5329148E+03  0.7546771E-02  0.9329030E-01
        -11   -1    0    0    0    0  0.00000000000E+00  0.00000000000E+00  0.50000000000E+03  0.50000000000E+03  0.00000000000E+00 0.  1.
         11   -1    0    0    0    0 -0.00000000000E+00 -0.00000000000E+00 -0.50000000000E+03  0.50000000000E+03  0.00000000000E+00 0. -1.
         23    2    1    2    0    0 -0.42913780533E+02  0.49021852762E+02 -0.43541310670E+02  0.11971936909E+03  0.90510480012E+02 0.  0.
        -11    1    1    2    0    0 -0.19035962834E+02 -0.18110316894E+03  0.43012537394E+03  0.46708517745E+03  0.00000000000E+00 0.  1.
         11    1    1    2    0    0  0.61949743367E+02  0.13208131618E+03 -0.38658406327E+03  0.41319545346E+03  0.00000000000E+00 0. -1.
        -15    1    3    3    0    0  0.23496896458E+02  0.37094396753E+02 -0.14987881446E+02  0.46431591970E+02  0.17770000000E+01 0. -1.
         15    1    3    3    0    0 -0.66410676992E+02  0.11927456009E+02 -0.28553429224E+02  0.73287777117E+02  0.17770000000E+01 0.  1.
</event>
<event>
 7    1  0.2288857E-006  0.3645824E+03  0.7546771E-02  0.9767256E-01
        -11   -1    0    0    0    0  0.00000000000E+00  0.00000000000E+00  0.50000000000E+03  0.50000000000E+03  0.00000000000E+00 0.  1.
         11   -1    0    0    0    0 -0.00000000000E+00 -0.00000000000E+00 -0.50000000000E+03  0.50000000000E+03  0.00000000000E+00 0. -1.
         23    2    1    2    0    0  0.30644253778E+02  0.85970160506E+02  0.27385855739E+03  0.30287959497E+03  0.91692970324E+02 0.  0.
        -11    1    1    2    0    0  0.67182735606E+02 -0.16721505574E+03  0.16247344827E+03  0.24263556257E+03  0.00000000000E+00 0.  1.
         11    1    1    2    0    0 -0.97826989384E+02  0.81244895237E+02 -0.43633200567E+03  0.45448484246E+03  0.00000000000E+00 0. -1.
        -15    1    3    3    0    0  0.35988954900E+02  0.13581531077E+02  0.31107254553E+02  0.49502342127E+02  0.17770000000E+01 0. -1.
         15    1    3    3    0    0 -0.53447011223E+01  0.72388629428E+02  0.24275130284E+03  0.25337725285E+03  0.17770000000E+01 0.  1.
</event>
<event>
 7    1  0.2288857E-006  0.3476107E+03  0.7546771E-02  0.9825270E-01
        -11   -1    0    0    0    0  0.00000000000E+00  0.00000000000E+00  0.50000000000E+03  0.50000000000E+03  0.00000000000E+00 0. -1.
         11   -1    0    0    0    0 -0.00000000000E+00 -0.00000000000E+00 -0.50000000000E+03  0.50000000000E+03  0.00000000000E+00 0.  1.
         23    2    1    2    0    0 -0.62361498572E+02 -0.17758847970E+03 -0.15774841721E+03  0.26267783103E+03  0.93211883115E+02 0.  0.
        -11    1    1    2    0    0  0.88379003004E+02  0.80105007346E+02  0.43038857437E+03  0.44661167172E+03  0.00000000000E+00 0. -1.
         11    1    1    2    0    0 -0.26017504431E+02  0.97483472350E+02 -0.27264015715E+03  0.29071049725E+03  0.00000000000E+00 0.  1.
        -15    1    3    3    0    0 -0.79715648863E+02 -0.16046124047E+03 -0.11343621130E+03  0.21206915412E+03  0.17770000000E+01 0. -1.
         15    1    3    3    0    0  0.17354150291E+02 -0.17127239225E+02 -0.44312205917E+02  0.50608676904E+02  0.17770000000E+01 0.  1.
</event>
<event>
 7    1  0.2288857E-006  0.4587226E+03  0.7546771E-02  0.9497224E-01
        -11   -1    0    0    0    0  0.00000000000E+00  0.00000000000E+00  0.50000000000E+03  0.50000000000E+03  0.00000000000E+00 0. -1.
         11   -1    0    0    0    0 -0.00000000000E+00 -0.00000000000E+00 -0.50000000000E+03  0.50000000000E+03  0.00000000000E+00 0.  1.
         23    2    1    2    0    0  0.24976160179E+02  0.45872393724E+02  0.41022872251E+03  0.42356589141E+03  0.91609903990E+02 0.  0.
        -11    1    1    2    0    0 -0.83263656355E+01  0.54725669876E+02  0.67870610824E+02  0.87582230627E+02  0.00000000000E+00 0. -1.
         11    1    1    2    0    0 -0.16649794544E+02 -0.10059806360E+03 -0.47809933333E+03  0.48885187797E+03  0.00000000000E+00 0.  1.
        -15    1    3    3    0    0 -0.13013239508E+02 -0.14234629088E+02  0.23990553962E+02  0.30832993306E+02  0.17770000000E+01 0.  1.
         15    1    3    3    0    0  0.37989399687E+02  0.60107022813E+02  0.38623816855E+03  0.39273289810E+03  0.17770000000E+01 0. -1.
</event>
<event>
 7    1  0.2288857E-006  0.4742487E+03  0.7546771E-02  0.9459348E-01
        -11   -1    0    0    0    0  0.00000000000E+00  0.00000000000E+00  0.50000000000E+03  0.50000000000E+03  0.00000000000E+00 0. -1.
         11   -1    0    0    0    0 -0.00000000000E+00 -0.00000000000E+00 -0.50000000000E+03  0.50000000000E+03  0.00000000000E+00 0.  1.
         23    2    1    2    0    0 -0.38729930427E+01 -0.60460316570E+02  0.44180905763E+03  0.45487927946E+03  0.89718813642E+02 0.  0.
        -11    1    1    2    0    0  0.41296830375E+02 -0.17099295278E+02  0.37372458010E+02  0.58262464038E+02  0.00000000000E+00 0. -1.
         11    1    1    2    0    0 -0.37423837333E+02  0.77559611847E+02 -0.47918151564E+03  0.48685825650E+03  0.00000000000E+00 0.  1.
        -15    1    3    3    0    0 -0.25670990809E+02  0.12302437965E+02  0.74036171374E+02  0.79340167316E+02  0.17770000000E+01 0.  1.
         15    1    3    3    0    0  0.21797997767E+02 -0.72762754535E+02  0.36777288626E+03  0.37553911214E+03  0.17770000000E+01 0. -1.
</event>
<event>
 7    1  0.2288857E-006  0.5403279E+03  0.7546771E-02  0.9313836E-01
        -11   -1    0    0    0    0  0.00000000000E+00  0.00000000000E+00  0.50000000000E+03  0.50000000000E+03  0.00000000000E+00 0.  1.
         11   -1    0    0    0    0 -0.00000000000E+00 -0.00000000000E+00 -0.50000000000E+03  0.50000000000E+03  0.00000000000E+00 0. -1.
         23    2    1    2    0    0  0.27556720710E+02  0.61537015322E+01  0.20260226475E+03  0.22299530851E+03  0.88780566774E+02 0.  0.
        -11    1    1    2    0    0 -0.17650899116E+03 -0.17310879454E+03  0.19894187357E+03  0.31733255075E+03  0.00000000000E+00 0.  1.
         11    1    1    2    0    0  0.14895227045E+03  0.16695509300E+03 -0.40154413832E+03  0.45967214074E+03  0.00000000000E+00 0. -1.
        -15    1    3    3    0    0 -0.21480741303E+02  0.16903038868E+02  0.14037623516E+03  0.14302370466E+03  0.17770000000E+01 0.  1.
         15    1    3    3    0    0  0.49037462013E+02 -0.10749337336E+02  0.62226029597E+02  0.79971603849E+02  0.17770000000E+01 0. -1.
</event>
<event>
 7    1  0.2288857E-006  0.5068519E+03  0.7546771E-02  0.9384607E-01
        -11   -1    0    0    0    0  0.00000000000E+00  0.00000000000E+00  0.50000000000E+03  0.50000000000E+03  0.00000000000E+00 0. -1.
         11   -1    0    0    0    0 -0.00000000000E+00 -0.00000000000E+00 -0.50000000000E+03  0.50000000000E+03  0.00000000000E+00 0. -1.
         23    2    1    2    0    0 -0.31658131385E+02  0.69742179619E+02 -0.30313967456E+03  0.32565448764E+03  0.91054786382E+02 0.  0.
        -11    1    1    2    0    0  0.30113574877E+02 -0.11381086714E+03  0.47888967484E+03  0.49314811318E+03  0.00000000000E+00 0. -1.
         11    1    1    2    0    0  0.15445565079E+01  0.44068687517E+02 -0.17575000027E+03  0.18119739918E+03  0.00000000000E+00 0. -1.
        -15    1    3    3    0    0  0.25194553785E+02  0.41140320178E+02 -0.18784647131E+03  0.19395036994E+03  0.17770000000E+01 0.  1.
         15    1    3    3    0    0 -0.56852685170E+02  0.28601859441E+02 -0.11529320325E+03  0.13170411770E+03  0.17770000000E+01 0. -1.
</event>
<event>
 7    1  0.2288857E-006  0.4405759E+03  0.7546771E-02  0.9543569E-01
        -11   -1    0    0    0    0  0.00000000000E+00  0.00000000000E+00  0.50000000000E+03  0.50000000000E+03  0.00000000000E+00 0.  1.
         11   -1    0    0    0    0 -0.00000000000E+00 -0.00000000000E+00 -0.50000000000E+03  0.50000000000E+03  0.00000000000E+00 0.  1.
         23    2    1    2    0    0  0.52014585634E+02  0.66522741396E+00 -0.49644128095E+02  0.11591921491E+03  0.90921753637E+02 0.  0.
        -11    1    1    2    0    0  0.68234470859E+02  0.28002577711E+03  0.35159929035E+03  0.45463440239E+03  0.00000000000E+00 0.  1.
         11    1    1    2    0    0 -0.12024905649E+03 -0.28069100452E+03 -0.30195516225E+03  0.42944638271E+03  0.00000000000E+00 0.  1.
        -15    1    3    3    0    0 -0.70035063660E+01 -0.20376080144E+02 -0.48641117383E+02  0.53229219163E+02  0.17770000000E+01 0. -1.
         15    1    3    3    0    0  0.59018092000E+02  0.21041307557E+02 -0.10030107120E+01  0.62689995746E+02  0.17770000000E+01 0.  1.
</event>
<event>
 7    1  0.2288857E-006  0.5222105E+03  0.7546771E-02  0.9351439E-01
        -11   -1    0    0    0    0  0.00000000000E+00  0.00000000000E+00  0.50000000000E+03  0.50000000000E+03  0.00000000000E+00 0.  1.
         11   -1    0    0    0    0 -0.00000000000E+00 -0.00000000000E+00 -0.50000000000E+03  0.50000000000E+03  0.00000000000E+00 0. -1.
         23    2    1    2    0    0 -0.35418656884E+02  0.40253222786E+02  0.12770554982E+03  0.16859344298E+03  0.96126158573E+02 0.  0.
        -11    1    1    2    0    0 -0.22620236725E+02  0.25702985801E+03  0.24180365523E+03  0.35361706789E+03  0.00000000000E+00 0.  1.
         11    1    1    2    0    0  0.58038893609E+02 -0.29728308080E+03 -0.36950920505E+03  0.47778948913E+03  0.00000000000E+00 0. -1.
        -15    1    3    3    0    0 -0.16588296226E+02  0.65416465796E+02  0.11747845948E+03  0.13549476647E+03  0.17770000000E+01 0.  1.
         15    1    3    3    0    0 -0.18830360658E+02 -0.25163243011E+02  0.10227090338E+02  0.33098676516E+02  0.17770000000E+01 0. -1.
</event>
<event>
 7    1  0.2288857E-006  0.4744602E+03  0.7546771E-02  0.9458843E-01
        -11   -1    0    0    0    0  0.00000000000E+00  0.00000000000E+00  0.50000000000E+03  0.50000000000E+03  0.00000000000E+00 0.  1.
         11   -1    0    0    0    0 -0.00000000000E+00 -0.00000000000E+00 -0.50000000000E+03  0.50000000000E+03  0.00000000000E+00 0. -1.
         23    2    1    2    0    0 -0.97409756612E+02 -0.24188372788E+02  0.42604913942E+03  0.44735225100E+03  0.92371149220E+02 0.  0.
        -11    1    1    2    0    0 -0.25935988000E+02 -0.92390197269E+01  0.51444392993E+02  0.58348612061E+02  0.00000000000E+00 0.  1.
         11    1    1    2    0    0  0.12334574461E+03  0.33427392515E+02 -0.47749353241E+03  0.49429913694E+03  0.00000000000E+00 0. -1.
        -15    1    3    3    0    0 -0.53855696265E+02 -0.55005163551E+02  0.31300432750E+03  0.32233657999E+03  0.17770000000E+01 0.  1.
         15    1    3    3    0    0 -0.43554060347E+02  0.30816790762E+02  0.11304481193E+03  0.12501567101E+03  0.17770000000E+01 0. -1.
</event>
<event>
 7    1  0.2288857E-006  0.5127110E+03  0.7546771E-02  0.9371809E-01
        -11   -1    0    0    0    0  0.00000000000E+00  0.00000000000E+00  0.50000000000E+03  0.50000000000E+03  0.00000000000E+00 0. -1.
         11   -1    0    0    0    0 -0.00000000000E+00 -0.00000000000E+00 -0.50000000000E+03  0.50000000000E+03  0.00000000000E+00 0.  1.
         23    2    1    2    0    0  0.68489510192E+01 -0.13637322399E+03  0.37633144666E+03  0.40795200580E+03  0.78453278667E+02 0.  0.
        -11    1    1    2    0    0  0.11939708182E+02  0.31551111627E+02  0.99178697440E+02  0.10475897719E+03  0.00000000000E+00 0. -1.
         11    1    1    2    0    0 -0.18788659202E+02  0.10482211236E+03 -0.47551014410E+03  0.48728901701E+03  0.00000000000E+00 0.  1.
        -15    1    3    3    0    0 -0.25342788020E+02 -0.10800376574E+03  0.30659102688E+03  0.32604951435E+03  0.17770000000E+01 0. -1.
         15    1    3    3    0    0  0.32191739039E+02 -0.28369458250E+02  0.69740419788E+02  0.81902491446E+02  0.17770000000E+01 0.  1.
</event>
<event>
 7    1  0.2288857E-006  0.4808361E+03  0.7546771E-02  0.9443742E-01
        -11   -1    0    0    0    0  0.00000000000E+00  0.00000000000E+00  0.50000000000E+03  0.50000000000E+03  0.00000000000E+00 0.  1.
         11   -1    0    0    0    0 -0.00000000000E+00 -0.00000000000E+00 -0.50000000000E+03  0.50000000000E+03  0.00000000000E+00 0.  1.
         23    2    1    2    0    0  0.62501747671E+01  0.11795823772E+03 -0.43649938577E+03  0.46166586473E+03  0.93007775771E+02 0.  0.
        -11    1    1    2    0    0 -0.24989004901E+02 -0.14403819538E+03  0.46983081590E+03  0.49204923297E+03  0.00000000000E+00 0.  1.
         11    1    1    2    0    0  0.18738830134E+02  0.26079957655E+02 -0.33331430132E+02  0.46284902298E+02  0.00000000000E+00 0.  1.
        -15    1    3    3    0    0  0.27229605805E+02  0.68008780471E+02 -0.12035565485E+03  0.14090878978E+03  0.17770000000E+01 0. -1.
         15    1    3    3    0    0 -0.20979431038E+02  0.49949457252E+02 -0.31614373092E+03  0.32075707496E+03  0.17770000000E+01 0.  1.
</event>
<event>
 7    1  0.2288857E-006  0.4465568E+03  0.7546771E-02  0.9528036E-01
        -11   -1    0    0    0    0  0.00000000000E+00  0.00000000000E+00  0.50000000000E+03  0.50000000000E+03  0.00000000000E+00 0.  1.
         11   -1    0    0    0    0 -0.00000000000E+00 -0.00000000000E+00 -0.50000000000E+03  0.50000000000E+03  0.00000000000E+00 0. -1.
         23    2    1    2    0    0 -0.18495018458E+02  0.14990109974E+03  0.44757446563E+03  0.48119885426E+03  0.91744371205E+02 0.  0.
        -11    1    1    2    0    0 -0.33737713265E+02 -0.93795388210E+02 -0.45654464658E+02  0.10963639126E+03  0.00000000000E+00 0.  1.
         11    1    1    2    0    0  0.52232731722E+02 -0.56105711527E+02 -0.40192000097E+03  0.40916475448E+03  0.00000000000E+00 0. -1.
        -15    1    3    3    0    0 -0.24109025207E+02  0.50755332605E+02  0.64984479603E+02  0.85927232019E+02  0.17770000000E+01 0. -1.
         15    1    3    3    0    0  0.56140067498E+01  0.99145767132E+02  0.38258998602E+03  0.39527162224E+03  0.17770000000E+01 0.  1.
</event>
<event>
 7    1  0.2288857E-006  0.4251717E+03  0.7546771E-02  0.9584817E-01
        -11   -1    0    0    0    0  0.00000000000E+00  0.00000000000E+00  0.50000000000E+03  0.50000000000E+03  0.00000000000E+00 0. -1.
         11   -1    0    0    0    0 -0.00000000000E+00 -0.00000000000E+00 -0.50000000000E+03  0.50000000000E+03  0.00000000000E+00 0. -1.
         23    2    1    2    0    0  0.23829148066E+01 -0.19235767646E+03  0.35897514006E+03  0.41739853024E+03  0.91385052880E+02 0.  0.
        -11    1    1    2    0    0  0.10702947848E+03  0.10778481332E+03 -0.40841022630E+03  0.43574280050E+03  0.00000000000E+00 0. -1.
         11    1    1    2    0    0 -0.10941239329E+03  0.84572863139E+02  0.49435086240E+02  0.14685866926E+03  0.00000000000E+00 0. -1.
        -15    1    3    3    0    0  0.41938023382E+02 -0.10695769172E+03  0.15688252587E+03  0.19445829958E+03  0.17770000000E+01 0. -1.
         15    1    3    3    0    0 -0.39555108576E+02 -0.85399984744E+02  0.20209261419E+03  0.22294023066E+03  0.17770000000E+01 0.  1.
</event>
<event>
 7    1  0.2288857E-006  0.3974959E+03  0.7546771E-02  0.9663829E-01
        -11   -1    0    0    0    0  0.00000000000E+00  0.00000000000E+00  0.50000000000E+03  0.50000000000E+03  0.00000000000E+00 0. -1.
         11   -1    0    0    0    0 -0.00000000000E+00 -0.00000000000E+00 -0.50000000000E+03  0.50000000000E+03  0.00000000000E+00 0. -1.
         23    2    1    2    0    0 -0.36202549445E+02 -0.10160911217E+03  0.36049211344E+03  0.38683711115E+03  0.89740461593E+02 0.  0.
        -11    1    1    2    0    0  0.17923572781E+02  0.18405296773E+03  0.52015899734E+02  0.19209998234E+03  0.00000000000E+00 0. -1.
         11    1    1    2    0    0  0.18278976664E+02 -0.82443855561E+02 -0.41250801317E+03  0.42106290651E+03  0.00000000000E+00 0. -1.
        -15    1    3    3    0    0 -0.58152047472E+02 -0.87340738816E+02  0.33159025831E+03  0.34780069353E+03  0.17770000000E+01 0. -1.
         15    1    3    3    0    0  0.21949498026E+02 -0.14268373354E+02  0.28901855127E+02  0.39036417619E+02  0.17770000000E+01 0.  1.
</event>
<event>
 7    1  0.2288857E-006  0.3914409E+03  0.7546771E-02  0.9682034E-01
        -11   -1    0    0    0    0  0.00000000000E+00  0.00000000000E+00  0.50000000000E+03  0.50000000000E+03  0.00000000000E+00 0.  1.
         11   -1    0    0    0    0 -0.00000000000E+00 -0.00000000000E+00 -0.50000000000E+03  0.50000000000E+03  0.00000000000E+00 0. -1.
         23    2    1    2    0    0  0.38518821112E+02 -0.45542147725E+02  0.34979160905E+03  0.36681399894E+03  0.92954576345E+02 0.  0.
        -11    1    1    2    0    0 -0.13381962731E+02  0.19450592166E+03  0.53795595282E+02  0.20225132029E+03  0.00000000000E+00 0.  1.
         11    1    1    2    0    0 -0.25136858380E+02 -0.14896377393E+03 -0.40358720433E+03  0.43093468077E+03  0.00000000000E+00 0. -1.
        -15    1    3    3    0    0 -0.72048092036E+01  0.22868856666E+02  0.12812136594E+03  0.13035772328E+03  0.17770000000E+01 0. -1.
         15    1    3    3    0    0  0.45723630315E+02 -0.68411004390E+02  0.22167024311E+03  0.23645627566E+03  0.17770000000E+01 0.  1.
</event>
<event>
 7    1  0.3155132E-006  0.5083206E+03  0.7546771E-02  0.9381382E-01
        -11   -1    0    0    0    0  0.00000000000E+00  0.00000000000E+00  0.50000000000E+03  0.50000000000E+03  0.00000000000E+00 0. -1.
         11   -1    0    0    0    0 -0.00000000000E+00 -0.00000000000E+00 -0.50000000000E+03  0.50000000000E+03  0.00000000000E+00 0. -1.
         23    2    1    2    0    0  0.36496656013E+02 -0.24621363513E+01 -0.27975362230E+03  0.29603203063E+03  0.89637079120E+02 0.  0.
        -11    1    1    2    0    0 -0.87742560719E+02 -0.33268337305E+02  0.48264181035E+03  0.49167942435E+03  0.00000000000E+00 0. -1.
         11    1    1    2    0    0  0.51245904706E+02  0.35730473657E+02 -0.20288818805E+03  0.21228854503E+03  0.00000000000E+00 0. -1.
        -15    1    3    3    0    0 -0.26581881068E+02  0.13452059447E+02 -0.11706776756E+03  0.12081214440E+03  0.17770000000E+01 0. -1.
         15    1    3    3    0    0  0.63078537081E+02 -0.15914195798E+02 -0.16268585473E+03  0.17521988622E+03  0.17770000000E+01 0.  1.
</event>
<event>
 7    1  0.2288857E-006  0.4718633E+03  0.7546771E-02  0.9465067E-01
        -11   -1    0    0    0    0  0.00000000000E+00  0.00000000000E+00  0.50000000000E+03  0.50000000000E+03  0.00000000000E+00 0. -1.
         11   -1    0    0    0    0 -0.00000000000E+00 -0.00000000000E+00 -0.50000000000E+03  0.50000000000E+03  0.00000000000E+00 0.  1.
         23    2    1    2    0    0 -0.27200842655E+02  0.58158886233E+02  0.43622111868E+03  0.44976286824E+03  0.88743627287E+02 0.  0.
        -11    1    1    2    0    0 -0.39630857845E+02  0.28890535225E+02  0.38905149445E+02  0.62600947057E+02  0.00000000000E+00 0. -1.
         11    1    1    2    0    0  0.66831700500E+02 -0.87049421458E+02 -0.47512626812E+03  0.48763618470E+03  0.00000000000E+00 0.  1.
        -15    1    3    3    0    0 -0.96030923146E+01 -0.19315595819E+02  0.38377833546E+02  0.44060497733E+02  0.17770000000E+01 0.  1.
         15    1    3    3    0    0 -0.17597750340E+02  0.77474482052E+02  0.39784328513E+03  0.40570237051E+03  0.17770000000E+01 0. -1.
</event>
<event>
 7    1  0.2288857E-006  0.3470403E+03  0.7546771E-02  0.9827281E-01
        -11   -1    0    0    0    0  0.00000000000E+00  0.00000000000E+00  0.50000000000E+03  0.50000000000E+03  0.00000000000E+00 0.  1.
         11   -1    0    0    0    0 -0.00000000000E+00 -0.00000000000E+00 -0.50000000000E+03  0.50000000000E+03  0.00000000000E+00 0. -1.
         23    2    1    2    0    0 -0.16682025676E+03 -0.35587342733E+02  0.18422751680E+03  0.27643739258E+03  0.11568231084E+03 0.  0.
        -11    1    1    2    0    0  0.45230481308E+02  0.11672713038E+03  0.24227509214E+03  0.27270540823E+03  0.00000000000E+00 0.  1.
         11    1    1    2    0    0  0.12158977545E+03 -0.81139787649E+02 -0.42650260894E+03  0.45085719919E+03  0.00000000000E+00 0. -1.
        -15    1    3    3    0    0 -0.13900103625E+03 -0.28036340954E+02  0.19871464706E+03  0.24412700215E+03  0.17770000000E+01 0.  1.
         15    1    3    3    0    0 -0.27819220507E+02 -0.75510017789E+01 -0.14487130259E+02  0.32310390428E+02  0.17770000000E+01 0. -1.
</event>
<event>
 7    1  0.2288857E-006  0.4040617E+03  0.7546771E-02  0.9644475E-01
        -11   -1    0    0    0    0  0.00000000000E+00  0.00000000000E+00  0.50000000000E+03  0.50000000000E+03  0.00000000000E+00 0. -1.
         11   -1    0    0    0    0 -0.00000000000E+00 -0.00000000000E+00 -0.50000000000E+03  0.50000000000E+03  0.00000000000E+00 0.  1.
         23    2    1    2    0    0 -0.16392032654E+03  0.57014548319E+02  0.29760970540E+03  0.35647412852E+03  0.91551818043E+02 0.  0.
        -11    1    1    2    0    0  0.93340714411E+02 -0.78979158164E+01  0.15593155996E+03  0.18190524301E+03  0.00000000000E+00 0. -1.
         11    1    1    2    0    0  0.70579612125E+02 -0.49116632502E+02 -0.45354126537E+03  0.46162062847E+03  0.00000000000E+00 0.  1.
        -15    1    3    3    0    0 -0.70658833548E+02 -0.18848329791E+02  0.14292523120E+03  0.16055749667E+03  0.17770000000E+01 0.  1.
         15    1    3    3    0    0 -0.93261492988E+02  0.75862878110E+02  0.15468447420E+03  0.19591663185E+03  0.17770000000E+01 0. -1.
</event>
<event>
 7    1  0.2288857E-006  0.5203086E+03  0.7546771E-02  0.9355480E-01
        -11   -1    0    0    0    0  0.00000000000E+00  0.00000000000E+00  0.50000000000E+03  0.50000000000E+03  0.00000000000E+00 0.  1.
         11   -1    0    0    0    0 -0.00000000000E+00 -0.00000000000E+00 -0.50000000000E+03  0.50000000000E+03  0.00000000000E+00 0. -1.
         23    2    1    2    0    0 -0.23620331767E+03  0.13750889518E+03 -0.28093853711E+03  0.40406703845E+03  0.98198810571E+02 0.  0.
        -11    1    1    2    0    0  0.28886483212E+03 -0.88955425976E+02  0.37248871539E+03  0.47969136134E+03  0.00000000000E+00 0.  1.
         11    1    1    2    0    0 -0.52661514450E+02 -0.48553469201E+02 -0.91550178281E+02  0.11624160021E+03  0.00000000000E+00 0. -1.
        -15    1    3    3    0    0 -0.39000091475E+02 -0.14249494223E+02 -0.38683612826E+02  0.56777062719E+02  0.17770000000E+01 0.  1.
         15    1    3    3    0    0 -0.19720322619E+03  0.15175838940E+03 -0.24225492429E+03  0.34728997573E+03  0.17770000000E+01 0. -1.
</event>
<event>
 7    1  0.2288857E-006  0.5175726E+03  0.7546771E-02  0.9361326E-01
        -11   -1    0    0    0    0  0.00000000000E+00  0.00000000000E+00  0.50000000000E+03  0.50000000000E+03  0.00000000000E+00 0.  1.
         11   -1    0    0    0    0 -0.00000000000E+00 -0.00000000000E+00 -0.50000000000E+03  0.50000000000E+03  0.00000000000E+00 0. -1.
         23    2    1    2    0    0 -0.16711411576E+02  0.20809716294E+01  0.11669310931E+03  0.14736175882E+03  0.88400251590E+02 0.  0.
        -11    1    1    2    0    0  0.23500225066E+02 -0.10040742892E+03  0.35555894596E+03  0.37021085400E+03  0.00000000000E+00 0.  1.
         11    1    1    2    0    0 -0.67888134897E+01  0.98326457295E+02 -0.47225205528E+03  0.48242738719E+03  0.00000000000E+00 0. -1.
        -15    1    3    3    0    0 -0.23308425792E+02 -0.12657884933E+02  0.12590881063E+03  0.12868446327E+03  0.17770000000E+01 0. -1.
         15    1    3    3    0    0  0.65970142160E+01  0.14738856562E+02 -0.92157013153E+01  0.18677295550E+02  0.17770000000E+01 0.  1.
</event>
<event>
 7    1  0.2288857E-006  0.5141180E+03  0.7546771E-02  0.9368762E-01
        -11   -1    0    0    0    0  0.00000000000E+00  0.00000000000E+00  0.50000000000E+03  0.50000000000E+03  0.00000000000E+00 0.  1.
         11   -1    0    0    0    0 -0.00000000000E+00 -0.00000000000E+00 -0.50000000000E+03  0.50000000000E+03  0.00000000000E+00 0.  1.
         23    2    1    2    0    0 -0.21478837517E+02  0.54820459876E+02  0.31219035941E+03  0.33067562552E+03  0.91743803734E+02 0.  0.
        -11    1    1    2    0    0 -0.23220036594E+02  0.11538979585E+03  0.14070230996E+03  0.18344240272E+03  0.00000000000E+00 0.  1.
         11    1    1    2    0    0  0.44698874111E+02 -0.17021025573E+03 -0.45289266938E+03  0.48588197176E+03  0.00000000000E+00 0.  1.
        -15    1    3    3    0    0 -0.13560136868E+00 -0.19940165733E+02  0.19942289921E+02  0.28257410594E+02  0.17770000000E+01 0. -1.
         15    1    3    3    0    0 -0.21343236148E+02  0.74760625609E+02  0.29224806949E+03  0.30241821493E+03  0.17770000000E+01 0.  1.
</event>
<event>
 7    1  0.2288857E-006  0.5145320E+03  0.7546771E-02  0.9367868E-01
        -11   -1    0    0    0    0  0.00000000000E+00  0.00000000000E+00  0.50000000000E+03  0.50000000000E+03  0.00000000000E+00 0.  1.
         11   -1    0    0    0    0 -0.00000000000E+00 -0.00000000000E+00 -0.50000000000E+03  0.50000000000E+03  0.00000000000E+00 0.  1.
         23    2    1    2    0    0  0.32174298957E+02 -0.32433048551E+02  0.37523098314E+03  0.38866320924E+03  0.90408580108E+02 0.  0.
        -11    1    1    2    0    0  0.79742703813E+02  0.11549779109E+02  0.96698756223E+02  0.12586876365E+03  0.00000000000E+00 0.  1.
         11    1    1    2    0    0 -0.11191700277E+03  0.20883269442E+02 -0.47192973936E+03  0.48546802711E+03  0.00000000000E+00 0.  1.
        -15    1    3    3    0    0 -0.13332895017E+02 -0.49848669549E+02  0.16696925931E+03  0.17476998378E+03  0.17770000000E+01 0.  1.
         15    1    3    3    0    0  0.45507193974E+02  0.17415620998E+02  0.20826172383E+03  0.21389322546E+03  0.17770000000E+01 0. -1.
</event>
<event>
 7    1  0.2288857E-006  0.3402881E+03  0.7546771E-02  0.9851408E-01
        -11   -1    0    0    0    0  0.00000000000E+00  0.00000000000E+00  0.50000000000E+03  0.50000000000E+03  0.00000000000E+00 0.  1.
         11   -1    0    0    0    0 -0.00000000000E+00 -0.00000000000E+00 -0.50000000000E+03  0.50000000000E+03  0.00000000000E+00 0. -1.
         23    2    1    2    0    0 -0.18394941616E+03 -0.10773975921E+03  0.14332678463E+03  0.27255796788E+03  0.91104529212E+02 0.  0.
        -11    1    1    2    0    0  0.11425977214E+03  0.94172354164E+02  0.27006830761E+03  0.30799451066E+03  0.00000000000E+00 0.  1.
         11    1    1    2    0    0  0.69689644020E+02  0.13567405045E+02 -0.41339509225E+03  0.41944752146E+03  0.00000000000E+00 0. -1.
        -15    1    3    3    0    0 -0.64569293291E+02 -0.90446266503E+02  0.71484730772E+02  0.13214743744E+03  0.17770000000E+01 0.  1.
         15    1    3    3    0    0 -0.11938012287E+03 -0.17293492706E+02  0.71842053862E+02  0.14041053044E+03  0.17770000000E+01 0. -1.
</event>
<event>
 7    1  0.2288857E-006  0.4108209E+03  0.7546771E-02  0.9624958E-01
        -11   -1    0    0    0    0  0.00000000000E+00  0.00000000000E+00  0.50000000000E+03  0.50000000000E+03  0.00000000000E+00 0. -1.
         11   -1    0    0    0    0 -0.00000000000E+00 -0.00000000000E+00 -0.50000000000E+03  0.50000000000E+03  0.00000000000E+00 0.  1.
         23    2    1    2    0    0  0.12574537988E+03 -0.94905426905E+01 -0.55782761039E+02  0.16686809081E+03  0.93974849510E+02 0.  0.
        -11    1    1    2    0    0 -0.24752147549E+03  0.34186484609E+03  0.17881336850E+03  0.45838049105E+03  0.00000000000E+00 0. -1.
         11    1    1    2    0    0  0.12177609561E+03 -0.33237430340E+03 -0.12303060746E+03  0.37475141813E+03  0.00000000000E+00 0.  1.
        -15    1    3    3    0    0  0.24604853394E+01 -0.23092005126E+02 -0.33556153435E+02  0.40846883005E+02  0.17770000000E+01 0. -1.
         15    1    3    3    0    0  0.12328489454E+03  0.13601462436E+02 -0.22226607603E+02  0.12602120781E+03  0.17770000000E+01 0.  1.
</event>
<event>
 7    1  0.2288857E-006  0.3781581E+03  0.7546771E-02  0.9723234E-01
        -11   -1    0    0    0    0  0.00000000000E+00  0.00000000000E+00  0.50000000000E+03  0.50000000000E+03  0.00000000000E+00 0.  1.
         11   -1    0    0    0    0 -0.00000000000E+00 -0.00000000000E+00 -0.50000000000E+03  0.50000000000E+03  0.00000000000E+00 0. -1.
         23    2    1    2    0    0 -0.15463950228E+03  0.27749362569E+02 -0.12065062216E+03  0.21817262503E+03  0.91429310918E+02 0.  0.
        -11    1    1    2    0    0 -0.67321343209E+02 -0.88530554678E+02  0.40271603377E+03  0.41779184556E+03  0.00000000000E+00 0.  1.
         11    1    1    2    0    0  0.22196084549E+03  0.60781192108E+02 -0.28206541161E+03  0.36403552941E+03  0.00000000000E+00 0. -1.
        -15    1    3    3    0    0 -0.85407802947E-01 -0.14994653710E+02 -0.30919503945E+02  0.34409597318E+02  0.17770000000E+01 0.  1.
         15    1    3    3    0    0 -0.15455409448E+03  0.42744016280E+02 -0.89731118218E+02  0.18376302771E+03  0.17770000000E+01 0. -1.
</event>
<event>
 7    1  0.2288857E-006  0.5113710E+03  0.7546771E-02  0.9374720E-01
        -11   -1    0    0    0    0  0.00000000000E+00  0.00000000000E+00  0.50000000000E+03  0.50000000000E+03  0.00000000000E+00 0. -1.
         11   -1    0    0    0    0 -0.00000000000E+00 -0.00000000000E+00 -0.50000000000E+03  0.50000000000E+03  0.00000000000E+00 0. -1.
         23    2    1    2    0    0 -0.85388608894E+01  0.42073077089E+02  0.25032430172E+03  0.26931174970E+03  0.89574028232E+02 0.  0.
        -11    1    1    2    0    0 -0.76582937205E+02 -0.66625412122E+01  0.22952849323E+03  0.24205921781E+03  0.00000000000E+00 0. -1.
         11    1    1    2    0    0  0.85121798094E+02 -0.35410535877E+02 -0.47985279495E+03  0.48862903248E+03  0.00000000000E+00 0. -1.
        -15    1    3    3    0    0  0.12970407252E+02  0.51115035997E+01 -0.12619824713E+01  0.14110608141E+02  0.17770000000E+01 0. -1.
         15    1    3    3    0    0 -0.21509268142E+02  0.36961573489E+02  0.25158628420E+03  0.25520114156E+03  0.17770000000E+01 0.  1.
</event>
<event>
 7    1  0.2288857E-006  0.5039638E+03  0.7546771E-02  0.9390984E-01
        -11   -1    0    0    0    0  0.00000000000E+00  0.00000000000E+00  0.50000000000E+03  0.50000000000E+03  0.00000000000E+00 0.  1.
         11   -1    0    0    0    0 -0.00000000000E+00 -0.00000000000E+00 -0.50000000000E+03  0.50000000000E+03  0.00000000000E+00 0. -1.
         23    2    1    2    0    0  0.10062201815E+03 -0.15444861125E+02  0.47671637269E+03  0.49603616423E+03  0.91815259992E+02 0.  0.
        -11    1    1    2    0    0 -0.62431220804E+02  0.62542378903E+02 -0.17310559648E+03  0.19435728446E+03  0.00000000000E+00 0.  1.
         11    1    1    2    0    0 -0.38190797351E+02 -0.47097517779E+02 -0.30361077621E+03  0.30960655131E+03  0.00000000000E+00 0. -1.
        -15    1    3    3    0    0  0.10213376285E+03 -0.24838430171E+01  0.47051083067E+03  0.48147801040E+03  0.17770000000E+01 0.  1.
         15    1    3    3    0    0 -0.15117446927E+01 -0.12961018108E+02  0.62055420171E+01  0.14558153837E+02  0.17770000000E+01 0. -1.
</event>
<event>
 7    1  0.2288857E-006  0.4636214E+03  0.7546771E-02  0.9485104E-01
        -11   -1    0    0    0    0  0.00000000000E+00  0.00000000000E+00  0.50000000000E+03  0.50000000000E+03  0.00000000000E+00 0. -1.
         11   -1    0    0    0    0 -0.00000000000E+00 -0.00000000000E+00 -0.50000000000E+03  0.50000000000E+03  0.00000000000E+00 0.  1.
         23    2    1    2    0    0  0.87875620079E+00 -0.82771154428E+02  0.42804027156E+03  0.44517587863E+03  0.90062492828E+02 0.  0.
        -11    1    1    2    0    0 -0.67895972304E+02 -0.22214130437E+02  0.31959246758E+02  0.78260616529E+02  0.00000000000E+00 0. -1.
         11    1    1    2    0    0  0.67017216103E+02  0.10498528486E+03 -0.45999951832E+03  0.47656350484E+03  0.00000000000E+00 0.  1.
        -15    1    3    3    0    0 -0.20300893486E+01 -0.94990846571E+02  0.41889032847E+03  0.42953422123E+03  0.17770000000E+01 0. -1.
         15    1    3    3    0    0  0.29088455494E+01  0.12219692143E+02  0.91499430965E+01  0.15641657399E+02  0.17770000000E+01 0.  1.
</event>
<event>
 7    1  0.2288857E-006  0.5118561E+03  0.7546771E-02  0.9373665E-01
        -11   -1    0    0    0    0  0.00000000000E+00  0.00000000000E+00  0.50000000000E+03  0.50000000000E+03  0.00000000000E+00 0.  1.
         11   -1    0    0    0    0 -0.00000000000E+00 -0.00000000000E+00 -0.50000000000E+03  0.50000000000E+03  0.00000000000E+00 0.  1.
         23    2    1    2    0    0  0.40920104264E+02  0.20421753356E+02  0.38342686756E+03  0.39631936856E+03  0.89226544193E+02 0.  0.
        -11    1    1    2    0    0  0.67924536527E+02 -0.14136293237E+02  0.92385918963E+02  0.11553672780E+03  0.00000000000E+00 0.  1.
         11    1    1    2    0    0 -0.10884464079E+03 -0.62854601188E+01 -0.47581278652E+03  0.48814390363E+03  0.00000000000E+00 0.  1.
        -15    1    3    3    0    0 -0.74534937659E+01 -0.28872061760E+02  0.88373792691E+02  0.93285773209E+02  0.17770000000E+01 0. -1.
         15    1    3    3    0    0  0.48373598030E+02  0.49293815115E+02  0.29505307487E+03  0.30303359535E+03  0.17770000000E+01 0.  1.
</event>
<event>
 7    1  0.2288857E-006  0.5148732E+03  0.7546771E-02  0.9367131E-01
        -11   -1    0    0    0    0  0.00000000000E+00  0.00000000000E+00  0.50000000000E+03  0.50000000000E+03  0.00000000000E+00 0. -1.
         11   -1    0    0    0    0 -0.00000000000E+00 -0.00000000000E+00 -0.50000000000E+03  0.50000000000E+03  0.00000000000E+00 0. -1.
         23    2    1    2    0    0 -0.79200167915E+02  0.13176150249E+01  0.47027136355E+03  0.48512676055E+03  0.88985480372E+02 0.  0.
        -11    1    1    2    0    0  0.60957889822E+01  0.75445941620E+02 -0.78639187100E+02  0.10914838752E+03  0.00000000000E+00 0. -1.
         11    1    1    2    0    0  0.73104378933E+02 -0.76763556645E+02 -0.39163217645E+03  0.40572485193E+03  0.00000000000E+00 0. -1.
        -15    1    3    3    0    0 -0.10712964565E+02 -0.32129407554E+02  0.71535932673E+02  0.79168262783E+02  0.17770000000E+01 0.  1.
         15    1    3    3    0    0 -0.68487203351E+02  0.33447022579E+02  0.39873543088E+03  0.40595849776E+03  0.17770000000E+01 0. -1.
</event>
<event>
 7    1  0.2288857E-006  0.4034413E+03  0.7546771E-02  0.9646287E-01
        -11   -1    0    0    0    0  0.00000000000E+00  0.00000000000E+00  0.50000000000E+03  0.50000000000E+03  0.00000000000E+00 0. -1.
         11   -1    0    0    0    0 -0.00000000000E+00 -0.00000000000E+00 -0.50000000000E+03  0.50000000000E+03  0.00000000000E+00 0.  1.
         23    2    1    2    0    0  0.12981509079E+03  0.36141059765E+02  0.31811063780E+03  0.35743745022E+03  0.91700703044E+02 0.  0.
        -11    1    1    2    0    0 -0.89116369067E+02  0.11016251559E+03  0.11570534910E+03  0.18293505647E+03  0.00000000000E+00 0. -1.
         11    1    1    2    0    0 -0.40698721718E+02 -0.14630357535E+03 -0.43381598690E+03  0.45962749331E+03  0.00000000000E+00 0.  1.
        -15    1    3    3    0    0  0.69229544600E+02  0.51017272785E+02  0.10695493310E+03  0.13725162080E+03  0.17770000000E+01 0.  1.
         15    1    3    3    0    0  0.60585546185E+02 -0.14876213020E+02  0.21115570470E+03  0.22018582942E+03  0.17770000000E+01 0. -1.
</event>
<event>
 7    1  0.2288857E-006  0.5277466E+03  0.7546771E-02  0.9339779E-01
        -11   -1    0    0    0    0  0.00000000000E+00  0.00000000000E+00  0.50000000000E+03  0.50000000000E+03  0.00000000000E+00 0. -1.
         11   -1    0    0    0    0 -0.00000000000E+00 -0.00000000000E+00 -0.50000000000E+03  0.50000000000E+03  0.00000000000E+00 0.  1.
         23    2    1    2    0    0 -0.88789469973E+01  0.13825970783E+03  0.33182481909E+03  0.37051646046E+03  0.89331709949E+02 0.  0.
        -11    1    1    2    0    0 -0.12578969023E+03  0.20429338774E+02  0.92091912668E+02  0.15723016387E+03  0.00000000000E+00 0. -1.
         11    1    1    2    0    0  0.13466863723E+03 -0.15868904661E+03 -0.42391673176E+03  0.47225337567E+03  0.00000000000E+00 0.  1.
        -15    1    3    3    0    0  0.31356624426E+02  0.16008776696E+02  0.56586149776E+02  0.66668350078E+02  0.17770000000E+01 0.  1.
         15    1    3    3    0    0 -0.40235571423E+02  0.12225093114E+03  0.27523866931E+03  0.30384811039E+03  0.17770000000E+01 0. -1.
</event>
<event>
 7    1  0.2288857E-006  0.5179659E+03  0.7546771E-02  0.9360483E-01
        -11   -1    0    0    0    0  0.00000000000E+00  0.00000000000E+00  0.50000000000E+03  0.50000000000E+03  0.00000000000E+00 0.  1.
         11   -1    0    0    0    0 -0.00000000000E+00 -0.00000000000E+00 -0.50000000000E+03  0.50000000000E+03  0.00000000000E+00 0. -1.
         23    2    1    2    0    0 -0.34723466484E+02 -0.10144804294E+02  0.12302952900E+03  0.15758339731E+03  0.91583982894E+02 0.  0.
        -11    1    1    2    0    0 -0.21679876969E+03 -0.38454966635E+02  0.28529817384E+03  0.36038248986E+03  0.00000000000E+00 0.  1.
         11    1    1    2    0    0  0.25152223618E+03  0.48599770929E+02 -0.40832770284E+03  0.48203411283E+03  0.00000000000E+00 0. -1.
        -15    1    3    3    0    0 -0.25332608676E+02  0.37884727577E+02  0.37583375336E+02  0.59098743443E+02  0.17770000000E+01 0.  1.
         15    1    3    3    0    0 -0.93908578078E+01 -0.48029531871E+02  0.85446153668E+02  0.98484653869E+02  0.17770000000E+01 0. -1.
</event>
<event>
 7    1  0.2288857E-006  0.4010914E+03  0.7546771E-02  0.9653181E-01
        -11   -1    0    0    0    0  0.00000000000E+00  0.00000000000E+00  0.50000000000E+03  0.50000000000E+03  0.00000000000E+00 0. -1.
         11   -1    0    0    0    0 -0.00000000000E+00 -0.00000000000E+00 -0.50000000000E+03  0.50000000000E+03  0.00000000000E+00 0. -1.
         23    2    1    2    0    0  0.11389883941E+03 -0.62358302685E+02 -0.71054825283E+02  0.18427480952E+03  0.10975843336E+03 0.  0.
        -11    1    1    2    0    0 -0.11926521294E+03 -0.76854275677E+01  0.43188724588E+03  0.44811812055E+03  0.00000000000E+00 0. -1.
         11    1    1    2    0    0  0.53663735288E+01  0.70043730252E+02 -0.36083242059E+03  0.36760706993E+03  0.00000000000E+00 0. -1.
        -15    1    3    3    0    0  0.38355035447E+02  0.65008987737E-01 -0.77040455637E+02  0.86078467134E+02  0.17770000000E+01 0. -1.
         15    1    3    3    0    0  0.75543803967E+02 -0.62423311672E+02  0.59856303545E+01  0.98196342384E+02  0.17770000000E+01 0.  1.
</event>
<event>
 7    1  0.2288857E-006  0.4723569E+03  0.7546771E-02  0.9463880E-01
        -11   -1    0    0    0    0  0.00000000000E+00  0.00000000000E+00  0.50000000000E+03  0.50000000000E+03  0.00000000000E+00 0.  1.
         11   -1    0    0    0    0 -0.00000000000E+00 -0.00000000000E+00 -0.50000000000E+03  0.50000000000E+03  0.00000000000E+00 0. -1.
         23    2    1    2    0    0 -0.72055769454E+02  0.77525895008E+02  0.42535895715E+03  0.44781304584E+03  0.91673241950E+02 0.  0.
        -11    1    1    2    0    0 -0.27011164172E+02 -0.22453630107E+02  0.51335689391E+02  0.62202262822E+02  0.00000000000E+00 0.  1.
         11    1    1    2    0    0  0.99066933626E+02 -0.55072264901E+02 -0.47669464654E+03  0.48998469133E+03  0.00000000000E+00 0. -1.
        -15    1    3    3    0    0  0.73978883609E+01  0.23126318138E+02  0.21026080397E+02  0.32168449274E+02  0.17770000000E+01 0. -1.
         15    1    3    3    0    0 -0.79453657815E+02  0.54399576871E+02  0.40433287675E+03  0.41564459657E+03  0.17770000000E+01 0.  1.
</event>
<event>
 7    1  0.2288857E-006  0.4922792E+03  0.7546771E-02  0.9417253E-01
        -11   -1    0    0    0    0  0.00000000000E+00  0.00000000000E+00  0.50000000000E+03  0.50000000000E+03  0.00000000000E+00 0.  1.
         11   -1    0    0    0    0 -0.00000000000E+00 -0.00000000000E+00 -0.50000000000E+03  0.50000000000E+03  0.00000000000E+00 0. -1.
         23    2    1    2    0    0  0.85226922317E+02  0.17427802253E+00  0.46571395325E+03  0.48230866590E+03  0.92024476611E+02 0.  0.
        -11    1    1    2    0    0 -0.27214809592E-01 -0.11975221065E+02  0.20600888409E+02  0.23828622776E+02  0.00000000000E+00 0.  1.
         11    1    1    2    0    0 -0.85199707507E+02  0.11800943042E+02 -0.48631484166E+03  0.49386271132E+03  0.00000000000E+00 0. -1.
        -15    1    3    3    0    0  0.10439938529E+03  0.54826462279E+01  0.41002013787E+03  0.42314177559E+03  0.17770000000E+01 0.  1.
         15    1    3    3    0    0 -0.19172462973E+02 -0.53083682054E+01  0.55693815379E+02  0.59166890318E+02  0.17770000000E+01 0. -1.
</event>
<event>
 7    1  0.2288857E-006  0.5149559E+03  0.7546771E-02  0.9366953E-01
        -11   -1    0    0    0    0  0.00000000000E+00  0.00000000000E+00  0.50000000000E+03  0.50000000000E+03  0.00000000000E+00 0.  1.
         11   -1    0    0    0    0 -0.00000000000E+00 -0.00000000000E+00 -0.50000000000E+03  0.50000000000E+03  0.00000000000E+00 0.  1.
         23    2    1    2    0    0 -0.17516372120E+02 -0.89303282152E+01  0.39175163304E+03  0.40252012286E+03  0.90368873325E+02 0.  0.
        -11    1    1    2    0    0 -0.57047185371E+02  0.44181558334E+02  0.86228882129E+02  0.11243581088E+03  0.00000000000E+00 0.  1.
         11    1    1    2    0    0  0.74563557492E+02 -0.35251230119E+02 -0.47798051517E+03  0.48504406626E+03  0.00000000000E+00 0.  1.
        -15    1    3    3    0    0 -0.36220012331E+02 -0.41163915641E+02  0.24920423079E+03  0.25517104777E+03  0.17770000000E+01 0.  1.
         15    1    3    3    0    0  0.18703640210E+02  0.32233587426E+02  0.14254740225E+03  0.14734907510E+03  0.17770000000E+01 0. -1.
</event>
<event>
 7    1  0.2288857E-006  0.4600217E+03  0.7546771E-02  0.9493995E-01
        -11   -1    0    0    0    0  0.00000000000E+00  0.00000000000E+00  0.50000000000E+03  0.50000000000E+03  0.00000000000E+00 0. -1.
         11   -1    0    0    0    0 -0.00000000000E+00 -0.00000000000E+00 -0.50000000000E+03  0.50000000000E+03  0.00000000000E+00 0.  1.
         23    2    1    2    0    0 -0.67595569970E+02 -0.84802038219E+01  0.43824696282E+03  0.45286321360E+03  0.91562082078E+02 0.  0.
        -11    1    1    2    0    0  0.76075736885E+01 -0.84216400202E+02  0.10314361619E+02  0.85186051065E+02  0.00000000000E+00 0. -1.
         11    1    1    2    0    0  0.59987996282E+02  0.92696604024E+02 -0.44856132444E+03  0.46195073534E+03  0.00000000000E+00 0.  1.
        -15    1    3    3    0    0 -0.73666234172E+02 -0.36332661797E+02  0.36743313875E+03  0.37650636854E+03  0.17770000000E+01 0. -1.
         15    1    3    3    0    0  0.60706642018E+01  0.27852457975E+02  0.70813824070E+02  0.76356845060E+02  0.17770000000E+01 0.  1.
</event>
<event>
 7    1  0.2288857E-006  0.5111937E+03  0.7546771E-02  0.9375106E-01
        -11   -1    0    0    0    0  0.00000000000E+00  0.00000000000E+00  0.50000000000E+03  0.50000000000E+03  0.00000000000E+00 0.  1.
         11   -1    0    0    0    0 -0.00000000000E+00 -0.00000000000E+00 -0.50000000000E+03  0.50000000000E+03  0.00000000000E+00 0. -1.
         23    2    1    2    0    0  0.69194718451E+02 -0.11558268606E+03 -0.18654101397E+03  0.24714493404E+03  0.90198681527E+02 0.  0.
        -11    1    1    2    0    0 -0.73898921346E+02  0.26926235048E+03  0.40120860744E+03  0.48880631200E+03  0.00000000000E+00 0.  1.
         11    1    1    2    0    0  0.47042028948E+01 -0.15367966442E+03 -0.21466759347E+03  0.26404875396E+03  0.00000000000E+00 0. -1.
        -15    1    3    3    0    0  0.66307632448E+02 -0.45675919113E+02 -0.14470040319E+03  0.16560300758E+03  0.17770000000E+01 0. -1.
         15    1    3    3    0    0  0.28870860038E+01 -0.69906766949E+02 -0.41840610780E+02  0.81541926457E+02  0.17770000000E+01 0.  1.
</event>
<event>
 7    1  0.2288857E-006  0.5387640E+03  0.7546771E-02  0.9317020E-01
        -11   -1    0    0    0    0  0.00000000000E+00  0.00000000000E+00  0.50000000000E+03  0.50000000000E+03  0.00000000000E+00 0. -1.
         11   -1    0    0    0    0 -0.00000000000E+00 -0.00000000000E+00 -0.50000000000E+03  0.50000000000E+03  0.00000000000E+00 0. -1.
         23    2    1    2    0    0 -0.12521980241E+03 -0.55157021402E+02  0.24567847157E+03  0.29384490666E+03  0.85232751079E+02 0.  0.
        -11    1    1    2    0    0  0.68573724599E+02  0.10761538120E+03  0.20905004176E+03  0.24491905997E+03  0.00000000000E+00 0. -1.
         11    1    1    2    0    0  0.56646077807E+02 -0.52458359796E+02 -0.45472851333E+03  0.46123603337E+03  0.00000000000E+00 0. -1.
        -15    1    3    3    0    0 -0.96396573796E+01  0.97674083910E+01  0.82234097373E+02  0.83390225811E+02  0.17770000000E+01 0.  1.
         15    1    3    3    0    0 -0.11558014503E+03 -0.64924429793E+02  0.16344437419E+03  0.21045468085E+03  0.17770000000E+01 0. -1.
</event>
<event>
 7    1  0.2288857E-006  0.4860181E+03  0.7546771E-02  0.9431650E-01
        -11   -1    0    0    0    0  0.00000000000E+00  0.00000000000E+00  0.50000000000E+03  0.50000000000E+03  0.00000000000E+00 0.  1.
         11   -1    0    0    0    0 -0.00000000000E+00 -0.00000000000E+00 -0.50000000000E+03  0.50000000000E+03  0.00000000000E+00 0. -1.
         23    2    1    2    0    0  0.35268918042E+03 -0.80743183752E+02 -0.32307854562E+03  0.49291707908E+03  0.87626368753E+02 0.  0.
        -11    1    1    2    0    0 -0.32231837602E+03  0.97057404537E+02  0.33058441636E+03  0.47180009712E+03  0.00000000000E+00 0.  1.
         11    1    1    2    0    0 -0.30370804398E+02 -0.16314220786E+02 -0.75058707398E+01  0.35282823799E+02  0.00000000000E+00 0. -1.
        -15    1    3    3    0    0  0.75721935440E+02  0.17493518274E+02 -0.55986324639E+02  0.95799065569E+02  0.17770000000E+01 0.  1.
         15    1    3    3    0    0  0.27696724498E+03 -0.98236702026E+02 -0.26709222099E+03  0.39711801351E+03  0.17770000000E+01 0. -1.
</event>
<event>
 7    1  0.2288857E-006  0.5081259E+03  0.7546771E-02  0.9381809E-01
        -11   -1    0    0    0    0  0.00000000000E+00  0.00000000000E+00  0.50000000000E+03  0.50000000000E+03  0.00000000000E+00 0.  1.
         11   -1    0    0    0    0 -0.00000000000E+00 -0.00000000000E+00 -0.50000000000E+03  0.50000000000E+03  0.00000000000E+00 0. -1.
         23    2    1    2    0    0  0.98152252711E+02 -0.45264882320E+01 -0.34669140097E+03  0.37262207524E+03  0.94857417438E+02 0.  0.
        -11    1    1    2    0    0 -0.16762945098E+03  0.19979336434E+02  0.46199712382E+03  0.49187411920E+03  0.00000000000E+00 0.  1.
         11    1    1    2    0    0  0.69477198271E+02 -0.15452848202E+02 -0.11530572286E+03  0.13550380556E+03  0.00000000000E+00 0. -1.
        -15    1    3    3    0    0  0.95096071728E+02  0.28447114854E+02 -0.29453159809E+03  0.31081267864E+03  0.17770000000E+01 0.  1.
         15    1    3    3    0    0  0.30561809832E+01 -0.32973603086E+02 -0.52159802878E+02  0.61809396599E+02  0.17770000000E+01 0. -1.
</event>
<event>
 7    1  0.2288857E-006  0.3401051E+03  0.7546771E-02  0.9852070E-01
        -11   -1    0    0    0    0  0.00000000000E+00  0.00000000000E+00  0.50000000000E+03  0.50000000000E+03  0.00000000000E+00 0.  1.
         11   -1    0    0    0    0 -0.00000000000E+00 -0.00000000000E+00 -0.50000000000E+03  0.50000000000E+03  0.00000000000E+00 0. -1.
         23    2    1    2    0    0  0.36890096843E+02  0.21174142629E+02  0.37737021294E+03  0.39128984665E+03  0.94288084701E+02 0.  0.
        -11    1    1    2    0    0  0.10730370919E+03  0.18201769042E+03 -0.25488325046E+03  0.33107400532E+03  0.00000000000E+00 0. -1.
         11    1    1    2    0    0 -0.14419380603E+03 -0.20319183305E+03 -0.12248696248E+03  0.27763614803E+03  0.00000000000E+00 0.  1.
        -15    1    3    3    0    0 -0.32297059815E+01  0.52185629608E+02  0.20837612770E+03  0.21484305729E+03  0.17770000000E+01 0.  1.
         15    1    3    3    0    0  0.40119802824E+02 -0.31011486978E+02  0.16899408524E+03  0.17644678937E+03  0.17770000000E+01 0. -1.
</event>
<event>
 7    1  0.2288857E-006  0.5301907E+03  0.7546771E-02  0.9334679E-01
        -11   -1    0    0    0    0  0.00000000000E+00  0.00000000000E+00  0.50000000000E+03  0.50000000000E+03  0.00000000000E+00 0. -1.
         11   -1    0    0    0    0 -0.00000000000E+00 -0.00000000000E+00 -0.50000000000E+03  0.50000000000E+03  0.00000000000E+00 0.  1.
         23    2    1    2    0    0 -0.42906992298E+02  0.33751033412E+02  0.28822752896E+03  0.30709260470E+03  0.90832907957E+02 0.  0.
        -11    1    1    2    0    0  0.11257106003E+03 -0.83118522511E+02  0.17375793173E+03  0.22309807525E+03  0.00000000000E+00 0. -1.
         11    1    1    2    0    0 -0.69664067728E+02  0.49367489100E+02 -0.46198546069E+03  0.46980932005E+03  0.00000000000E+00 0.  1.
        -15    1    3    3    0    0 -0.47778577126E+02 -0.71032578477E+01  0.23432599685E+03  0.23925943917E+03  0.17770000000E+01 0.  1.
         15    1    3    3    0    0  0.48715848286E+01  0.40854291259E+02  0.53901532112E+02  0.67833165532E+02  0.17770000000E+01 0. -1.
</event>
<event>
 7    1  0.2288857E-006  0.5267282E+03  0.7546771E-02  0.9341912E-01
        -11   -1    0    0    0    0  0.00000000000E+00  0.00000000000E+00  0.50000000000E+03  0.50000000000E+03  0.00000000000E+00 0.  1.
         11   -1    0    0    0    0 -0.00000000000E+00 -0.00000000000E+00 -0.50000000000E+03  0.50000000000E+03  0.00000000000E+00 0.  1.
         23    2    1    2    0    0 -0.41235336483E+02 -0.38099079913E+02  0.14690435139E+03  0.18152974433E+03  0.90665686756E+02 0.  0.
        -11    1    1    2    0    0  0.51773579793E+02  0.12195913309E+03  0.31875925962E+03  0.34519849261E+03  0.00000000000E+00 0.  1.
         11    1    1    2    0    0 -0.10538243310E+02 -0.83860053179E+02 -0.46566361101E+03  0.47327176306E+03  0.00000000000E+00 0.  1.
        -15    1    3    3    0    0 -0.20107564864E+02 -0.10778137915E+02 -0.68877518082E+01  0.23897306870E+02  0.17770000000E+01 0.  1.
         15    1    3    3    0    0 -0.21127771619E+02 -0.27320941997E+02  0.15379210319E+03  0.15763243746E+03  0.17770000000E+01 0. -1.
</event>
<event>
 7    1  0.2288857E-006  0.3304879E+03  0.7546771E-02  0.9887516E-01
        -11   -1    0    0    0    0  0.00000000000E+00  0.00000000000E+00  0.50000000000E+03  0.50000000000E+03  0.00000000000E+00 0. -1.
         11   -1    0    0    0    0 -0.00000000000E+00 -0.00000000000E+00 -0.50000000000E+03  0.50000000000E+03  0.00000000000E+00 0.  1.
         23    2    1    2    0    0  0.24011435401E+03  0.15275062399E+03  0.11373260298E+03  0.31937347932E+03  0.89870229676E+02 0.  0.
        -11    1    1    2    0    0 -0.20901560818E+03  0.13865208001E+03  0.14498206093E+03  0.28970971980E+03  0.00000000000E+00 0. -1.
         11    1    1    2    0    0 -0.31098745827E+02 -0.29140270401E+03 -0.25871466391E+03  0.39091680088E+03  0.00000000000E+00 0.  1.
        -15    1    3    3    0    0  0.22043711687E+03  0.14604579664E+03  0.12831218837E+03  0.29392018071E+03  0.17770000000E+01 0. -1.
         15    1    3    3    0    0  0.19677237131E+02  0.67048273557E+01 -0.14579585396E+02  0.25453298613E+02  0.17770000000E+01 0.  1.
</event>
<event>
 7    1  0.2288857E-006  0.4778241E+03  0.7546771E-02  0.9450844E-01
        -11   -1    0    0    0    0  0.00000000000E+00  0.00000000000E+00  0.50000000000E+03  0.50000000000E+03  0.00000000000E+00 0. -1.
         11   -1    0    0    0    0 -0.00000000000E+00 -0.00000000000E+00 -0.50000000000E+03  0.50000000000E+03  0.00000000000E+00 0. -1.
         23    2    1    2    0    0 -0.50578098664E+02 -0.90796180169E+02  0.44123705635E+03  0.46259115623E+03  0.92186482332E+02 0.  0.
        -11    1    1    2    0    0 -0.41481181304E+02 -0.22272312018E+02  0.21853455097E+02  0.51906818287E+02  0.00000000000E+00 0. -1.
         11    1    1    2    0    0  0.92059279969E+02  0.11306849219E+03 -0.46309051145E+03  0.48550202548E+03  0.00000000000E+00 0. -1.
        -15    1    3    3    0    0 -0.10381037513E+02  0.16849263973E+02  0.33314943829E+02  0.38790551009E+02  0.17770000000E+01 0.  1.
         15    1    3    3    0    0 -0.40197061151E+02 -0.10764544414E+03  0.40792211252E+03  0.42380060522E+03  0.17770000000E+01 0. -1.
</event>
<event>
 7    1  0.2288857E-006  0.5207648E+03  0.7546771E-02  0.9354509E-01
        -11   -1    0    0    0    0  0.00000000000E+00  0.00000000000E+00  0.50000000000E+03  0.50000000000E+03  0.00000000000E+00 0. -1.
         11   -1    0    0    0    0 -0.00000000000E+00 -0.00000000000E+00 -0.50000000000E+03  0.50000000000E+03  0.00000000000E+00 0.  1.
         23    2    1    2    0    0  0.98324814668E+02  0.83970697352E+02 -0.10117834330E+03  0.18697395509E+03  0.89461475143E+02 0.  0.
        -11    1    1    2    0    0 -0.11734220598E+03 -0.28568228986E+03  0.36644625899E+03  0.47923524993E+03  0.00000000000E+00 0. -1.
         11    1    1    2    0    0  0.19017391314E+02  0.20171159251E+03 -0.26526791568E+03  0.33379079498E+03  0.00000000000E+00 0.  1.
        -15    1    3    3    0    0  0.10391535906E+03  0.53621132899E+02 -0.10323489899E+03  0.15599432631E+03  0.17770000000E+01 0.  1.
         15    1    3    3    0    0 -0.55905443917E+01  0.30349564453E+02  0.20565556868E+01  0.30979628780E+02  0.17770000000E+01 0. -1.
</event>
<event>
 7    1  0.2288857E-006  0.5236835E+03  0.7546771E-02  0.9348322E-01
        -11   -1    0    0    0    0  0.00000000000E+00  0.00000000000E+00  0.50000000000E+03  0.50000000000E+03  0.00000000000E+00 0.  1.
         11   -1    0    0    0    0 -0.00000000000E+00 -0.00000000000E+00 -0.50000000000E+03  0.50000000000E+03  0.00000000000E+00 0. -1.
         23    2    1    2    0    0 -0.10214029718E+03 -0.36343553613E+02 -0.13015825179E+03  0.19216921424E+03  0.90743276305E+02 0.  0.
        -11    1    1    2    0    0  0.15204593435E+03 -0.34979378431E+02  0.45003982190E+03  0.47631645401E+03  0.00000000000E+00 0.  1.
         11    1    1    2    0    0 -0.49905637163E+02  0.71322932044E+02 -0.31988157011E+03  0.33151433175E+03  0.00000000000E+00 0. -1.
        -15    1    3    3    0    0 -0.43511678361E+02 -0.12859614604E+02 -0.11983523176E+03  0.12814942974E+03  0.17770000000E+01 0.  1.
         15    1    3    3    0    0 -0.58628618822E+02 -0.23483939010E+02 -0.10323020030E+02  0.64019784504E+02  0.17770000000E+01 0. -1.
</event>
<event>
 7    1  0.2288857E-006  0.4602134E+03  0.7546771E-02  0.9493519E-01
        -11   -1    0    0    0    0  0.00000000000E+00  0.00000000000E+00  0.50000000000E+03  0.50000000000E+03  0.00000000000E+00 0.  1.
         11   -1    0    0    0    0 -0.00000000000E+00 -0.00000000000E+00 -0.50000000000E+03  0.50000000000E+03  0.00000000000E+00 0. -1.
         23    2    1    2    0    0  0.94575696044E+02 -0.72229698598E+02  0.41270708628E+03  0.43930405420E+03  0.92191221509E+02 0.  0.
        -11    1    1    2    0    0  0.32476448118E+02  0.63834356585E+02  0.45683086555E+02  0.84949921484E+02  0.00000000000E+00 0.  1.
         11    1    1    2    0    0 -0.12705214416E+03  0.83953420124E+01 -0.45839017284E+03  0.47574602432E+03  0.00000000000E+00 0. -1.
        -15    1    3    3    0    0  0.73743733031E+02 -0.36068696783E+02  0.37208818206E+03  0.38104049917E+03  0.17770000000E+01 0.  1.
         15    1    3    3    0    0  0.20831963014E+02 -0.36161001815E+02  0.40618904225E+02  0.58263555030E+02  0.17770000000E+01 0. -1.
</event>
<event>
 7    1  0.2288857E-006  0.5356617E+03  0.7546771E-02  0.9323369E-01
        -11   -1    0    0    0    0  0.00000000000E+00  0.00000000000E+00  0.50000000000E+03  0.50000000000E+03  0.00000000000E+00 0. -1.
         11   -1    0    0    0    0 -0.00000000000E+00 -0.00000000000E+00 -0.50000000000E+03  0.50000000000E+03  0.00000000000E+00 0.  1.
         23    2    1    2    0    0  0.37658436176E+02  0.92588007211E+02  0.21666440618E+03  0.25510581602E+03  0.90248631944E+02 0.  0.
        -11    1    1    2    0    0 -0.15985172828E+03 -0.36054030839E+02  0.22772596381E+03  0.28055584607E+03  0.00000000000E+00 0. -1.
         11    1    1    2    0    0  0.12219329210E+03 -0.56533976372E+02 -0.44439036999E+03  0.46433833791E+03  0.00000000000E+00 0.  1.
        -15    1    3    3    0    0  0.14987399909E+02  0.10588524367E+03  0.15798416525E+03  0.19078380745E+03  0.17770000000E+01 0.  1.
         15    1    3    3    0    0  0.22671036267E+02 -0.13297236462E+02  0.58680240921E+02  0.64322008570E+02  0.17770000000E+01 0. -1.
</event>
<event>
 7    1  0.2288857E-006  0.5154882E+03  0.7546771E-02  0.9365805E-01
        -11   -1    0    0    0    0  0.00000000000E+00  0.00000000000E+00  0.50000000000E+03  0.50000000000E+03  0.00000000000E+00 0.  1.
         11   -1    0    0    0    0 -0.00000000000E+00 -0.00000000000E+00 -0.50000000000E+03  0.50000000000E+03  0.00000000000E+00 0. -1.
         23    2    1    2    0    0  0.18919950666E+02 -0.11029089562E+03  0.36402141007E+03  0.39025390617E+03  0.85231907767E+02 0.  0.
        -11    1    1    2    0    0  0.83663403626E+02 -0.29235388098E+02  0.88483601375E+02  0.12523426343E+03  0.00000000000E+00 0.  1.
         11    1    1    2    0    0 -0.10258335429E+03  0.13952628372E+03 -0.45250501144E+03  0.48451183041E+03  0.00000000000E+00 0. -1.
        -15    1    3    3    0    0 -0.22688795607E+01 -0.64377008285E+02  0.84917501528E+02  0.10660059477E+03  0.17770000000E+01 0. -1.
         15    1    3    3    0    0  0.21188830227E+02 -0.45913887334E+02  0.27910390854E+03  0.28365331140E+03  0.17770000000E+01 0.  1.
</event>
<event>
 7    1  0.2288857E-006  0.5269599E+03  0.7546771E-02  0.9341427E-01
        -11   -1    0    0    0    0  0.00000000000E+00  0.00000000000E+00  0.50000000000E+03  0.50000000000E+03  0.00000000000E+00 0.  1.
         11   -1    0    0    0    0 -0.00000000000E+00 -0.00000000000E+00 -0.50000000000E+03  0.50000000000E+03  0.00000000000E+00 0. -1.
         23    2    1    2    0    0 -0.10558799912E+03  0.50054209380E+02  0.17414959481E+03  0.23002885667E+03  0.94503672366E+02 0.  0.
        -11    1    1    2    0    0  0.57765997403E+02  0.12970217277E+03  0.26078441127E+03  0.29693109173E+03  0.00000000000E+00 0.  1.
         11    1    1    2    0    0  0.47822001720E+02 -0.17975638215E+03 -0.43493400608E+03  0.47304005160E+03  0.00000000000E+00 0. -1.
        -15    1    3    3    0    0 -0.10835941584E+03  0.17754872965E+02  0.16124843859E+03  0.19509283737E+03  0.17770000000E+01 0.  1.
         15    1    3    3    0    0  0.27714167206E+01  0.32299336415E+02  0.12901156222E+02  0.34936019297E+02  0.17770000000E+01 0. -1.
</event>
<event>
 7    1  0.2288857E-006  0.3964130E+03  0.7546771E-02  0.9667059E-01
        -11   -1    0    0    0    0  0.00000000000E+00  0.00000000000E+00  0.50000000000E+03  0.50000000000E+03  0.00000000000E+00 0. -1.
         11   -1    0    0    0    0 -0.00000000000E+00 -0.00000000000E+00 -0.50000000000E+03  0.50000000000E+03  0.00000000000E+00 0.  1.
         23    2    1    2    0    0 -0.22185863144E+02 -0.10788983960E+03  0.12465404607E+03  0.18991111027E+03  0.91625152622E+02 0.  0.
        -11    1    1    2    0    0 -0.24952895311E+03  0.13921804534E+03  0.22675627663E+03  0.36478044298E+03  0.00000000000E+00 0. -1.
         11    1    1    2    0    0  0.27171481625E+03 -0.31328205744E+02 -0.35141032270E+03  0.44530844675E+03  0.00000000000E+00 0.  1.
        -15    1    3    3    0    0  0.60283916189E+01 -0.23785724257E+02 -0.11690227447E+02  0.27238232886E+02  0.17770000000E+01 0.  1.
         15    1    3    3    0    0 -0.28214254763E+02 -0.84104115340E+02  0.13634427351E+03  0.16267287739E+03  0.17770000000E+01 0. -1.
</event>
<event>
 7    1  0.2288857E-006  0.5095134E+03  0.7546771E-02  0.9378771E-01
        -11   -1    0    0    0    0  0.00000000000E+00  0.00000000000E+00  0.50000000000E+03  0.50000000000E+03  0.00000000000E+00 0. -1.
         11   -1    0    0    0    0 -0.00000000000E+00 -0.00000000000E+00 -0.50000000000E+03  0.50000000000E+03  0.00000000000E+00 0.  1.
         23    2    1    2    0    0 -0.24133555752E+02  0.43776860578E+02  0.31114297093E+03  0.32811810976E+03  0.91393126406E+02 0.  0.
        -11    1    1    2    0    0 -0.22659958407E+02  0.80255749884E+02  0.16108938030E+03  0.18139527984E+03  0.00000000000E+00 0. -1.
         11    1    1    2    0    0  0.46793514159E+02 -0.12403261046E+03 -0.47223235123E+03  0.49048661040E+03  0.00000000000E+00 0.  1.
        -15    1    3    3    0    0 -0.56496444602E+02  0.32820461132E+02  0.24602301814E+03  0.25455748684E+03  0.17770000000E+01 0. -1.
         15    1    3    3    0    0  0.32362888849E+02  0.10956399446E+02  0.65119952793E+02  0.73560622919E+02  0.17770000000E+01 0.  1.
</event>
<event>
 7    1  0.2288857E-006  0.5164179E+03  0.7546771E-02  0.9363805E-01
        -11   -1    0    0    0    0  0.00000000000E+00  0.00000000000E+00  0.50000000000E+03  0.50000000000E+03  0.00000000000E+00 0. -1.
         11   -1    0    0    0    0 -0.00000000000E+00 -0.00000000000E+00 -0.50000000000E+03  0.50000000000E+03  0.00000000000E+00 0. -1.
         23    2    1    2    0    0  0.11532685212E+03  0.24817811133E+03  0.26547076374E+03  0.39203093050E+03  0.91218782634E+02 0.  0.
        -11    1    1    2    0    0  0.51704411051E+02  0.11271685703E+03  0.96784095186E+01  0.12438692693E+03  0.00000000000E+00 0. -1.
         11    1    1    2    0    0 -0.16703126317E+03 -0.36089496836E+03 -0.27514917326E+03  0.48358214257E+03  0.00000000000E+00 0. -1.
        -15    1    3    3    0    0  0.29368678524E+02  0.19265282918E+02  0.63281240612E+01  0.35733363784E+02  0.17770000000E+01 0.  1.
         15    1    3    3    0    0  0.85958173594E+02  0.22891282841E+03  0.25914263968E+03  0.35629756672E+03  0.17770000000E+01 0. -1.
</event>
<event>
 7    1  0.2288857E-006  0.4145336E+03  0.7546771E-02  0.9614407E-01
        -11   -1    0    0    0    0  0.00000000000E+00  0.00000000000E+00  0.50000000000E+03  0.50000000000E+03  0.00000000000E+00 0. -1.
         11   -1    0    0    0    0 -0.00000000000E+00 -0.00000000000E+00 -0.50000000000E+03  0.50000000000E+03  0.00000000000E+00 0.  1.
         23    2    1    2    0    0 -0.31693327084E+02 -0.12095607498E+03 -0.43081745932E+02  0.16045048085E+03  0.90848670421E+02 0.  0.
        -11    1    1    2    0    0  0.19856163764E+03 -0.28351887430E+02  0.38309682981E+03  0.43242772168E+03  0.00000000000E+00 0. -1.
         11    1    1    2    0    0 -0.16686831056E+03  0.14930796241E+03 -0.34001508388E+03  0.40712179747E+03  0.00000000000E+00 0.  1.
        -15    1    3    3    0    0  0.44635296913E+01 -0.36223632768E+02 -0.56551284986E+02  0.67329638576E+02  0.17770000000E+01 0.  1.
         15    1    3    3    0    0 -0.36156856776E+02 -0.84732442211E+02  0.13469539054E+02  0.93120842277E+02  0.17770000000E+01 0. -1.
</event>
<event>
 7    1  0.2288857E-006  0.3893846E+03  0.7546771E-02  0.9688297E-01
        -11   -1    0    0    0    0  0.00000000000E+00  0.00000000000E+00  0.50000000000E+03  0.50000000000E+03  0.00000000000E+00 0.  1.
         11   -1    0    0    0    0 -0.00000000000E+00 -0.00000000000E+00 -0.50000000000E+03  0.50000000000E+03  0.00000000000E+00 0.  1.
         23    2    1    2    0    0 -0.49625845074E+02  0.23203580975E+03  0.37406516455E+03  0.45247705899E+03  0.92235568385E+02 0.  0.
        -11    1    1    2    0    0 -0.95616264901E+01 -0.28744499087E+03 -0.18542188908E+03  0.34219486324E+03  0.00000000000E+00 0.  1.
         11    1    1    2    0    0  0.59187471564E+02  0.55409181126E+02 -0.18864327546E+03  0.20532807777E+03  0.00000000000E+00 0.  1.
        -15    1    3    3    0    0 -0.18966572405E+02  0.22047726185E+03  0.31604615238E+03  0.38582156760E+03  0.17770000000E+01 0.  1.
         15    1    3    3    0    0 -0.30659272669E+02  0.11558547900E+02  0.58019012168E+02  0.66655491388E+02  0.17770000000E+01 0. -1.
</event>
<event>
 6    1  0.5910637E-006  0.5126092E+03  0.7546771E-02  0.9372029E-01
        -11   -1    0    0    0    0  0.00000000000E+00  0.00000000000E+00  0.50000000000E+03  0.50000000000E+03  0.00000000000E+00 0.  1.
         11   -1    0    0    0    0 -0.00000000000E+00 -0.00000000000E+00 -0.50000000000E+03  0.50000000000E+03  0.00000000000E+00 0. -1.
        -11    1    1    2    0    0 -0.13344748464E+03 -0.20840879787E+02  0.46830249326E+03  0.48739080687E+03  0.00000000000E+00 0.  1.
         11    1    1    2    0    0  0.25956185020E+02  0.26504454140E+02 -0.11272375970E+03  0.11867120809E+03  0.00000000000E+00 0. -1.
        -15    1    1    2    0    0  0.10026478386E+03  0.31262081140E+02 -0.13962913664E+03  0.17472778293E+03  0.17770000000E+01 0.  1.
         15    1    1    2    0    0  0.72265157650E+01 -0.36925655493E+02 -0.21594959693E+03  0.21921020210E+03  0.17770000000E+01 0. -1.
</event>
<event>
 6    1  0.2288857E-006  0.3458704E+03  0.7546771E-02  0.9831419E-01
        -11   -1    0    0    0    0  0.00000000000E+00  0.00000000000E+00  0.50000000000E+03  0.50000000000E+03  0.00000000000E+00 0.  1.
         11   -1    0    0    0    0 -0.00000000000E+00 -0.00000000000E+00 -0.50000000000E+03  0.50000000000E+03  0.00000000000E+00 0.  1.
        -11    1    1    2    0    0 -0.73658550217E+01 -0.15524846840E+03  0.28112126945E+03  0.32122501599E+03  0.00000000000E+00 0.  1.
         11    1    1    2    0    0  0.11110620133E+03 -0.15164340434E+02 -0.39135250765E+03  0.40710113048E+03  0.00000000000E+00 0.  1.
        -15    1    1    2    0    0 -0.24035497599E+02  0.15298564732E+03  0.11018110346E+03  0.19006669019E+03  0.17770000000E+01 0.  1.
         15    1    1    2    0    0 -0.79704848710E+02  0.17427161514E+02  0.50134741178E-01  0.81607163343E+02  0.17770000000E+01 0. -1.
</event>
<event>
 7    1  0.2288857E-006  0.3858931E+03  0.7546771E-02  0.9699026E-01
        -11   -1    0    0    0    0  0.00000000000E+00  0.00000000000E+00  0.50000000000E+03  0.50000000000E+03  0.00000000000E+00 0.  1.
         11   -1    0    0    0    0 -0.00000000000E+00 -0.00000000000E+00 -0.50000000000E+03  0.50000000000E+03  0.00000000000E+00 0. -1.
         23    2    1    2    0    0  0.18809731908E+03 -0.11081164733E+03  0.35340406821E+03  0.42519195094E+03  0.90741044095E+02 0.  0.
        -11    1    1    2    0    0 -0.20974036937E+03 -0.13147849680E+02 -0.11481352519E+02  0.21046546023E+03  0.00000000000E+00 0.  1.
         11    1    1    2    0    0  0.21643050295E+02  0.12395949701E+03 -0.34192271569E+03  0.36434258883E+03  0.00000000000E+00 0. -1.
        -15    1    3    3    0    0  0.84550023174E+02 -0.60147803851E+02  0.88881421724E+02  0.13663648701E+03  0.17770000000E+01 0.  1.
         15    1    3    3    0    0  0.10354729590E+03 -0.50663843482E+02  0.26452264649E+03  0.28855546392E+03  0.17770000000E+01 0. -1.
</event>
<event>
 7    1  0.2288857E-006  0.4761392E+03  0.7546771E-02  0.9454842E-01
        -11   -1    0    0    0    0  0.00000000000E+00  0.00000000000E+00  0.50000000000E+03  0.50000000000E+03  0.00000000000E+00 0.  1.
         11   -1    0    0    0    0 -0.00000000000E+00 -0.00000000000E+00 -0.50000000000E+03  0.50000000000E+03  0.00000000000E+00 0. -1.
         23    2    1    2    0    0 -0.60386942334E+02  0.70475810506E+01  0.44100447511E+03  0.45499554202E+03  0.94019918071E+02 0.  0.
        -11    1    1    2    0    0 -0.20324043385E+02 -0.31030805411E+02  0.41237996159E+02  0.55466656211E+02  0.00000000000E+00 0.  1.
         11    1    1    2    0    0  0.80710985720E+02  0.23983224360E+02 -0.48224247127E+03  0.48953780177E+03  0.00000000000E+00 0. -1.
        -15    1    3    3    0    0 -0.53050206825E+02  0.43714740660E+02  0.34819927836E+03  0.35492421469E+03  0.17770000000E+01 0.  1.
         15    1    3    3    0    0 -0.73367355090E+01 -0.36667159610E+02  0.92805196749E+02  0.10007132733E+03  0.17770000000E+01 0. -1.
</event>
<event>
 7    1  0.2288857E-006  0.4717893E+03  0.7546771E-02  0.9465245E-01
        -11   -1    0    0    0    0  0.00000000000E+00  0.00000000000E+00  0.50000000000E+03  0.50000000000E+03  0.00000000000E+00 0.  1.
         11   -1    0    0    0    0 -0.00000000000E+00 -0.00000000000E+00 -0.50000000000E+03  0.50000000000E+03  0.00000000000E+00 0. -1.
         23    2    1    2    0    0 -0.27051735233E+02 -0.15903114847E+03  0.42882074837E+03  0.46743988012E+03  0.92682817916E+02 0.  0.
        -11    1    1    2    0    0  0.48011808926E+02  0.34559961275E+02  0.22976300637E+02  0.63462076161E+02  0.00000000000E+00 0.  1.
         11    1    1    2    0    0 -0.20960073692E+02  0.12447118719E+03 -0.45179704900E+03  0.46909804372E+03  0.00000000000E+00 0. -1.
        -15    1    3    3    0    0  0.21246703115E+02 -0.49147747146E+02  0.22137441792E+03  0.22776460234E+03  0.17770000000E+01 0.  1.
         15    1    3    3    0    0 -0.48298438349E+02 -0.10988340132E+03  0.20744633045E+03  0.23967527778E+03  0.17770000000E+01 0. -1.
</event>
<event>
 7    1  0.2288857E-006  0.3287570E+03  0.7546771E-02  0.9894033E-01
        -11   -1    0    0    0    0  0.00000000000E+00  0.00000000000E+00  0.50000000000E+03  0.50000000000E+03  0.00000000000E+00 0. -1.
         11   -1    0    0    0    0 -0.00000000000E+00 -0.00000000000E+00 -0.50000000000E+03  0.50000000000E+03  0.00000000000E+00 0. -1.
         23    2    1    2    0    0  0.14486440566E+03 -0.99605756919E+02  0.20874804798E+03  0.28809585952E+03  0.92284743581E+02 0.  0.
        -11    1    1    2    0    0 -0.12076112439E+03  0.17149544175E+03  0.20379632514E+03  0.29244978688E+03  0.00000000000E+00 0. -1.
         11    1    1    2    0    0 -0.24103281273E+02 -0.71889684830E+02 -0.41254437313E+03  0.41945435360E+03  0.00000000000E+00 0. -1.
        -15    1    3    3    0    0  0.54293658404E+02 -0.45247848315E+02  0.15322369480E+03  0.16874782220E+03  0.17770000000E+01 0. -1.
         15    1    3    3    0    0  0.90570747261E+02 -0.54357908605E+02  0.55524353178E+02  0.11934803732E+03  0.17770000000E+01 0.  1.
</event>
<event>
 7    1  0.2288857E-006  0.5242272E+03  0.7546771E-02  0.9347174E-01
        -11   -1    0    0    0    0  0.00000000000E+00  0.00000000000E+00  0.50000000000E+03  0.50000000000E+03  0.00000000000E+00 0. -1.
         11   -1    0    0    0    0 -0.00000000000E+00 -0.00000000000E+00 -0.50000000000E+03  0.50000000000E+03  0.00000000000E+00 0.  1.
         23    2    1    2    0    0  0.22029968926E+02  0.46150512622E+02  0.19047017017E+03  0.21629982212E+03  0.88834328820E+02 0.  0.
        -11    1    1    2    0    0 -0.24183674524E+01 -0.13575402636E+03  0.27637705753E+03  0.30792739745E+03  0.00000000000E+00 0. -1.
         11    1    1    2    0    0 -0.19611601473E+02  0.89603513739E+02 -0.46684722770E+03  0.47577278043E+03  0.00000000000E+00 0.  1.
        -15    1    3    3    0    0 -0.29316328822E+02  0.38574096217E+02  0.70394398822E+02  0.85474774929E+02  0.17770000000E+01 0.  1.
         15    1    3    3    0    0  0.51346297748E+02  0.75764164050E+01  0.12007577135E+03  0.13082504719E+03  0.17770000000E+01 0. -1.
</event>
<event>
 7    1  0.2288857E-006  0.3625302E+03  0.7546771E-02  0.9774089E-01
        -11   -1    0    0    0    0  0.00000000000E+00  0.00000000000E+00  0.50000000000E+03  0.50000000000E+03  0.00000000000E+00 0. -1.
         11   -1    0    0    0    0 -0.00000000000E+00 -0.00000000000E+00 -0.50000000000E+03  0.50000000000E+03  0.00000000000E+00 0. -1.
         23    2    1    2    0    0  0.86958711960E+02  0.87976827885E+02  0.18555291945E+03  0.24141959496E+03  0.92475916234E+02 0.  0.
        -11    1    1    2    0    0 -0.63573126007E+02 -0.15969812972E+03  0.25725376466E+03  0.30939381768E+03  0.00000000000E+00 0. -1.
         11    1    1    2    0    0 -0.23385585953E+02  0.71721301835E+02 -0.44280668411E+03  0.44918658736E+03  0.00000000000E+00 0. -1.
        -15    1    3    3    0    0 -0.12013905623E+02  0.55949024014E+01 -0.23928655245E+01  0.13583828460E+02  0.17770000000E+01 0.  1.
         15    1    3    3    0    0  0.98972617583E+02  0.82381925483E+02  0.18794578497E+03  0.22783576650E+03  0.17770000000E+01 0. -1.
</event>
<event>
 7    1  0.2288857E-006  0.4104297E+03  0.7546771E-02  0.9626076E-01
        -11   -1    0    0    0    0  0.00000000000E+00  0.00000000000E+00  0.50000000000E+03  0.50000000000E+03  0.00000000000E+00 0.  1.
         11   -1    0    0    0    0 -0.00000000000E+00 -0.00000000000E+00 -0.50000000000E+03  0.50000000000E+03  0.00000000000E+00 0. -1.
         23    2    1    2    0    0 -0.11172425430E+03  0.28660124078E+03 -0.20528611052E+03  0.38125216287E+03  0.92672780841E+02 0.  0.
        -11    1    1    2    0    0  0.27398103901E+03 -0.25079459792E+03  0.24870280725E+03  0.44700853059E+03  0.00000000000E+00 0.  1.
         11    1    1    2    0    0 -0.16225678471E+03 -0.35806642856E+02 -0.43416696729E+02  0.17173930654E+03  0.00000000000E+00 0. -1.
        -15    1    3    3    0    0 -0.12720449115E+03  0.23896035318E+03 -0.16589419072E+03  0.31750129638E+03  0.17770000000E+01 0. -1.
         15    1    3    3    0    0  0.15480236848E+02  0.47640887600E+02 -0.39391919799E+02  0.63750866493E+02  0.17770000000E+01 0.  1.
</event>
<event>
 7    1  0.2288857E-006  0.5225987E+03  0.7546771E-02  0.9350616E-01
        -11   -1    0    0    0    0  0.00000000000E+00  0.00000000000E+00  0.50000000000E+03  0.50000000000E+03  0.00000000000E+00 0.  1.
         11   -1    0    0    0    0 -0.00000000000E+00 -0.00000000000E+00 -0.50000000000E+03  0.50000000000E+03  0.00000000000E+00 0. -1.
         23    2    1    2    0    0 -0.11231311128E+03 -0.11503691292E+03  0.10802790571E+03  0.21385004325E+03  0.90631596516E+02 0.  0.
        -11    1    1    2    0    0 -0.20102098896E+03  0.30978318239E+01  0.23432183720E+03  0.30874869709E+03  0.00000000000E+00 0.  1.
         11    1    1    2    0    0  0.31333410024E+03  0.11193908110E+03 -0.34234974291E+03  0.47740125966E+03  0.00000000000E+00 0. -1.
        -15    1    3    3    0    0 -0.29538946399E+02 -0.70473223987E+02  0.90062044915E+02  0.11812431721E+03  0.17770000000E+01 0. -1.
         15    1    3    3    0    0 -0.82774164876E+02 -0.44563688935E+02  0.17965860795E+02  0.95725726038E+02  0.17770000000E+01 0.  1.
</event>
<event>
 7    1  0.2288857E-006  0.4728135E+03  0.7546771E-02  0.9462785E-01
        -11   -1    0    0    0    0  0.00000000000E+00  0.00000000000E+00  0.50000000000E+03  0.50000000000E+03  0.00000000000E+00 0. -1.
         11   -1    0    0    0    0 -0.00000000000E+00 -0.00000000000E+00 -0.50000000000E+03  0.50000000000E+03  0.00000000000E+00 0.  1.
         23    2    1    2    0    0  0.10344188170E+03 -0.26476420011E+03  0.36754935266E+03  0.47347033212E+03  0.91001781339E+02 0.  0.
        -11    1    1    2    0    0  0.57284449236E+02  0.20921662617E+02 -0.52988783614E+01  0.61215212185E+02  0.00000000000E+00 0. -1.
         11    1    1    2    0    0 -0.16072633094E+03  0.24384253749E+03 -0.36225047430E+03  0.46531445569E+03  0.00000000000E+00 0.  1.
        -15    1    3    3    0    0  0.46374899098E+02 -0.22284239458E+03  0.27871718822E+03  0.35985523871E+03  0.17770000000E+01 0. -1.
         15    1    3    3    0    0  0.57066982603E+02 -0.41921805527E+02  0.88832164445E+02  0.11361509341E+03  0.17770000000E+01 0.  1.
</event>
<event>
 7    1  0.2288857E-006  0.4889708E+03  0.7546771E-02  0.9424832E-01
        -11   -1    0    0    0    0  0.00000000000E+00  0.00000000000E+00  0.50000000000E+03  0.50000000000E+03  0.00000000000E+00 0.  1.
         11   -1    0    0    0    0 -0.00000000000E+00 -0.00000000000E+00 -0.50000000000E+03  0.50000000000E+03  0.00000000000E+00 0.  1.
         23    2    1    2    0    0  0.59849058321E+02  0.12393285709E+03  0.45868723725E+03  0.48717874991E+03  0.89486814098E+02 0.  0.
        -11    1    1    2    0    0  0.26342165390E+02  0.13533367329E+02 -0.37934081961E+01  0.29857187651E+02  0.00000000000E+00 0.  1.
         11    1    1    2    0    0 -0.86191223711E+02 -0.13746622442E+03 -0.45489382905E+03  0.48296406244E+03  0.00000000000E+00 0.  1.
        -15    1    3    3    0    0  0.69145564597E+02  0.13178735906E+03  0.39072756412E+03  0.41811506097E+03  0.17770000000E+01 0.  1.
         15    1    3    3    0    0 -0.92965062767E+01 -0.78545019644E+01  0.67959673123E+02  0.69063688941E+02  0.17770000000E+01 0. -1.
</event>
<event>
 7    1  0.2288857E-006  0.4478896E+03  0.7546771E-02  0.9524610E-01
        -11   -1    0    0    0    0  0.00000000000E+00  0.00000000000E+00  0.50000000000E+03  0.50000000000E+03  0.00000000000E+00 0.  1.
         11   -1    0    0    0    0 -0.00000000000E+00 -0.00000000000E+00 -0.50000000000E+03  0.50000000000E+03  0.00000000000E+00 0.  1.
         23    2    1    2    0    0  0.81846393848E+02  0.18625342241E+02  0.45340342355E+03  0.46946056866E+03  0.88163629016E+02 0.  0.
        -11    1    1    2    0    0 -0.82696466597E+02  0.56691380967E+02 -0.36209866287E+02  0.10660099756E+03  0.00000000000E+00 0.  1.
         11    1    1    2    0    0  0.85007274978E+00 -0.75316723208E+02 -0.41719355726E+03  0.42393843378E+03  0.00000000000E+00 0.  1.
        -15    1    3    3    0    0  0.99287368024E+02  0.25821842589E+02  0.37312659975E+03  0.38697721661E+03  0.17770000000E+01 0.  1.
         15    1    3    3    0    0 -0.17440974177E+02 -0.71965003473E+01  0.80276823802E+02  0.82483352055E+02  0.17770000000E+01 0. -1.
</event>
<event>
 7    1  0.2288857E-006  0.3173834E+03  0.7546771E-02  0.9937956E-01
        -11   -1    0    0    0    0  0.00000000000E+00  0.00000000000E+00  0.50000000000E+03  0.50000000000E+03  0.00000000000E+00 0. -1.
         11   -1    0    0    0    0 -0.00000000000E+00 -0.00000000000E+00 -0.50000000000E+03  0.50000000000E+03  0.00000000000E+00 0.  1.
         23    2    1    2    0    0  0.26632868734E+02  0.16023724506E+03 -0.23887592733E+03  0.30259345753E+03  0.90087776546E+02 0.  0.
        -11    1    1    2    0    0  0.16324277369E+01  0.19593511592E+03  0.27568429459E+03  0.33822339475E+03  0.00000000000E+00 0. -1.
         11    1    1    2    0    0 -0.28265296471E+02 -0.35617236098E+03 -0.36808367263E+02  0.35918314772E+03  0.00000000000E+00 0.  1.
        -15    1    3    3    0    0  0.53716170732E+02  0.93233077179E+02 -0.10449307104E+03  0.14999931101E+03  0.17770000000E+01 0.  1.
         15    1    3    3    0    0 -0.27083301998E+02  0.67004167879E+02 -0.13438285628E+03  0.15259414652E+03  0.17770000000E+01 0. -1.
</event>
<event>
 7    1  0.2288857E-006  0.3610441E+03  0.7546771E-02  0.9779068E-01
        -11   -1    0    0    0    0  0.00000000000E+00  0.00000000000E+00  0.50000000000E+03  0.50000000000E+03  0.00000000000E+00 0.  1.
         11   -1    0    0    0    0 -0.00000000000E+00 -0.00000000000E+00 -0.50000000000E+03  0.50000000000E+03  0.00000000000E+00 0. -1.
         23    2    1    2    0    0  0.18753794430E+03 -0.96538129750E+02 -0.77088263573E+02  0.24379620555E+03  0.94888874013E+02 0.  0.
        -11    1    1    2    0    0 -0.94231609991E+02  0.12453513830E+03  0.39444338988E+03  0.42423364413E+03  0.00000000000E+00 0.  1.
         11    1    1    2    0    0 -0.93306334310E+02 -0.27997008548E+02 -0.31735512631E+03  0.33197015032E+03  0.00000000000E+00 0. -1.
        -15    1    3    3    0    0  0.73594978869E+02 -0.17957369601E+02  0.15391296035E+02  0.77322297951E+02  0.17770000000E+01 0.  1.
         15    1    3    3    0    0  0.11394296543E+03 -0.78580760149E+02 -0.92479559608E+02  0.16647390760E+03  0.17770000000E+01 0. -1.
</event>
<event>
 7    1  0.2288857E-006  0.4731666E+03  0.7546771E-02  0.9461938E-01
        -11   -1    0    0    0    0  0.00000000000E+00  0.00000000000E+00  0.50000000000E+03  0.50000000000E+03  0.00000000000E+00 0.  1.
         11   -1    0    0    0    0 -0.00000000000E+00 -0.00000000000E+00 -0.50000000000E+03  0.50000000000E+03  0.00000000000E+00 0. -1.
         23    2    1    2    0    0 -0.19788539593E+03  0.98914845856E+02 -0.38001428463E+03  0.44931192096E+03  0.92344838212E+02 0.  0.
        -11    1    1    2    0    0  0.22513596232E+03 -0.74651853096E+02  0.42864376626E+03  0.48989241579E+03  0.00000000000E+00 0.  1.
         11    1    1    2    0    0 -0.27250566388E+02 -0.24262992760E+02 -0.48629481627E+02  0.60795663246E+02  0.00000000000E+00 0. -1.
        -15    1    3    3    0    0 -0.89972629165E+02  0.12118449923E+02 -0.89618401420E+02  0.12757956901E+03  0.17770000000E+01 0.  1.
         15    1    3    3    0    0 -0.10791276676E+03  0.86796395933E+02 -0.29039588321E+03  0.32173235195E+03  0.17770000000E+01 0. -1.
</event>
<event>
 7    1  0.2288857E-006  0.4421788E+03  0.7546771E-02  0.9539381E-01
        -11   -1    0    0    0    0  0.00000000000E+00  0.00000000000E+00  0.50000000000E+03  0.50000000000E+03  0.00000000000E+00 0.  1.
         11   -1    0    0    0    0 -0.00000000000E+00 -0.00000000000E+00 -0.50000000000E+03  0.50000000000E+03  0.00000000000E+00 0. -1.
         23    2    1    2    0    0 -0.18612427307E+02  0.65982847857E+02  0.12340380691E+01  0.11298820440E+03  0.89803412088E+02 0.  0.
        -11    1    1    2    0    0 -0.19828145171E+03 -0.18805786254E+03  0.35775213737E+03  0.45018650086E+03  0.00000000000E+00 0.  1.
         11    1    1    2    0    0  0.21689387902E+03  0.12207501468E+03 -0.35898617544E+03  0.43682529474E+03  0.00000000000E+00 0. -1.
        -15    1    3    3    0    0 -0.19538591419E+02  0.84792367742E+02 -0.14687991515E+02  0.88263225670E+02  0.17770000000E+01 0.  1.
         15    1    3    3    0    0  0.92616411118E+00 -0.18809519885E+02  0.15922029584E+02  0.24724978733E+02  0.17770000000E+01 0. -1.
</event>
<event>
 7    1  0.2288857E-006  0.5294054E+03  0.7546771E-02  0.9336315E-01
        -11   -1    0    0    0    0  0.00000000000E+00  0.00000000000E+00  0.50000000000E+03  0.50000000000E+03  0.00000000000E+00 0.  1.
         11   -1    0    0    0    0 -0.00000000000E+00 -0.00000000000E+00 -0.50000000000E+03  0.50000000000E+03  0.00000000000E+00 0. -1.
         23    2    1    2    0    0  0.12216131195E+03 -0.89555938493E+02 -0.33632592614E+03  0.37985818103E+03  0.90738397865E+02 0.  0.
        -11    1    1    2    0    0 -0.51573842132E+02  0.18095696269E+03  0.43133977225E+03  0.47059460544E+03  0.00000000000E+00 0.  1.
         11    1    1    2    0    0 -0.70587469818E+02 -0.91401024202E+02 -0.95013846119E+02  0.14954721353E+03  0.00000000000E+00 0. -1.
        -15    1    3    3    0    0  0.86438997695E+02 -0.23612772562E+02 -0.24952216568E+03  0.26512965177E+03  0.17770000000E+01 0. -1.
         15    1    3    3    0    0  0.35722314256E+02 -0.65943165931E+02 -0.86803760455E+02  0.11472852926E+03  0.17770000000E+01 0.  1.
</event>
<event>
 7    1  0.2288857E-006  0.4850560E+03  0.7546771E-02  0.9433883E-01
        -11   -1    0    0    0    0  0.00000000000E+00  0.00000000000E+00  0.50000000000E+03  0.50000000000E+03  0.00000000000E+00 0.  1.
         11   -1    0    0    0    0 -0.00000000000E+00 -0.00000000000E+00 -0.50000000000E+03  0.50000000000E+03  0.00000000000E+00 0. -1.
         23    2    1    2    0    0  0.43699468784E+02  0.13512445113E+03  0.44907970114E+03  0.47965113557E+03  0.90688328950E+02 0.  0.
        -11    1    1    2    0    0 -0.28587284393E+01 -0.31488853102E+02  0.20536477870E+02  0.37702349016E+02  0.00000000000E+00 0.  1.
         11    1    1    2    0    0 -0.40840740345E+02 -0.10363559802E+03 -0.46961617902E+03  0.48264651542E+03  0.00000000000E+00 0. -1.
        -15    1    3    3    0    0  0.70066921636E+02  0.77756751134E+02  0.25917331402E+03  0.27951645798E+03  0.17770000000E+01 0.  1.
         15    1    3    3    0    0 -0.26367452852E+02  0.57367699993E+02  0.18990638713E+03  0.20013467759E+03  0.17770000000E+01 0. -1.
</event>
<event>
 7    1  0.2288857E-006  0.5239908E+03  0.7546771E-02  0.9347673E-01
        -11   -1    0    0    0    0  0.00000000000E+00  0.00000000000E+00  0.50000000000E+03  0.50000000000E+03  0.00000000000E+00 0.  1.
         11   -1    0    0    0    0 -0.00000000000E+00 -0.00000000000E+00 -0.50000000000E+03  0.50000000000E+03  0.00000000000E+00 0. -1.
         23    2    1    2    0    0  0.20599483129E+02 -0.27947292585E+02 -0.13680655518E+03  0.18895835523E+03  0.12563373992E+03 0.  0.
        -11    1    1    2    0    0 -0.81419645645E+02  0.10863484578E+03  0.45623908623E+03  0.47600923543E+03  0.00000000000E+00 0.  1.
         11    1    1    2    0    0  0.60820162515E+02 -0.80687553191E+02 -0.31943253105E+03  0.33503240933E+03  0.00000000000E+00 0. -1.
        -15    1    3    3    0    0  0.33199146995E+02  0.44033289994E+02 -0.42530902630E+02  0.69664549065E+02  0.17770000000E+01 0.  1.
         15    1    3    3    0    0 -0.12599663865E+02 -0.71980582580E+02 -0.94275652549E+02  0.11929380617E+03  0.17770000000E+01 0. -1.
</event>
<event>
 7    1  0.2288857E-006  0.4707073E+03  0.7546771E-02  0.9467851E-01
        -11   -1    0    0    0    0  0.00000000000E+00  0.00000000000E+00  0.50000000000E+03  0.50000000000E+03  0.00000000000E+00 0. -1.
         11   -1    0    0    0    0 -0.00000000000E+00 -0.00000000000E+00 -0.50000000000E+03  0.50000000000E+03  0.00000000000E+00 0.  1.
         23    2    1    2    0    0 -0.10168616618E+03  0.12407963228E+02  0.42305554807E+03  0.44542481356E+03  0.94515786177E+02 0.  0.
        -11    1    1    2    0    0 -0.27980367284E+02 -0.35920604130E+02  0.47569143251E+02  0.65848417931E+02  0.00000000000E+00 0. -1.
         11    1    1    2    0    0  0.12966653347E+03  0.23512640902E+02 -0.47062469132E+03  0.48872676851E+03  0.00000000000E+00 0.  1.
        -15    1    3    3    0    0 -0.34053330578E+02 -0.31264115039E+02  0.25389202244E+03  0.25807245301E+03  0.17770000000E+01 0.  1.
         15    1    3    3    0    0 -0.67632835605E+02  0.43672078267E+02  0.16916352562E+03  0.18735236055E+03  0.17770000000E+01 0. -1.
</event>
<event>
 7    1  0.2288857E-006  0.3649243E+03  0.7546771E-02  0.9766122E-01
        -11   -1    0    0    0    0  0.00000000000E+00  0.00000000000E+00  0.50000000000E+03  0.50000000000E+03  0.00000000000E+00 0.  1.
         11   -1    0    0    0    0 -0.00000000000E+00 -0.00000000000E+00 -0.50000000000E+03  0.50000000000E+03  0.00000000000E+00 0. -1.
         23    2    1    2    0    0 -0.12348035160E+03 -0.15038728757E+03 -0.10270682707E+03  0.23770651988E+03  0.89955343201E+02 0.  0.
        -11    1    1    2    0    0  0.16151988632E+03  0.44429337962E+02  0.40577329945E+03  0.43899272237E+03  0.00000000000E+00 0.  1.
         11    1    1    2    0    0 -0.38039534719E+02  0.10595794961E+03 -0.30306647237E+03  0.32330075775E+03  0.00000000000E+00 0. -1.
        -15    1    3    3    0    0 -0.12559375010E+02  0.11717009050E+00 -0.37667556793E+02  0.39746121738E+02  0.17770000000E+01 0. -1.
         15    1    3    3    0    0 -0.11092097659E+03 -0.15050445766E+03 -0.65039270279E+02  0.19796039814E+03  0.17770000000E+01 0.  1.
</event>
<event>
 7    1  0.2288857E-006  0.4624378E+03  0.7546771E-02  0.9488018E-01
        -11   -1    0    0    0    0  0.00000000000E+00  0.00000000000E+00  0.50000000000E+03  0.50000000000E+03  0.00000000000E+00 0. -1.
         11   -1    0    0    0    0 -0.00000000000E+00 -0.00000000000E+00 -0.50000000000E+03  0.50000000000E+03  0.00000000000E+00 0.  1.
         23    2    1    2    0    0 -0.10650473478E+03 -0.13884598505E+03  0.43061067393E+03  0.47286998864E+03  0.86942553225E+02 0.  0.
        -11    1    1    2    0    0  0.34646248572E+02  0.71767733622E+02  0.56867815493E+01  0.79895616987E+02  0.00000000000E+00 0. -1.
         11    1    1    2    0    0  0.71858486205E+02  0.67078251427E+02 -0.43629745548E+03  0.44723439437E+03  0.00000000000E+00 0.  1.
        -15    1    3    3    0    0 -0.37098070659E+02 -0.92452226282E+01  0.16399487786E+03  0.16840195570E+03  0.17770000000E+01 0.  1.
         15    1    3    3    0    0 -0.69406664119E+02 -0.12960076242E+03  0.26661579606E+03  0.30446803294E+03  0.17770000000E+01 0. -1.
</event>
<event>
 7    1  0.2288857E-006  0.5300841E+03  0.7546771E-02  0.9334901E-01
        -11   -1    0    0    0    0  0.00000000000E+00  0.00000000000E+00  0.50000000000E+03  0.50000000000E+03  0.00000000000E+00 0.  1.
         11   -1    0    0    0    0 -0.00000000000E+00 -0.00000000000E+00 -0.50000000000E+03  0.50000000000E+03  0.00000000000E+00 0. -1.
         23    2    1    2    0    0 -0.17611119114E+01  0.46319364582E+01 -0.93943954921E+02  0.13008614059E+03  0.89846429855E+02 0.  0.
        -11    1    1    2    0    0 -0.26473573503E+03 -0.11768726497E+03  0.36998065694E+03  0.46991593742E+03  0.00000000000E+00 0.  1.
         11    1    1    2    0    0  0.26649684694E+03  0.11305532851E+03 -0.27603670201E+03  0.39999792199E+03  0.00000000000E+00 0. -1.
        -15    1    3    3    0    0  0.30146628604E+02 -0.69305662410E+01 -0.86393628237E+00  0.30996065549E+02  0.17770000000E+01 0. -1.
         15    1    3    3    0    0 -0.31907740515E+02  0.11562502699E+02 -0.93080018638E+02  0.99090075044E+02  0.17770000000E+01 0.  1.
</event>
<event>
 7    1  0.2288857E-006  0.5241226E+03  0.7546771E-02  0.9347395E-01
        -11   -1    0    0    0    0  0.00000000000E+00  0.00000000000E+00  0.50000000000E+03  0.50000000000E+03  0.00000000000E+00 0. -1.
         11   -1    0    0    0    0 -0.00000000000E+00 -0.00000000000E+00 -0.50000000000E+03  0.50000000000E+03  0.00000000000E+00 0.  1.
         23    2    1    2    0    0 -0.30359791778E+02 -0.42291393593E+02  0.31046467712E+03  0.33088350751E+03  0.10190829639E+03 0.  0.
        -11    1    1    2    0    0 -0.59057123417E+02  0.10204743150E+03  0.15310100900E+03  0.19323907746E+03  0.00000000000E+00 0. -1.
         11    1    1    2    0    0  0.89416915195E+02 -0.59756037902E+02 -0.46356568612E+03  0.47587741503E+03  0.00000000000E+00 0.  1.
        -15    1    3    3    0    0  0.23024062781E+02 -0.46792472180E+02  0.90345456151E+02  0.10433169267E+03  0.17770000000E+01 0. -1.
         15    1    3    3    0    0 -0.53383854559E+02  0.45010785877E+01  0.22011922097E+03  0.22655181484E+03  0.17770000000E+01 0.  1.
</event>
<event>
 7    1  0.2288857E-006  0.5238935E+03  0.7546771E-02  0.9347878E-01
        -11   -1    0    0    0    0  0.00000000000E+00  0.00000000000E+00  0.50000000000E+03  0.50000000000E+03  0.00000000000E+00 0. -1.
         11   -1    0    0    0    0 -0.00000000000E+00 -0.00000000000E+00 -0.50000000000E+03  0.50000000000E+03  0.00000000000E+00 0.  1.
         23    2    1    2    0    0  0.25042592468E+02 -0.64501429911E+01 -0.49602783951E+02  0.10364861346E+03  0.87257453055E+02 0.  0.
        -11    1    1    2    0    0 -0.19409274390E+03  0.66507680936E+02  0.42963025852E+03  0.47610652579E+03  0.00000000000E+00 0. -1.
         11    1    1    2    0    0  0.16905015143E+03 -0.60057537944E+02 -0.38002747457E+03  0.42024486076E+03  0.00000000000E+00 0.  1.
        -15    1    3    3    0    0 -0.10838519409E+01 -0.19985338030E+02 -0.66638572218E+02  0.69602051029E+02  0.17770000000E+01 0.  1.
         15    1    3    3    0    0  0.26126444409E+02  0.13535195039E+02  0.17035788268E+02  0.34046562427E+02  0.17770000000E+01 0. -1.
</event>
<event>
 7    1  0.2288857E-006  0.5077233E+03  0.7546771E-02  0.9382692E-01
        -11   -1    0    0    0    0  0.00000000000E+00  0.00000000000E+00  0.50000000000E+03  0.50000000000E+03  0.00000000000E+00 0. -1.
         11   -1    0    0    0    0 -0.00000000000E+00 -0.00000000000E+00 -0.50000000000E+03  0.50000000000E+03  0.00000000000E+00 0. -1.
         23    2    1    2    0    0 -0.13410216677E+03 -0.64772099806E+01  0.37517044074E+03  0.40710023419E+03  0.83381027162E+02 0.  0.
        -11    1    1    2    0    0 -0.31228463831E+01 -0.29187429842E+02  0.96246247102E+02  0.10062305060E+03  0.00000000000E+00 0. -1.
         11    1    1    2    0    0  0.13722501316E+03  0.35664639823E+02 -0.47141668784E+03  0.49227671521E+03  0.00000000000E+00 0. -1.
        -15    1    3    3    0    0 -0.35489905966E+02 -0.37511648921E+02  0.90188507520E+02  0.10394124229E+03  0.17770000000E+01 0.  1.
         15    1    3    3    0    0 -0.98612260807E+02  0.31034438941E+02  0.28498193322E+03  0.30315899190E+03  0.17770000000E+01 0. -1.
</event>
<event>
 7    1  0.2288857E-006  0.5020012E+03  0.7546771E-02  0.9395343E-01
        -11   -1    0    0    0    0  0.00000000000E+00  0.00000000000E+00  0.50000000000E+03  0.50000000000E+03  0.00000000000E+00 0.  1.
         11   -1    0    0    0    0 -0.00000000000E+00 -0.00000000000E+00 -0.50000000000E+03  0.50000000000E+03  0.00000000000E+00 0. -1.
         23    2    1    2    0    0  0.48763208653E+02 -0.24201452896E+03  0.42784510306E+03  0.50200122302E+03  0.89470179153E+02 0.  0.
        -11    1    1    2    0    0 -0.44507693170E+02  0.20141952038E+03 -0.30220197545E+03  0.36589177622E+03  0.00000000000E+00 0.  1.
         11    1    1    2    0    0 -0.42555154827E+01  0.40595008581E+02 -0.12564312761E+03  0.13210700076E+03  0.00000000000E+00 0. -1.
        -15    1    3    3    0    0  0.51211371826E+01 -0.13224197002E+03  0.30015319386E+03  0.32803850719E+03  0.17770000000E+01 0.  1.
         15    1    3    3    0    0  0.43642071470E+02 -0.10977255894E+03  0.12769190919E+03  0.17396271583E+03  0.17770000000E+01 0. -1.
</event>
<event>
 7    1  0.2288857E-006  0.5283084E+03  0.7546771E-02  0.9338604E-01
        -11   -1    0    0    0    0  0.00000000000E+00  0.00000000000E+00  0.50000000000E+03  0.50000000000E+03  0.00000000000E+00 0.  1.
         11   -1    0    0    0    0 -0.00000000000E+00 -0.00000000000E+00 -0.50000000000E+03  0.50000000000E+03  0.00000000000E+00 0. -1.
         23    2    1    2    0    0  0.97608736788E+02 -0.12690656640E+03 -0.39699313084E+02  0.19119255134E+03  0.96673751032E+02 0.  0.
        -11    1    1    2    0    0 -0.17274883697E+03  0.30419367299E+03  0.31641275624E+03  0.47169161925E+03  0.00000000000E+00 0.  1.
         11    1    1    2    0    0  0.75140100179E+02 -0.17728710659E+03 -0.27671344315E+03  0.33711582941E+03  0.00000000000E+00 0. -1.
        -15    1    3    3    0    0  0.10599775843E+03 -0.96808869165E+02 -0.58115268720E+02  0.15488067707E+03  0.17770000000E+01 0.  1.
         15    1    3    3    0    0 -0.83890216412E+01 -0.30097697231E+02  0.18415955635E+02  0.36311874279E+02  0.17770000000E+01 0. -1.
</event>
<event>
 7    1  0.2288857E-006  0.3646376E+03  0.7546771E-02  0.9767073E-01
        -11   -1    0    0    0    0  0.00000000000E+00  0.00000000000E+00  0.50000000000E+03  0.50000000000E+03  0.00000000000E+00 0.  1.
         11   -1    0    0    0    0 -0.00000000000E+00 -0.00000000000E+00 -0.50000000000E+03  0.50000000000E+03  0.00000000000E+00 0. -1.
         23    2    1    2    0    0 -0.77397905537E+01  0.14279224389E+03  0.16381584578E+03  0.23899566916E+03  0.99165363305E+02 0.  0.
        -11    1    1    2    0    0 -0.20995301720E+03 -0.68246204076E+02  0.22116858832E+03  0.31249537318E+03  0.00000000000E+00 0.  1.
         11    1    1    2    0    0  0.21769280775E+03 -0.74546039810E+02 -0.38498443410E+03  0.44850895765E+03  0.00000000000E+00 0. -1.
        -15    1    3    3    0    0  0.13043434328E+01  0.10166872364E+03  0.16827563326E+03  0.19661657396E+03  0.17770000000E+01 0.  1.
         15    1    3    3    0    0 -0.90441339865E+01  0.41123520242E+02 -0.44597874816E+01  0.42379095201E+02  0.17770000000E+01 0. -1.
</event>
<event>
 7    1  0.2288857E-006  0.4459507E+03  0.7546771E-02  0.9529598E-01
        -11   -1    0    0    0    0  0.00000000000E+00  0.00000000000E+00  0.50000000000E+03  0.50000000000E+03  0.00000000000E+00 0.  1.
         11   -1    0    0    0    0 -0.00000000000E+00 -0.00000000000E+00 -0.50000000000E+03  0.50000000000E+03  0.00000000000E+00 0. -1.
         23    2    1    2    0    0 -0.51419472221E+02  0.23691833531E+02 -0.10926885143E+02  0.10623675527E+03  0.89227721320E+02 0.  0.
        -11    1    1    2    0    0 -0.28621697197E+02  0.71094660930E+02  0.44025186805E+03  0.44687286747E+03  0.00000000000E+00 0.  1.
         11    1    1    2    0    0  0.80041169417E+02 -0.94786494461E+02 -0.42932498291E+03  0.44689037725E+03  0.00000000000E+00 0. -1.
        -15    1    3    3    0    0  0.51602725433E+01 -0.15222287022E+02 -0.30748113401E+02  0.34741195167E+02  0.17770000000E+01 0. -1.
         15    1    3    3    0    0 -0.56579744764E+02  0.38914120552E+02  0.19821228258E+02  0.71495560104E+02  0.17770000000E+01 0.  1.
</event>
<event>
 7    1  0.2288857E-006  0.4244173E+03  0.7546771E-02  0.9586885E-01
        -11   -1    0    0    0    0  0.00000000000E+00  0.00000000000E+00  0.50000000000E+03  0.50000000000E+03  0.00000000000E+00 0. -1.
         11   -1    0    0    0    0 -0.00000000000E+00 -0.00000000000E+00 -0.50000000000E+03  0.50000000000E+03  0.00000000000E+00 0.  1.
         23    2    1    2    0    0  0.44411666129E+02 -0.79241672989E+01  0.38512622216E+03  0.39833823612E+03  0.91191857335E+02 0.  0.
        -11    1    1    2    0    0 -0.94937199506E+02 -0.10094943901E+03  0.52260932086E+02  0.14810491588E+03  0.00000000000E+00 0. -1.
         11    1    1    2    0    0  0.50525533377E+02  0.10887360631E+03 -0.43738715424E+03  0.45355684800E+03  0.00000000000E+00 0.  1.
        -15    1    3    3    0    0 -0.16157151291E+02 -0.29792194294E+02  0.88198238856E+02  0.94502462640E+02  0.17770000000E+01 0.  1.
         15    1    3    3    0    0  0.60568817420E+02  0.21868026995E+02  0.29692798330E+03  0.30383577348E+03  0.17770000000E+01 0. -1.
</event>
<event>
 7    1  0.2288857E-006  0.5238219E+03  0.7546771E-02  0.9348029E-01
        -11   -1    0    0    0    0  0.00000000000E+00  0.00000000000E+00  0.50000000000E+03  0.50000000000E+03  0.00000000000E+00 0. -1.
         11   -1    0    0    0    0 -0.00000000000E+00 -0.00000000000E+00 -0.50000000000E+03  0.50000000000E+03  0.00000000000E+00 0.  1.
         23    2    1    2    0    0  0.15290314181E+03 -0.41482868559E+03  0.15114197490E+03  0.47617813345E+03  0.91866800484E+02 0.  0.
        -11    1    1    2    0    0 -0.38915463718E+02  0.33959088997E+03 -0.33300028523E+02  0.34343162022E+03  0.00000000000E+00 0. -1.
         11    1    1    2    0    0 -0.11398767809E+03  0.75237795627E+02 -0.11784194638E+03  0.18039024634E+03  0.00000000000E+00 0.  1.
        -15    1    3    3    0    0  0.71389084757E+02 -0.27879312957E+03  0.13134571178E+03  0.31634927572E+03  0.17770000000E+01 0.  1.
         15    1    3    3    0    0  0.81514057051E+02 -0.13603555603E+03  0.19796263122E+02  0.15982885773E+03  0.17770000000E+01 0. -1.
</event>
<event>
 6    1  0.2288857E-006  0.3586869E+03  0.7546771E-02  0.9787018E-01
        -11   -1    0    0    0    0  0.00000000000E+00  0.00000000000E+00  0.50000000000E+03  0.50000000000E+03  0.00000000000E+00 0.  1.
         11   -1    0    0    0    0 -0.00000000000E+00 -0.00000000000E+00 -0.50000000000E+03  0.50000000000E+03  0.00000000000E+00 0.  1.
        -11    1    1    2    0    0 -0.11199025097E+03 -0.10731613667E+03  0.35115293234E+03  0.38388403378E+03  0.00000000000E+00 0.  1.
         11    1    1    2    0    0 -0.14645749275E+03  0.50122171091E+02 -0.22704050742E+03  0.27478977643E+03  0.00000000000E+00 0.  1.
        -15    1    1    2    0    0  0.70897756070E+02  0.94899872647E+02 -0.85642272760E+02  0.14618561577E+03  0.17770000000E+01 0.  1.
         15    1    1    2    0    0  0.18754998765E+03 -0.37705907073E+02 -0.38470152156E+02  0.19514057403E+03  0.17770000000E+01 0. -1.
</event>
<event>
 7    1  0.2288857E-006  0.3714418E+03  0.7546771E-02  0.9744761E-01
        -11   -1    0    0    0    0  0.00000000000E+00  0.00000000000E+00  0.50000000000E+03  0.50000000000E+03  0.00000000000E+00 0.  1.
         11   -1    0    0    0    0 -0.00000000000E+00 -0.00000000000E+00 -0.50000000000E+03  0.50000000000E+03  0.00000000000E+00 0. -1.
         23    2    1    2    0    0 -0.12108386332E+03 -0.12838885939E+03  0.11398765137E+03  0.22798050360E+03  0.88526403893E+02 0.  0.
        -11    1    1    2    0    0  0.52105927302E+02  0.99436268202E+02  0.31611645752E+03  0.33545821470E+03  0.00000000000E+00 0.  1.
         11    1    1    2    0    0  0.68977936014E+02  0.28952591188E+02 -0.43010410889E+03  0.43656128170E+03  0.00000000000E+00 0. -1.
        -15    1    3    3    0    0 -0.85585866914E+02 -0.95831566287E+02  0.12420002942E+03  0.17871047745E+03  0.17770000000E+01 0.  1.
         15    1    3    3    0    0 -0.35497996402E+02 -0.32557293103E+02 -0.10212378050E+02  0.49270026153E+02  0.17770000000E+01 0. -1.
</event>
<event>
 7    1  0.2288857E-006  0.5110264E+03  0.7546771E-02  0.9375470E-01
        -11   -1    0    0    0    0  0.00000000000E+00  0.00000000000E+00  0.50000000000E+03  0.50000000000E+03  0.00000000000E+00 0.  1.
         11   -1    0    0    0    0 -0.00000000000E+00 -0.00000000000E+00 -0.50000000000E+03  0.50000000000E+03  0.00000000000E+00 0.  1.
         23    2    1    2    0    0  0.19561692571E+03  0.11212026506E+03 -0.29215471339E+03  0.38014979079E+03  0.91228018800E+02 0.  0.
        -11    1    1    2    0    0 -0.30736252919E+03 -0.14667915696E+03  0.35086841890E+03  0.48897356454E+03  0.00000000000E+00 0.  1.
         11    1    1    2    0    0  0.11174560348E+03  0.34558891896E+02 -0.58713705505E+02  0.13087664467E+03  0.00000000000E+00 0.  1.
        -15    1    3    3    0    0  0.13022615136E+03  0.24235186187E+02 -0.14103390337E+03  0.19349396470E+03  0.17770000000E+01 0. -1.
         15    1    3    3    0    0  0.65390774348E+02  0.87885078876E+02 -0.15112081003E+03  0.18665582608E+03  0.17770000000E+01 0.  1.
</event>
<event>
 7    1  0.2288857E-006  0.5310434E+03  0.7546771E-02  0.9332907E-01
        -11   -1    0    0    0    0  0.00000000000E+00  0.00000000000E+00  0.50000000000E+03  0.50000000000E+03  0.00000000000E+00 0.  1.
         11   -1    0    0    0    0 -0.00000000000E+00 -0.00000000000E+00 -0.50000000000E+03  0.50000000000E+03  0.00000000000E+00 0.  1.
         23    2    1    2    0    0  0.80286287760E+02 -0.86545011588E+02 -0.16302082823E+03  0.23222444045E+03  0.11582950088E+03 0.  0.
        -11    1    1    2    0    0 -0.15148427200E+03  0.12537692403E+02  0.44363900809E+03  0.46895655225E+03  0.00000000000E+00 0.  1.
         11    1    1    2    0    0  0.71197984240E+02  0.74007319185E+02 -0.28061817986E+03  0.29881900730E+03  0.00000000000E+00 0.  1.
        -15    1    3    3    0    0 -0.21240372607E+02  0.11076442816E+02 -0.30537557843E+02  0.38852814337E+02  0.17770000000E+01 0. -1.
         15    1    3    3    0    0  0.10152666037E+03 -0.97621454404E+02 -0.13248327039E+03  0.19337162612E+03  0.17770000000E+01 0.  1.
</event>
<event>
 7    1  0.2288857E-006  0.3674353E+03  0.7546771E-02  0.9757836E-01
        -11   -1    0    0    0    0  0.00000000000E+00  0.00000000000E+00  0.50000000000E+03  0.50000000000E+03  0.00000000000E+00 0. -1.
         11   -1    0    0    0    0 -0.00000000000E+00 -0.00000000000E+00 -0.50000000000E+03  0.50000000000E+03  0.00000000000E+00 0.  1.
         23    2    1    2    0    0  0.18038872009E+03 -0.60681961486E+02  0.10127623128E+03  0.23415794122E+03  0.91382031220E+02 0.  0.
        -11    1    1    2    0    0 -0.63558850556E+02  0.36501729479E+02  0.31985090348E+03  0.32814128694E+03  0.00000000000E+00 0. -1.
         11    1    1    2    0    0 -0.11682986954E+03  0.24180232007E+02 -0.42112713476E+03  0.43770077183E+03  0.00000000000E+00 0.  1.
        -15    1    3    3    0    0  0.20702786456E+02 -0.94597657123E+01 -0.17400322392E+02  0.28705774379E+02  0.17770000000E+01 0. -1.
         15    1    3    3    0    0  0.15968593364E+03 -0.51222195774E+02  0.11867655367E+03  0.20545216684E+03  0.17770000000E+01 0.  1.
</event>
<event>
 7    1  0.2288857E-006  0.4908198E+03  0.7546771E-02  0.9420589E-01
        -11   -1    0    0    0    0  0.00000000000E+00  0.00000000000E+00  0.50000000000E+03  0.50000000000E+03  0.00000000000E+00 0.  1.
         11   -1    0    0    0    0 -0.00000000000E+00 -0.00000000000E+00 -0.50000000000E+03  0.50000000000E+03  0.00000000000E+00 0. -1.
         23    2    1    2    0    0 -0.57720141187E+02 -0.79299723973E+02  0.46538477873E+03  0.48329187365E+03  0.85836949743E+02 0.  0.
        -11    1    1    2    0    0 -0.15704099015E+02  0.12789798146E+02  0.15638893191E+02  0.25588525606E+02  0.00000000000E+00 0.  1.
         11    1    1    2    0    0  0.73424240202E+02  0.66509925827E+02 -0.48102367192E+03  0.49111960074E+03  0.00000000000E+00 0. -1.
        -15    1    3    3    0    0 -0.75787179400E+02 -0.39138794042E+02  0.33340176234E+03  0.34414449671E+03  0.17770000000E+01 0. -1.
         15    1    3    3    0    0  0.18067038213E+02 -0.40160929931E+02  0.13198301640E+03  0.13914737694E+03  0.17770000000E+01 0.  1.
</event>
<event>
 7    1  0.2288857E-006  0.3467806E+03  0.7546771E-02  0.9828198E-01
        -11   -1    0    0    0    0  0.00000000000E+00  0.00000000000E+00  0.50000000000E+03  0.50000000000E+03  0.00000000000E+00 0. -1.
         11   -1    0    0    0    0 -0.00000000000E+00 -0.00000000000E+00 -0.50000000000E+03  0.50000000000E+03  0.00000000000E+00 0. -1.
         23    2    1    2    0    0  0.15035367635E+03  0.17566599529E+02  0.21427962455E+03  0.27645920241E+03  0.87172929791E+02 0.  0.
        -11    1    1    2    0    0 -0.10046041493E+03 -0.75916861925E+02  0.23561009513E+03  0.26714749076E+03  0.00000000000E+00 0. -1.
         11    1    1    2    0    0 -0.49893261425E+02  0.58350262396E+02 -0.44988971967E+03  0.45639330684E+03  0.00000000000E+00 0. -1.
        -15    1    3    3    0    0  0.14762917899E+02 -0.18184447244E+02  0.75868429060E+02  0.79421622518E+02  0.17770000000E+01 0.  1.
         15    1    3    3    0    0  0.13559075846E+03  0.35751046773E+02  0.13841119549E+03  0.19703757989E+03  0.17770000000E+01 0. -1.
</event>
<event>
 7    1  0.2288857E-006  0.5001247E+03  0.7546771E-02  0.9399531E-01
        -11   -1    0    0    0    0  0.00000000000E+00  0.00000000000E+00  0.50000000000E+03  0.50000000000E+03  0.00000000000E+00 0.  1.
         11   -1    0    0    0    0 -0.00000000000E+00 -0.00000000000E+00 -0.50000000000E+03  0.50000000000E+03  0.00000000000E+00 0. -1.
         23    2    1    2    0    0 -0.20716389082E+02  0.87154376264E+02  0.48349482396E+03  0.49987528051E+03  0.89905490316E+02 0.  0.
        -11    1    1    2    0    0  0.15066702605E+02  0.18344903641E+01 -0.97013248343E+01  0.18013511202E+02  0.00000000000E+00 0.  1.
         11    1    1    2    0    0  0.56496864767E+01 -0.88988866628E+02 -0.47379349913E+03  0.48211120829E+03  0.00000000000E+00 0. -1.
        -15    1    3    3    0    0 -0.77202111621E+01 -0.14284978685E+02  0.23330885631E+02  0.28480699249E+02  0.17770000000E+01 0. -1.
         15    1    3    3    0    0 -0.12996177920E+02  0.10143935495E+03  0.46016393833E+03  0.47139458126E+03  0.17770000000E+01 0.  1.
</event>
<event>
 7    1  0.2288857E-006  0.5148311E+03  0.7546771E-02  0.9367222E-01
        -11   -1    0    0    0    0  0.00000000000E+00  0.00000000000E+00  0.50000000000E+03  0.50000000000E+03  0.00000000000E+00 0. -1.
         11   -1    0    0    0    0 -0.00000000000E+00 -0.00000000000E+00 -0.50000000000E+03  0.50000000000E+03  0.00000000000E+00 0.  1.
         23    2    1    2    0    0 -0.26265798113E+02 -0.32405219041E+02  0.19806769937E+03  0.21907009727E+03  0.83790832506E+02 0.  0.
        -11    1    1    2    0    0  0.92269452581E+02 -0.81874761626E+02  0.26880748044E+03  0.29576103531E+03  0.00000000000E+00 0. -1.
         11    1    1    2    0    0 -0.66003654468E+02  0.11427998067E+03 -0.46687517981E+03  0.48516886741E+03  0.00000000000E+00 0.  1.
        -15    1    3    3    0    0 -0.41060865906E+02 -0.50820477563E+02  0.17119134235E+03  0.18324396054E+03  0.17770000000E+01 0.  1.
         15    1    3    3    0    0  0.14795067793E+02  0.18415258523E+02  0.26876357022E+02  0.35826136734E+02  0.17770000000E+01 0. -1.
</event>
<event>
 7    1  0.2288857E-006  0.3243812E+03  0.7546771E-02  0.9910702E-01
        -11   -1    0    0    0    0  0.00000000000E+00  0.00000000000E+00  0.50000000000E+03  0.50000000000E+03  0.00000000000E+00 0.  1.
         11   -1    0    0    0    0 -0.00000000000E+00 -0.00000000000E+00 -0.50000000000E+03  0.50000000000E+03  0.00000000000E+00 0.  1.
         23    2    1    2    0    0  0.13361374051E+03 -0.23352497936E+03  0.73620442265E+02  0.29381362967E+03  0.92303476772E+02 0.  0.
        -11    1    1    2    0    0 -0.30775503056E+02  0.17333075682E+03  0.28127375819E+03  0.33182165374E+03  0.00000000000E+00 0.  1.
         11    1    1    2    0    0 -0.10283823746E+03  0.60194222544E+02 -0.35489420045E+03  0.37436471659E+03  0.00000000000E+00 0.  1.
        -15    1    3    3    0    0  0.78377993177E+02 -0.19369567982E+03  0.83410402351E+02  0.22499239797E+03  0.17770000000E+01 0.  1.
         15    1    3    3    0    0  0.55235747338E+02 -0.39829299541E+02 -0.97899600863E+01  0.68821231705E+02  0.17770000000E+01 0. -1.
</event>
<event>
 7    1  0.2288857E-006  0.5149867E+03  0.7546771E-02  0.9366886E-01
        -11   -1    0    0    0    0  0.00000000000E+00  0.00000000000E+00  0.50000000000E+03  0.50000000000E+03  0.00000000000E+00 0.  1.
         11   -1    0    0    0    0 -0.00000000000E+00 -0.00000000000E+00 -0.50000000000E+03  0.50000000000E+03  0.00000000000E+00 0. -1.
         23    2    1    2    0    0  0.50125783453E+02 -0.46050293442E+02  0.21505304386E+03  0.24231332210E+03  0.88513901189E+02 0.  0.
        -11    1    1    2    0    0  0.10384858330E+03  0.61024674148E+02  0.24462676346E+03  0.27267341731E+03  0.00000000000E+00 0.  1.
         11    1    1    2    0    0 -0.15397436675E+03 -0.14974380706E+02 -0.45967980731E+03  0.48501326059E+03  0.00000000000E+00 0. -1.
        -15    1    3    3    0    0  0.32276484089E+02 -0.57208195437E+02  0.21074822809E+03  0.22075443919E+03  0.17770000000E+01 0.  1.
         15    1    3    3    0    0  0.17849299364E+02  0.11157901995E+02  0.43048157693E+01  0.21558882915E+02  0.17770000000E+01 0. -1.
</event>
<event>
 7    1  0.2288857E-006  0.3700723E+03  0.7546771E-02  0.9749210E-01
        -11   -1    0    0    0    0  0.00000000000E+00  0.00000000000E+00  0.50000000000E+03  0.50000000000E+03  0.00000000000E+00 0. -1.
         11   -1    0    0    0    0 -0.00000000000E+00 -0.00000000000E+00 -0.50000000000E+03  0.50000000000E+03  0.00000000000E+00 0.  1.
         23    2    1    2    0    0 -0.19569067150E+03 -0.10908887557E+03 -0.19223608003E+03  0.31029132606E+03  0.95555088168E+02 0.  0.
        -11    1    1    2    0    0  0.16749721344E+03  0.53163606874E+02  0.41905045480E+03  0.45440617213E+03  0.00000000000E+00 0. -1.
         11    1    1    2    0    0  0.28193458064E+02  0.55925268700E+02 -0.22681437477E+03  0.23530250181E+03  0.00000000000E+00 0.  1.
        -15    1    3    3    0    0  0.60246675845E+01 -0.23464408541E+02 -0.16163955782E+02  0.29177153446E+02  0.17770000000E+01 0. -1.
         15    1    3    3    0    0 -0.20171533908E+03 -0.85624467034E+02 -0.17607212425E+03  0.28111417261E+03  0.17770000000E+01 0.  1.
</event>
<event>
 7    1  0.2288857E-006  0.5093106E+03  0.7546771E-02  0.9379214E-01
        -11   -1    0    0    0    0  0.00000000000E+00  0.00000000000E+00  0.50000000000E+03  0.50000000000E+03  0.00000000000E+00 0.  1.
         11   -1    0    0    0    0 -0.00000000000E+00 -0.00000000000E+00 -0.50000000000E+03  0.50000000000E+03  0.00000000000E+00 0. -1.
         23    2    1    2    0    0 -0.44608423315E+02  0.21417890827E+02  0.22209937190E+03  0.24489865626E+03  0.90546028977E+02 0.  0.
        -11    1    1    2    0    0 -0.87610390713E+02  0.32190764488E+02  0.24739009950E+03  0.26441196495E+03  0.00000000000E+00 0.  1.
         11    1    1    2    0    0  0.13221881403E+03 -0.53608655315E+02 -0.46948947139E+03  0.49068937879E+03  0.00000000000E+00 0. -1.
        -15    1    3    3    0    0 -0.76128403669E+01  0.41255058288E+02  0.18213224840E+03  0.18690973438E+03  0.17770000000E+01 0.  1.
         15    1    3    3    0    0 -0.36995582948E+02 -0.19837167461E+02  0.39967123502E+02  0.57988921878E+02  0.17770000000E+01 0. -1.
</event>
<event>
 7    1  0.2288857E-006  0.4257828E+03  0.7546771E-02  0.9583146E-01
        -11   -1    0    0    0    0  0.00000000000E+00  0.00000000000E+00  0.50000000000E+03  0.50000000000E+03  0.00000000000E+00 0. -1.
         11   -1    0    0    0    0 -0.00000000000E+00 -0.00000000000E+00 -0.50000000000E+03  0.50000000000E+03  0.00000000000E+00 0.  1.
         23    2    1    2    0    0 -0.86384557055E+02  0.65117290040E+02  0.19453807518E+02  0.14137033392E+03  0.88907634806E+02 0.  0.
        -11    1    1    2    0    0  0.16612621869E+03 -0.12939414872E+03  0.38639982995E+03  0.44005180927E+03  0.00000000000E+00 0. -1.
         11    1    1    2    0    0 -0.79741661635E+02  0.64276858683E+02 -0.40585363747E+03  0.41857785680E+03  0.00000000000E+00 0.  1.
        -15    1    3    3    0    0  0.13044449179E+02  0.21347694394E+02  0.20995078597E+02  0.32708298100E+02  0.17770000000E+01 0.  1.
         15    1    3    3    0    0 -0.99429006234E+02  0.43769595646E+02 -0.15412710783E+01  0.10866203582E+03  0.17770000000E+01 0. -1.
</event>
<event>
 7    1  0.2288857E-006  0.4171788E+03  0.7546771E-02  0.9606962E-01
        -11   -1    0    0    0    0  0.00000000000E+00  0.00000000000E+00  0.50000000000E+03  0.50000000000E+03  0.00000000000E+00 0.  1.
         11   -1    0    0    0    0 -0.00000000000E+00 -0.00000000000E+00 -0.50000000000E+03  0.50000000000E+03  0.00000000000E+00 0.  1.
         23    2    1    2    0    0 -0.54970946747E+02 -0.10843780946E+03  0.34444967570E+03  0.37622155580E+03  0.90091711340E+02 0.  0.
        -11    1    1    2    0    0 -0.50398894185E+02  0.10777792219E+03  0.10710866201E+03  0.16008870830E+03  0.00000000000E+00 0.  1.
         11    1    1    2    0    0  0.10536984093E+03  0.65988727477E+00 -0.45155833771E+03  0.46368973590E+03  0.00000000000E+00 0.  1.
        -15    1    3    3    0    0 -0.41345721006E+02 -0.95994684915E+02  0.34188278158E+03  0.35750726181E+03  0.17770000000E+01 0.  1.
         15    1    3    3    0    0 -0.13625225741E+02 -0.12443124549E+02  0.25668941165E+01  0.18714293988E+02  0.17770000000E+01 0. -1.
</event>
<event>
 7    1  0.2288857E-006  0.5244848E+03  0.7546771E-02  0.9346631E-01
        -11   -1    0    0    0    0  0.00000000000E+00  0.00000000000E+00  0.50000000000E+03  0.50000000000E+03  0.00000000000E+00 0.  1.
         11   -1    0    0    0    0 -0.00000000000E+00 -0.00000000000E+00 -0.50000000000E+03  0.50000000000E+03  0.00000000000E+00 0. -1.
         23    2    1    2    0    0  0.43443346583E+02  0.13712963959E+03 -0.60106201154E+02  0.18215724313E+03  0.94215940218E+02 0.  0.
        -11    1    1    2    0    0 -0.12208979296E+03 -0.29130336913E+03  0.35545909317E+03  0.47551523354E+03  0.00000000000E+00 0.  1.
         11    1    1    2    0    0  0.78646446373E+02  0.15417372954E+03 -0.29535289202E+03  0.34232752333E+03  0.00000000000E+00 0. -1.
        -15    1    3    3    0    0  0.71149229130E+02  0.10330708074E+03 -0.58371087607E+02  0.13836512326E+03  0.17770000000E+01 0.  1.
         15    1    3    3    0    0 -0.27705882547E+02  0.33822558852E+02 -0.17351135465E+01  0.43792119873E+02  0.17770000000E+01 0. -1.
</event>
<event>
 7    1  0.2288857E-006  0.4505173E+03  0.7546771E-02  0.9517892E-01
        -11   -1    0    0    0    0  0.00000000000E+00  0.00000000000E+00  0.50000000000E+03  0.50000000000E+03  0.00000000000E+00 0. -1.
         11   -1    0    0    0    0 -0.00000000000E+00 -0.00000000000E+00 -0.50000000000E+03  0.50000000000E+03  0.00000000000E+00 0.  1.
         23    2    1    2    0    0  0.55346199564E+02  0.55202531629E+02  0.37889051159E+03  0.40573550670E+03  0.12228147987E+03 0.  0.
        -11    1    1    2    0    0  0.50726073153E+02 -0.24598161309E+02  0.93480518321E+02  0.10916414862E+03  0.00000000000E+00 0. -1.
         11    1    1    2    0    0 -0.10607227272E+03 -0.30604370320E+02 -0.47237102991E+03  0.48510034469E+03  0.00000000000E+00 0.  1.
        -15    1    3    3    0    0  0.66158300890E+02 -0.97532806431E+00  0.30590418597E+03  0.31298306786E+03  0.17770000000E+01 0. -1.
         15    1    3    3    0    0 -0.10812101326E+02  0.56177859693E+02  0.72986325612E+02  0.92752438836E+02  0.17770000000E+01 0.  1.
</event>
<event>
 7    1  0.2288857E-006  0.4292059E+03  0.7546771E-02  0.9573837E-01
        -11   -1    0    0    0    0  0.00000000000E+00  0.00000000000E+00  0.50000000000E+03  0.50000000000E+03  0.00000000000E+00 0.  1.
         11   -1    0    0    0    0 -0.00000000000E+00 -0.00000000000E+00 -0.50000000000E+03  0.50000000000E+03  0.00000000000E+00 0. -1.
         23    2    1    2    0    0 -0.33598374361E+02  0.21853843408E+02  0.91202085438E+02  0.13582690959E+03  0.92329235612E+02 0.  0.
        -11    1    1    2    0    0  0.12567077602E+03 -0.28625602846E+03  0.26589299530E+03  0.41040801981E+03  0.00000000000E+00 0.  1.
         11    1    1    2    0    0 -0.92072401663E+02  0.26440218505E+03 -0.35709508074E+03  0.45376507060E+03  0.00000000000E+00 0. -1.
        -15    1    3    3    0    0 -0.64317408902E+02  0.57189775870E+01  0.69393777085E+02  0.94805536861E+02  0.17770000000E+01 0.  1.
         15    1    3    3    0    0  0.30719034541E+02  0.16134865821E+02  0.21808308353E+02  0.41021372727E+02  0.17770000000E+01 0. -1.
</event>
<event>
 7    1  0.2288857E-006  0.4809985E+03  0.7546771E-02  0.9443360E-01
        -11   -1    0    0    0    0  0.00000000000E+00  0.00000000000E+00  0.50000000000E+03  0.50000000000E+03  0.00000000000E+00 0. -1.
         11   -1    0    0    0    0 -0.00000000000E+00 -0.00000000000E+00 -0.50000000000E+03  0.50000000000E+03  0.00000000000E+00 0.  1.
         23    2    1    2    0    0 -0.12189986997E+02 -0.97377281663E+02  0.44949274450E+03  0.46945683707E+03  0.93354505767E+02 0.  0.
        -11    1    1    2    0    0  0.37672709255E+02  0.63198858773E+01  0.25696336965E+02  0.46037763994E+02  0.00000000000E+00 0. -1.
         11    1    1    2    0    0 -0.25482722258E+02  0.91057395786E+02 -0.47518908146E+03  0.48450539894E+03  0.00000000000E+00 0.  1.
        -15    1    3    3    0    0 -0.42703367987E+02 -0.12370071456E+02  0.17010142617E+03  0.17582448413E+03  0.17770000000E+01 0. -1.
         15    1    3    3    0    0  0.30513380990E+02 -0.85007210207E+02  0.27939131833E+03  0.29363235294E+03  0.17770000000E+01 0.  1.
</event>
<event>
 7    1  0.2288857E-006  0.5186333E+03  0.7546771E-02  0.9359055E-01
        -11   -1    0    0    0    0  0.00000000000E+00  0.00000000000E+00  0.50000000000E+03  0.50000000000E+03  0.00000000000E+00 0.  1.
         11   -1    0    0    0    0 -0.00000000000E+00 -0.00000000000E+00 -0.50000000000E+03  0.50000000000E+03  0.00000000000E+00 0. -1.
         23    2    1    2    0    0  0.27649729652E+02  0.72372998531E+02 -0.27095050590E+03  0.29591029044E+03  0.90257215088E+02 0.  0.
        -11    1    1    2    0    0  0.75456834989E+02 -0.16123976308E+03  0.44723803666E+03  0.48136665504E+03  0.00000000000E+00 0.  1.
         11    1    1    2    0    0 -0.10310656464E+03  0.88866764548E+02 -0.17628753077E+03  0.22272305452E+03  0.00000000000E+00 0. -1.
        -15    1    3    3    0    0  0.20013376921E+02  0.90087661960E+02 -0.17320642240E+03  0.19626498562E+03  0.17770000000E+01 0. -1.
         15    1    3    3    0    0  0.76363527304E+01 -0.17714663429E+02 -0.97744083502E+02  0.99645304817E+02  0.17770000000E+01 0.  1.
</event>
<event>
 7    1  0.2288857E-006  0.5181313E+03  0.7546771E-02  0.9360129E-01
        -11   -1    0    0    0    0  0.00000000000E+00  0.00000000000E+00  0.50000000000E+03  0.50000000000E+03  0.00000000000E+00 0.  1.
         11   -1    0    0    0    0 -0.00000000000E+00 -0.00000000000E+00 -0.50000000000E+03  0.50000000000E+03  0.00000000000E+00 0. -1.
         23    2    1    2    0    0  0.55031610432E+02  0.58537086579E+02  0.21309365635E+03  0.24503715538E+03  0.90439109275E+02 0.  0.
        -11    1    1    2    0    0 -0.81319502375E+02  0.44840875934E+02  0.25682061329E+03  0.27309411021E+03  0.00000000000E+00 0.  1.
         11    1    1    2    0    0  0.26287891943E+02 -0.10337796251E+03 -0.46991426964E+03  0.48186873441E+03  0.00000000000E+00 0. -1.
        -15    1    3    3    0    0  0.74771703648E+02  0.64785591807E+02  0.18804501153E+03  0.21249015192E+03  0.17770000000E+01 0.  1.
         15    1    3    3    0    0 -0.19740093216E+02 -0.62485052277E+01  0.25048644818E+02  0.32547003456E+02  0.17770000000E+01 0. -1.
</event>
<event>
 7    1  0.2288857E-006  0.5229680E+03  0.7546771E-02  0.9349835E-01
        -11   -1    0    0    0    0  0.00000000000E+00  0.00000000000E+00  0.50000000000E+03  0.50000000000E+03  0.00000000000E+00 0.  1.
         11   -1    0    0    0    0 -0.00000000000E+00 -0.00000000000E+00 -0.50000000000E+03  0.50000000000E+03  0.00000000000E+00 0. -1.
         23    2    1    2    0    0 -0.33758261086E+02  0.13696255371E+03  0.12575447891E+03  0.20976256789E+03  0.91037270452E+02 0.  0.
        -11    1    1    2    0    0 -0.31332373384E+01  0.59073221151E+02  0.30756817256E+03  0.31320543323E+03  0.00000000000E+00 0.  1.
         11    1    1    2    0    0  0.36891498425E+02 -0.19603577486E+03 -0.43332265147E+03  0.47703199888E+03  0.00000000000E+00 0. -1.
        -15    1    3    3    0    0  0.28073628469E+02  0.42965386994E+02  0.61728806549E+02  0.80297922650E+02  0.17770000000E+01 0.  1.
         15    1    3    3    0    0 -0.61831889555E+02  0.93997166714E+02  0.64025672356E+02  0.12946464523E+03  0.17770000000E+01 0. -1.
</event>
<event>
 7    1  0.2288857E-006  0.3916477E+03  0.7546771E-02  0.9681406E-01
        -11   -1    0    0    0    0  0.00000000000E+00  0.00000000000E+00  0.50000000000E+03  0.50000000000E+03  0.00000000000E+00 0.  1.
         11   -1    0    0    0    0 -0.00000000000E+00 -0.00000000000E+00 -0.50000000000E+03  0.50000000000E+03  0.00000000000E+00 0.  1.
         23    2    1    2    0    0  0.10511677859E+03  0.11849347434E+03 -0.78874330318E+02  0.19696631276E+03  0.86512009429E+02 0.  0.
        -11    1    1    2    0    0 -0.15706154105E+03 -0.36429275561E+02  0.41919142667E+03  0.44912901486E+03  0.00000000000E+00 0.  1.
         11    1    1    2    0    0  0.51944762462E+02 -0.82064198784E+02 -0.34031709635E+03  0.35390467239E+03  0.00000000000E+00 0.  1.
        -15    1    3    3    0    0  0.68018425024E+02  0.56533856485E+02  0.20534841323E+01  0.88487047628E+02  0.17770000000E+01 0.  1.
         15    1    3    3    0    0  0.37098353563E+02  0.61959617860E+02 -0.80927814450E+02  0.10847926513E+03  0.17770000000E+01 0. -1.
</event>
<event>
 7    1  0.2288857E-006  0.4719095E+03  0.7546771E-02  0.9464955E-01
        -11   -1    0    0    0    0  0.00000000000E+00  0.00000000000E+00  0.50000000000E+03  0.50000000000E+03  0.00000000000E+00 0.  1.
         11   -1    0    0    0    0 -0.00000000000E+00 -0.00000000000E+00 -0.50000000000E+03  0.50000000000E+03  0.00000000000E+00 0. -1.
         23    2    1    2    0    0  0.21929509889E+02  0.10042320572E+03  0.44779737656E+03  0.46306612368E+03  0.57810213520E+02 0.  0.
        -11    1    1    2    0    0  0.31385858395E+02 -0.42040068179E+02  0.24614899252E+02  0.57951123413E+02  0.00000000000E+00 0.  1.
         11    1    1    2    0    0 -0.53315368284E+02 -0.58383137539E+02 -0.47241227582E+03  0.47898275291E+03  0.00000000000E+00 0. -1.
        -15    1    3    3    0    0  0.17493035631E+02  0.30746803468E+02  0.65707739798E+02  0.74646078379E+02  0.17770000000E+01 0. -1.
         15    1    3    3    0    0  0.44364742574E+01  0.69676402250E+02  0.38208963677E+03  0.38842004530E+03  0.17770000000E+01 0.  1.
</event>
<event>
 7    1  0.2288857E-006  0.3758258E+03  0.7546771E-02  0.9730655E-01
        -11   -1    0    0    0    0  0.00000000000E+00  0.00000000000E+00  0.50000000000E+03  0.50000000000E+03  0.00000000000E+00 0. -1.
         11   -1    0    0    0    0 -0.00000000000E+00 -0.00000000000E+00 -0.50000000000E+03  0.50000000000E+03  0.00000000000E+00 0.  1.
         23    2    1    2    0    0  0.20568494024E+03  0.29968433758E+03 -0.98609921827E+02  0.38771143927E+03  0.92082824817E+02 0.  0.
        -11    1    1    2    0    0 -0.30947738809E+03 -0.12363670981E+03  0.19522854542E+03  0.38623370477E+03  0.00000000000E+00 0. -1.
         11    1    1    2    0    0  0.10379244785E+03 -0.17604762777E+03 -0.96618623596E+02  0.22605485595E+03  0.00000000000E+00 0.  1.
        -15    1    3    3    0    0  0.11047865283E+02  0.55702499800E+02 -0.41645203657E+02  0.70443626595E+02  0.17770000000E+01 0.  1.
         15    1    3    3    0    0  0.19463707496E+03  0.24398183778E+03 -0.56964718170E+02  0.31726781268E+03  0.17770000000E+01 0. -1.
</event>
<event>
 7    1  0.2288857E-006  0.4876232E+03  0.7546771E-02  0.9427938E-01
        -11   -1    0    0    0    0  0.00000000000E+00  0.00000000000E+00  0.50000000000E+03  0.50000000000E+03  0.00000000000E+00 0.  1.
         11   -1    0    0    0    0 -0.00000000000E+00 -0.00000000000E+00 -0.50000000000E+03  0.50000000000E+03  0.00000000000E+00 0. -1.
         23    2    1    2    0    0  0.13493848358E+03 -0.69260071629E+02  0.45869467572E+03  0.49322341704E+03  0.99313552513E+02 0.  0.
        -11    1    1    2    0    0 -0.19076886584E+02  0.28468702535E+02 -0.25290331529E+01  0.34362634277E+02  0.00000000000E+00 0.  1.
         11    1    1    2    0    0 -0.11586159700E+03  0.40791369095E+02 -0.45616564256E+03  0.47241394868E+03  0.00000000000E+00 0. -1.
        -15    1    3    3    0    0  0.11650726597E+03 -0.61568268851E+02  0.45384873382E+03  0.47259541436E+03  0.17770000000E+01 0.  1.
         15    1    3    3    0    0  0.18431217615E+02 -0.76918027782E+01  0.48459418935E+01  0.20628002680E+02  0.17770000000E+01 0. -1.
</event>
<event>
 7    1  0.2288857E-006  0.5326232E+03  0.7546771E-02  0.9329633E-01
        -11   -1    0    0    0    0  0.00000000000E+00  0.00000000000E+00  0.50000000000E+03  0.50000000000E+03  0.00000000000E+00 0. -1.
         11   -1    0    0    0    0 -0.00000000000E+00 -0.00000000000E+00 -0.50000000000E+03  0.50000000000E+03  0.00000000000E+00 0. -1.
         23    2    1    2    0    0 -0.12012092152E+02  0.59404852685E+02  0.12932003413E+03  0.16915391528E+03  0.90642975172E+02 0.  0.
        -11    1    1    2    0    0 -0.16039629775E+03 -0.12931892959E+03  0.29943211510E+03  0.36346932393E+03  0.00000000000E+00 0. -1.
         11    1    1    2    0    0  0.17240838990E+03  0.69914076908E+02 -0.42875214923E+03  0.46737676079E+03  0.00000000000E+00 0. -1.
        -15    1    3    3    0    0 -0.30224112437E+02  0.63672631501E+02  0.47041211341E+02  0.84756912805E+02  0.17770000000E+01 0.  1.
         15    1    3    3    0    0  0.18212020285E+02 -0.42677788163E+01  0.82278822785E+02  0.84397002475E+02  0.17770000000E+01 0. -1.
</event>
<event>
 6    1  0.2288857E-006  0.5133831E+03  0.7546771E-02  0.9370352E-01
        -11   -1    0    0    0    0  0.00000000000E+00  0.00000000000E+00  0.50000000000E+03  0.50000000000E+03  0.00000000000E+00 0.  1.
         11   -1    0    0    0    0 -0.00000000000E+00 -0.00000000000E+00 -0.50000000000E+03  0.50000000000E+03  0.00000000000E+00 0.  1.
        -11    1    1    2    0    0  0.31755811071E+03 -0.62844261440E+02  0.36332280417E+03  0.48661690774E+03  0.00000000000E+00 0.  1.
         11    1    1    2    0    0  0.16942349525E-01  0.14955225484E+02 -0.81997494615E+02  0.83350154046E+02  0.00000000000E+00 0.  1.
        -15    1    1    2    0    0 -0.30591933518E+03  0.55741338199E+02 -0.27134361983E+03  0.41270359118E+03  0.17770000000E+01 0.  1.
         15    1    1    2    0    0 -0.11655717875E+02 -0.78523022435E+01 -0.99816897210E+01  0.17329347027E+02  0.17770000000E+01 0. -1.
</event>
<event>
 7    1  0.2288857E-006  0.5286171E+03  0.7546771E-02  0.9337959E-01
        -11   -1    0    0    0    0  0.00000000000E+00  0.00000000000E+00  0.50000000000E+03  0.50000000000E+03  0.00000000000E+00 0.  1.
         11   -1    0    0    0    0 -0.00000000000E+00 -0.00000000000E+00 -0.50000000000E+03  0.50000000000E+03  0.00000000000E+00 0. -1.
         23    2    1    2    0    0  0.62696970517E+01  0.28576142309E+02  0.23256891312E+03  0.25172361308E+03  0.91763680291E+02 0.  0.
        -11    1    1    2    0    0  0.14826600424E+03 -0.11314418824E+03  0.20465965693E+03  0.27689346420E+03  0.00000000000E+00 0.  1.
         11    1    1    2    0    0 -0.15453570129E+03  0.84568045930E+02 -0.43722857005E+03  0.47138292272E+03  0.00000000000E+00 0. -1.
        -15    1    3    3    0    0  0.41675641373E+02  0.28692517795E+02  0.18841805667E+03  0.19510161831E+03  0.17770000000E+01 0.  1.
         15    1    3    3    0    0 -0.35405944321E+02 -0.11637548673E+00  0.44150856453E+02  0.56621994764E+02  0.17770000000E+01 0. -1.
</event>
<event>
 7    1  0.2288857E-006  0.5096887E+03  0.7546771E-02  0.9378388E-01
        -11   -1    0    0    0    0  0.00000000000E+00  0.00000000000E+00  0.50000000000E+03  0.50000000000E+03  0.00000000000E+00 0.  1.
         11   -1    0    0    0    0 -0.00000000000E+00 -0.00000000000E+00 -0.50000000000E+03  0.50000000000E+03  0.00000000000E+00 0. -1.
         23    2    1    2    0    0 -0.29596842358E+03  0.91513776104E+02 -0.25916858550E+03  0.41388677770E+03  0.90342847359E+02 0.  0.
        -11    1    1    2    0    0  0.37119924425E+03 -0.67106812093E+02  0.31322992530E+03  0.49031131872E+03  0.00000000000E+00 0.  1.
         11    1    1    2    0    0 -0.75230820667E+02 -0.24406964012E+02 -0.54061339797E+02  0.95801903588E+02  0.00000000000E+00 0. -1.
        -15    1    3    3    0    0 -0.24440306052E+03  0.43401024673E+02 -0.17323653498E+03  0.30270540086E+03  0.17770000000E+01 0.  1.
         15    1    3    3    0    0 -0.51565363062E+02  0.48112751431E+02 -0.85932050524E+02  0.11118137683E+03  0.17770000000E+01 0. -1.
</event>
<event>
 7    1  0.2288857E-006  0.5359273E+03  0.7546771E-02  0.9322824E-01
        -11   -1    0    0    0    0  0.00000000000E+00  0.00000000000E+00  0.50000000000E+03  0.50000000000E+03  0.00000000000E+00 0.  1.
         11   -1    0    0    0    0 -0.00000000000E+00 -0.00000000000E+00 -0.50000000000E+03  0.50000000000E+03  0.00000000000E+00 0. -1.
         23    2    1    2    0    0  0.98086038861E+02  0.11331291632E+03  0.58287731771E+02  0.18635157030E+03  0.94174094396E+02 0.  0.
        -11    1    1    2    0    0  0.11116283835E+03  0.31011408150E+02  0.32997620346E+03  0.34957571271E+03  0.00000000000E+00 0.  1.
         11    1    1    2    0    0 -0.20924887721E+03 -0.14432432447E+03 -0.38826393523E+03  0.46407271699E+03  0.00000000000E+00 0. -1.
        -15    1    3    3    0    0  0.61149022503E+02  0.12028043342E+03  0.27467240268E+02  0.13771053929E+03  0.17770000000E+01 0.  1.
         15    1    3    3    0    0  0.36937016358E+02 -0.69675170992E+01  0.30820491503E+02  0.48641031008E+02  0.17770000000E+01 0. -1.
</event>
<event>
 7    1  0.2288857E-006  0.4009110E+03  0.7546771E-02  0.9653713E-01
        -11   -1    0    0    0    0  0.00000000000E+00  0.00000000000E+00  0.50000000000E+03  0.50000000000E+03  0.00000000000E+00 0. -1.
         11   -1    0    0    0    0 -0.00000000000E+00 -0.00000000000E+00 -0.50000000000E+03  0.50000000000E+03  0.00000000000E+00 0. -1.
         23    2    1    2    0    0  0.17606710936E+03  0.43341046850E+02  0.36934467042E+03  0.42149726675E+03  0.91467955987E+02 0.  0.
        -11    1    1    2    0    0 -0.15426336008E+03 -0.10428565146E+03  0.16807730957E+02  0.18696304764E+03  0.00000000000E+00 0. -1.
         11    1    1    2    0    0 -0.21803749286E+02  0.60944604615E+02 -0.38615240138E+03  0.39153968560E+03  0.00000000000E+00 0. -1.
        -15    1    3    3    0    0  0.91019066741E+02 -0.24475067915E+02  0.17495047367E+03  0.19873179269E+03  0.17770000000E+01 0.  1.
         15    1    3    3    0    0  0.85048042621E+02  0.67816114765E+02  0.19439419675E+03  0.22276547406E+03  0.17770000000E+01 0. -1.
</event>
<event>
 7    1  0.2288857E-006  0.5279473E+03  0.7546771E-02  0.9339359E-01
        -11   -1    0    0    0    0  0.00000000000E+00  0.00000000000E+00  0.50000000000E+03  0.50000000000E+03  0.00000000000E+00 0.  1.
         11   -1    0    0    0    0 -0.00000000000E+00 -0.00000000000E+00 -0.50000000000E+03  0.50000000000E+03  0.00000000000E+00 0. -1.
         23    2    1    2    0    0 -0.29444195512E+02 -0.12195844091E+02  0.58746562376E+02  0.11314992762E+03  0.91301962005E+02 0.  0.
        -11    1    1    2    0    0  0.19045777787E+02 -0.20207295709E+03  0.36174662798E+03  0.41479735352E+03  0.00000000000E+00 0.  1.
         11    1    1    2    0    0  0.10398417725E+02  0.21426880118E+03 -0.42049319035E+03  0.47205271886E+03  0.00000000000E+00 0. -1.
        -15    1    3    3    0    0 -0.23630236266E+02 -0.21301430871E+02  0.81713789747E+02  0.87706557264E+02  0.17770000000E+01 0.  1.
         15    1    3    3    0    0 -0.58139592459E+01  0.91055867799E+01 -0.22967227371E+02  0.25443370352E+02  0.17770000000E+01 0. -1.
</event>
<event>
 7    1  0.2288857E-006  0.5211988E+03  0.7546771E-02  0.9353586E-01
        -11   -1    0    0    0    0  0.00000000000E+00  0.00000000000E+00  0.50000000000E+03  0.50000000000E+03  0.00000000000E+00 0.  1.
         11   -1    0    0    0    0 -0.00000000000E+00 -0.00000000000E+00 -0.50000000000E+03  0.50000000000E+03  0.00000000000E+00 0. -1.
         23    2    1    2    0    0 -0.12317073405E+03  0.72729322211E+02  0.44746310576E+03  0.47880120785E+03  0.92556909986E+02 0.  0.
        -11    1    1    2    0    0  0.14879231760E+03 -0.24273178638E+02 -0.13009100378E+03  0.19912812519E+03  0.00000000000E+00 0.  1.
         11    1    1    2    0    0 -0.25621583553E+02 -0.48456143573E+02 -0.31737210199E+03  0.32207066696E+03  0.00000000000E+00 0. -1.
        -15    1    3    3    0    0 -0.87491821847E+02  0.91950293190E+02  0.37296961990E+03  0.39397864207E+03  0.17770000000E+01 0.  1.
         15    1    3    3    0    0 -0.35678912203E+02 -0.19220970979E+02  0.74493485863E+02  0.84822565785E+02  0.17770000000E+01 0. -1.
</event>
<event>
 7    1  0.2288857E-006  0.4179645E+03  0.7546771E-02  0.9604762E-01
        -11   -1    0    0    0    0  0.00000000000E+00  0.00000000000E+00  0.50000000000E+03  0.50000000000E+03  0.00000000000E+00 0.  1.
         11   -1    0    0    0    0 -0.00000000000E+00 -0.00000000000E+00 -0.50000000000E+03  0.50000000000E+03  0.00000000000E+00 0. -1.
         23    2    1    2    0    0 -0.10659790797E+03 -0.58202188196E+02  0.30517324297E+02  0.15474314085E+03  0.90903926562E+02 0.  0.
        -11    1    1    2    0    0  0.18874550106E+03 -0.41095085453E+01  0.37875393075E+03  0.42319769883E+03  0.00000000000E+00 0.  1.
         11    1    1    2    0    0 -0.82147593096E+02  0.62311696742E+02 -0.40927125505E+03  0.42205916032E+03  0.00000000000E+00 0. -1.
        -15    1    3    3    0    0 -0.69623327476E+01 -0.34839929592E+02 -0.19776336790E+02  0.40700810767E+02  0.17770000000E+01 0. -1.
         15    1    3    3    0    0 -0.99635575218E+02 -0.23362258604E+02  0.50293661087E+02  0.11404233008E+03  0.17770000000E+01 0.  1.
</event>
<event>
 7    1  0.2288857E-006  0.5207177E+03  0.7546771E-02  0.9354609E-01
        -11   -1    0    0    0    0  0.00000000000E+00  0.00000000000E+00  0.50000000000E+03  0.50000000000E+03  0.00000000000E+00 0. -1.
         11   -1    0    0    0    0 -0.00000000000E+00 -0.00000000000E+00 -0.50000000000E+03  0.50000000000E+03  0.00000000000E+00 0. -1.
         23    2    1    2    0    0 -0.31225373720E+02 -0.15021153726E+02  0.46930123243E+03  0.47928234986E+03  0.90924502194E+02 0.  0.
        -11    1    1    2    0    0  0.10240500445E+03  0.49766548305E+02 -0.13236536835E+03  0.17459692152E+03  0.00000000000E+00 0. -1.
         11    1    1    2    0    0 -0.71179630733E+02 -0.34745394579E+02 -0.33693586408E+03  0.34612072862E+03  0.00000000000E+00 0. -1.
        -15    1    3    3    0    0 -0.53224909234E+02  0.19098543497E+02  0.28330523285E+03  0.28889904468E+03  0.17770000000E+01 0.  1.
         15    1    3    3    0    0  0.21999535514E+02 -0.34119697223E+02  0.18599599958E+03  0.19038330518E+03  0.17770000000E+01 0. -1.
</event>
<event>
 7    1  0.2288857E-006  0.5243958E+03  0.7546771E-02  0.9346818E-01
        -11   -1    0    0    0    0  0.00000000000E+00  0.00000000000E+00  0.50000000000E+03  0.50000000000E+03  0.00000000000E+00 0.  1.
         11   -1    0    0    0    0 -0.00000000000E+00 -0.00000000000E+00 -0.50000000000E+03  0.50000000000E+03  0.00000000000E+00 0. -1.
         23    2    1    2    0    0  0.28811344955E+01 -0.26796459938E+02  0.31481806235E+03  0.32869727337E+03  0.90582194365E+02 0.  0.
        -11    1    1    2    0    0 -0.13454522630E+03 -0.32591914745E+02  0.13832309202E+03  0.19569856569E+03  0.00000000000E+00 0.  1.
         11    1    1    2    0    0  0.13166409181E+03  0.59388374683E+02 -0.45314115437E+03  0.47560416094E+03  0.00000000000E+00 0. -1.
        -15    1    3    3    0    0 -0.38137521506E+02 -0.71493669767E+01  0.73582411522E+02  0.83205246284E+02  0.17770000000E+01 0.  1.
         15    1    3    3    0    0  0.41018656001E+02 -0.19647092961E+02  0.24123565083E+03  0.24549202708E+03  0.17770000000E+01 0. -1.
</event>
<event>
 7    1  0.2288857E-006  0.5247946E+03  0.7546771E-02  0.9345977E-01
        -11   -1    0    0    0    0  0.00000000000E+00  0.00000000000E+00  0.50000000000E+03  0.50000000000E+03  0.00000000000E+00 0. -1.
         11   -1    0    0    0    0 -0.00000000000E+00 -0.00000000000E+00 -0.50000000000E+03  0.50000000000E+03  0.00000000000E+00 0. -1.
         23    2    1    2    0    0 -0.33846614457E+02 -0.61470561801E+02  0.41337371515E+03  0.42885835464E+03  0.90096818410E+02 0.  0.
        -11    1    1    2    0    0 -0.66087776373E+02  0.47290121094E+02  0.50988409418E+02  0.95936268605E+02  0.00000000000E+00 0. -1.
         11    1    1    2    0    0  0.99934390829E+02  0.14180440707E+02 -0.46436212457E+03  0.47520537676E+03  0.00000000000E+00 0. -1.
        -15    1    3    3    0    0 -0.58078839528E+02 -0.63433951864E+02  0.36072064416E+03  0.37083629637E+03  0.17770000000E+01 0. -1.
         15    1    3    3    0    0  0.24232225071E+02  0.19633900632E+01  0.52653070987E+02  0.58022058270E+02  0.17770000000E+01 0.  1.
</event>
<event>
 7    1  0.3883192E-006  0.5065228E+03  0.7546771E-02  0.9385332E-01
        -11   -1    0    0    0    0  0.00000000000E+00  0.00000000000E+00  0.50000000000E+03  0.50000000000E+03  0.00000000000E+00 0.  1.
         11   -1    0    0    0    0 -0.00000000000E+00 -0.00000000000E+00 -0.50000000000E+03  0.50000000000E+03  0.00000000000E+00 0. -1.
         23    2    1    2    0    0 -0.62344846389E+02  0.96406331615E+02 -0.32525674386E+03  0.35230774266E+03  0.71747720993E+02 0.  0.
        -11    1    1    2    0    0  0.46424628166E+02 -0.11605568314E+03  0.47738410191E+03  0.49347720155E+03  0.00000000000E+00 0.  1.
         11    1    1    2    0    0  0.15920218223E+02  0.19649351526E+02 -0.15212735805E+03  0.15421505579E+03  0.00000000000E+00 0. -1.
        -15    1    3    3    0    0 -0.30103571249E+02  0.18422778499E+00 -0.44386292264E+02  0.53661528228E+02  0.17770000000E+01 0. -1.
         15    1    3    3    0    0 -0.32241275140E+02  0.96222103830E+02 -0.28087045159E+03  0.29864621443E+03  0.17770000000E+01 0.  1.
</event>
<event>
 7    1  0.2288857E-006  0.5169295E+03  0.7546771E-02  0.9362706E-01
        -11   -1    0    0    0    0  0.00000000000E+00  0.00000000000E+00  0.50000000000E+03  0.50000000000E+03  0.00000000000E+00 0.  1.
         11   -1    0    0    0    0 -0.00000000000E+00 -0.00000000000E+00 -0.50000000000E+03  0.50000000000E+03  0.00000000000E+00 0.  1.
         23    2    1    2    0    0 -0.11225410584E+03 -0.31138189090E+02 -0.17662869913E+03  0.22487699595E+03  0.76166888170E+02 0.  0.
        -11    1    1    2    0    0  0.12626872468E+03  0.16288093055E+03  0.43690178129E+03  0.48307054854E+03  0.00000000000E+00 0.  1.
         11    1    1    2    0    0 -0.14014618836E+02 -0.13174274146E+03 -0.26027308216E+03  0.29205245551E+03  0.00000000000E+00 0.  1.
        -15    1    3    3    0    0 -0.85798050840E+02 -0.34985975777E+02 -0.73378414333E+02  0.11820690948E+03  0.17770000000E+01 0.  1.
         15    1    3    3    0    0 -0.26456055001E+02  0.38477866873E+01 -0.10325028480E+03  0.10667008648E+03  0.17770000000E+01 0. -1.
</event>
<event>
 7    1  0.2288857E-006  0.4389521E+03  0.7546771E-02  0.9547832E-01
        -11   -1    0    0    0    0  0.00000000000E+00  0.00000000000E+00  0.50000000000E+03  0.50000000000E+03  0.00000000000E+00 0. -1.
         11   -1    0    0    0    0 -0.00000000000E+00 -0.00000000000E+00 -0.50000000000E+03  0.50000000000E+03  0.00000000000E+00 0.  1.
         23    2    1    2    0    0 -0.27816922142E+03 -0.28037422889E+03 -0.13253392953E+03  0.42676633178E+03  0.92609046474E+02 0.  0.
        -11    1    1    2    0    0  0.27917511279E+03  0.24766827191E+03  0.25137897063E+03  0.44996633584E+03  0.00000000000E+00 0. -1.
         11    1    1    2    0    0 -0.10058913700E+01  0.32705956984E+02 -0.11884504110E+03  0.12326733239E+03  0.00000000000E+00 0.  1.
        -15    1    3    3    0    0 -0.19636724121E+01 -0.12713230693E+02  0.10199657486E+02  0.16512812777E+02  0.17770000000E+01 0. -1.
         15    1    3    3    0    0 -0.27620554901E+03 -0.26766099820E+03 -0.14273358701E+03  0.41025351900E+03  0.17770000000E+01 0.  1.
</event>
<event>
 7    1  0.3115602E-006  0.5092725E+03  0.7546771E-02  0.9379297E-01
        -11   -1    0    0    0    0  0.00000000000E+00  0.00000000000E+00  0.50000000000E+03  0.50000000000E+03  0.00000000000E+00 0.  1.
         11   -1    0    0    0    0 -0.00000000000E+00 -0.00000000000E+00 -0.50000000000E+03  0.50000000000E+03  0.00000000000E+00 0.  1.
         23    2    1    2    0    0  0.22471420823E+02 -0.45342909881E+02 -0.25220130574E+03  0.27240653068E+03  0.89659774199E+02 0.  0.
        -11    1    1    2    0    0  0.11821807799E+02  0.81675146548E+02  0.48373843329E+03  0.49072747686E+03  0.00000000000E+00 0.  1.
         11    1    1    2    0    0 -0.34293228623E+02 -0.36332236667E+02 -0.23153712755E+03  0.23686599246E+03  0.00000000000E+00 0.  1.
        -15    1    3    3    0    0  0.32884068159E+02  0.18341535451E+01 -0.19382082024E+03  0.19660720776E+03  0.17770000000E+01 0.  1.
         15    1    3    3    0    0 -0.10412647335E+02 -0.47177063426E+02 -0.58380485503E+02  0.75799322916E+02  0.17770000000E+01 0. -1.
</event>
<event>
 7    1  0.2288857E-006  0.5112505E+03  0.7546771E-02  0.9374982E-01
        -11   -1    0    0    0    0  0.00000000000E+00  0.00000000000E+00  0.50000000000E+03  0.50000000000E+03  0.00000000000E+00 0.  1.
         11   -1    0    0    0    0 -0.00000000000E+00 -0.00000000000E+00 -0.50000000000E+03  0.50000000000E+03  0.00000000000E+00 0.  1.
         23    2    1    2    0    0 -0.43884868127E+02 -0.14965484999E+03 -0.30225667162E+03  0.35223863201E+03  0.91599686497E+02 0.  0.
        -11    1    1    2    0    0  0.47713035023E+01  0.18548297431E+03  0.45216079384E+03  0.48874950903E+03  0.00000000000E+00 0.  1.
         11    1    1    2    0    0  0.39113564625E+02 -0.35828124323E+02 -0.14990412222E+03  0.15901185895E+03  0.00000000000E+00 0.  1.
        -15    1    3    3    0    0  0.61225845594E-01 -0.79839936634E+02 -0.71564302163E+02  0.10723351297E+03  0.17770000000E+01 0. -1.
         15    1    3    3    0    0 -0.43946093973E+02 -0.69814913351E+02 -0.23069236946E+03  0.24500511904E+03  0.17770000000E+01 0.  1.
</event>
<event>
 7    1  0.2288857E-006  0.4306408E+03  0.7546771E-02  0.9569962E-01
        -11   -1    0    0    0    0  0.00000000000E+00  0.00000000000E+00  0.50000000000E+03  0.50000000000E+03  0.00000000000E+00 0. -1.
         11   -1    0    0    0    0 -0.00000000000E+00 -0.00000000000E+00 -0.50000000000E+03  0.50000000000E+03  0.00000000000E+00 0. -1.
         23    2    1    2    0    0  0.82600455793E+02  0.94159325279E+01  0.50840489497E+02  0.13322316199E+03  0.90841402648E+02 0.  0.
        -11    1    1    2    0    0 -0.32969270230E+03  0.55778752952E+02  0.28873439770E+03  0.44178739190E+03  0.00000000000E+00 0. -1.
         11    1    1    2    0    0  0.24709224650E+03 -0.65194685480E+02 -0.33957488719E+03  0.42498944611E+03  0.00000000000E+00 0. -1.
        -15    1    3    3    0    0  0.44850873346E+02  0.49820961927E+02  0.35173103246E+02  0.75723404626E+02  0.17770000000E+01 0.  1.
         15    1    3    3    0    0  0.37749582446E+02 -0.40405029399E+02  0.15667386251E+02  0.57499757361E+02  0.17770000000E+01 0. -1.
</event>
<event>
 7    1  0.2288857E-006  0.4540735E+03  0.7546771E-02  0.9508877E-01
        -11   -1    0    0    0    0  0.00000000000E+00  0.00000000000E+00  0.50000000000E+03  0.50000000000E+03  0.00000000000E+00 0.  1.
         11   -1    0    0    0    0 -0.00000000000E+00 -0.00000000000E+00 -0.50000000000E+03  0.50000000000E+03  0.00000000000E+00 0. -1.
         23    2    1    2    0    0 -0.15057616648E+03  0.12721480814E+03  0.38321646061E+03  0.44057348308E+03  0.91615222494E+02 0.  0.
        -11    1    1    2    0    0 -0.11728189900E+02 -0.82135419372E+02  0.48435047663E+02  0.96071491067E+02  0.00000000000E+00 0.  1.
         11    1    1    2    0    0  0.16230435638E+03 -0.45079388771E+02 -0.43165150827E+03  0.46335502585E+03  0.00000000000E+00 0. -1.
        -15    1    3    3    0    0 -0.15264479612E+03  0.98897181091E+02  0.36185434702E+03  0.40499729924E+03  0.17770000000E+01 0.  1.
         15    1    3    3    0    0  0.20686296431E+01  0.28317627052E+02  0.21362113591E+02  0.35576183839E+02  0.17770000000E+01 0. -1.
</event>
<event>
 7    1  0.2288857E-006  0.5179193E+03  0.7546771E-02  0.9360583E-01
        -11   -1    0    0    0    0  0.00000000000E+00  0.00000000000E+00  0.50000000000E+03  0.50000000000E+03  0.00000000000E+00 0.  1.
         11   -1    0    0    0    0 -0.00000000000E+00 -0.00000000000E+00 -0.50000000000E+03  0.50000000000E+03  0.00000000000E+00 0. -1.
         23    2    1    2    0    0 -0.13417116272E+02  0.68598896398E+02  0.39372659192E+03  0.41036881033E+03  0.92174311541E+02 0.  0.
        -11    1    1    2    0    0 -0.63962366209E+02 -0.31214101486E+02  0.80632536519E+02  0.10755050148E+03  0.00000000000E+00 0.  1.
         11    1    1    2    0    0  0.77379482480E+02 -0.37384794912E+02 -0.47435912844E+03  0.48208068820E+03  0.00000000000E+00 0. -1.
        -15    1    3    3    0    0  0.38495463103E+02  0.30146487601E+02  0.13184176581E+03  0.14062759451E+03  0.17770000000E+01 0. -1.
         15    1    3    3    0    0 -0.51912579375E+02  0.38452408797E+02  0.26188482610E+03  0.26974121582E+03  0.17770000000E+01 0.  1.
</event>
<event>
 6    1  0.2288857E-006  0.5431252E+03  0.7546771E-02  0.9308169E-01
        -11   -1    0    0    0    0  0.00000000000E+00  0.00000000000E+00  0.50000000000E+03  0.50000000000E+03  0.00000000000E+00 0. -1.
         11   -1    0    0    0    0 -0.00000000000E+00 -0.00000000000E+00 -0.50000000000E+03  0.50000000000E+03  0.00000000000E+00 0.  1.
        -11    1    1    2    0    0  0.38137675727E+01  0.61497928061E+02  0.27066091145E+03  0.27758578667E+03  0.00000000000E+00 0. -1.
         11    1    1    2    0    0 -0.85833763534E+02 -0.50270794231E+02 -0.44591479806E+03  0.45687481310E+03  0.00000000000E+00 0.  1.
        -15    1    1    2    0    0 -0.35573667816E+02 -0.61621200268E+02  0.70470235544E+02  0.10015922320E+03  0.17770000000E+01 0. -1.
         15    1    1    2    0    0  0.11759366378E+03  0.50394066437E+02  0.10478365107E+03  0.16538017703E+03  0.17770000000E+01 0.  1.
</event>
<event>
 7    1  0.2288857E-006  0.5181649E+03  0.7546771E-02  0.9360057E-01
        -11   -1    0    0    0    0  0.00000000000E+00  0.00000000000E+00  0.50000000000E+03  0.50000000000E+03  0.00000000000E+00 0.  1.
         11   -1    0    0    0    0 -0.00000000000E+00 -0.00000000000E+00 -0.50000000000E+03  0.50000000000E+03  0.00000000000E+00 0. -1.
         23    2    1    2    0    0 -0.41228686623E+02 -0.98041540316E+02  0.34745840691E+03  0.37460767713E+03  0.91058327463E+02 0.  0.
        -11    1    1    2    0    0 -0.10394707259E+03 -0.38448099406E+02  0.91243798315E+02  0.14355723938E+03  0.00000000000E+00 0.  1.
         11    1    1    2    0    0  0.14517575921E+03  0.13648963972E+03 -0.43870220523E+03  0.48183508349E+03  0.00000000000E+00 0. -1.
        -15    1    3    3    0    0 -0.33986424534E+02 -0.12038133400E+02  0.20407178242E+03  0.20724006326E+03  0.17770000000E+01 0.  1.
         15    1    3    3    0    0 -0.72422620895E+01 -0.86003406916E+02  0.14338662449E+03  0.16736761387E+03  0.17770000000E+01 0. -1.
</event>
<event>
 7    1  0.4452006E-006  0.5116735E+03  0.7546771E-02  0.9374062E-01
        -11   -1    0    0    0    0  0.00000000000E+00  0.00000000000E+00  0.50000000000E+03  0.50000000000E+03  0.00000000000E+00 0. -1.
         11   -1    0    0    0    0 -0.00000000000E+00 -0.00000000000E+00 -0.50000000000E+03  0.50000000000E+03  0.00000000000E+00 0.  1.
         23    2    1    2    0    0 -0.22927730917E+02  0.74438628999E+02 -0.33972166639E+03  0.35953895754E+03  0.88264721390E+02 0.  0.
        -11    1    1    2    0    0 -0.32575150725E+02 -0.75415495064E+02  0.48136696068E+03  0.48832651800E+03  0.00000000000E+00 0. -1.
         11    1    1    2    0    0  0.55502881642E+02  0.97686606506E+00 -0.14164529430E+03  0.15213452447E+03  0.00000000000E+00 0.  1.
        -15    1    3    3    0    0 -0.52622291278E+02  0.62177923358E+02 -0.19600713161E+03  0.21226670267E+03  0.17770000000E+01 0.  1.
         15    1    3    3    0    0  0.29694560360E+02  0.12260705641E+02 -0.14371453478E+03  0.14727225487E+03  0.17770000000E+01 0. -1.
</event>
<event>
 7    1  0.2288857E-006  0.4141777E+03  0.7546771E-02  0.9615413E-01
        -11   -1    0    0    0    0  0.00000000000E+00  0.00000000000E+00  0.50000000000E+03  0.50000000000E+03  0.00000000000E+00 0. -1.
         11   -1    0    0    0    0 -0.00000000000E+00 -0.00000000000E+00 -0.50000000000E+03  0.50000000000E+03  0.00000000000E+00 0.  1.
         23    2    1    2    0    0 -0.73971663990E+02 -0.14129033672E+03  0.34217242619E+03  0.38778016188E+03  0.88638131633E+02 0.  0.
        -11    1    1    2    0    0  0.12643298105E+01  0.13163036810E+03  0.99178010077E+02  0.16481635240E+03  0.00000000000E+00 0. -1.
         11    1    1    2    0    0  0.72707334180E+02  0.96599686280E+01 -0.44135043627E+03  0.44740348572E+03  0.00000000000E+00 0.  1.
        -15    1    3    3    0    0 -0.32814746571E+02 -0.81798195316E+01  0.12695100199E+03  0.13139037893E+03  0.17770000000E+01 0.  1.
         15    1    3    3    0    0 -0.41156917420E+02 -0.13311051719E+03  0.21522142420E+03  0.25638978296E+03  0.17770000000E+01 0. -1.
</event>
<event>
 7    1  0.2288857E-006  0.5368534E+03  0.7546771E-02  0.9320925E-01
        -11   -1    0    0    0    0  0.00000000000E+00  0.00000000000E+00  0.50000000000E+03  0.50000000000E+03  0.00000000000E+00 0.  1.
         11   -1    0    0    0    0 -0.00000000000E+00 -0.00000000000E+00 -0.50000000000E+03  0.50000000000E+03  0.00000000000E+00 0. -1.
         23    2    1    2    0    0  0.69161468244E+02  0.17424791792E+03  0.65697666301E+02  0.21816966840E+03  0.90200749807E+02 0.  0.
        -11    1    1    2    0    0 -0.15317967652E+03  0.19688388562E+03  0.19832302771E+03  0.31868370062E+03  0.00000000000E+00 0.  1.
         11    1    1    2    0    0  0.84018208273E+02 -0.37113180354E+03 -0.26402069402E+03  0.46314663098E+03  0.00000000000E+00 0. -1.
        -15    1    3    3    0    0  0.64016647064E+01  0.48800246356E+02 -0.20692025543E+02  0.53420623410E+02  0.17770000000E+01 0.  1.
         15    1    3    3    0    0  0.62759803538E+02  0.12544767156E+03  0.86389691844E+02  0.16474904499E+03  0.17770000000E+01 0. -1.
</event>
<event>
 7    1  0.2288857E-006  0.3295451E+03  0.7546771E-02  0.9891060E-01
        -11   -1    0    0    0    0  0.00000000000E+00  0.00000000000E+00  0.50000000000E+03  0.50000000000E+03  0.00000000000E+00 0. -1.
         11   -1    0    0    0    0 -0.00000000000E+00 -0.00000000000E+00 -0.50000000000E+03  0.50000000000E+03  0.00000000000E+00 0.  1.
         23    2    1    2    0    0  0.20723669639E+03  0.17337935570E+03  0.28202846927E+02  0.28711656426E+03  0.92914323895E+02 0.  0.
        -11    1    1    2    0    0 -0.97137281792E+02 -0.13915833129E+03  0.31118151472E+03  0.35444975354E+03  0.00000000000E+00 0. -1.
         11    1    1    2    0    0 -0.11009941460E+03 -0.34221024410E+02 -0.33938436165E+03  0.35843368220E+03  0.00000000000E+00 0.  1.
        -15    1    3    3    0    0  0.15613072965E+03  0.87201215009E+02 -0.11775756064E+02  0.17922801902E+03  0.17770000000E+01 0.  1.
         15    1    3    3    0    0  0.51105966740E+02  0.86178140686E+02  0.39978602991E+02  0.10788854524E+03  0.17770000000E+01 0. -1.
</event>
<event>
 7    1  0.2288857E-006  0.4758476E+03  0.7546771E-02  0.9455536E-01
        -11   -1    0    0    0    0  0.00000000000E+00  0.00000000000E+00  0.50000000000E+03  0.50000000000E+03  0.00000000000E+00 0. -1.
         11   -1    0    0    0    0 -0.00000000000E+00 -0.00000000000E+00 -0.50000000000E+03  0.50000000000E+03  0.00000000000E+00 0.  1.
         23    2    1    2    0    0 -0.35608091454E+02  0.16018746513E+03 -0.41639560300E+03  0.45680106696E+03  0.91399980363E+02 0.  0.
        -11    1    1    2    0    0  0.33188551888E+02 -0.13707166767E+03  0.46682917237E+03  0.48766750786E+03  0.00000000000E+00 0. -1.
         11    1    1    2    0    0  0.24195395656E+01 -0.23115797456E+02 -0.50433569363E+02  0.55531425179E+02  0.00000000000E+00 0.  1.
        -15    1    3    3    0    0 -0.56316653614E+00  0.64773832837E+02 -0.27574404235E+03  0.28325589349E+03  0.17770000000E+01 0.  1.
         15    1    3    3    0    0 -0.35044924918E+02  0.95413632292E+02 -0.14065156065E+03  0.17354517346E+03  0.17770000000E+01 0. -1.
</event>
<event>
 7    1  0.2288857E-006  0.3628677E+03  0.7546771E-02  0.9772962E-01
        -11   -1    0    0    0    0  0.00000000000E+00  0.00000000000E+00  0.50000000000E+03  0.50000000000E+03  0.00000000000E+00 0.  1.
         11   -1    0    0    0    0 -0.00000000000E+00 -0.00000000000E+00 -0.50000000000E+03  0.50000000000E+03  0.00000000000E+00 0. -1.
         23    2    1    2    0    0  0.62744059068E+02  0.12019505018E+03  0.26801625291E+03  0.31594153356E+03  0.97993233261E+02 0.  0.
        -11    1    1    2    0    0 -0.21746987262E+03  0.49321768085E+02  0.10469648071E+03  0.24634759057E+03  0.00000000000E+00 0.  1.
         11    1    1    2    0    0  0.15472581355E+03 -0.16951681826E+03 -0.37271273362E+03  0.43771087588E+03  0.00000000000E+00 0. -1.
        -15    1    3    3    0    0 -0.51202728697E+01  0.93793223218E+02  0.16298203816E+03  0.18812147247E+03  0.17770000000E+01 0.  1.
         15    1    3    3    0    0  0.67864331938E+02  0.26401826962E+02  0.10503421476E+03  0.12782006108E+03  0.17770000000E+01 0. -1.
</event>
<event>
 7    1  0.2288857E-006  0.5105206E+03  0.7546771E-02  0.9376572E-01
        -11   -1    0    0    0    0  0.00000000000E+00  0.00000000000E+00  0.50000000000E+03  0.50000000000E+03  0.00000000000E+00 0.  1.
         11   -1    0    0    0    0 -0.00000000000E+00 -0.00000000000E+00 -0.50000000000E+03  0.50000000000E+03  0.00000000000E+00 0. -1.
         23    2    1    2    0    0 -0.10256655347E+03 -0.64023773116E+02 -0.36502235116E+03  0.39498519406E+03  0.90294215028E+02 0.  0.
        -11    1    1    2    0    0  0.77421021258E+02  0.86985940569E+02  0.47542559311E+03  0.48947937952E+03  0.00000000000E+00 0.  1.
         11    1    1    2    0    0  0.25145532209E+02 -0.22962167453E+02 -0.11040324195E+03  0.11553542642E+03  0.00000000000E+00 0. -1.
        -15    1    3    3    0    0 -0.29618060543E+02 -0.68877172843E+02 -0.14702016727E+03  0.16504357534E+03  0.17770000000E+01 0. -1.
         15    1    3    3    0    0 -0.72948492924E+02  0.48533997272E+01 -0.21800218389E+03  0.22994161872E+03  0.17770000000E+01 0.  1.
</event>
<event>
 7    1  0.2288857E-006  0.5014781E+03  0.7546771E-02  0.9396508E-01
        -11   -1    0    0    0    0  0.00000000000E+00  0.00000000000E+00  0.50000000000E+03  0.50000000000E+03  0.00000000000E+00 0. -1.
         11   -1    0    0    0    0 -0.00000000000E+00 -0.00000000000E+00 -0.50000000000E+03  0.50000000000E+03  0.00000000000E+00 0.  1.
         23    2    1    2    0    0  0.76820248257E+02  0.80954718516E+02  0.48247587102E+03  0.50147811054E+03  0.79008304886E+02 0.  0.
        -11    1    1    2    0    0 -0.16126121931E+02 -0.12260130692E+02 -0.26141211870E+02  0.33071522057E+02  0.00000000000E+00 0. -1.
         11    1    1    2    0    0 -0.60694126326E+02 -0.68694587824E+02 -0.45633465915E+03  0.46545036740E+03  0.00000000000E+00 0.  1.
        -15    1    3    3    0    0  0.58875251998E+02  0.11596444980E+02  0.15426222053E+03  0.16553175902E+03  0.17770000000E+01 0.  1.
         15    1    3    3    0    0  0.17944996259E+02  0.69358273536E+02  0.32821365050E+03  0.33594635152E+03  0.17770000000E+01 0. -1.
</event>
<event>
 7    1  0.2288857E-006  0.5117869E+03  0.7546771E-02  0.9373815E-01
        -11   -1    0    0    0    0  0.00000000000E+00  0.00000000000E+00  0.50000000000E+03  0.50000000000E+03  0.00000000000E+00 0. -1.
         11   -1    0    0    0    0 -0.00000000000E+00 -0.00000000000E+00 -0.50000000000E+03  0.50000000000E+03  0.00000000000E+00 0.  1.
         23    2    1    2    0    0 -0.41298749171E+02 -0.52563878286E+02  0.39050485290E+03  0.40608443075E+03  0.89117769151E+02 0.  0.
        -11    1    1    2    0    0 -0.64259403475E+02  0.49793907647E+01  0.83779098963E+02  0.10570242519E+03  0.00000000000E+00 0. -1.
         11    1    1    2    0    0  0.10555815265E+03  0.47584487522E+02 -0.47428395186E+03  0.48821314406E+03  0.00000000000E+00 0.  1.
        -15    1    3    3    0    0 -0.21824568860E+02  0.21780365913E+02  0.70367786197E+02  0.76847115811E+02  0.17770000000E+01 0.  1.
         15    1    3    3    0    0 -0.19474180311E+02 -0.74344244200E+02  0.32013706670E+03  0.32923731494E+03  0.17770000000E+01 0. -1.
</event>
<event>
 7    1  0.2288857E-006  0.4165530E+03  0.7546771E-02  0.9608718E-01
        -11   -1    0    0    0    0  0.00000000000E+00  0.00000000000E+00  0.50000000000E+03  0.50000000000E+03  0.00000000000E+00 0. -1.
         11   -1    0    0    0    0 -0.00000000000E+00 -0.00000000000E+00 -0.50000000000E+03  0.50000000000E+03  0.00000000000E+00 0.  1.
         23    2    1    2    0    0  0.14849129060E+03 -0.42688871965E+02  0.33773095631E+03  0.38251390023E+03  0.91556986875E+02 0.  0.
        -11    1    1    2    0    0 -0.83329971761E+02  0.80939558095E+02  0.11205101252E+03  0.16140175236E+03  0.00000000000E+00 0. -1.
         11    1    1    2    0    0 -0.65161318843E+02 -0.38250686130E+02 -0.44978196883E+03  0.45608434741E+03  0.00000000000E+00 0.  1.
        -15    1    3    3    0    0  0.63967752446E+02  0.24363564026E+02  0.97291957719E+02  0.11897201087E+03  0.17770000000E+01 0.  1.
         15    1    3    3    0    0  0.84523538157E+02 -0.67052435991E+02  0.24043899859E+03  0.26354188936E+03  0.17770000000E+01 0. -1.
</event>
<event>
 7    1  0.2288857E-006  0.4539662E+03  0.7546771E-02  0.9509148E-01
        -11   -1    0    0    0    0  0.00000000000E+00  0.00000000000E+00  0.50000000000E+03  0.50000000000E+03  0.00000000000E+00 0.  1.
         11   -1    0    0    0    0 -0.00000000000E+00 -0.00000000000E+00 -0.50000000000E+03  0.50000000000E+03  0.00000000000E+00 0. -1.
         23    2    1    2    0    0  0.91833062716E+01 -0.49948785540E+02  0.41828285274E+03  0.43125219854E+03  0.91862394670E+02 0.  0.
        -11    1    1    2    0    0  0.42421856588E+02 -0.79916091247E+02  0.33012513883E+02  0.96312105312E+02  0.00000000000E+00 0.  1.
         11    1    1    2    0    0 -0.51605162860E+02  0.12986487679E+03 -0.45129536663E+03  0.47243569615E+03  0.00000000000E+00 0. -1.
        -15    1    3    3    0    0 -0.11945381949E+02  0.20340031887E+02  0.45215969048E+02  0.51029899402E+02  0.17770000000E+01 0. -1.
         15    1    3    3    0    0  0.21128688221E+02 -0.70288817427E+02  0.37306688370E+03  0.38022229914E+03  0.17770000000E+01 0.  1.
</event>
<event>
 7    1  0.2288857E-006  0.4921379E+03  0.7546771E-02  0.9417576E-01
        -11   -1    0    0    0    0  0.00000000000E+00  0.00000000000E+00  0.50000000000E+03  0.50000000000E+03  0.00000000000E+00 0. -1.
         11   -1    0    0    0    0 -0.00000000000E+00 -0.00000000000E+00 -0.50000000000E+03  0.50000000000E+03  0.00000000000E+00 0.  1.
         23    2    1    2    0    0 -0.10526869658E+03  0.20916423483E+03 -0.41480832196E+03  0.48526391071E+03  0.92649573469E+02 0.  0.
        -11    1    1    2    0    0  0.12587105579E+03 -0.20579203934E+03  0.42709374496E+03  0.49051294899E+03  0.00000000000E+00 0. -1.
         11    1    1    2    0    0 -0.20602359214E+02 -0.33721954861E+01 -0.12285422998E+02  0.24223140296E+02  0.00000000000E+00 0.  1.
        -15    1    3    3    0    0 -0.72980055508E+02  0.87384855310E+02 -0.12408985184E+03  0.16841511363E+03  0.17770000000E+01 0. -1.
         15    1    3    3    0    0 -0.32288641073E+02  0.12177937952E+03 -0.29071847012E+03  0.31684879708E+03  0.17770000000E+01 0.  1.
</event>
<event>
 7    1  0.2288857E-006  0.3940274E+03  0.7546771E-02  0.9674214E-01
        -11   -1    0    0    0    0  0.00000000000E+00  0.00000000000E+00  0.50000000000E+03  0.50000000000E+03  0.00000000000E+00 0. -1.
         11   -1    0    0    0    0 -0.00000000000E+00 -0.00000000000E+00 -0.50000000000E+03  0.50000000000E+03  0.00000000000E+00 0. -1.
         23    2    1    2    0    0 -0.50969310316E+02 -0.72180914019E+02  0.33142974773E+03  0.35436016475E+03  0.88980299708E+02 0.  0.
        -11    1    1    2    0    0  0.14938442995E+03  0.73999388676E+02  0.10581347767E+03  0.19745406932E+03  0.00000000000E+00 0. -1.
         11    1    1    2    0    0 -0.98415119633E+02 -0.18184746568E+01 -0.43724322540E+03  0.44818576593E+03  0.00000000000E+00 0. -1.
        -15    1    3    3    0    0 -0.31483533582E+02  0.15429048201E+02  0.79181199711E+02  0.86614597684E+02  0.17770000000E+01 0.  1.
         15    1    3    3    0    0 -0.19485776733E+02 -0.87609962220E+02  0.25224854802E+03  0.26774556707E+03  0.17770000000E+01 0. -1.
</event>
<event>
 7    1  0.2288857E-006  0.5198392E+03  0.7546771E-02  0.9356480E-01
        -11   -1    0    0    0    0  0.00000000000E+00  0.00000000000E+00  0.50000000000E+03  0.50000000000E+03  0.00000000000E+00 0.  1.
         11   -1    0    0    0    0 -0.00000000000E+00 -0.00000000000E+00 -0.50000000000E+03  0.50000000000E+03  0.00000000000E+00 0. -1.
         23    2    1    2    0    0  0.53088341159E+02  0.38702018832E+02 -0.77785919258E+02  0.13603122169E+03  0.90208790100E+02 0.  0.
        -11    1    1    2    0    0 -0.15863055206E+03 -0.10638414710E+03  0.44053730355E+03  0.48016075914E+03  0.00000000000E+00 0.  1.
         11    1    1    2    0    0  0.10554221091E+03  0.67682128266E+02 -0.36275138429E+03  0.38380801916E+03  0.00000000000E+00 0. -1.
        -15    1    3    3    0    0  0.24633354082E+02 -0.17116012170E+02  0.67469220081E+01  0.30796731832E+02  0.17770000000E+01 0.  1.
         15    1    3    3    0    0  0.28454987077E+02  0.55818031002E+02 -0.84532841266E+02  0.10523448986E+03  0.17770000000E+01 0. -1.
</event>
<event>
 7    1  0.2288857E-006  0.4600776E+03  0.7546771E-02  0.9493856E-01
        -11   -1    0    0    0    0  0.00000000000E+00  0.00000000000E+00  0.50000000000E+03  0.50000000000E+03  0.00000000000E+00 0.  1.
         11   -1    0    0    0    0 -0.00000000000E+00 -0.00000000000E+00 -0.50000000000E+03  0.50000000000E+03  0.00000000000E+00 0.  1.
         23    2    1    2    0    0  0.59783232879E+02 -0.70830925774E+01  0.43118757719E+03  0.44442252824E+03  0.89243777100E+02 0.  0.
        -11    1    1    2    0    0 -0.29170037080E+02 -0.72794870249E+02  0.31895280879E+02  0.84659867353E+02  0.00000000000E+00 0.  1.
         11    1    1    2    0    0 -0.30613195799E+02  0.79877962827E+02 -0.46308285807E+03  0.47091760441E+03  0.00000000000E+00 0.  1.
        -15    1    3    3    0    0  0.51778409542E+02 -0.44829423491E+02  0.25435709996E+03  0.26342242299E+03  0.17770000000E+01 0.  1.
         15    1    3    3    0    0  0.80048233361E+01  0.37746330914E+02  0.17683047723E+03  0.18100010525E+03  0.17770000000E+01 0. -1.
</event>
<event>
 6    1  0.2288857E-006  0.4677889E+03  0.7546771E-02  0.9474917E-01
        -11   -1    0    0    0    0  0.00000000000E+00  0.00000000000E+00  0.50000000000E+03  0.50000000000E+03  0.00000000000E+00 0.  1.
         11   -1    0    0    0    0 -0.00000000000E+00 -0.00000000000E+00 -0.50000000000E+03  0.50000000000E+03  0.00000000000E+00 0. -1.
        -11    1    1    2    0    0 -0.15791885115E+02  0.92675025275E+02  0.23671130032E+02  0.96945171836E+02  0.00000000000E+00 0.  1.
         11    1    1    2    0    0 -0.68270695944E+02 -0.26926657800E+02 -0.43436077341E+03  0.44051698526E+03  0.00000000000E+00 0. -1.
        -15    1    1    2    0    0  0.74922775456E+02  0.36294143936E+02  0.76798855718E+02  0.11327801700E+03  0.17770000000E+01 0. -1.
         15    1    1    2    0    0  0.91398056035E+01 -0.10204251141E+03  0.33389078766E+03  0.34925982591E+03  0.17770000000E+01 0.  1.
</event>
<event>
 7    1  0.2288857E-006  0.5119716E+03  0.7546771E-02  0.9373414E-01
        -11   -1    0    0    0    0  0.00000000000E+00  0.00000000000E+00  0.50000000000E+03  0.50000000000E+03  0.00000000000E+00 0.  1.
         11   -1    0    0    0    0 -0.00000000000E+00 -0.00000000000E+00 -0.50000000000E+03  0.50000000000E+03  0.00000000000E+00 0. -1.
         23    2    1    2    0    0 -0.53380115377E+02 -0.17375028308E+02 -0.18195544153E+03  0.21139961099E+03  0.91818758949E+02 0.  0.
        -11    1    1    2    0    0  0.19228609087E+03  0.74323015782E+02  0.44235043527E+03  0.48802844077E+03  0.00000000000E+00 0.  1.
         11    1    1    2    0    0 -0.13890597549E+03 -0.56947987474E+02 -0.26039499374E+03  0.30057194824E+03  0.00000000000E+00 0. -1.
        -15    1    3    3    0    0 -0.13720602641E+02 -0.20306888543E+02  0.57515051485E+00  0.24578714089E+02  0.17770000000E+01 0. -1.
         15    1    3    3    0    0 -0.39659512736E+02  0.29318602354E+01 -0.18253059205E+03  0.18682089690E+03  0.17770000000E+01 0.  1.
</event>
<event>
 7    1  0.2288857E-006  0.3468259E+03  0.7546771E-02  0.9828038E-01
        -11   -1    0    0    0    0  0.00000000000E+00  0.00000000000E+00  0.50000000000E+03  0.50000000000E+03  0.00000000000E+00 0.  1.
         11   -1    0    0    0    0 -0.00000000000E+00 -0.00000000000E+00 -0.50000000000E+03  0.50000000000E+03  0.00000000000E+00 0.  1.
         23    2    1    2    0    0  0.35766569612E+02 -0.36881714324E+02  0.44577407799E+03  0.45797237284E+03  0.91567774513E+02 0.  0.
        -11    1    1    2    0    0  0.13360230407E+03  0.29224682611E+02 -0.23034354479E+03  0.26788394195E+03  0.00000000000E+00 0.  1.
         11    1    1    2    0    0 -0.16936887368E+03  0.76570317127E+01 -0.21543053320E+03  0.27414368521E+03  0.00000000000E+00 0.  1.
        -15    1    3    3    0    0  0.34366647358E+02 -0.66565781842E+02  0.30311593121E+03  0.31224108514E+03  0.17770000000E+01 0.  1.
         15    1    3    3    0    0  0.13999222535E+01  0.29684067519E+02  0.14265814677E+03  0.14573128771E+03  0.17770000000E+01 0. -1.
</event>
<event>
 7    1  0.2288857E-006  0.4622484E+03  0.7546771E-02  0.9488485E-01
        -11   -1    0    0    0    0  0.00000000000E+00  0.00000000000E+00  0.50000000000E+03  0.50000000000E+03  0.00000000000E+00 0. -1.
         11   -1    0    0    0    0 -0.00000000000E+00 -0.00000000000E+00 -0.50000000000E+03  0.50000000000E+03  0.00000000000E+00 0.  1.
         23    2    1    2    0    0  0.60648076628E+02  0.91207508951E+02 -0.40122237313E+03  0.42589922054E+03  0.91726519980E+02 0.  0.
        -11    1    1    2    0    0 -0.73720730078E+02 -0.13457890411E+03  0.46850282731E+03  0.49299201482E+03  0.00000000000E+00 0. -1.
         11    1    1    2    0    0  0.13072653451E+02  0.43371395164E+02 -0.67280454183E+02  0.81108764642E+02  0.00000000000E+00 0.  1.
        -15    1    3    3    0    0  0.82590401567E+02  0.74267737850E+02 -0.27364821999E+03  0.29533604139E+03  0.17770000000E+01 0.  1.
         15    1    3    3    0    0 -0.21942324939E+02  0.16939771101E+02 -0.12757415314E+03  0.13056317914E+03  0.17770000000E+01 0. -1.
</event>
<event>
 7    1  0.2288857E-006  0.3681670E+03  0.7546771E-02  0.9755435E-01
        -11   -1    0    0    0    0  0.00000000000E+00  0.00000000000E+00  0.50000000000E+03  0.50000000000E+03  0.00000000000E+00 0. -1.
         11   -1    0    0    0    0 -0.00000000000E+00 -0.00000000000E+00 -0.50000000000E+03  0.50000000000E+03  0.00000000000E+00 0. -1.
         23    2    1    2    0    0 -0.12643912914E+03 -0.11358408633E+03 -0.13214477934E+03  0.23283758976E+03  0.88673008593E+02 0.  0.
        -11    1    1    2    0    0  0.87230936948E+02 -0.14167444352E+03  0.37650431016E+03  0.41162650531E+03  0.00000000000E+00 0. -1.
         11    1    1    2    0    0  0.39208192192E+02  0.25525852984E+03 -0.24435953082E+03  0.35553590493E+03  0.00000000000E+00 0. -1.
        -15    1    3    3    0    0 -0.66004705984E+02 -0.11193195008E+03 -0.77405370210E+02  0.15126179864E+03  0.17770000000E+01 0. -1.
         15    1    3    3    0    0 -0.60434423156E+02 -0.16521362516E+01 -0.54739409131E+02  0.81575791124E+02  0.17770000000E+01 0.  1.
</event>
<event>
 7    1  0.2288857E-006  0.4733929E+03  0.7546771E-02  0.9461396E-01
        -11   -1    0    0    0    0  0.00000000000E+00  0.00000000000E+00  0.50000000000E+03  0.50000000000E+03  0.00000000000E+00 0.  1.
         11   -1    0    0    0    0 -0.00000000000E+00 -0.00000000000E+00 -0.50000000000E+03  0.50000000000E+03  0.00000000000E+00 0. -1.
         23    2    1    2    0    0  0.37573327776E+02 -0.41378051941E+02  0.45074514431E+03  0.46361164530E+03  0.92955227916E+02 0.  0.
        -11    1    1    2    0    0 -0.27949278606E+02 -0.51203529519E+02  0.15970333038E+02  0.60481527322E+02  0.00000000000E+00 0.  1.
         11    1    1    2    0    0 -0.96240491700E+01  0.92581581460E+02 -0.46671547735E+03  0.47590682738E+03  0.00000000000E+00 0. -1.
        -15    1    3    3    0    0  0.56117805550E+02 -0.56468426505E+02  0.39472274307E+03  0.40267492214E+03  0.17770000000E+01 0.  1.
         15    1    3    3    0    0 -0.18544477773E+02  0.15090374564E+02  0.56022401241E+02  0.60936723166E+02  0.17770000000E+01 0. -1.
</event>
<event>
 7    1  0.2288857E-006  0.5415551E+03  0.7546771E-02  0.9311345E-01
        -11   -1    0    0    0    0  0.00000000000E+00  0.00000000000E+00  0.50000000000E+03  0.50000000000E+03  0.00000000000E+00 0.  1.
         11   -1    0    0    0    0 -0.00000000000E+00 -0.00000000000E+00 -0.50000000000E+03  0.50000000000E+03  0.00000000000E+00 0.  1.
         23    2    1    2    0    0 -0.90256945062E+02 -0.62742631064E+02  0.13881679326E+03  0.20112567968E+03  0.95385968844E+02 0.  0.
        -11    1    1    2    0    0 -0.15871253510E+02  0.17130423504E+03  0.29376031237E+03  0.34042937411E+03  0.00000000000E+00 0.  1.
         11    1    1    2    0    0  0.10612819857E+03 -0.10856160398E+03 -0.43257710563E+03  0.45844494621E+03  0.00000000000E+00 0.  1.
        -15    1    3    3    0    0 -0.49988792328E+02 -0.62483755688E+02  0.13947855164E+03  0.16081207411E+03  0.17770000000E+01 0.  1.
         15    1    3    3    0    0 -0.40268152734E+02 -0.25887537605E+00 -0.66175838063E+00  0.40313605572E+02  0.17770000000E+01 0. -1.
</event>
<event>
 7    1  0.2288857E-006  0.3655009E+03  0.7546771E-02  0.9764213E-01
        -11   -1    0    0    0    0  0.00000000000E+00  0.00000000000E+00  0.50000000000E+03  0.50000000000E+03  0.00000000000E+00 0. -1.
         11   -1    0    0    0    0 -0.00000000000E+00 -0.00000000000E+00 -0.50000000000E+03  0.50000000000E+03  0.00000000000E+00 0. -1.
         23    2    1    2    0    0  0.29848828894E+02 -0.12577397030E+02  0.21883772766E+03  0.23625735557E+03  0.82936382337E+02 0.  0.
        -11    1    1    2    0    0 -0.22668472240E+03  0.15182671491E+03  0.15881150167E+03  0.31568719929E+03  0.00000000000E+00 0. -1.
         11    1    1    2    0    0  0.19683589351E+03 -0.13924931788E+03 -0.37764922933E+03  0.44805544514E+03  0.00000000000E+00 0. -1.
        -15    1    3    3    0    0 -0.22218720947E+02  0.99277063216E+01  0.11846551413E+03  0.12095233227E+03  0.17770000000E+01 0.  1.
         15    1    3    3    0    0  0.52067549841E+02 -0.22505103351E+02  0.10037221352E+03  0.11530502331E+03  0.17770000000E+01 0. -1.
</event>
<event>
 7    1  0.2288857E-006  0.3450586E+03  0.7546771E-02  0.9834300E-01
        -11   -1    0    0    0    0  0.00000000000E+00  0.00000000000E+00  0.50000000000E+03  0.50000000000E+03  0.00000000000E+00 0. -1.
         11   -1    0    0    0    0 -0.00000000000E+00 -0.00000000000E+00 -0.50000000000E+03  0.50000000000E+03  0.00000000000E+00 0. -1.
         23    2    1    2    0    0  0.20655621639E+03 -0.12564764040E+03  0.25656531441E+03  0.36426579202E+03  0.91711540236E+02 0.  0.
        -11    1    1    2    0    0 -0.17450005092E+03  0.17868018344E+03  0.10351853732E+03  0.27035710328E+03  0.00000000000E+00 0. -1.
         11    1    1    2    0    0 -0.32056165469E+02 -0.53032543034E+02 -0.36008385173E+03  0.36537710470E+03  0.00000000000E+00 0. -1.
        -15    1    3    3    0    0  0.53912839002E+02  0.69627862259E+01  0.37047093344E+02  0.65808202038E+02  0.17770000000E+01 0.  1.
         15    1    3    3    0    0  0.15264337739E+03 -0.13261042663E+03  0.21951822106E+03  0.29845758998E+03  0.17770000000E+01 0. -1.
</event>
<event>
 7    1  0.2288857E-006  0.5110740E+03  0.7546771E-02  0.9375366E-01
        -11   -1    0    0    0    0  0.00000000000E+00  0.00000000000E+00  0.50000000000E+03  0.50000000000E+03  0.00000000000E+00 0.  1.
         11   -1    0    0    0    0 -0.00000000000E+00 -0.00000000000E+00 -0.50000000000E+03  0.50000000000E+03  0.00000000000E+00 0. -1.
         23    2    1    2    0    0 -0.73192388524E+01  0.36020935973E+02  0.31007461760E+03  0.32529837523E+03  0.91223272045E+02 0.  0.
        -11    1    1    2    0    0 -0.69318801119E+02 -0.96610254920E+01  0.17208761030E+03  0.18577560986E+03  0.00000000000E+00 0.  1.
         11    1    1    2    0    0  0.76638039971E+02 -0.26359910481E+02 -0.48216222789E+03  0.48892601491E+03  0.00000000000E+00 0. -1.
        -15    1    3    3    0    0  0.31535013147E+01 -0.30393475042E+02  0.11249314284E+03  0.11658290102E+03  0.17770000000E+01 0.  1.
         15    1    3    3    0    0 -0.10472740167E+02  0.66414411015E+02  0.19758147476E+03  0.20871547421E+03  0.17770000000E+01 0. -1.
</event>
<event>
 7    1  0.2288857E-006  0.3801716E+03  0.7546771E-02  0.9716873E-01
        -11   -1    0    0    0    0  0.00000000000E+00  0.00000000000E+00  0.50000000000E+03  0.50000000000E+03  0.00000000000E+00 0.  1.
         11   -1    0    0    0    0 -0.00000000000E+00 -0.00000000000E+00 -0.50000000000E+03  0.50000000000E+03  0.00000000000E+00 0. -1.
         23    2    1    2    0    0 -0.45622905770E+02 -0.26537483502E+03  0.25336808844E+03  0.38047129617E+03  0.89765062119E+02 0.  0.
        -11    1    1    2    0    0 -0.28286119948E+02  0.17435486659E+03  0.12955783106E+03  0.21905468649E+03  0.00000000000E+00 0.  1.
         11    1    1    2    0    0  0.73909025718E+02  0.91019968426E+02 -0.38292591950E+03  0.40047401734E+03  0.00000000000E+00 0. -1.
        -15    1    3    3    0    0 -0.17206976076E+02 -0.27701367972E+02  0.75463950443E+02  0.82227801616E+02  0.17770000000E+01 0. -1.
         15    1    3    3    0    0 -0.28415929693E+02 -0.23767346704E+03  0.17790413800E+03  0.29824349455E+03  0.17770000000E+01 0.  1.
</event>
<event>
 6    1  0.2288857E-006  0.3521052E+03  0.7546771E-02  0.9809566E-01
        -11   -1    0    0    0    0  0.00000000000E+00  0.00000000000E+00  0.50000000000E+03  0.50000000000E+03  0.00000000000E+00 0. -1.
         11   -1    0    0    0    0 -0.00000000000E+00 -0.00000000000E+00 -0.50000000000E+03  0.50000000000E+03  0.00000000000E+00 0.  1.
        -11    1    1    2    0    0  0.15608362094E+03 -0.55697938818E+02  0.41051416224E+03  0.44270332562E+03  0.00000000000E+00 0. -1.
         11    1    1    2    0    0  0.48568705587E+02  0.30441130168E+02 -0.26458136364E+03  0.27071918948E+03  0.00000000000E+00 0.  1.
        -15    1    1    2    0    0 -0.57814511087E+02  0.30836401807E+02 -0.12087219030E+03  0.13750143812E+03  0.17770000000E+01 0. -1.
         15    1    1    2    0    0 -0.14683781544E+03 -0.55795931567E+01 -0.25060608302E+02  0.14907604677E+03  0.17770000000E+01 0.  1.
</event>
<event>
 7    1  0.2288857E-006  0.4447151E+03  0.7546771E-02  0.9532791E-01
        -11   -1    0    0    0    0  0.00000000000E+00  0.00000000000E+00  0.50000000000E+03  0.50000000000E+03  0.00000000000E+00 0.  1.
         11   -1    0    0    0    0 -0.00000000000E+00 -0.00000000000E+00 -0.50000000000E+03  0.50000000000E+03  0.00000000000E+00 0.  1.
         23    2    1    2    0    0  0.18624412697E+02 -0.23723476576E+02  0.45883622929E+03  0.46899570497E+03  0.92285502047E+02 0.  0.
        -11    1    1    2    0    0  0.39624163430E+02 -0.87157462603E+02 -0.60059315505E+02  0.11302043618E+03  0.00000000000E+00 0.  1.
         11    1    1    2    0    0 -0.58248576127E+02  0.11088093918E+03 -0.39877691378E+03  0.41798385885E+03  0.00000000000E+00 0.  1.
        -15    1    3    3    0    0  0.65370116709E+01 -0.57529229482E+02  0.33794452988E+03  0.34287316572E+03  0.17770000000E+01 0.  1.
         15    1    3    3    0    0  0.12087401027E+02  0.33805752906E+02  0.12089169940E+03  0.12612253925E+03  0.17770000000E+01 0. -1.
</event>
<event>
 7    1  0.2288857E-006  0.5225240E+03  0.7546771E-02  0.9350775E-01
        -11   -1    0    0    0    0  0.00000000000E+00  0.00000000000E+00  0.50000000000E+03  0.50000000000E+03  0.00000000000E+00 0.  1.
         11   -1    0    0    0    0 -0.00000000000E+00 -0.00000000000E+00 -0.50000000000E+03  0.50000000000E+03  0.00000000000E+00 0. -1.
         23    2    1    2    0    0 -0.61290852656E+02  0.16847723143E+02  0.13170595092E+03  0.17403046152E+03  0.94338378385E+02 0.  0.
        -11    1    1    2    0    0 -0.30511363767E+02 -0.12269745542E+03  0.32474939003E+03  0.34849357987E+03  0.00000000000E+00 0.  1.
         11    1    1    2    0    0  0.91802216423E+02  0.10584973228E+03 -0.45645534095E+03  0.47747595860E+03  0.00000000000E+00 0. -1.
        -15    1    3    3    0    0 -0.22292951838E+02  0.42094111002E+02  0.11524200242E+03  0.12471073223E+03  0.17770000000E+01 0.  1.
         15    1    3    3    0    0 -0.38997900818E+02 -0.25246387859E+02  0.16463948494E+02  0.49319729289E+02  0.17770000000E+01 0. -1.
</event>
<event>
 7    1  0.2288857E-006  0.5187051E+03  0.7546771E-02  0.9358902E-01
        -11   -1    0    0    0    0  0.00000000000E+00  0.00000000000E+00  0.50000000000E+03  0.50000000000E+03  0.00000000000E+00 0.  1.
         11   -1    0    0    0    0 -0.00000000000E+00 -0.00000000000E+00 -0.50000000000E+03  0.50000000000E+03  0.00000000000E+00 0. -1.
         23    2    1    2    0    0 -0.35035106740E+02 -0.21069637939E+03 -0.27803419532E+03  0.36197051069E+03  0.89995632386E+02 0.  0.
        -11    1    1    2    0    0  0.10364478837E+03  0.21306477684E+03  0.41893428483E+03  0.48129489535E+03  0.00000000000E+00 0.  1.
         11    1    1    2    0    0 -0.68609681626E+02 -0.23683974524E+01 -0.14090008951E+03  0.15673459396E+03  0.00000000000E+00 0. -1.
        -15    1    3    3    0    0  0.66462225201E+01 -0.12227908492E+03 -0.97030426137E+02  0.15625110626E+03  0.17770000000E+01 0. -1.
         15    1    3    3    0    0 -0.41681329260E+02 -0.88417294468E+02 -0.18100376918E+03  0.20571940443E+03  0.17770000000E+01 0.  1.
</event>
<event>
 7    1  0.2288857E-006  0.5129221E+03  0.7546771E-02  0.9371351E-01
        -11   -1    0    0    0    0  0.00000000000E+00  0.00000000000E+00  0.50000000000E+03  0.50000000000E+03  0.00000000000E+00 0.  1.
         11   -1    0    0    0    0 -0.00000000000E+00 -0.00000000000E+00 -0.50000000000E+03  0.50000000000E+03  0.00000000000E+00 0.  1.
         23    2    1    2    0    0 -0.43504652396E+02  0.11508419876E+02  0.26306037043E+03  0.28247197475E+03  0.92544905421E+02 0.  0.
        -11    1    1    2    0    0 -0.14310780699E+02 -0.79756376390E+02  0.21573447922E+03  0.23045008905E+03  0.00000000000E+00 0.  1.
         11    1    1    2    0    0  0.57815433095E+02  0.68247956514E+02 -0.47879484966E+03  0.48707793620E+03  0.00000000000E+00 0.  1.
        -15    1    3    3    0    0  0.26445266657E+02  0.12503674113E+02  0.47262688484E+02  0.55611270860E+02  0.17770000000E+01 0.  1.
         15    1    3    3    0    0 -0.69949919053E+02 -0.99525423760E+00  0.21579768195E+03  0.22686070389E+03  0.17770000000E+01 0. -1.
</event>
<event>
 7    1  0.2288857E-006  0.5309459E+03  0.7546771E-02  0.9333110E-01
        -11   -1    0    0    0    0  0.00000000000E+00  0.00000000000E+00  0.50000000000E+03  0.50000000000E+03  0.00000000000E+00 0.  1.
         11   -1    0    0    0    0 -0.00000000000E+00 -0.00000000000E+00 -0.50000000000E+03  0.50000000000E+03  0.00000000000E+00 0. -1.
         23    2    1    2    0    0 -0.89168819279E+02  0.98418156941E+02  0.34569347597E+03  0.38115179982E+03  0.90197024506E+02 0.  0.
        -11    1    1    2    0    0 -0.34751156053E+01 -0.96970213896E+02  0.11411820470E+03  0.14979407016E+03  0.00000000000E+00 0.  1.
         11    1    1    2    0    0  0.92643934884E+02 -0.14479430447E+01 -0.45981168067E+03  0.46905413002E+03  0.00000000000E+00 0. -1.
        -15    1    3    3    0    0 -0.44882830000E+02  0.57415885408E+02  0.78118037150E+02  0.10684866767E+03  0.17770000000E+01 0. -1.
         15    1    3    3    0    0 -0.44285989280E+02  0.41002271533E+02  0.26757543882E+03  0.27430313215E+03  0.17770000000E+01 0.  1.
</event>
<event>
 7    1  0.2288857E-006  0.5209725E+03  0.7546771E-02  0.9354068E-01
        -11   -1    0    0    0    0  0.00000000000E+00  0.00000000000E+00  0.50000000000E+03  0.50000000000E+03  0.00000000000E+00 0. -1.
         11   -1    0    0    0    0 -0.00000000000E+00 -0.00000000000E+00 -0.50000000000E+03  0.50000000000E+03  0.00000000000E+00 0.  1.
         23    2    1    2    0    0  0.18777771758E+02 -0.41477373100E+02  0.33221339920E+03  0.34757475693E+03  0.91484926930E+02 0.  0.
        -11    1    1    2    0    0 -0.95625975977E+02 -0.67674008897E+02  0.12783844794E+03  0.17339771490E+03  0.00000000000E+00 0. -1.
         11    1    1    2    0    0  0.76848204219E+02  0.10915138200E+03 -0.46005184714E+03  0.47902752817E+03  0.00000000000E+00 0.  1.
        -15    1    3    3    0    0  0.52282162174E+02 -0.13017842334E+02  0.13198204373E+03  0.14256684852E+03  0.17770000000E+01 0.  1.
         15    1    3    3    0    0 -0.33504390416E+02 -0.28459530766E+02  0.20023135547E+03  0.20500790841E+03  0.17770000000E+01 0. -1.
</event>
<event>
 7    1  0.2288857E-006  0.3980612E+03  0.7546771E-02  0.9662147E-01
        -11   -1    0    0    0    0  0.00000000000E+00  0.00000000000E+00  0.50000000000E+03  0.50000000000E+03  0.00000000000E+00 0.  1.
         11   -1    0    0    0    0 -0.00000000000E+00 -0.00000000000E+00 -0.50000000000E+03  0.50000000000E+03  0.00000000000E+00 0. -1.
         23    2    1    2    0    0 -0.70842746316E+02 -0.17520221498E+02  0.37989778226E+03  0.39736877669E+03  0.90851344827E+02 0.  0.
        -11    1    1    2    0    0  0.25361059576E+03  0.99500371480E+01 -0.32355936436E+03  0.41122743073E+03  0.00000000000E+00 0. -1.
         11    1    1    2    0    0 -0.18276784945E+03  0.75701843503E+01 -0.56338417895E+02  0.19140379258E+03  0.00000000000E+00 0.  1.
        -15    1    3    3    0    0 -0.78289050562E+02  0.14140207781E+02  0.31307646185E+03  0.32303118984E+03  0.17770000000E+01 0.  1.
         15    1    3    3    0    0  0.74463042457E+01 -0.31660429279E+02  0.66821320404E+02  0.74337586849E+02  0.17770000000E+01 0. -1.
</event>
<event>
 7    1  0.2288857E-006  0.4094077E+03  0.7546771E-02  0.9629005E-01
        -11   -1    0    0    0    0  0.00000000000E+00  0.00000000000E+00  0.50000000000E+03  0.50000000000E+03  0.00000000000E+00 0. -1.
         11   -1    0    0    0    0 -0.00000000000E+00 -0.00000000000E+00 -0.50000000000E+03  0.50000000000E+03  0.00000000000E+00 0. -1.
         23    2    1    2    0    0  0.12053612810E+03 -0.51133928373E+02 -0.56289560529E+02  0.16887367788E+03  0.90587900114E+02 0.  0.
        -11    1    1    2    0    0 -0.13195655156E+03 -0.90094982038E+02  0.41540249170E+03  0.44507175533E+03  0.00000000000E+00 0. -1.
         11    1    1    2    0    0  0.11420423456E+02  0.14122891041E+03 -0.35911293117E+03  0.38605456679E+03  0.00000000000E+00 0. -1.
        -15    1    3    3    0    0  0.88204219604E+02 -0.32001714759E+02  0.82142805772E+01  0.94205765417E+02  0.17770000000E+01 0.  1.
         15    1    3    3    0    0  0.32331908498E+02 -0.19132213613E+02 -0.64503841106E+02  0.74667912461E+02  0.17770000000E+01 0. -1.
</event>
<event>
 7    1  0.2288857E-006  0.5138971E+03  0.7546771E-02  0.9369240E-01
        -11   -1    0    0    0    0  0.00000000000E+00  0.00000000000E+00  0.50000000000E+03  0.50000000000E+03  0.00000000000E+00 0.  1.
         11   -1    0    0    0    0 -0.00000000000E+00 -0.00000000000E+00 -0.50000000000E+03  0.50000000000E+03  0.00000000000E+00 0. -1.
         23    2    1    2    0    0 -0.57511648759E+01  0.17000862831E+02  0.34191198438E+03  0.35399387279E+03  0.89920807795E+02 0.  0.
        -11    1    1    2    0    0 -0.78665357449E+02 -0.26262363355E+02  0.13671534698E+03  0.15990320914E+03  0.00000000000E+00 0.  1.
         11    1    1    2    0    0  0.84416522325E+02  0.92615005242E+01 -0.47862733136E+03  0.48610291807E+03  0.00000000000E+00 0. -1.
        -15    1    3    3    0    0 -0.38306376287E+02 -0.18235771821E+02  0.13197320903E+03  0.13863624155E+03  0.17770000000E+01 0.  1.
         15    1    3    3    0    0  0.32555211411E+02  0.35236634652E+02  0.20993877535E+03  0.21535763124E+03  0.17770000000E+01 0. -1.
</event>
<event>
 7    1  0.2288857E-006  0.5184557E+03  0.7546771E-02  0.9359435E-01
        -11   -1    0    0    0    0  0.00000000000E+00  0.00000000000E+00  0.50000000000E+03  0.50000000000E+03  0.00000000000E+00 0. -1.
         11   -1    0    0    0    0 -0.00000000000E+00 -0.00000000000E+00 -0.50000000000E+03  0.50000000000E+03  0.00000000000E+00 0.  1.
         23    2    1    2    0    0 -0.37120023785E+02 -0.29131162378E+02  0.32502849382E+03  0.34087525520E+03  0.91246353466E+02 0.  0.
        -11    1    1    2    0    0 -0.12306193455E+03 -0.22865479526E+01  0.12800525862E+03  0.17758044451E+03  0.00000000000E+00 0. -1.
         11    1    1    2    0    0  0.16018195834E+03  0.31417710330E+02 -0.45303375244E+03  0.48154430030E+03  0.00000000000E+00 0.  1.
        -15    1    3    3    0    0 -0.60379116704E+02 -0.46761594037E+01  0.26640728727E+03  0.27320963497E+03  0.17770000000E+01 0. -1.
         15    1    3    3    0    0  0.23259092918E+02 -0.24455002974E+02  0.58621206550E+02  0.67665620223E+02  0.17770000000E+01 0.  1.
</event>
<event>
 7    1  0.2288857E-006  0.4622635E+03  0.7546771E-02  0.9488447E-01
        -11   -1    0    0    0    0  0.00000000000E+00  0.00000000000E+00  0.50000000000E+03  0.50000000000E+03  0.00000000000E+00 0.  1.
         11   -1    0    0    0    0 -0.00000000000E+00 -0.00000000000E+00 -0.50000000000E+03  0.50000000000E+03  0.00000000000E+00 0.  1.
         23    2    1    2    0    0  0.61258500232E+02  0.51283009561E+02  0.44420389422E+03  0.46098622547E+03  0.93854405943E+02 0.  0.
        -11    1    1    2    0    0  0.59855938731E+02 -0.55201476858E+02 -0.30088141573E+01  0.81479993933E+02  0.00000000000E+00 0.  1.
         11    1    1    2    0    0 -0.12111443896E+03  0.39184672972E+01 -0.44119508006E+03  0.45753378059E+03  0.00000000000E+00 0.  1.
        -15    1    3    3    0    0 -0.22201416849E+02 -0.36446552250E+01  0.63720132918E+02  0.67598812785E+02  0.17770000000E+01 0. -1.
         15    1    3    3    0    0  0.83459917080E+02  0.54927664786E+02  0.38048376130E+03  0.39338741269E+03  0.17770000000E+01 0.  1.
</event>
<event>
 7    1  0.2288857E-006  0.5245321E+03  0.7546771E-02  0.9346531E-01
        -11   -1    0    0    0    0  0.00000000000E+00  0.00000000000E+00  0.50000000000E+03  0.50000000000E+03  0.00000000000E+00 0. -1.
         11   -1    0    0    0    0 -0.00000000000E+00 -0.00000000000E+00 -0.50000000000E+03  0.50000000000E+03  0.00000000000E+00 0.  1.
         23    2    1    2    0    0  0.42273303350E+02  0.19076981193E+03 -0.13969418685E+03  0.25777581809E+03  0.93561494384E+02 0.  0.
        -11    1    1    2    0    0 -0.40883694953E+02 -0.25658164142E+03  0.39820105618E+03  0.47546787102E+03  0.00000000000E+00 0. -1.
         11    1    1    2    0    0 -0.13896083972E+01  0.65811829489E+02 -0.25850686933E+03  0.26675631090E+03  0.00000000000E+00 0.  1.
        -15    1    3    3    0    0  0.56841943040E+02  0.18340658489E+03 -0.10374658828E+03  0.21825557079E+03  0.17770000000E+01 0. -1.
         15    1    3    3    0    0 -0.14568639690E+02  0.73632270362E+01 -0.35947598569E+02  0.39520247301E+02  0.17770000000E+01 0.  1.
</event>
<event>
 7    1  0.2288857E-006  0.5114796E+03  0.7546771E-02  0.9374483E-01
        -11   -1    0    0    0    0  0.00000000000E+00  0.00000000000E+00  0.50000000000E+03  0.50000000000E+03  0.00000000000E+00 0. -1.
         11   -1    0    0    0    0 -0.00000000000E+00 -0.00000000000E+00 -0.50000000000E+03  0.50000000000E+03  0.00000000000E+00 0.  1.
         23    2    1    2    0    0 -0.41275598246E+02  0.40386221096E+02  0.29240191723E+03  0.31383395803E+03  0.98275887941E+02 0.  0.
        -11    1    1    2    0    0 -0.72633567793E+02 -0.23223620699E+02  0.18234259039E+03  0.19764562226E+03  0.00000000000E+00 0. -1.
         11    1    1    2    0    0  0.11390916604E+03 -0.17162600396E+02 -0.47474450762E+03  0.48852041971E+03  0.00000000000E+00 0.  1.
        -15    1    3    3    0    0 -0.14202462692E+02 -0.17043284455E+02  0.10039324450E+02  0.24415758353E+02  0.17770000000E+01 0.  1.
         15    1    3    3    0    0 -0.27073135554E+02  0.57429505550E+02  0.28236259278E+03  0.28941819968E+03  0.17770000000E+01 0. -1.
</event>
<event>
 7    1  0.2288857E-006  0.5142207E+03  0.7546771E-02  0.9368540E-01
        -11   -1    0    0    0    0  0.00000000000E+00  0.00000000000E+00  0.50000000000E+03  0.50000000000E+03  0.00000000000E+00 0. -1.
         11   -1    0    0    0    0 -0.00000000000E+00 -0.00000000000E+00 -0.50000000000E+03  0.50000000000E+03  0.00000000000E+00 0.  1.
         23    2    1    2    0    0  0.13426130362E+02  0.65255796808E+02  0.34399163704E+03  0.35997016235E+03  0.82520854547E+02 0.  0.
        -11    1    1    2    0    0 -0.74689624132E+02 -0.92549963230E+01  0.13464412966E+03  0.15425056422E+03  0.00000000000E+00 0. -1.
         11    1    1    2    0    0  0.61263493770E+02 -0.56000800485E+02 -0.47863576670E+03  0.48577927343E+03  0.00000000000E+00 0.  1.
        -15    1    3    3    0    0 -0.11082007438E+02 -0.16652693926E+02  0.53149676187E+02  0.56816977319E+02  0.17770000000E+01 0.  1.
         15    1    3    3    0    0  0.24508137801E+02  0.81908490734E+02  0.29084196085E+03  0.30315318503E+03  0.17770000000E+01 0. -1.
</event>
<event>
 7    1  0.2288857E-006  0.5271558E+03  0.7546771E-02  0.9341016E-01
        -11   -1    0    0    0    0  0.00000000000E+00  0.00000000000E+00  0.50000000000E+03  0.50000000000E+03  0.00000000000E+00 0. -1.
         11   -1    0    0    0    0 -0.00000000000E+00 -0.00000000000E+00 -0.50000000000E+03  0.50000000000E+03  0.00000000000E+00 0.  1.
         23    2    1    2    0    0 -0.17841986575E+03  0.13253041873E+02 -0.14473674851E+03  0.24742244272E+03  0.90883701392E+02 0.  0.
        -11    1    1    2    0    0  0.22781992336E+03  0.61338888274E+02  0.40977713455E+03  0.47284424148E+03  0.00000000000E+00 0. -1.
         11    1    1    2    0    0 -0.49400057611E+02 -0.74591930147E+02 -0.26504038605E+03  0.27973331580E+03  0.00000000000E+00 0.  1.
        -15    1    3    3    0    0  0.10136382082E+02 -0.85095889064E+00 -0.20287507741E+01  0.10523494260E+02  0.17770000000E+01 0. -1.
         15    1    3    3    0    0 -0.18855624783E+03  0.14104000763E+02 -0.14270799773E+03  0.23689894846E+03  0.17770000000E+01 0.  1.
</event>
<event>
 7    1  0.2288857E-006  0.5124687E+03  0.7546771E-02  0.9372334E-01
        -11   -1    0    0    0    0  0.00000000000E+00  0.00000000000E+00  0.50000000000E+03  0.50000000000E+03  0.00000000000E+00 0. -1.
         11   -1    0    0    0    0 -0.00000000000E+00 -0.00000000000E+00 -0.50000000000E+03  0.50000000000E+03  0.00000000000E+00 0.  1.
         23    2    1    2    0    0 -0.15196374977E+01  0.13015393620E+02  0.17727166246E+03  0.19804390167E+03  0.87318010204E+02 0.  0.
        -11    1    1    2    0    0  0.85827114529E+02  0.13447766637E+02  0.30218505027E+03  0.31442477737E+03  0.00000000000E+00 0. -1.
         11    1    1    2    0    0 -0.84307477032E+02 -0.26463160256E+02 -0.47945671273E+03  0.48753132096E+03  0.00000000000E+00 0.  1.
        -15    1    3    3    0    0  0.25939458133E+02 -0.25330389324E+02  0.11024696048E+03  0.11606909207E+03  0.17770000000E+01 0.  1.
         15    1    3    3    0    0 -0.27459095631E+02  0.38345782944E+02  0.67024701984E+02  0.81974809591E+02  0.17770000000E+01 0. -1.
</event>
<event>
 7    1  0.2288857E-006  0.5247633E+03  0.7546771E-02  0.9346043E-01
        -11   -1    0    0    0    0  0.00000000000E+00  0.00000000000E+00  0.50000000000E+03  0.50000000000E+03  0.00000000000E+00 0.  1.
         11   -1    0    0    0    0 -0.00000000000E+00 -0.00000000000E+00 -0.50000000000E+03  0.50000000000E+03  0.00000000000E+00 0. -1.
         23    2    1    2    0    0  0.73029938407E+01  0.52564033410E+02  0.13496775346E+03  0.17140247959E+03  0.91357562403E+02 0.  0.
        -11    1    1    2    0    0  0.11349169950E+03 -0.85775734757E+02  0.32345948358E+03  0.35336083548E+03  0.00000000000E+00 0.  1.
         11    1    1    2    0    0 -0.12079469334E+03  0.33211701347E+02 -0.45842723704E+03  0.47523668493E+03  0.00000000000E+00 0. -1.
        -15    1    3    3    0    0  0.21983128905E+02 -0.17888547067E+02  0.16686857255E+02  0.32937319361E+02  0.17770000000E+01 0.  1.
         15    1    3    3    0    0 -0.14680135065E+02  0.70452580477E+02  0.11828089620E+03  0.13846516023E+03  0.17770000000E+01 0. -1.
</event>
<event>
 7    1  0.2288857E-006  0.5117141E+03  0.7546771E-02  0.9373973E-01
        -11   -1    0    0    0    0  0.00000000000E+00  0.00000000000E+00  0.50000000000E+03  0.50000000000E+03  0.00000000000E+00 0.  1.
         11   -1    0    0    0    0 -0.00000000000E+00 -0.00000000000E+00 -0.50000000000E+03  0.50000000000E+03  0.00000000000E+00 0.  1.
         23    2    1    2    0    0  0.14239511184E+03  0.13201049283E+03  0.43889453692E+03  0.48828588339E+03  0.89953050433E+02 0.  0.
        -11    1    1    2    0    0 -0.91065528321E+02 -0.87945737752E+02 -0.87567426893E+02  0.15393322413E+03  0.00000000000E+00 0.  1.
         11    1    1    2    0    0 -0.51329583518E+02 -0.44064755078E+02 -0.35132711003E+03  0.35778089248E+03  0.00000000000E+00 0.  1.
        -15    1    3    3    0    0  0.14285096806E+03  0.87692450912E+02  0.37197201845E+03  0.40799841331E+03  0.17770000000E+01 0.  1.
         15    1    3    3    0    0 -0.45585621732E+00  0.44318041918E+02  0.66922518470E+02  0.80287470079E+02  0.17770000000E+01 0. -1.
</event>
<event>
 7    1  0.2288857E-006  0.4781843E+03  0.7546771E-02  0.9449992E-01
        -11   -1    0    0    0    0  0.00000000000E+00  0.00000000000E+00  0.50000000000E+03  0.50000000000E+03  0.00000000000E+00 0. -1.
         11   -1    0    0    0    0 -0.00000000000E+00 -0.00000000000E+00 -0.50000000000E+03  0.50000000000E+03  0.00000000000E+00 0.  1.
         23    2    1    2    0    0  0.18250169944E+02 -0.11009201128E+03  0.45342878575E+03  0.47606972698E+03  0.92689813632E+02 0.  0.
        -11    1    1    2    0    0 -0.45685093519E+02  0.21145721723E+02  0.99326893383E+01  0.51312061297E+02  0.00000000000E+00 0. -1.
         11    1    1    2    0    0  0.27434923575E+02  0.88946289553E+02 -0.46336147509E+03  0.47261821172E+03  0.00000000000E+00 0.  1.
        -15    1    3    3    0    0 -0.35254763357E+02 -0.34213193932E+02  0.11357828460E+03  0.12376035488E+03  0.17770000000E+01 0.  1.
         15    1    3    3    0    0  0.53504933301E+02 -0.75878817343E+02  0.33985050115E+03  0.35230937210E+03  0.17770000000E+01 0. -1.
</event>
<event>
 7    1  0.2288857E-006  0.4253016E+03  0.7546771E-02  0.9584462E-01
        -11   -1    0    0    0    0  0.00000000000E+00  0.00000000000E+00  0.50000000000E+03  0.50000000000E+03  0.00000000000E+00 0.  1.
         11   -1    0    0    0    0 -0.00000000000E+00 -0.00000000000E+00 -0.50000000000E+03  0.50000000000E+03  0.00000000000E+00 0. -1.
         23    2    1    2    0    0  0.78909178947E+02  0.19341630135E+02  0.38720281712E+03  0.40606993451E+03  0.91465911396E+02 0.  0.
        -11    1    1    2    0    0  0.53456941163E+02 -0.13439082759E+03  0.24258005737E+02  0.14665261655E+03  0.00000000000E+00 0.  1.
         11    1    1    2    0    0 -0.13236612011E+03  0.11504919746E+03 -0.41146082285E+03  0.44727744894E+03  0.00000000000E+00 0. -1.
        -15    1    3    3    0    0  0.12289513209E+02 -0.25475432291E+02  0.36081397098E+02  0.45880875437E+02  0.17770000000E+01 0. -1.
         15    1    3    3    0    0  0.66619665738E+02  0.44817062426E+02  0.35112142002E+03  0.36018905907E+03  0.17770000000E+01 0.  1.
</event>
<event>
 7    1  0.2288857E-006  0.5226905E+03  0.7546771E-02  0.9350422E-01
        -11   -1    0    0    0    0  0.00000000000E+00  0.00000000000E+00  0.50000000000E+03  0.50000000000E+03  0.00000000000E+00 0. -1.
         11   -1    0    0    0    0 -0.00000000000E+00 -0.00000000000E+00 -0.50000000000E+03  0.50000000000E+03  0.00000000000E+00 0. -1.
         23    2    1    2    0    0 -0.86901239229E+01  0.27347551869E+02  0.21508013429E+03  0.23625342667E+03  0.93449508280E+02 0.  0.
        -11    1    1    2    0    0  0.92685766845E+02 -0.11092524926E+03  0.24728754291E+03  0.28643706321E+03  0.00000000000E+00 0. -1.
         11    1    1    2    0    0 -0.83995642922E+02  0.83577697388E+02 -0.46236767721E+03  0.47730951013E+03  0.00000000000E+00 0. -1.
        -15    1    3    3    0    0 -0.10445857912E+02  0.60555060316E+02  0.16530283291E+03  0.17636387264E+03  0.17770000000E+01 0.  1.
         15    1    3    3    0    0  0.17557339889E+01 -0.33207508447E+02  0.49777301386E+02  0.59889554025E+02  0.17770000000E+01 0. -1.
</event>
<event>
 7    1  0.2288857E-006  0.4737600E+03  0.7546771E-02  0.9460517E-01
        -11   -1    0    0    0    0  0.00000000000E+00  0.00000000000E+00  0.50000000000E+03  0.50000000000E+03  0.00000000000E+00 0. -1.
         11   -1    0    0    0    0 -0.00000000000E+00 -0.00000000000E+00 -0.50000000000E+03  0.50000000000E+03  0.00000000000E+00 0.  1.
         23    2    1    2    0    0 -0.14996250041E+03 -0.79973598464E+02 -0.41588978935E+03  0.45843840700E+03  0.91197193745E+02 0.  0.
        -11    1    1    2    0    0  0.11343142353E+03  0.74955203799E+02  0.46253407647E+03  0.48210241891E+03  0.00000000000E+00 0. -1.
         11    1    1    2    0    0  0.36531076875E+02  0.50183946645E+01 -0.46644287118E+02  0.59459174090E+02  0.00000000000E+00 0.  1.
        -15    1    3    3    0    0 -0.11714426458E+03 -0.99095868021E+02 -0.30934731927E+03  0.34531390278E+03  0.17770000000E+01 0.  1.
         15    1    3    3    0    0 -0.32818235831E+02  0.19122269557E+02 -0.10654247008E+03  0.11312450422E+03  0.17770000000E+01 0. -1.
</event>
<event>
 7    1  0.2288857E-006  0.5222727E+03  0.7546771E-02  0.9351307E-01
        -11   -1    0    0    0    0  0.00000000000E+00  0.00000000000E+00  0.50000000000E+03  0.50000000000E+03  0.00000000000E+00 0. -1.
         11   -1    0    0    0    0 -0.00000000000E+00 -0.00000000000E+00 -0.50000000000E+03  0.50000000000E+03  0.00000000000E+00 0.  1.
         23    2    1    2    0    0 -0.87679694240E+00 -0.35167855836E+02  0.17904634557E+03  0.20384060056E+03  0.90861706550E+02 0.  0.
        -11    1    1    2    0    0  0.16598082759E+03  0.36862985061E+02  0.26924057236E+03  0.31843209732E+03  0.00000000000E+00 0. -1.
         11    1    1    2    0    0 -0.16510403065E+03 -0.16951292242E+01 -0.44828691794E+03  0.47772730212E+03  0.00000000000E+00 0.  1.
        -15    1    3    3    0    0  0.31551066905E+02 -0.99876502329E+01  0.14974703071E+03  0.15337064228E+03  0.17770000000E+01 0. -1.
         15    1    3    3    0    0 -0.32427863847E+02 -0.25180205604E+02  0.29299314866E+02  0.50469958278E+02  0.17770000000E+01 0.  1.
</event>
<event>
 7    1  0.2288857E-006  0.4023946E+03  0.7546771E-02  0.9649352E-01
        -11   -1    0    0    0    0  0.00000000000E+00  0.00000000000E+00  0.50000000000E+03  0.50000000000E+03  0.00000000000E+00 0. -1.
         11   -1    0    0    0    0 -0.00000000000E+00 -0.00000000000E+00 -0.50000000000E+03  0.50000000000E+03  0.00000000000E+00 0.  1.
         23    2    1    2    0    0 -0.60792384471E+02 -0.10122383997E+03  0.35430075655E+03  0.38718051582E+03  0.10216528741E+03 0.  0.
        -11    1    1    2    0    0  0.27493171754E+02  0.17304462804E+03  0.64418962578E+02  0.18668186984E+03  0.00000000000E+00 0. -1.
         11    1    1    2    0    0  0.33299212718E+02 -0.71820788065E+02 -0.41871971913E+03  0.42613761434E+03  0.00000000000E+00 0.  1.
        -15    1    3    3    0    0 -0.53712721953E+02 -0.26893821565E+02  0.26016152543E+03  0.26701219295E+03  0.17770000000E+01 0. -1.
         15    1    3    3    0    0 -0.70796625181E+01 -0.74330018408E+02  0.94139231118E+02  0.12016832287E+03  0.17770000000E+01 0.  1.
</event>
<event>
 7    1  0.2288857E-006  0.4351424E+03  0.7546771E-02  0.9557911E-01
        -11   -1    0    0    0    0  0.00000000000E+00  0.00000000000E+00  0.50000000000E+03  0.50000000000E+03  0.00000000000E+00 0.  1.
         11   -1    0    0    0    0 -0.00000000000E+00 -0.00000000000E+00 -0.50000000000E+03  0.50000000000E+03  0.00000000000E+00 0. -1.
         23    2    1    2    0    0  0.21106151180E+02 -0.98892058807E+02  0.42069710379E+03  0.44235533388E+03  0.92016734144E+02 0.  0.
        -11    1    1    2    0    0 -0.12096689568E+03 -0.37996972176E+02 -0.27854775495E+02  0.12981775019E+03  0.00000000000E+00 0.  1.
         11    1    1    2    0    0  0.99860744504E+02  0.13688903098E+03 -0.39284232829E+03  0.42782691593E+03  0.00000000000E+00 0. -1.
        -15    1    3    3    0    0  0.34868357424E+02 -0.10023039287E+02  0.21216640299E+03  0.21525334830E+03  0.17770000000E+01 0.  1.
         15    1    3    3    0    0 -0.13762206244E+02 -0.88869019520E+02  0.20853070080E+03  0.22710198558E+03  0.17770000000E+01 0. -1.
</event>
<event>
 7    1  0.3956832E-006  0.5086691E+03  0.7546771E-02  0.9380618E-01
        -11   -1    0    0    0    0  0.00000000000E+00  0.00000000000E+00  0.50000000000E+03  0.50000000000E+03  0.00000000000E+00 0.  1.
         11   -1    0    0    0    0 -0.00000000000E+00 -0.00000000000E+00 -0.50000000000E+03  0.50000000000E+03  0.00000000000E+00 0. -1.
         23    2    1    2    0    0  0.20058516490E+01  0.27968759344E+02 -0.30529320226E+03  0.31916174450E+03  0.88735589639E+02 0.  0.
        -11    1    1    2    0    0  0.18117142462E+00 -0.97556081645E+02  0.48154833500E+03  0.49133086696E+03  0.00000000000E+00 0.  1.
         11    1    1    2    0    0 -0.21870230736E+01  0.69587322301E+02 -0.17625513274E+03  0.18950738854E+03  0.00000000000E+00 0. -1.
        -15    1    3    3    0    0  0.23099493829E+02  0.52780827947E+02 -0.15501503520E+03  0.16538506970E+03  0.17770000000E+01 0. -1.
         15    1    3    3    0    0 -0.21093642180E+02 -0.24812068602E+02 -0.15027816705E+03  0.15377667480E+03  0.17770000000E+01 0.  1.
</event>
<event>
 7    1  0.2288857E-006  0.5188260E+03  0.7546771E-02  0.9358643E-01
        -11   -1    0    0    0    0  0.00000000000E+00  0.00000000000E+00  0.50000000000E+03  0.50000000000E+03  0.00000000000E+00 0. -1.
         11   -1    0    0    0    0 -0.00000000000E+00 -0.00000000000E+00 -0.50000000000E+03  0.50000000000E+03  0.00000000000E+00 0.  1.
         23    2    1    2    0    0 -0.53613200273E+02 -0.10277655186E+02  0.34849508593E+03  0.36407182992E+03  0.90108085014E+02 0.  0.
        -11    1    1    2    0    0 -0.56456027429E+02  0.89094696454E+02  0.11324186470E+03  0.15475421768E+03  0.00000000000E+00 0. -1.
         11    1    1    2    0    0  0.11006922770E+03 -0.78817041268E+02 -0.46173695063E+03  0.48117395239E+03  0.00000000000E+00 0.  1.
        -15    1    3    3    0    0  0.10739678607E+02 -0.16362296382E+02  0.15985850511E+02  0.25333191371E+02  0.17770000000E+01 0.  1.
         15    1    3    3    0    0 -0.64352878880E+02  0.60846411963E+01  0.33250923542E+03  0.33873863855E+03  0.17770000000E+01 0. -1.
</event>
<event>
 7    1  0.2288857E-006  0.4304593E+03  0.7546771E-02  0.9570452E-01
        -11   -1    0    0    0    0  0.00000000000E+00  0.00000000000E+00  0.50000000000E+03  0.50000000000E+03  0.00000000000E+00 0. -1.
         11   -1    0    0    0    0 -0.00000000000E+00 -0.00000000000E+00 -0.50000000000E+03  0.50000000000E+03  0.00000000000E+00 0. -1.
         23    2    1    2    0    0  0.94659211611E+02  0.15076248727E+02  0.25181335185E+02  0.13339596589E+03  0.89290113979E+02 0.  0.
        -11    1    1    2    0    0 -0.59816196088E+02 -0.89658160712E+02  0.40988479934E+03  0.42381848925E+03  0.00000000000E+00 0. -1.
         11    1    1    2    0    0 -0.34843015524E+02  0.74581911984E+02 -0.43506613453E+03  0.44278554486E+03  0.00000000000E+00 0. -1.
        -15    1    3    3    0    0  0.75788287131E+02 -0.10793891487E+02  0.51186769254E+02  0.92106545019E+02  0.17770000000E+01 0.  1.
         15    1    3    3    0    0  0.18870924481E+02  0.25870140214E+02 -0.26005434069E+02  0.41289420868E+02  0.17770000000E+01 0. -1.
</event>
<event>
 7    1  0.2288857E-006  0.5378776E+03  0.7546771E-02  0.9318829E-01
        -11   -1    0    0    0    0  0.00000000000E+00  0.00000000000E+00  0.50000000000E+03  0.50000000000E+03  0.00000000000E+00 0. -1.
         11   -1    0    0    0    0 -0.00000000000E+00 -0.00000000000E+00 -0.50000000000E+03  0.50000000000E+03  0.00000000000E+00 0. -1.
         23    2    1    2    0    0  0.99138123894E+02 -0.26048243016E+03 -0.99505380696E+02  0.30952296162E+03  0.90684502256E+02 0.  0.
        -11    1    1    2    0    0 -0.17005199287E+03  0.29324184794E+03  0.31408379354E+03  0.46212237668E+03  0.00000000000E+00 0. -1.
         11    1    1    2    0    0  0.70913868973E+02 -0.32759417783E+02 -0.21457841284E+03  0.22835466171E+03  0.00000000000E+00 0. -1.
        -15    1    3    3    0    0  0.10905736703E+01 -0.38147712953E+02 -0.47608988575E+02  0.61042697160E+02  0.17770000000E+01 0.  1.
         15    1    3    3    0    0  0.98047550223E+02 -0.22233471721E+03 -0.51896392122E+02  0.24848026446E+03  0.17770000000E+01 0. -1.
</event>
<event>
 7    1  0.2288857E-006  0.5111857E+03  0.7546771E-02  0.9375123E-01
        -11   -1    0    0    0    0  0.00000000000E+00  0.00000000000E+00  0.50000000000E+03  0.50000000000E+03  0.00000000000E+00 0. -1.
         11   -1    0    0    0    0 -0.00000000000E+00 -0.00000000000E+00 -0.50000000000E+03  0.50000000000E+03  0.00000000000E+00 0.  1.
         23    2    1    2    0    0  0.14190357629E+01 -0.61635471778E+02  0.21404597190E+03  0.24175340227E+03  0.93957886194E+02 0.  0.
        -11    1    1    2    0    0  0.41615440788E+02 -0.11894806300E+03  0.23814544826E+03  0.26943225704E+03  0.00000000000E+00 0. -1.
         11    1    1    2    0    0 -0.43034476551E+02  0.18058353478E+03 -0.45219142016E+03  0.48881434070E+03  0.00000000000E+00 0.  1.
        -15    1    3    3    0    0 -0.28549017241E+02 -0.46625630727E+02  0.19631607069E+03  0.20379438943E+03  0.17770000000E+01 0. -1.
         15    1    3    3    0    0  0.29968053004E+02 -0.15009841051E+02  0.17729901210E+02  0.37959012831E+02  0.17770000000E+01 0.  1.
</event>
<event>
 7    1  0.2288857E-006  0.4401443E+03  0.7546771E-02  0.9544700E-01
        -11   -1    0    0    0    0  0.00000000000E+00  0.00000000000E+00  0.50000000000E+03  0.50000000000E+03  0.00000000000E+00 0. -1.
         11   -1    0    0    0    0 -0.00000000000E+00 -0.00000000000E+00 -0.50000000000E+03  0.50000000000E+03  0.00000000000E+00 0. -1.
         23    2    1    2    0    0  0.22424230337E+02 -0.37608200929E+01  0.40242871392E+03  0.41372744089E+03  0.93298101191E+02 0.  0.
        -11    1    1    2    0    0 -0.23603554092E+02 -0.10852244730E+03  0.48780839316E+02  0.12130053428E+03  0.00000000000E+00 0. -1.
         11    1    1    2    0    0  0.11793237551E+01  0.11228326739E+03 -0.45120955324E+03  0.46497202483E+03  0.00000000000E+00 0. -1.
        -15    1    3    3    0    0 -0.30466284828E+02 -0.15601267148E+02  0.84156760076E+02  0.90868652699E+02  0.17770000000E+01 0. -1.
         15    1    3    3    0    0  0.52890515165E+02  0.11840447055E+02  0.31827195384E+03  0.32285878819E+03  0.17770000000E+01 0.  1.
</event>
<event>
 7    1  0.2288857E-006  0.4704602E+03  0.7546771E-02  0.9468447E-01
        -11   -1    0    0    0    0  0.00000000000E+00  0.00000000000E+00  0.50000000000E+03  0.50000000000E+03  0.00000000000E+00 0. -1.
         11   -1    0    0    0    0 -0.00000000000E+00 -0.00000000000E+00 -0.50000000000E+03  0.50000000000E+03  0.00000000000E+00 0. -1.
         23    2    1    2    0    0  0.17092071133E+02  0.47643950912E+01  0.45333444033E+03  0.46284033986E+03  0.91620014503E+02 0.  0.
        -11    1    1    2    0    0  0.36266546222E+02  0.53676306434E+02  0.11365965391E+02  0.65769243697E+02  0.00000000000E+00 0. -1.
         11    1    1    2    0    0 -0.53358617355E+02 -0.58440701525E+02 -0.46470040572E+03  0.47139041644E+03  0.00000000000E+00 0. -1.
        -15    1    3    3    0    0  0.37275219492E+02  0.38262884759E+02  0.28958567189E+03  0.29447667044E+03  0.17770000000E+01 0. -1.
         15    1    3    3    0    0 -0.20183148359E+02 -0.33498489668E+02  0.16374876844E+03  0.16836366942E+03  0.17770000000E+01 0.  1.
</event>
<event>
 7    1  0.2288857E-006  0.5246452E+03  0.7546771E-02  0.9346292E-01
        -11   -1    0    0    0    0  0.00000000000E+00  0.00000000000E+00  0.50000000000E+03  0.50000000000E+03  0.00000000000E+00 0.  1.
         11   -1    0    0    0    0 -0.00000000000E+00 -0.00000000000E+00 -0.50000000000E+03  0.50000000000E+03  0.00000000000E+00 0. -1.
         23    2    1    2    0    0  0.19192019931E+02 -0.89911945907E+01  0.34570540711E+03  0.36002725288E+03  0.98276238727E+02 0.  0.
        -11    1    1    2    0    0 -0.11067079084E+03  0.16821453740E+02  0.12069836130E+03  0.16461798101E+03  0.00000000000E+00 0.  1.
         11    1    1    2    0    0  0.91478770909E+02 -0.78302591489E+01 -0.46640376841E+03  0.47535476612E+03  0.00000000000E+00 0. -1.
        -15    1    3    3    0    0  0.45570679897E+02  0.28258232660E+02  0.21411449096E+03  0.22073374809E+03  0.17770000000E+01 0.  1.
         15    1    3    3    0    0 -0.26378659965E+02 -0.37249427251E+02  0.13159091616E+03  0.13929350479E+03  0.17770000000E+01 0. -1.
</event>
<event>
 7    1  0.2471898E-006  0.5112218E+03  0.7546771E-02  0.9375044E-01
        -11   -1    0    0    0    0  0.00000000000E+00  0.00000000000E+00  0.50000000000E+03  0.50000000000E+03  0.00000000000E+00 0. -1.
         11   -1    0    0    0    0 -0.00000000000E+00 -0.00000000000E+00 -0.50000000000E+03  0.50000000000E+03  0.00000000000E+00 0.  1.
         23    2    1    2    0    0  0.16404285122E+02 -0.67452847173E+02 -0.22050252135E+03  0.24852039450E+03  0.91225201556E+02 0.  0.
        -11    1    1    2    0    0 -0.76343499365E+01  0.20815588351E+03  0.44217297545E+03  0.48877816580E+03  0.00000000000E+00 0. -1.
         11    1    1    2    0    0 -0.87699351859E+01 -0.14070303634E+03 -0.22167045411E+03  0.26270143970E+03  0.00000000000E+00 0.  1.
        -15    1    3    3    0    0 -0.13541785181E+02 -0.44226069918E+02 -0.20021784431E+03  0.20549858422E+03  0.17770000000E+01 0.  1.
         15    1    3    3    0    0  0.29946070303E+02 -0.23226777255E+02 -0.20284677036E+02  0.43021810279E+02  0.17770000000E+01 0. -1.
</event>
<event>
 7    1  0.2288857E-006  0.5302270E+03  0.7546771E-02  0.9334604E-01
        -11   -1    0    0    0    0  0.00000000000E+00  0.00000000000E+00  0.50000000000E+03  0.50000000000E+03  0.00000000000E+00 0.  1.
         11   -1    0    0    0    0 -0.00000000000E+00 -0.00000000000E+00 -0.50000000000E+03  0.50000000000E+03  0.00000000000E+00 0. -1.
         23    2    1    2    0    0 -0.28867971688E+02 -0.51143559532E+02  0.36549718006E+03  0.38080219880E+03  0.89292230957E+02 0.  0.
        -11    1    1    2    0    0 -0.12598119812E+03 -0.42914795147E+02  0.67932623175E+02  0.14942484136E+03  0.00000000000E+00 0.  1.
         11    1    1    2    0    0  0.15484916981E+03  0.94058354679E+02 -0.43342980323E+03  0.46977295985E+03  0.00000000000E+00 0. -1.
        -15    1    3    3    0    0  0.30300617533E+02 -0.33098234196E+01  0.93563428934E+02  0.98419283257E+02  0.17770000000E+01 0. -1.
         15    1    3    3    0    0 -0.59168589221E+02 -0.47833736113E+02  0.27193375112E+03  0.28238291554E+03  0.17770000000E+01 0.  1.
</event>
<event>
 7    1  0.2288857E-006  0.4781286E+03  0.7546771E-02  0.9450124E-01
        -11   -1    0    0    0    0  0.00000000000E+00  0.00000000000E+00  0.50000000000E+03  0.50000000000E+03  0.00000000000E+00 0.  1.
         11   -1    0    0    0    0 -0.00000000000E+00 -0.00000000000E+00 -0.50000000000E+03  0.50000000000E+03  0.00000000000E+00 0. -1.
         23    2    1    2    0    0  0.10022826058E+03 -0.74543292924E+01  0.44430967476E+03  0.46432823817E+03  0.89935279114E+02 0.  0.
        -11    1    1    2    0    0  0.44792133754E+02  0.15979576800E+02  0.18172276729E+02  0.50910841306E+02  0.00000000000E+00 0.  1.
         11    1    1    2    0    0 -0.14502039433E+03 -0.85252475076E+01 -0.46248195149E+03  0.48476092053E+03  0.00000000000E+00 0. -1.
        -15    1    3    3    0    0  0.69567344214E+02 -0.47469916311E+02  0.28958259444E+03  0.30158621498E+03  0.17770000000E+01 0.  1.
         15    1    3    3    0    0  0.30660916362E+02  0.40015587018E+02  0.15472708032E+03  0.16274202319E+03  0.17770000000E+01 0. -1.
</event>
<event>
 7    1  0.2288857E-006  0.4384447E+03  0.7546771E-02  0.9549168E-01
        -11   -1    0    0    0    0  0.00000000000E+00  0.00000000000E+00  0.50000000000E+03  0.50000000000E+03  0.00000000000E+00 0.  1.
         11   -1    0    0    0    0 -0.00000000000E+00 -0.00000000000E+00 -0.50000000000E+03  0.50000000000E+03  0.00000000000E+00 0.  1.
         23    2    1    2    0    0 -0.62932747057E+02 -0.22575475705E+02  0.44375229799E+03  0.45808581951E+03  0.91958323768E+02 0.  0.
        -11    1    1    2    0    0  0.80029842831E+02 -0.85673443050E+02 -0.40500937184E+02  0.12403644827E+03  0.00000000000E+00 0.  1.
         11    1    1    2    0    0 -0.17097095774E+02  0.10824891876E+03 -0.40325136080E+03  0.41787773222E+03  0.00000000000E+00 0.  1.
        -15    1    3    3    0    0 -0.79588908108E+02 -0.40366093950E+02  0.34933482163E+03  0.36055761144E+03  0.17770000000E+01 0.  1.
         15    1    3    3    0    0  0.16656161051E+02  0.17790618244E+02  0.94417476351E+02  0.97528208063E+02  0.17770000000E+01 0. -1.
</event>
<event>
 7    1  0.2288857E-006  0.4651156E+03  0.7546771E-02  0.9481438E-01
        -11   -1    0    0    0    0  0.00000000000E+00  0.00000000000E+00  0.50000000000E+03  0.50000000000E+03  0.00000000000E+00 0.  1.
         11   -1    0    0    0    0 -0.00000000000E+00 -0.00000000000E+00 -0.50000000000E+03  0.50000000000E+03  0.00000000000E+00 0.  1.
         23    2    1    2    0    0  0.15694250438E+02 -0.52957728551E+02  0.44658811199E+03  0.45906806371E+03  0.90838950033E+02 0.  0.
        -11    1    1    2    0    0 -0.73913999689E+02 -0.12121324694E+02  0.10450229659E+02  0.75626801878E+02  0.00000000000E+00 0.  1.
         11    1    1    2    0    0  0.58219749251E+02  0.65079053245E+02 -0.45703834165E+03  0.46530513441E+03  0.00000000000E+00 0.  1.
        -15    1    3    3    0    0 -0.21610523379E+01 -0.74203601498E+02  0.37473064256E+03  0.38201708970E+03  0.17770000000E+01 0.  1.
         15    1    3    3    0    0  0.17855302776E+02  0.21245872947E+02  0.71857469430E+02  0.77050974013E+02  0.17770000000E+01 0. -1.
</event>
<event>
 7    1  0.2288857E-006  0.5100212E+03  0.7546771E-02  0.9377661E-01
        -11   -1    0    0    0    0  0.00000000000E+00  0.00000000000E+00  0.50000000000E+03  0.50000000000E+03  0.00000000000E+00 0. -1.
         11   -1    0    0    0    0 -0.00000000000E+00 -0.00000000000E+00 -0.50000000000E+03  0.50000000000E+03  0.00000000000E+00 0. -1.
         23    2    1    2    0    0  0.20364445153E+03 -0.28572610008E+03  0.32961635909E+03  0.48997877069E+03  0.91223816190E+02 0.  0.
        -11    1    1    2    0    0 -0.17359898791E+03  0.28925566692E+03 -0.23617796159E+03  0.41180757519E+03  0.00000000000E+00 0. -1.
         11    1    1    2    0    0 -0.30045463621E+02 -0.35295668391E+01 -0.93438397505E+02  0.98213654115E+02  0.00000000000E+00 0. -1.
        -15    1    3    3    0    0  0.11186456909E+03 -0.16587176159E+03  0.12579654907E+03  0.23633673560E+03  0.17770000000E+01 0. -1.
         15    1    3    3    0    0  0.91779882442E+02 -0.11985433850E+03  0.20381981002E+03  0.25364203509E+03  0.17770000000E+01 0.  1.
</event>
<event>
 6    1  0.2288857E-006  0.3888271E+03  0.7546771E-02  0.9690002E-01
        -11   -1    0    0    0    0  0.00000000000E+00  0.00000000000E+00  0.50000000000E+03  0.50000000000E+03  0.00000000000E+00 0. -1.
         11   -1    0    0    0    0 -0.00000000000E+00 -0.00000000000E+00 -0.50000000000E+03  0.50000000000E+03  0.00000000000E+00 0. -1.
        -11    1    1    2    0    0 -0.24442102526E+03  0.10281432470E+03 -0.14030824400E+03  0.29999804381E+03  0.00000000000E+00 0. -1.
         11    1    1    2    0    0  0.71794246909E+02 -0.52296735133E+02 -0.22563142642E+03  0.24248485104E+03  0.00000000000E+00 0. -1.
        -15    1    1    2    0    0  0.14816756498E+03  0.79237927504E+00  0.84894965200E+02  0.17077636845E+03  0.17770000000E+01 0. -1.
         15    1    1    2    0    0  0.24459213372E+02 -0.51309968846E+02  0.28104470522E+03  0.28674073670E+03  0.17770000000E+01 0.  1.
</event>
<event>
 7    1  0.2288857E-006  0.4195147E+03  0.7546771E-02  0.9600436E-01
        -11   -1    0    0    0    0  0.00000000000E+00  0.00000000000E+00  0.50000000000E+03  0.50000000000E+03  0.00000000000E+00 0.  1.
         11   -1    0    0    0    0 -0.00000000000E+00 -0.00000000000E+00 -0.50000000000E+03  0.50000000000E+03  0.00000000000E+00 0. -1.
         23    2    1    2    0    0 -0.14320368820E+02  0.55837252247E+02 -0.10747330841E+03  0.15215344926E+03  0.90979604312E+02 0.  0.
        -11    1    1    2    0    0 -0.18836157858E+03  0.23505996053E+03  0.31596811426E+03  0.43654222998E+03  0.00000000000E+00 0.  1.
         11    1    1    2    0    0  0.20268194740E+03 -0.29089721278E+03 -0.20849480585E+03  0.41130432075E+03  0.00000000000E+00 0. -1.
        -15    1    3    3    0    0 -0.46201285835E+02  0.47905611565E+02 -0.41559771627E+02  0.78484895228E+02  0.17770000000E+01 0. -1.
         15    1    3    3    0    0  0.31880917015E+02  0.79316406818E+01 -0.65913536780E+02  0.73668554035E+02  0.17770000000E+01 0.  1.
</event>
<event>
 7    1  0.2288857E-006  0.4874089E+03  0.7546771E-02  0.9428433E-01
        -11   -1    0    0    0    0  0.00000000000E+00  0.00000000000E+00  0.50000000000E+03  0.50000000000E+03  0.00000000000E+00 0. -1.
         11   -1    0    0    0    0 -0.00000000000E+00 -0.00000000000E+00 -0.50000000000E+03  0.50000000000E+03  0.00000000000E+00 0. -1.
         23    2    1    2    0    0 -0.75967810501E+02  0.40138630750E+02  0.45692961462E+03  0.47338680216E+03  0.89040293309E+02 0.  0.
        -11    1    1    2    0    0  0.10323710990E+02  0.80972949742E+01  0.30090922588E+02  0.32826952595E+02  0.00000000000E+00 0. -1.
         11    1    1    2    0    0  0.65644099511E+02 -0.48235925725E+02 -0.48702053721E+03  0.49378624524E+03  0.00000000000E+00 0. -1.
        -15    1    3    3    0    0 -0.55054521389E+02 -0.13845828538E+02  0.13784127228E+03  0.14908414190E+03  0.17770000000E+01 0. -1.
         15    1    3    3    0    0 -0.20913289112E+02  0.53984459289E+02  0.31908834234E+03  0.32430266026E+03  0.17770000000E+01 0.  1.
</event>
<event>
 7    1  0.2856859E-006  0.5229857E+03  0.7546771E-02  0.9349797E-01
        -11   -1    0    0    0    0  0.00000000000E+00  0.00000000000E+00  0.50000000000E+03  0.50000000000E+03  0.00000000000E+00 0.  1.
         11   -1    0    0    0    0 -0.00000000000E+00 -0.00000000000E+00 -0.50000000000E+03  0.50000000000E+03  0.00000000000E+00 0. -1.
         23    2    1    2    0    0  0.19927845052E+02  0.68930819151E+01 -0.28573000535E+03  0.30105040860E+03  0.92439596341E+02 0.  0.
        -11    1    1    2    0    0  0.21174329002E+02  0.12410720676E+03  0.46009969876E+03  0.47701434336E+03  0.00000000000E+00 0.  1.
         11    1    1    2    0    0 -0.41102174054E+02 -0.13100028867E+03 -0.17436969340E+03  0.22193524804E+03  0.00000000000E+00 0. -1.
        -15    1    3    3    0    0  0.21420346879E+02  0.47854863875E+02 -0.13494398771E+03  0.14478244646E+03  0.17770000000E+01 0.  1.
         15    1    3    3    0    0 -0.14925018277E+01 -0.40961781960E+02 -0.15078601765E+03  0.15626796214E+03  0.17770000000E+01 0. -1.
</event>
<event>
 7    1  0.2288857E-006  0.5156863E+03  0.7546771E-02  0.9365379E-01
        -11   -1    0    0    0    0  0.00000000000E+00  0.00000000000E+00  0.50000000000E+03  0.50000000000E+03  0.00000000000E+00 0.  1.
         11   -1    0    0    0    0 -0.00000000000E+00 -0.00000000000E+00 -0.50000000000E+03  0.50000000000E+03  0.00000000000E+00 0. -1.
         23    2    1    2    0    0  0.12356259017E+03 -0.43459569241E+02  0.39169291459E+03  0.42255772756E+03  0.89304232444E+02 0.  0.
        -11    1    1    2    0    0 -0.40555337503E+02  0.33645346002E+01  0.83766798577E+02  0.93128577981E+02  0.00000000000E+00 0.  1.
         11    1    1    2    0    0 -0.83007252669E+02  0.40095034641E+02 -0.47545971316E+03  0.48431369446E+03  0.00000000000E+00 0. -1.
        -15    1    3    3    0    0  0.39942313190E+01  0.18212528757E+02  0.20679429807E+02  0.27900656510E+02  0.17770000000E+01 0. -1.
         15    1    3    3    0    0  0.11956835885E+03 -0.61672097998E+02  0.37101348478E+03  0.39465707105E+03  0.17770000000E+01 0.  1.
</event>
<event>
 7    1  0.2288857E-006  0.5184648E+03  0.7546771E-02  0.9359415E-01
        -11   -1    0    0    0    0  0.00000000000E+00  0.00000000000E+00  0.50000000000E+03  0.50000000000E+03  0.00000000000E+00 0.  1.
         11   -1    0    0    0    0 -0.00000000000E+00 -0.00000000000E+00 -0.50000000000E+03  0.50000000000E+03  0.00000000000E+00 0. -1.
         23    2    1    2    0    0  0.96842230593E+02  0.48261899309E+02 -0.15429410024E+03  0.21163493246E+03  0.96307043968E+02 0.  0.
        -11    1    1    2    0    0 -0.17552609785E+03 -0.93987326982E+01  0.44830613614E+03  0.48153518969E+03  0.00000000000E+00 0.  1.
         11    1    1    2    0    0  0.78683867260E+02 -0.38863166611E+02 -0.29401203591E+03  0.30682987785E+03  0.00000000000E+00 0. -1.
        -15    1    3    3    0    0  0.71868979127E+02  0.33563580713E+02 -0.31349347147E+02  0.85308870620E+02  0.17770000000E+01 0.  1.
         15    1    3    3    0    0  0.24973251466E+02  0.14698318596E+02 -0.12294475309E+03  0.12632606184E+03  0.17770000000E+01 0. -1.
</event>
<event>
 7    1  0.2288857E-006  0.5196605E+03  0.7546771E-02  0.9356861E-01
        -11   -1    0    0    0    0  0.00000000000E+00  0.00000000000E+00  0.50000000000E+03  0.50000000000E+03  0.00000000000E+00 0. -1.
         11   -1    0    0    0    0 -0.00000000000E+00 -0.00000000000E+00 -0.50000000000E+03  0.50000000000E+03  0.00000000000E+00 0.  1.
         23    2    1    2    0    0 -0.13972007727E+02  0.15827437858E+02  0.86495449144E+02  0.12628126830E+03  0.89553175330E+02 0.  0.
        -11    1    1    2    0    0 -0.14146689143E+03  0.22847387010E+02  0.36635003157E+03  0.39337924462E+03  0.00000000000E+00 0. -1.
         11    1    1    2    0    0  0.15543889916E+03 -0.38674824868E+02 -0.45284548071E+03  0.48033948708E+03  0.00000000000E+00 0.  1.
        -15    1    3    3    0    0 -0.85358238928E+00 -0.24190337683E+02 -0.56793059935E+01  0.24926156657E+02  0.17770000000E+01 0. -1.
         15    1    3    3    0    0 -0.13118425338E+02  0.40017775540E+02  0.92174755137E+02  0.10135511164E+03  0.17770000000E+01 0.  1.
</event>
<event>
 7    1  0.2288857E-006  0.4846284E+03  0.7546771E-02  0.9434877E-01
        -11   -1    0    0    0    0  0.00000000000E+00  0.00000000000E+00  0.50000000000E+03  0.50000000000E+03  0.00000000000E+00 0.  1.
         11   -1    0    0    0    0 -0.00000000000E+00 -0.00000000000E+00 -0.50000000000E+03  0.50000000000E+03  0.00000000000E+00 0. -1.
         23    2    1    2    0    0 -0.34217705506E+02 -0.11121527958E+03  0.46933006898E+03  0.49149617158E+03  0.88079982075E+02 0.  0.
        -11    1    1    2    0    0  0.14039944765E+02  0.34938898030E+02 -0.55510659406E+01  0.38061279243E+02  0.00000000000E+00 0.  1.
         11    1    1    2    0    0  0.20177760741E+02  0.76276381550E+02 -0.46377900304E+03  0.47044254918E+03  0.00000000000E+00 0. -1.
        -15    1    3    3    0    0  0.43468987218E+01 -0.17608538640E+02  0.93102112348E+01  0.20464455130E+02  0.17770000000E+01 0. -1.
         15    1    3    3    0    0 -0.38564604228E+02 -0.93606740940E+02  0.46001985775E+03  0.47103171645E+03  0.17770000000E+01 0.  1.
</event>
<event>
 6    1  0.2288857E-006  0.3653922E+03  0.7546771E-02  0.9764573E-01
        -11   -1    0    0    0    0  0.00000000000E+00  0.00000000000E+00  0.50000000000E+03  0.50000000000E+03  0.00000000000E+00 0.  1.
         11   -1    0    0    0    0 -0.00000000000E+00 -0.00000000000E+00 -0.50000000000E+03  0.50000000000E+03  0.00000000000E+00 0.  1.
        -11    1    1    2    0    0  0.73989063242E+02  0.21216543723E+03  0.15822444961E+03  0.27481544842E+03  0.00000000000E+00 0.  1.
         11    1    1    2    0    0 -0.13467417525E+03  0.97728513856E+02 -0.28533040416E+03  0.33030506420E+03  0.00000000000E+00 0.  1.
        -15    1    1    2    0    0  0.15520391915E+02  0.24029341529E+02  0.35607640792E+02  0.45709447943E+02  0.17770000000E+01 0. -1.
         15    1    1    2    0    0  0.45164720092E+02 -0.33392329262E+03  0.91498313755E+02  0.34917003944E+03  0.17770000000E+01 0.  1.
</event>
<event>
 6    1  0.2288857E-006  0.5497982E+03  0.7546771E-02  0.9294797E-01
        -11   -1    0    0    0    0  0.00000000000E+00  0.00000000000E+00  0.50000000000E+03  0.50000000000E+03  0.00000000000E+00 0.  1.
         11   -1    0    0    0    0 -0.00000000000E+00 -0.00000000000E+00 -0.50000000000E+03  0.50000000000E+03  0.00000000000E+00 0. -1.
        -11    1    1    2    0    0  0.12445644358E+03  0.91118483496E+02  0.23021102615E+03  0.27710846422E+03  0.00000000000E+00 0.  1.
         11    1    1    2    0    0 -0.31660183268E+02 -0.86095439456E+02 -0.44075714895E+03  0.45020179504E+03  0.00000000000E+00 0. -1.
        -15    1    1    2    0    0 -0.91764846803E+02 -0.51110020880E+02  0.19916631306E+03  0.22517415333E+03  0.17770000000E+01 0.  1.
         15    1    1    2    0    0 -0.10314135099E+01  0.46086976839E+02  0.11379809752E+02  0.47515587411E+02  0.17770000000E+01 0. -1.
</event>
<event>
 7    1  0.2288857E-006  0.3393138E+03  0.7546771E-02  0.9854939E-01
        -11   -1    0    0    0    0  0.00000000000E+00  0.00000000000E+00  0.50000000000E+03  0.50000000000E+03  0.00000000000E+00 0. -1.
         11   -1    0    0    0    0 -0.00000000000E+00 -0.00000000000E+00 -0.50000000000E+03  0.50000000000E+03  0.00000000000E+00 0.  1.
         23    2    1    2    0    0  0.20975405294E+03  0.27945184980E+02 -0.14714036139E+03  0.27407758180E+03  0.93223059431E+02 0.  0.
        -11    1    1    2    0    0 -0.14798126088E+03 -0.10060180188E+03  0.40943477972E+03  0.44682884302E+03  0.00000000000E+00 0. -1.
         11    1    1    2    0    0 -0.61772792050E+02  0.72656616897E+02 -0.26229441833E+03  0.27909357517E+03  0.00000000000E+00 0.  1.
        -15    1    3    3    0    0  0.14027159124E+02  0.90048066660E+01  0.12399430634E+02  0.20850691721E+02  0.17770000000E+01 0. -1.
         15    1    3    3    0    0  0.19572689381E+03  0.18940378314E+02 -0.15953979203E+03  0.25322689008E+03  0.17770000000E+01 0.  1.
</event>
<event>
 7    1  0.2288857E-006  0.5201051E+03  0.7546771E-02  0.9355914E-01
        -11   -1    0    0    0    0  0.00000000000E+00  0.00000000000E+00  0.50000000000E+03  0.50000000000E+03  0.00000000000E+00 0.  1.
         11   -1    0    0    0    0 -0.00000000000E+00 -0.00000000000E+00 -0.50000000000E+03  0.50000000000E+03  0.00000000000E+00 0.  1.
         23    2    1    2    0    0  0.35761949428E+02  0.27234792686E+01  0.33190311927E+03  0.34608692818E+03  0.91269638505E+02 0.  0.
        -11    1    1    2    0    0 -0.14299999903E+02 -0.10780318383E+03  0.13585401682E+03  0.17401818964E+03  0.00000000000E+00 0.  1.
         11    1    1    2    0    0 -0.21461949525E+02  0.10507970456E+03 -0.46775713608E+03  0.47989488218E+03  0.00000000000E+00 0.  1.
        -15    1    3    3    0    0  0.25279156338E+02 -0.41494007810E+02  0.21974036337E+03  0.22505504538E+03  0.17770000000E+01 0.  1.
         15    1    3    3    0    0  0.10482793090E+02  0.44217487078E+02  0.11216275590E+03  0.12103188280E+03  0.17770000000E+01 0. -1.
</event>
<event>
 7    1  0.2288857E-006  0.4169680E+03  0.7546771E-02  0.9607553E-01
        -11   -1    0    0    0    0  0.00000000000E+00  0.00000000000E+00  0.50000000000E+03  0.50000000000E+03  0.00000000000E+00 0.  1.
         11   -1    0    0    0    0 -0.00000000000E+00 -0.00000000000E+00 -0.50000000000E+03  0.50000000000E+03  0.00000000000E+00 0.  1.
         23    2    1    2    0    0 -0.99366220980E+02  0.15993139882E+03  0.33546338673E+03  0.39625134314E+03  0.95014445726E+02 0.  0.
        -11    1    1    2    0    0  0.38352324877E+02 -0.11997008296E+03  0.10086816204E+03  0.16136327879E+03  0.00000000000E+00 0.  1.
         11    1    1    2    0    0  0.61013896103E+02 -0.39961315866E+02 -0.43633154877E+03  0.44238537808E+03  0.00000000000E+00 0.  1.
        -15    1    3    3    0    0 -0.55787946119E+02  0.15752204090E+03  0.26086321024E+03  0.30980358372E+03  0.17770000000E+01 0.  1.
         15    1    3    3    0    0 -0.43578274861E+02  0.24093579203E+01  0.74600176496E+02  0.86447759414E+02  0.17770000000E+01 0. -1.
</event>
<event>
 7    1  0.2288857E-006  0.5149967E+03  0.7546771E-02  0.9366865E-01
        -11   -1    0    0    0    0  0.00000000000E+00  0.00000000000E+00  0.50000000000E+03  0.50000000000E+03  0.00000000000E+00 0.  1.
         11   -1    0    0    0    0 -0.00000000000E+00 -0.00000000000E+00 -0.50000000000E+03  0.50000000000E+03  0.00000000000E+00 0. -1.
         23    2    1    2    0    0  0.44965847804E+02  0.63230112595E+02  0.25757649630E+03  0.28689496198E+03  0.99715059808E+02 0.  0.
        -11    1    1    2    0    0  0.90739030770E+02 -0.31137746915E+02  0.20694746279E+03  0.22810169518E+03  0.00000000000E+00 0.  1.
         11    1    1    2    0    0 -0.13570487857E+03 -0.32092365680E+02 -0.46452395909E+03  0.48500334285E+03  0.00000000000E+00 0. -1.
        -15    1    3    3    0    0  0.62369931316E+02  0.52448356475E+02  0.25304776804E+03  0.26585178026E+03  0.17770000000E+01 0.  1.
         15    1    3    3    0    0 -0.17404083512E+02  0.10781756121E+02  0.45287282602E+01  0.21043181713E+02  0.17770000000E+01 0. -1.
</event>
<event>
 6    1  0.2288857E-006  0.4903642E+03  0.7546771E-02  0.9421632E-01
        -11   -1    0    0    0    0  0.00000000000E+00  0.00000000000E+00  0.50000000000E+03  0.50000000000E+03  0.00000000000E+00 0.  1.
         11   -1    0    0    0    0 -0.00000000000E+00 -0.00000000000E+00 -0.50000000000E+03  0.50000000000E+03  0.00000000000E+00 0.  1.
        -11    1    1    2    0    0  0.28779971112E+02 -0.15483639803E+02  0.14710869420E+02  0.35839078083E+02  0.00000000000E+00 0.  1.
         11    1    1    2    0    0  0.35273758050E+02  0.10248583213E+03 -0.46815644412E+03  0.48053932198E+03  0.00000000000E+00 0.  1.
        -15    1    1    2    0    0 -0.95371817542E+02 -0.61953385104E+02  0.22987178280E+03  0.25647261017E+03  0.17770000000E+01 0.  1.
         15    1    1    2    0    0  0.31318088379E+02 -0.25048807226E+02  0.22357379190E+03  0.22714898977E+03  0.17770000000E+01 0. -1.
</event>
<event>
 7    1  0.2288857E-006  0.3788508E+03  0.7546771E-02  0.9721040E-01
        -11   -1    0    0    0    0  0.00000000000E+00  0.00000000000E+00  0.50000000000E+03  0.50000000000E+03  0.00000000000E+00 0.  1.
         11   -1    0    0    0    0 -0.00000000000E+00 -0.00000000000E+00 -0.50000000000E+03  0.50000000000E+03  0.00000000000E+00 0.  1.
         23    2    1    2    0    0 -0.21088164566E+03 -0.26029935635E+03  0.13375199112E+02  0.34778040332E+03  0.92441817299E+02 0.  0.
        -11    1    1    2    0    0  0.39153055354E+03  0.16438392096E+03  0.71788684866E+02  0.43066444374E+03  0.00000000000E+00 0.  1.
         11    1    1    2    0    0 -0.18064890787E+03  0.95915435394E+02 -0.85163883978E+02  0.22155515294E+03  0.00000000000E+00 0.  1.
        -15    1    3    3    0    0 -0.72237501493E+02 -0.16192024224E+03  0.93333566094E+00  0.17731455190E+03  0.17770000000E+01 0.  1.
         15    1    3    3    0    0 -0.13864414417E+03 -0.98379114113E+02  0.12441863451E+02  0.17046585142E+03  0.17770000000E+01 0. -1.
</event>
<event>
 7    1  0.2288857E-006  0.3568351E+03  0.7546771E-02  0.9793309E-01
        -11   -1    0    0    0    0  0.00000000000E+00  0.00000000000E+00  0.50000000000E+03  0.50000000000E+03  0.00000000000E+00 0.  1.
         11   -1    0    0    0    0 -0.00000000000E+00 -0.00000000000E+00 -0.50000000000E+03  0.50000000000E+03  0.00000000000E+00 0. -1.
         23    2    1    2    0    0 -0.11778952600E+03 -0.21704835334E+03  0.19519847323E+03  0.32775437814E+03  0.91302400374E+02 0.  0.
        -11    1    1    2    0    0  0.67844773222E+02  0.12518277881E+03  0.21002957374E+03  0.25374409000E+03  0.00000000000E+00 0.  1.
         11    1    1    2    0    0  0.49944752782E+02  0.91865574529E+02 -0.40522804697E+03  0.41850153186E+03  0.00000000000E+00 0. -1.
        -15    1    3    3    0    0  0.87415929350E-02 -0.79034926136E+02  0.81897109277E+02  0.11382800122E+03  0.17770000000E+01 0. -1.
         15    1    3    3    0    0 -0.11779826760E+03 -0.13801342721E+03  0.11330136396E+03  0.21392637692E+03  0.17770000000E+01 0.  1.
</event>
<event>
 7    1  0.2288857E-006  0.3770427E+03  0.7546771E-02  0.9726775E-01
        -11   -1    0    0    0    0  0.00000000000E+00  0.00000000000E+00  0.50000000000E+03  0.50000000000E+03  0.00000000000E+00 0.  1.
         11   -1    0    0    0    0 -0.00000000000E+00 -0.00000000000E+00 -0.50000000000E+03  0.50000000000E+03  0.00000000000E+00 0. -1.
         23    2    1    2    0    0  0.16097719918E+02 -0.57321155071E+02  0.32364484511E+03  0.34077150259E+03  0.88512031993E+02 0.  0.
        -11    1    1    2    0    0 -0.20487697375E+03 -0.77220092731E+02  0.45220433967E+02  0.22356745010E+03  0.00000000000E+00 0.  1.
         11    1    1    2    0    0  0.18877925383E+03  0.13454124780E+03 -0.36886527908E+03  0.43566104731E+03  0.00000000000E+00 0. -1.
        -15    1    3    3    0    0  0.46776186758E+02 -0.13220024069E+02  0.10665086267E+03  0.11721921737E+03  0.17770000000E+01 0. -1.
         15    1    3    3    0    0 -0.30678466839E+02 -0.44101131002E+02  0.21699398244E+03  0.22355228522E+03  0.17770000000E+01 0.  1.
</event>
<event>
 7    1  0.2288857E-006  0.3408600E+03  0.7546771E-02  0.9849341E-01
        -11   -1    0    0    0    0  0.00000000000E+00  0.00000000000E+00  0.50000000000E+03  0.50000000000E+03  0.00000000000E+00 0.  1.
         11   -1    0    0    0    0 -0.00000000000E+00 -0.00000000000E+00 -0.50000000000E+03  0.50000000000E+03  0.00000000000E+00 0. -1.
         23    2    1    2    0    0  0.22377065478E+03 -0.86307565451E+02 -0.12069912440E+03  0.28347320133E+03  0.90920159725E+02 0.  0.
        -11    1    1    2    0    0 -0.19695794492E+03  0.42237737643E+02  0.39180659760E+03  0.44055518210E+03  0.00000000000E+00 0.  1.
         11    1    1    2    0    0 -0.26812709860E+02  0.44069827808E+02 -0.27110747320E+03  0.27597161658E+03  0.00000000000E+00 0. -1.
        -15    1    3    3    0    0  0.33228665779E+02  0.16842466167E+02 -0.43928612250E+01  0.37553533187E+02  0.17770000000E+01 0.  1.
         15    1    3    3    0    0  0.19054198900E+03 -0.10315003162E+03 -0.11630626318E+03  0.24591966814E+03  0.17770000000E+01 0. -1.
</event>
<event>
 7    1  0.2288857E-006  0.4893119E+03  0.7546771E-02  0.9424048E-01
        -11   -1    0    0    0    0  0.00000000000E+00  0.00000000000E+00  0.50000000000E+03  0.50000000000E+03  0.00000000000E+00 0.  1.
         11   -1    0    0    0    0 -0.00000000000E+00 -0.00000000000E+00 -0.50000000000E+03  0.50000000000E+03  0.00000000000E+00 0. -1.
         23    2    1    2    0    0 -0.94074895765E+02  0.15606639122E+02  0.45887203207E+03  0.47724012490E+03  0.90005232059E+02 0.  0.
        -11    1    1    2    0    0  0.10356926234E+02  0.43646797499E+01  0.27040872627E+02  0.29283530230E+02  0.00000000000E+00 0.  1.
         11    1    1    2    0    0  0.83717969531E+02 -0.19971318872E+02 -0.48591290470E+03  0.49347634487E+03  0.00000000000E+00 0. -1.
        -15    1    3    3    0    0 -0.90551046175E+01  0.52446770134E+01  0.17873302140E+00  0.10615612611E+02  0.17770000000E+01 0. -1.
         15    1    3    3    0    0 -0.85019791148E+02  0.10361962109E+02  0.45869329905E+03  0.46662451229E+03  0.17770000000E+01 0.  1.
</event>
<event>
 7    1  0.2288857E-006  0.5159086E+03  0.7546771E-02  0.9364900E-01
        -11   -1    0    0    0    0  0.00000000000E+00  0.00000000000E+00  0.50000000000E+03  0.50000000000E+03  0.00000000000E+00 0. -1.
         11   -1    0    0    0    0 -0.00000000000E+00 -0.00000000000E+00 -0.50000000000E+03  0.50000000000E+03  0.00000000000E+00 0. -1.
         23    2    1    2    0    0 -0.52023296455E+02 -0.28718008220E+02 -0.18032879514E+03  0.21078572843E+03  0.91547810362E+02 0.  0.
        -11    1    1    2    0    0  0.97784497984E+02 -0.50490050597E+02  0.47141637791E+03  0.48409137012E+03  0.00000000000E+00 0. -1.
         11    1    1    2    0    0 -0.45761201529E+02  0.79208058817E+02 -0.29108758277E+03  0.30512290146E+03  0.00000000000E+00 0. -1.
        -15    1    3    3    0    0  0.16594598463E+01 -0.28689458723E+02 -0.14177532693E+03  0.14466941592E+03  0.17770000000E+01 0. -1.
         15    1    3    3    0    0 -0.53682756302E+02 -0.28549497019E-01 -0.38553468213E+02  0.66116312507E+02  0.17770000000E+01 0.  1.
</event>
<event>
 7    1  0.2288857E-006  0.5018824E+03  0.7546771E-02  0.9395608E-01
        -11   -1    0    0    0    0  0.00000000000E+00  0.00000000000E+00  0.50000000000E+03  0.50000000000E+03  0.00000000000E+00 0.  1.
         11   -1    0    0    0    0 -0.00000000000E+00 -0.00000000000E+00 -0.50000000000E+03  0.50000000000E+03  0.00000000000E+00 0. -1.
         23    2    1    2    0    0  0.14801117430E+03  0.61824815770E+02  0.46282743378E+03  0.49811764441E+03  0.90456280321E+02 0.  0.
        -11    1    1    2    0    0 -0.57104114518E+02 -0.14552152372E+02 -0.52395787220E+02  0.78854064904E+02  0.00000000000E+00 0.  1.
         11    1    1    2    0    0 -0.90907059781E+02 -0.47272663398E+02 -0.41043164656E+03  0.42302829069E+03  0.00000000000E+00 0. -1.
        -15    1    3    3    0    0  0.85686419138E+02  0.70410522480E+02  0.20906574080E+03  0.23666737377E+03  0.17770000000E+01 0. -1.
         15    1    3    3    0    0  0.62324755160E+02 -0.85857067097E+01  0.25376169298E+03  0.26145027064E+03  0.17770000000E+01 0.  1.
</event>
<event>
 7    1  0.3094036E-006  0.5182173E+03  0.7546771E-02  0.9359945E-01
        -11   -1    0    0    0    0  0.00000000000E+00  0.00000000000E+00  0.50000000000E+03  0.50000000000E+03  0.00000000000E+00 0. -1.
         11   -1    0    0    0    0 -0.00000000000E+00 -0.00000000000E+00 -0.50000000000E+03  0.50000000000E+03  0.00000000000E+00 0.  1.
         23    2    1    2    0    0  0.37278687652E+02  0.12628263605E+03 -0.20519509591E+03  0.25432416268E+03  0.72379193261E+02 0.  0.
        -11    1    1    2    0    0 -0.77865445272E+02 -0.10061065061E+03  0.46468163288E+03  0.48178267977E+03  0.00000000000E+00 0. -1.
         11    1    1    2    0    0  0.40586757620E+02 -0.25671985439E+02 -0.25948653697E+03  0.26389315755E+03  0.00000000000E+00 0.  1.
        -15    1    3    3    0    0  0.43785709823E+02  0.29382972744E+02 -0.80743516812E+02  0.96453204758E+02  0.17770000000E+01 0. -1.
         15    1    3    3    0    0 -0.65070221710E+01  0.96899663309E+02 -0.12445157910E+03  0.15787095792E+03  0.17770000000E+01 0.  1.
</event>
<event>
 7    1  0.2288857E-006  0.3997265E+03  0.7546771E-02  0.9657209E-01
        -11   -1    0    0    0    0  0.00000000000E+00  0.00000000000E+00  0.50000000000E+03  0.50000000000E+03  0.00000000000E+00 0.  1.
         11   -1    0    0    0    0 -0.00000000000E+00 -0.00000000000E+00 -0.50000000000E+03  0.50000000000E+03  0.00000000000E+00 0. -1.
         23    2    1    2    0    0  0.71012016423E+02  0.10356117100E+03 -0.10603287029E+03  0.18382860322E+03  0.82355104052E+02 0.  0.
        -11    1    1    2    0    0  0.65799887528E+02 -0.12696549940E+03  0.43565123792E+03  0.45852138919E+03  0.00000000000E+00 0.  1.
         11    1    1    2    0    0 -0.13681190395E+03  0.23404328402E+02 -0.32961836763E+03  0.35765000760E+03  0.00000000000E+00 0. -1.
        -15    1    3    3    0    0 -0.22067068835E+01  0.22510986208E+02 -0.62048547377E+02  0.66066587743E+02  0.17770000000E+01 0. -1.
         15    1    3    3    0    0  0.73218723307E+02  0.81050184794E+02 -0.43984322912E+02  0.11776201548E+03  0.17770000000E+01 0.  1.
</event>
<event>
 7    1  0.2288857E-006  0.4812707E+03  0.7546771E-02  0.9442722E-01
        -11   -1    0    0    0    0  0.00000000000E+00  0.00000000000E+00  0.50000000000E+03  0.50000000000E+03  0.00000000000E+00 0. -1.
         11   -1    0    0    0    0 -0.00000000000E+00 -0.00000000000E+00 -0.50000000000E+03  0.50000000000E+03  0.00000000000E+00 0. -1.
         23    2    1    2    0    0 -0.98820380610E+02  0.29470931131E+03 -0.33696435095E+03  0.46708429396E+03  0.89463501251E+02 0.  0.
        -11    1    1    2    0    0  0.74175939427E+02 -0.32821286031E+03  0.35360302033E+03  0.48811970627E+03  0.00000000000E+00 0. -1.
         11    1    1    2    0    0  0.24644441183E+02  0.33503549001E+02 -0.16638669384E+02  0.44795999774E+02  0.00000000000E+00 0. -1.
        -15    1    3    3    0    0 -0.10248914389E+03  0.23703227418E+03 -0.30944671513E+03  0.40304931566E+03  0.17770000000E+01 0. -1.
         15    1    3    3    0    0  0.36687632804E+01  0.57677037126E+02 -0.27517635818E+02  0.64034978298E+02  0.17770000000E+01 0.  1.
</event>
<event>
 7    1  0.2288857E-006  0.3989896E+03  0.7546771E-02  0.9659391E-01
        -11   -1    0    0    0    0  0.00000000000E+00  0.00000000000E+00  0.50000000000E+03  0.50000000000E+03  0.00000000000E+00 0.  1.
         11   -1    0    0    0    0 -0.00000000000E+00 -0.00000000000E+00 -0.50000000000E+03  0.50000000000E+03  0.00000000000E+00 0. -1.
         23    2    1    2    0    0  0.12850192694E+03 -0.62930347130E+02  0.74806982573E+02  0.18585029163E+03  0.92039515642E+02 0.  0.
        -11    1    1    2    0    0 -0.18008184041E+03  0.83366137697E+00  0.34365073912E+03  0.38797679664E+03  0.00000000000E+00 0.  1.
         11    1    1    2    0    0  0.51579913472E+02  0.62096685753E+02 -0.41845772169E+03  0.42617291173E+03  0.00000000000E+00 0. -1.
        -15    1    3    3    0    0  0.37987256667E+02 -0.73124545165E+01  0.69385107049E+02  0.79460395603E+02  0.17770000000E+01 0.  1.
         15    1    3    3    0    0  0.90514670269E+02 -0.55617892614E+02  0.54218755243E+01  0.10638989602E+03  0.17770000000E+01 0. -1.
</event>
<event>
 7    1  0.2288857E-006  0.4687690E+03  0.7546771E-02  0.9472538E-01
        -11   -1    0    0    0    0  0.00000000000E+00  0.00000000000E+00  0.50000000000E+03  0.50000000000E+03  0.00000000000E+00 0.  1.
         11   -1    0    0    0    0 -0.00000000000E+00 -0.00000000000E+00 -0.50000000000E+03  0.50000000000E+03  0.00000000000E+00 0.  1.
         23    2    1    2    0    0 -0.70190854179E+02  0.67999697046E+02  0.41728259232E+03  0.43800585455E+03  0.90408251598E+02 0.  0.
        -11    1    1    2    0    0 -0.26846730750E+02  0.28012036620E+02  0.56723044927E+02  0.68723540169E+02  0.00000000000E+00 0.  1.
         11    1    1    2    0    0  0.97037584929E+02 -0.96011733666E+02 -0.47400563725E+03  0.49327060528E+03  0.00000000000E+00 0.  1.
        -15    1    3    3    0    0 -0.61029338042E+02  0.75352219957E+02  0.41464507730E+03  0.42583592499E+03  0.17770000000E+01 0.  1.
         15    1    3    3    0    0 -0.91615161373E+01 -0.73525229109E+01  0.26375150260E+01  0.12169929564E+02  0.17770000000E+01 0. -1.
</event>
<event>
 7    1  0.2288857E-006  0.4969677E+03  0.7546771E-02  0.9406620E-01
        -11   -1    0    0    0    0  0.00000000000E+00  0.00000000000E+00  0.50000000000E+03  0.50000000000E+03  0.00000000000E+00 0.  1.
         11   -1    0    0    0    0 -0.00000000000E+00 -0.00000000000E+00 -0.50000000000E+03  0.50000000000E+03  0.00000000000E+00 0. -1.
         23    2    1    2    0    0  0.41579654783E+02  0.29743035482E+03 -0.38721467502E+03  0.49856450423E+03  0.91856826995E+02 0.  0.
        -11    1    1    2    0    0 -0.55169922886E+02 -0.29663835774E+03  0.38216232913E+03  0.48691486061E+03  0.00000000000E+00 0.  1.
         11    1    1    2    0    0  0.13590268103E+02 -0.79199707684E+00  0.50523458953E+01  0.14520635163E+02  0.00000000000E+00 0. -1.
        -15    1    3    3    0    0  0.49128471405E+02  0.16156441257E+03 -0.27245638854E+03  0.32055000779E+03  0.17770000000E+01 0.  1.
         15    1    3    3    0    0 -0.75488166218E+01  0.13586594225E+03 -0.11475828648E+03  0.17801449644E+03  0.17770000000E+01 0. -1.
</event>
<event>
 7    1  0.2288857E-006  0.4651091E+03  0.7546771E-02  0.9481454E-01
        -11   -1    0    0    0    0  0.00000000000E+00  0.00000000000E+00  0.50000000000E+03  0.50000000000E+03  0.00000000000E+00 0.  1.
         11   -1    0    0    0    0 -0.00000000000E+00 -0.00000000000E+00 -0.50000000000E+03  0.50000000000E+03  0.00000000000E+00 0. -1.
         23    2    1    2    0    0 -0.37205528145E+01  0.89742709562E+02  0.44222859372E+03  0.46080274013E+03  0.93302946263E+02 0.  0.
        -11    1    1    2    0    0 -0.62323322409E+02 -0.41495324443E+02  0.13591576823E+02  0.76097236660E+02  0.00000000000E+00 0.  1.
         11    1    1    2    0    0  0.66043875224E+02 -0.48247385119E+02 -0.45582017054E+03  0.46310002321E+03  0.00000000000E+00 0. -1.
        -15    1    3    3    0    0  0.82712273852E+01  0.99684046005E+02  0.42830846006E+03  0.43983703450E+03  0.17770000000E+01 0.  1.
         15    1    3    3    0    0 -0.11991780200E+02 -0.99413364429E+01  0.13920133653E+02  0.20965705630E+02  0.17770000000E+01 0. -1.
</event>
<event>
 7    1  0.2288857E-006  0.4295326E+03  0.7546771E-02  0.9572953E-01
        -11   -1    0    0    0    0  0.00000000000E+00  0.00000000000E+00  0.50000000000E+03  0.50000000000E+03  0.00000000000E+00 0. -1.
         11   -1    0    0    0    0 -0.00000000000E+00 -0.00000000000E+00 -0.50000000000E+03  0.50000000000E+03  0.00000000000E+00 0. -1.
         23    2    1    2    0    0  0.29029323486E+02  0.45172336305E+02  0.85271189748E+02  0.13504480404E+03  0.89903735790E+02 0.  0.
        -11    1    1    2    0    0 -0.16063703903E+03 -0.17234909402E+03  0.33327624244E+03  0.40814399701E+03  0.00000000000E+00 0. -1.
         11    1    1    2    0    0  0.13160771555E+03  0.12717675772E+03 -0.41854743219E+03  0.45681119895E+03  0.00000000000E+00 0. -1.
        -15    1    3    3    0    0 -0.11424577364E+02  0.32483636909E+02 -0.54329202248E+01  0.34905328905E+02  0.17770000000E+01 0.  1.
         15    1    3    3    0    0  0.40453900850E+02  0.12688699396E+02  0.90704109973E+02  0.10013947514E+03  0.17770000000E+01 0. -1.
</event>
<event>
 7    1  0.2288857E-006  0.4177746E+03  0.7546771E-02  0.9605293E-01
        -11   -1    0    0    0    0  0.00000000000E+00  0.00000000000E+00  0.50000000000E+03  0.50000000000E+03  0.00000000000E+00 0.  1.
         11   -1    0    0    0    0 -0.00000000000E+00 -0.00000000000E+00 -0.50000000000E+03  0.50000000000E+03  0.00000000000E+00 0.  1.
         23    2    1    2    0    0 -0.18197912319E+02 -0.83142264497E+02  0.92697102791E+02  0.15502721553E+03  0.90536647442E+02 0.  0.
        -11    1    1    2    0    0 -0.27507629293E+03 -0.26635442379E+03 -0.59857294997E+02  0.38754940558E+03  0.00000000000E+00 0.  1.
         11    1    1    2    0    0  0.29327420524E+03  0.34949668828E+03 -0.32839807794E+02  0.45742337889E+03  0.00000000000E+00 0.  1.
        -15    1    3    3    0    0 -0.35118468466E+02 -0.96157974626E+02  0.71417874617E+02  0.12483322256E+03  0.17770000000E+01 0.  1.
         15    1    3    3    0    0  0.16920556148E+02  0.13015710129E+02  0.21279228174E+02  0.30193992965E+02  0.17770000000E+01 0. -1.
</event>
<event>
 7    1  0.2288857E-006  0.5155735E+03  0.7546771E-02  0.9365622E-01
        -11   -1    0    0    0    0  0.00000000000E+00  0.00000000000E+00  0.50000000000E+03  0.50000000000E+03  0.00000000000E+00 0. -1.
         11   -1    0    0    0    0 -0.00000000000E+00 -0.00000000000E+00 -0.50000000000E+03  0.50000000000E+03  0.00000000000E+00 0.  1.
         23    2    1    2    0    0  0.14379192770E+01 -0.71654065583E+02  0.21289449829E+03  0.24309575859E+03  0.92925280285E+02 0.  0.
        -11    1    1    2    0    0 -0.89592272045E+02 -0.46981178013E+01  0.25728440468E+03  0.27247772828E+03  0.00000000000E+00 0. -1.
         11    1    1    2    0    0  0.88154352768E+02  0.76352183385E+02 -0.47017890297E+03  0.48442651312E+03  0.00000000000E+00 0.  1.
        -15    1    3    3    0    0 -0.22054809650E+02 -0.30121644879E+02  0.16280963099E+02  0.40767089758E+02  0.17770000000E+01 0.  1.
         15    1    3    3    0    0  0.23492728927E+02 -0.41532420704E+02  0.19661353520E+03  0.20232866884E+03  0.17770000000E+01 0. -1.
</event>
<event>
 7    1  0.2288857E-006  0.4611157E+03  0.7546771E-02  0.9491283E-01
        -11   -1    0    0    0    0  0.00000000000E+00  0.00000000000E+00  0.50000000000E+03  0.50000000000E+03  0.00000000000E+00 0. -1.
         11   -1    0    0    0    0 -0.00000000000E+00 -0.00000000000E+00 -0.50000000000E+03  0.50000000000E+03  0.00000000000E+00 0. -1.
         23    2    1    2    0    0 -0.91320185164E+02 -0.34607988449E+02  0.41035173575E+03  0.43409248275E+03  0.10252144883E+03 0.  0.
        -11    1    1    2    0    0  0.47275578705E+02 -0.31603171711E+02  0.63608882247E+02  0.85321923940E+02  0.00000000000E+00 0. -1.
         11    1    1    2    0    0  0.44044606459E+02  0.66211160160E+02 -0.47396061799E+03  0.48058559331E+03  0.00000000000E+00 0. -1.
        -15    1    3    3    0    0 -0.25508132532E+02  0.31302207435E+02  0.66275542436E+02  0.77627947736E+02  0.17770000000E+01 0. -1.
         15    1    3    3    0    0 -0.65812052632E+02 -0.65910195884E+02  0.34407619331E+03  0.35646453502E+03  0.17770000000E+01 0.  1.
</event>
<event>
 7    1  0.2288857E-006  0.5351003E+03  0.7546771E-02  0.9324523E-01
        -11   -1    0    0    0    0  0.00000000000E+00  0.00000000000E+00  0.50000000000E+03  0.50000000000E+03  0.00000000000E+00 0.  1.
         11   -1    0    0    0    0 -0.00000000000E+00 -0.00000000000E+00 -0.50000000000E+03  0.50000000000E+03  0.00000000000E+00 0.  1.
         23    2    1    2    0    0 -0.19338112412E+02  0.37238183876E+01  0.32692874772E+03  0.34083760327E+03  0.94340003694E+02 0.  0.
        -11    1    1    2    0    0 -0.10536567101E+03 -0.12579808142E+03  0.10397558987E+03  0.19426272212E+03  0.00000000000E+00 0.  1.
         11    1    1    2    0    0  0.12470378343E+03  0.12207426304E+03 -0.43090433759E+03  0.46489967461E+03  0.00000000000E+00 0.  1.
        -15    1    3    3    0    0 -0.90304103822E+01 -0.42057069269E+02  0.96436909659E+02  0.10561051397E+03  0.17770000000E+01 0.  1.
         15    1    3    3    0    0 -0.10307702030E+02  0.45780887657E+02  0.23049183806E+03  0.23522708930E+03  0.17770000000E+01 0. -1.
</event>
<event>
 7    1  0.2288857E-006  0.3483302E+03  0.7546771E-02  0.9822739E-01
        -11   -1    0    0    0    0  0.00000000000E+00  0.00000000000E+00  0.50000000000E+03  0.50000000000E+03  0.00000000000E+00 0.  1.
         11   -1    0    0    0    0 -0.00000000000E+00 -0.00000000000E+00 -0.50000000000E+03  0.50000000000E+03  0.00000000000E+00 0.  1.
         23    2    1    2    0    0  0.20099266362E+02  0.33655851234E+03  0.25584061962E+03  0.43493818913E+03  0.10020575323E+03 0.  0.
        -11    1    1    2    0    0  0.23899180550E+02 -0.26476486016E+03  0.29577908665E+02  0.26748169037E+03  0.00000000000E+00 0.  1.
         11    1    1    2    0    0 -0.43998446911E+02 -0.71793652189E+02 -0.28541852828E+03  0.29758012049E+03  0.00000000000E+00 0.  1.
        -15    1    3    3    0    0 -0.23419624782E+02  0.26834535417E+03  0.17963171882E+03  0.32377217309E+03  0.17770000000E+01 0.  1.
         15    1    3    3    0    0  0.43518891144E+02  0.68213158178E+02  0.76208900793E+02  0.11116601605E+03  0.17770000000E+01 0. -1.
</event>
<event>
 7    1  0.2288857E-006  0.5223018E+03  0.7546771E-02  0.9351245E-01
        -11   -1    0    0    0    0  0.00000000000E+00  0.00000000000E+00  0.50000000000E+03  0.50000000000E+03  0.00000000000E+00 0.  1.
         11   -1    0    0    0    0 -0.00000000000E+00 -0.00000000000E+00 -0.50000000000E+03  0.50000000000E+03  0.00000000000E+00 0.  1.
         23    2    1    2    0    0  0.89958351217E+01 -0.19374852849E+02  0.23146018740E+03  0.24977062404E+03  0.91406981729E+02 0.  0.
        -11    1    1    2    0    0  0.11858914057E+02 -0.18491533832E+03  0.19984729227E+03  0.27253120265E+03  0.00000000000E+00 0.  1.
         11    1    1    2    0    0 -0.20854749179E+02  0.20429019117E+03 -0.43130747967E+03  0.47769817332E+03  0.00000000000E+00 0.  1.
        -15    1    3    3    0    0 -0.30445293567E+02 -0.22052328446E+02  0.18478371205E+03  0.18857730261E+03  0.17770000000E+01 0.  1.
         15    1    3    3    0    0  0.39441128688E+02  0.26774755962E+01  0.46676475347E+02  0.61193321430E+02  0.17770000000E+01 0. -1.
</event>
<event>
 7    1  0.2288857E-006  0.5033473E+03  0.7546771E-02  0.9392351E-01
        -11   -1    0    0    0    0  0.00000000000E+00  0.00000000000E+00  0.50000000000E+03  0.50000000000E+03  0.00000000000E+00 0.  1.
         11   -1    0    0    0    0 -0.00000000000E+00 -0.00000000000E+00 -0.50000000000E+03  0.50000000000E+03  0.00000000000E+00 0.  1.
         23    2    1    2    0    0 -0.89513111027E+02  0.11285697941E+02  0.48630784503E+03  0.50334730175E+03  0.93398190648E+02 0.  0.
        -11    1    1    2    0    0  0.43528588135E+02 -0.28166748788E+02 -0.24706709019E+03  0.25244851114E+03  0.00000000000E+00 0.  1.
         11    1    1    2    0    0  0.45984522893E+02  0.16881050846E+02 -0.23924075484E+03  0.24420418711E+03  0.00000000000E+00 0.  1.
        -15    1    3    3    0    0 -0.90560309048E+02 -0.24394077021E+02  0.36725885749E+03  0.37904942515E+03  0.17770000000E+01 0.  1.
         15    1    3    3    0    0  0.10471980204E+01  0.35679774962E+02  0.11904898754E+03  0.12429787660E+03  0.17770000000E+01 0. -1.
</event>
<event>
 7    1  0.2288857E-006  0.5093071E+03  0.7546771E-02  0.9379222E-01
        -11   -1    0    0    0    0  0.00000000000E+00  0.00000000000E+00  0.50000000000E+03  0.50000000000E+03  0.00000000000E+00 0. -1.
         11   -1    0    0    0    0 -0.00000000000E+00 -0.00000000000E+00 -0.50000000000E+03  0.50000000000E+03  0.00000000000E+00 0. -1.
         23    2    1    2    0    0 -0.61084144717E+02 -0.13273998206E+03  0.33005609809E+03  0.37124829588E+03  0.86816436989E+02 0.  0.
        -11    1    1    2    0    0 -0.75480325680E+02 -0.46374714422E+02  0.10588836271E+03  0.13805882464E+03  0.00000000000E+00 0. -1.
         11    1    1    2    0    0  0.13656447040E+03  0.17911469648E+03 -0.43594446080E+03  0.49069287948E+03  0.00000000000E+00 0. -1.
        -15    1    3    3    0    0 -0.24169979177E+02  0.52193653851E+01  0.29871190211E+02  0.38818493042E+02  0.17770000000E+01 0.  1.
         15    1    3    3    0    0 -0.36914165540E+02 -0.13795934744E+03  0.30018490788E+03  0.33242980284E+03  0.17770000000E+01 0. -1.
</event>
<event>
 7    1  0.2288857E-006  0.5277454E+03  0.7546771E-02  0.9339781E-01
        -11   -1    0    0    0    0  0.00000000000E+00  0.00000000000E+00  0.50000000000E+03  0.50000000000E+03  0.00000000000E+00 0.  1.
         11   -1    0    0    0    0 -0.00000000000E+00 -0.00000000000E+00 -0.50000000000E+03  0.50000000000E+03  0.00000000000E+00 0. -1.
         23    2    1    2    0    0 -0.11472631502E+03 -0.32241998531E+02  0.33590367356E+03  0.36758564086E+03  0.89923587702E+02 0.  0.
        -11    1    1    2    0    0  0.33644438879E+02  0.94018749220E+02  0.12521857063E+03  0.16015980739E+03  0.00000000000E+00 0.  1.
         11    1    1    2    0    0  0.81081876145E+02 -0.61776750690E+02 -0.46112224419E+03  0.47225455175E+03  0.00000000000E+00 0. -1.
        -15    1    3    3    0    0 -0.62575560050E+02 -0.90377428915E+01  0.28217206862E+03  0.28917402295E+03  0.17770000000E+01 0.  1.
         15    1    3    3    0    0 -0.52150754974E+02 -0.23204255639E+02  0.53731604942E+02  0.78411617907E+02  0.17770000000E+01 0. -1.
</event>
<event>
 7    1  0.2288857E-006  0.3761916E+03  0.7546771E-02  0.9729487E-01
        -11   -1    0    0    0    0  0.00000000000E+00  0.00000000000E+00  0.50000000000E+03  0.50000000000E+03  0.00000000000E+00 0.  1.
         11   -1    0    0    0    0 -0.00000000000E+00 -0.00000000000E+00 -0.50000000000E+03  0.50000000000E+03  0.00000000000E+00 0.  1.
         23    2    1    2    0    0  0.16793786815E+03  0.50915752517E+02  0.30497845566E+03  0.36361218003E+03  0.91686518265E+02 0.  0.
        -11    1    1    2    0    0 -0.15281735617E+03 -0.13426462171E+03  0.97153585647E+02  0.22543059285E+03  0.00000000000E+00 0.  1.
         11    1    1    2    0    0 -0.15120511978E+02  0.83348869189E+02 -0.40213204131E+03  0.41095722712E+03  0.00000000000E+00 0.  1.
        -15    1    3    3    0    0  0.59913886303E+02  0.34797473867E+02  0.47790179293E+02  0.84187866853E+02  0.17770000000E+01 0. -1.
         15    1    3    3    0    0  0.10802398185E+03  0.16118278650E+02  0.25718827637E+03  0.27942431317E+03  0.17770000000E+01 0.  1.
</event>
<event>
 7    1  0.2288857E-006  0.4694216E+03  0.7546771E-02  0.9470957E-01
        -11   -1    0    0    0    0  0.00000000000E+00  0.00000000000E+00  0.50000000000E+03  0.50000000000E+03  0.00000000000E+00 0.  1.
         11   -1    0    0    0    0 -0.00000000000E+00 -0.00000000000E+00 -0.50000000000E+03  0.50000000000E+03  0.00000000000E+00 0. -1.
         23    2    1    2    0    0 -0.16502611278E+03  0.69958136654E+02 -0.39411402173E+03  0.44373036940E+03  0.97175201696E+02 0.  0.
        -11    1    1    2    0    0  0.19768680927E+03 -0.11915708622E+03  0.42937899698E+03  0.48748826529E+03  0.00000000000E+00 0.  1.
         11    1    1    2    0    0 -0.32660696486E+02  0.49198949567E+02 -0.35264975248E+02  0.68781365301E+02  0.00000000000E+00 0. -1.
        -15    1    3    3    0    0  0.70385309315E+01  0.24997535038E+02 -0.51658113597E+02  0.57845795915E+02  0.17770000000E+01 0.  1.
         15    1    3    3    0    0 -0.17206464371E+03  0.44960601616E+02 -0.34245590813E+03  0.38588457349E+03  0.17770000000E+01 0. -1.
</event>
<event>
 7    1  0.2288857E-006  0.5213103E+03  0.7546771E-02  0.9353350E-01
        -11   -1    0    0    0    0  0.00000000000E+00  0.00000000000E+00  0.50000000000E+03  0.50000000000E+03  0.00000000000E+00 0.  1.
         11   -1    0    0    0    0 -0.00000000000E+00 -0.00000000000E+00 -0.50000000000E+03  0.50000000000E+03  0.00000000000E+00 0. -1.
         23    2    1    2    0    0 -0.19954305031E+02 -0.85637217684E+02  0.27282684748E+03  0.30167891991E+03  0.94041345527E+02 0.  0.
        -11    1    1    2    0    0 -0.86592003765E+02  0.58810405994E+02  0.19308310055E+03  0.21963133358E+03  0.00000000000E+00 0.  1.
         11    1    1    2    0    0  0.10654630880E+03  0.26826811690E+02 -0.46590994803E+03  0.47868974652E+03  0.00000000000E+00 0. -1.
        -15    1    3    3    0    0 -0.52833976495E+02 -0.67906905288E+02  0.14622863601E+03  0.16967247442E+03  0.17770000000E+01 0.  1.
         15    1    3    3    0    0  0.32879671463E+02 -0.17730312396E+02  0.12659821148E+03  0.13200644549E+03  0.17770000000E+01 0. -1.
</event>
<event>
 7    1  0.2288857E-006  0.5094979E+03  0.7546771E-02  0.9378805E-01
        -11   -1    0    0    0    0  0.00000000000E+00  0.00000000000E+00  0.50000000000E+03  0.50000000000E+03  0.00000000000E+00 0. -1.
         11   -1    0    0    0    0 -0.00000000000E+00 -0.00000000000E+00 -0.50000000000E+03  0.50000000000E+03  0.00000000000E+00 0.  1.
         23    2    1    2    0    0  0.29935008086E+02 -0.37593771112E+01  0.21064071908E+03  0.23155887264E+03  0.91322293754E+02 0.  0.
        -11    1    1    2    0    0  0.54548325464E+02  0.18654403496E+01  0.27252725277E+03  0.27793902781E+03  0.00000000000E+00 0. -1.
         11    1    1    2    0    0 -0.84483333550E+02  0.18939367616E+01 -0.48316797185E+03  0.49050209955E+03  0.00000000000E+00 0.  1.
        -15    1    3    3    0    0  0.12728389849E+02 -0.30286429386E+02  0.20424941568E+02  0.38724871596E+02  0.17770000000E+01 0.  1.
         15    1    3    3    0    0  0.17206618237E+02  0.26527052274E+02  0.19021577751E+03  0.19283400104E+03  0.17770000000E+01 0. -1.
</event>
<event>
 7    1  0.2288857E-006  0.3914250E+03  0.7546771E-02  0.9682082E-01
        -11   -1    0    0    0    0  0.00000000000E+00  0.00000000000E+00  0.50000000000E+03  0.50000000000E+03  0.00000000000E+00 0.  1.
         11   -1    0    0    0    0 -0.00000000000E+00 -0.00000000000E+00 -0.50000000000E+03  0.50000000000E+03  0.00000000000E+00 0. -1.
         23    2    1    2    0    0 -0.62226706810E+02  0.28248779880E+02 -0.16604814941E+03  0.19682111090E+03  0.80600280187E+02 0.  0.
        -11    1    1    2    0    0 -0.19513155163E+03 -0.15951312584E+03  0.37132174936E+03  0.44877678338E+03  0.00000000000E+00 0.  1.
         11    1    1    2    0    0  0.25735825844E+03  0.13126434596E+03 -0.20527359995E+03  0.35440210572E+03  0.00000000000E+00 0. -1.
        -15    1    3    3    0    0 -0.58659726648E+02 -0.11396401205E+02 -0.65577102900E+02  0.88737566140E+02  0.17770000000E+01 0. -1.
         15    1    3    3    0    0 -0.35669801623E+01  0.39645181085E+02 -0.10047104651E+03  0.10808354476E+03  0.17770000000E+01 0.  1.
</event>
<event>
 7    1  0.2288857E-006  0.5165030E+03  0.7546771E-02  0.9363622E-01
        -11   -1    0    0    0    0  0.00000000000E+00  0.00000000000E+00  0.50000000000E+03  0.50000000000E+03  0.00000000000E+00 0. -1.
         11   -1    0    0    0    0 -0.00000000000E+00 -0.00000000000E+00 -0.50000000000E+03  0.50000000000E+03  0.00000000000E+00 0. -1.
         23    2    1    2    0    0 -0.72130343588E+02 -0.26896546283E+02  0.84239611320E+02  0.14711309219E+03  0.92842550102E+02 0.  0.
        -11    1    1    2    0    0 -0.23616558782E+03 -0.90260969379E+02  0.26930964261E+03  0.36938991738E+03  0.00000000000E+00 0. -1.
         11    1    1    2    0    0  0.30829593141E+03  0.11715751566E+03 -0.35354925393E+03  0.48349699043E+03  0.00000000000E+00 0. -1.
        -15    1    3    3    0    0 -0.38098594385E+02 -0.19580270886E+02 -0.12194839415E+02  0.44573105562E+02  0.17770000000E+01 0. -1.
         15    1    3    3    0    0 -0.34031749203E+02 -0.73162753969E+01  0.96434450735E+02  0.10253998662E+03  0.17770000000E+01 0.  1.
</event>
<event>
 7    1  0.2288857E-006  0.4539696E+03  0.7546771E-02  0.9509140E-01
        -11   -1    0    0    0    0  0.00000000000E+00  0.00000000000E+00  0.50000000000E+03  0.50000000000E+03  0.00000000000E+00 0. -1.
         11   -1    0    0    0    0 -0.00000000000E+00 -0.00000000000E+00 -0.50000000000E+03  0.50000000000E+03  0.00000000000E+00 0.  1.
         23    2    1    2    0    0  0.44758303584E+02 -0.90636899950E+02  0.45613225407E+03  0.47590406356E+03  0.90607345909E+02 0.  0.
        -11    1    1    2    0    0  0.69774535270E+02  0.47397984661E+02 -0.45992229186E+02  0.96074657780E+02  0.00000000000E+00 0. -1.
         11    1    1    2    0    0 -0.11453283885E+03  0.43238915288E+02 -0.41014002489E+03  0.42802127866E+03  0.00000000000E+00 0.  1.
        -15    1    3    3    0    0  0.19342982519E+02  0.11483975280E+02  0.33698532127E+02  0.40555905334E+02  0.17770000000E+01 0.  1.
         15    1    3    3    0    0  0.25415321065E+02 -0.10212087523E+03  0.42243372195E+03  0.43534815822E+03  0.17770000000E+01 0. -1.
</event>
<event>
 7    1  0.2288857E-006  0.5225411E+03  0.7546771E-02  0.9350738E-01
        -11   -1    0    0    0    0  0.00000000000E+00  0.00000000000E+00  0.50000000000E+03  0.50000000000E+03  0.00000000000E+00 0.  1.
         11   -1    0    0    0    0 -0.00000000000E+00 -0.00000000000E+00 -0.50000000000E+03  0.50000000000E+03  0.00000000000E+00 0. -1.
         23    2    1    2    0    0  0.11003832425E+03  0.96283084521E+00  0.27553824489E+03  0.31054635995E+03  0.91697096103E+02 0.  0.
        -11    1    1    2    0    0  0.15056467349E+03  0.98737798938E+02  0.11190575934E+03  0.21199474714E+03  0.00000000000E+00 0.  1.
         11    1    1    2    0    0 -0.26060299774E+03 -0.99700629783E+02 -0.38744400423E+03  0.47745889291E+03  0.00000000000E+00 0. -1.
        -15    1    3    3    0    0  0.66807512254E+02  0.16682661739E+02  0.24690526901E+03  0.25633361951E+03  0.17770000000E+01 0. -1.
         15    1    3    3    0    0  0.43230811998E+02 -0.15719830894E+02  0.28632975877E+02  0.54212740439E+02  0.17770000000E+01 0.  1.
</event>
<event>
 7    1  0.2288857E-006  0.5168780E+03  0.7546771E-02  0.9362816E-01
        -11   -1    0    0    0    0  0.00000000000E+00  0.00000000000E+00  0.50000000000E+03  0.50000000000E+03  0.00000000000E+00 0. -1.
         11   -1    0    0    0    0 -0.00000000000E+00 -0.00000000000E+00 -0.50000000000E+03  0.50000000000E+03  0.00000000000E+00 0.  1.
         23    2    1    2    0    0  0.71099234470E+02  0.44007989942E+02  0.22030772942E+03  0.25071026947E+03  0.85605719731E+02 0.  0.
        -11    1    1    2    0    0  0.13252550774E+03 -0.80686363011E+02  0.21626822121E+03  0.26616769692E+03  0.00000000000E+00 0. -1.
         11    1    1    2    0    0 -0.20362474221E+03  0.36678373069E+02 -0.43657595063E+03  0.48312203361E+03  0.00000000000E+00 0.  1.
        -15    1    3    3    0    0  0.16906165060E+02  0.11501195867E+02 -0.10009622774E+01  0.20548858311E+02  0.17770000000E+01 0.  1.
         15    1    3    3    0    0  0.54193069410E+02  0.32506794075E+02  0.22130869170E+03  0.23016141115E+03  0.17770000000E+01 0. -1.
</event>
<event>
 7    1  0.2288857E-006  0.5239531E+03  0.7546771E-02  0.9347752E-01
        -11   -1    0    0    0    0  0.00000000000E+00  0.00000000000E+00  0.50000000000E+03  0.50000000000E+03  0.00000000000E+00 0.  1.
         11   -1    0    0    0    0 -0.00000000000E+00 -0.00000000000E+00 -0.50000000000E+03  0.50000000000E+03  0.00000000000E+00 0. -1.
         23    2    1    2    0    0  0.43274929829E+02 -0.31166578519E+02  0.14862784658E+03  0.18106354884E+03  0.88598514493E+02 0.  0.
        -11    1    1    2    0    0 -0.12473294729E+03  0.54375001935E+00  0.31939727489E+03  0.34288952012E+03  0.00000000000E+00 0.  1.
         11    1    1    2    0    0  0.81458017461E+02  0.30622828500E+02 -0.46802512146E+03  0.47604693104E+03  0.00000000000E+00 0. -1.
        -15    1    3    3    0    0 -0.43161944134E+01  0.27374143784E+02  0.44775678437E+02  0.52687687277E+02  0.17770000000E+01 0. -1.
         15    1    3    3    0    0  0.47591124242E+02 -0.58540722303E+02  0.10385216814E+03  0.12837586156E+03  0.17770000000E+01 0.  1.
</event>
<event>
 7    1  0.2288857E-006  0.4720234E+03  0.7546771E-02  0.9464682E-01
        -11   -1    0    0    0    0  0.00000000000E+00  0.00000000000E+00  0.50000000000E+03  0.50000000000E+03  0.00000000000E+00 0. -1.
         11   -1    0    0    0    0 -0.00000000000E+00 -0.00000000000E+00 -0.50000000000E+03  0.50000000000E+03  0.00000000000E+00 0.  1.
         23    2    1    2    0    0  0.35713774839E+02  0.95933513957E+02  0.43310316110E+03  0.45421269718E+03  0.90841143294E+02 0.  0.
        -11    1    1    2    0    0  0.49154268596E+02 -0.15544880624E+02  0.35649190864E+02  0.62678945780E+02  0.00000000000E+00 0. -1.
         11    1    1    2    0    0 -0.84868043435E+02 -0.80388633334E+02 -0.46875235196E+03  0.48310835704E+03  0.00000000000E+00 0.  1.
        -15    1    3    3    0    0  0.88942766280E+01  0.10416755157E+03  0.28757513023E+03  0.30599444474E+03  0.17770000000E+01 0. -1.
         15    1    3    3    0    0  0.26819498211E+02 -0.82340376095E+01  0.14552803087E+03  0.14821825244E+03  0.17770000000E+01 0.  1.
</event>
<event>
 7    1  0.2288857E-006  0.4202379E+03  0.7546771E-02  0.9598424E-01
        -11   -1    0    0    0    0  0.00000000000E+00  0.00000000000E+00  0.50000000000E+03  0.50000000000E+03  0.00000000000E+00 0. -1.
         11   -1    0    0    0    0 -0.00000000000E+00 -0.00000000000E+00 -0.50000000000E+03  0.50000000000E+03  0.00000000000E+00 0.  1.
         23    2    1    2    0    0 -0.15516758789E+02  0.11593634391E+02  0.39586803931E+03  0.40691698939E+03  0.92166965592E+02 0.  0.
        -11    1    1    2    0    0  0.14861282691E+03 -0.40514818057E+02  0.20138624784E+02  0.15534731093E+03  0.00000000000E+00 0. -1.
         11    1    1    2    0    0 -0.13309606812E+03  0.28921183667E+02 -0.41600666409E+03  0.43773569969E+03  0.00000000000E+00 0.  1.
        -15    1    3    3    0    0  0.33530141537E+02  0.25938726023E+02  0.15658416299E+03  0.16223084087E+03  0.17770000000E+01 0.  1.
         15    1    3    3    0    0 -0.49046900326E+02 -0.14345091632E+02  0.23928387631E+03  0.24468614852E+03  0.17770000000E+01 0. -1.
</event>
<event>
 7    1  0.2288857E-006  0.5170095E+03  0.7546771E-02  0.9362534E-01
        -11   -1    0    0    0    0  0.00000000000E+00  0.00000000000E+00  0.50000000000E+03  0.50000000000E+03  0.00000000000E+00 0.  1.
         11   -1    0    0    0    0 -0.00000000000E+00 -0.00000000000E+00 -0.50000000000E+03  0.50000000000E+03  0.00000000000E+00 0. -1.
         23    2    1    2    0    0 -0.19163117613E+03  0.42932983967E+02 -0.29932067062E+03  0.37015809746E+03  0.94119097314E+02 0.  0.
        -11    1    1    2    0    0  0.17880522109E+03 -0.63900308076E+02  0.44410050972E+03  0.48299049597E+03  0.00000000000E+00 0.  1.
         11    1    1    2    0    0  0.12825955040E+02  0.20967324109E+02 -0.14477983910E+03  0.14685140658E+03  0.00000000000E+00 0. -1.
        -15    1    3    3    0    0 -0.31149405594E+02  0.27637531737E+02 -0.16930841552E+02  0.44988106806E+02  0.17770000000E+01 0.  1.
         15    1    3    3    0    0 -0.16048177054E+03  0.15295452230E+02 -0.28238982906E+03  0.32516999065E+03  0.17770000000E+01 0. -1.
</event>
<event>
 7    1  0.2288857E-006  0.5176706E+03  0.7546771E-02  0.9361116E-01
        -11   -1    0    0    0    0  0.00000000000E+00  0.00000000000E+00  0.50000000000E+03  0.50000000000E+03  0.00000000000E+00 0. -1.
         11   -1    0    0    0    0 -0.00000000000E+00 -0.00000000000E+00 -0.50000000000E+03  0.50000000000E+03  0.00000000000E+00 0.  1.
         23    2    1    2    0    0 -0.38473902237E+02  0.13109734821E+02  0.34312001135E+03  0.35721288226E+03  0.90650950184E+02 0.  0.
        -11    1    1    2    0    0  0.55053768858E+02  0.74814318931E+02  0.13083795032E+03  0.16045768609E+03  0.00000000000E+00 0. -1.
         11    1    1    2    0    0 -0.16579866621E+02 -0.87924053752E+02 -0.47395796166E+03  0.48232943164E+03  0.00000000000E+00 0.  1.
        -15    1    3    3    0    0  0.26824547746E+02  0.17872756196E+02  0.85320400135E+02  0.91223462903E+02  0.17770000000E+01 0.  1.
         15    1    3    3    0    0 -0.65298449982E+02 -0.47630213755E+01  0.25779961121E+03  0.26598941936E+03  0.17770000000E+01 0. -1.
</event>
<event>
 7    1  0.2288857E-006  0.5093001E+03  0.7546771E-02  0.9379237E-01
        -11   -1    0    0    0    0  0.00000000000E+00  0.00000000000E+00  0.50000000000E+03  0.50000000000E+03  0.00000000000E+00 0.  1.
         11   -1    0    0    0    0 -0.00000000000E+00 -0.00000000000E+00 -0.50000000000E+03  0.50000000000E+03  0.00000000000E+00 0. -1.
         23    2    1    2    0    0  0.99933353964E+01 -0.55330419452E+02  0.33499230043E+03  0.35164807320E+03  0.90968148114E+02 0.  0.
        -11    1    1    2    0    0 -0.41490748332E+02 -0.52988797063E+02  0.14256529816E+03  0.15765201886E+03  0.00000000000E+00 0.  1.
         11    1    1    2    0    0  0.31497412936E+02  0.10831921652E+03 -0.47755759858E+03  0.49069990794E+03  0.00000000000E+00 0. -1.
        -15    1    3    3    0    0  0.27694077834E+02 -0.67120801971E+02  0.31172667688E+03  0.32007630780E+03  0.17770000000E+01 0.  1.
         15    1    3    3    0    0 -0.17700742437E+02  0.11790382519E+02  0.23265623548E+02  0.31571765406E+02  0.17770000000E+01 0. -1.
</event>
<event>
 7    1  0.2288857E-006  0.5106480E+03  0.7546771E-02  0.9376294E-01
        -11   -1    0    0    0    0  0.00000000000E+00  0.00000000000E+00  0.50000000000E+03  0.50000000000E+03  0.00000000000E+00 0.  1.
         11   -1    0    0    0    0 -0.00000000000E+00 -0.00000000000E+00 -0.50000000000E+03  0.50000000000E+03  0.00000000000E+00 0. -1.
         23    2    1    2    0    0  0.31228911011E+02 -0.31155998945E+02  0.36214879417E+03  0.37451322862E+03  0.84631366189E+02 0.  0.
        -11    1    1    2    0    0 -0.28327782844E+02 -0.60757660289E+02  0.11848504713E+03  0.13613472356E+03  0.00000000000E+00 0.  1.
         11    1    1    2    0    0 -0.29011281666E+01  0.91913659233E+02 -0.48063384130E+03  0.48935204782E+03  0.00000000000E+00 0. -1.
        -15    1    3    3    0    0  0.58389166741E+02 -0.18259976903E+02  0.28893870829E+03  0.29534971885E+03  0.17770000000E+01 0.  1.
         15    1    3    3    0    0 -0.27160255730E+02 -0.12896022041E+02  0.73210085878E+02  0.79163509770E+02  0.17770000000E+01 0. -1.
</event>
<event>
 7    1  0.2288857E-006  0.4564895E+03  0.7546771E-02  0.9502803E-01
        -11   -1    0    0    0    0  0.00000000000E+00  0.00000000000E+00  0.50000000000E+03  0.50000000000E+03  0.00000000000E+00 0.  1.
         11   -1    0    0    0    0 -0.00000000000E+00 -0.00000000000E+00 -0.50000000000E+03  0.50000000000E+03  0.00000000000E+00 0.  1.
         23    2    1    2    0    0  0.11269999818E+03 -0.12789990507E+03 -0.36145883501E+03  0.41401703669E+03  0.10815702454E+03 0.  0.
        -11    1    1    2    0    0 -0.16602808613E+03  0.15592637123E+03  0.43493583606E+03  0.49096592561E+03  0.00000000000E+00 0.  1.
         11    1    1    2    0    0  0.53328087942E+02 -0.28026466157E+02 -0.73477001047E+02  0.95017037691E+02  0.00000000000E+00 0.  1.
        -15    1    3    3    0    0  0.50964311427E+02 -0.35194573057E+02 -0.39866537487E+02  0.73678474143E+02  0.17770000000E+01 0. -1.
         15    1    3    3    0    0  0.61735686756E+02 -0.92705332016E+02 -0.32159229752E+03  0.34033856255E+03  0.17770000000E+01 0.  1.
</event>
<event>
 7    1  0.2288857E-006  0.5290774E+03  0.7546771E-02  0.9336999E-01
        -11   -1    0    0    0    0  0.00000000000E+00  0.00000000000E+00  0.50000000000E+03  0.50000000000E+03  0.00000000000E+00 0.  1.
         11   -1    0    0    0    0 -0.00000000000E+00 -0.00000000000E+00 -0.50000000000E+03  0.50000000000E+03  0.00000000000E+00 0.  1.
         23    2    1    2    0    0 -0.45994427583E+02  0.45954861157E+01  0.28716197630E+03  0.30488832982E+03  0.91423668508E+02 0.  0.
        -11    1    1    2    0    0  0.64532839068E+02 -0.13870763072E+03  0.16387940337E+03  0.22418910096E+03  0.00000000000E+00 0.  1.
         11    1    1    2    0    0 -0.18538411485E+02  0.13411214461E+03 -0.45104137967E+03  0.47092256923E+03  0.00000000000E+00 0.  1.
        -15    1    3    3    0    0 -0.62398164973E+02  0.29835168321E+02  0.16220073104E+03  0.17634030492E+03  0.17770000000E+01 0.  1.
         15    1    3    3    0    0  0.16403737390E+02 -0.25239682205E+02  0.12496124526E+03  0.12854802490E+03  0.17770000000E+01 0. -1.
</event>
<event>
 7    1  0.2288857E-006  0.5213256E+03  0.7546771E-02  0.9353317E-01
        -11   -1    0    0    0    0  0.00000000000E+00  0.00000000000E+00  0.50000000000E+03  0.50000000000E+03  0.00000000000E+00 0. -1.
         11   -1    0    0    0    0 -0.00000000000E+00 -0.00000000000E+00 -0.50000000000E+03  0.50000000000E+03  0.00000000000E+00 0.  1.
         23    2    1    2    0    0 -0.16079520162E+03 -0.50625751020E+02 -0.37952224134E+03  0.42589858526E+03  0.94522006548E+02 0.  0.
        -11    1    1    2    0    0  0.11561182315E+03  0.83261688401E+02  0.45697982333E+03  0.47867437924E+03  0.00000000000E+00 0. -1.
         11    1    1    2    0    0  0.45183378466E+02 -0.32635937381E+02 -0.77457581988E+02  0.95427035507E+02  0.00000000000E+00 0.  1.
        -15    1    3    3    0    0 -0.15680877026E+03 -0.17776879923E+02 -0.33578834041E+03  0.37102826735E+03  0.17770000000E+01 0.  1.
         15    1    3    3    0    0 -0.39864313585E+01 -0.32848871097E+02 -0.43733900929E+02  0.54870317904E+02  0.17770000000E+01 0. -1.
</event>
<event>
 7    1  0.2288857E-006  0.5138149E+03  0.7546771E-02  0.9369417E-01
        -11   -1    0    0    0    0  0.00000000000E+00  0.00000000000E+00  0.50000000000E+03  0.50000000000E+03  0.00000000000E+00 0.  1.
         11   -1    0    0    0    0 -0.00000000000E+00 -0.00000000000E+00 -0.50000000000E+03  0.50000000000E+03  0.00000000000E+00 0. -1.
         23    2    1    2    0    0  0.13785944413E+02  0.10766533777E+03 -0.31880483279E+03  0.34853444326E+03  0.89765580842E+02 0.  0.
        -11    1    1    2    0    0 -0.33192434569E+02 -0.73780980804E+02  0.47940645119E+03  0.48618506382E+03  0.00000000000E+00 0.  1.
         11    1    1    2    0    0  0.19406490156E+02 -0.33884356966E+02 -0.16060161840E+03  0.16528049292E+03  0.00000000000E+00 0. -1.
        -15    1    3    3    0    0 -0.24752411855E+02  0.91824701704E+02 -0.25641684731E+03  0.27349079518E+03  0.17770000000E+01 0.  1.
         15    1    3    3    0    0  0.38538356268E+02  0.15840636066E+02 -0.62387985480E+02  0.75043648073E+02  0.17770000000E+01 0. -1.
</event>
<event>
 7    1  0.2288857E-006  0.5229289E+03  0.7546771E-02  0.9349917E-01
        -11   -1    0    0    0    0  0.00000000000E+00  0.00000000000E+00  0.50000000000E+03  0.50000000000E+03  0.00000000000E+00 0.  1.
         11   -1    0    0    0    0 -0.00000000000E+00 -0.00000000000E+00 -0.50000000000E+03  0.50000000000E+03  0.00000000000E+00 0. -1.
         23    2    1    2    0    0  0.35248314811E+02  0.40019154773E+02  0.38043727100E+03  0.39485854223E+03  0.91305940455E+02 0.  0.
        -11    1    1    2    0    0  0.39515584933E+02  0.10010659954E+03  0.69420461275E+02  0.12807034461E+03  0.00000000000E+00 0.  1.
         11    1    1    2    0    0 -0.74763899744E+02 -0.14012575431E+03 -0.44985773227E+03  0.47707111316E+03  0.00000000000E+00 0. -1.
        -15    1    3    3    0    0  0.27699343694E+02 -0.25099464353E+02  0.97848966171E+02  0.10476074962E+03  0.17770000000E+01 0. -1.
         15    1    3    3    0    0  0.75489711173E+01  0.65118619126E+02  0.28258830483E+03  0.29009779261E+03  0.17770000000E+01 0.  1.
</event>
<event>
 7    1  0.2288857E-006  0.5012214E+03  0.7546771E-02  0.9397081E-01
        -11   -1    0    0    0    0  0.00000000000E+00  0.00000000000E+00  0.50000000000E+03  0.50000000000E+03  0.00000000000E+00 0.  1.
         11   -1    0    0    0    0 -0.00000000000E+00 -0.00000000000E+00 -0.50000000000E+03  0.50000000000E+03  0.00000000000E+00 0. -1.
         23    2    1    2    0    0 -0.11053732029E+02 -0.10395710628E+03  0.48008074963E+03  0.49877863590E+03  0.85868134551E+02 0.  0.
        -11    1    1    2    0    0  0.37502413203E+02  0.17356895850E+02 -0.70218301910E+02  0.81475780160E+02  0.00000000000E+00 0.  1.
         11    1    1    2    0    0 -0.26448681173E+02  0.86600210426E+02 -0.40986244772E+03  0.41974558394E+03  0.00000000000E+00 0. -1.
        -15    1    3    3    0    0  0.13165699094E+02 -0.10216360058E+02  0.11569388058E+02  0.20364629005E+02  0.17770000000E+01 0. -1.
         15    1    3    3    0    0 -0.24219431124E+02 -0.93740746218E+02  0.46851136157E+03  0.47841400690E+03  0.17770000000E+01 0.  1.
</event>
<event>
 7    1  0.2288857E-006  0.4625676E+03  0.7546771E-02  0.9487697E-01
        -11   -1    0    0    0    0  0.00000000000E+00  0.00000000000E+00  0.50000000000E+03  0.50000000000E+03  0.00000000000E+00 0.  1.
         11   -1    0    0    0    0 -0.00000000000E+00 -0.00000000000E+00 -0.50000000000E+03  0.50000000000E+03  0.00000000000E+00 0. -1.
         23    2    1    2    0    0  0.85427866726E+02 -0.28230529442E+02 -0.41044914438E+03  0.42960531722E+03  0.89427877403E+02 0.  0.
        -11    1    1    2    0    0 -0.10358437827E+03  0.74249722165E+02  0.47344303226E+03  0.49029689929E+03  0.00000000000E+00 0.  1.
         11    1    1    2    0    0  0.18156511540E+02 -0.46019192724E+02 -0.62993887878E+02  0.80097783492E+02  0.00000000000E+00 0. -1.
        -15    1    3    3    0    0  0.73165755680E+02 -0.16666960473E+02 -0.40486022873E+03  0.41175961181E+03  0.17770000000E+01 0. -1.
         15    1    3    3    0    0  0.12262111045E+02 -0.11563568969E+02 -0.55889156432E+01  0.17845705412E+02  0.17770000000E+01 0.  1.
</event>
<event>
 7    1  0.2288857E-006  0.5159943E+03  0.7546771E-02  0.9364716E-01
        -11   -1    0    0    0    0  0.00000000000E+00  0.00000000000E+00  0.50000000000E+03  0.50000000000E+03  0.00000000000E+00 0.  1.
         11   -1    0    0    0    0 -0.00000000000E+00 -0.00000000000E+00 -0.50000000000E+03  0.50000000000E+03  0.00000000000E+00 0. -1.
         23    2    1    2    0    0 -0.11263328337E+02  0.58453262852E+01  0.37816185620E+03  0.38924678960E+03  0.91354492625E+02 0.  0.
        -11    1    1    2    0    0 -0.33187425932E+02 -0.71410944465E+02  0.99317736269E+02  0.12674754817E+03  0.00000000000E+00 0.  1.
         11    1    1    2    0    0  0.44450754269E+02  0.65565618180E+02 -0.47747959247E+03  0.48400566223E+03  0.00000000000E+00 0. -1.
        -15    1    3    3    0    0  0.36713881567E+02 -0.14992240441E+02  0.17583992025E+03  0.18026511492E+03  0.17770000000E+01 0. -1.
         15    1    3    3    0    0 -0.47977209903E+02  0.20837566727E+02  0.20232193595E+03  0.20898167468E+03  0.17770000000E+01 0.  1.
</event>
<event>
 7    1  0.2288857E-006  0.5272248E+03  0.7546771E-02  0.9340872E-01
        -11   -1    0    0    0    0  0.00000000000E+00  0.00000000000E+00  0.50000000000E+03  0.50000000000E+03  0.00000000000E+00 0.  1.
         11   -1    0    0    0    0 -0.00000000000E+00 -0.00000000000E+00 -0.50000000000E+03  0.50000000000E+03  0.00000000000E+00 0. -1.
         23    2    1    2    0    0  0.13800582242E+03  0.25046304348E+02  0.26863622458E+03  0.31478125647E+03  0.85140436270E+02 0.  0.
        -11    1    1    2    0    0 -0.39009934502E+02 -0.88099586524E+02  0.18933814231E+03  0.21244350841E+03  0.00000000000E+00 0.  1.
         11    1    1    2    0    0 -0.98995887916E+02  0.63053282176E+02 -0.45797436688E+03  0.47277523512E+03  0.00000000000E+00 0. -1.
        -15    1    3    3    0    0  0.13188143073E+03  0.42351993587E+02  0.25959008479E+03  0.29423897258E+03  0.17770000000E+01 0. -1.
         15    1    3    3    0    0  0.61243916859E+01 -0.17305689239E+02  0.90461397852E+01  0.20542283894E+02  0.17770000000E+01 0.  1.
</event>
<event>
 7    1  0.2288857E-006  0.5175474E+03  0.7546771E-02  0.9361380E-01
        -11   -1    0    0    0    0  0.00000000000E+00  0.00000000000E+00  0.50000000000E+03  0.50000000000E+03  0.00000000000E+00 0.  1.
         11   -1    0    0    0    0 -0.00000000000E+00 -0.00000000000E+00 -0.50000000000E+03  0.50000000000E+03  0.00000000000E+00 0. -1.
         23    2    1    2    0    0  0.49305340451E+02 -0.12117169658E+03 -0.18939277360E+03  0.24771887678E+03  0.91550109619E+02 0.  0.
        -11    1    1    2    0    0  0.69530221683E+01  0.18538050579E+03  0.44536082251E+03  0.48245262842E+03  0.00000000000E+00 0.  1.
         11    1    1    2    0    0 -0.56258362619E+02 -0.64208809206E+02 -0.25596804891E+03  0.26982849480E+03  0.00000000000E+00 0. -1.
        -15    1    3    3    0    0 -0.21962479402E+02 -0.54398964498E+02 -0.47752202454E+02  0.75663917477E+02  0.17770000000E+01 0.  1.
         15    1    3    3    0    0  0.71267819852E+02 -0.66772732083E+02 -0.14164057114E+03  0.17205495930E+03  0.17770000000E+01 0. -1.
</event>
<event>
 7    1  0.2288857E-006  0.5351053E+03  0.7546771E-02  0.9324513E-01
        -11   -1    0    0    0    0  0.00000000000E+00  0.00000000000E+00  0.50000000000E+03  0.50000000000E+03  0.00000000000E+00 0.  1.
         11   -1    0    0    0    0 -0.00000000000E+00 -0.00000000000E+00 -0.50000000000E+03  0.50000000000E+03  0.00000000000E+00 0. -1.
         23    2    1    2    0    0 -0.11164229838E+03 -0.30545612832E+01  0.17902166790E+03  0.23029082367E+03  0.92259269236E+02 0.  0.
        -11    1    1    2    0    0  0.70088934108E+02 -0.14081824251E+03  0.26109312444E+03  0.30481446117E+03  0.00000000000E+00 0.  1.
         11    1    1    2    0    0  0.41553364268E+02  0.14387280379E+03 -0.44011479234E+03  0.46489471516E+03  0.00000000000E+00 0. -1.
        -15    1    3    3    0    0 -0.12791411958E+03 -0.62608198788E+01  0.16107353636E+03  0.20578887652E+03  0.17770000000E+01 0. -1.
         15    1    3    3    0    0  0.16271821209E+02  0.32062585957E+01  0.17948131532E+02  0.24501947150E+02  0.17770000000E+01 0.  1.
</event>
<event>
 7    1  0.2288857E-006  0.4665754E+03  0.7546771E-02  0.9477871E-01
        -11   -1    0    0    0    0  0.00000000000E+00  0.00000000000E+00  0.50000000000E+03  0.50000000000E+03  0.00000000000E+00 0.  1.
         11   -1    0    0    0    0 -0.00000000000E+00 -0.00000000000E+00 -0.50000000000E+03  0.50000000000E+03  0.00000000000E+00 0. -1.
         23    2    1    2    0    0  0.94121011670E+01 -0.96398884304E+02  0.43691978642E+03  0.45681817331E+03  0.91665757839E+02 0.  0.
        -11    1    1    2    0    0  0.56888087995E+02  0.38494948398E+02  0.24888831658E+02  0.73058671964E+02  0.00000000000E+00 0.  1.
         11    1    1    2    0    0 -0.66300189162E+02  0.57903935906E+02 -0.46180861808E+03  0.47012315472E+03  0.00000000000E+00 0. -1.
        -15    1    3    3    0    0  0.48214786333E+02 -0.34692694085E+02  0.22453916727E+03  0.23226976560E+03  0.17770000000E+01 0. -1.
         15    1    3    3    0    0 -0.38802685166E+02 -0.61706190219E+02  0.21238061915E+03  0.22454840771E+03  0.17770000000E+01 0.  1.
</event>
<event>
 7    1  0.2288857E-006  0.4813430E+03  0.7546771E-02  0.9442552E-01
        -11   -1    0    0    0    0  0.00000000000E+00  0.00000000000E+00  0.50000000000E+03  0.50000000000E+03  0.00000000000E+00 0. -1.
         11   -1    0    0    0    0 -0.00000000000E+00 -0.00000000000E+00 -0.50000000000E+03  0.50000000000E+03  0.00000000000E+00 0. -1.
         23    2    1    2    0    0  0.16926360232E+02  0.48684768067E+02  0.45831022887E+03  0.47426157531E+03  0.11053989152E+03 0.  0.
        -11    1    1    2    0    0  0.47520900858E+02  0.24090234023E+01  0.11362080912E+02  0.48919692301E+02  0.00000000000E+00 0. -1.
         11    1    1    2    0    0 -0.64447261090E+02 -0.51093791469E+02 -0.46967230978E+03  0.47681873239E+03  0.00000000000E+00 0. -1.
        -15    1    3    3    0    0  0.55845494332E+02  0.58570709927E+02  0.33115620983E+03  0.34090591126E+03  0.17770000000E+01 0. -1.
         15    1    3    3    0    0 -0.38919134100E+02 -0.98859418597E+01  0.12715401904E+03  0.13335566404E+03  0.17770000000E+01 0.  1.
</event>
<event>
 7    1  0.2288857E-006  0.5121702E+03  0.7546771E-02  0.9372982E-01
        -11   -1    0    0    0    0  0.00000000000E+00  0.00000000000E+00  0.50000000000E+03  0.50000000000E+03  0.00000000000E+00 0. -1.
         11   -1    0    0    0    0 -0.00000000000E+00 -0.00000000000E+00 -0.50000000000E+03  0.50000000000E+03  0.00000000000E+00 0.  1.
         23    2    1    2    0    0 -0.76618696887E+01 -0.22515860761E+02  0.32624311015E+03  0.33932470342E+03  0.90227596664E+02 0.  0.
        -11    1    1    2    0    0  0.71263421303E+02 -0.30275141408E+02  0.15453319775E+03  0.17284550504E+03  0.00000000000E+00 0. -1.
         11    1    1    2    0    0 -0.63601551614E+02  0.52791002168E+02 -0.48077630790E+03  0.48782979154E+03  0.00000000000E+00 0.  1.
        -15    1    3    3    0    0 -0.39460477641E+02 -0.40413555194E+02  0.18545506115E+03  0.19387398529E+03  0.17770000000E+01 0.  1.
         15    1    3    3    0    0  0.31798607952E+02  0.17897694433E+02  0.14078804900E+03  0.14545071813E+03  0.17770000000E+01 0. -1.
</event>
<event>
 7    1  0.2288857E-006  0.5064120E+03  0.7546771E-02  0.9385576E-01
        -11   -1    0    0    0    0  0.00000000000E+00  0.00000000000E+00  0.50000000000E+03  0.50000000000E+03  0.00000000000E+00 0.  1.
         11   -1    0    0    0    0 -0.00000000000E+00 -0.00000000000E+00 -0.50000000000E+03  0.50000000000E+03  0.00000000000E+00 0. -1.
         23    2    1    2    0    0 -0.11601398964E+03  0.16141721356E+02 -0.30259080201E+03  0.33668846321E+03  0.89878400265E+02 0.  0.
        -11    1    1    2    0    0  0.18937153157E+03 -0.13412433026E+02  0.45561789811E+03  0.49358802600E+03  0.00000000000E+00 0.  1.
         11    1    1    2    0    0 -0.73357541930E+02 -0.27292883308E+01 -0.15302709610E+03  0.16972351079E+03  0.00000000000E+00 0. -1.
        -15    1    3    3    0    0 -0.38653147587E+02 -0.33560034700E+02 -0.71358593252E+02  0.87838193898E+02  0.17770000000E+01 0.  1.
         15    1    3    3    0    0 -0.77360842057E+02  0.49701756056E+02 -0.23123220876E+03  0.24885026931E+03  0.17770000000E+01 0. -1.
</event>
<event>
 7    1  0.2288857E-006  0.5288987E+03  0.7546771E-02  0.9337372E-01
        -11   -1    0    0    0    0  0.00000000000E+00  0.00000000000E+00  0.50000000000E+03  0.50000000000E+03  0.00000000000E+00 0. -1.
         11   -1    0    0    0    0 -0.00000000000E+00 -0.00000000000E+00 -0.50000000000E+03  0.50000000000E+03  0.00000000000E+00 0. -1.
         23    2    1    2    0    0 -0.15408853745E+03 -0.16164215012E+03 -0.17974309249E+02  0.24149504035E+03  0.90140538324E+02 0.  0.
        -11    1    1    2    0    0  0.29891687618E+03  0.32052729658E+03 -0.17276402779E+03  0.47110132245E+03  0.00000000000E+00 0. -1.
         11    1    1    2    0    0 -0.14482833873E+03 -0.15888514646E+03  0.19073833704E+03  0.28740363720E+03  0.00000000000E+00 0. -1.
        -15    1    3    3    0    0 -0.10251425244E+03 -0.14445058288E+03 -0.41971268572E+02  0.18204364301E+03  0.17770000000E+01 0.  1.
         15    1    3    3    0    0 -0.51574285017E+02 -0.17191567239E+02  0.23996959323E+02  0.59451397334E+02  0.17770000000E+01 0. -1.
</event>
<event>
 7    1  0.2288857E-006  0.4180266E+03  0.7546771E-02  0.9604588E-01
        -11   -1    0    0    0    0  0.00000000000E+00  0.00000000000E+00  0.50000000000E+03  0.50000000000E+03  0.00000000000E+00 0. -1.
         11   -1    0    0    0    0 -0.00000000000E+00 -0.00000000000E+00 -0.50000000000E+03  0.50000000000E+03  0.00000000000E+00 0. -1.
         23    2    1    2    0    0 -0.92715105072E+02 -0.89851132086E+02  0.41003325303E+03  0.43958688692E+03  0.91869722539E+02 0.  0.
        -11    1    1    2    0    0  0.74230371637E+02 -0.12213831833E+03 -0.69663780251E+02  0.15899987156E+03  0.00000000000E+00 0. -1.
         11    1    1    2    0    0  0.18484733436E+02  0.21198945042E+03 -0.34036947278E+03  0.40141324151E+03  0.00000000000E+00 0. -1.
        -15    1    3    3    0    0 -0.76206406379E+02 -0.15976851285E+02  0.15372865250E+03  0.17233204135E+03  0.17770000000E+01 0.  1.
         15    1    3    3    0    0 -0.16508698694E+02 -0.73874280801E+02  0.25630460054E+03  0.26725484557E+03  0.17770000000E+01 0. -1.
</event>
<event>
 7    1  0.2288857E-006  0.5168525E+03  0.7546771E-02  0.9362871E-01
        -11   -1    0    0    0    0  0.00000000000E+00  0.00000000000E+00  0.50000000000E+03  0.50000000000E+03  0.00000000000E+00 0.  1.
         11   -1    0    0    0    0 -0.00000000000E+00 -0.00000000000E+00 -0.50000000000E+03  0.50000000000E+03  0.00000000000E+00 0. -1.
         23    2    1    2    0    0  0.49120436394E+02 -0.64281520275E+02  0.39893250900E+03  0.41716241498E+03  0.91281995007E+02 0.  0.
        -11    1    1    2    0    0 -0.15306511859E+02 -0.76554285887E+02  0.61994130020E+02  0.99690120623E+02  0.00000000000E+00 0.  1.
         11    1    1    2    0    0 -0.33813924535E+02  0.14083580616E+03 -0.46092663902E+03  0.48314746440E+03  0.00000000000E+00 0. -1.
        -15    1    3    3    0    0 -0.21711844662E+02 -0.36910437771E+02  0.19210967309E+03  0.19683259090E+03  0.17770000000E+01 0. -1.
         15    1    3    3    0    0  0.70832281056E+02 -0.27371082504E+02  0.20682283591E+03  0.22032982409E+03  0.17770000000E+01 0.  1.
</event>
<event>
 7    1  0.2288857E-006  0.3485008E+03  0.7546771E-02  0.9822140E-01
        -11   -1    0    0    0    0  0.00000000000E+00  0.00000000000E+00  0.50000000000E+03  0.50000000000E+03  0.00000000000E+00 0. -1.
         11   -1    0    0    0    0 -0.00000000000E+00 -0.00000000000E+00 -0.50000000000E+03  0.50000000000E+03  0.00000000000E+00 0.  1.
         23    2    1    2    0    0  0.99666484891E+02  0.12180325583E+03  0.22686939764E+03  0.29026831373E+03  0.89535071519E+02 0.  0.
        -11    1    1    2    0    0 -0.18811100245E+03  0.14585337511E+03  0.11688088641E+03  0.26517936926E+03  0.00000000000E+00 0. -1.
         11    1    1    2    0    0  0.88444517556E+02 -0.26765663093E+03 -0.34375028405E+03  0.44455231701E+03  0.00000000000E+00 0.  1.
        -15    1    3    3    0    0  0.48328024132E+02  0.87137113366E+02  0.19849815932E+03  0.22211067382E+03  0.17770000000E+01 0. -1.
         15    1    3    3    0    0  0.51338460759E+02  0.34666142459E+02  0.28371238324E+02  0.68157639918E+02  0.17770000000E+01 0.  1.
</event>
<event>
 7    1  0.2288857E-006  0.4124819E+03  0.7546771E-02  0.9620223E-01
        -11   -1    0    0    0    0  0.00000000000E+00  0.00000000000E+00  0.50000000000E+03  0.50000000000E+03  0.00000000000E+00 0. -1.
         11   -1    0    0    0    0 -0.00000000000E+00 -0.00000000000E+00 -0.50000000000E+03  0.50000000000E+03  0.00000000000E+00 0. -1.
         23    2    1    2    0    0 -0.32433309799E+02  0.77361093521E+02  0.41206788306E+03  0.43012491296E+03  0.90392710537E+02 0.  0.
        -11    1    1    2    0    0 -0.49028639287E+01 -0.16643134726E+03 -0.21907021445E+02  0.16793852749E+03  0.00000000000E+00 0. -1.
         11    1    1    2    0    0  0.37336173728E+02  0.89070253742E+02 -0.39016086162E+03  0.40193655956E+03  0.00000000000E+00 0. -1.
        -15    1    3    3    0    0 -0.35539739616E+02  0.90270867314E+02  0.40150938238E+03  0.41306760276E+03  0.17770000000E+01 0. -1.
         15    1    3    3    0    0  0.31064298171E+01 -0.12909773792E+02  0.10558500679E+02  0.17057310197E+02  0.17770000000E+01 0.  1.
</event>
<event>
 7    1  0.2288857E-006  0.5130606E+03  0.7546771E-02  0.9371051E-01
        -11   -1    0    0    0    0  0.00000000000E+00  0.00000000000E+00  0.50000000000E+03  0.50000000000E+03  0.00000000000E+00 0. -1.
         11   -1    0    0    0    0 -0.00000000000E+00 -0.00000000000E+00 -0.50000000000E+03  0.50000000000E+03  0.00000000000E+00 0. -1.
         23    2    1    2    0    0  0.62372459653E+01 -0.11088974910E+02  0.18784417546E+03  0.20885030523E+03  0.90394397724E+02 0.  0.
        -11    1    1    2    0    0 -0.82897715386E+02 -0.15665762206E+02  0.29227803973E+03  0.30421028883E+03  0.00000000000E+00 0. -1.
         11    1    1    2    0    0  0.76660469421E+02  0.26754737116E+02 -0.48012221519E+03  0.48693940593E+03  0.00000000000E+00 0. -1.
        -15    1    3    3    0    0 -0.12297254616E+02  0.28464713168E+02  0.23934265972E+02  0.39210574893E+02  0.17770000000E+01 0.  1.
         15    1    3    3    0    0  0.18534500581E+02 -0.39553688078E+02  0.16390990949E+03  0.16963973034E+03  0.17770000000E+01 0. -1.
</event>
<event>
 7    1  0.2288857E-006  0.5156656E+03  0.7546771E-02  0.9365423E-01
        -11   -1    0    0    0    0  0.00000000000E+00  0.00000000000E+00  0.50000000000E+03  0.50000000000E+03  0.00000000000E+00 0. -1.
         11   -1    0    0    0    0 -0.00000000000E+00 -0.00000000000E+00 -0.50000000000E+03  0.50000000000E+03  0.00000000000E+00 0.  1.
         23    2    1    2    0    0 -0.45890703303E+02  0.30984128197E+02  0.16531517290E+03  0.19847200977E+03  0.94847558854E+02 0.  0.
        -11    1    1    2    0    0  0.24526683867E+02  0.89702201798E+02  0.30325521431E+03  0.31719358164E+03  0.00000000000E+00 0. -1.
         11    1    1    2    0    0  0.21364019436E+02 -0.12068632999E+03 -0.46857038721E+03  0.48433440859E+03  0.00000000000E+00 0.  1.
        -15    1    3    3    0    0 -0.67378451464E+02  0.35870671871E+02  0.81029217748E+02  0.11133486731E+03  0.17770000000E+01 0.  1.
         15    1    3    3    0    0  0.21487748161E+02 -0.48865436744E+01  0.84285955149E+02  0.87137142451E+02  0.17770000000E+01 0. -1.
</event>
<event>
 7    1  0.2288857E-006  0.4935973E+03  0.7546771E-02  0.9414251E-01
        -11   -1    0    0    0    0  0.00000000000E+00  0.00000000000E+00  0.50000000000E+03  0.50000000000E+03  0.00000000000E+00 0.  1.
         11   -1    0    0    0    0 -0.00000000000E+00 -0.00000000000E+00 -0.50000000000E+03  0.50000000000E+03  0.00000000000E+00 0. -1.
         23    2    1    2    0    0  0.35829767366E+02 -0.46695212288E+02  0.47923981123E+03  0.49155239437E+03  0.92134383714E+02 0.  0.
        -11    1    1    2    0    0  0.11269718432E+02 -0.17964745868E+02  0.13457961427E+01  0.21249701525E+02  0.00000000000E+00 0.  1.
         11    1    1    2    0    0 -0.47099485799E+02  0.64659958156E+02 -0.48058560737E+03  0.48719790411E+03  0.00000000000E+00 0. -1.
        -15    1    3    3    0    0  0.62056813999E+02 -0.38545760966E+02  0.41898619719E+03  0.42531096273E+03  0.17770000000E+01 0.  1.
         15    1    3    3    0    0 -0.26227046633E+02 -0.81494513223E+01  0.60253614038E+02  0.66241431639E+02  0.17770000000E+01 0. -1.
</event>
<event>
 7    1  0.2288857E-006  0.5299692E+03  0.7546771E-02  0.9335140E-01
        -11   -1    0    0    0    0  0.00000000000E+00  0.00000000000E+00  0.50000000000E+03  0.50000000000E+03  0.00000000000E+00 0.  1.
         11   -1    0    0    0    0 -0.00000000000E+00 -0.00000000000E+00 -0.50000000000E+03  0.50000000000E+03  0.00000000000E+00 0. -1.
         23    2    1    2    0    0  0.52095450491E+02 -0.87370257328E+01  0.25333746482E+03  0.27387334420E+03  0.89646338477E+02 0.  0.
        -11    1    1    2    0    0 -0.12190482680E+03 -0.11157830159E+03  0.19563893532E+03  0.25609587500E+03  0.00000000000E+00 0.  1.
         11    1    1    2    0    0  0.69809376307E+02  0.12031532733E+03 -0.44897640014E+03  0.47003078079E+03  0.00000000000E+00 0. -1.
        -15    1    3    3    0    0  0.23345138137E+02  0.30502685710E+02  0.41752735337E+02  0.56761412485E+02  0.17770000000E+01 0.  1.
         15    1    3    3    0    0  0.28750312354E+02 -0.39239711442E+02  0.21158472949E+03  0.21711193172E+03  0.17770000000E+01 0. -1.
</event>
<event>
 7    1  0.2288857E-006  0.4647989E+03  0.7546771E-02  0.9482214E-01
        -11   -1    0    0    0    0  0.00000000000E+00  0.00000000000E+00  0.50000000000E+03  0.50000000000E+03  0.00000000000E+00 0.  1.
         11   -1    0    0    0    0 -0.00000000000E+00 -0.00000000000E+00 -0.50000000000E+03  0.50000000000E+03  0.00000000000E+00 0. -1.
         23    2    1    2    0    0  0.65076224356E+02  0.27473121826E+03 -0.33203132649E+03  0.44563598053E+03  0.92921838673E+02 0.  0.
        -11    1    1    2    0    0 -0.90356917924E+02 -0.24703732828E+03  0.39882861052E+03  0.47776152498E+03  0.00000000000E+00 0.  1.
         11    1    1    2    0    0  0.25280693568E+02 -0.27693889983E+02 -0.66797284027E+02  0.76602494496E+02  0.00000000000E+00 0. -1.
        -15    1    3    3    0    0  0.76930428253E+02  0.25237052042E+03 -0.26493093277E+03  0.37389935442E+03  0.17770000000E+01 0. -1.
         15    1    3    3    0    0 -0.11854203897E+02  0.22360697840E+02 -0.67100393727E+02  0.71736626107E+02  0.17770000000E+01 0.  1.
</event>
<event>
 7    1  0.2288857E-006  0.3617097E+03  0.7546771E-02  0.9776835E-01
        -11   -1    0    0    0    0  0.00000000000E+00  0.00000000000E+00  0.50000000000E+03  0.50000000000E+03  0.00000000000E+00 0.  1.
         11   -1    0    0    0    0 -0.00000000000E+00 -0.00000000000E+00 -0.50000000000E+03  0.50000000000E+03  0.00000000000E+00 0.  1.
         23    2    1    2    0    0  0.10533390834E+03 -0.67299400796E+02  0.18736035722E+03  0.24232981563E+03  0.89416969828E+02 0.  0.
        -11    1    1    2    0    0 -0.20438597321E+03  0.50042378028E+02  0.23968616429E+03  0.31894721036E+03  0.00000000000E+00 0.  1.
         11    1    1    2    0    0  0.99052064873E+02  0.17257022769E+02 -0.42704652151E+03  0.43872297401E+03  0.00000000000E+00 0.  1.
        -15    1    3    3    0    0  0.52304448891E+02  0.93606947768E+01  0.34814671550E+02  0.63549957236E+02  0.17770000000E+01 0. -1.
         15    1    3    3    0    0  0.53029459448E+02 -0.76660095573E+02  0.15254568567E+03  0.17877985840E+03  0.17770000000E+01 0.  1.
</event>
<event>
 7    1  0.2288857E-006  0.5164440E+03  0.7546771E-02  0.9363749E-01
        -11   -1    0    0    0    0  0.00000000000E+00  0.00000000000E+00  0.50000000000E+03  0.50000000000E+03  0.00000000000E+00 0. -1.
         11   -1    0    0    0    0 -0.00000000000E+00 -0.00000000000E+00 -0.50000000000E+03  0.50000000000E+03  0.00000000000E+00 0. -1.
         23    2    1    2    0    0 -0.97951742437E+02  0.35732166986E+02 -0.11110321490E+03  0.17760878902E+03  0.91266784614E+02 0.  0.
        -11    1    1    2    0    0  0.34575381669E+03  0.83518980356E+01  0.33795117189E+03  0.48355604695E+03  0.00000000000E+00 0. -1.
         11    1    1    2    0    0 -0.24780207426E+03 -0.44084065022E+02 -0.22684795699E+03  0.33883516403E+03  0.00000000000E+00 0. -1.
        -15    1    3    3    0    0 -0.10649897854E+03  0.50151120033E+02 -0.80339222224E+02  0.14252970086E+03  0.17770000000E+01 0.  1.
         15    1    3    3    0    0  0.85472361051E+01 -0.14418953047E+02 -0.30763992675E+02  0.35079088162E+02  0.17770000000E+01 0. -1.
</event>
<event>
 7    1  0.2288857E-006  0.5268283E+03  0.7546771E-02  0.9341703E-01
        -11   -1    0    0    0    0  0.00000000000E+00  0.00000000000E+00  0.50000000000E+03  0.50000000000E+03  0.00000000000E+00 0.  1.
         11   -1    0    0    0    0 -0.00000000000E+00 -0.00000000000E+00 -0.50000000000E+03  0.50000000000E+03  0.00000000000E+00 0. -1.
         23    2    1    2    0    0 -0.11364112708E+02 -0.30726148432E+01  0.93508805289E+02  0.13313356563E+03  0.94032258347E+02 0.  0.
        -11    1    1    2    0    0  0.14649821318E+03 -0.14866171498E+03  0.33381654633E+03  0.39369470224E+03  0.00000000000E+00 0.  1.
         11    1    1    2    0    0 -0.13513410047E+03  0.15173432982E+03 -0.42732535162E+03  0.47317173214E+03  0.00000000000E+00 0. -1.
        -15    1    3    3    0    0  0.24745647848E+02  0.34280969061E+02  0.35452755288E+02  0.55204959140E+02  0.17770000000E+01 0.  1.
         15    1    3    3    0    0 -0.36109760556E+02 -0.37353583904E+02  0.58056050001E+02  0.77928606485E+02  0.17770000000E+01 0. -1.
</event>
<event>
 7    1  0.2288857E-006  0.5336517E+03  0.7546771E-02  0.9327508E-01
        -11   -1    0    0    0    0  0.00000000000E+00  0.00000000000E+00  0.50000000000E+03  0.50000000000E+03  0.00000000000E+00 0.  1.
         11   -1    0    0    0    0 -0.00000000000E+00 -0.00000000000E+00 -0.50000000000E+03  0.50000000000E+03  0.00000000000E+00 0. -1.
         23    2    1    2    0    0  0.17588479481E+00 -0.77319220027E+02  0.79640147572E+02  0.14587824498E+03  0.94655250943E+02 0.  0.
        -11    1    1    2    0    0 -0.12264615837E+03 -0.36764886976E+03 -0.12668940881E+02  0.38777348241E+03  0.00000000000E+00 0.  1.
         11    1    1    2    0    0  0.12247027358E+03  0.44496808979E+03 -0.66971206691E+02  0.46634827261E+03  0.00000000000E+00 0. -1.
        -15    1    3    3    0    0 -0.16311382056E+02  0.67240367403E+01 -0.11235216201E+02  0.20991942901E+02  0.17770000000E+01 0.  1.
         15    1    3    3    0    0  0.16487266851E+02 -0.84043256767E+02  0.90875363773E+02  0.12488630208E+03  0.17770000000E+01 0. -1.
</event>
<event>
 6    1  0.2288857E-006  0.5103168E+03  0.7546771E-02  0.9377017E-01
        -11   -1    0    0    0    0  0.00000000000E+00  0.00000000000E+00  0.50000000000E+03  0.50000000000E+03  0.00000000000E+00 0.  1.
         11   -1    0    0    0    0 -0.00000000000E+00 -0.00000000000E+00 -0.50000000000E+03  0.50000000000E+03  0.00000000000E+00 0. -1.
        -11    1    1    2    0    0  0.28570099901E+02  0.41589610844E+02 -0.76641544832E+02  0.91759864498E+02  0.00000000000E+00 0.  1.
         11    1    1    2    0    0  0.70461233982E+02  0.16346149770E+02 -0.39129404760E+03  0.39792337679E+03  0.00000000000E+00 0. -1.
        -15    1    1    2    0    0 -0.10393721459E+03 -0.46058209903E+02  0.47958643177E+03  0.49287991087E+03  0.17770000000E+01 0.  1.
         15    1    1    2    0    0  0.49058807048E+01 -0.11877550710E+02 -0.11650839335E+02  0.17436847840E+02  0.17770000000E+01 0. -1.
</event>
<event>
 7    1  0.2288857E-006  0.3455654E+03  0.7546771E-02  0.9832501E-01
        -11   -1    0    0    0    0  0.00000000000E+00  0.00000000000E+00  0.50000000000E+03  0.50000000000E+03  0.00000000000E+00 0.  1.
         11   -1    0    0    0    0 -0.00000000000E+00 -0.00000000000E+00 -0.50000000000E+03  0.50000000000E+03  0.00000000000E+00 0. -1.
         23    2    1    2    0    0 -0.27456080368E+03 -0.27598989607E+03  0.14068596443E+03  0.42286808113E+03  0.86433881085E+02 0.  0.
        -11    1    1    2    0    0  0.15608866901E+03  0.17822411085E+03  0.12677670781E+03  0.26870027898E+03  0.00000000000E+00 0.  1.
         11    1    1    2    0    0  0.11847213467E+03  0.97765785222E+02 -0.26746267223E+03  0.30843163990E+03  0.00000000000E+00 0. -1.
        -15    1    3    3    0    0 -0.18968479381E+03 -0.13231410622E+03  0.70087609066E+02  0.24166665964E+03  0.17770000000E+01 0. -1.
         15    1    3    3    0    0 -0.84876009870E+02 -0.14367578985E+03  0.70598355360E+02  0.18120142149E+03  0.17770000000E+01 0.  1.
</event>
<event>
 7    1  0.2288857E-006  0.5280468E+03  0.7546771E-02  0.9339151E-01
        -11   -1    0    0    0    0  0.00000000000E+00  0.00000000000E+00  0.50000000000E+03  0.50000000000E+03  0.00000000000E+00 0.  1.
         11   -1    0    0    0    0 -0.00000000000E+00 -0.00000000000E+00 -0.50000000000E+03  0.50000000000E+03  0.00000000000E+00 0. -1.
         23    2    1    2    0    0 -0.12695211044E+02 -0.15804355157E+03 -0.22474601081E+03  0.29104661750E+03  0.95175793177E+02 0.  0.
        -11    1    1    2    0    0  0.50908862240E+02  0.11554081662E+03  0.45475100541E+03  0.47195324926E+03  0.00000000000E+00 0.  1.
         11    1    1    2    0    0 -0.38213651195E+02  0.42502734947E+02 -0.23000499460E+03  0.23700013324E+03  0.00000000000E+00 0. -1.
        -15    1    3    3    0    0 -0.33225763441E+02 -0.79845361989E+02 -0.53611358939E+02  0.10176722814E+03  0.17770000000E+01 0.  1.
         15    1    3    3    0    0  0.20530552397E+02 -0.78198189578E+02 -0.17113465187E+03  0.18927938936E+03  0.17770000000E+01 0. -1.
</event>
<event>
 7    1  0.2288857E-006  0.3609263E+03  0.7546771E-02  0.9779464E-01
        -11   -1    0    0    0    0  0.00000000000E+00  0.00000000000E+00  0.50000000000E+03  0.50000000000E+03  0.00000000000E+00 0. -1.
         11   -1    0    0    0    0 -0.00000000000E+00 -0.00000000000E+00 -0.50000000000E+03  0.50000000000E+03  0.00000000000E+00 0. -1.
         23    2    1    2    0    0  0.77805158304E+02  0.27636899651E+02  0.43524336861E+03  0.45207910621E+03  0.90118186113E+02 0.  0.
        -11    1    1    2    0    0  0.12370130264E+03 -0.28584065269E+02 -0.21263113082E+03  0.24765108289E+03  0.00000000000E+00 0. -1.
         11    1    1    2    0    0 -0.20150646094E+03  0.94716561802E+00 -0.22261223779E+03  0.30026981090E+03  0.00000000000E+00 0. -1.
        -15    1    3    3    0    0  0.86703135762E+01  0.44702233819E+02  0.10886276283E+03  0.11801577397E+03  0.17770000000E+01 0.  1.
         15    1    3    3    0    0  0.69134844728E+02 -0.17065334169E+02  0.32638060579E+03  0.33406333224E+03  0.17770000000E+01 0. -1.
</event>
<event>
 7    1  0.2288857E-006  0.4483939E+03  0.7546771E-02  0.9523317E-01
        -11   -1    0    0    0    0  0.00000000000E+00  0.00000000000E+00  0.50000000000E+03  0.50000000000E+03  0.00000000000E+00 0.  1.
         11   -1    0    0    0    0 -0.00000000000E+00 -0.00000000000E+00 -0.50000000000E+03  0.50000000000E+03  0.00000000000E+00 0.  1.
         23    2    1    2    0    0 -0.22300452331E+03  0.22419027920E+03  0.27239668783E+03  0.42876441717E+03  0.98217468852E+02 0.  0.
        -11    1    1    2    0    0  0.37922351917E+02  0.10067122810E+03  0.17842654925E+01  0.10759174943E+03  0.00000000000E+00 0.  1.
         11    1    1    2    0    0  0.18508217139E+03 -0.32486150730E+03 -0.27418095332E+03  0.46364383340E+03  0.00000000000E+00 0.  1.
        -15    1    3    3    0    0 -0.23257164394E+03  0.21659331921E+03  0.26777508750E+03  0.41558259191E+03  0.17770000000E+01 0.  1.
         15    1    3    3    0    0  0.95671206346E+01  0.75969599942E+01  0.46216003299E+01  0.13181825253E+02  0.17770000000E+01 0. -1.
</event>
<event>
 7    1  0.2288857E-006  0.3464180E+03  0.7546771E-02  0.9829480E-01
        -11   -1    0    0    0    0  0.00000000000E+00  0.00000000000E+00  0.50000000000E+03  0.50000000000E+03  0.00000000000E+00 0.  1.
         11   -1    0    0    0    0 -0.00000000000E+00 -0.00000000000E+00 -0.50000000000E+03  0.50000000000E+03  0.00000000000E+00 0. -1.
         23    2    1    2    0    0 -0.22066251761E+02  0.24850652269E+03  0.16648644844E+03  0.31345206178E+03  0.91060673369E+02 0.  0.
        -11    1    1    2    0    0 -0.13307799845E+03 -0.11976541737E+03  0.19990271123E+03  0.26835536668E+03  0.00000000000E+00 0.  1.
         11    1    1    2    0    0  0.15514425021E+03 -0.12874110531E+03 -0.36638915967E+03  0.41819257154E+03  0.00000000000E+00 0. -1.
        -15    1    3    3    0    0 -0.72858430185E+01  0.25203494095E+02  0.60208933751E+02  0.65700632079E+02  0.17770000000E+01 0. -1.
         15    1    3    3    0    0 -0.14780408743E+02  0.22330302859E+03  0.10627751469E+03  0.24775142970E+03  0.17770000000E+01 0.  1.
</event>
<event>
 7    1  0.2288857E-006  0.5133987E+03  0.7546771E-02  0.9370318E-01
        -11   -1    0    0    0    0  0.00000000000E+00  0.00000000000E+00  0.50000000000E+03  0.50000000000E+03  0.00000000000E+00 0.  1.
         11   -1    0    0    0    0 -0.00000000000E+00 -0.00000000000E+00 -0.50000000000E+03  0.50000000000E+03  0.00000000000E+00 0. -1.
         23    2    1    2    0    0 -0.52381496809E+01  0.30799291717E+02  0.47609028075E+03  0.48660131645E+03  0.95618257501E+02 0.  0.
        -11    1    1    2    0    0  0.77597505566E+02 -0.22504902549E+02 -0.91901851628E+02  0.12236745418E+03  0.00000000000E+00 0.  1.
         11    1    1    2    0    0 -0.72359355885E+02 -0.82943891682E+01 -0.38418842912E+03  0.39103122937E+03  0.00000000000E+00 0. -1.
        -15    1    3    3    0    0 -0.25096380610E+01  0.65417624297E+02  0.29170061856E+03  0.29896182440E+03  0.17770000000E+01 0.  1.
         15    1    3    3    0    0 -0.27285116198E+01 -0.34618332580E+02  0.18438966219E+03  0.18763949205E+03  0.17770000000E+01 0. -1.
</event>
<event>
 7    1  0.2288857E-006  0.4572926E+03  0.7546771E-02  0.9500793E-01
        -11   -1    0    0    0    0  0.00000000000E+00  0.00000000000E+00  0.50000000000E+03  0.50000000000E+03  0.00000000000E+00 0. -1.
         11   -1    0    0    0    0 -0.00000000000E+00 -0.00000000000E+00 -0.50000000000E+03  0.50000000000E+03  0.00000000000E+00 0.  1.
         23    2    1    2    0    0 -0.23309527372E+03 -0.27363357459E+02  0.39004194478E+03  0.46410660780E+03  0.90443710442E+02 0.  0.
        -11    1    1    2    0    0  0.68388051744E+02  0.53559621957E+02  0.23500114288E+02  0.89987855275E+02  0.00000000000E+00 0. -1.
         11    1    1    2    0    0  0.16470722198E+03 -0.26196264498E+02 -0.41354205906E+03  0.44590553692E+03  0.00000000000E+00 0.  1.
        -15    1    3    3    0    0 -0.29952428211E+02 -0.13806061949E+02  0.12789632277E+02  0.35418748214E+02  0.17770000000E+01 0.  1.
         15    1    3    3    0    0 -0.20314284551E+03 -0.13557295510E+02  0.37725231250E+03  0.42868785959E+03  0.17770000000E+01 0. -1.
</event>
<event>
 7    1  0.2288857E-006  0.5259152E+03  0.7546771E-02  0.9343619E-01
        -11   -1    0    0    0    0  0.00000000000E+00  0.00000000000E+00  0.50000000000E+03  0.50000000000E+03  0.00000000000E+00 0. -1.
         11   -1    0    0    0    0 -0.00000000000E+00 -0.00000000000E+00 -0.50000000000E+03  0.50000000000E+03  0.00000000000E+00 0.  1.
         23    2    1    2    0    0  0.15097452211E+02  0.81412783785E+02  0.28210190310E+03  0.30764193903E+03  0.90587551506E+02 0.  0.
        -11    1    1    2    0    0  0.15983943484E+03  0.66351516972E+02  0.13301152297E+03  0.21827330111E+03  0.00000000000E+00 0. -1.
         11    1    1    2    0    0 -0.17493688705E+03 -0.14776430076E+03 -0.41511342607E+03  0.47408475986E+03  0.00000000000E+00 0.  1.
        -15    1    3    3    0    0  0.52647041000E+02  0.44060119167E+02  0.17891962340E+03  0.19164653504E+03  0.17770000000E+01 0.  1.
         15    1    3    3    0    0 -0.37549588789E+02  0.37352664618E+02  0.10318227971E+03  0.11599540399E+03  0.17770000000E+01 0. -1.
</event>
<event>
 7    1  0.2288857E-006  0.3326823E+03  0.7546771E-02  0.9879315E-01
        -11   -1    0    0    0    0  0.00000000000E+00  0.00000000000E+00  0.50000000000E+03  0.50000000000E+03  0.00000000000E+00 0. -1.
         11   -1    0    0    0    0 -0.00000000000E+00 -0.00000000000E+00 -0.50000000000E+03  0.50000000000E+03  0.00000000000E+00 0.  1.
         23    2    1    2    0    0 -0.30403087723E+03 -0.34327410530E+02  0.18388186098E+01  0.31861722205E+03  0.88884236544E+02 0.  0.
        -11    1    1    2    0    0  0.26644782352E+03  0.91836715778E+02  0.27642430754E+03  0.39476426234E+03  0.00000000000E+00 0. -1.
         11    1    1    2    0    0  0.37583053711E+02 -0.57509305249E+02 -0.27826312615E+03  0.28661851561E+03  0.00000000000E+00 0.  1.
        -15    1    3    3    0    0 -0.23630402015E+03 -0.27839616659E+02 -0.36146094476E+02  0.24067474332E+03  0.17770000000E+01 0.  1.
         15    1    3    3    0    0 -0.67726857077E+02 -0.64877938709E+01  0.37984913086E+02  0.77942478726E+02  0.17770000000E+01 0. -1.
</event>
<event>
 7    1  0.2288857E-006  0.5136955E+03  0.7546771E-02  0.9369676E-01
        -11   -1    0    0    0    0  0.00000000000E+00  0.00000000000E+00  0.50000000000E+03  0.50000000000E+03  0.00000000000E+00 0. -1.
         11   -1    0    0    0    0 -0.00000000000E+00 -0.00000000000E+00 -0.50000000000E+03  0.50000000000E+03  0.00000000000E+00 0.  1.
         23    2    1    2    0    0 -0.41500706501E+02  0.42065886230E+01  0.15653456800E+03  0.18614607729E+03  0.91691259596E+02 0.  0.
        -11    1    1    2    0    0 -0.42167476409E+02 -0.59660951375E+02  0.31929784946E+03  0.32754944948E+03  0.00000000000E+00 0. -1.
         11    1    1    2    0    0  0.83668182911E+02  0.55454362752E+02 -0.47583241745E+03  0.48630447323E+03  0.00000000000E+00 0.  1.
        -15    1    3    3    0    0 -0.32137412754E+02 -0.29541639910E+02  0.25686231000E+02  0.50679995847E+02  0.17770000000E+01 0.  1.
         15    1    3    3    0    0 -0.93632937477E+01  0.33748228533E+02  0.13084833700E+03  0.13546608145E+03  0.17770000000E+01 0. -1.
</event>
<event>
 7    1  0.2288857E-006  0.5365373E+03  0.7546771E-02  0.9321572E-01
        -11   -1    0    0    0    0  0.00000000000E+00  0.00000000000E+00  0.50000000000E+03  0.50000000000E+03  0.00000000000E+00 0.  1.
         11   -1    0    0    0    0 -0.00000000000E+00 -0.00000000000E+00 -0.50000000000E+03  0.50000000000E+03  0.00000000000E+00 0. -1.
         23    2    1    2    0    0  0.26997743029E+02  0.75260432338E+01 -0.55845379858E+02  0.13549949244E+03  0.12023263511E+03 0.  0.
        -11    1    1    2    0    0 -0.18556440263E+03 -0.66174607813E+02  0.41950497710E+03  0.46346267601E+03  0.00000000000E+00 0.  1.
         11    1    1    2    0    0  0.15856665960E+03  0.58648564579E+02 -0.36365959725E+03  0.40103783155E+03  0.00000000000E+00 0. -1.
        -15    1    3    3    0    0 -0.33422268251E+00  0.60430154348E+02 -0.12269575359E+02  0.61689670674E+02  0.17770000000E+01 0.  1.
         15    1    3    3    0    0  0.27331965711E+02 -0.52904111115E+02 -0.43575804499E+02  0.73809821766E+02  0.17770000000E+01 0. -1.
</event>
<event>
 7    1  0.2288857E-006  0.5079259E+03  0.7546771E-02  0.9382247E-01
        -11   -1    0    0    0    0  0.00000000000E+00  0.00000000000E+00  0.50000000000E+03  0.50000000000E+03  0.00000000000E+00 0.  1.
         11   -1    0    0    0    0 -0.00000000000E+00 -0.00000000000E+00 -0.50000000000E+03  0.50000000000E+03  0.00000000000E+00 0. -1.
         23    2    1    2    0    0 -0.75183733058E+02  0.82120914970E+02 -0.25397098694E+03  0.29171516273E+03  0.90554047785E+02 0.  0.
        -11    1    1    2    0    0  0.12302528741E+03 -0.11631109392E+03  0.46203182135E+03  0.49207407557E+03  0.00000000000E+00 0.  1.
         11    1    1    2    0    0 -0.47841554351E+02  0.34190178952E+02 -0.20806083441E+03  0.21621076170E+03  0.00000000000E+00 0. -1.
        -15    1    3    3    0    0 -0.58115139854E+02  0.43478426961E+02 -0.63015206726E+02  0.96134370019E+02  0.17770000000E+01 0.  1.
         15    1    3    3    0    0 -0.17068593205E+02  0.38642488009E+02 -0.19095578021E+03  0.19558079272E+03  0.17770000000E+01 0. -1.
</event>
<event>
 7    1  0.2288857E-006  0.3308477E+03  0.7546771E-02  0.9886166E-01
        -11   -1    0    0    0    0  0.00000000000E+00  0.00000000000E+00  0.50000000000E+03  0.50000000000E+03  0.00000000000E+00 0. -1.
         11   -1    0    0    0    0 -0.00000000000E+00 -0.00000000000E+00 -0.50000000000E+03  0.50000000000E+03  0.00000000000E+00 0.  1.
         23    2    1    2    0    0 -0.12457927246E+03 -0.28667173755E+03 -0.93258345394E+02  0.33836683652E+03  0.89968421311E+02 0.  0.
        -11    1    1    2    0    0  0.16152577328E+03  0.10796508307E+03  0.31768065437E+03  0.37238156877E+03  0.00000000000E+00 0. -1.
         11    1    1    2    0    0 -0.36946500820E+02  0.17870665447E+03 -0.22442230898E+03  0.28925159471E+03  0.00000000000E+00 0.  1.
        -15    1    3    3    0    0 -0.93003157485E+02 -0.22379726392E+03 -0.30873847210E+02  0.24431773331E+03  0.17770000000E+01 0.  1.
         15    1    3    3    0    0 -0.31576114976E+02 -0.62874473628E+02 -0.62384498184E+02  0.94049103205E+02  0.17770000000E+01 0. -1.
</event>
<event>
 7    1  0.2824923E-006  0.5311562E+03  0.7546771E-02  0.9332673E-01
        -11   -1    0    0    0    0  0.00000000000E+00  0.00000000000E+00  0.50000000000E+03  0.50000000000E+03  0.00000000000E+00 0.  1.
         11   -1    0    0    0    0 -0.00000000000E+00 -0.00000000000E+00 -0.50000000000E+03  0.50000000000E+03  0.00000000000E+00 0. -1.
         23    2    1    2    0    0  0.39111476201E+02  0.10921959069E+03  0.11466359943E+03  0.17804063303E+03  0.71358947685E+02 0.  0.
        -11    1    1    2    0    0  0.20407679658E+02 -0.58589064116E+02  0.34762258465E+03  0.35311558049E+03  0.00000000000E+00 0.  1.
         11    1    1    2    0    0 -0.59519155858E+02 -0.50630526569E+02 -0.46228618408E+03  0.46884378649E+03  0.00000000000E+00 0. -1.
        -15    1    3    3    0    0  0.38357264859E+02  0.78445977044E+02  0.11824014293E+03  0.14699979664E+03  0.17770000000E+01 0.  1.
         15    1    3    3    0    0  0.75421134213E+00  0.30773613641E+02 -0.35765435044E+01  0.31040836389E+02  0.17770000000E+01 0. -1.
</event>
<event>
 7    1  0.2288857E-006  0.3225737E+03  0.7546771E-02  0.9917670E-01
        -11   -1    0    0    0    0  0.00000000000E+00  0.00000000000E+00  0.50000000000E+03  0.50000000000E+03  0.00000000000E+00 0.  1.
         11   -1    0    0    0    0 -0.00000000000E+00 -0.00000000000E+00 -0.50000000000E+03  0.50000000000E+03  0.00000000000E+00 0. -1.
         23    2    1    2    0    0  0.11198740672E+02 -0.24009952673E+03  0.14724960202E+03  0.29596101766E+03  0.90206896378E+02 0.  0.
        -11    1    1    2    0    0  0.37712525193E+02  0.29720280313E+03  0.19247905014E+03  0.35608977167E+03  0.00000000000E+00 0.  1.
         11    1    1    2    0    0 -0.48911265865E+02 -0.57103276409E+02 -0.33972865216E+03  0.34794921066E+03  0.00000000000E+00 0. -1.
        -15    1    3    3    0    0  0.35051592137E+02 -0.20922688207E+03  0.99643807535E+02  0.23438546969E+03  0.17770000000E+01 0. -1.
         15    1    3    3    0    0 -0.23852851464E+02 -0.30872644659E+02  0.47605794480E+02  0.61575547974E+02  0.17770000000E+01 0.  1.
</event>
<event>
 7    1  0.2288857E-006  0.4198627E+03  0.7546771E-02  0.9599467E-01
        -11   -1    0    0    0    0  0.00000000000E+00  0.00000000000E+00  0.50000000000E+03  0.50000000000E+03  0.00000000000E+00 0. -1.
         11   -1    0    0    0    0 -0.00000000000E+00 -0.00000000000E+00 -0.50000000000E+03  0.50000000000E+03  0.00000000000E+00 0. -1.
         23    2    1    2    0    0  0.12945751055E+03 -0.72173376765E+02  0.42385239406E+03  0.45858342633E+03  0.93164712218E+02 0.  0.
        -11    1    1    2    0    0  0.91775452391E+02  0.64673614823E+02 -0.10854553111E+03  0.15616511275E+03  0.00000000000E+00 0. -1.
         11    1    1    2    0    0 -0.22123296294E+03  0.74997619425E+01 -0.31530686295E+03  0.38525146092E+03  0.00000000000E+00 0. -1.
        -15    1    3    3    0    0  0.94567259655E+02 -0.27855910172E+02  0.15375988775E+03  0.18265864102E+03  0.17770000000E+01 0.  1.
         15    1    3    3    0    0  0.34890250892E+02 -0.44317466593E+02  0.27009250631E+03  0.27592478531E+03  0.17770000000E+01 0. -1.
</event>
<event>
 7    1  0.2288857E-006  0.3450086E+03  0.7546771E-02  0.9834478E-01
        -11   -1    0    0    0    0  0.00000000000E+00  0.00000000000E+00  0.50000000000E+03  0.50000000000E+03  0.00000000000E+00 0.  1.
         11   -1    0    0    0    0 -0.00000000000E+00 -0.00000000000E+00 -0.50000000000E+03  0.50000000000E+03  0.00000000000E+00 0. -1.
         23    2    1    2    0    0  0.25153043566E+02  0.86907795811E+02  0.24755801754E+03  0.27781901675E+03  0.87822511033E+02 0.  0.
        -11    1    1    2    0    0 -0.45456030102E+02 -0.18124877598E+03  0.19449696136E+03  0.26971547498E+03  0.00000000000E+00 0.  1.
         11    1    1    2    0    0  0.20302986535E+02  0.94340980167E+02 -0.44205497890E+03  0.45246550827E+03  0.00000000000E+00 0. -1.
        -15    1    3    3    0    0  0.30336743260E+02 -0.43826810061E+01  0.35842565973E+02  0.47195054285E+02  0.17770000000E+01 0. -1.
         15    1    3    3    0    0 -0.51836996941E+01  0.91290476818E+02  0.21171545157E+03  0.23062396247E+03  0.17770000000E+01 0.  1.
</event>
<event>
 7    1  0.2288857E-006  0.3704083E+03  0.7546771E-02  0.9748117E-01
        -11   -1    0    0    0    0  0.00000000000E+00  0.00000000000E+00  0.50000000000E+03  0.50000000000E+03  0.00000000000E+00 0.  1.
         11   -1    0    0    0    0 -0.00000000000E+00 -0.00000000000E+00 -0.50000000000E+03  0.50000000000E+03  0.00000000000E+00 0.  1.
         23    2    1    2    0    0  0.12490094702E+03 -0.24381481030E+03 -0.13150682992E+03  0.32483233628E+03  0.11478715993E+03 0.  0.
        -11    1    1    2    0    0 -0.11560734928E+03  0.20528850713E+03  0.36713496144E+03  0.43622988237E+03  0.00000000000E+00 0.  1.
         11    1    1    2    0    0 -0.92935977385E+01  0.38526303176E+02 -0.23562813151E+03  0.23893778135E+03  0.00000000000E+00 0.  1.
        -15    1    3    3    0    0  0.74570674531E+02 -0.22876739986E+03 -0.86699331713E+02  0.25576403302E+03  0.17770000000E+01 0.  1.
         15    1    3    3    0    0  0.50330272489E+02 -0.15047410443E+02 -0.44807498212E+02  0.69068303257E+02  0.17770000000E+01 0. -1.
</event>
<event>
 7    1  0.2288857E-006  0.5128979E+03  0.7546771E-02  0.9371403E-01
        -11   -1    0    0    0    0  0.00000000000E+00  0.00000000000E+00  0.50000000000E+03  0.50000000000E+03  0.00000000000E+00 0. -1.
         11   -1    0    0    0    0 -0.00000000000E+00 -0.00000000000E+00 -0.50000000000E+03  0.50000000000E+03  0.00000000000E+00 0.  1.
         23    2    1    2    0    0  0.29687982296E+02  0.30128438441E+02  0.16810429957E+03  0.19576640363E+03  0.90974337939E+02 0.  0.
        -11    1    1    2    0    0  0.89150206503E+02 -0.14215434477E+02  0.30401081143E+03  0.31713153638E+03  0.00000000000E+00 0. -1.
         11    1    1    2    0    0 -0.11883818880E+03 -0.15913003964E+02 -0.47211511100E+03  0.48710205999E+03  0.00000000000E+00 0.  1.
        -15    1    3    3    0    0 -0.32496891617E+02  0.95938305808E+01  0.45514776691E+02  0.56770081700E+02  0.17770000000E+01 0.  1.
         15    1    3    3    0    0  0.62184873912E+02  0.20534607860E+02  0.12258952287E+03  0.13899632193E+03  0.17770000000E+01 0. -1.
</event>
<event>
 7    1  0.2288857E-006  0.5091248E+03  0.7546771E-02  0.9379621E-01
        -11   -1    0    0    0    0  0.00000000000E+00  0.00000000000E+00  0.50000000000E+03  0.50000000000E+03  0.00000000000E+00 0. -1.
         11   -1    0    0    0    0 -0.00000000000E+00 -0.00000000000E+00 -0.50000000000E+03  0.50000000000E+03  0.00000000000E+00 0.  1.
         23    2    1    2    0    0  0.11832251862E+03 -0.21656984273E+02  0.22343110578E+03  0.26948547524E+03  0.90728820963E+02 0.  0.
        -11    1    1    2    0    0  0.11090945934E+03 -0.67835220362E+02  0.20130687611E+03  0.23963927822E+03  0.00000000000E+00 0. -1.
         11    1    1    2    0    0 -0.22923197796E+03  0.89492204636E+02 -0.42473798189E+03  0.49087524655E+03  0.00000000000E+00 0.  1.
        -15    1    3    3    0    0  0.91878099599E+02  0.24050264566E+02  0.11737359976E+03  0.15099576173E+03  0.17770000000E+01 0.  1.
         15    1    3    3    0    0  0.26444419016E+02 -0.45707248839E+02  0.10605750602E+03  0.11848971351E+03  0.17770000000E+01 0. -1.
</event>
<event>
 7    1  0.2288857E-006  0.4805607E+03  0.7546771E-02  0.9444389E-01
        -11   -1    0    0    0    0  0.00000000000E+00  0.00000000000E+00  0.50000000000E+03  0.50000000000E+03  0.00000000000E+00 0. -1.
         11   -1    0    0    0    0 -0.00000000000E+00 -0.00000000000E+00 -0.50000000000E+03  0.50000000000E+03  0.00000000000E+00 0.  1.
         23    2    1    2    0    0  0.11863409046E+03  0.13882259309E+03  0.44742352158E+03  0.49201316512E+03  0.92430445319E+02 0.  0.
        -11    1    1    2    0    0 -0.36916046482E+02 -0.27678058236E+02 -0.72547262926E+01  0.46706535400E+02  0.00000000000E+00 0. -1.
         11    1    1    2    0    0 -0.81718043979E+02 -0.11114453485E+03 -0.44016879529E+03  0.46128029948E+03  0.00000000000E+00 0.  1.
        -15    1    3    3    0    0  0.10456281254E+03  0.52505658440E+02  0.26604885587E+03  0.29064648179E+03  0.17770000000E+01 0.  1.
         15    1    3    3    0    0  0.14071277920E+02  0.86316934648E+02  0.18137466571E+03  0.20136668334E+03  0.17770000000E+01 0. -1.
</event>
<event>
 7    1  0.2288857E-006  0.4079928E+03  0.7546771E-02  0.9633075E-01
        -11   -1    0    0    0    0  0.00000000000E+00  0.00000000000E+00  0.50000000000E+03  0.50000000000E+03  0.00000000000E+00 0.  1.
         11   -1    0    0    0    0 -0.00000000000E+00 -0.00000000000E+00 -0.50000000000E+03  0.50000000000E+03  0.00000000000E+00 0.  1.
         23    2    1    2    0    0 -0.35773778374E+03  0.28154208943E+02  0.21144341613E+03  0.42723521349E+03  0.95145299548E+02 0.  0.
        -11    1    1    2    0    0  0.39308460336E+03  0.23656981225E+02 -0.46784697752E+02  0.39656521040E+03  0.00000000000E+00 0.  1.
         11    1    1    2    0    0 -0.35346819618E+02 -0.51811190168E+02 -0.16465871838E+03  0.17619957611E+03  0.00000000000E+00 0.  1.
        -15    1    3    3    0    0 -0.31258389439E+03 -0.46304091080E+01  0.19718285579E+03  0.36961380936E+03  0.17770000000E+01 0.  1.
         15    1    3    3    0    0 -0.45153889348E+02  0.32784618051E+02  0.14260560338E+02  0.57621404132E+02  0.17770000000E+01 0. -1.
</event>
<event>
 7    1  0.2288857E-006  0.3381334E+03  0.7546771E-02  0.9859234E-01
        -11   -1    0    0    0    0  0.00000000000E+00  0.00000000000E+00  0.50000000000E+03  0.50000000000E+03  0.00000000000E+00 0. -1.
         11   -1    0    0    0    0 -0.00000000000E+00 -0.00000000000E+00 -0.50000000000E+03  0.50000000000E+03  0.00000000000E+00 0. -1.
         23    2    1    2    0    0  0.14751313891E+03 -0.21379867686E+03  0.19563757024E+02  0.27530042629E+03  0.89093118397E+02 0.  0.
        -11    1    1    2    0    0 -0.31898473513E+03 -0.12663272880E+03 -0.47299646614E+01  0.34323385878E+03  0.00000000000E+00 0. -1.
         11    1    1    2    0    0  0.17147159622E+03  0.34043140566E+03 -0.14833792362E+02  0.38146571493E+03  0.00000000000E+00 0. -1.
        -15    1    3    3    0    0  0.29839465334E+02 -0.86219670598E+02  0.41687856867E+02  0.10032577151E+03  0.17770000000E+01 0. -1.
         15    1    3    3    0    0  0.11767367358E+03 -0.12757900627E+03 -0.22124099843E+02  0.17497465478E+03  0.17770000000E+01 0.  1.
</event>
<event>
 6    1  0.2288857E-006  0.3129459E+03  0.7546771E-02  0.9955633E-01
        -11   -1    0    0    0    0  0.00000000000E+00  0.00000000000E+00  0.50000000000E+03  0.50000000000E+03  0.00000000000E+00 0.  1.
         11   -1    0    0    0    0 -0.00000000000E+00 -0.00000000000E+00 -0.50000000000E+03  0.50000000000E+03  0.00000000000E+00 0. -1.
        -11    1    1    2    0    0  0.37596431710E+02 -0.29455972185E+03  0.73662081666E+02  0.30594938093E+03  0.00000000000E+00 0.  1.
         11    1    1    2    0    0 -0.70399139417E+02  0.95884730033E+02 -0.33841019927E+03  0.35870793587E+03  0.00000000000E+00 0. -1.
        -15    1    1    2    0    0  0.38715045483E+01  0.48364672715E+02  0.95518224155E+02  0.10714951698E+03  0.17770000000E+01 0. -1.
         15    1    1    2    0    0  0.28931203158E+02  0.15031031910E+03  0.16922989345E+03  0.22819316622E+03  0.17770000000E+01 0.  1.
</event>
<event>
 7    1  0.2288857E-006  0.4746046E+03  0.7546771E-02  0.9458498E-01
        -11   -1    0    0    0    0  0.00000000000E+00  0.00000000000E+00  0.50000000000E+03  0.50000000000E+03  0.00000000000E+00 0. -1.
         11   -1    0    0    0    0 -0.00000000000E+00 -0.00000000000E+00 -0.50000000000E+03  0.50000000000E+03  0.00000000000E+00 0.  1.
         23    2    1    2    0    0  0.15889021185E+03 -0.63586436911E+02  0.40722595603E+03  0.45228149309E+03  0.97140286972E+02 0.  0.
        -11    1    1    2    0    0 -0.18420403578E+02 -0.11956256230E+02  0.54747409558E+02  0.58987644336E+02  0.00000000000E+00 0. -1.
         11    1    1    2    0    0 -0.14046980827E+03  0.75542693141E+02 -0.46197336558E+03  0.48873086257E+03  0.00000000000E+00 0.  1.
        -15    1    3    3    0    0  0.16355522792E+03 -0.77645994877E+02  0.38578974279E+03  0.42616440076E+03  0.17770000000E+01 0. -1.
         15    1    3    3    0    0 -0.46650160760E+01  0.14059557966E+02  0.21436213236E+02  0.26117092336E+02  0.17770000000E+01 0.  1.
</event>
<event>
 7    1  0.2288857E-006  0.5158184E+03  0.7546771E-02  0.9365094E-01
        -11   -1    0    0    0    0  0.00000000000E+00  0.00000000000E+00  0.50000000000E+03  0.50000000000E+03  0.00000000000E+00 0.  1.
         11   -1    0    0    0    0 -0.00000000000E+00 -0.00000000000E+00 -0.50000000000E+03  0.50000000000E+03  0.00000000000E+00 0. -1.
         23    2    1    2    0    0  0.47769148835E+02  0.11547467110E+03  0.29348404362E+03  0.33231632986E+03  0.93193175646E+02 0.  0.
        -11    1    1    2    0    0  0.87446872260E+02  0.12081475851E+03  0.10691046109E+03  0.18350206547E+03  0.00000000000E+00 0.  1.
         11    1    1    2    0    0 -0.13521602110E+03 -0.23628942961E+03 -0.40039450470E+03  0.48418160467E+03  0.00000000000E+00 0. -1.
        -15    1    3    3    0    0  0.63063693570E+02  0.12334127519E+03  0.25797853749E+03  0.29282449206E+03  0.17770000000E+01 0.  1.
         15    1    3    3    0    0 -0.15294544735E+02 -0.78666040965E+01  0.35505506122E+02  0.39491837797E+02  0.17770000000E+01 0. -1.
</event>
<event>
 7    1  0.2288857E-006  0.4260161E+03  0.7546771E-02  0.9582508E-01
        -11   -1    0    0    0    0  0.00000000000E+00  0.00000000000E+00  0.50000000000E+03  0.50000000000E+03  0.00000000000E+00 0. -1.
         11   -1    0    0    0    0 -0.00000000000E+00 -0.00000000000E+00 -0.50000000000E+03  0.50000000000E+03  0.00000000000E+00 0.  1.
         23    2    1    2    0    0  0.15460026411E+02  0.41868920798E+02  0.39650869342E+03  0.40950789851E+03  0.92117077868E+02 0.  0.
        -11    1    1    2    0    0 -0.51068304168E+02 -0.13090906298E+03  0.37969369546E+02  0.14555695615E+03  0.00000000000E+00 0. -1.
         11    1    1    2    0    0  0.35608277757E+02  0.89040142177E+02 -0.43447806297E+03  0.44493514535E+03  0.00000000000E+00 0.  1.
        -15    1    3    3    0    0  0.35097485237E+02 -0.17707430670E+02  0.13900650134E+03  0.14446920680E+03  0.17770000000E+01 0.  1.
         15    1    3    3    0    0 -0.19637458826E+02  0.59576351468E+02  0.25750219208E+03  0.26503869170E+03  0.17770000000E+01 0. -1.
</event>
<event>
 7    1  0.2288857E-006  0.4600688E+03  0.7546771E-02  0.9493878E-01
        -11   -1    0    0    0    0  0.00000000000E+00  0.00000000000E+00  0.50000000000E+03  0.50000000000E+03  0.00000000000E+00 0.  1.
         11   -1    0    0    0    0 -0.00000000000E+00 -0.00000000000E+00 -0.50000000000E+03  0.50000000000E+03  0.00000000000E+00 0. -1.
         23    2    1    2    0    0  0.18488818757E+02 -0.15406809094E+03 -0.38191163739E+03  0.42287526713E+03  0.94277143100E+02 0.  0.
        -11    1    1    2    0    0 -0.41204324281E+02  0.21029042950E+03  0.44234335344E+03  0.49151551696E+03  0.00000000000E+00 0.  1.
         11    1    1    2    0    0  0.22715505524E+02 -0.56222338556E+02 -0.60431716050E+02  0.85609215910E+02  0.00000000000E+00 0. -1.
        -15    1    3    3    0    0  0.31338744200E+02 -0.28466097413E+02 -0.39524371681E+02  0.57946261965E+02  0.17770000000E+01 0.  1.
         15    1    3    3    0    0 -0.12849925442E+02 -0.12560199353E+03 -0.34238726571E+03  0.36492900517E+03  0.17770000000E+01 0. -1.
</event>
<event>
 7    1  0.2288857E-006  0.4102285E+03  0.7546771E-02  0.9626652E-01
        -11   -1    0    0    0    0  0.00000000000E+00  0.00000000000E+00  0.50000000000E+03  0.50000000000E+03  0.00000000000E+00 0.  1.
         11   -1    0    0    0    0 -0.00000000000E+00 -0.00000000000E+00 -0.50000000000E+03  0.50000000000E+03  0.00000000000E+00 0.  1.
         23    2    1    2    0    0 -0.29773242217E+03 -0.19613560818E+03  0.22800856702E+03  0.43317299413E+03  0.92396775901E+02 0.  0.
        -11    1    1    2    0    0  0.31866579403E+03  0.22528482877E+03 -0.59775851372E+02  0.39480918780E+03  0.00000000000E+00 0.  1.
         11    1    1    2    0    0 -0.20933371860E+02 -0.29149220588E+02 -0.16823271565E+03  0.17201781807E+03  0.00000000000E+00 0.  1.
        -15    1    3    3    0    0 -0.16013244213E+03 -0.68530885338E+02  0.69578884788E+02  0.18757201339E+03  0.17770000000E+01 0.  1.
         15    1    3    3    0    0 -0.13759998004E+03 -0.12760472285E+03  0.15842968224E+03  0.24560098074E+03  0.17770000000E+01 0. -1.
</event>
<event>
 7    1  0.2288857E-006  0.5256264E+03  0.7546771E-02  0.9344226E-01
        -11   -1    0    0    0    0  0.00000000000E+00  0.00000000000E+00  0.50000000000E+03  0.50000000000E+03  0.00000000000E+00 0. -1.
         11   -1    0    0    0    0 -0.00000000000E+00 -0.00000000000E+00 -0.50000000000E+03  0.50000000000E+03  0.00000000000E+00 0.  1.
         23    2    1    2    0    0 -0.10825045239E+02  0.16133647952E+02  0.27788894655E+03  0.29585529869E+03  0.99652470865E+02 0.  0.
        -11    1    1    2    0    0 -0.68890296689E+02 -0.13168349920E+03  0.17523796853E+03  0.22977110905E+03  0.00000000000E+00 0. -1.
         11    1    1    2    0    0  0.79715341928E+02  0.11554985125E+03 -0.45312691508E+03  0.47437359226E+03  0.00000000000E+00 0.  1.
        -15    1    3    3    0    0  0.28968594083E+02 -0.20464987801E+02  0.18487869727E+03  0.18825856050E+03  0.17770000000E+01 0.  1.
         15    1    3    3    0    0 -0.39793639322E+02  0.36598635753E+02  0.93010249283E+02  0.10759673819E+03  0.17770000000E+01 0. -1.
</event>
<event>
 7    1  0.2288857E-006  0.4355681E+03  0.7546771E-02  0.9556779E-01
        -11   -1    0    0    0    0  0.00000000000E+00  0.00000000000E+00  0.50000000000E+03  0.50000000000E+03  0.00000000000E+00 0.  1.
         11   -1    0    0    0    0 -0.00000000000E+00 -0.00000000000E+00 -0.50000000000E+03  0.50000000000E+03  0.00000000000E+00 0. -1.
         23    2    1    2    0    0 -0.28580760475E+02 -0.66197068871E+02  0.47493482021E+02  0.12459563686E+03  0.89830563249E+02 0.  0.
        -11    1    1    2    0    0  0.73203802126E+02  0.11879400939E+01  0.40729909478E+03  0.41382696922E+03  0.00000000000E+00 0.  1.
         11    1    1    2    0    0 -0.44623041651E+02  0.65009128777E+02 -0.45479257680E+03  0.46157739392E+03  0.00000000000E+00 0. -1.
        -15    1    3    3    0    0 -0.41052122887E+01 -0.67847484214E+02 -0.33903692412E+01  0.68079264205E+02  0.17770000000E+01 0. -1.
         15    1    3    3    0    0 -0.24475548186E+02  0.16504153430E+01  0.50883851262E+02  0.56516372655E+02  0.17770000000E+01 0.  1.
</event>
<event>
 7    1  0.2288857E-006  0.5077235E+03  0.7546771E-02  0.9382692E-01
        -11   -1    0    0    0    0  0.00000000000E+00  0.00000000000E+00  0.50000000000E+03  0.50000000000E+03  0.00000000000E+00 0. -1.
         11   -1    0    0    0    0 -0.00000000000E+00 -0.00000000000E+00 -0.50000000000E+03  0.50000000000E+03  0.00000000000E+00 0. -1.
         23    2    1    2    0    0 -0.76197209826E+02 -0.70243018258E+02  0.32342614995E+03  0.35152347233E+03  0.90687268825E+02 0.  0.
        -11    1    1    2    0    0 -0.72415061433E+02 -0.33992865342E+02  0.13416034956E+03  0.15620004933E+03  0.00000000000E+00 0. -1.
         11    1    1    2    0    0  0.14861227126E+03  0.10423588360E+03 -0.45758649951E+03  0.49227647834E+03  0.00000000000E+00 0. -1.
        -15    1    3    3    0    0 -0.87570183958E+02 -0.69400020771E+02  0.32077213748E+03  0.33968047032E+03  0.17770000000E+01 0. -1.
         15    1    3    3    0    0  0.11372974132E+02 -0.84299748709E+00  0.26540124641E+01  0.11843002007E+02  0.17770000000E+01 0.  1.
</event>
<event>
 7    1  0.2288857E-006  0.5368008E+03  0.7546771E-02  0.9321033E-01
        -11   -1    0    0    0    0  0.00000000000E+00  0.00000000000E+00  0.50000000000E+03  0.50000000000E+03  0.00000000000E+00 0.  1.
         11   -1    0    0    0    0 -0.00000000000E+00 -0.00000000000E+00 -0.50000000000E+03  0.50000000000E+03  0.00000000000E+00 0. -1.
         23    2    1    2    0    0  0.46608282068E+02 -0.36224542378E+02 -0.65554681211E+01  0.10812386092E+03  0.90350681842E+02 0.  0.
        -11    1    1    2    0    0 -0.34173503777E+03 -0.22459557796E+02  0.31187540023E+03  0.46319923688E+03  0.00000000000E+00 0.  1.
         11    1    1    2    0    0  0.29512675570E+03  0.58684100174E+02 -0.30531993210E+03  0.42867690221E+03  0.00000000000E+00 0. -1.
        -15    1    3    3    0    0  0.14333758757E+02  0.13531171640E+01 -0.43789488341E+02  0.46129866511E+02  0.17770000000E+01 0.  1.
         15    1    3    3    0    0  0.32274523312E+02 -0.37577659542E+02  0.37234020219E+02  0.61993994406E+02  0.17770000000E+01 0. -1.
</event>
<event>
 7    1  0.2288857E-006  0.3467233E+03  0.7546771E-02  0.9828401E-01
        -11   -1    0    0    0    0  0.00000000000E+00  0.00000000000E+00  0.50000000000E+03  0.50000000000E+03  0.00000000000E+00 0.  1.
         11   -1    0    0    0    0 -0.00000000000E+00 -0.00000000000E+00 -0.50000000000E+03  0.50000000000E+03  0.00000000000E+00 0. -1.
         23    2    1    2    0    0 -0.16624440204E+03 -0.32011779157E+03 -0.15157731474E+02  0.37210474455E+03  0.90108725431E+02 0.  0.
        -11    1    1    2    0    0  0.78006083677E+02  0.24158078714E+03  0.25544809373E+03  0.36013879879E+03  0.00000000000E+00 0.  1.
         11    1    1    2    0    0  0.88238318363E+02  0.78537004439E+02 -0.24029036225E+03  0.26775645666E+03  0.00000000000E+00 0. -1.
        -15    1    3    3    0    0 -0.32882302812E+02 -0.18056004532E+02  0.15200826090E+02  0.40515280830E+02  0.17770000000E+01 0.  1.
         15    1    3    3    0    0 -0.13336209923E+03 -0.30206178704E+03 -0.30358557564E+02  0.33158946372E+03  0.17770000000E+01 0. -1.
</event>
<event>
 7    1  0.2288857E-006  0.4389547E+03  0.7546771E-02  0.9547825E-01
        -11   -1    0    0    0    0  0.00000000000E+00  0.00000000000E+00  0.50000000000E+03  0.50000000000E+03  0.00000000000E+00 0. -1.
         11   -1    0    0    0    0 -0.00000000000E+00 -0.00000000000E+00 -0.50000000000E+03  0.50000000000E+03  0.00000000000E+00 0.  1.
         23    2    1    2    0    0 -0.54788309805E+02  0.31118951777E+02  0.39162859485E+03  0.40689105563E+03  0.90648920551E+02 0.  0.
        -11    1    1    2    0    0  0.34255285671E+02  0.10235674391E+03  0.58770621340E+02  0.12289960762E+03  0.00000000000E+00 0. -1.
         11    1    1    2    0    0  0.20533024134E+02 -0.13347569569E+03 -0.45039921619E+03  0.47020933675E+03  0.00000000000E+00 0.  1.
        -15    1    3    3    0    0  0.18210112340E+02 -0.13614736372E+02  0.54992337663E+02  0.59533890924E+02  0.17770000000E+01 0.  1.
         15    1    3    3    0    0 -0.72998422145E+02  0.44733688149E+02  0.33663625719E+03  0.34735716471E+03  0.17770000000E+01 0. -1.
</event>
<event>
 7    1  0.2288857E-006  0.4945507E+03  0.7546771E-02  0.9412086E-01
        -11   -1    0    0    0    0  0.00000000000E+00  0.00000000000E+00  0.50000000000E+03  0.50000000000E+03  0.00000000000E+00 0.  1.
         11   -1    0    0    0    0 -0.00000000000E+00 -0.00000000000E+00 -0.50000000000E+03  0.50000000000E+03  0.00000000000E+00 0.  1.
         23    2    1    2    0    0  0.55896048961E+02  0.47718468209E+02  0.48271653413E+03  0.49710062065E+03  0.93232795881E+02 0.  0.
        -11    1    1    2    0    0  0.36281535495E+01  0.17688500087E+02 -0.75478047097E+01  0.19570791743E+02  0.00000000000E+00 0.  1.
         11    1    1    2    0    0 -0.59524202510E+02 -0.65406968296E+02 -0.47516872942E+03  0.48332858761E+03  0.00000000000E+00 0.  1.
        -15    1    3    3    0    0  0.49447278836E+02  0.73574952139E+02  0.41374287446E+03  0.42313665743E+03  0.17770000000E+01 0.  1.
         15    1    3    3    0    0  0.64487701246E+01 -0.25856483930E+02  0.68973659671E+02  0.73963963217E+02  0.17770000000E+01 0. -1.
</event>
<event>
 7    1  0.2288857E-006  0.4723392E+03  0.7546771E-02  0.9463923E-01
        -11   -1    0    0    0    0  0.00000000000E+00  0.00000000000E+00  0.50000000000E+03  0.50000000000E+03  0.00000000000E+00 0. -1.
         11   -1    0    0    0    0 -0.00000000000E+00 -0.00000000000E+00 -0.50000000000E+03  0.50000000000E+03  0.00000000000E+00 0. -1.
         23    2    1    2    0    0 -0.26187164422E+02  0.10304979593E+03 -0.43317204069E+03  0.45510290550E+03  0.90419078398E+02 0.  0.
        -11    1    1    2    0    0  0.61649823126E+02 -0.14889067298E+03  0.45520936449E+03  0.48289201558E+03  0.00000000000E+00 0. -1.
         11    1    1    2    0    0 -0.35462658704E+02  0.45840877053E+02 -0.22037323805E+02  0.62005078920E+02  0.00000000000E+00 0. -1.
        -15    1    3    3    0    0 -0.38573326003E+02  0.11385662271E+03 -0.40467687175E+03  0.42215845398E+03  0.17770000000E+01 0. -1.
         15    1    3    3    0    0  0.12386161581E+02 -0.10806826778E+02 -0.28495168940E+02  0.32944451515E+02  0.17770000000E+01 0.  1.
</event>
<event>
 7    1  0.2288857E-006  0.4589783E+03  0.7546771E-02  0.9496588E-01
        -11   -1    0    0    0    0  0.00000000000E+00  0.00000000000E+00  0.50000000000E+03  0.50000000000E+03  0.00000000000E+00 0.  1.
         11   -1    0    0    0    0 -0.00000000000E+00 -0.00000000000E+00 -0.50000000000E+03  0.50000000000E+03  0.00000000000E+00 0. -1.
         23    2    1    2    0    0  0.47180222219E+02 -0.70434854757E+02  0.40859864936E+03  0.42639911861E+03  0.87614553350E+02 0.  0.
        -11    1    1    2    0    0 -0.21580616038E+01 -0.64555453713E+02  0.57368381389E+02  0.86389785375E+02  0.00000000000E+00 0.  1.
         11    1    1    2    0    0 -0.45022160615E+02  0.13499030847E+03 -0.46596703075E+03  0.48721109601E+03  0.00000000000E+00 0. -1.
        -15    1    3    3    0    0 -0.12784930713E+02 -0.59121338912E+02  0.18720703630E+03  0.19674455351E+03  0.17770000000E+01 0. -1.
         15    1    3    3    0    0  0.59965152931E+02 -0.11313515844E+02  0.22139161307E+03  0.22965456510E+03  0.17770000000E+01 0.  1.
</event>
<event>
 7    1  0.2288857E-006  0.3340124E+03  0.7546771E-02  0.9874377E-01
        -11   -1    0    0    0    0  0.00000000000E+00  0.00000000000E+00  0.50000000000E+03  0.50000000000E+03  0.00000000000E+00 0.  1.
         11   -1    0    0    0    0 -0.00000000000E+00 -0.00000000000E+00 -0.50000000000E+03  0.50000000000E+03  0.00000000000E+00 0. -1.
         23    2    1    2    0    0  0.25531799157E+03  0.72003344581E+02 -0.24434545135E+02  0.28081576281E+03  0.88818281895E+02 0.  0.
        -11    1    1    2    0    0 -0.21967666533E+03 -0.14516767712E+03  0.31897100671E+03  0.41361092211E+03  0.00000000000E+00 0.  1.
         11    1    1    2    0    0 -0.35641326238E+02  0.73164332535E+02 -0.29453646157E+03  0.30557331508E+03  0.00000000000E+00 0. -1.
        -15    1    3    3    0    0  0.24927769448E+03  0.84615006960E+02 -0.31352716100E+02  0.26511359623E+03  0.17770000000E+01 0. -1.
         15    1    3    3    0    0  0.60402970809E+01 -0.12611662379E+02  0.69181709649E+01  0.15702166580E+02  0.17770000000E+01 0.  1.
</event>
<event>
 7    1  0.2288857E-006  0.3122540E+03  0.7546771E-02  0.9958417E-01
        -11   -1    0    0    0    0  0.00000000000E+00  0.00000000000E+00  0.50000000000E+03  0.50000000000E+03  0.00000000000E+00 0.  1.
         11   -1    0    0    0    0 -0.00000000000E+00 -0.00000000000E+00 -0.50000000000E+03  0.50000000000E+03  0.00000000000E+00 0. -1.
         23    2    1    2    0    0  0.27808055214E+03  0.10781338854E+03  0.10691986212E+03  0.33996748737E+03  0.12326197842E+03 0.  0.
        -11    1    1    2    0    0 -0.20231058791E+03 -0.10771747479E+03  0.22404011108E+03  0.32050990582E+03  0.00000000000E+00 0.  1.
         11    1    1    2    0    0 -0.75769964224E+02 -0.95913750435E-01 -0.33095997320E+03  0.33952260681E+03  0.00000000000E+00 0. -1.
        -15    1    3    3    0    0  0.17867059127E+03  0.98746718746E+02  0.12373823123E+03  0.23872243767E+03  0.17770000000E+01 0.  1.
         15    1    3    3    0    0  0.99409960865E+02  0.90666697986E+01 -0.16818369111E+02  0.10124504970E+03  0.17770000000E+01 0. -1.
</event>
<event>
 7    1  0.2288857E-006  0.4575439E+03  0.7546771E-02  0.9500165E-01
        -11   -1    0    0    0    0  0.00000000000E+00  0.00000000000E+00  0.50000000000E+03  0.50000000000E+03  0.00000000000E+00 0.  1.
         11   -1    0    0    0    0 -0.00000000000E+00 -0.00000000000E+00 -0.50000000000E+03  0.50000000000E+03  0.00000000000E+00 0. -1.
         23    2    1    2    0    0 -0.90302027824E+02  0.14253155249E+03  0.38987592656E+03  0.43432682683E+03  0.90370651821E+02 0.  0.
        -11    1    1    2    0    0  0.45128731385E+02 -0.30987505458E+02  0.70823908064E+02  0.89514545435E+02  0.00000000000E+00 0.  1.
         11    1    1    2    0    0  0.45173296438E+02 -0.11154404703E+03 -0.46069983463E+03  0.47615862773E+03  0.00000000000E+00 0. -1.
        -15    1    3    3    0    0 -0.13905525773E+02  0.95916351274E+02  0.15322883551E+03  0.18131614338E+03  0.17770000000E+01 0. -1.
         15    1    3    3    0    0 -0.76396502050E+02  0.46615201212E+02  0.23664709105E+03  0.25301068346E+03  0.17770000000E+01 0.  1.
</event>
<event>
 7    1  0.2288857E-006  0.5177092E+03  0.7546771E-02  0.9361033E-01
        -11   -1    0    0    0    0  0.00000000000E+00  0.00000000000E+00  0.50000000000E+03  0.50000000000E+03  0.00000000000E+00 0.  1.
         11   -1    0    0    0    0 -0.00000000000E+00 -0.00000000000E+00 -0.50000000000E+03  0.50000000000E+03  0.00000000000E+00 0. -1.
         23    2    1    2    0    0  0.10779058458E+03  0.29492834300E+02  0.84585482389E+02  0.16704660320E+03  0.90891288980E+02 0.  0.
        -11    1    1    2    0    0  0.33683967489E+03  0.22873809939E+02  0.94763447655E+02  0.35066264240E+03  0.00000000000E+00 0.  1.
         11    1    1    2    0    0 -0.44463025947E+03 -0.52366644239E+02 -0.17934893004E+03  0.48229075439E+03  0.00000000000E+00 0. -1.
        -15    1    3    3    0    0  0.80800099100E+02 -0.34857799959E+01  0.93327961730E+02  0.12350737972E+03  0.17770000000E+01 0.  1.
         15    1    3    3    0    0  0.26990485477E+02  0.32978614296E+02 -0.87424793407E+01  0.43539223480E+02  0.17770000000E+01 0. -1.
</event>
<event>
 7    1  0.2288857E-006  0.3607401E+03  0.7546771E-02  0.9780090E-01
        -11   -1    0    0    0    0  0.00000000000E+00  0.00000000000E+00  0.50000000000E+03  0.50000000000E+03  0.00000000000E+00 0.  1.
         11   -1    0    0    0    0 -0.00000000000E+00 -0.00000000000E+00 -0.50000000000E+03  0.50000000000E+03  0.00000000000E+00 0.  1.
         23    2    1    2    0    0  0.14294133729E+03  0.88013845979E+02  0.29262011193E+03  0.34968296399E+03  0.92048804468E+02 0.  0.
        -11    1    1    2    0    0 -0.21540017343E+03 -0.69014096168E+02  0.10237930462E+03  0.24827747018E+03  0.00000000000E+00 0.  1.
         11    1    1    2    0    0  0.72458836134E+02 -0.18999749811E+02 -0.39499941655E+03  0.40203956584E+03  0.00000000000E+00 0.  1.
        -15    1    3    3    0    0  0.12852777126E+03  0.32044417638E+02  0.22063311642E+03  0.25734871765E+03  0.17770000000E+01 0.  1.
         15    1    3    3    0    0  0.14413566039E+02  0.55969428342E+02  0.71986995509E+02  0.92334246335E+02  0.17770000000E+01 0. -1.
</event>
<event>
 7    1  0.2288857E-006  0.3352004E+03  0.7546771E-02  0.9869988E-01
        -11   -1    0    0    0    0  0.00000000000E+00  0.00000000000E+00  0.50000000000E+03  0.50000000000E+03  0.00000000000E+00 0.  1.
         11   -1    0    0    0    0 -0.00000000000E+00 -0.00000000000E+00 -0.50000000000E+03  0.50000000000E+03  0.00000000000E+00 0. -1.
         23    2    1    2    0    0 -0.20895918618E+03 -0.13700760597E+03 -0.84902445359E+02  0.27952750969E+03  0.92153013324E+02 0.  0.
        -11    1    1    2    0    0  0.36486875734E+03 -0.67826415957E+02  0.21827827290E+03  0.43055201451E+03  0.00000000000E+00 0.  1.
         11    1    1    2    0    0 -0.15590957115E+03  0.20483402192E+03 -0.13337582754E+03  0.28992047580E+03  0.00000000000E+00 0. -1.
        -15    1    3    3    0    0 -0.17779134885E+03 -0.89399706663E+02 -0.31533816976E+02  0.20149345056E+03  0.17770000000E+01 0. -1.
         15    1    3    3    0    0 -0.31167837333E+02 -0.47607899304E+02 -0.53368628382E+02  0.78034059131E+02  0.17770000000E+01 0.  1.
</event>
<event>
 7    1  0.2288857E-006  0.5185503E+03  0.7546771E-02  0.9359233E-01
        -11   -1    0    0    0    0  0.00000000000E+00  0.00000000000E+00  0.50000000000E+03  0.50000000000E+03  0.00000000000E+00 0.  1.
         11   -1    0    0    0    0 -0.00000000000E+00 -0.00000000000E+00 -0.50000000000E+03  0.50000000000E+03  0.00000000000E+00 0. -1.
         23    2    1    2    0    0 -0.41908907408E+02  0.77861749358E+02  0.31912861483E+03  0.34345815051E+03  0.91113225249E+02 0.  0.
        -11    1    1    2    0    0  0.43822525228E+02  0.11992096616E+03  0.11981573701E+03  0.17509215482E+03  0.00000000000E+00 0.  1.
         11    1    1    2    0    0 -0.19136178209E+01 -0.19778271552E+03 -0.43894435184E+03  0.48144969468E+03  0.00000000000E+00 0. -1.
        -15    1    3    3    0    0  0.28684302665E+01 -0.13862129072E+02  0.87830653511E+01  0.16753700504E+02  0.17770000000E+01 0. -1.
         15    1    3    3    0    0 -0.44777337674E+02  0.91723878430E+02  0.31034554948E+03  0.32670445001E+03  0.17770000000E+01 0.  1.
</event>
<event>
 7    1  0.2288857E-006  0.5141583E+03  0.7546771E-02  0.9368675E-01
        -11   -1    0    0    0    0  0.00000000000E+00  0.00000000000E+00  0.50000000000E+03  0.50000000000E+03  0.00000000000E+00 0. -1.
         11   -1    0    0    0    0 -0.00000000000E+00 -0.00000000000E+00 -0.50000000000E+03  0.50000000000E+03  0.00000000000E+00 0.  1.
         23    2    1    2    0    0  0.60294565940E-01 -0.29444327466E+03 -0.41880430302E+02  0.31037000748E+03  0.88762184922E+02 0.  0.
        -11    1    1    2    0    0 -0.78477553225E+02  0.46252263598E+03  0.12631810554E+03  0.48584172211E+03  0.00000000000E+00 0. -1.
         11    1    1    2    0    0  0.78417258660E+02 -0.16807936132E+03 -0.84437675243E+02  0.20378827041E+03  0.00000000000E+00 0.  1.
        -15    1    3    3    0    0  0.47537884585E+01 -0.28292780142E+03 -0.18192522927E+02  0.28355751611E+03  0.17770000000E+01 0.  1.
         15    1    3    3    0    0 -0.46934938926E+01 -0.11515473243E+02 -0.23687907375E+02  0.26812491375E+02  0.17770000000E+01 0. -1.
</event>
<event>
 7    1  0.2288857E-006  0.5253638E+03  0.7546771E-02  0.9344779E-01
        -11   -1    0    0    0    0  0.00000000000E+00  0.00000000000E+00  0.50000000000E+03  0.50000000000E+03  0.00000000000E+00 0.  1.
         11   -1    0    0    0    0 -0.00000000000E+00 -0.00000000000E+00 -0.50000000000E+03  0.50000000000E+03  0.00000000000E+00 0. -1.
         23    2    1    2    0    0  0.39667133496E+02 -0.66729650783E+01 -0.87536996950E+02  0.13298591272E+03  0.91676153957E+02 0.  0.
        -11    1    1    2    0    0 -0.22131976722E+03 -0.18975915350E+03  0.37455115965E+03  0.47463622585E+03  0.00000000000E+00 0.  1.
         11    1    1    2    0    0  0.18165263372E+03  0.19643211858E+03 -0.28701416270E+03  0.39237786143E+03  0.00000000000E+00 0. -1.
        -15    1    3    3    0    0  0.41655083516E+01  0.37347336083E+02 -0.58072466361E+02  0.69193526074E+02  0.17770000000E+01 0.  1.
         15    1    3    3    0    0  0.35501625145E+02 -0.44020301161E+02 -0.29464530589E+02  0.63792386646E+02  0.17770000000E+01 0. -1.
</event>
<event>
 7    1  0.2288857E-006  0.5151643E+03  0.7546771E-02  0.9366503E-01
        -11   -1    0    0    0    0  0.00000000000E+00  0.00000000000E+00  0.50000000000E+03  0.50000000000E+03  0.00000000000E+00 0. -1.
         11   -1    0    0    0    0 -0.00000000000E+00 -0.00000000000E+00 -0.50000000000E+03  0.50000000000E+03  0.00000000000E+00 0. -1.
         23    2    1    2    0    0 -0.33165858287E+02  0.10759796794E+03  0.46170643439E+03  0.48483567061E+03  0.95997391003E+02 0.  0.
        -11    1    1    2    0    0 -0.71066850615E+02 -0.80061383773E+01 -0.80876345279E+02  0.10796100562E+03  0.00000000000E+00 0. -1.
         11    1    1    2    0    0  0.10423270890E+03 -0.99591829563E+02 -0.38083008911E+03  0.40720332377E+03  0.00000000000E+00 0. -1.
        -15    1    3    3    0    0 -0.64662876956E+02  0.92782877127E+02  0.35166083564E+03  0.36940283025E+03  0.17770000000E+01 0. -1.
         15    1    3    3    0    0  0.31497018669E+02  0.14815090814E+02  0.11004559875E+03  0.11543284036E+03  0.17770000000E+01 0.  1.
</event>
<event>
 7    1  0.2288857E-006  0.5317118E+03  0.7546771E-02  0.9331520E-01
        -11   -1    0    0    0    0  0.00000000000E+00  0.00000000000E+00  0.50000000000E+03  0.50000000000E+03  0.00000000000E+00 0.  1.
         11   -1    0    0    0    0 -0.00000000000E+00 -0.00000000000E+00 -0.50000000000E+03  0.50000000000E+03  0.00000000000E+00 0. -1.
         23    2    1    2    0    0 -0.49124840876E+02 -0.38394067866E+01  0.32901544830E+03  0.34760477889E+03  0.10074684138E+03 0.  0.
        -11    1    1    2    0    0 -0.98357336299E+02  0.11903979382E+03  0.10025340378E+03  0.18410698815E+03  0.00000000000E+00 0.  1.
         11    1    1    2    0    0  0.14748217717E+03 -0.11520038703E+03 -0.42926885209E+03  0.46828823296E+03  0.00000000000E+00 0. -1.
        -15    1    3    3    0    0 -0.76430068589E+02 -0.76686721113E+01  0.17490855055E+03  0.19104063102E+03  0.17770000000E+01 0. -1.
         15    1    3    3    0    0  0.27305227713E+02  0.38292653247E+01  0.15410689775E+03  0.15656414787E+03  0.17770000000E+01 0.  1.
</event>
<event>
 7    1  0.2288857E-006  0.5196852E+03  0.7546771E-02  0.9356809E-01
        -11   -1    0    0    0    0  0.00000000000E+00  0.00000000000E+00  0.50000000000E+03  0.50000000000E+03  0.00000000000E+00 0.  1.
         11   -1    0    0    0    0 -0.00000000000E+00 -0.00000000000E+00 -0.50000000000E+03  0.50000000000E+03  0.00000000000E+00 0.  1.
         23    2    1    2    0    0 -0.52311015225E+02 -0.78619378511E+02  0.31824453909E+03  0.34398920755E+03  0.90175047875E+02 0.  0.
        -11    1    1    2    0    0 -0.25263732214E+02 -0.14090358992E+03  0.10186753679E+03  0.17569596714E+03  0.00000000000E+00 0.  1.
         11    1    1    2    0    0  0.77574747439E+02  0.21952296843E+03 -0.42011207588E+03  0.48031482531E+03  0.00000000000E+00 0.  1.
        -15    1    3    3    0    0 -0.21652376202E+02 -0.45717081810E+02  0.28113651444E+03  0.28565674234E+03  0.17770000000E+01 0.  1.
         15    1    3    3    0    0 -0.30658639023E+02 -0.32902296701E+02  0.37108024649E+02  0.58332465208E+02  0.17770000000E+01 0. -1.
</event>
<event>
 7    1  0.2288857E-006  0.5251025E+03  0.7546771E-02  0.9345329E-01
        -11   -1    0    0    0    0  0.00000000000E+00  0.00000000000E+00  0.50000000000E+03  0.50000000000E+03  0.00000000000E+00 0.  1.
         11   -1    0    0    0    0 -0.00000000000E+00 -0.00000000000E+00 -0.50000000000E+03  0.50000000000E+03  0.00000000000E+00 0. -1.
         23    2    1    2    0    0  0.91582056858E+02  0.25338014947E+01  0.26455895506E+03  0.29483129491E+03  0.92414059906E+02 0.  0.
        -11    1    1    2    0    0 -0.18192750901E+02 -0.13525827610E+03  0.18546979186E+03  0.23027119041E+03  0.00000000000E+00 0.  1.
         11    1    1    2    0    0 -0.73389305957E+02  0.13272447461E+03 -0.45002874692E+03  0.47489751468E+03  0.00000000000E+00 0. -1.
        -15    1    3    3    0    0  0.31254855650E+02 -0.18914810099E+02  0.20204703715E+03  0.20533094991E+03  0.17770000000E+01 0.  1.
         15    1    3    3    0    0  0.60327201208E+02  0.21448611593E+02  0.62511917913E+02  0.89500345000E+02  0.17770000000E+01 0. -1.
</event>
<event>
 7    1  0.2288857E-006  0.3780674E+03  0.7546771E-02  0.9723521E-01
        -11   -1    0    0    0    0  0.00000000000E+00  0.00000000000E+00  0.50000000000E+03  0.50000000000E+03  0.00000000000E+00 0.  1.
         11   -1    0    0    0    0 -0.00000000000E+00 -0.00000000000E+00 -0.50000000000E+03  0.50000000000E+03  0.00000000000E+00 0.  1.
         23    2    1    2    0    0  0.98594923597E+02  0.14648407669E+03  0.91447000024E+02  0.21815551880E+03  0.89725876340E+02 0.  0.
        -11    1    1    2    0    0 -0.42834896164E+02 -0.76503910461E+02  0.33491118216E+03  0.34619817530E+03  0.00000000000E+00 0.  1.
         11    1    1    2    0    0 -0.55760027433E+02 -0.69980166233E+02 -0.42635818219E+03  0.43564630590E+03  0.00000000000E+00 0.  1.
        -15    1    3    3    0    0  0.37675698407E+02  0.24879957187E+01  0.16340811662E+01  0.37834855932E+02  0.17770000000E+01 0. -1.
         15    1    3    3    0    0  0.60919225191E+02  0.14399608097E+03  0.89812918857E+02  0.18032066287E+03  0.17770000000E+01 0.  1.
</event>
<event>
 7    1  0.2288857E-006  0.4670102E+03  0.7546771E-02  0.9476812E-01
        -11   -1    0    0    0    0  0.00000000000E+00  0.00000000000E+00  0.50000000000E+03  0.50000000000E+03  0.00000000000E+00 0.  1.
         11   -1    0    0    0    0 -0.00000000000E+00 -0.00000000000E+00 -0.50000000000E+03  0.50000000000E+03  0.00000000000E+00 0. -1.
         23    2    1    2    0    0  0.36119407448E+02  0.37015690536E+02  0.45896054326E+03  0.47084862310E+03  0.91536182259E+02 0.  0.
        -11    1    1    2    0    0  0.50408375001E+02  0.48304903901E+02 -0.18486855269E+02  0.72222793001E+02  0.00000000000E+00 0.  1.
         11    1    1    2    0    0 -0.86527782449E+02 -0.85320594438E+02 -0.44047368799E+03  0.45692858390E+03  0.00000000000E+00 0. -1.
        -15    1    3    3    0    0  0.38387650691E+02  0.63264835127E+02  0.39086166290E+03  0.39780906016E+03  0.17770000000E+01 0.  1.
         15    1    3    3    0    0 -0.22682432423E+01 -0.26249144591E+02  0.68098880359E+02  0.73039562938E+02  0.17770000000E+01 0. -1.
</event>
<event>
 7    1  0.2288857E-006  0.5206915E+03  0.7546771E-02  0.9354665E-01
        -11   -1    0    0    0    0  0.00000000000E+00  0.00000000000E+00  0.50000000000E+03  0.50000000000E+03  0.00000000000E+00 0. -1.
         11   -1    0    0    0    0 -0.00000000000E+00 -0.00000000000E+00 -0.50000000000E+03  0.50000000000E+03  0.00000000000E+00 0.  1.
         23    2    1    2    0    0  0.36596422583E+02  0.17248605124E+02  0.13545182928E+03  0.16885871321E+03  0.92353962815E+02 0.  0.
        -11    1    1    2    0    0 -0.89195515328E+02  0.75921681045E+02  0.33176253157E+03  0.35183279972E+03  0.00000000000E+00 0. -1.
         11    1    1    2    0    0  0.52599092745E+02 -0.93170286169E+02 -0.46721436085E+03  0.47930848706E+03  0.00000000000E+00 0.  1.
        -15    1    3    3    0    0 -0.28421420668E+02  0.20946416915E+02  0.41267838905E+02  0.54338952799E+02  0.17770000000E+01 0. -1.
         15    1    3    3    0    0  0.65017843251E+02 -0.36978117903E+01  0.94183990377E+02  0.11451976041E+03  0.17770000000E+01 0.  1.
</event>
<event>
 7    1  0.2288857E-006  0.3995941E+03  0.7546771E-02  0.9657601E-01
        -11   -1    0    0    0    0  0.00000000000E+00  0.00000000000E+00  0.50000000000E+03  0.50000000000E+03  0.00000000000E+00 0.  1.
         11   -1    0    0    0    0 -0.00000000000E+00 -0.00000000000E+00 -0.50000000000E+03  0.50000000000E+03  0.00000000000E+00 0. -1.
         23    2    1    2    0    0  0.59212996780E+02 -0.38479176538E+02  0.14357169732E+03  0.18495315344E+03  0.92779365597E+02 0.  0.
        -11    1    1    2    0    0 -0.18254847201E+03  0.16223105732E+03  0.27121385314E+03  0.36496549800E+03  0.00000000000E+00 0.  1.
         11    1    1    2    0    0  0.12333547523E+03 -0.12375188078E+03 -0.41478555047E+03  0.45008134856E+03  0.00000000000E+00 0. -1.
        -15    1    3    3    0    0  0.54329494057E+02  0.10021616687E+02  0.11701684070E+03  0.12941493523E+03  0.17770000000E+01 0.  1.
         15    1    3    3    0    0  0.48835027228E+01 -0.48500793225E+02  0.26554856626E+02  0.55538218208E+02  0.17770000000E+01 0. -1.
</event>
<event>
 7    1  0.2288857E-006  0.4502353E+03  0.7546771E-02  0.9518610E-01
        -11   -1    0    0    0    0  0.00000000000E+00  0.00000000000E+00  0.50000000000E+03  0.50000000000E+03  0.00000000000E+00 0.  1.
         11   -1    0    0    0    0 -0.00000000000E+00 -0.00000000000E+00 -0.50000000000E+03  0.50000000000E+03  0.00000000000E+00 0.  1.
         23    2    1    2    0    0 -0.12261378293E+03 -0.17260939308E+03  0.41919875793E+03  0.47841842511E+03  0.91260333634E+02 0.  0.
        -11    1    1    2    0    0  0.78892521598E+02 -0.33131759212E+02 -0.57241995343E+02  0.10294847966E+03  0.00000000000E+00 0.  1.
         11    1    1    2    0    0  0.43721261330E+02  0.20574115229E+03 -0.36195676259E+03  0.41863309523E+03  0.00000000000E+00 0.  1.
        -15    1    3    3    0    0 -0.74975383943E+02 -0.16061147025E+03  0.28643950196E+03  0.33685026137E+03  0.17770000000E+01 0. -1.
         15    1    3    3    0    0 -0.47638398986E+02 -0.11997922822E+02  0.13275925598E+03  0.14156816374E+03  0.17770000000E+01 0.  1.
</event>
<event>
 7    1  0.3665400E-006  0.5116687E+03  0.7546771E-02  0.9374072E-01
        -11   -1    0    0    0    0  0.00000000000E+00  0.00000000000E+00  0.50000000000E+03  0.50000000000E+03  0.00000000000E+00 0. -1.
         11   -1    0    0    0    0 -0.00000000000E+00 -0.00000000000E+00 -0.50000000000E+03  0.50000000000E+03  0.00000000000E+00 0.  1.
         23    2    1    2    0    0  0.27342213335E+02  0.67657483370E+01 -0.24774153435E+03  0.26491684535E+03  0.89508072984E+02 0.  0.
        -11    1    1    2    0    0 -0.26544119566E+02 -0.94518609751E+02  0.47836085668E+03  0.48833130872E+03  0.00000000000E+00 0. -1.
         11    1    1    2    0    0 -0.79809376917E+00  0.87752861414E+02 -0.23061932233E+03  0.24675184593E+03  0.00000000000E+00 0.  1.
        -15    1    3    3    0    0  0.50219035972E+02 -0.21148455906E+02 -0.11378225834E+03  0.12616960333E+03  0.17770000000E+01 0. -1.
         15    1    3    3    0    0 -0.22876822637E+02  0.27914204243E+02 -0.13395927600E+03  0.13874724202E+03  0.17770000000E+01 0.  1.
</event>
<event>
 7    1  0.2288857E-006  0.5171237E+03  0.7546771E-02  0.9362289E-01
        -11   -1    0    0    0    0  0.00000000000E+00  0.00000000000E+00  0.50000000000E+03  0.50000000000E+03  0.00000000000E+00 0.  1.
         11   -1    0    0    0    0 -0.00000000000E+00 -0.00000000000E+00 -0.50000000000E+03  0.50000000000E+03  0.00000000000E+00 0. -1.
         23    2    1    2    0    0 -0.49059851995E+01  0.22081054975E+02  0.11926992153E+03  0.15205542773E+03  0.91563623999E+02 0.  0.
        -11    1    1    2    0    0 -0.10103853230E+00  0.16250247055E+03  0.32690642527E+03  0.36506831419E+03  0.00000000000E+00 0.  1.
         11    1    1    2    0    0  0.50070237318E+01 -0.18458352553E+03 -0.44617634680E+03  0.48287625809E+03  0.00000000000E+00 0. -1.
        -15    1    3    3    0    0 -0.17532142056E+02  0.21699378806E+02  0.13146718423E+03  0.13440616542E+03  0.17770000000E+01 0.  1.
         15    1    3    3    0    0  0.12626156857E+02  0.38167616933E+00 -0.12197262696E+02  0.17649262306E+02  0.17770000000E+01 0. -1.
</event>
<event>
 7    1  0.2288857E-006  0.3065240E+03  0.7546771E-02  0.9981780E-01
        -11   -1    0    0    0    0  0.00000000000E+00  0.00000000000E+00  0.50000000000E+03  0.50000000000E+03  0.00000000000E+00 0.  1.
         11   -1    0    0    0    0 -0.00000000000E+00 -0.00000000000E+00 -0.50000000000E+03  0.50000000000E+03  0.00000000000E+00 0.  1.
         23    2    1    2    0    0  0.27131302783E+03 -0.11751784564E+02  0.13242137139E+03  0.31654401967E+03  0.94423690226E+02 0.  0.
        -11    1    1    2    0    0 -0.29902338953E+03 -0.35821339906E+02  0.19018467955E+03  0.35618586190E+03  0.00000000000E+00 0.  1.
         11    1    1    2    0    0  0.27710361701E+02  0.47573124471E+02 -0.32260605094E+03  0.32727011843E+03  0.00000000000E+00 0.  1.
        -15    1    3    3    0    0  0.12548233261E+03 -0.31392713208E+02  0.10553609932E+03  0.16695012497E+03  0.17770000000E+01 0.  1.
         15    1    3    3    0    0  0.14583069522E+03  0.19640928644E+02  0.26885272069E+02  0.14959389470E+03  0.17770000000E+01 0. -1.
</event>
<event>
 7    1  0.2288857E-006  0.4905745E+03  0.7546771E-02  0.9421151E-01
        -11   -1    0    0    0    0  0.00000000000E+00  0.00000000000E+00  0.50000000000E+03  0.50000000000E+03  0.00000000000E+00 0.  1.
         11   -1    0    0    0    0 -0.00000000000E+00 -0.00000000000E+00 -0.50000000000E+03  0.50000000000E+03  0.00000000000E+00 0. -1.
         23    2    1    2    0    0  0.17819203794E+03  0.13460055891E+02  0.44710191258E+03  0.49046050997E+03  0.93369246095E+02 0.  0.
        -11    1    1    2    0    0  0.13865258577E+02 -0.23133781248E+02 -0.50061320706E+01  0.27431343178E+02  0.00000000000E+00 0.  1.
         11    1    1    2    0    0 -0.19205729652E+03  0.96737253574E+01 -0.44209578051E+03  0.48210814685E+03  0.00000000000E+00 0. -1.
        -15    1    3    3    0    0 -0.10906664320E+02 -0.18242489725E+01  0.16819448393E+02  0.20207295320E+02  0.17770000000E+01 0. -1.
         15    1    3    3    0    0  0.18909870226E+03  0.15284304863E+02  0.43028246419E+03  0.47025321465E+03  0.17770000000E+01 0.  1.
</event>
<event>
 7    1  0.2288857E-006  0.3188532E+03  0.7546771E-02  0.9932169E-01
        -11   -1    0    0    0    0  0.00000000000E+00  0.00000000000E+00  0.50000000000E+03  0.50000000000E+03  0.00000000000E+00 0.  1.
         11   -1    0    0    0    0 -0.00000000000E+00 -0.00000000000E+00 -0.50000000000E+03  0.50000000000E+03  0.00000000000E+00 0.  1.
         23    2    1    2    0    0 -0.14286187788E+03  0.25098443668E+03  0.81024123716E+02  0.31367919649E+03  0.91798834838E+02 0.  0.
        -11    1    1    2    0    0  0.20388543435E+03 -0.23729866543E+03  0.21768269447E+03  0.38113735375E+03  0.00000000000E+00 0.  1.
         11    1    1    2    0    0 -0.61023556465E+02 -0.13685771243E+02 -0.29870681818E+03  0.30518344976E+03  0.00000000000E+00 0.  1.
        -15    1    3    3    0    0 -0.13490825466E+03  0.21459795644E+03  0.37303502332E+02  0.25621715223E+03  0.17770000000E+01 0. -1.
         15    1    3    3    0    0 -0.79536232217E+01  0.36386480240E+02  0.43720621383E+02  0.57462044253E+02  0.17770000000E+01 0.  1.
</event>
<event>
 7    1  0.2288857E-006  0.5239669E+03  0.7546771E-02  0.9347723E-01
        -11   -1    0    0    0    0  0.00000000000E+00  0.00000000000E+00  0.50000000000E+03  0.50000000000E+03  0.00000000000E+00 0.  1.
         11   -1    0    0    0    0 -0.00000000000E+00 -0.00000000000E+00 -0.50000000000E+03  0.50000000000E+03  0.00000000000E+00 0. -1.
         23    2    1    2    0    0  0.18247648897E+03  0.32928933924E+03 -0.11882262714E+03  0.40519741446E+03  0.91307119087E+02 0.  0.
        -11    1    1    2    0    0 -0.24431971026E+03 -0.34488898080E+03  0.21901370708E+03  0.47603312257E+03  0.00000000000E+00 0.  1.
         11    1    1    2    0    0  0.61843221288E+02  0.15599641557E+02 -0.10019107994E+03  0.11876946297E+03  0.00000000000E+00 0. -1.
        -15    1    3    3    0    0  0.75014437528E+02  0.56114607377E+02 -0.24282695979E+02  0.96792675610E+02  0.17770000000E+01 0.  1.
         15    1    3    3    0    0  0.10746205144E+03  0.27317473186E+03 -0.94539931163E+02  0.30840473884E+03  0.17770000000E+01 0. -1.
</event>
<event>
 7    1  0.2288857E-006  0.5201938E+03  0.7546771E-02  0.9355725E-01
        -11   -1    0    0    0    0  0.00000000000E+00  0.00000000000E+00  0.50000000000E+03  0.50000000000E+03  0.00000000000E+00 0. -1.
         11   -1    0    0    0    0 -0.00000000000E+00 -0.00000000000E+00 -0.50000000000E+03  0.50000000000E+03  0.00000000000E+00 0.  1.
         23    2    1    2    0    0 -0.13921184222E+03 -0.10123426695E+03  0.37655113023E+03  0.42378011282E+03  0.90390909538E+02 0.  0.
        -11    1    1    2    0    0  0.22707638159E+02  0.39808792417E+02  0.84824687173E+02  0.96413714473E+02  0.00000000000E+00 0. -1.
         11    1    1    2    0    0  0.11650420406E+03  0.61425474529E+02 -0.46137581740E+03  0.47980617271E+03  0.00000000000E+00 0.  1.
        -15    1    3    3    0    0 -0.14168826502E+02  0.16779497606E+02  0.34375844115E+02  0.40830914415E+02  0.17770000000E+01 0.  1.
         15    1    3    3    0    0 -0.12504301572E+03 -0.11801376455E+03  0.34217528611E+03  0.38294919841E+03  0.17770000000E+01 0. -1.
</event>
<event>
 7    1  0.2288857E-006  0.4135059E+03  0.7546771E-02  0.9617316E-01
        -11   -1    0    0    0    0  0.00000000000E+00  0.00000000000E+00  0.50000000000E+03  0.50000000000E+03  0.00000000000E+00 0. -1.
         11   -1    0    0    0    0 -0.00000000000E+00 -0.00000000000E+00 -0.50000000000E+03  0.50000000000E+03  0.00000000000E+00 0.  1.
         23    2    1    2    0    0 -0.83464954567E+02 -0.11794474449E+03  0.34167528251E+01  0.16045401728E+03  0.69688277832E+02 0.  0.
        -11    1    1    2    0    0  0.58014559565E+02  0.22943626927E+03  0.37544090352E+03  0.44380464488E+03  0.00000000000E+00 0. -1.
         11    1    1    2    0    0  0.25450395002E+02 -0.11149152478E+03 -0.37885765635E+03  0.39574133784E+03  0.00000000000E+00 0.  1.
        -15    1    3    3    0    0 -0.30318414696E+02 -0.29574516113E+02  0.32363403991E+02  0.53332972164E+02  0.17770000000E+01 0. -1.
         15    1    3    3    0    0 -0.53146539871E+02 -0.88370228377E+02 -0.28946651166E+02  0.10712104511E+03  0.17770000000E+01 0.  1.
</event>
<event>
 7    1  0.2288857E-006  0.5176097E+03  0.7546771E-02  0.9361246E-01
        -11   -1    0    0    0    0  0.00000000000E+00  0.00000000000E+00  0.50000000000E+03  0.50000000000E+03  0.00000000000E+00 0.  1.
         11   -1    0    0    0    0 -0.00000000000E+00 -0.00000000000E+00 -0.50000000000E+03  0.50000000000E+03  0.00000000000E+00 0. -1.
         23    2    1    2    0    0  0.65989300445E+02  0.46609558435E+02  0.37478989883E+03  0.39428221326E+03  0.91999764760E+02 0.  0.
        -11    1    1    2    0    0  0.11066458442E+02 -0.70155267236E+02  0.10082381707E+03  0.12332749131E+03  0.00000000000E+00 0.  1.
         11    1    1    2    0    0 -0.77055758887E+02  0.23545708801E+02 -0.47561371590E+03  0.48239029544E+03  0.00000000000E+00 0. -1.
        -15    1    3    3    0    0  0.87333975934E+02  0.36717743124E+02  0.25155616159E+03  0.26881048375E+03  0.17770000000E+01 0.  1.
         15    1    3    3    0    0 -0.21344675489E+02  0.98918153113E+01  0.12323373724E+03  0.12547172950E+03  0.17770000000E+01 0. -1.
</event>
<event>
 7    1  0.2288857E-006  0.5103231E+03  0.7546771E-02  0.9377003E-01
        -11   -1    0    0    0    0  0.00000000000E+00  0.00000000000E+00  0.50000000000E+03  0.50000000000E+03  0.00000000000E+00 0.  1.
         11   -1    0    0    0    0 -0.00000000000E+00 -0.00000000000E+00 -0.50000000000E+03  0.50000000000E+03  0.00000000000E+00 0.  1.
         23    2    1    2    0    0 -0.70642942155E+02 -0.73620685192E+02  0.34455725774E+03  0.37121929904E+03  0.93132344293E+02 0.  0.
        -11    1    1    2    0    0  0.30240926433E+02 -0.34460752383E+02  0.13133091360E+03  0.13910379561E+03  0.00000000000E+00 0.  1.
         11    1    1    2    0    0  0.40402015723E+02  0.10808143758E+03 -0.47588817133E+03  0.48967690536E+03  0.00000000000E+00 0.  1.
        -15    1    3    3    0    0 -0.83104866103E+02 -0.52367632349E+02  0.32555145399E+03  0.34005248803E+03  0.17770000000E+01 0.  1.
         15    1    3    3    0    0  0.12461923947E+02 -0.21253052843E+02  0.19005803748E+02  0.31166811013E+02  0.17770000000E+01 0. -1.
</event>
<event>
 7    1  0.2288857E-006  0.4973538E+03  0.7546771E-02  0.9405750E-01
        -11   -1    0    0    0    0  0.00000000000E+00  0.00000000000E+00  0.50000000000E+03  0.50000000000E+03  0.00000000000E+00 0.  1.
         11   -1    0    0    0    0 -0.00000000000E+00 -0.00000000000E+00 -0.50000000000E+03  0.50000000000E+03  0.00000000000E+00 0. -1.
         23    2    1    2    0    0  0.11245573725E+03 -0.61525878447E+02  0.46880861482E+03  0.49449674122E+03  0.91179949501E+02 0.  0.
        -11    1    1    2    0    0  0.12759277861E+02 -0.41980155397E+01  0.22998822623E+01  0.13627617709E+02  0.00000000000E+00 0.  1.
         11    1    1    2    0    0 -0.12521501511E+03  0.65723893986E+02 -0.47110849708E+03  0.49187564107E+03  0.00000000000E+00 0. -1.
        -15    1    3    3    0    0  0.12705896690E+03 -0.57614659003E+02  0.44384746248E+03  0.46526031174E+03  0.17770000000E+01 0.  1.
         15    1    3    3    0    0 -0.14603229650E+02 -0.39112194437E+01  0.24961152345E+02  0.29236429487E+02  0.17770000000E+01 0. -1.
</event>
<event>
 7    1  0.2288857E-006  0.3364601E+03  0.7546771E-02  0.9865355E-01
        -11   -1    0    0    0    0  0.00000000000E+00  0.00000000000E+00  0.50000000000E+03  0.50000000000E+03  0.00000000000E+00 0.  1.
         11   -1    0    0    0    0 -0.00000000000E+00 -0.00000000000E+00 -0.50000000000E+03  0.50000000000E+03  0.00000000000E+00 0.  1.
         23    2    1    2    0    0  0.38061504892E+01 -0.95126357620E+02  0.26750830848E+03  0.29866884463E+03  0.92622205488E+02 0.  0.
        -11    1    1    2    0    0  0.27194110535E+03  0.59911014511E+02  0.46100043422E+02  0.28225256145E+03  0.00000000000E+00 0.  1.
         11    1    1    2    0    0 -0.27574725584E+03  0.35215343109E+02 -0.31360835191E+03  0.41907859392E+03  0.00000000000E+00 0.  1.
        -15    1    3    3    0    0 -0.11222923777E+02 -0.10412170210E+03  0.17069553370E+03  0.20026833454E+03  0.17770000000E+01 0.  1.
         15    1    3    3    0    0  0.15029074266E+02  0.89953444778E+01  0.96812774780E+02  0.98400510086E+02  0.17770000000E+01 0. -1.
</event>
<event>
 7    1  0.2288857E-006  0.5129862E+03  0.7546771E-02  0.9371212E-01
        -11   -1    0    0    0    0  0.00000000000E+00  0.00000000000E+00  0.50000000000E+03  0.50000000000E+03  0.00000000000E+00 0. -1.
         11   -1    0    0    0    0 -0.00000000000E+00 -0.00000000000E+00 -0.50000000000E+03  0.50000000000E+03  0.00000000000E+00 0.  1.
         23    2    1    2    0    0  0.28021395422E+02  0.58945419740E+02  0.40072555586E+03  0.41621912439E+03  0.91638568742E+02 0.  0.
        -11    1    1    2    0    0  0.63081400771E+02  0.11033845000E+02  0.72545604279E+02  0.96767109903E+02  0.00000000000E+00 0. -1.
         11    1    1    2    0    0 -0.91102796193E+02 -0.69979264739E+02 -0.47327116014E+03  0.48701376571E+03  0.00000000000E+00 0.  1.
        -15    1    3    3    0    0 -0.17207795881E+02  0.61934236933E+02  0.27902821237E+03  0.28634220606E+03  0.17770000000E+01 0. -1.
         15    1    3    3    0    0  0.45229191303E+02 -0.29888171939E+01  0.12169734349E+03  0.12987691833E+03  0.17770000000E+01 0.  1.
</event>
<event>
 7    1  0.2288857E-006  0.4861062E+03  0.7546771E-02  0.9431446E-01
        -11   -1    0    0    0    0  0.00000000000E+00  0.00000000000E+00  0.50000000000E+03  0.50000000000E+03  0.00000000000E+00 0. -1.
         11   -1    0    0    0    0 -0.00000000000E+00 -0.00000000000E+00 -0.50000000000E+03  0.50000000000E+03  0.00000000000E+00 0.  1.
         23    2    1    2    0    0  0.40119936388E+02  0.14804279571E+03  0.44801323424E+03  0.48234076498E+03  0.91708651994E+02 0.  0.
        -11    1    1    2    0    0  0.71413226564E+01  0.34807540930E+02 -0.47615064515E+01  0.35850179059E+02  0.00000000000E+00 0. -1.
         11    1    1    2    0    0 -0.47261259045E+02 -0.18285033664E+03 -0.44325172779E+03  0.48180905596E+03  0.00000000000E+00 0.  1.
        -15    1    3    3    0    0  0.18055971758E+02  0.10644294887E+03  0.17757056332E+03  0.20782343989E+03  0.17770000000E+01 0.  1.
         15    1    3    3    0    0  0.22063964630E+02  0.41599846838E+02  0.27044267092E+03  0.27451732509E+03  0.17770000000E+01 0. -1.
</event>
<event>
 7    1  0.2288857E-006  0.5373189E+03  0.7546771E-02  0.9319972E-01
        -11   -1    0    0    0    0  0.00000000000E+00  0.00000000000E+00  0.50000000000E+03  0.50000000000E+03  0.00000000000E+00 0.  1.
         11   -1    0    0    0    0 -0.00000000000E+00 -0.00000000000E+00 -0.50000000000E+03  0.50000000000E+03  0.00000000000E+00 0.  1.
         23    2    1    2    0    0 -0.16466238118E+03 -0.36273126190E+02 -0.11311191006E+03  0.21956551736E+03  0.83577944209E+02 0.  0.
        -11    1    1    2    0    0  0.19061227963E+03 -0.45082197733E+02  0.41917581999E+03  0.46268111456E+03  0.00000000000E+00 0.  1.
         11    1    1    2    0    0 -0.25949898450E+02  0.81355323923E+02 -0.30606390994E+03  0.31775336808E+03  0.00000000000E+00 0.  1.
        -15    1    3    3    0    0 -0.13974198532E+03 -0.59456978199E+02 -0.78397095806E+02  0.17091581868E+03  0.17770000000E+01 0.  1.
         15    1    3    3    0    0 -0.24920395865E+02  0.23183852009E+02 -0.34714814250E+02  0.48649698678E+02  0.17770000000E+01 0. -1.
</event>
<event>
 7    1  0.2288857E-006  0.5177483E+03  0.7546771E-02  0.9360949E-01
        -11   -1    0    0    0    0  0.00000000000E+00  0.00000000000E+00  0.50000000000E+03  0.50000000000E+03  0.00000000000E+00 0.  1.
         11   -1    0    0    0    0 -0.00000000000E+00 -0.00000000000E+00 -0.50000000000E+03  0.50000000000E+03  0.00000000000E+00 0. -1.
         23    2    1    2    0    0 -0.70323713016E+02  0.24813866964E+01  0.16975689106E+03  0.20596670695E+03  0.93023117659E+02 0.  0.
        -11    1    1    2    0    0 -0.19509495886E+03 -0.10383257777E+03  0.21991933962E+03  0.31178159522E+03  0.00000000000E+00 0.  1.
         11    1    1    2    0    0  0.26541867188E+03  0.10135119107E+03 -0.38967623067E+03  0.48225169783E+03  0.00000000000E+00 0. -1.
        -15    1    3    3    0    0 -0.12978482288E+02 -0.27143684770E+02  0.12196567502E+03  0.12563440706E+03  0.17770000000E+01 0. -1.
         15    1    3    3    0    0 -0.57345230728E+02  0.29625071466E+02  0.47791216037E+02  0.80332299892E+02  0.17770000000E+01 0.  1.
</event>
<event>
 7    1  0.2288857E-006  0.5308895E+03  0.7546771E-02  0.9333227E-01
        -11   -1    0    0    0    0  0.00000000000E+00  0.00000000000E+00  0.50000000000E+03  0.50000000000E+03  0.00000000000E+00 0.  1.
         11   -1    0    0    0    0 -0.00000000000E+00 -0.00000000000E+00 -0.50000000000E+03  0.50000000000E+03  0.00000000000E+00 0. -1.
         23    2    1    2    0    0 -0.26712629428E+02  0.15569587359E+02 -0.60256981487E+02  0.12710027908E+03  0.10755278007E+03 0.  0.
        -11    1    1    2    0    0  0.78960970854E+02 -0.80882444225E+02  0.45528874206E+03  0.46911048096E+03  0.00000000000E+00 0.  1.
         11    1    1    2    0    0 -0.52248341426E+02  0.65312856866E+02 -0.39503176057E+03  0.40378923997E+03  0.00000000000E+00 0. -1.
        -15    1    3    3    0    0  0.34329553847E+01 -0.40696355843E+02 -0.46246066322E+02  0.61723860385E+02  0.17770000000E+01 0.  1.
         15    1    3    3    0    0 -0.30145584813E+02  0.56265943202E+02 -0.14010915165E+02  0.65376418691E+02  0.17770000000E+01 0. -1.
</event>
<event>
 7    1  0.2288857E-006  0.5316835E+03  0.7546771E-02  0.9331579E-01
        -11   -1    0    0    0    0  0.00000000000E+00  0.00000000000E+00  0.50000000000E+03  0.50000000000E+03  0.00000000000E+00 0.  1.
         11   -1    0    0    0    0 -0.00000000000E+00 -0.00000000000E+00 -0.50000000000E+03  0.50000000000E+03  0.00000000000E+00 0. -1.
         23    2    1    2    0    0 -0.22522102442E+02  0.64420589100E+02  0.25818243547E+03  0.28263852628E+03  0.92569482846E+02 0.  0.
        -11    1    1    2    0    0  0.13249890056E+03 -0.75474648980E+02  0.19690356198E+03  0.24904496383E+03  0.00000000000E+00 0.  1.
         11    1    1    2    0    0 -0.10997679812E+03  0.11054059880E+02 -0.45508599745E+03  0.46831650989E+03  0.00000000000E+00 0. -1.
        -15    1    3    3    0    0  0.10573305583E+02 -0.16095345258E+02  0.15421986606E+02  0.24735608539E+02  0.17770000000E+01 0.  1.
         15    1    3    3    0    0 -0.33095408025E+02  0.80515934357E+02  0.24276044886E+03  0.25790291774E+03  0.17770000000E+01 0. -1.
</event>
<event>
 7    1  0.2288857E-006  0.3604823E+03  0.7546771E-02  0.9780957E-01
        -11   -1    0    0    0    0  0.00000000000E+00  0.00000000000E+00  0.50000000000E+03  0.50000000000E+03  0.00000000000E+00 0. -1.
         11   -1    0    0    0    0 -0.00000000000E+00 -0.00000000000E+00 -0.50000000000E+03  0.50000000000E+03  0.00000000000E+00 0.  1.
         23    2    1    2    0    0  0.12122430141E+03 -0.90456055060E+02  0.16676527192E+03  0.24469990686E+03  0.95863232510E+02 0.  0.
        -11    1    1    2    0    0 -0.22263399192E+03 -0.14367110326E+03  0.18324929008E+03  0.32216080237E+03  0.00000000000E+00 0. -1.
         11    1    1    2    0    0  0.10140969051E+03  0.23412715832E+03 -0.35001456200E+03  0.43313929077E+03  0.00000000000E+00 0.  1.
        -15    1    3    3    0    0  0.74909654180E+02 -0.10422542602E+03  0.13785353253E+03  0.18836440714E+03  0.17770000000E+01 0. -1.
         15    1    3    3    0    0  0.46314647229E+02  0.13769370957E+02  0.28911739394E+02  0.56335499716E+02  0.17770000000E+01 0.  1.
</event>
<event>
 7    1  0.2288857E-006  0.4485395E+03  0.7546771E-02  0.9522944E-01
        -11   -1    0    0    0    0  0.00000000000E+00  0.00000000000E+00  0.50000000000E+03  0.50000000000E+03  0.00000000000E+00 0.  1.
         11   -1    0    0    0    0 -0.00000000000E+00 -0.00000000000E+00 -0.50000000000E+03  0.50000000000E+03  0.00000000000E+00 0. -1.
         23    2    1    2    0    0 -0.12728119949E+03 -0.54076037061E+02  0.41105281387E+03  0.44326947376E+03  0.91644361795E+02 0.  0.
        -11    1    1    2    0    0  0.95079470240E+02 -0.36878662968E+02  0.29159618858E+02  0.10606801976E+03  0.00000000000E+00 0.  1.
         11    1    1    2    0    0  0.32201729252E+02  0.90954700029E+02 -0.44021243273E+03  0.45066250648E+03  0.00000000000E+00 0. -1.
        -15    1    3    3    0    0 -0.19310169609E+02 -0.18753285994E+02  0.14224824370E+02  0.30497077619E+02  0.17770000000E+01 0. -1.
         15    1    3    3    0    0 -0.10797102988E+03 -0.35322751067E+02  0.39682798950E+03  0.41277239614E+03  0.17770000000E+01 0.  1.
</event>
<event>
 7    1  0.2288857E-006  0.4624603E+03  0.7546771E-02  0.9487962E-01
        -11   -1    0    0    0    0  0.00000000000E+00  0.00000000000E+00  0.50000000000E+03  0.50000000000E+03  0.00000000000E+00 0.  1.
         11   -1    0    0    0    0 -0.00000000000E+00 -0.00000000000E+00 -0.50000000000E+03  0.50000000000E+03  0.00000000000E+00 0.  1.
         23    2    1    2    0    0 -0.36459170453E+02 -0.10397817633E+03 -0.40370306277E+03  0.42862086473E+03  0.92730526436E+02 0.  0.
        -11    1    1    2    0    0  0.15075125912E+02  0.94179489387E+02  0.48111210504E+03  0.49047517089E+03  0.00000000000E+00 0.  1.
         11    1    1    2    0    0  0.21384044540E+02  0.97986869448E+01 -0.77409042273E+02  0.80903964380E+02  0.00000000000E+00 0.  1.
        -15    1    3    3    0    0 -0.10618234394E+02  0.17068626995E+02 -0.60419419080E+02  0.63700462009E+02  0.17770000000E+01 0.  1.
         15    1    3    3    0    0 -0.25840936059E+02 -0.12104680333E+03 -0.34328364369E+03  0.36492040272E+03  0.17770000000E+01 0. -1.
</event>
<event>
 7    1  0.2288857E-006  0.4863292E+03  0.7546771E-02  0.9430930E-01
        -11   -1    0    0    0    0  0.00000000000E+00  0.00000000000E+00  0.50000000000E+03  0.50000000000E+03  0.00000000000E+00 0. -1.
         11   -1    0    0    0    0 -0.00000000000E+00 -0.00000000000E+00 -0.50000000000E+03  0.50000000000E+03  0.00000000000E+00 0.  1.
         23    2    1    2    0    0  0.84040378937E+02  0.39622122366E+02  0.45391156322E+03  0.47216400105E+03  0.90941952859E+02 0.  0.
        -11    1    1    2    0    0  0.20517652847E+02  0.15289485032E+02  0.24281471219E+02  0.35275094266E+02  0.00000000000E+00 0. -1.
         11    1    1    2    0    0 -0.10455803178E+03 -0.54911607397E+02 -0.47819303444E+03  0.49256090468E+03  0.00000000000E+00 0.  1.
        -15    1    3    3    0    0  0.86282241325E+01  0.50047471153E+02  0.23359079108E+03  0.23905441018E+03  0.17770000000E+01 0. -1.
         15    1    3    3    0    0  0.75412154805E+02 -0.10425348788E+02  0.22032077214E+03  0.23310959087E+03  0.17770000000E+01 0.  1.
</event>
<event>
 7    1  0.2288857E-006  0.5123129E+03  0.7546771E-02  0.9372672E-01
        -11   -1    0    0    0    0  0.00000000000E+00  0.00000000000E+00  0.50000000000E+03  0.50000000000E+03  0.00000000000E+00 0.  1.
         11   -1    0    0    0    0 -0.00000000000E+00 -0.00000000000E+00 -0.50000000000E+03  0.50000000000E+03  0.00000000000E+00 0. -1.
         23    2    1    2    0    0 -0.46798222581E+01 -0.51156965967E+02  0.41003255249E+03  0.42281127017E+03  0.89463624900E+02 0.  0.
        -11    1    1    2    0    0  0.49467431587E+02 -0.28146289856E+02  0.69074665939E+02  0.89501675376E+02  0.00000000000E+00 0.  1.
         11    1    1    2    0    0 -0.44787609329E+02  0.79303255822E+02 -0.47910721843E+03  0.48768705445E+03  0.00000000000E+00 0. -1.
        -15    1    3    3    0    0  0.39026106204E+02 -0.47034010935E+01  0.15386408385E+03  0.15881584611E+03  0.17770000000E+01 0.  1.
         15    1    3    3    0    0 -0.43705928463E+02 -0.46453564873E+02  0.25616846863E+03  0.26399542406E+03  0.17770000000E+01 0. -1.
</event>
<event>
 7    1  0.2288857E-006  0.3722644E+03  0.7546771E-02  0.9742098E-01
        -11   -1    0    0    0    0  0.00000000000E+00  0.00000000000E+00  0.50000000000E+03  0.50000000000E+03  0.00000000000E+00 0. -1.
         11   -1    0    0    0    0 -0.00000000000E+00 -0.00000000000E+00 -0.50000000000E+03  0.50000000000E+03  0.00000000000E+00 0.  1.
         23    2    1    2    0    0 -0.45819089077E+02 -0.36838637592E+02  0.29584308875E+03  0.31515085603E+03  0.91326090183E+02 0.  0.
        -11    1    1    2    0    0 -0.10564254863E+03  0.17446506930E+03  0.10897333707E+03  0.23124358733E+03  0.00000000000E+00 0. -1.
         11    1    1    2    0    0  0.15146163771E+03 -0.13762643171E+03 -0.40481642583E+03  0.45360555665E+03  0.00000000000E+00 0.  1.
        -15    1    3    3    0    0  0.10707147791E+02 -0.49453850179E+02  0.13376731749E+03  0.14302859598E+03  0.17770000000E+01 0.  1.
         15    1    3    3    0    0 -0.56526236868E+02  0.12615212588E+02  0.16207577127E+03  0.17212226005E+03  0.17770000000E+01 0. -1.
</event>
<event>
 7    1  0.2288857E-006  0.4699732E+03  0.7546771E-02  0.9469623E-01
        -11   -1    0    0    0    0  0.00000000000E+00  0.00000000000E+00  0.50000000000E+03  0.50000000000E+03  0.00000000000E+00 0.  1.
         11   -1    0    0    0    0 -0.00000000000E+00 -0.00000000000E+00 -0.50000000000E+03  0.50000000000E+03  0.00000000000E+00 0. -1.
         23    2    1    2    0    0 -0.95996749451E+02 -0.10648252405E+03  0.40782217541E+03  0.44231888432E+03  0.93665174119E+02 0.  0.
        -11    1    1    2    0    0 -0.37080276702E+02 -0.36661517224E+02  0.42179471071E+02  0.67068036689E+02  0.00000000000E+00 0.  1.
         11    1    1    2    0    0  0.13307702615E+03  0.14314404127E+03 -0.45000164648E+03  0.49061307899E+03  0.00000000000E+00 0. -1.
        -15    1    3    3    0    0  0.12273429171E+02 -0.40196755688E+02  0.73289636212E+02  0.84504110767E+02  0.17770000000E+01 0. -1.
         15    1    3    3    0    0 -0.10827017862E+03 -0.66285768357E+02  0.33453253920E+03  0.35781477356E+03  0.17770000000E+01 0.  1.
</event>
<event>
 7    1  0.2288857E-006  0.5076991E+03  0.7546771E-02  0.9382745E-01
        -11   -1    0    0    0    0  0.00000000000E+00  0.00000000000E+00  0.50000000000E+03  0.50000000000E+03  0.00000000000E+00 0.  1.
         11   -1    0    0    0    0 -0.00000000000E+00 -0.00000000000E+00 -0.50000000000E+03  0.50000000000E+03  0.00000000000E+00 0.  1.
         23    2    1    2    0    0 -0.30003261107E+03 -0.27737255439E+03  0.25913491008E+03  0.49230091586E+03  0.90852564609E+02 0.  0.
        -11    1    1    2    0    0  0.22456352008E+03  0.18048729410E+03 -0.96359910200E+02  0.30379214963E+03  0.00000000000E+00 0.  1.
         11    1    1    2    0    0  0.75469090988E+02  0.96885260290E+02 -0.16277499988E+03  0.20390693451E+03  0.00000000000E+00 0.  1.
        -15    1    3    3    0    0 -0.28161913834E+03 -0.28182018124E+03  0.25434825235E+03  0.47268186430E+03  0.17770000000E+01 0.  1.
         15    1    3    3    0    0 -0.18413472736E+02  0.44476268553E+01  0.47866577308E+01  0.19619051559E+02  0.17770000000E+01 0. -1.
</event>
<event>
 7    1  0.2288857E-006  0.3715990E+03  0.7546771E-02  0.9744251E-01
        -11   -1    0    0    0    0  0.00000000000E+00  0.00000000000E+00  0.50000000000E+03  0.50000000000E+03  0.00000000000E+00 0.  1.
         11   -1    0    0    0    0 -0.00000000000E+00 -0.00000000000E+00 -0.50000000000E+03  0.50000000000E+03  0.00000000000E+00 0.  1.
         23    2    1    2    0    0  0.11410191869E+03  0.13336746860E+02  0.35013617169E+03  0.37895138528E+03  0.88383805139E+02 0.  0.
        -11    1    1    2    0    0 -0.21610257961E+03  0.82518268513E+02  0.13185257146E+02  0.23169687214E+03  0.00000000000E+00 0.  1.
         11    1    1    2    0    0  0.10200066092E+03 -0.95855015373E+02 -0.36332142884E+03  0.38935174258E+03  0.00000000000E+00 0.  1.
        -15    1    3    3    0    0  0.99433856869E+02  0.42849400416E+02  0.29982101861E+03  0.31877729521E+03  0.17770000000E+01 0.  1.
         15    1    3    3    0    0  0.14668061822E+02 -0.29512653556E+02  0.50315153077E+02  0.60174090070E+02  0.17770000000E+01 0. -1.
</event>
<event>
 7    1  0.2288857E-006  0.5085336E+03  0.7546771E-02  0.9380915E-01
        -11   -1    0    0    0    0  0.00000000000E+00  0.00000000000E+00  0.50000000000E+03  0.50000000000E+03  0.00000000000E+00 0. -1.
         11   -1    0    0    0    0 -0.00000000000E+00 -0.00000000000E+00 -0.50000000000E+03  0.50000000000E+03  0.00000000000E+00 0.  1.
         23    2    1    2    0    0 -0.91375921226E+02  0.37223549207E+01  0.36220212724E+03  0.38398169774E+03  0.88815248192E+02 0.  0.
        -11    1    1    2    0    0 -0.53399968087E+01 -0.38240411838E+02  0.11841594964E+03  0.12455192408E+03  0.00000000000E+00 0. -1.
         11    1    1    2    0    0  0.96715918035E+02  0.34518056917E+02 -0.48061807688E+03  0.49146637818E+03  0.00000000000E+00 0.  1.
        -15    1    3    3    0    0 -0.24596824889E+02 -0.67137634072E+01  0.13734162484E+02  0.29014881730E+02  0.17770000000E+01 0.  1.
         15    1    3    3    0    0 -0.66779096337E+02  0.10436118328E+02  0.34846796476E+03  0.35496681601E+03  0.17770000000E+01 0. -1.
</event>
<event>
 7    1  0.2288857E-006  0.3447347E+03  0.7546771E-02  0.9835453E-01
        -11   -1    0    0    0    0  0.00000000000E+00  0.00000000000E+00  0.50000000000E+03  0.50000000000E+03  0.00000000000E+00 0.  1.
         11   -1    0    0    0    0 -0.00000000000E+00 -0.00000000000E+00 -0.50000000000E+03  0.50000000000E+03  0.00000000000E+00 0. -1.
         23    2    1    2    0    0 -0.48765740941E+02  0.39944788962E+02  0.27251916929E+03  0.29394609509E+03  0.90354443897E+02 0.  0.
        -11    1    1    2    0    0  0.22305025238E+03  0.12232201590E+03  0.92111889960E+02  0.27055256593E+03  0.00000000000E+00 0.  1.
         11    1    1    2    0    0 -0.17428451144E+03 -0.16226680486E+03 -0.36463105925E+03  0.43550133898E+03  0.00000000000E+00 0. -1.
        -15    1    3    3    0    0  0.41320912113E+01 -0.24627888927E+02  0.43602149573E+02  0.50278347896E+02  0.17770000000E+01 0. -1.
         15    1    3    3    0    0 -0.52897832153E+02  0.64572677889E+02  0.22891701972E+03  0.24366774719E+03  0.17770000000E+01 0.  1.
</event>
<event>
 7    1  0.2288857E-006  0.5210607E+03  0.7546771E-02  0.9353880E-01
        -11   -1    0    0    0    0  0.00000000000E+00  0.00000000000E+00  0.50000000000E+03  0.50000000000E+03  0.00000000000E+00 0. -1.
         11   -1    0    0    0    0 -0.00000000000E+00 -0.00000000000E+00 -0.50000000000E+03  0.50000000000E+03  0.00000000000E+00 0. -1.
         23    2    1    2    0    0 -0.12177060174E+03  0.12753566561E+02  0.33113375912E+03  0.36919021896E+03  0.10798665863E+03 0.  0.
        -11    1    1    2    0    0  0.44368024653E+02 -0.34896312884E+02  0.14099062390E+03  0.15187043916E+03  0.00000000000E+00 0. -1.
         11    1    1    2    0    0  0.77402577085E+02  0.22142746323E+02 -0.47212438302E+03  0.47893934187E+03  0.00000000000E+00 0. -1.
        -15    1    3    3    0    0 -0.10097456520E+03  0.32649842894E+02  0.32184697080E+03  0.33889600972E+03  0.17770000000E+01 0. -1.
         15    1    3    3    0    0 -0.20796036535E+02 -0.19896276333E+02  0.92867883145E+01  0.30294209243E+02  0.17770000000E+01 0.  1.
</event>
<event>
 7    1  0.2288857E-006  0.5085110E+03  0.7546771E-02  0.9380964E-01
        -11   -1    0    0    0    0  0.00000000000E+00  0.00000000000E+00  0.50000000000E+03  0.50000000000E+03  0.00000000000E+00 0.  1.
         11   -1    0    0    0    0 -0.00000000000E+00 -0.00000000000E+00 -0.50000000000E+03  0.50000000000E+03  0.00000000000E+00 0. -1.
         23    2    1    2    0    0 -0.78011941932E+02 -0.21800633141E+02  0.28670930225E+03  0.31147922579E+03  0.90862277174E+02 0.  0.
        -11    1    1    2    0    0 -0.85430850588E+02  0.16517628876E+02  0.17677744359E+03  0.19703179149E+03  0.00000000000E+00 0.  1.
         11    1    1    2    0    0  0.16344279252E+03  0.52830042653E+01 -0.46348674584E+03  0.49148898272E+03  0.00000000000E+00 0. -1.
        -15    1    3    3    0    0 -0.65085873106E+02 -0.55308915885E+02  0.19089395401E+03  0.20913848633E+03  0.17770000000E+01 0.  1.
         15    1    3    3    0    0 -0.12926068825E+02  0.33508282744E+02  0.95815348238E+02  0.10234073947E+03  0.17770000000E+01 0. -1.
</event>
<event>
 7    1  0.2288857E-006  0.4746108E+03  0.7546771E-02  0.9458484E-01
        -11   -1    0    0    0    0  0.00000000000E+00  0.00000000000E+00  0.50000000000E+03  0.50000000000E+03  0.00000000000E+00 0.  1.
         11   -1    0    0    0    0 -0.00000000000E+00 -0.00000000000E+00 -0.50000000000E+03  0.50000000000E+03  0.00000000000E+00 0. -1.
         23    2    1    2    0    0  0.13241521371E+03 -0.15555802694E+03  0.39918039472E+03  0.45785830851E+03  0.92504889477E+02 0.  0.
        -11    1    1    2    0    0 -0.34813975702E+02 -0.25012696172E+02  0.39198834694E+02  0.58087834486E+02  0.00000000000E+00 0.  1.
         11    1    1    2    0    0 -0.97601238012E+02  0.18057072311E+03 -0.43837922941E+03  0.48405385701E+03  0.00000000000E+00 0. -1.
        -15    1    3    3    0    0  0.12701184058E+03 -0.84270747906E+02  0.26042388681E+03  0.30175706313E+03  0.17770000000E+01 0.  1.
         15    1    3    3    0    0  0.54033731355E+01 -0.71287279031E+02  0.13875650790E+03  0.15610124537E+03  0.17770000000E+01 0. -1.
</event>
<event>
 7    1  0.2288857E-006  0.5325319E+03  0.7546771E-02  0.9329822E-01
        -11   -1    0    0    0    0  0.00000000000E+00  0.00000000000E+00  0.50000000000E+03  0.50000000000E+03  0.00000000000E+00 0.  1.
         11   -1    0    0    0    0 -0.00000000000E+00 -0.00000000000E+00 -0.50000000000E+03  0.50000000000E+03  0.00000000000E+00 0. -1.
         23    2    1    2    0    0  0.53415069411E+02  0.68542974893E+02  0.15476115496E+03  0.19914967551E+03  0.90323137257E+02 0.  0.
        -11    1    1    2    0    0  0.12328429637E+02 -0.13934487848E+03  0.30261318270E+03  0.33338224860E+03  0.00000000000E+00 0.  1.
         11    1    1    2    0    0 -0.65743499048E+02  0.70801903586E+02 -0.45737433767E+03  0.46746807589E+03  0.00000000000E+00 0. -1.
        -15    1    3    3    0    0  0.55273616317E+00  0.31910650107E+02  0.45573659968E+00  0.31968117436E+02  0.17770000000E+01 0.  1.
         15    1    3    3    0    0  0.52862333248E+02  0.36632324785E+02  0.15430541836E+03  0.16718155808E+03  0.17770000000E+01 0. -1.
</event>
<event>
 7    1  0.2288857E-006  0.5040367E+03  0.7546771E-02  0.9390822E-01
        -11   -1    0    0    0    0  0.00000000000E+00  0.00000000000E+00  0.50000000000E+03  0.50000000000E+03  0.00000000000E+00 0.  1.
         11   -1    0    0    0    0 -0.00000000000E+00 -0.00000000000E+00 -0.50000000000E+03  0.50000000000E+03  0.00000000000E+00 0. -1.
         23    2    1    2    0    0  0.98882684438E+02 -0.72645697282E+02  0.47157381991E+03  0.49596329293E+03  0.92425849698E+02 0.  0.
        -11    1    1    2    0    0 -0.39204421733E+02  0.30477396148E+02 -0.33477989793E+02  0.59888514424E+02  0.00000000000E+00 0.  1.
         11    1    1    2    0    0 -0.59678262705E+02  0.42168301134E+02 -0.43809583012E+03  0.44414819264E+03  0.00000000000E+00 0. -1.
        -15    1    3    3    0    0  0.99232558051E+02 -0.23453426439E+02  0.35656924739E+03  0.37086648501E+03  0.17770000000E+01 0.  1.
         15    1    3    3    0    0 -0.34987361324E+00 -0.49192270843E+02  0.11500457252E+03  0.12509680792E+03  0.17770000000E+01 0. -1.
</event>
<event>
 7    1  0.2288857E-006  0.3866693E+03  0.7546771E-02  0.9696630E-01
        -11   -1    0    0    0    0  0.00000000000E+00  0.00000000000E+00  0.50000000000E+03  0.50000000000E+03  0.00000000000E+00 0.  1.
         11   -1    0    0    0    0 -0.00000000000E+00 -0.00000000000E+00 -0.50000000000E+03  0.50000000000E+03  0.00000000000E+00 0.  1.
         23    2    1    2    0    0  0.14259473697E+02  0.43539538696E+02  0.17978222822E+03  0.20471819170E+03  0.86538225127E+02 0.  0.
        -11    1    1    2    0    0 -0.36777556107E+03 -0.81525063672E+02  0.37547983913E+02  0.37856974315E+03  0.00000000000E+00 0.  1.
         11    1    1    2    0    0  0.35351608738E+03  0.37985524976E+02 -0.21733021213E+03  0.41671206516E+03  0.00000000000E+00 0.  1.
        -15    1    3    3    0    0  0.49700189894E+02  0.16637355175E+02  0.82931545110E+02  0.98120891588E+02  0.17770000000E+01 0. -1.
         15    1    3    3    0    0 -0.35440716196E+02  0.26902183521E+02  0.96850683109E+02  0.10659730011E+03  0.17770000000E+01 0.  1.
</event>
<event>
 7    1  0.2288857E-006  0.5141477E+03  0.7546771E-02  0.9368698E-01
        -11   -1    0    0    0    0  0.00000000000E+00  0.00000000000E+00  0.50000000000E+03  0.50000000000E+03  0.00000000000E+00 0.  1.
         11   -1    0    0    0    0 -0.00000000000E+00 -0.00000000000E+00 -0.50000000000E+03  0.50000000000E+03  0.00000000000E+00 0. -1.
         23    2    1    2    0    0  0.49626667464E+02  0.30917351921E+01  0.31539732053E+03  0.33255616230E+03  0.92982613083E+02 0.  0.
        -11    1    1    2    0    0  0.29223572530E+02  0.90260389714E+02  0.15483714408E+03  0.18159156459E+03  0.00000000000E+00 0.  1.
         11    1    1    2    0    0 -0.78850239994E+02 -0.93352124906E+02 -0.47023446462E+03  0.48585227311E+03  0.00000000000E+00 0. -1.
        -15    1    3    3    0    0  0.74889037387E+02 -0.10126665892E+02  0.20401579206E+03  0.21756957145E+03  0.17770000000E+01 0. -1.
         15    1    3    3    0    0 -0.25262369924E+02  0.13218401084E+02  0.11138152848E+03  0.11498659086E+03  0.17770000000E+01 0.  1.
</event>
<event>
 7    1  0.2288857E-006  0.5199280E+03  0.7546771E-02  0.9356291E-01
        -11   -1    0    0    0    0  0.00000000000E+00  0.00000000000E+00  0.50000000000E+03  0.50000000000E+03  0.00000000000E+00 0. -1.
         11   -1    0    0    0    0 -0.00000000000E+00 -0.00000000000E+00 -0.50000000000E+03  0.50000000000E+03  0.00000000000E+00 0. -1.
         23    2    1    2    0    0  0.86652959597E+00 -0.12803624160E+02  0.94284093846E+02  0.12918510045E+03  0.87376290617E+02 0.  0.
        -11    1    1    2    0    0 -0.59619426005E+02  0.85267492291E+02  0.37663646239E+03  0.39074294108E+03  0.00000000000E+00 0. -1.
         11    1    1    2    0    0  0.58752896409E+02 -0.72463868131E+02 -0.47092055624E+03  0.48007195847E+03  0.00000000000E+00 0. -1.
        -15    1    3    3    0    0  0.20856889293E+02 -0.31990675922E+01  0.10310072835E+03  0.10525284689E+03  0.17770000000E+01 0.  1.
         15    1    3    3    0    0 -0.19990359697E+02 -0.96045565677E+01 -0.88166345003E+01  0.23932253562E+02  0.17770000000E+01 0. -1.
</event>
<event>
 7    1  0.2288857E-006  0.4477740E+03  0.7546771E-02  0.9524906E-01
        -11   -1    0    0    0    0  0.00000000000E+00  0.00000000000E+00  0.50000000000E+03  0.50000000000E+03  0.00000000000E+00 0.  1.
         11   -1    0    0    0    0 -0.00000000000E+00 -0.00000000000E+00 -0.50000000000E+03  0.50000000000E+03  0.00000000000E+00 0. -1.
         23    2    1    2    0    0  0.14525180517E+03  0.24515730680E+03  0.33753470583E+03  0.45141462574E+03  0.92980076930E+02 0.  0.
        -11    1    1    2    0    0 -0.10075043996E+03  0.37950999048E+02 -0.24852003104E+01  0.10768985886E+03  0.00000000000E+00 0.  1.
         11    1    1    2    0    0 -0.44501365206E+02 -0.28310830585E+03 -0.33504950552E+03  0.44089551540E+03  0.00000000000E+00 0. -1.
        -15    1    3    3    0    0  0.23264402201E+02 -0.13849967713E+00  0.13011201694E+02  0.26715177155E+02  0.17770000000E+01 0. -1.
         15    1    3    3    0    0  0.12198740297E+03  0.24529580648E+03  0.32452350414E+03  0.42469944858E+03  0.17770000000E+01 0.  1.
</event>
<event>
 7    1  0.2288857E-006  0.3696833E+03  0.7546771E-02  0.9750478E-01
        -11   -1    0    0    0    0  0.00000000000E+00  0.00000000000E+00  0.50000000000E+03  0.50000000000E+03  0.00000000000E+00 0. -1.
         11   -1    0    0    0    0 -0.00000000000E+00 -0.00000000000E+00 -0.50000000000E+03  0.50000000000E+03  0.00000000000E+00 0. -1.
         23    2    1    2    0    0  0.26945177623E+03  0.33852904478E+02 -0.20153384307E+03  0.35233887427E+03  0.98876253811E+02 0.  0.
        -11    1    1    2    0    0 -0.12857680065E+03 -0.11595317015E+03  0.37289001431E+03  0.41112539949E+03  0.00000000000E+00 0. -1.
         11    1    1    2    0    0 -0.14087497558E+03  0.82100265670E+02 -0.17135617124E+03  0.23653572624E+03  0.00000000000E+00 0. -1.
        -15    1    3    3    0    0  0.36030271461E+02  0.97106410902E+01  0.74576116058E+01  0.38095284640E+02  0.17770000000E+01 0.  1.
         15    1    3    3    0    0  0.23342150477E+03  0.24142263388E+02 -0.20899145468E+03  0.31424358963E+03  0.17770000000E+01 0. -1.
</event>
<event>
 7    1  0.2288857E-006  0.5218439E+03  0.7546771E-02  0.9352217E-01
        -11   -1    0    0    0    0  0.00000000000E+00  0.00000000000E+00  0.50000000000E+03  0.50000000000E+03  0.00000000000E+00 0.  1.
         11   -1    0    0    0    0 -0.00000000000E+00 -0.00000000000E+00 -0.50000000000E+03  0.50000000000E+03  0.00000000000E+00 0. -1.
         23    2    1    2    0    0 -0.81472989481E+01  0.10123443239E+02 -0.49962643622E+02  0.91791958829E+02  0.75898849562E+02 0.  0.
        -11    1    1    2    0    0  0.57423290172E+02  0.72266182169E+02  0.46916247096E+03  0.47815610369E+03  0.00000000000E+00 0.  1.
         11    1    1    2    0    0 -0.49275991224E+02 -0.82389625407E+02 -0.41919982734E+03  0.43005193748E+03  0.00000000000E+00 0. -1.
        -15    1    3    3    0    0  0.18943351963E+02 -0.79575238717E+01  0.10461873312E+02  0.23125338743E+02  0.17770000000E+01 0. -1.
         15    1    3    3    0    0 -0.27090650911E+02  0.18080967111E+02 -0.60424516934E+02  0.68666620087E+02  0.17770000000E+01 0.  1.
</event>
<event>
 7    1  0.2288857E-006  0.4804580E+03  0.7546771E-02  0.9444630E-01
        -11   -1    0    0    0    0  0.00000000000E+00  0.00000000000E+00  0.50000000000E+03  0.50000000000E+03  0.00000000000E+00 0.  1.
         11   -1    0    0    0    0 -0.00000000000E+00 -0.00000000000E+00 -0.50000000000E+03  0.50000000000E+03  0.00000000000E+00 0. -1.
         23    2    1    2    0    0  0.11202629633E+03  0.94789878303E+02  0.45260944646E+03  0.48392297781E+03  0.88267351445E+02 0.  0.
        -11    1    1    2    0    0 -0.89307742034E+01 -0.45160533993E+02  0.31805029982E+01  0.46144860577E+02  0.00000000000E+00 0.  1.
         11    1    1    2    0    0 -0.10309552212E+03 -0.49629344310E+02 -0.45578994945E+03  0.46993216162E+03  0.00000000000E+00 0. -1.
        -15    1    3    3    0    0  0.59853449990E+02  0.24737834776E+02  0.89731090315E+02  0.11067620450E+03  0.17770000000E+01 0.  1.
         15    1    3    3    0    0  0.52172846336E+02  0.70052043527E+02  0.36287835614E+03  0.37324677330E+03  0.17770000000E+01 0. -1.
</event>
<event>
 7    1  0.2288857E-006  0.3503269E+03  0.7546771E-02  0.9815749E-01
        -11   -1    0    0    0    0  0.00000000000E+00  0.00000000000E+00  0.50000000000E+03  0.50000000000E+03  0.00000000000E+00 0.  1.
         11   -1    0    0    0    0 -0.00000000000E+00 -0.00000000000E+00 -0.50000000000E+03  0.50000000000E+03  0.00000000000E+00 0.  1.
         23    2    1    2    0    0 -0.11861495299E+03  0.18029079268E+03  0.10842729870E+03  0.25888835878E+03  0.93233181913E+02 0.  0.
        -11    1    1    2    0    0  0.65644523436E+02 -0.11349024490E+03  0.29814414271E+03  0.32569797201E+03  0.00000000000E+00 0.  1.
         11    1    1    2    0    0  0.52970429559E+02 -0.66800547785E+02 -0.40657144141E+03  0.41541366920E+03  0.00000000000E+00 0.  1.
        -15    1    3    3    0    0 -0.55700063127E+02  0.52814913044E+02  0.85448306936E+02  0.11487594596E+03  0.17770000000E+01 0. -1.
         15    1    3    3    0    0 -0.62914889867E+02  0.12747587964E+03  0.22978991767E+02  0.14401241283E+03  0.17770000000E+01 0.  1.
</event>
<event>
 7    1  0.2288857E-006  0.5192199E+03  0.7546771E-02  0.9357802E-01
        -11   -1    0    0    0    0  0.00000000000E+00  0.00000000000E+00  0.50000000000E+03  0.50000000000E+03  0.00000000000E+00 0.  1.
         11   -1    0    0    0    0 -0.00000000000E+00 -0.00000000000E+00 -0.50000000000E+03  0.50000000000E+03  0.00000000000E+00 0. -1.
         23    2    1    2    0    0 -0.58571072033E+02  0.72199974822E+02  0.28186251601E+03  0.31017384546E+03  0.90099554006E+02 0.  0.
        -11    1    1    2    0    0 -0.66944456423E+02 -0.77568765687E+02  0.18221351664E+03  0.20904602197E+03  0.00000000000E+00 0.  1.
         11    1    1    2    0    0  0.12551552846E+03  0.53687908647E+01 -0.46407603265E+03  0.48078013257E+03  0.00000000000E+00 0. -1.
        -15    1    3    3    0    0 -0.52388317447E+02  0.84546208237E+02  0.27866678301E+03  0.29589006542E+03  0.17770000000E+01 0.  1.
         15    1    3    3    0    0 -0.61827545859E+01 -0.12346233415E+02  0.31957330003E+01  0.14283780039E+02  0.17770000000E+01 0. -1.
</event>
<event>
 7    1  0.2288857E-006  0.5232205E+03  0.7546771E-02  0.9349300E-01
        -11   -1    0    0    0    0  0.00000000000E+00  0.00000000000E+00  0.50000000000E+03  0.50000000000E+03  0.00000000000E+00 0.  1.
         11   -1    0    0    0    0 -0.00000000000E+00 -0.00000000000E+00 -0.50000000000E+03  0.50000000000E+03  0.00000000000E+00 0. -1.
         23    2    1    2    0    0  0.65614117126E+02  0.29972762476E+02 -0.57223444010E+02  0.12444901555E+03  0.83722494416E+02 0.  0.
        -11    1    1    2    0    0 -0.14006542522E+03 -0.15815389864E+03  0.42741978393E+03  0.47677945708E+03  0.00000000000E+00 0.  1.
         11    1    1    2    0    0  0.74451308090E+02  0.12818113617E+03 -0.37019633992E+03  0.39877152737E+03  0.00000000000E+00 0. -1.
        -15    1    3    3    0    0  0.27170585358E+02  0.17397557742E+02  0.19470085560E+02  0.37724762223E+02  0.17770000000E+01 0. -1.
         15    1    3    3    0    0  0.38443531768E+02  0.12575204734E+02 -0.76693529570E+02  0.86724253330E+02  0.17770000000E+01 0.  1.
</event>
<event>
 7    1  0.3175953E-006  0.5131766E+03  0.7546771E-02  0.9370799E-01
        -11   -1    0    0    0    0  0.00000000000E+00  0.00000000000E+00  0.50000000000E+03  0.50000000000E+03  0.00000000000E+00 0. -1.
         11   -1    0    0    0    0 -0.00000000000E+00 -0.00000000000E+00 -0.50000000000E+03  0.50000000000E+03  0.00000000000E+00 0. -1.
         23    2    1    2    0    0 -0.41603255669E+02  0.90645438061E+02 -0.20153117963E+03  0.24302468699E+03  0.92188696710E+02 0.  0.
        -11    1    1    2    0    0  0.16265067305E+03 -0.24141499092E+03  0.39020582211E+03  0.48682340011E+03  0.00000000000E+00 0. -1.
         11    1    1    2    0    0 -0.12104741738E+03  0.15076955286E+03 -0.18867464249E+03  0.27015191290E+03  0.00000000000E+00 0. -1.
        -15    1    3    3    0    0  0.19297725398E+02  0.60814561145E+02 -0.12768118943E+03  0.14274612750E+03  0.17770000000E+01 0.  1.
         15    1    3    3    0    0 -0.60900981067E+02  0.29830876916E+02 -0.73849990198E+02  0.10027855949E+03  0.17770000000E+01 0. -1.
</event>
<event>
 7    1  0.2288857E-006  0.5187298E+03  0.7546771E-02  0.9358849E-01
        -11   -1    0    0    0    0  0.00000000000E+00  0.00000000000E+00  0.50000000000E+03  0.50000000000E+03  0.00000000000E+00 0. -1.
         11   -1    0    0    0    0 -0.00000000000E+00 -0.00000000000E+00 -0.50000000000E+03  0.50000000000E+03  0.00000000000E+00 0.  1.
         23    2    1    2    0    0  0.46021041761E+02  0.43232526316E+02  0.18423641611E+03  0.21499227441E+03  0.91058406644E+02 0.  0.
        -11    1    1    2    0    0  0.16219879036E+03  0.16620318683E+03  0.19576649749E+03  0.30373749924E+03  0.00000000000E+00 0. -1.
         11    1    1    2    0    0 -0.20821983212E+03 -0.20943571314E+03 -0.38000291360E+03  0.48127022635E+03  0.00000000000E+00 0.  1.
        -15    1    3    3    0    0 -0.26435124056E+02  0.17362328029E+02  0.74560622323E+02  0.81010557020E+02  0.17770000000E+01 0. -1.
         15    1    3    3    0    0  0.72456165817E+02  0.25870198287E+02  0.10967579378E+03  0.13398171739E+03  0.17770000000E+01 0.  1.
</event>
<event>
 7    1  0.2288857E-006  0.4618845E+03  0.7546771E-02  0.9489383E-01
        -11   -1    0    0    0    0  0.00000000000E+00  0.00000000000E+00  0.50000000000E+03  0.50000000000E+03  0.00000000000E+00 0. -1.
         11   -1    0    0    0    0 -0.00000000000E+00 -0.00000000000E+00 -0.50000000000E+03  0.50000000000E+03  0.00000000000E+00 0.  1.
         23    2    1    2    0    0  0.11887658911E+03 -0.10746342229E+03  0.40675711668E+03  0.44681244037E+03  0.92249522141E+02 0.  0.
        -11    1    1    2    0    0  0.50286472314E+02  0.57097030968E+02  0.30254414606E+02  0.81878750884E+02  0.00000000000E+00 0. -1.
         11    1    1    2    0    0 -0.16916306142E+03  0.50366391318E+02 -0.43701153129E+03  0.47130880874E+03  0.00000000000E+00 0.  1.
        -15    1    3    3    0    0  0.10243543020E+03 -0.12350837591E+03  0.33507612215E+03  0.37151918072E+03  0.17770000000E+01 0.  1.
         15    1    3    3    0    0  0.16441158903E+02  0.16044953625E+02  0.71680994530E+02  0.75293259650E+02  0.17770000000E+01 0. -1.
</event>
<event>
 7    1  0.2288857E-006  0.5166221E+03  0.7546771E-02  0.9363366E-01
        -11   -1    0    0    0    0  0.00000000000E+00  0.00000000000E+00  0.50000000000E+03  0.50000000000E+03  0.00000000000E+00 0. -1.
         11   -1    0    0    0    0 -0.00000000000E+00 -0.00000000000E+00 -0.50000000000E+03  0.50000000000E+03  0.00000000000E+00 0.  1.
         23    2    1    2    0    0 -0.92196292944E+01 -0.18396099052E+01  0.19647194487E+03  0.21490795529E+03  0.86578394515E+02 0.  0.
        -11    1    1    2    0    0  0.43395454958E+02 -0.13707607542E+03  0.26525160236E+03  0.30171415035E+03  0.00000000000E+00 0. -1.
         11    1    1    2    0    0 -0.34175825663E+02  0.13891568533E+03 -0.46172354723E+03  0.48337789436E+03  0.00000000000E+00 0.  1.
        -15    1    3    3    0    0 -0.58595515654E+01  0.36306283976E+02  0.42477044073E+02  0.56213322290E+02  0.17770000000E+01 0.  1.
         15    1    3    3    0    0 -0.33600777291E+01 -0.38145893881E+02  0.15399490080E+03  0.15869463300E+03  0.17770000000E+01 0. -1.
</event>
<event>
 7    1  0.2288857E-006  0.4462864E+03  0.7546771E-02  0.9528733E-01
        -11   -1    0    0    0    0  0.00000000000E+00  0.00000000000E+00  0.50000000000E+03  0.50000000000E+03  0.00000000000E+00 0. -1.
         11   -1    0    0    0    0 -0.00000000000E+00 -0.00000000000E+00 -0.50000000000E+03  0.50000000000E+03  0.00000000000E+00 0.  1.
         23    2    1    2    0    0  0.71518186760E+02 -0.32541714866E+03 -0.25171536763E+03  0.42707464135E+03  0.89559763878E+02 0.  0.
        -11    1    1    2    0    0 -0.83937120135E+02  0.28701963242E+03  0.35374325758E+03  0.46320621953E+03  0.00000000000E+00 0. -1.
         11    1    1    2    0    0  0.12418933375E+02  0.38397516242E+02 -0.10202788995E+03  0.10971913912E+03  0.00000000000E+00 0.  1.
        -15    1    3    3    0    0  0.26543002178E+02 -0.27309892334E+03 -0.18390646767E+03  0.33032150925E+03  0.17770000000E+01 0.  1.
         15    1    3    3    0    0  0.44975184582E+02 -0.52318225322E+02 -0.67808899957E+02  0.96753132101E+02  0.17770000000E+01 0. -1.
</event>
<event>
 7    1  0.2288857E-006  0.5114471E+03  0.7546771E-02  0.9374554E-01
        -11   -1    0    0    0    0  0.00000000000E+00  0.00000000000E+00  0.50000000000E+03  0.50000000000E+03  0.00000000000E+00 0.  1.
         11   -1    0    0    0    0 -0.00000000000E+00 -0.00000000000E+00 -0.50000000000E+03  0.50000000000E+03  0.00000000000E+00 0. -1.
         23    2    1    2    0    0  0.24887838881E+02 -0.15215401244E+03  0.37935091373E+03  0.41803568737E+03  0.84121769684E+02 0.  0.
        -11    1    1    2    0    0  0.17147888032E+02  0.21005930088E+02  0.89389002697E+02  0.93411417750E+02  0.00000000000E+00 0.  1.
         11    1    1    2    0    0 -0.42035726912E+02  0.13114808235E+03 -0.46873991643E+03  0.48855289488E+03  0.00000000000E+00 0. -1.
        -15    1    3    3    0    0  0.20284743949E+02 -0.51325718207E+01  0.10146476806E+03  0.10361501347E+03  0.17770000000E+01 0.  1.
         15    1    3    3    0    0  0.46030949322E+01 -0.14702144062E+03  0.27788614568E+03  0.31442067390E+03  0.17770000000E+01 0. -1.
</event>
<event>
 7    1  0.2288857E-006  0.3344643E+03  0.7546771E-02  0.9872705E-01
        -11   -1    0    0    0    0  0.00000000000E+00  0.00000000000E+00  0.50000000000E+03  0.50000000000E+03  0.00000000000E+00 0.  1.
         11   -1    0    0    0    0 -0.00000000000E+00 -0.00000000000E+00 -0.50000000000E+03  0.50000000000E+03  0.00000000000E+00 0. -1.
         23    2    1    2    0    0  0.36219467257E+02  0.21518332317E+03  0.19350814123E+03  0.30509594649E+03  0.89567982360E+02 0.  0.
        -11    1    1    2    0    0  0.16002133323E+03 -0.16836601613E+03  0.16403990827E+03  0.28436426284E+03  0.00000000000E+00 0.  1.
         11    1    1    2    0    0 -0.19624080049E+03 -0.46817307040E+02 -0.35754804950E+03  0.41053979067E+03  0.00000000000E+00 0. -1.
        -15    1    3    3    0    0  0.32815299638E+02  0.30643132590E+02  0.69382905662E+02  0.82661906538E+02  0.17770000000E+01 0.  1.
         15    1    3    3    0    0  0.34041676189E+01  0.18454019058E+03  0.12412523557E+03  0.22243403995E+03  0.17770000000E+01 0. -1.
</event>
<event>
 7    1  0.2288857E-006  0.5204541E+03  0.7546771E-02  0.9355170E-01
        -11   -1    0    0    0    0  0.00000000000E+00  0.00000000000E+00  0.50000000000E+03  0.50000000000E+03  0.00000000000E+00 0.  1.
         11   -1    0    0    0    0 -0.00000000000E+00 -0.00000000000E+00 -0.50000000000E+03  0.50000000000E+03  0.00000000000E+00 0. -1.
         23    2    1    2    0    0  0.17497619400E+01  0.49391721636E+01  0.40406083727E+03  0.41364633070E+03  0.88377992702E+02 0.  0.
        -11    1    1    2    0    0 -0.81303836667E+02 -0.77285499282E+01  0.68832033698E+02  0.10680773944E+03  0.00000000000E+00 0.  1.
         11    1    1    2    0    0  0.79554074727E+02  0.27893777646E+01 -0.47289287097E+03  0.47954592986E+03  0.00000000000E+00 0. -1.
        -15    1    3    3    0    0 -0.10012868477E+02  0.45280028107E+02  0.20391665336E+03  0.20913081487E+03  0.17770000000E+01 0. -1.
         15    1    3    3    0    0  0.11762630417E+02 -0.40340855943E+02  0.20014418391E+03  0.20451551583E+03  0.17770000000E+01 0.  1.
</event>
<event>
 7    1  0.2288857E-006  0.4786960E+03  0.7546771E-02  0.9448783E-01
        -11   -1    0    0    0    0  0.00000000000E+00  0.00000000000E+00  0.50000000000E+03  0.50000000000E+03  0.00000000000E+00 0.  1.
         11   -1    0    0    0    0 -0.00000000000E+00 -0.00000000000E+00 -0.50000000000E+03  0.50000000000E+03  0.00000000000E+00 0. -1.
         23    2    1    2    0    0 -0.22861526364E+03 -0.60249370477E+02  0.41994958373E+03  0.49108151905E+03  0.94384744891E+02 0.  0.
        -11    1    1    2    0    0  0.27871855404E+02 -0.37408944801E+02 -0.19734198689E+02  0.50652819000E+02  0.00000000000E+00 0.  1.
         11    1    1    2    0    0  0.20074340823E+03  0.97658315278E+02 -0.40021538504E+03  0.45826566195E+03  0.00000000000E+00 0. -1.
        -15    1    3    3    0    0 -0.37489023718E+02  0.24463147741E+02  0.60960858024E+02  0.75652207085E+02  0.17770000000E+01 0. -1.
         15    1    3    3    0    0 -0.19112623992E+03 -0.84712518218E+02  0.35898872571E+03  0.41542931197E+03  0.17770000000E+01 0.  1.
</event>
<event>
 7    1  0.2288857E-006  0.4461458E+03  0.7546771E-02  0.9529095E-01
        -11   -1    0    0    0    0  0.00000000000E+00  0.00000000000E+00  0.50000000000E+03  0.50000000000E+03  0.00000000000E+00 0.  1.
         11   -1    0    0    0    0 -0.00000000000E+00 -0.00000000000E+00 -0.50000000000E+03  0.50000000000E+03  0.00000000000E+00 0.  1.
         23    2    1    2    0    0 -0.45484215484E+02  0.14012114429E+03  0.41660527934E+03  0.45168866300E+03  0.93594554174E+02 0.  0.
        -11    1    1    2    0    0 -0.39735786706E+02 -0.10275570535E+03  0.10981178894E+02  0.11071699967E+03  0.00000000000E+00 0.  1.
         11    1    1    2    0    0  0.85220002190E+02 -0.37365438948E+02 -0.42758645823E+03  0.43759433733E+03  0.00000000000E+00 0.  1.
        -15    1    3    3    0    0 -0.40162430019E+02  0.46116539676E+02  0.72171619623E+02  0.94613193714E+02  0.17770000000E+01 0. -1.
         15    1    3    3    0    0 -0.53217854644E+01  0.94004604618E+02  0.34443365972E+03  0.35707546928E+03  0.17770000000E+01 0.  1.
</event>
<event>
 7    1  0.2792786E-006  0.4867940E+03  0.7546771E-02  0.9429854E-01
        -11   -1    0    0    0    0  0.00000000000E+00  0.00000000000E+00  0.50000000000E+03  0.50000000000E+03  0.00000000000E+00 0. -1.
         11   -1    0    0    0    0 -0.00000000000E+00 -0.00000000000E+00 -0.50000000000E+03  0.50000000000E+03  0.00000000000E+00 0.  1.
         23    2    1    2    0    0  0.11103782657E+03  0.40623335272E+02 -0.44430976078E+03  0.47018328075E+03  0.98394612002E+02 0.  0.
        -11    1    1    2    0    0 -0.11885690759E+03 -0.54381473272E+02  0.47641686681E+03  0.49402159882E+03  0.00000000000E+00 0. -1.
         11    1    1    2    0    0  0.78190810233E+01  0.13758137999E+02 -0.32107106026E+02  0.35795120431E+02  0.00000000000E+00 0.  1.
        -15    1    3    3    0    0  0.59853339869E+02 -0.25362302130E+01 -0.81058631963E+02  0.10080929670E+03  0.17770000000E+01 0. -1.
         15    1    3    3    0    0  0.51184486702E+02  0.43159565485E+02 -0.36325112882E+03  0.36937398405E+03  0.17770000000E+01 0.  1.
</event>
<event>
 7    1  0.2288857E-006  0.5086663E+03  0.7546771E-02  0.9380624E-01
        -11   -1    0    0    0    0  0.00000000000E+00  0.00000000000E+00  0.50000000000E+03  0.50000000000E+03  0.00000000000E+00 0.  1.
         11   -1    0    0    0    0 -0.00000000000E+00 -0.00000000000E+00 -0.50000000000E+03  0.50000000000E+03  0.00000000000E+00 0. -1.
         23    2    1    2    0    0  0.12098532518E+03  0.11083853957E+03 -0.30059195662E+03  0.35455587688E+03  0.91824368655E+02 0.  0.
        -11    1    1    2    0    0 -0.16759622160E+03 -0.20335522778E+03  0.41468894399E+03  0.49133365693E+03  0.00000000000E+00 0.  1.
         11    1    1    2    0    0  0.46610896426E+02  0.92516688214E+02 -0.11409698737E+03  0.15411046619E+03  0.00000000000E+00 0. -1.
        -15    1    3    3    0    0  0.95026344711E+01  0.67838624641E+02 -0.11039452555E+03  0.12993262891E+03  0.17770000000E+01 0. -1.
         15    1    3    3    0    0  0.11148269071E+03  0.42999914925E+02 -0.19019743107E+03  0.22462324796E+03  0.17770000000E+01 0.  1.
</event>
<event>
 7    1  0.2288857E-006  0.3528744E+03  0.7546771E-02  0.9806904E-01
        -11   -1    0    0    0    0  0.00000000000E+00  0.00000000000E+00  0.50000000000E+03  0.50000000000E+03  0.00000000000E+00 0.  1.
         11   -1    0    0    0    0 -0.00000000000E+00 -0.00000000000E+00 -0.50000000000E+03  0.50000000000E+03  0.00000000000E+00 0.  1.
         23    2    1    2    0    0 -0.17853459889E+03 -0.17976908677E+02  0.31007359643E+03  0.36976423604E+03  0.91554261557E+02 0.  0.
        -11    1    1    2    0    0  0.24705388544E+03  0.59659983655E+02  0.51970649725E+02  0.25941450305E+03  0.00000000000E+00 0.  1.
         11    1    1    2    0    0 -0.68519286554E+02 -0.41683074978E+02 -0.36204424615E+03  0.37082126091E+03  0.00000000000E+00 0.  1.
        -15    1    3    3    0    0 -0.11102361698E+03  0.34107089922E+02  0.17937591193E+03  0.21370169073E+03  0.17770000000E+01 0.  1.
         15    1    3    3    0    0 -0.67510981907E+02 -0.52083998598E+02  0.13069768449E+03  0.15606254531E+03  0.17770000000E+01 0. -1.
</event>
<event>
 7    1  0.2288857E-006  0.5216493E+03  0.7546771E-02  0.9352629E-01
        -11   -1    0    0    0    0  0.00000000000E+00  0.00000000000E+00  0.50000000000E+03  0.50000000000E+03  0.00000000000E+00 0. -1.
         11   -1    0    0    0    0 -0.00000000000E+00 -0.00000000000E+00 -0.50000000000E+03  0.50000000000E+03  0.00000000000E+00 0. -1.
         23    2    1    2    0    0  0.12994728836E+03  0.10134791693E+03 -0.40134394914E+02  0.19264499307E+03  0.91343449049E+02 0.  0.
        -11    1    1    2    0    0 -0.35598201383E+03 -0.17430315736E+03  0.26779575870E+03  0.47835065926E+03  0.00000000000E+00 0. -1.
         11    1    1    2    0    0  0.22603472547E+03  0.72955240432E+02 -0.22766136379E+03  0.32900434767E+03  0.00000000000E+00 0. -1.
        -15    1    3    3    0    0  0.13701633303E+03  0.68428397083E+02 -0.23187567458E+02  0.15490881853E+03  0.17770000000E+01 0.  1.
         15    1    3    3    0    0 -0.70690446745E+01  0.32919519842E+02 -0.16946827456E+02  0.37736174542E+02  0.17770000000E+01 0. -1.
</event>
<event>
 7    1  0.2288857E-006  0.5292432E+03  0.7546771E-02  0.9336653E-01
        -11   -1    0    0    0    0  0.00000000000E+00  0.00000000000E+00  0.50000000000E+03  0.50000000000E+03  0.00000000000E+00 0.  1.
         11   -1    0    0    0    0 -0.00000000000E+00 -0.00000000000E+00 -0.50000000000E+03  0.50000000000E+03  0.00000000000E+00 0. -1.
         23    2    1    2    0    0  0.31359643521E+02 -0.10920537478E+03  0.15733658740E+03  0.21439021988E+03  0.91099525386E+02 0.  0.
        -11    1    1    2    0    0 -0.89317101585E+02  0.20047422348E+02  0.30125230012E+03  0.31485296903E+03  0.00000000000E+00 0.  1.
         11    1    1    2    0    0  0.57957458064E+02  0.89157952433E+02 -0.45858888752E+03  0.47075681109E+03  0.00000000000E+00 0. -1.
        -15    1    3    3    0    0  0.40111320889E+02 -0.88586481252E+02  0.16424512508E+03  0.19088242864E+03  0.17770000000E+01 0.  1.
         15    1    3    3    0    0 -0.87516773679E+01 -0.20618893528E+02 -0.69085376815E+01  0.23507791240E+02  0.17770000000E+01 0. -1.
</event>
<event>
 7    1  0.2288857E-006  0.4002557E+03  0.7546771E-02  0.9655646E-01
        -11   -1    0    0    0    0  0.00000000000E+00  0.00000000000E+00  0.50000000000E+03  0.50000000000E+03  0.00000000000E+00 0. -1.
         11   -1    0    0    0    0 -0.00000000000E+00 -0.00000000000E+00 -0.50000000000E+03  0.50000000000E+03  0.00000000000E+00 0.  1.
         23    2    1    2    0    0 -0.96211244013E+02 -0.11506219767E+03  0.53150785690E+02  0.18382644051E+03  0.92039347051E+02 0.  0.
        -11    1    1    2    0    0  0.24691505123E+03  0.12507198750E+03  0.31435467535E+03  0.41884234086E+03  0.00000000000E+00 0. -1.
         11    1    1    2    0    0 -0.15070380722E+03 -0.10009789830E+02 -0.36750546104E+03  0.39733121863E+03  0.00000000000E+00 0.  1.
        -15    1    3    3    0    0 -0.14635560675E+02 -0.67804105887E+02  0.56488910332E+02  0.89474863123E+02  0.17770000000E+01 0.  1.
         15    1    3    3    0    0 -0.81575683338E+02 -0.47258091783E+02 -0.33381246422E+01  0.94351577391E+02  0.17770000000E+01 0. -1.
</event>
<event>
 7    1  0.2288857E-006  0.3513786E+03  0.7546771E-02  0.9812088E-01
        -11   -1    0    0    0    0  0.00000000000E+00  0.00000000000E+00  0.50000000000E+03  0.50000000000E+03  0.00000000000E+00 0.  1.
         11   -1    0    0    0    0 -0.00000000000E+00 -0.00000000000E+00 -0.50000000000E+03  0.50000000000E+03  0.00000000000E+00 0. -1.
         23    2    1    2    0    0  0.16206176043E+03  0.16198360347E+03 -0.14302302905E+03  0.28610379967E+03  0.94324415514E+02 0.  0.
        -11    1    1    2    0    0 -0.23098690216E+03 -0.76117370404E+02  0.38081417863E+03  0.45184979992E+03  0.00000000000E+00 0.  1.
         11    1    1    2    0    0  0.68925141723E+02 -0.85866233066E+02 -0.23779114958E+03  0.26204640040E+03  0.00000000000E+00 0. -1.
        -15    1    3    3    0    0 -0.10465437418E+02  0.16340241303E+02 -0.13161561890E+01  0.19529947832E+02  0.17770000000E+01 0.  1.
         15    1    3    3    0    0  0.17252719785E+03  0.14564336217E+03 -0.14170687286E+03  0.26657385184E+03  0.17770000000E+01 0. -1.
</event>
<event>
 7    1  0.2288857E-006  0.4213949E+03  0.7546771E-02  0.9595216E-01
        -11   -1    0    0    0    0  0.00000000000E+00  0.00000000000E+00  0.50000000000E+03  0.50000000000E+03  0.00000000000E+00 0.  1.
         11   -1    0    0    0    0 -0.00000000000E+00 -0.00000000000E+00 -0.50000000000E+03  0.50000000000E+03  0.00000000000E+00 0. -1.
         23    2    1    2    0    0 -0.49829287692E+02  0.79219866492E+02  0.69943436788E+02  0.14915021994E+03  0.92708999567E+02 0.  0.
        -11    1    1    2    0    0  0.15686151739E+03 -0.26024026350E+01  0.36454018428E+03  0.39686503259E+03  0.00000000000E+00 0.  1.
         11    1    1    2    0    0 -0.10703222970E+03 -0.76617463857E+02 -0.43448362106E+03  0.45398474747E+03  0.00000000000E+00 0. -1.
        -15    1    3    3    0    0 -0.37867317084E+02  0.57962901543E+02  0.92719311408E+02  0.11573098157E+03  0.17770000000E+01 0.  1.
         15    1    3    3    0    0 -0.11961970608E+02  0.21256964949E+02 -0.22775874620E+02  0.33419238373E+02  0.17770000000E+01 0. -1.
</event>
<event>
 7    1  0.2288857E-006  0.4382554E+03  0.7546771E-02  0.9549667E-01
        -11   -1    0    0    0    0  0.00000000000E+00  0.00000000000E+00  0.50000000000E+03  0.50000000000E+03  0.00000000000E+00 0.  1.
         11   -1    0    0    0    0 -0.00000000000E+00 -0.00000000000E+00 -0.50000000000E+03  0.50000000000E+03  0.00000000000E+00 0.  1.
         23    2    1    2    0    0  0.86834544372E+02 -0.25226507533E+03  0.35739711466E+03  0.45509050716E+03  0.90535991828E+02 0.  0.
        -11    1    1    2    0    0 -0.39207425822E+02  0.11196336272E+03  0.36459104340E+02  0.12410593507E+03  0.00000000000E+00 0.  1.
         11    1    1    2    0    0 -0.47627118550E+02  0.14030171262E+03 -0.39385621900E+03  0.42080355776E+03  0.00000000000E+00 0.  1.
        -15    1    3    3    0    0  0.10110143181E+03 -0.24003756517E+03  0.34586479875E+03  0.43297245750E+03  0.17770000000E+01 0.  1.
         15    1    3    3    0    0 -0.14266887437E+02 -0.12227510162E+02  0.11532315907E+02  0.22118049667E+02  0.17770000000E+01 0. -1.
</event>
<event>
 7    1  0.2288857E-006  0.5061351E+03  0.7546771E-02  0.9386186E-01
        -11   -1    0    0    0    0  0.00000000000E+00  0.00000000000E+00  0.50000000000E+03  0.50000000000E+03  0.00000000000E+00 0.  1.
         11   -1    0    0    0    0 -0.00000000000E+00 -0.00000000000E+00 -0.50000000000E+03  0.50000000000E+03  0.00000000000E+00 0.  1.
         23    2    1    2    0    0 -0.51167502848E+02 -0.29348408144E+02  0.48212792467E+03  0.49386494098E+03  0.89307344468E+02 0.  0.
        -11    1    1    2    0    0 -0.30523450175E+02  0.16353148774E+02 -0.27991318298E+02  0.44526625579E+02  0.00000000000E+00 0.  1.
         11    1    1    2    0    0  0.81690953023E+02  0.12995259371E+02 -0.45413660637E+03  0.46160843344E+03  0.00000000000E+00 0.  1.
        -15    1    3    3    0    0 -0.40799403416E+02  0.25364832579E+02  0.28451627166E+03  0.28854918579E+03  0.17770000000E+01 0.  1.
         15    1    3    3    0    0 -0.10368099432E+02 -0.54713240723E+02  0.19761165301E+03  0.20531575520E+03  0.17770000000E+01 0. -1.
</event>
<event>
 7    1  0.2288857E-006  0.4047343E+03  0.7546771E-02  0.9642515E-01
        -11   -1    0    0    0    0  0.00000000000E+00  0.00000000000E+00  0.50000000000E+03  0.50000000000E+03  0.00000000000E+00 0.  1.
         11   -1    0    0    0    0 -0.00000000000E+00 -0.00000000000E+00 -0.50000000000E+03  0.50000000000E+03  0.00000000000E+00 0. -1.
         23    2    1    2    0    0 -0.14290459547E+03 -0.19301386276E+03  0.30102277320E+03  0.39550825573E+03  0.90199754661E+02 0.  0.
        -11    1    1    2    0    0  0.90854672529E+02  0.10937741645E+03  0.11129625932E+03  0.18056812590E+03  0.00000000000E+00 0.  1.
         11    1    1    2    0    0  0.52049922946E+02  0.83636446311E+02 -0.41231903252E+03  0.42392361837E+03  0.00000000000E+00 0. -1.
        -15    1    3    3    0    0 -0.12352431208E+03 -0.19661395439E+03  0.29370348580E+03  0.37440646100E+03  0.17770000000E+01 0.  1.
         15    1    3    3    0    0 -0.19380283390E+02  0.36000916258E+01  0.73192873995E+01  0.21101794734E+02  0.17770000000E+01 0. -1.
</event>
<event>
 7    1  0.2288857E-006  0.3602200E+03  0.7546771E-02  0.9781840E-01
        -11   -1    0    0    0    0  0.00000000000E+00  0.00000000000E+00  0.50000000000E+03  0.50000000000E+03  0.00000000000E+00 0.  1.
         11   -1    0    0    0    0 -0.00000000000E+00 -0.00000000000E+00 -0.50000000000E+03  0.50000000000E+03  0.00000000000E+00 0. -1.
         23    2    1    2    0    0 -0.17781662163E+03  0.11948384503E+03 -0.75903429593E+02  0.24455959305E+03  0.90293542290E+02 0.  0.
        -11    1    1    2    0    0 -0.44033116138E+02 -0.33909358622E+03  0.22517548690E+03  0.40942322288E+03  0.00000000000E+00 0.  1.
         11    1    1    2    0    0  0.22184973777E+03  0.21960974119E+03 -0.14927205731E+03  0.34601718406E+03  0.00000000000E+00 0. -1.
        -15    1    3    3    0    0  0.48905667351E+01  0.27369050087E+02 -0.88647859240E+01  0.29235675195E+02  0.17770000000E+01 0.  1.
         15    1    3    3    0    0 -0.18270718837E+03  0.92114794945E+02 -0.67038643669E+02  0.21532391786E+03  0.17770000000E+01 0. -1.
</event>
<event>
 7    1  0.2288857E-006  0.5138719E+03  0.7546771E-02  0.9369294E-01
        -11   -1    0    0    0    0  0.00000000000E+00  0.00000000000E+00  0.50000000000E+03  0.50000000000E+03  0.00000000000E+00 0. -1.
         11   -1    0    0    0    0 -0.00000000000E+00 -0.00000000000E+00 -0.50000000000E+03  0.50000000000E+03  0.00000000000E+00 0. -1.
         23    2    1    2    0    0 -0.23430036554E+02  0.42450914638E+00 -0.31762258910E+03  0.33092621170E+03  0.89882710608E+02 0.  0.
        -11    1    1    2    0    0  0.99009484915E+02 -0.64012017986E+02  0.47161441772E+03  0.48612814725E+03  0.00000000000E+00 0. -1.
         11    1    1    2    0    0 -0.75579448360E+02  0.63587508839E+02 -0.15399182862E+03  0.18294564105E+03  0.00000000000E+00 0. -1.
        -15    1    3    3    0    0  0.30503885204E+02 -0.26265918568E+01 -0.56683142391E+02  0.64447826632E+02  0.17770000000E+01 0.  1.
         15    1    3    3    0    0 -0.53933921758E+02  0.30511010032E+01 -0.26093944671E+03  0.26647838507E+03  0.17770000000E+01 0. -1.
</event>
<event>
 7    1  0.2288857E-006  0.5027186E+03  0.7546771E-02  0.9393747E-01
        -11   -1    0    0    0    0  0.00000000000E+00  0.00000000000E+00  0.50000000000E+03  0.50000000000E+03  0.00000000000E+00 0.  1.
         11   -1    0    0    0    0 -0.00000000000E+00 -0.00000000000E+00 -0.50000000000E+03  0.50000000000E+03  0.00000000000E+00 0. -1.
         23    2    1    2    0    0  0.29744913855E+02  0.10389071790E+03  0.48248594614E+03  0.50271863426E+03  0.90858658595E+02 0.  0.
        -11    1    1    2    0    0 -0.22903811693E+02 -0.40083705661E+02 -0.10979584052E+03  0.11910673636E+03  0.00000000000E+00 0.  1.
         11    1    1    2    0    0 -0.68411021620E+01 -0.63807012240E+02 -0.37269010561E+03  0.37817462939E+03  0.00000000000E+00 0. -1.
        -15    1    3    3    0    0  0.25030128773E+02  0.11914828637E+03  0.45366664524E+03  0.46972268864E+03  0.17770000000E+01 0.  1.
         15    1    3    3    0    0  0.47147850818E+01 -0.15257568466E+02  0.28819300895E+02  0.32995945614E+02  0.17770000000E+01 0. -1.
</event>
<event>
 7    1  0.2288857E-006  0.5349075E+03  0.7546771E-02  0.9324920E-01
        -11   -1    0    0    0    0  0.00000000000E+00  0.00000000000E+00  0.50000000000E+03  0.50000000000E+03  0.00000000000E+00 0.  1.
         11   -1    0    0    0    0 -0.00000000000E+00 -0.00000000000E+00 -0.50000000000E+03  0.50000000000E+03  0.00000000000E+00 0. -1.
         23    2    1    2    0    0 -0.10916814038E+03 -0.14837063637E+03 -0.22169157005E+03  0.30223444887E+03  0.90922941221E+02 0.  0.
        -11    1    1    2    0    0  0.67791117995E+02  0.10848166070E+03  0.44715451973E+03  0.46509254015E+03  0.00000000000E+00 0.  1.
         11    1    1    2    0    0  0.41377022382E+02  0.39888975673E+02 -0.22546294968E+03  0.23267301098E+03  0.00000000000E+00 0. -1.
        -15    1    3    3    0    0  0.79053031386E-01 -0.38503704996E+02 -0.93497696864E+02  0.10113119497E+03  0.17770000000E+01 0.  1.
         15    1    3    3    0    0 -0.10924719341E+03 -0.10986693138E+03 -0.12819387319E+03  0.20110325390E+03  0.17770000000E+01 0. -1.
</event>
<event>
 7    1  0.2288857E-006  0.5293904E+03  0.7546771E-02  0.9336346E-01
        -11   -1    0    0    0    0  0.00000000000E+00  0.00000000000E+00  0.50000000000E+03  0.50000000000E+03  0.00000000000E+00 0.  1.
         11   -1    0    0    0    0 -0.00000000000E+00 -0.00000000000E+00 -0.50000000000E+03  0.50000000000E+03  0.00000000000E+00 0. -1.
         23    2    1    2    0    0 -0.92968436038E+02  0.83743696272E+02 -0.13144575504E+03  0.20598793829E+03  0.97452077651E+02 0.  0.
        -11    1    1    2    0    0  0.14249745841E+03 -0.34380353044E+02  0.44719774146E+03  0.47060955610E+03  0.00000000000E+00 0.  1.
         11    1    1    2    0    0 -0.49529022369E+02 -0.49363343227E+02 -0.31575198641E+03  0.32340250561E+03  0.00000000000E+00 0. -1.
        -15    1    3    3    0    0 -0.63259137062E+02  0.38175989731E+02 -0.13231240832E+03  0.15155479451E+03  0.17770000000E+01 0.  1.
         15    1    3    3    0    0 -0.29709298976E+02  0.45567706540E+02  0.86665328147E+00  0.54433143781E+02  0.17770000000E+01 0. -1.
</event>
<event>
 7    1  0.2288857E-006  0.4719721E+03  0.7546771E-02  0.9464805E-01
        -11   -1    0    0    0    0  0.00000000000E+00  0.00000000000E+00  0.50000000000E+03  0.50000000000E+03  0.00000000000E+00 0.  1.
         11   -1    0    0    0    0 -0.00000000000E+00 -0.00000000000E+00 -0.50000000000E+03  0.50000000000E+03  0.00000000000E+00 0.  1.
         23    2    1    2    0    0  0.82089427168E+02  0.34063649826E+02  0.43341039461E+03  0.45110861254E+03  0.88064770858E+02 0.  0.
        -11    1    1    2    0    0  0.19750977575E+02 -0.41135493090E+02  0.42377894856E+02  0.62274520307E+02  0.00000000000E+00 0.  1.
         11    1    1    2    0    0 -0.10184040474E+03  0.70718432646E+01 -0.47578828946E+03  0.48661686715E+03  0.00000000000E+00 0.  1.
        -15    1    3    3    0    0  0.81974608829E+02  0.92403122461E+01  0.40508491332E+03  0.41340315019E+03  0.17770000000E+01 0.  1.
         15    1    3    3    0    0  0.11481833936E+00  0.24823337580E+02  0.28325481288E+02  0.37705462350E+02  0.17770000000E+01 0. -1.
</event>
<event>
 7    1  0.2288857E-006  0.4207142E+03  0.7546771E-02  0.9597102E-01
        -11   -1    0    0    0    0  0.00000000000E+00  0.00000000000E+00  0.50000000000E+03  0.50000000000E+03  0.00000000000E+00 0.  1.
         11   -1    0    0    0    0 -0.00000000000E+00 -0.00000000000E+00 -0.50000000000E+03  0.50000000000E+03  0.00000000000E+00 0.  1.
         23    2    1    2    0    0  0.66199763106E+02 -0.74660884478E+02  0.40653644663E+03  0.42824159741E+03  0.90345597634E+02 0.  0.
        -11    1    1    2    0    0 -0.50735896609E+02  0.14554982300E+03  0.46601416269E+01  0.15420959471E+03  0.00000000000E+00 0.  1.
         11    1    1    2    0    0 -0.15463866496E+02 -0.70888938521E+02 -0.41119658825E+03  0.41754880788E+03  0.00000000000E+00 0.  1.
        -15    1    3    3    0    0  0.32397326931E+02 -0.87379107731E+02  0.23248690844E+03  0.25047557882E+03  0.17770000000E+01 0.  1.
         15    1    3    3    0    0  0.33802436175E+02  0.12718223253E+02  0.17404953819E+03  0.17776601860E+03  0.17770000000E+01 0. -1.
</event>
<event>
 7    1  0.2288857E-006  0.3832857E+03  0.7546771E-02  0.9707118E-01
        -11   -1    0    0    0    0  0.00000000000E+00  0.00000000000E+00  0.50000000000E+03  0.50000000000E+03  0.00000000000E+00 0. -1.
         11   -1    0    0    0    0 -0.00000000000E+00 -0.00000000000E+00 -0.50000000000E+03  0.50000000000E+03  0.00000000000E+00 0.  1.
         23    2    1    2    0    0 -0.28221025526E+03  0.16267703602E+03 -0.11345287308E+03  0.35670673209E+03  0.90893850662E+02 0.  0.
        -11    1    1    2    0    0  0.34774324365E+03 -0.11329316703E+02  0.25060953865E+03  0.42878766048E+03  0.00000000000E+00 0. -1.
         11    1    1    2    0    0 -0.65532988390E+02 -0.15134771932E+03 -0.13715666557E+03  0.21450560743E+03  0.00000000000E+00 0.  1.
        -15    1    3    3    0    0 -0.77996438100E+02  0.19776445366E+01 -0.32316416213E+02  0.84468123692E+02  0.17770000000E+01 0. -1.
         15    1    3    3    0    0 -0.20421381716E+03  0.16069939148E+03 -0.81136456867E+02  0.27223860840E+03  0.17770000000E+01 0.  1.
</event>
<event>
 7    1  0.2288857E-006  0.3707305E+03  0.7546771E-02  0.9747069E-01
        -11   -1    0    0    0    0  0.00000000000E+00  0.00000000000E+00  0.50000000000E+03  0.50000000000E+03  0.00000000000E+00 0. -1.
         11   -1    0    0    0    0 -0.00000000000E+00 -0.00000000000E+00 -0.50000000000E+03  0.50000000000E+03  0.00000000000E+00 0.  1.
         23    2    1    2    0    0  0.16441069354E+03 -0.12171551353E+03  0.50261505601E+02  0.22919761768E+03  0.90331537246E+02 0.  0.
        -11    1    1    2    0    0  0.10138070787E+02  0.14079942932E+03  0.32618398153E+03  0.35541982160E+03  0.00000000000E+00 0. -1.
         11    1    1    2    0    0 -0.17454876432E+03 -0.19083915789E+02 -0.37644548713E+03  0.41538256072E+03  0.00000000000E+00 0.  1.
        -15    1    3    3    0    0  0.17332494218E+03 -0.10540041092E+03  0.54476709539E+02  0.21005154562E+03  0.17770000000E+01 0.  1.
         15    1    3    3    0    0 -0.89142486483E+01 -0.16315102607E+02 -0.42152039381E+01  0.19146072059E+02  0.17770000000E+01 0. -1.
</event>
<event>
 7    1  0.2288857E-006  0.3713399E+03  0.7546771E-02  0.9745091E-01
        -11   -1    0    0    0    0  0.00000000000E+00  0.00000000000E+00  0.50000000000E+03  0.50000000000E+03  0.00000000000E+00 0. -1.
         11   -1    0    0    0    0 -0.00000000000E+00 -0.00000000000E+00 -0.50000000000E+03  0.50000000000E+03  0.00000000000E+00 0. -1.
         23    2    1    2    0    0  0.90203725261E+02  0.20965741893E+02  0.35187951362E+03  0.37563522212E+03  0.93307843198E+02 0.  0.
        -11    1    1    2    0    0 -0.14930108133E+02  0.22536339954E+03 -0.57211078451E+02  0.23299072402E+03  0.00000000000E+00 0. -1.
         11    1    1    2    0    0 -0.75273617128E+02 -0.24632914143E+03 -0.29466843517E+03  0.39137405387E+03  0.00000000000E+00 0. -1.
        -15    1    3    3    0    0  0.14066924321E+01  0.39611891524E+02  0.12980558228E+03  0.13573403277E+03  0.17770000000E+01 0.  1.
         15    1    3    3    0    0  0.88797032829E+02 -0.18646149631E+02  0.22207393135E+03  0.23990118934E+03  0.17770000000E+01 0. -1.
</event>
<event>
 7    1  0.2288857E-006  0.5137770E+03  0.7546771E-02  0.9369500E-01
        -11   -1    0    0    0    0  0.00000000000E+00  0.00000000000E+00  0.50000000000E+03  0.50000000000E+03  0.00000000000E+00 0. -1.
         11   -1    0    0    0    0 -0.00000000000E+00 -0.00000000000E+00 -0.50000000000E+03  0.50000000000E+03  0.00000000000E+00 0.  1.
         23    2    1    2    0    0  0.26940445109E+02  0.24955823501E+02  0.24797327858E+03  0.26814745163E+03  0.95203614509E+02 0.  0.
        -11    1    1    2    0    0 -0.37865184682E+01  0.11463696054E+03  0.21720472771E+03  0.24562952628E+03  0.00000000000E+00 0. -1.
         11    1    1    2    0    0 -0.23153926641E+02 -0.13959278404E+03 -0.46517800629E+03  0.48622302209E+03  0.00000000000E+00 0.  1.
        -15    1    3    3    0    0  0.29187267282E+02  0.52556712247E+02  0.22247833370E+03  0.23046446856E+03  0.17770000000E+01 0. -1.
         15    1    3    3    0    0 -0.22468221733E+01 -0.27600888747E+02  0.25494944880E+02  0.37682983068E+02  0.17770000000E+01 0.  1.
</event>
<event>
 7    1  0.2288857E-006  0.5101141E+03  0.7546771E-02  0.9377459E-01
        -11   -1    0    0    0    0  0.00000000000E+00  0.00000000000E+00  0.50000000000E+03  0.50000000000E+03  0.00000000000E+00 0.  1.
         11   -1    0    0    0    0 -0.00000000000E+00 -0.00000000000E+00 -0.50000000000E+03  0.50000000000E+03  0.00000000000E+00 0. -1.
         23    2    1    2    0    0 -0.75914527358E+02  0.18357103021E+02 -0.24911448659E+03  0.27677386794E+03  0.91900749997E+02 0.  0.
        -11    1    1    2    0    0  0.15516168323E+03  0.26791477537E+02  0.46389145847E+03  0.48988592187E+03  0.00000000000E+00 0.  1.
         11    1    1    2    0    0 -0.79247155869E+02 -0.45148580558E+02 -0.21477697188E+03  0.23334021019E+03  0.00000000000E+00 0. -1.
        -15    1    3    3    0    0 -0.51669634701E+02  0.53723698923E+02 -0.18661635964E+03  0.20095972330E+03  0.17770000000E+01 0. -1.
         15    1    3    3    0    0 -0.24244892657E+02 -0.35366595902E+02 -0.62498126950E+02  0.75814144636E+02  0.17770000000E+01 0.  1.
</event>
<event>
 7    1  0.2288857E-006  0.3994394E+03  0.7546771E-02  0.9658059E-01
        -11   -1    0    0    0    0  0.00000000000E+00  0.00000000000E+00  0.50000000000E+03  0.50000000000E+03  0.00000000000E+00 0.  1.
         11   -1    0    0    0    0 -0.00000000000E+00 -0.00000000000E+00 -0.50000000000E+03  0.50000000000E+03  0.00000000000E+00 0. -1.
         23    2    1    2    0    0 -0.48592694949E+02 -0.79950735448E+02  0.33252623989E+03  0.35763083485E+03  0.92589112320E+02 0.  0.
        -11    1    1    2    0    0  0.15470131736E+03  0.31084005397E+02  0.10498700081E+03  0.18952831800E+03  0.00000000000E+00 0.  1.
         11    1    1    2    0    0 -0.10610862241E+03  0.48866730051E+02 -0.43751324070E+03  0.45284084715E+03  0.00000000000E+00 0. -1.
        -15    1    3    3    0    0 -0.43408294959E+01 -0.65719881274E+02  0.27918927439E+03  0.28685842197E+03  0.17770000000E+01 0.  1.
         15    1    3    3    0    0 -0.44251865453E+02 -0.14230854174E+02  0.53336965506E+02  0.70772412881E+02  0.17770000000E+01 0. -1.
</event>
<event>
 7    1  0.2288857E-006  0.5086072E+03  0.7546771E-02  0.9380754E-01
        -11   -1    0    0    0    0  0.00000000000E+00  0.00000000000E+00  0.50000000000E+03  0.50000000000E+03  0.00000000000E+00 0.  1.
         11   -1    0    0    0    0 -0.00000000000E+00 -0.00000000000E+00 -0.50000000000E+03  0.50000000000E+03  0.00000000000E+00 0. -1.
         23    2    1    2    0    0 -0.17612251961E+03  0.42857620652E+02 -0.29182336297E+03  0.35531177111E+03  0.90717484259E+02 0.  0.
        -11    1    1    2    0    0  0.23146010514E+03 -0.20297357262E+02  0.43299090289E+03  0.49139280110E+03  0.00000000000E+00 0.  1.
         11    1    1    2    0    0 -0.55337585532E+02 -0.22560263390E+02 -0.14116753992E+03  0.15329542779E+03  0.00000000000E+00 0. -1.
        -15    1    3    3    0    0 -0.16913546594E+03  0.62623615580E+02 -0.27224648099E+03  0.32657285131E+03  0.17770000000E+01 0. -1.
         15    1    3    3    0    0 -0.69870536711E+01 -0.19765994928E+02 -0.19576881980E+02  0.28738919805E+02  0.17770000000E+01 0.  1.
</event>
<event>
 7    1  0.2288857E-006  0.3508553E+03  0.7546771E-02  0.9813908E-01
        -11   -1    0    0    0    0  0.00000000000E+00  0.00000000000E+00  0.50000000000E+03  0.50000000000E+03  0.00000000000E+00 0. -1.
         11   -1    0    0    0    0 -0.00000000000E+00 -0.00000000000E+00 -0.50000000000E+03  0.50000000000E+03  0.00000000000E+00 0.  1.
         23    2    1    2    0    0  0.14356443189E+03 -0.11772876009E+03 -0.15300205292E+03  0.25819265811E+03  0.93717732840E+02 0.  0.
        -11    1    1    2    0    0 -0.28342270959E+03 -0.10010195509E+03  0.31582171818E+03  0.43599563232E+03  0.00000000000E+00 0. -1.
         11    1    1    2    0    0  0.13985827770E+03  0.21783071518E+03 -0.16281966527E+03  0.30581170957E+03  0.00000000000E+00 0.  1.
        -15    1    3    3    0    0  0.53957132125E+02 -0.74067985088E+02 -0.12432133225E+03  0.15445513880E+03  0.17770000000E+01 0.  1.
         15    1    3    3    0    0  0.89607299764E+02 -0.43660775001E+02 -0.28680720673E+02  0.10373751931E+03  0.17770000000E+01 0. -1.
</event>
<event>
 7    1  0.2421318E-006  0.3486832E+03  0.7546771E-02  0.9821500E-01
        -11   -1    0    0    0    0  0.00000000000E+00  0.00000000000E+00  0.50000000000E+03  0.50000000000E+03  0.00000000000E+00 0.  1.
         11   -1    0    0    0    0 -0.00000000000E+00 -0.00000000000E+00 -0.50000000000E+03  0.50000000000E+03  0.00000000000E+00 0. -1.
         23    2    1    2    0    0  0.18777014412E+03  0.30323867305E+03  0.19732810222E+02  0.37844293485E+03  0.12497340229E+03 0.  0.
        -11    1    1    2    0    0 -0.22260351884E+03 -0.16437403096E+03  0.21239456540E+03  0.34883033134E+03  0.00000000000E+00 0.  1.
         11    1    1    2    0    0  0.34833374717E+02 -0.13886464209E+03 -0.23212737563E+03  0.27272673381E+03  0.00000000000E+00 0. -1.
        -15    1    3    3    0    0  0.13219104264E+03  0.10007339288E+03  0.25324275723E+02  0.16773083314E+03  0.17770000000E+01 0. -1.
         15    1    3    3    0    0  0.55579101479E+02  0.20316528018E+03 -0.55914655012E+01  0.21071210171E+03  0.17770000000E+01 0. -1.
</event>
<event>
 7    1  0.2288857E-006  0.5342441E+03  0.7546771E-02  0.9326286E-01
        -11   -1    0    0    0    0  0.00000000000E+00  0.00000000000E+00  0.50000000000E+03  0.50000000000E+03  0.00000000000E+00 0. -1.
         11   -1    0    0    0    0 -0.00000000000E+00 -0.00000000000E+00 -0.50000000000E+03  0.50000000000E+03  0.00000000000E+00 0.  1.
         23    2    1    2    0    0 -0.23672209646E+02 -0.92275005315E+02  0.24270209443E+03  0.27495057305E+03  0.87283794975E+02 0.  0.
        -11    1    1    2    0    0 -0.44541696871E+02  0.13651009240E+03  0.21590309030E+03  0.25929348718E+03  0.00000000000E+00 0. -1.
         11    1    1    2    0    0  0.68213906517E+02 -0.44235087089E+02 -0.45860518473E+03  0.46575593978E+03  0.00000000000E+00 0.  1.
        -15    1    3    3    0    0  0.11739743802E+02 -0.82163655194E+01 -0.12545828748E+01  0.14493514207E+02  0.17770000000E+01 0.  1.
         15    1    3    3    0    0 -0.35411953447E+02 -0.84058639796E+02  0.24395667730E+03  0.26045705884E+03  0.17770000000E+01 0. -1.
</event>
<event>
 7    1  0.2288857E-006  0.5371982E+03  0.7546771E-02  0.9320219E-01
        -11   -1    0    0    0    0  0.00000000000E+00  0.00000000000E+00  0.50000000000E+03  0.50000000000E+03  0.00000000000E+00 0. -1.
         11   -1    0    0    0    0 -0.00000000000E+00 -0.00000000000E+00 -0.50000000000E+03  0.50000000000E+03  0.00000000000E+00 0.  1.
         23    2    1    2    0    0 -0.34842737427E+02 -0.30317356567E+02 -0.13481460243E+02  0.10208076926E+03  0.90030968123E+02 0.  0.
        -11    1    1    2    0    0  0.27919868232E+03 -0.36072655523E+02  0.36733136042E+03  0.46280175998E+03  0.00000000000E+00 0. -1.
         11    1    1    2    0    0 -0.24435594490E+03  0.66390012090E+02 -0.35384990018E+03  0.43511747077E+03  0.00000000000E+00 0.  1.
        -15    1    3    3    0    0  0.18684623385E+02  0.32987916634E+01 -0.31068943013E+02  0.36447690276E+02  0.17770000000E+01 0.  1.
         15    1    3    3    0    0 -0.53527360812E+02 -0.33616148230E+02  0.17587482770E+02  0.65633078981E+02  0.17770000000E+01 0. -1.
</event>
<event>
 7    1  0.2288857E-006  0.5153511E+03  0.7546771E-02  0.9366101E-01
        -11   -1    0    0    0    0  0.00000000000E+00  0.00000000000E+00  0.50000000000E+03  0.50000000000E+03  0.00000000000E+00 0.  1.
         11   -1    0    0    0    0 -0.00000000000E+00 -0.00000000000E+00 -0.50000000000E+03  0.50000000000E+03  0.00000000000E+00 0. -1.
         23    2    1    2    0    0 -0.11215765901E+03 -0.10838838916E+02  0.35399253493E+03  0.38239898075E+03  0.90672183094E+02 0.  0.
        -11    1    1    2    0    0 -0.64295155622E+02 -0.74727717254E+02  0.89208634611E+02  0.13295216904E+03  0.00000000000E+00 0.  1.
         11    1    1    2    0    0  0.17645281463E+03  0.85566556171E+02 -0.44320116954E+03  0.48464885021E+03  0.00000000000E+00 0. -1.
        -15    1    3    3    0    0 -0.12163261140E+03 -0.28077524114E+02  0.30852555165E+03  0.33282730246E+03  0.17770000000E+01 0.  1.
         15    1    3    3    0    0  0.94749523898E+01  0.17238685198E+02  0.45466983286E+02  0.49571678288E+02  0.17770000000E+01 0. -1.
</event>
<event>
 7    1  0.2288857E-006  0.5089666E+03  0.7546771E-02  0.9379967E-01
        -11   -1    0    0    0    0  0.00000000000E+00  0.00000000000E+00  0.50000000000E+03  0.50000000000E+03  0.00000000000E+00 0. -1.
         11   -1    0    0    0    0 -0.00000000000E+00 -0.00000000000E+00 -0.50000000000E+03  0.50000000000E+03  0.00000000000E+00 0. -1.
         23    2    1    2    0    0 -0.98439844077E+02  0.43760262994E+02  0.20182425682E+03  0.24463390238E+03  0.86644976965E+02 0.  0.
        -11    1    1    2    0    0 -0.14464283726E+03  0.15216894856E+02  0.22072310369E+03  0.26433273116E+03  0.00000000000E+00 0. -1.
         11    1    1    2    0    0  0.24308268134E+03 -0.58977157851E+02 -0.42254736050E+03  0.49103336647E+03  0.00000000000E+00 0. -1.
        -15    1    3    3    0    0 -0.37959305033E+02  0.25902787903E+02  0.16489463695E+02  0.48856150090E+02  0.17770000000E+01 0.  1.
         15    1    3    3    0    0 -0.60480539044E+02  0.17857475092E+02  0.18533479312E+03  0.19577775229E+03  0.17770000000E+01 0. -1.
</event>
<event>
 7    1  0.2358032E-006  0.5183708E+03  0.7546771E-02  0.9359617E-01
        -11   -1    0    0    0    0  0.00000000000E+00  0.00000000000E+00  0.50000000000E+03  0.50000000000E+03  0.00000000000E+00 0. -1.
         11   -1    0    0    0    0 -0.00000000000E+00 -0.00000000000E+00 -0.50000000000E+03  0.50000000000E+03  0.00000000000E+00 0.  1.
         23    2    1    2    0    0  0.76702955166E+02 -0.69590248552E+01 -0.20392220997E+03  0.23625473202E+03  0.91105759023E+02 0.  0.
        -11    1    1    2    0    0 -0.13130240127E+03 -0.12879026267E+03  0.44512856335E+03  0.48162920411E+03  0.00000000000E+00 0. -1.
         11    1    1    2    0    0  0.54599446108E+02  0.13574928753E+03 -0.24120635338E+03  0.28211606387E+03  0.00000000000E+00 0.  1.
        -15    1    3    3    0    0 -0.68826920700E+01  0.22152273216E+02 -0.84211407333E+02  0.87365974571E+02  0.17770000000E+01 0. -1.
         15    1    3    3    0    0  0.83585647236E+02 -0.29111298071E+02 -0.11971080264E+03  0.14888875745E+03  0.17770000000E+01 0.  1.
</event>
<event>
 7    1  0.2288857E-006  0.4778745E+03  0.7546771E-02  0.9450725E-01
        -11   -1    0    0    0    0  0.00000000000E+00  0.00000000000E+00  0.50000000000E+03  0.50000000000E+03  0.00000000000E+00 0.  1.
         11   -1    0    0    0    0 -0.00000000000E+00 -0.00000000000E+00 -0.50000000000E+03  0.50000000000E+03  0.00000000000E+00 0. -1.
         23    2    1    2    0    0  0.13674995761E+03  0.60461080938E+02 -0.42824782549E+03  0.46651609505E+03  0.10901822644E+03 0.  0.
        -11    1    1    2    0    0 -0.14169545975E+03 -0.13303577056E+02  0.45658093121E+03  0.47824756687E+03  0.00000000000E+00 0.  1.
         11    1    1    2    0    0  0.49455021435E+01 -0.47157503882E+02 -0.28333105722E+02  0.55236338073E+02  0.00000000000E+00 0. -1.
        -15    1    3    3    0    0  0.73241703652E+02 -0.25980865659E+02 -0.18418235420E+03  0.19991410621E+03  0.17770000000E+01 0.  1.
         15    1    3    3    0    0  0.63508253956E+02  0.86441946597E+02 -0.24406547129E+03  0.26660198885E+03  0.17770000000E+01 0. -1.
</event>
<event>
 7    1  0.2288857E-006  0.5151481E+03  0.7546771E-02  0.9366538E-01
        -11   -1    0    0    0    0  0.00000000000E+00  0.00000000000E+00  0.50000000000E+03  0.50000000000E+03  0.00000000000E+00 0.  1.
         11   -1    0    0    0    0 -0.00000000000E+00 -0.00000000000E+00 -0.50000000000E+03  0.50000000000E+03  0.00000000000E+00 0. -1.
         23    2    1    2    0    0 -0.32131704837E+02  0.47289161733E+01  0.17084381461E+03  0.19875372996E+03  0.96232151997E+02 0.  0.
        -11    1    1    2    0    0 -0.64103504076E+01 -0.74707801673E+02  0.30738090057E+03  0.31639432084E+03  0.00000000000E+00 0.  1.
         11    1    1    2    0    0  0.38542055244E+02  0.69978885500E+02 -0.47822471518E+03  0.48485194920E+03  0.00000000000E+00 0. -1.
        -15    1    3    3    0    0  0.13732157723E+02 -0.85786914251E+01 -0.45935681016E+01  0.16924086362E+02  0.17770000000E+01 0. -1.
         15    1    3    3    0    0 -0.45863862559E+02  0.13307607598E+02  0.17543738271E+03  0.18182964359E+03  0.17770000000E+01 0.  1.
</event>
<event>
 7    1  0.2288857E-006  0.3331141E+03  0.7546771E-02  0.9877709E-01
        -11   -1    0    0    0    0  0.00000000000E+00  0.00000000000E+00  0.50000000000E+03  0.50000000000E+03  0.00000000000E+00 0.  1.
         11   -1    0    0    0    0 -0.00000000000E+00 -0.00000000000E+00 -0.50000000000E+03  0.50000000000E+03  0.00000000000E+00 0. -1.
         23    2    1    2    0    0 -0.45772245227E+02  0.21231324298E+03  0.18673224806E+03  0.30046995091E+03  0.90781316115E+02 0.  0.
        -11    1    1    2    0    0 -0.23634866242E+02 -0.18249931943E+03  0.21944249895E+03  0.28639067519E+03  0.00000000000E+00 0.  1.
         11    1    1    2    0    0  0.69407111469E+02 -0.29813923556E+02 -0.40617474700E+03  0.41313937390E+03  0.00000000000E+00 0. -1.
        -15    1    3    3    0    0  0.19591567894E+02  0.11045902170E+03  0.11021379232E+03  0.15727448221E+03  0.17770000000E+01 0.  1.
         15    1    3    3    0    0 -0.65363813121E+02  0.10185422128E+03  0.76518455739E+02  0.14319546870E+03  0.17770000000E+01 0. -1.
</event>
<event>
 7    1  0.2288857E-006  0.4669649E+03  0.7546771E-02  0.9476922E-01
        -11   -1    0    0    0    0  0.00000000000E+00  0.00000000000E+00  0.50000000000E+03  0.50000000000E+03  0.00000000000E+00 0.  1.
         11   -1    0    0    0    0 -0.00000000000E+00 -0.00000000000E+00 -0.50000000000E+03  0.50000000000E+03  0.00000000000E+00 0.  1.
         23    2    1    2    0    0 -0.20354875531E+02  0.75196810261E+02  0.42430518905E+03  0.44113865190E+03  0.92192925507E+02 0.  0.
        -11    1    1    2    0    0 -0.48681015769E+02  0.27283351031E+02  0.46171184253E+02  0.72429281337E+02  0.00000000000E+00 0.  1.
         11    1    1    2    0    0  0.69035891300E+02 -0.10248016129E+03 -0.47047637330E+03  0.48643206677E+03  0.00000000000E+00 0.  1.
        -15    1    3    3    0    0 -0.41197276061E+02  0.59795105901E+02  0.39645730248E+03  0.40305610114E+03  0.17770000000E+01 0.  1.
         15    1    3    3    0    0  0.20842400530E+02  0.15401704360E+02  0.27847886562E+02  0.38082550755E+02  0.17770000000E+01 0. -1.
</event>
<event>
 7    1  0.2288857E-006  0.4743292E+03  0.7546771E-02  0.9459156E-01
        -11   -1    0    0    0    0  0.00000000000E+00  0.00000000000E+00  0.50000000000E+03  0.50000000000E+03  0.00000000000E+00 0.  1.
         11   -1    0    0    0    0 -0.00000000000E+00 -0.00000000000E+00 -0.50000000000E+03  0.50000000000E+03  0.00000000000E+00 0. -1.
         23    2    1    2    0    0  0.67785948178E+02  0.77435667703E+02  0.46467333302E+03  0.48426983071E+03  0.89469241117E+02 0.  0.
        -11    1    1    2    0    0 -0.56220503862E+02  0.28008239471E+01 -0.14244494205E+02  0.58064578569E+02  0.00000000000E+00 0.  1.
         11    1    1    2    0    0 -0.11565444316E+02 -0.80236491650E+02 -0.45042883882E+03  0.45766559072E+03  0.00000000000E+00 0. -1.
        -15    1    3    3    0    0  0.22948900979E+02  0.86229976355E+02  0.27303029437E+03  0.28724721105E+03  0.17770000000E+01 0.  1.
         15    1    3    3    0    0  0.44837047200E+02 -0.87943086526E+01  0.19164303865E+03  0.19702261966E+03  0.17770000000E+01 0. -1.
</event>
<event>
 7    1  0.2288857E-006  0.4250298E+03  0.7546771E-02  0.9585206E-01
        -11   -1    0    0    0    0  0.00000000000E+00  0.00000000000E+00  0.50000000000E+03  0.50000000000E+03  0.00000000000E+00 0. -1.
         11   -1    0    0    0    0 -0.00000000000E+00 -0.00000000000E+00 -0.50000000000E+03  0.50000000000E+03  0.00000000000E+00 0.  1.
         23    2    1    2    0    0  0.10125205537E+03  0.38636757567E+02 -0.16456800246E+02  0.14290200504E+03  0.91680854152E+02 0.  0.
        -11    1    1    2    0    0 -0.31019807320E+03  0.88299249100E+02  0.32871708772E+03  0.46051550003E+03  0.00000000000E+00 0. -1.
         11    1    1    2    0    0  0.20894601782E+03 -0.12693600667E+03 -0.31226028747E+03  0.39658249493E+03  0.00000000000E+00 0.  1.
        -15    1    3    3    0    0  0.80802166708E+02  0.50520111839E+02 -0.45324371508E+02  0.10554017352E+03  0.17770000000E+01 0.  1.
         15    1    3    3    0    0  0.20449888667E+02 -0.11883354272E+02  0.28867571262E+02  0.37361831524E+02  0.17770000000E+01 0. -1.
</event>
<event>
 7    1  0.2288857E-006  0.3961295E+03  0.7546771E-02  0.9667906E-01
        -11   -1    0    0    0    0  0.00000000000E+00  0.00000000000E+00  0.50000000000E+03  0.50000000000E+03  0.00000000000E+00 0.  1.
         11   -1    0    0    0    0 -0.00000000000E+00 -0.00000000000E+00 -0.50000000000E+03  0.50000000000E+03  0.00000000000E+00 0. -1.
         23    2    1    2    0    0  0.20690954325E+03  0.32294930199E+02  0.29681955876E+03  0.37427994380E+03  0.90161545400E+02 0.  0.
        -11    1    1    2    0    0 -0.87717081384E+02 -0.13891910280E+03  0.10381499345E+03  0.19434597077E+03  0.00000000000E+00 0.  1.
         11    1    1    2    0    0 -0.11919246187E+03  0.10662417261E+03 -0.40063455221E+03  0.43137408542E+03  0.00000000000E+00 0. -1.
        -15    1    3    3    0    0  0.12253438127E+03 -0.24185630975E+02  0.18510080096E+03  0.22330491169E+03  0.17770000000E+01 0. -1.
         15    1    3    3    0    0  0.84375161980E+02  0.56480561174E+02  0.11171875779E+03  0.15097503211E+03  0.17770000000E+01 0.  1.
</event>
<event>
 7    1  0.2288857E-006  0.5203755E+03  0.7546771E-02  0.9355338E-01
        -11   -1    0    0    0    0  0.00000000000E+00  0.00000000000E+00  0.50000000000E+03  0.50000000000E+03  0.00000000000E+00 0.  1.
         11   -1    0    0    0    0 -0.00000000000E+00 -0.00000000000E+00 -0.50000000000E+03  0.50000000000E+03  0.00000000000E+00 0. -1.
         23    2    1    2    0    0 -0.72517977894E+02 -0.13350469383E+03 -0.23822657097E+03  0.29824927865E+03  0.95490170734E+02 0.  0.
        -11    1    1    2    0    0  0.16923724957E+03  0.10544272451E+03  0.43621128693E+03  0.47962454237E+03  0.00000000000E+00 0.  1.
         11    1    1    2    0    0 -0.96719271679E+02  0.28061969316E+02 -0.19798471596E+03  0.22212617898E+03  0.00000000000E+00 0. -1.
        -15    1    3    3    0    0 -0.18221884670E+02 -0.94841995621E+02 -0.76173930136E+02  0.12301490388E+03  0.17770000000E+01 0.  1.
         15    1    3    3    0    0 -0.54296093225E+02 -0.38662698210E+02 -0.16205264084E+03  0.17523437478E+03  0.17770000000E+01 0. -1.
</event>
<event>
 7    1  0.2288857E-006  0.4830552E+03  0.7546771E-02  0.9438544E-01
        -11   -1    0    0    0    0  0.00000000000E+00  0.00000000000E+00  0.50000000000E+03  0.50000000000E+03  0.00000000000E+00 0. -1.
         11   -1    0    0    0    0 -0.00000000000E+00 -0.00000000000E+00 -0.50000000000E+03  0.50000000000E+03  0.00000000000E+00 0. -1.
         23    2    1    2    0    0  0.14971318123E+03  0.57646961413E+02  0.45719088024E+03  0.49295387607E+03  0.90789945243E+02 0.  0.
        -11    1    1    2    0    0 -0.36619997039E+02 -0.18282969390E+02 -0.74076853834E+01  0.41595251599E+02  0.00000000000E+00 0. -1.
         11    1    1    2    0    0 -0.11309318419E+03 -0.39363992023E+02 -0.44978319486E+03  0.46545087233E+03  0.00000000000E+00 0. -1.
        -15    1    3    3    0    0  0.13839195939E+03  0.71191944274E+02  0.44498457159E+03  0.47141813079E+03  0.17770000000E+01 0. -1.
         15    1    3    3    0    0  0.11321221846E+02 -0.13544982861E+02  0.12206308650E+02  0.21535745277E+02  0.17770000000E+01 0.  1.
</event>
<event>
 7    1  0.2288857E-006  0.5083338E+03  0.7546771E-02  0.9381353E-01
        -11   -1    0    0    0    0  0.00000000000E+00  0.00000000000E+00  0.50000000000E+03  0.50000000000E+03  0.00000000000E+00 0.  1.
         11   -1    0    0    0    0 -0.00000000000E+00 -0.00000000000E+00 -0.50000000000E+03  0.50000000000E+03  0.00000000000E+00 0.  1.
         23    2    1    2    0    0 -0.47766265478E+01  0.48090366814E+02  0.48095344802E+03  0.49166618289E+03  0.89910603938E+02 0.  0.
        -11    1    1    2    0    0 -0.71215413988E+02 -0.43815156226E+02 -0.18990250274E+03  0.20749545453E+03  0.00000000000E+00 0.  1.
         11    1    1    2    0    0  0.75992040536E+02 -0.42752105879E+01 -0.29105094528E+03  0.30083836258E+03  0.00000000000E+00 0.  1.
        -15    1    3    3    0    0  0.33819257346E+02  0.53210753578E+02  0.30276178744E+03  0.30926199917E+03  0.17770000000E+01 0.  1.
         15    1    3    3    0    0 -0.38595883894E+02 -0.51203867643E+01  0.17819166057E+03  0.18240418373E+03  0.17770000000E+01 0. -1.
</event>
<event>
 7    1  0.2288857E-006  0.3872027E+03  0.7546771E-02  0.9694987E-01
        -11   -1    0    0    0    0  0.00000000000E+00  0.00000000000E+00  0.50000000000E+03  0.50000000000E+03  0.00000000000E+00 0. -1.
         11   -1    0    0    0    0 -0.00000000000E+00 -0.00000000000E+00 -0.50000000000E+03  0.50000000000E+03  0.00000000000E+00 0.  1.
         23    2    1    2    0    0  0.21641296847E+02  0.36901747872E+02  0.31679496538E+03  0.33286879781E+03  0.92803565332E+02 0.  0.
        -11    1    1    2    0    0 -0.13818252298E+03 -0.97830071120E+02  0.12223932328E+03  0.20882429128E+03  0.00000000000E+00 0. -1.
         11    1    1    2    0    0  0.11654122613E+03  0.60928323248E+02 -0.43903428867E+03  0.45830691091E+03  0.00000000000E+00 0.  1.
        -15    1    3    3    0    0  0.18626837285E+02  0.68081180491E+02  0.20927984071E+03  0.22086922751E+03  0.17770000000E+01 0. -1.
         15    1    3    3    0    0  0.30144595621E+01 -0.31179432619E+02  0.10751512467E+03  0.11199957030E+03  0.17770000000E+01 0.  1.
</event>
<event>
 7    1  0.2288857E-006  0.5103458E+03  0.7546771E-02  0.9376953E-01
        -11   -1    0    0    0    0  0.00000000000E+00  0.00000000000E+00  0.50000000000E+03  0.50000000000E+03  0.00000000000E+00 0. -1.
         11   -1    0    0    0    0 -0.00000000000E+00 -0.00000000000E+00 -0.50000000000E+03  0.50000000000E+03  0.00000000000E+00 0.  1.
         23    2    1    2    0    0 -0.58511676127E+02 -0.94787507964E+02 -0.37416421674E+03  0.40078256845E+03  0.90661558454E+02 0.  0.
        -11    1    1    2    0    0  0.47623121195E+02  0.75451100085E+02  0.48145654699E+03  0.48965420127E+03  0.00000000000E+00 0. -1.
         11    1    1    2    0    0  0.10888554931E+02  0.19336407879E+02 -0.10729233025E+03  0.10956323028E+03  0.00000000000E+00 0.  1.
        -15    1    3    3    0    0  0.24009230393E+02 -0.21187390512E+02 -0.66075154457E+02  0.73446799973E+02  0.17770000000E+01 0.  1.
         15    1    3    3    0    0 -0.82520906519E+02 -0.73600117452E+02 -0.30808906228E+03  0.32733576848E+03  0.17770000000E+01 0. -1.
</event>
<event>
 7    1  0.2288857E-006  0.5094911E+03  0.7546771E-02  0.9378820E-01
        -11   -1    0    0    0    0  0.00000000000E+00  0.00000000000E+00  0.50000000000E+03  0.50000000000E+03  0.00000000000E+00 0.  1.
         11   -1    0    0    0    0 -0.00000000000E+00 -0.00000000000E+00 -0.50000000000E+03  0.50000000000E+03  0.00000000000E+00 0. -1.
         23    2    1    2    0    0  0.15065563826E+03 -0.20514635921E+03  0.40887824525E+03  0.49050889383E+03  0.92926882272E+02 0.  0.
        -11    1    1    2    0    0 -0.54566827857E+02 -0.20721924009E+02 -0.72439003557E+02  0.93028737890E+02  0.00000000000E+00 0.  1.
         11    1    1    2    0    0 -0.96088810400E+02  0.22586828322E+03 -0.33643924169E+03  0.41646236829E+03  0.00000000000E+00 0. -1.
        -15    1    3    3    0    0  0.12719817089E+03 -0.19806563525E+03  0.40049223099E+03  0.46454984163E+03  0.17770000000E+01 0.  1.
         15    1    3    3    0    0  0.23457467363E+02 -0.70807239610E+01  0.83860142619E+01  0.25959052199E+02  0.17770000000E+01 0. -1.
</event>
<event>
 7    1  0.2288857E-006  0.4593858E+03  0.7546771E-02  0.9495574E-01
        -11   -1    0    0    0    0  0.00000000000E+00  0.00000000000E+00  0.50000000000E+03  0.50000000000E+03  0.00000000000E+00 0.  1.
         11   -1    0    0    0    0 -0.00000000000E+00 -0.00000000000E+00 -0.50000000000E+03  0.50000000000E+03  0.00000000000E+00 0. -1.
         23    2    1    2    0    0 -0.50577572945E+02 -0.14382552427E+03  0.44584245001E+03  0.47732444821E+03  0.76284115733E+02 0.  0.
        -11    1    1    2    0    0  0.58598863994E+01  0.82457136544E+02 -0.13554007258E+02  0.83768900843E+02  0.00000000000E+00 0.  1.
         11    1    1    2    0    0  0.44717686546E+02  0.61368387721E+02 -0.43228844276E+03  0.43890665094E+03  0.00000000000E+00 0. -1.
        -15    1    3    3    0    0 -0.33673982860E+02 -0.22354649563E+02  0.18088668717E+03  0.18535592465E+03  0.17770000000E+01 0. -1.
         15    1    3    3    0    0 -0.16903590085E+02 -0.12147087470E+03  0.26495576284E+03  0.29196852356E+03  0.17770000000E+01 0.  1.
</event>
<event>
 7    1  0.2288857E-006  0.3669736E+03  0.7546771E-02  0.9759355E-01
        -11   -1    0    0    0    0  0.00000000000E+00  0.00000000000E+00  0.50000000000E+03  0.50000000000E+03  0.00000000000E+00 0.  1.
         11   -1    0    0    0    0 -0.00000000000E+00 -0.00000000000E+00 -0.50000000000E+03  0.50000000000E+03  0.00000000000E+00 0. -1.
         23    2    1    2    0    0  0.14030333549E+03 -0.13114380463E+03  0.37484442511E+03  0.43103478867E+03  0.91645635846E+02 0.  0.
        -11    1    1    2    0    0 -0.14261579127E+03  0.18544757929E+03 -0.49515679395E+02  0.23912731147E+03  0.00000000000E+00 0.  1.
         11    1    1    2    0    0  0.23124557798E+01 -0.54303774659E+02 -0.32532874571E+03  0.32983789986E+03  0.00000000000E+00 0. -1.
        -15    1    3    3    0    0  0.38199223465E+02  0.62343012288E+01  0.10000145230E+03  0.10724502495E+03  0.17770000000E+01 0.  1.
         15    1    3    3    0    0  0.10210411203E+03 -0.13737810586E+03  0.27484297281E+03  0.32378976373E+03  0.17770000000E+01 0. -1.
</event>
<event>
 7    1  0.2288857E-006  0.5109371E+03  0.7546771E-02  0.9375664E-01
        -11   -1    0    0    0    0  0.00000000000E+00  0.00000000000E+00  0.50000000000E+03  0.50000000000E+03  0.00000000000E+00 0. -1.
         11   -1    0    0    0    0 -0.00000000000E+00 -0.00000000000E+00 -0.50000000000E+03  0.50000000000E+03  0.00000000000E+00 0. -1.
         23    2    1    2    0    0 -0.18674999126E+03  0.18633731360E+03  0.40095926620E+03  0.48906287986E+03  0.93898954348E+02 0.  0.
        -11    1    1    2    0    0  0.18651605191E+03 -0.20580717804E+03 -0.30291171682E+03  0.41097486583E+03  0.00000000000E+00 0. -1.
         11    1    1    2    0    0  0.23393935072E+00  0.19469864442E+02 -0.98047549378E+02  0.99962254317E+02  0.00000000000E+00 0. -1.
        -15    1    3    3    0    0 -0.27239914100E+02  0.31357691332E+02  0.16144641105E+02  0.44599606403E+02  0.17770000000E+01 0.  1.
         15    1    3    3    0    0 -0.15951007716E+03  0.15497962226E+03  0.38481462510E+03  0.44446327345E+03  0.17770000000E+01 0. -1.
</event>
<event>
 7    1  0.2288857E-006  0.4153418E+03  0.7546771E-02  0.9612126E-01
        -11   -1    0    0    0    0  0.00000000000E+00  0.00000000000E+00  0.50000000000E+03  0.50000000000E+03  0.00000000000E+00 0.  1.
         11   -1    0    0    0    0 -0.00000000000E+00 -0.00000000000E+00 -0.50000000000E+03  0.50000000000E+03  0.00000000000E+00 0.  1.
         23    2    1    2    0    0  0.10789236269E+03  0.27023762201E+02  0.33886319335E+02  0.16121832998E+03  0.11167820572E+03 0.  0.
        -11    1    1    2    0    0 -0.45997382137E+02 -0.79230082017E+02  0.39338167380E+03  0.40390878468E+03  0.00000000000E+00 0.  1.
         11    1    1    2    0    0 -0.61894980556E+02  0.52206319815E+02 -0.42726799314E+03  0.43487288534E+03  0.00000000000E+00 0.  1.
        -15    1    3    3    0    0  0.77629854776E+02 -0.11506055242E+02  0.66045341214E+02  0.10258620027E+03  0.17770000000E+01 0. -1.
         15    1    3    3    0    0  0.30262507916E+02  0.38529817443E+02 -0.32159021879E+02  0.58632129714E+02  0.17770000000E+01 0.  1.
</event>
<event>
 7    1  0.2288857E-006  0.4767354E+03  0.7546771E-02  0.9453426E-01
        -11   -1    0    0    0    0  0.00000000000E+00  0.00000000000E+00  0.50000000000E+03  0.50000000000E+03  0.00000000000E+00 0. -1.
         11   -1    0    0    0    0 -0.00000000000E+00 -0.00000000000E+00 -0.50000000000E+03  0.50000000000E+03  0.00000000000E+00 0.  1.
         23    2    1    2    0    0 -0.13950502222E+03  0.13034247688E+03  0.41233668706E+03  0.46317807979E+03  0.89786288475E+02 0.  0.
        -11    1    1    2    0    0  0.20786244810E+02 -0.22985886439E+02  0.43664765002E+02  0.53544660344E+02  0.00000000000E+00 0. -1.
         11    1    1    2    0    0  0.11871877741E+03 -0.10735659044E+03 -0.45600145206E+03  0.48327725987E+03  0.00000000000E+00 0.  1.
        -15    1    3    3    0    0 -0.19783266279E+02 -0.11331719890E+02  0.72390865741E+02  0.75916932710E+02  0.17770000000E+01 0.  1.
         15    1    3    3    0    0 -0.11972175594E+03  0.14167419677E+03  0.33994582132E+03  0.38726114708E+03  0.17770000000E+01 0. -1.
</event>
<event>
 7    1  0.2288857E-006  0.4373302E+03  0.7546771E-02  0.9552109E-01
        -11   -1    0    0    0    0  0.00000000000E+00  0.00000000000E+00  0.50000000000E+03  0.50000000000E+03  0.00000000000E+00 0. -1.
         11   -1    0    0    0    0 -0.00000000000E+00 -0.00000000000E+00 -0.50000000000E+03  0.50000000000E+03  0.00000000000E+00 0.  1.
         23    2    1    2    0    0  0.62078091594E+02 -0.36963033908E+02  0.36195024867E+02  0.12161463185E+03  0.90885001640E+02 0.  0.
        -11    1    1    2    0    0 -0.11531932512E+03 -0.30267814877E+03  0.26718133769E+03  0.41987912034E+03  0.00000000000E+00 0. -1.
         11    1    1    2    0    0  0.53241233525E+02  0.33964118268E+03 -0.30337636256E+03  0.45850624781E+03  0.00000000000E+00 0.  1.
        -15    1    3    3    0    0  0.70030094937E+02 -0.24997904349E+02  0.58771043756E+02  0.94796111375E+02  0.17770000000E+01 0.  1.
         15    1    3    3    0    0 -0.79520033430E+01 -0.11965129559E+02 -0.22576018889E+02  0.26818520474E+02  0.17770000000E+01 0. -1.
</event>
<event>
 7    1  0.2288857E-006  0.5338252E+03  0.7546771E-02  0.9327150E-01
        -11   -1    0    0    0    0  0.00000000000E+00  0.00000000000E+00  0.50000000000E+03  0.50000000000E+03  0.00000000000E+00 0. -1.
         11   -1    0    0    0    0 -0.00000000000E+00 -0.00000000000E+00 -0.50000000000E+03  0.50000000000E+03  0.00000000000E+00 0.  1.
         23    2    1    2    0    0 -0.37934408824E+02  0.28628214994E+02  0.11442896158E+03  0.17504520482E+03  0.12364563242E+03 0.  0.
        -11    1    1    2    0    0  0.94187813129E+02  0.23422435870E+02  0.34540281446E+03  0.35877995886E+03  0.00000000000E+00 0. -1.
         11    1    1    2    0    0 -0.56253404304E+02 -0.52050650864E+02 -0.45983177604E+03  0.46617483631E+03  0.00000000000E+00 0.  1.
        -15    1    3    3    0    0 -0.48924095730E+01  0.74509040779E+02  0.76640617773E+02  0.10701623639E+03  0.17770000000E+01 0. -1.
         15    1    3    3    0    0 -0.33041999251E+02 -0.45880825786E+02  0.37788343811E+02  0.68028968435E+02  0.17770000000E+01 0.  1.
</event>
<event>
 7    1  0.2288857E-006  0.4461723E+03  0.7546771E-02  0.9529027E-01
        -11   -1    0    0    0    0  0.00000000000E+00  0.00000000000E+00  0.50000000000E+03  0.50000000000E+03  0.00000000000E+00 0. -1.
         11   -1    0    0    0    0 -0.00000000000E+00 -0.00000000000E+00 -0.50000000000E+03  0.50000000000E+03  0.00000000000E+00 0.  1.
         23    2    1    2    0    0  0.36509690809E+02  0.32934013502E+02  0.45029152612E+03  0.46208218976E+03  0.91322969888E+02 0.  0.
        -11    1    1    2    0    0 -0.10620421027E+03 -0.75500173807E+00 -0.29564545771E+02  0.11024503015E+03  0.00000000000E+00 0. -1.
         11    1    1    2    0    0  0.69694519461E+02 -0.32179011763E+02 -0.42072698035E+03  0.42767278009E+03  0.00000000000E+00 0.  1.
        -15    1    3    3    0    0  0.54776382019E+02  0.47864256021E+02  0.39921766752E+03  0.40579470526E+03  0.17770000000E+01 0. -1.
         15    1    3    3    0    0 -0.18266691210E+02 -0.14930242520E+02  0.51073858597E+02  0.56287484492E+02  0.17770000000E+01 0.  1.
</event>
<event>
 6    1  0.2288857E-006  0.4690619E+03  0.7546771E-02  0.9471828E-01
        -11   -1    0    0    0    0  0.00000000000E+00  0.00000000000E+00  0.50000000000E+03  0.50000000000E+03  0.00000000000E+00 0.  1.
         11   -1    0    0    0    0 -0.00000000000E+00 -0.00000000000E+00 -0.50000000000E+03  0.50000000000E+03  0.00000000000E+00 0. -1.
        -11    1    1    2    0    0  0.69772917161E+02 -0.45546904583E+02  0.82561099394E+01  0.83731379050E+02  0.00000000000E+00 0.  1.
         11    1    1    2    0    0 -0.74263030608E+02  0.53913382167E+02 -0.44448315168E+03  0.45385782204E+03  0.00000000000E+00 0. -1.
        -15    1    1    2    0    0 -0.15663043861E+02  0.64697172670E+02  0.29172574827E+03  0.29922921821E+03  0.17770000000E+01 0.  1.
         15    1    1    2    0    0  0.20153157308E+02 -0.73063650254E+02  0.14450129347E+03  0.16318158071E+03  0.17770000000E+01 0. -1.
</event>
<event>
 7    1  0.2288857E-006  0.3400410E+03  0.7546771E-02  0.9852302E-01
        -11   -1    0    0    0    0  0.00000000000E+00  0.00000000000E+00  0.50000000000E+03  0.50000000000E+03  0.00000000000E+00 0.  1.
         11   -1    0    0    0    0 -0.00000000000E+00 -0.00000000000E+00 -0.50000000000E+03  0.50000000000E+03  0.00000000000E+00 0. -1.
         23    2    1    2    0    0  0.14879218251E+03  0.21053677971E+03 -0.10598425174E+03  0.29318208687E+03  0.90874777890E+02 0.  0.
        -11    1    1    2    0    0 -0.16156132426E+03 -0.13868923475E+03  0.37328113843E+03  0.42973895988E+03  0.00000000000E+00 0.  1.
         11    1    1    2    0    0  0.12769141753E+02 -0.71847544966E+02 -0.26729688669E+03  0.27707895325E+03  0.00000000000E+00 0. -1.
        -15    1    3    3    0    0 -0.10387164226E+02  0.65322721020E+01 -0.13642722307E+02  0.18434895183E+02  0.17770000000E+01 0. -1.
         15    1    3    3    0    0  0.15917934673E+03  0.20400450761E+03 -0.92341529438E+02  0.27474719169E+03  0.17770000000E+01 0.  1.
</event>
<event>
 7    1  0.2288857E-006  0.4747548E+03  0.7546771E-02  0.9458140E-01
        -11   -1    0    0    0    0  0.00000000000E+00  0.00000000000E+00  0.50000000000E+03  0.50000000000E+03  0.00000000000E+00 0. -1.
         11   -1    0    0    0    0 -0.00000000000E+00 -0.00000000000E+00 -0.50000000000E+03  0.50000000000E+03  0.00000000000E+00 0.  1.
         23    2    1    2    0    0 -0.13523270312E+03  0.46301575550E+02  0.41991857191E+03  0.45305542702E+03  0.92173168712E+02 0.  0.
        -11    1    1    2    0    0 -0.33996475934E+02  0.34003124896E+02  0.31990222557E+02  0.57752465037E+02  0.00000000000E+00 0. -1.
         11    1    1    2    0    0  0.16922917905E+03 -0.80304700446E+02 -0.45190879447E+03  0.48919210794E+03  0.00000000000E+00 0.  1.
        -15    1    3    3    0    0 -0.10486122119E+03 -0.42413187459E+01  0.32267032616E+03  0.33931277843E+03  0.17770000000E+01 0. -1.
         15    1    3    3    0    0 -0.30371481925E+02  0.50542894296E+02  0.97248245749E+02  0.11374264859E+03  0.17770000000E+01 0.  1.
</event>
<event>
 7    1  0.2288857E-006  0.4355245E+03  0.7546771E-02  0.9556895E-01
        -11   -1    0    0    0    0  0.00000000000E+00  0.00000000000E+00  0.50000000000E+03  0.50000000000E+03  0.00000000000E+00 0. -1.
         11   -1    0    0    0    0 -0.00000000000E+00 -0.00000000000E+00 -0.50000000000E+03  0.50000000000E+03  0.00000000000E+00 0.  1.
         23    2    1    2    0    0  0.52928608076E+02  0.60037109446E+02 -0.31362828803E+02  0.12471946561E+03  0.90362746798E+02 0.  0.
        -11    1    1    2    0    0 -0.33889676266E+02  0.10574346571E+03  0.42948176612E+03  0.44360430355E+03  0.00000000000E+00 0. -1.
         11    1    1    2    0    0 -0.19038931810E+02 -0.16578057516E+03 -0.39811893731E+03  0.43167623084E+03  0.00000000000E+00 0.  1.
        -15    1    3    3    0    0  0.61154544930E+02  0.76789585858E+02 -0.14015140677E+02  0.99177118122E+02  0.17770000000E+01 0.  1.
         15    1    3    3    0    0 -0.82259368539E+01 -0.16752476412E+02 -0.17347688126E+02  0.25542347491E+02  0.17770000000E+01 0. -1.
</event>
<event>
 7    1  0.2288857E-006  0.4044654E+03  0.7546771E-02  0.9643298E-01
        -11   -1    0    0    0    0  0.00000000000E+00  0.00000000000E+00  0.50000000000E+03  0.50000000000E+03  0.00000000000E+00 0. -1.
         11   -1    0    0    0    0 -0.00000000000E+00 -0.00000000000E+00 -0.50000000000E+03  0.50000000000E+03  0.00000000000E+00 0. -1.
         23    2    1    2    0    0  0.25252692591E+02  0.69828395700E+01  0.35108944869E+03  0.36378035588E+03  0.91574493220E+02 0.  0.
        -11    1    1    2    0    0 -0.15480631083E+03 -0.43818761147E+02  0.83479734275E+02  0.18125656881E+03  0.00000000000E+00 0. -1.
         11    1    1    2    0    0  0.12955361824E+03  0.36835921577E+02 -0.43456918296E+03  0.45496307532E+03  0.00000000000E+00 0. -1.
        -15    1    3    3    0    0  0.56580380492E+02  0.19086244779E+02  0.18814719797E+03  0.19740352081E+03  0.17770000000E+01 0.  1.
         15    1    3    3    0    0 -0.31327687902E+02 -0.12103405209E+02  0.16294225072E+03  0.16637683506E+03  0.17770000000E+01 0. -1.
</event>
<event>
 7    1  0.2288857E-006  0.5129212E+03  0.7546771E-02  0.9371353E-01
        -11   -1    0    0    0    0  0.00000000000E+00  0.00000000000E+00  0.50000000000E+03  0.50000000000E+03  0.00000000000E+00 0.  1.
         11   -1    0    0    0    0 -0.00000000000E+00 -0.00000000000E+00 -0.50000000000E+03  0.50000000000E+03  0.00000000000E+00 0. -1.
         23    2    1    2    0    0 -0.15553160883E+03 -0.17860490233E+02 -0.28610789999E+03  0.33687945223E+03  0.84385759733E+02 0.  0.
        -11    1    1    2    0    0  0.16414467970E+03  0.74903587097E+02  0.45242868571E+03  0.48707878098E+03  0.00000000000E+00 0.  1.
         11    1    1    2    0    0 -0.86130708695E+01 -0.57043096864E+02 -0.16632078572E+03  0.17604176678E+03  0.00000000000E+00 0. -1.
        -15    1    3    3    0    0 -0.12493518837E+03 -0.11136763387E+02 -0.14234188984E+03  0.18972928115E+03  0.17770000000E+01 0. -1.
         15    1    3    3    0    0 -0.30596420453E+02 -0.67237268461E+01 -0.14376601015E+03  0.14715017109E+03  0.17770000000E+01 0.  1.
</event>
<event>
 7    1  0.2288857E-006  0.5161394E+03  0.7546771E-02  0.9364403E-01
        -11   -1    0    0    0    0  0.00000000000E+00  0.00000000000E+00  0.50000000000E+03  0.50000000000E+03  0.00000000000E+00 0. -1.
         11   -1    0    0    0    0 -0.00000000000E+00 -0.00000000000E+00 -0.50000000000E+03  0.50000000000E+03  0.00000000000E+00 0.  1.
         23    2    1    2    0    0 -0.13389788649E+02  0.48550992747E+02  0.25170287601E+03  0.27233546281E+03  0.90971320614E+02 0.  0.
        -11    1    1    2    0    0  0.89973384050E+02 -0.23317643523E+02  0.22539176195E+03  0.24380395544E+03  0.00000000000E+00 0. -1.
         11    1    1    2    0    0 -0.76583595401E+02 -0.25233349224E+02 -0.47709463796E+03  0.48386058175E+03  0.00000000000E+00 0.  1.
        -15    1    3    3    0    0 -0.36869423300E+02  0.10375424080E+00  0.42419745022E+02  0.56231286986E+02  0.17770000000E+01 0.  1.
         15    1    3    3    0    0  0.23479634651E+02  0.48447238506E+02  0.20928313099E+03  0.21610417582E+03  0.17770000000E+01 0. -1.
</event>
<event>
 7    1  0.2288857E-006  0.4628290E+03  0.7546771E-02  0.9487053E-01
        -11   -1    0    0    0    0  0.00000000000E+00  0.00000000000E+00  0.50000000000E+03  0.50000000000E+03  0.00000000000E+00 0.  1.
         11   -1    0    0    0    0 -0.00000000000E+00 -0.00000000000E+00 -0.50000000000E+03  0.50000000000E+03  0.00000000000E+00 0. -1.
         23    2    1    2    0    0 -0.10324275760E+03 -0.17945535964E+03  0.38546402104E+03  0.44689833187E+03  0.90952264455E+02 0.  0.
        -11    1    1    2    0    0 -0.78890137081E+02 -0.24836689008E+00  0.12608590946E+02  0.79891751642E+02  0.00000000000E+00 0.  1.
         11    1    1    2    0    0  0.18213289468E+03  0.17970372653E+03 -0.39807261198E+03  0.47320991649E+03  0.00000000000E+00 0. -1.
        -15    1    3    3    0    0 -0.60629769308E+02 -0.11110423955E+03  0.31639962881E+03  0.34078146048E+03  0.17770000000E+01 0.  1.
         15    1    3    3    0    0 -0.42612988293E+02 -0.68351120086E+02  0.69064392233E+02  0.10611687138E+03  0.17770000000E+01 0. -1.
</event>
<event>
 7    1  0.2288857E-006  0.4427315E+03  0.7546771E-02  0.9537941E-01
        -11   -1    0    0    0    0  0.00000000000E+00  0.00000000000E+00  0.50000000000E+03  0.50000000000E+03  0.00000000000E+00 0.  1.
         11   -1    0    0    0    0 -0.00000000000E+00 -0.00000000000E+00 -0.50000000000E+03  0.50000000000E+03  0.00000000000E+00 0. -1.
         23    2    1    2    0    0  0.44120962130E+02  0.89348424190E+01  0.50205007052E+02  0.11197302866E+03  0.89391977866E+02 0.  0.
        -11    1    1    2    0    0 -0.15621789335E+03  0.73735827918E+02  0.38987507894E+03  0.42643121333E+03  0.00000000000E+00 0.  1.
         11    1    1    2    0    0  0.11209693122E+03 -0.82670670337E+02 -0.44008008599E+03  0.46159575801E+03  0.00000000000E+00 0. -1.
        -15    1    3    3    0    0  0.16896636643E+02  0.27710187798E+02 -0.17271009154E+02  0.36807557971E+02  0.17770000000E+01 0. -1.
         15    1    3    3    0    0  0.27224325488E+02 -0.18775345379E+02  0.67476016207E+02  0.75165470693E+02  0.17770000000E+01 0.  1.
</event>
<event>
 7    1  0.2288857E-006  0.3463642E+03  0.7546771E-02  0.9829670E-01
        -11   -1    0    0    0    0  0.00000000000E+00  0.00000000000E+00  0.50000000000E+03  0.50000000000E+03  0.00000000000E+00 0.  1.
         11   -1    0    0    0    0 -0.00000000000E+00 -0.00000000000E+00 -0.50000000000E+03  0.50000000000E+03  0.00000000000E+00 0. -1.
         23    2    1    2    0    0  0.23878150789E+03 -0.90203022366E+02 -0.16483225543E+03  0.31795757877E+03  0.93670463408E+02 0.  0.
        -11    1    1    2    0    0 -0.18511345744E+03 -0.88387626392E+02  0.35859423185E+03  0.41312127485E+03  0.00000000000E+00 0.  1.
         11    1    1    2    0    0 -0.53668050447E+02  0.17859064876E+03 -0.19376197642E+03  0.26892114637E+03  0.00000000000E+00 0. -1.
        -15    1    3    3    0    0  0.22445485279E+03 -0.54562394015E+02 -0.12523813086E+03  0.26276373976E+03  0.17770000000E+01 0.  1.
         15    1    3    3    0    0  0.14326655099E+02 -0.35640628352E+02 -0.39594124572E+02  0.55193839015E+02  0.17770000000E+01 0. -1.
</event>
<event>
 6    1  0.2288857E-006  0.4708307E+03  0.7546771E-02  0.9467553E-01
        -11   -1    0    0    0    0  0.00000000000E+00  0.00000000000E+00  0.50000000000E+03  0.50000000000E+03  0.00000000000E+00 0. -1.
         11   -1    0    0    0    0 -0.00000000000E+00 -0.00000000000E+00 -0.50000000000E+03  0.50000000000E+03  0.00000000000E+00 0. -1.
        -11    1    1    2    0    0  0.45205072325E+01  0.18328193835E+02 -0.86394323370E+01  0.20760478463E+02  0.00000000000E+00 0. -1.
         11    1    1    2    0    0 -0.96206740612E+02  0.52352354826E+02 -0.45955685305E+03  0.47242883822E+03  0.00000000000E+00 0. -1.
        -15    1    1    2    0    0  0.78030619267E+02 -0.36687814783E+02  0.46154847577E+03  0.46953692774E+03  0.17770000000E+01 0. -1.
         15    1    1    2    0    0  0.13655614112E+02 -0.33992733877E+02  0.66478096213E+01  0.37273755579E+02  0.17770000000E+01 0.  1.
</event>
<event>
 7    1  0.2288857E-006  0.4475297E+03  0.7546771E-02  0.9525534E-01
        -11   -1    0    0    0    0  0.00000000000E+00  0.00000000000E+00  0.50000000000E+03  0.50000000000E+03  0.00000000000E+00 0.  1.
         11   -1    0    0    0    0 -0.00000000000E+00 -0.00000000000E+00 -0.50000000000E+03  0.50000000000E+03  0.00000000000E+00 0.  1.
         23    2    1    2    0    0 -0.29618761566E+03  0.31211619632E+03  0.74021588241E+02  0.44459431242E+03  0.83912355678E+02 0.  0.
        -11    1    1    2    0    0  0.32114099844E+03 -0.31226095273E+03  0.29521021002E+02  0.44889857892E+03  0.00000000000E+00 0.  1.
         11    1    1    2    0    0 -0.24953382773E+02  0.14475641170E+00 -0.10354260924E+03  0.10650710866E+03  0.00000000000E+00 0.  1.
        -15    1    3    3    0    0 -0.86933797708E+02  0.80052429609E+02 -0.16331146697E+02  0.11931362350E+03  0.17770000000E+01 0. -1.
         15    1    3    3    0    0 -0.20925381795E+03  0.23206376671E+03  0.90352734938E+02  0.32528068892E+03  0.17770000000E+01 0.  1.
</event>
<event>
 7    1  0.2288857E-006  0.5104400E+03  0.7546771E-02  0.9376748E-01
        -11   -1    0    0    0    0  0.00000000000E+00  0.00000000000E+00  0.50000000000E+03  0.50000000000E+03  0.00000000000E+00 0.  1.
         11   -1    0    0    0    0 -0.00000000000E+00 -0.00000000000E+00 -0.50000000000E+03  0.50000000000E+03  0.00000000000E+00 0. -1.
         23    2    1    2    0    0  0.25614243147E+02 -0.66633093389E+01  0.24855751961E+03  0.26608345666E+03  0.91208970006E+02 0.  0.
        -11    1    1    2    0    0  0.34964276219E+02 -0.72316250904E+02  0.23077689136E+03  0.24435653120E+03  0.00000000000E+00 0.  1.
         11    1    1    2    0    0 -0.60578519366E+02  0.78979560243E+02 -0.47933441097E+03  0.48956001214E+03  0.00000000000E+00 0. -1.
        -15    1    3    3    0    0  0.52075079456E+02  0.21247239381E+02  0.13901889517E+03  0.14997556476E+03  0.17770000000E+01 0.  1.
         15    1    3    3    0    0 -0.26460836310E+02 -0.27910548720E+02  0.10953862444E+03  0.11610789190E+03  0.17770000000E+01 0. -1.
</event>
<event>
 7    1  0.2288857E-006  0.5235497E+03  0.7546771E-02  0.9348604E-01
        -11   -1    0    0    0    0  0.00000000000E+00  0.00000000000E+00  0.50000000000E+03  0.50000000000E+03  0.00000000000E+00 0.  1.
         11   -1    0    0    0    0 -0.00000000000E+00 -0.00000000000E+00 -0.50000000000E+03  0.50000000000E+03  0.00000000000E+00 0.  1.
         23    2    1    2    0    0 -0.21251140533E+02 -0.83000456627E+01 -0.16365781036E+03  0.18973226285E+03  0.93241358526E+02 0.  0.
        -11    1    1    2    0    0  0.15934719359E+02 -0.17398577439E+03  0.44326055895E+03  0.47645029971E+03  0.00000000000E+00 0.  1.
         11    1    1    2    0    0  0.53164211740E+01  0.18228582006E+03 -0.27960274858E+03  0.33381743745E+03  0.00000000000E+00 0.  1.
        -15    1    3    3    0    0 -0.35461943965E+00 -0.48942423812E+02 -0.69113557502E+02  0.84707308794E+02  0.17770000000E+01 0. -1.
         15    1    3    3    0    0 -0.20896521094E+02  0.40642378150E+02 -0.94544252862E+02  0.10502495405E+03  0.17770000000E+01 0.  1.
</event>
<event>
 7    1  0.2288857E-006  0.3256096E+03  0.7546771E-02  0.9905994E-01
        -11   -1    0    0    0    0  0.00000000000E+00  0.00000000000E+00  0.50000000000E+03  0.50000000000E+03  0.00000000000E+00 0.  1.
         11   -1    0    0    0    0 -0.00000000000E+00 -0.00000000000E+00 -0.50000000000E+03  0.50000000000E+03  0.00000000000E+00 0. -1.
         23    2    1    2    0    0  0.36571276329E+02  0.19134656498E+03  0.19764746850E+03  0.29211449620E+03  0.91188765217E+02 0.  0.
        -11    1    1    2    0    0  0.29288338863E+02 -0.20900318129E+03  0.20813604571E+03  0.29641314091E+03  0.00000000000E+00 0.  1.
         11    1    1    2    0    0 -0.65859615192E+02  0.17656616303E+02 -0.40578351421E+03  0.41147236289E+03  0.00000000000E+00 0. -1.
        -15    1    3    3    0    0  0.56142291656E+02  0.12502642813E+03  0.89362872994E+02  0.16362287567E+03  0.17770000000E+01 0.  1.
         15    1    3    3    0    0 -0.19571015327E+02  0.66320136850E+02  0.10828459551E+03  0.12849162053E+03  0.17770000000E+01 0. -1.
</event>
<event>
 7    1  0.2288857E-006  0.5233112E+03  0.7546771E-02  0.9349109E-01
        -11   -1    0    0    0    0  0.00000000000E+00  0.00000000000E+00  0.50000000000E+03  0.50000000000E+03  0.00000000000E+00 0.  1.
         11   -1    0    0    0    0 -0.00000000000E+00 -0.00000000000E+00 -0.50000000000E+03  0.50000000000E+03  0.00000000000E+00 0. -1.
         23    2    1    2    0    0 -0.22219876092E+02 -0.10838394675E+02  0.91487812803E+02  0.13105548444E+03  0.90522518836E+02 0.  0.
        -11    1    1    2    0    0 -0.73229569249E+02  0.15562616333E+03  0.35253714338E+03  0.39225566916E+03  0.00000000000E+00 0.  1.
         11    1    1    2    0    0  0.95449445340E+02 -0.14478776865E+03 -0.44402495619E+03  0.47668884640E+03  0.00000000000E+00 0. -1.
        -15    1    3    3    0    0 -0.14024249196E+02  0.28510699036E+02  0.78779726434E+00  0.31832654281E+02  0.17770000000E+01 0. -1.
         15    1    3    3    0    0 -0.81956268956E+01 -0.39349093712E+02  0.90700015539E+02  0.99222830154E+02  0.17770000000E+01 0.  1.
</event>
<event>
 6    1  0.2288857E-006  0.5181308E+03  0.7546771E-02  0.9360130E-01
        -11   -1    0    0    0    0  0.00000000000E+00  0.00000000000E+00  0.50000000000E+03  0.50000000000E+03  0.00000000000E+00 0. -1.
         11   -1    0    0    0    0 -0.00000000000E+00 -0.00000000000E+00 -0.50000000000E+03  0.50000000000E+03  0.00000000000E+00 0. -1.
        -11    1    1    2    0    0 -0.39521886728E+02 -0.36252996995E+02  0.14739329314E+03  0.15684719374E+03  0.00000000000E+00 0. -1.
         11    1    1    2    0    0  0.58136014006E+02  0.88954375944E+02 -0.47000561515E+03  0.48186923059E+03  0.00000000000E+00 0. -1.
        -15    1    1    2    0    0  0.64579597985E+02 -0.20201384813E+02  0.18716469079E+03  0.19902864023E+03  0.17770000000E+01 0. -1.
         15    1    1    2    0    0 -0.83193725263E+02 -0.32499994135E+02  0.13544763122E+03  0.16225493544E+03  0.17770000000E+01 0.  1.
</event>
<event>
 7    1  0.2288857E-006  0.3974837E+03  0.7546771E-02  0.9663865E-01
        -11   -1    0    0    0    0  0.00000000000E+00  0.00000000000E+00  0.50000000000E+03  0.50000000000E+03  0.00000000000E+00 0.  1.
         11   -1    0    0    0    0 -0.00000000000E+00 -0.00000000000E+00 -0.50000000000E+03  0.50000000000E+03  0.00000000000E+00 0. -1.
         23    2    1    2    0    0 -0.12370367440E+03 -0.58936857203E+02  0.90393123966E+02  0.18826090726E+03  0.92168867551E+02 0.  0.
        -11    1    1    2    0    0  0.34128788295E+02 -0.32558997656E+03  0.13838785160E+03  0.35542200902E+03  0.00000000000E+00 0.  1.
         11    1    1    2    0    0  0.89574886108E+02  0.38452683377E+03 -0.22878097557E+03  0.45631708371E+03  0.00000000000E+00 0. -1.
        -15    1    3    3    0    0 -0.11671257590E+03 -0.71360980752E+02  0.50456997358E+02  0.14581934459E+03  0.17770000000E+01 0.  1.
         15    1    3    3    0    0 -0.69910985046E+01  0.12424123550E+02  0.39936126608E+02  0.42441562669E+02  0.17770000000E+01 0. -1.
</event>
<event>
 7    1  0.2288857E-006  0.5325807E+03  0.7546771E-02  0.9329721E-01
        -11   -1    0    0    0    0  0.00000000000E+00  0.00000000000E+00  0.50000000000E+03  0.50000000000E+03  0.00000000000E+00 0.  1.
         11   -1    0    0    0    0 -0.00000000000E+00 -0.00000000000E+00 -0.50000000000E+03  0.50000000000E+03  0.00000000000E+00 0. -1.
         23    2    1    2    0    0 -0.27648059348E+02  0.12570734231E+03  0.32320456994E+03  0.35954132076E+03  0.90785550671E+02 0.  0.
        -11    1    1    2    0    0 -0.18595214811E+02  0.16788955213E+03  0.37549139767E+02  0.17303936438E+03  0.00000000000E+00 0.  1.
         11    1    1    2    0    0  0.46243274159E+02 -0.29359689444E+03 -0.36075370971E+03  0.46741931485E+03  0.00000000000E+00 0. -1.
        -15    1    3    3    0    0 -0.64752450083E+01  0.12118996365E+03  0.31266450292E+03  0.33539705605E+03  0.17770000000E+01 0.  1.
         15    1    3    3    0    0 -0.21172814340E+02  0.45173786522E+01  0.10540067018E+02  0.24144264717E+02  0.17770000000E+01 0. -1.
</event>
<event>
 7    1  0.2288857E-006  0.3167888E+03  0.7546771E-02  0.9940306E-01
        -11   -1    0    0    0    0  0.00000000000E+00  0.00000000000E+00  0.50000000000E+03  0.50000000000E+03  0.00000000000E+00 0. -1.
         11   -1    0    0    0    0 -0.00000000000E+00 -0.00000000000E+00 -0.50000000000E+03  0.50000000000E+03  0.00000000000E+00 0. -1.
         23    2    1    2    0    0 -0.12236794191E+03  0.18006604710E+03  0.24187451428E+03  0.33773483885E+03  0.90354004830E+02 0.  0.
        -11    1    1    2    0    0  0.14294561183E+03 -0.25122975719E+03  0.10502909351E+03  0.30754015888E+03  0.00000000000E+00 0. -1.
         11    1    1    2    0    0 -0.20577669922E+02  0.71163710092E+02 -0.34690360780E+03  0.35472500227E+03  0.00000000000E+00 0. -1.
        -15    1    3    3    0    0  0.13344904812E+02  0.19523291503E+02  0.13321474104E+02  0.27200455821E+02  0.17770000000E+01 0.  1.
         15    1    3    3    0    0 -0.13571284672E+03  0.16054275559E+03  0.22855304018E+03  0.31053438303E+03  0.17770000000E+01 0. -1.
</event>
<event>
 7    1  0.2288857E-006  0.4197228E+03  0.7546771E-02  0.9599856E-01
        -11   -1    0    0    0    0  0.00000000000E+00  0.00000000000E+00  0.50000000000E+03  0.50000000000E+03  0.00000000000E+00 0.  1.
         11   -1    0    0    0    0 -0.00000000000E+00 -0.00000000000E+00 -0.50000000000E+03  0.50000000000E+03  0.00000000000E+00 0. -1.
         23    2    1    2    0    0 -0.18641465035E+03  0.13535725630E+03 -0.32854663115E+03  0.41204887920E+03  0.93644974850E+02 0.  0.
        -11    1    1    2    0    0  0.48666655497E+02 -0.15157884879E+03  0.40101545058E+03  0.43146029060E+03  0.00000000000E+00 0.  1.
         11    1    1    2    0    0  0.13774799485E+03  0.16221592489E+02 -0.72468819429E+02  0.15649083020E+03  0.00000000000E+00 0. -1.
        -15    1    3    3    0    0 -0.76807635764E+02  0.28278362277E+02 -0.55392436995E+02  0.98846135433E+02  0.17770000000E+01 0.  1.
         15    1    3    3    0    0 -0.10960701458E+03  0.10707889402E+03 -0.27315419416E+03  0.31320274377E+03  0.17770000000E+01 0. -1.
</event>
<event>
 7    1  0.2288857E-006  0.4874551E+03  0.7546771E-02  0.9428326E-01
        -11   -1    0    0    0    0  0.00000000000E+00  0.00000000000E+00  0.50000000000E+03  0.50000000000E+03  0.00000000000E+00 0. -1.
         11   -1    0    0    0    0 -0.00000000000E+00 -0.00000000000E+00 -0.50000000000E+03  0.50000000000E+03  0.00000000000E+00 0.  1.
         23    2    1    2    0    0 -0.10249869221E+03 -0.10998266604E+03 -0.44156340724E+03  0.47559931968E+03  0.92813261606E+02 0.  0.
        -11    1    1    2    0    0  0.85328230481E+02  0.11317398004E+03  0.47006781527E+03  0.49097149370E+03  0.00000000000E+00 0. -1.
         11    1    1    2    0    0  0.17170461733E+02 -0.31913140003E+01 -0.28504408029E+02  0.33429186623E+02  0.00000000000E+00 0.  1.
        -15    1    3    3    0    0 -0.17427826759E+02 -0.78949673254E+02 -0.15161915971E+03  0.17183802656E+03  0.17770000000E+01 0. -1.
         15    1    3    3    0    0 -0.85070865456E+02 -0.31032992783E+02 -0.28994424753E+03  0.30376129312E+03  0.17770000000E+01 0.  1.
</event>
<event>
 7    1  0.2288857E-006  0.5150439E+03  0.7546771E-02  0.9366763E-01
        -11   -1    0    0    0    0  0.00000000000E+00  0.00000000000E+00  0.50000000000E+03  0.50000000000E+03  0.00000000000E+00 0. -1.
         11   -1    0    0    0    0 -0.00000000000E+00 -0.00000000000E+00 -0.50000000000E+03  0.50000000000E+03  0.00000000000E+00 0.  1.
         23    2    1    2    0    0 -0.60595715846E+02 -0.44203803611E+02 -0.26035445616E+03  0.29497198424E+03  0.11661136999E+03 0.  0.
        -11    1    1    2    0    0  0.44716751439E+02  0.10388800449E+03  0.47158255075E+03  0.48495608823E+03  0.00000000000E+00 0. -1.
         11    1    1    2    0    0  0.15878964407E+02 -0.59684200877E+02 -0.21122809459E+03  0.22007192754E+03  0.00000000000E+00 0.  1.
        -15    1    3    3    0    0 -0.70563096461E+00  0.25521021775E+02 -0.14609738458E+03  0.14832202796E+03  0.17770000000E+01 0. -1.
         15    1    3    3    0    0 -0.59890084881E+02 -0.69724825386E+02 -0.11425707158E+03  0.14664995628E+03  0.17770000000E+01 0.  1.
</event>
<event>
 7    1  0.2288857E-006  0.4612585E+03  0.7546771E-02  0.9490930E-01
        -11   -1    0    0    0    0  0.00000000000E+00  0.00000000000E+00  0.50000000000E+03  0.50000000000E+03  0.00000000000E+00 0.  1.
         11   -1    0    0    0    0 -0.00000000000E+00 -0.00000000000E+00 -0.50000000000E+03  0.50000000000E+03  0.00000000000E+00 0.  1.
         23    2    1    2    0    0 -0.16747195609E+03  0.12653907712E+03 -0.34912865470E+03  0.42587457148E+03  0.12417463101E+03 0.  0.
        -11    1    1    2    0    0  0.19000994665E+03 -0.10315873312E+03  0.43311423600E+03  0.48407999904E+03  0.00000000000E+00 0.  1.
         11    1    1    2    0    0 -0.22537990553E+02 -0.23380343992E+02 -0.83985581298E+02  0.90045429475E+02  0.00000000000E+00 0.  1.
        -15    1    3    3    0    0 -0.18110241850E+03  0.92549279762E+02 -0.26459328815E+03  0.33373076130E+03  0.17770000000E+01 0.  1.
         15    1    3    3    0    0  0.13630462404E+02  0.33989797354E+02 -0.84535366548E+02  0.92143810188E+02  0.17770000000E+01 0. -1.
</event>
<event>
 7    1  0.2288857E-006  0.5108141E+03  0.7546771E-02  0.9375932E-01
        -11   -1    0    0    0    0  0.00000000000E+00  0.00000000000E+00  0.50000000000E+03  0.50000000000E+03  0.00000000000E+00 0. -1.
         11   -1    0    0    0    0 -0.00000000000E+00 -0.00000000000E+00 -0.50000000000E+03  0.50000000000E+03  0.00000000000E+00 0. -1.
         23    2    1    2    0    0 -0.92067613081E+02 -0.20827980613E+02 -0.20722681350E+03  0.24596789688E+03  0.92989267695E+02 0.  0.
        -11    1    1    2    0    0  0.14120858972E+03  0.60265822067E+02  0.46446855809E+03  0.48918593252E+03  0.00000000000E+00 0. -1.
         11    1    1    2    0    0 -0.49140976642E+02 -0.39437841454E+02 -0.25724174459E+03  0.26484617061E+03  0.00000000000E+00 0. -1.
        -15    1    3    3    0    0 -0.32499000594E+01 -0.21762060065E+02 -0.11802902955E+03  0.12007563722E+03  0.17770000000E+01 0. -1.
         15    1    3    3    0    0 -0.88817713022E+02  0.93407945204E+00 -0.89197783949E+02  0.12589225966E+03  0.17770000000E+01 0.  1.
</event>
<event>
 7    1  0.2288857E-006  0.3629777E+03  0.7546771E-02  0.9772595E-01
        -11   -1    0    0    0    0  0.00000000000E+00  0.00000000000E+00  0.50000000000E+03  0.50000000000E+03  0.00000000000E+00 0.  1.
         11   -1    0    0    0    0 -0.00000000000E+00 -0.00000000000E+00 -0.50000000000E+03  0.50000000000E+03  0.00000000000E+00 0. -1.
         23    2    1    2    0    0 -0.23284111385E+03  0.11600340896E+03 -0.16270921822E+03  0.32002840296E+03  0.90951161716E+02 0.  0.
        -11    1    1    2    0    0  0.16481267098E+03 -0.78780114053E+02  0.39493753491E+03  0.43513811528E+03  0.00000000000E+00 0.  1.
         11    1    1    2    0    0  0.68028442862E+02 -0.37223294909E+02 -0.23222831669E+03  0.24483348177E+03  0.00000000000E+00 0. -1.
        -15    1    3    3    0    0 -0.83338047206E+02 -0.42455691015E+01 -0.43190581685E+02  0.93977864651E+02  0.17770000000E+01 0. -1.
         15    1    3    3    0    0 -0.14950306664E+03  0.12024897806E+03 -0.11951863654E+03  0.22605053831E+03  0.17770000000E+01 0.  1.
</event>
<event>
 7    1  0.2288857E-006  0.5101395E+03  0.7546771E-02  0.9377403E-01
        -11   -1    0    0    0    0  0.00000000000E+00  0.00000000000E+00  0.50000000000E+03  0.50000000000E+03  0.00000000000E+00 0. -1.
         11   -1    0    0    0    0 -0.00000000000E+00 -0.00000000000E+00 -0.50000000000E+03  0.50000000000E+03  0.00000000000E+00 0.  1.
         23    2    1    2    0    0  0.13455409432E+02  0.38812312854E+02  0.23833919426E+03  0.25749308859E+03  0.88372368313E+02 0.  0.
        -11    1    1    2    0    0  0.81844989699E+02  0.38562959227E+02  0.23589090307E+03  0.25264643737E+03  0.00000000000E+00 0. -1.
         11    1    1    2    0    0 -0.95300399131E+02 -0.77375272081E+02 -0.47423009733E+03  0.48986047403E+03  0.00000000000E+00 0.  1.
        -15    1    3    3    0    0  0.33370190628E+02 -0.14295364881E+02  0.13257405555E+03  0.13746623227E+03  0.17770000000E+01 0. -1.
         15    1    3    3    0    0 -0.19914781196E+02  0.53107677735E+02  0.10576513871E+03  0.12002685633E+03  0.17770000000E+01 0.  1.
</event>
<event>
 7    1  0.2288857E-006  0.4790966E+03  0.7546771E-02  0.9447837E-01
        -11   -1    0    0    0    0  0.00000000000E+00  0.00000000000E+00  0.50000000000E+03  0.50000000000E+03  0.00000000000E+00 0.  1.
         11   -1    0    0    0    0 -0.00000000000E+00 -0.00000000000E+00 -0.50000000000E+03  0.50000000000E+03  0.00000000000E+00 0.  1.
         23    2    1    2    0    0  0.28168644229E+01 -0.11666531160E+03  0.46322893419E+03  0.48766992149E+03  0.98092696952E+02 0.  0.
        -11    1    1    2    0    0  0.23017517841E+02 -0.35315010804E+02 -0.28001203642E+02  0.50606556107E+02  0.00000000000E+00 0.  1.
         11    1    1    2    0    0 -0.25834382264E+02  0.15198032240E+03 -0.43522773055E+03  0.46172352241E+03  0.00000000000E+00 0.  1.
        -15    1    3    3    0    0 -0.44386591851E+02 -0.35783466166E+02  0.14092547370E+03  0.15203214414E+03  0.17770000000E+01 0.  1.
         15    1    3    3    0    0  0.47203456274E+02 -0.80881845435E+02  0.32230346049E+03  0.33563777734E+03  0.17770000000E+01 0. -1.
</event>
<event>
 7    1  0.2288857E-006  0.4530140E+03  0.7546771E-02  0.9511554E-01
        -11   -1    0    0    0    0  0.00000000000E+00  0.00000000000E+00  0.50000000000E+03  0.50000000000E+03  0.00000000000E+00 0.  1.
         11   -1    0    0    0    0 -0.00000000000E+00 -0.00000000000E+00 -0.50000000000E+03  0.50000000000E+03  0.00000000000E+00 0. -1.
         23    2    1    2    0    0  0.68334351016E+02 -0.52650403229E+02  0.46209624314E+03  0.47967172929E+03  0.95448318299E+02 0.  0.
        -11    1    1    2    0    0 -0.65884156657E+02 -0.50599762307E+02 -0.53332234358E+02  0.98718717909E+02  0.00000000000E+00 0.  1.
         11    1    1    2    0    0 -0.24501943592E+01  0.10325016554E+03 -0.40876400878E+03  0.42160955280E+03  0.00000000000E+00 0. -1.
        -15    1    3    3    0    0  0.60483533394E+02 -0.72691953174E+02  0.43425485631E+03  0.44443538994E+03  0.17770000000E+01 0.  1.
         15    1    3    3    0    0  0.78508176223E+01  0.20041549945E+02  0.27841386831E+02  0.35236339356E+02  0.17770000000E+01 0. -1.
</event>
<event>
 7    1  0.2288857E-006  0.3183387E+03  0.7546771E-02  0.9934191E-01
        -11   -1    0    0    0    0  0.00000000000E+00  0.00000000000E+00  0.50000000000E+03  0.50000000000E+03  0.00000000000E+00 0. -1.
         11   -1    0    0    0    0 -0.00000000000E+00 -0.00000000000E+00 -0.50000000000E+03  0.50000000000E+03  0.00000000000E+00 0.  1.
         23    2    1    2    0    0  0.11258880304E+03 -0.26377207483E+03  0.24449054205E+02  0.30128138863E+03  0.88998723893E+02 0.  0.
        -11    1    1    2    0    0 -0.17409202700E+03  0.18230746231E+03  0.28050782697E+03  0.37713218594E+03  0.00000000000E+00 0. -1.
         11    1    1    2    0    0  0.61503223956E+02  0.81464612515E+02 -0.30495688117E+03  0.32158642543E+03  0.00000000000E+00 0.  1.
        -15    1    3    3    0    0  0.81652094641E+02 -0.25543369781E+03  0.20631875572E+02  0.26896518465E+03  0.17770000000E+01 0.  1.
         15    1    3    3    0    0  0.30936708402E+02 -0.83383770200E+01  0.38171786327E+01  0.32316203982E+02  0.17770000000E+01 0. -1.
</event>
<event>
 7    1  0.2288857E-006  0.3955243E+03  0.7546771E-02  0.9669718E-01
        -11   -1    0    0    0    0  0.00000000000E+00  0.00000000000E+00  0.50000000000E+03  0.50000000000E+03  0.00000000000E+00 0.  1.
         11   -1    0    0    0    0 -0.00000000000E+00 -0.00000000000E+00 -0.50000000000E+03  0.50000000000E+03  0.00000000000E+00 0. -1.
         23    2    1    2    0    0  0.32589782743E+03  0.23009604323E+03 -0.33745195680E+02  0.41077253174E+03  0.91879005053E+02 0.  0.
        -11    1    1    2    0    0 -0.29035250866E+03 -0.15938686379E+03  0.21264303536E+03  0.39360616373E+03  0.00000000000E+00 0.  1.
         11    1    1    2    0    0 -0.35545318764E+02 -0.70709179440E+02 -0.17889783968E+03  0.19562130453E+03  0.00000000000E+00 0. -1.
        -15    1    3    3    0    0  0.23314934079E+03  0.20996967351E+03 -0.35983080386E+02  0.31582244808E+03  0.17770000000E+01 0.  1.
         15    1    3    3    0    0  0.92748486632E+02  0.20126369721E+02  0.22378847053E+01  0.94950083663E+02  0.17770000000E+01 0. -1.
</event>
<event>
 7    1  0.2288857E-006  0.5158374E+03  0.7546771E-02  0.9365053E-01
        -11   -1    0    0    0    0  0.00000000000E+00  0.00000000000E+00  0.50000000000E+03  0.50000000000E+03  0.00000000000E+00 0.  1.
         11   -1    0    0    0    0 -0.00000000000E+00 -0.00000000000E+00 -0.50000000000E+03  0.50000000000E+03  0.00000000000E+00 0. -1.
         23    2    1    2    0    0  0.51787577575E+02  0.66959603709E+01  0.15351667054E+03  0.18619256557E+03  0.91506908278E+02 0.  0.
        -11    1    1    2    0    0  0.26750998592E+02  0.10838362025E+03  0.31016621666E+03  0.32964481950E+03  0.00000000000E+00 0.  1.
         11    1    1    2    0    0 -0.78538576167E+02 -0.11507958062E+03 -0.46368288720E+03  0.48416261494E+03  0.00000000000E+00 0. -1.
        -15    1    3    3    0    0 -0.12209013099E+02  0.12469689471E+02  0.10287431135E+03  0.10435916262E+03  0.17770000000E+01 0. -1.
         15    1    3    3    0    0  0.63996590674E+02 -0.57737290999E+01  0.50642359184E+02  0.81833402950E+02  0.17770000000E+01 0.  1.
</event>
<event>
 7    1  0.2288857E-006  0.4936155E+03  0.7546771E-02  0.9414210E-01
        -11   -1    0    0    0    0  0.00000000000E+00  0.00000000000E+00  0.50000000000E+03  0.50000000000E+03  0.00000000000E+00 0.  1.
         11   -1    0    0    0    0 -0.00000000000E+00 -0.00000000000E+00 -0.50000000000E+03  0.50000000000E+03  0.00000000000E+00 0. -1.
         23    2    1    2    0    0 -0.80293479303E+02  0.20562553679E+03  0.43371296371E+03  0.49692427297E+03  0.10048827783E+03 0.  0.
        -11    1    1    2    0    0 -0.14757030161E+02 -0.17278892003E+02 -0.22985536397E+01  0.22838857171E+02  0.00000000000E+00 0.  1.
         11    1    1    2    0    0  0.95050509464E+02 -0.18834664479E+03 -0.43141441007E+03  0.48023686986E+03  0.00000000000E+00 0. -1.
        -15    1    3    3    0    0 -0.89836741554E+02  0.19014409741E+03  0.32791440050E+03  0.38955927623E+03  0.17770000000E+01 0.  1.
         15    1    3    3    0    0  0.95432622511E+01  0.15481439387E+02  0.10579856321E+03  0.10736499674E+03  0.17770000000E+01 0. -1.
</event>
<event>
 7    1  0.2288857E-006  0.4206033E+03  0.7546771E-02  0.9597410E-01
        -11   -1    0    0    0    0  0.00000000000E+00  0.00000000000E+00  0.50000000000E+03  0.50000000000E+03  0.00000000000E+00 0. -1.
         11   -1    0    0    0    0 -0.00000000000E+00 -0.00000000000E+00 -0.50000000000E+03  0.50000000000E+03  0.00000000000E+00 0.  1.
         23    2    1    2    0    0 -0.13372207300E+03  0.36377835922E+03  0.60442977161E+02  0.40276705787E+03  0.91387427884E+02 0.  0.
        -11    1    1    2    0    0  0.13314095155E+03 -0.41329450423E+03  0.85998888550E+02  0.44264508248E+03  0.00000000000E+00 0. -1.
         11    1    1    2    0    0  0.58112144702E+00  0.49516145015E+02 -0.14644186571E+03  0.15458785965E+03  0.00000000000E+00 0.  1.
        -15    1    3    3    0    0 -0.68049536528E+02  0.17934721621E+03  0.76065450001E+02  0.20636199698E+03  0.17770000000E+01 0. -1.
         15    1    3    3    0    0 -0.65672536471E+02  0.18443114300E+03 -0.15622472839E+02  0.19640506089E+03  0.17770000000E+01 0.  1.
</event>
<event>
 7    1  0.2288857E-006  0.5293840E+03  0.7546771E-02  0.9336359E-01
        -11   -1    0    0    0    0  0.00000000000E+00  0.00000000000E+00  0.50000000000E+03  0.50000000000E+03  0.00000000000E+00 0. -1.
         11   -1    0    0    0    0 -0.00000000000E+00 -0.00000000000E+00 -0.50000000000E+03  0.50000000000E+03  0.00000000000E+00 0.  1.
         23    2    1    2    0    0 -0.15752771751E+03  0.59364641112E+02 -0.21932739822E+03  0.29298564680E+03  0.96937811096E+02 0.  0.
        -11    1    1    2    0    0  0.13754561598E+03 -0.11307315166E+02  0.44992529357E+03  0.47061600233E+03  0.00000000000E+00 0. -1.
         11    1    1    2    0    0  0.19982101524E+02 -0.48057325945E+02 -0.23059789535E+03  0.23639835088E+03  0.00000000000E+00 0.  1.
        -15    1    3    3    0    0 -0.10426367550E+03  0.23800101327E+02 -0.63232797637E+02  0.12425338337E+03  0.17770000000E+01 0. -1.
         15    1    3    3    0    0 -0.53264042007E+02  0.35564539785E+02 -0.15609460058E+03  0.16873226343E+03  0.17770000000E+01 0.  1.
</event>
<event>
 7    1  0.2288857E-006  0.4084586E+03  0.7546771E-02  0.9631733E-01
        -11   -1    0    0    0    0  0.00000000000E+00  0.00000000000E+00  0.50000000000E+03  0.50000000000E+03  0.00000000000E+00 0. -1.
         11   -1    0    0    0    0 -0.00000000000E+00 -0.00000000000E+00 -0.50000000000E+03  0.50000000000E+03  0.00000000000E+00 0.  1.
         23    2    1    2    0    0 -0.27522292309E+02 -0.17063418670E+03  0.32297676691E+03  0.37771621800E+03  0.92098030019E+02 0.  0.
        -11    1    1    2    0    0 -0.62504963086E+02  0.11865853637E+03  0.11220278753E+03  0.17486047064E+03  0.00000000000E+00 0. -1.
         11    1    1    2    0    0  0.90027255395E+02  0.51975650328E+02 -0.43517955444E+03  0.44742331135E+03  0.00000000000E+00 0.  1.
        -15    1    3    3    0    0  0.31299209850E+02 -0.68001202817E+02  0.95924427447E+02  0.12169000629E+03  0.17770000000E+01 0.  1.
         15    1    3    3    0    0 -0.58821502159E+02 -0.10263298388E+03  0.22705233947E+03  0.25602621171E+03  0.17770000000E+01 0. -1.
</event>
<event>
 7    1  0.2288857E-006  0.5348524E+03  0.7546771E-02  0.9325033E-01
        -11   -1    0    0    0    0  0.00000000000E+00  0.00000000000E+00  0.50000000000E+03  0.50000000000E+03  0.00000000000E+00 0.  1.
         11   -1    0    0    0    0 -0.00000000000E+00 -0.00000000000E+00 -0.50000000000E+03  0.50000000000E+03  0.00000000000E+00 0.  1.
         23    2    1    2    0    0  0.49211002672E+01 -0.11652239177E+03  0.32988737032E+03  0.36215801756E+03  0.93440181774E+02 0.  0.
        -11    1    1    2    0    0  0.74785649029E+02  0.89205272018E+02  0.12756522059E+03  0.17269441033E+03  0.00000000000E+00 0.  1.
         11    1    1    2    0    0 -0.79706749297E+02  0.27317119757E+02 -0.45745259091E+03  0.46514757211E+03  0.00000000000E+00 0.  1.
        -15    1    3    3    0    0 -0.10385165597E+02 -0.26347023280E+02  0.11042226319E+02  0.30448411966E+02  0.17770000000E+01 0.  1.
         15    1    3    3    0    0  0.15306265864E+02 -0.90175368494E+02  0.31884514400E+03  0.33170960559E+03  0.17770000000E+01 0. -1.
</event>
<event>
 7    1  0.2288857E-006  0.3719383E+03  0.7546771E-02  0.9743153E-01
        -11   -1    0    0    0    0  0.00000000000E+00  0.00000000000E+00  0.50000000000E+03  0.50000000000E+03  0.00000000000E+00 0.  1.
         11   -1    0    0    0    0 -0.00000000000E+00 -0.00000000000E+00 -0.50000000000E+03  0.50000000000E+03  0.00000000000E+00 0. -1.
         23    2    1    2    0    0 -0.13419664320E+03 -0.31494660408E+03  0.18998521914E+03  0.40299526486E+03  0.95449974007E+02 0.  0.
        -11    1    1    2    0    0  0.15816950945E+03  0.12240971967E+03  0.11857550455E+03  0.23251211467E+03  0.00000000000E+00 0.  1.
         11    1    1    2    0    0 -0.23972866244E+02  0.19253688441E+03 -0.30856072369E+03  0.36449262047E+03  0.00000000000E+00 0. -1.
        -15    1    3    3    0    0 -0.90870827523E+02 -0.11381260146E+03  0.10880901930E+03  0.18180587437E+03  0.17770000000E+01 0.  1.
         15    1    3    3    0    0 -0.43325815680E+02 -0.20113400262E+03  0.81176199837E+02  0.22118939048E+03  0.17770000000E+01 0. -1.
</event>
<event>
 7    1  0.2288857E-006  0.5289099E+03  0.7546771E-02  0.9337348E-01
        -11   -1    0    0    0    0  0.00000000000E+00  0.00000000000E+00  0.50000000000E+03  0.50000000000E+03  0.00000000000E+00 0. -1.
         11   -1    0    0    0    0 -0.00000000000E+00 -0.00000000000E+00 -0.50000000000E+03  0.50000000000E+03  0.00000000000E+00 0.  1.
         23    2    1    2    0    0 -0.53904043742E+02 -0.58472251267E+01  0.67178616524E+02  0.12425703758E+03  0.89370067123E+02 0.  0.
        -11    1    1    2    0    0 -0.31418423795E+02 -0.22852038822E+03  0.33246843972E+03  0.40465287420E+03  0.00000000000E+00 0. -1.
         11    1    1    2    0    0  0.85322467537E+02  0.23436761335E+03 -0.39964705624E+03  0.47109008822E+03  0.00000000000E+00 0.  1.
        -15    1    3    3    0    0  0.14946859681E+02 -0.25488836543E+02  0.63120804039E+01  0.30266970292E+02  0.17770000000E+01 0.  1.
         15    1    3    3    0    0 -0.68850903423E+02  0.19641611416E+02  0.60866536120E+02  0.93990067291E+02  0.17770000000E+01 0. -1.
</event>
<event>
 7    1  0.2288857E-006  0.5371425E+03  0.7546771E-02  0.9320333E-01
        -11   -1    0    0    0    0  0.00000000000E+00  0.00000000000E+00  0.50000000000E+03  0.50000000000E+03  0.00000000000E+00 0.  1.
         11   -1    0    0    0    0 -0.00000000000E+00 -0.00000000000E+00 -0.50000000000E+03  0.50000000000E+03  0.00000000000E+00 0. -1.
         23    2    1    2    0    0 -0.12120507961E+03  0.54404904843E+02 -0.79978115930E+02  0.17992605298E+03  0.91248674065E+02 0.  0.
        -11    1    1    2    0    0  0.17826653094E+03  0.77867030681E+01  0.42708013493E+03  0.46285746235E+03  0.00000000000E+00 0.  1.
         11    1    1    2    0    0 -0.57061451330E+02 -0.62191607911E+02 -0.34710201900E+03  0.35721648467E+03  0.00000000000E+00 0. -1.
        -15    1    3    3    0    0 -0.37385354245E+02  0.64296466846E+02 -0.22239726677E+02  0.77649620299E+02  0.17770000000E+01 0.  1.
         15    1    3    3    0    0 -0.83819725369E+02 -0.98915620031E+01 -0.57738389253E+02  0.10227643268E+03  0.17770000000E+01 0. -1.
</event>
<event>
 7    1  0.2288857E-006  0.5272767E+03  0.7546771E-02  0.9340763E-01
        -11   -1    0    0    0    0  0.00000000000E+00  0.00000000000E+00  0.50000000000E+03  0.50000000000E+03  0.00000000000E+00 0.  1.
         11   -1    0    0    0    0 -0.00000000000E+00 -0.00000000000E+00 -0.50000000000E+03  0.50000000000E+03  0.00000000000E+00 0. -1.
         23    2    1    2    0    0 -0.32117780896E+02  0.40446867628E+02  0.24152383010E+03  0.26704525759E+03  0.10154756592E+03 0.  0.
        -11    1    1    2    0    0  0.14029618857E+03 -0.20432665121E+02  0.21821979510E+03  0.26023142259E+03  0.00000000000E+00 0.  1.
         11    1    1    2    0    0 -0.10817840767E+03 -0.20014202507E+02 -0.45974362520E+03  0.47272331982E+03  0.00000000000E+00 0. -1.
        -15    1    3    3    0    0 -0.10785236763E+02  0.50617943013E+02  0.23740857084E+03  0.24299070913E+03  0.17770000000E+01 0. -1.
         15    1    3    3    0    0 -0.21332544134E+02 -0.10171075386E+02  0.41152592605E+01  0.24054548457E+02  0.17770000000E+01 0.  1.
</event>
<event>
 7    1  0.2288857E-006  0.3240692E+03  0.7546771E-02  0.9911902E-01
        -11   -1    0    0    0    0  0.00000000000E+00  0.00000000000E+00  0.50000000000E+03  0.50000000000E+03  0.00000000000E+00 0.  1.
         11   -1    0    0    0    0 -0.00000000000E+00 -0.00000000000E+00 -0.50000000000E+03  0.50000000000E+03  0.00000000000E+00 0. -1.
         23    2    1    2    0    0  0.71209919843E+01  0.15298864727E+03  0.23300870554E+03  0.29442748426E+03  0.94542328655E+02 0.  0.
        -11    1    1    2    0    0 -0.14529284117E+03 -0.22857688607E+03  0.13693841039E+03  0.30349552020E+03  0.00000000000E+00 0.  1.
         11    1    1    2    0    0  0.13817184919E+03  0.75588238801E+02 -0.36994711593E+03  0.40207699554E+03  0.00000000000E+00 0. -1.
        -15    1    3    3    0    0 -0.20830801630E+02  0.15014880266E+03  0.19082700585E+03  0.24371435971E+03  0.17770000000E+01 0.  1.
         15    1    3    3    0    0  0.27951793614E+02  0.28398446088E+01  0.42181699691E+02  0.50713124548E+02  0.17770000000E+01 0. -1.
</event>
<event>
 7    1  0.2288857E-006  0.5220182E+03  0.7546771E-02  0.9351847E-01
        -11   -1    0    0    0    0  0.00000000000E+00  0.00000000000E+00  0.50000000000E+03  0.50000000000E+03  0.00000000000E+00 0. -1.
         11   -1    0    0    0    0 -0.00000000000E+00 -0.00000000000E+00 -0.50000000000E+03  0.50000000000E+03  0.00000000000E+00 0. -1.
         23    2    1    2    0    0 -0.11289988075E+01  0.31288997370E+02  0.18785694728E+03  0.21195688364E+03  0.93033391251E+02 0.  0.
        -11    1    1    2    0    0 -0.72238097318E+01  0.21927037373E+03  0.21910351437E+03  0.31006133302E+03  0.00000000000E+00 0. -1.
         11    1    1    2    0    0  0.83528085393E+01 -0.25055937110E+03 -0.40696046165E+03  0.47798178334E+03  0.00000000000E+00 0. -1.
        -15    1    3    3    0    0  0.24831317749E+02  0.46337837022E+02  0.16772170876E+03  0.17577690064E+03  0.17770000000E+01 0.  1.
         15    1    3    3    0    0 -0.25960316556E+02 -0.15048839652E+02  0.20135238516E+02  0.36179982997E+02  0.17770000000E+01 0. -1.
</event>
<event>
 7    1  0.2288857E-006  0.4768457E+03  0.7546771E-02  0.9453164E-01
        -11   -1    0    0    0    0  0.00000000000E+00  0.00000000000E+00  0.50000000000E+03  0.50000000000E+03  0.00000000000E+00 0.  1.
         11   -1    0    0    0    0 -0.00000000000E+00 -0.00000000000E+00 -0.50000000000E+03  0.50000000000E+03  0.00000000000E+00 0. -1.
         23    2    1    2    0    0  0.34380125911E+02  0.14200251268E+03 -0.42781222791E+03  0.46088136606E+03  0.89675105612E+02 0.  0.
        -11    1    1    2    0    0 -0.31665453100E+02 -0.11184432321E+03  0.47169286866E+03  0.48580450379E+03  0.00000000000E+00 0.  1.
         11    1    1    2    0    0 -0.27146728106E+01 -0.30158189471E+02 -0.43880640756E+02  0.53314130151E+02  0.00000000000E+00 0. -1.
        -15    1    3    3    0    0  0.98763995592E+01  0.45170713465E+02 -0.27120437003E+03  0.27512343535E+03  0.17770000000E+01 0.  1.
         15    1    3    3    0    0  0.24503726352E+02  0.96831799219E+02 -0.15660785787E+03  0.18575793071E+03  0.17770000000E+01 0. -1.
</event>
<event>
 7    1  0.2288857E-006  0.5115215E+03  0.7546771E-02  0.9374392E-01
        -11   -1    0    0    0    0  0.00000000000E+00  0.00000000000E+00  0.50000000000E+03  0.50000000000E+03  0.00000000000E+00 0. -1.
         11   -1    0    0    0    0 -0.00000000000E+00 -0.00000000000E+00 -0.50000000000E+03  0.50000000000E+03  0.00000000000E+00 0.  1.
         23    2    1    2    0    0 -0.71923654320E+02  0.56804226505E+02  0.36189285072E+03  0.38442788124E+03  0.91753083194E+02 0.  0.
        -11    1    1    2    0    0 -0.67549840935E+02  0.54544096563E+02  0.92815732015E+02  0.12709366463E+03  0.00000000000E+00 0. -1.
         11    1    1    2    0    0  0.13947349526E+03 -0.11134832307E+03 -0.45470858274E+03  0.48847845412E+03  0.00000000000E+00 0.  1.
        -15    1    3    3    0    0  0.32121300108E+01  0.54035341517E+02  0.13837790291E+03  0.14859925186E+03  0.17770000000E+01 0.  1.
         15    1    3    3    0    0 -0.75135784331E+02  0.27688849878E+01  0.22351494781E+03  0.23582862938E+03  0.17770000000E+01 0. -1.
</event>
<event>
 7    1  0.2288857E-006  0.5121683E+03  0.7546771E-02  0.9372986E-01
        -11   -1    0    0    0    0  0.00000000000E+00  0.00000000000E+00  0.50000000000E+03  0.50000000000E+03  0.00000000000E+00 0.  1.
         11   -1    0    0    0    0 -0.00000000000E+00 -0.00000000000E+00 -0.50000000000E+03  0.50000000000E+03  0.00000000000E+00 0. -1.
         23    2    1    2    0    0 -0.18579977549E+02 -0.88712832394E+02  0.33998338835E+03  0.36373653303E+03  0.92197499491E+02 0.  0.
        -11    1    1    2    0    0  0.49712398432E+02 -0.73327336010E+02  0.11909561665E+03  0.14843175762E+03  0.00000000000E+00 0.  1.
         11    1    1    2    0    0 -0.31132420883E+02  0.16204016840E+03 -0.45907900500E+03  0.48783170934E+03  0.00000000000E+00 0. -1.
        -15    1    3    3    0    0 -0.33537715660E+02 -0.45509978668E+02  0.70440511502E+02  0.90338031415E+02  0.17770000000E+01 0. -1.
         15    1    3    3    0    0  0.14957738112E+02 -0.43202853725E+02  0.26954287685E+03  0.27339850162E+03  0.17770000000E+01 0.  1.
</event>
<event>
 7    1  0.2288857E-006  0.3552612E+03  0.7546771E-02  0.9798689E-01
        -11   -1    0    0    0    0  0.00000000000E+00  0.00000000000E+00  0.50000000000E+03  0.50000000000E+03  0.00000000000E+00 0. -1.
         11   -1    0    0    0    0 -0.00000000000E+00 -0.00000000000E+00 -0.50000000000E+03  0.50000000000E+03  0.00000000000E+00 0.  1.
         23    2    1    2    0    0  0.28888524781E+02  0.11975398809E+03  0.25164434796E+03  0.29509011619E+03  0.92616058483E+02 0.  0.
        -11    1    1    2    0    0 -0.20718836435E+03 -0.24099346031E+02  0.14881916105E+03  0.25623219840E+03  0.00000000000E+00 0. -1.
         11    1    1    2    0    0  0.17829983957E+03 -0.95654642057E+02 -0.40046350901E+03  0.44867768541E+03  0.00000000000E+00 0.  1.
        -15    1    3    3    0    0  0.22475524890E+02  0.21931672673E+02  0.79963034663E+01  0.32453752995E+02  0.17770000000E+01 0.  1.
         15    1    3    3    0    0  0.64129998914E+01  0.97822315414E+02  0.24364804449E+03  0.26263636320E+03  0.17770000000E+01 0. -1.
</event>
<event>
 7    1  0.2288857E-006  0.4731872E+03  0.7546771E-02  0.9461889E-01
        -11   -1    0    0    0    0  0.00000000000E+00  0.00000000000E+00  0.50000000000E+03  0.50000000000E+03  0.00000000000E+00 0. -1.
         11   -1    0    0    0    0 -0.00000000000E+00 -0.00000000000E+00 -0.50000000000E+03  0.50000000000E+03  0.00000000000E+00 0. -1.
         23    2    1    2    0    0 -0.54876796429E+02  0.42664699853E+02 -0.43355786991E+03  0.44825520878E+03  0.90158561677E+02 0.  0.
        -11    1    1    2    0    0  0.39981100771E+02 -0.71326811982E+02  0.48454007457E+03  0.49139097101E+03  0.00000000000E+00 0. -1.
         11    1    1    2    0    0  0.14895695659E+02  0.28662112130E+02 -0.50982204665E+02  0.60353820206E+02  0.00000000000E+00 0. -1.
        -15    1    3    3    0    0 -0.21951017019E+02  0.68340909245E+02 -0.25947534726E+03  0.26922655997E+03  0.17770000000E+01 0.  1.
         15    1    3    3    0    0 -0.32925779411E+02 -0.25676209393E+02 -0.17408252264E+03  0.17902864882E+03  0.17770000000E+01 0. -1.
</event>
<event>
 7    1  0.2288857E-006  0.5361966E+03  0.7546771E-02  0.9322271E-01
        -11   -1    0    0    0    0  0.00000000000E+00  0.00000000000E+00  0.50000000000E+03  0.50000000000E+03  0.00000000000E+00 0. -1.
         11   -1    0    0    0    0 -0.00000000000E+00 -0.00000000000E+00 -0.50000000000E+03  0.50000000000E+03  0.00000000000E+00 0.  1.
         23    2    1    2    0    0 -0.26433987040E+00 -0.20804930649E+02  0.32040601695E+03  0.33367218020E+03  0.90797539210E+02 0.  0.
        -11    1    1    2    0    0 -0.15279166840E+03  0.66665459777E+02  0.11500675767E+03  0.20252439796E+03  0.00000000000E+00 0. -1.
         11    1    1    2    0    0  0.15305600827E+03 -0.45860529128E+02 -0.43541277463E+03  0.46380342184E+03  0.00000000000E+00 0.  1.
        -15    1    3    3    0    0 -0.27857921224E+02 -0.47251616645E+02  0.19089991102E+03  0.19863210417E+03  0.17770000000E+01 0. -1.
         15    1    3    3    0    0  0.27593581353E+02  0.26446685996E+02  0.12950610593E+03  0.13504007603E+03  0.17770000000E+01 0.  1.
</event>
<event>
 7    1  0.2288857E-006  0.5119829E+03  0.7546771E-02  0.9373389E-01
        -11   -1    0    0    0    0  0.00000000000E+00  0.00000000000E+00  0.50000000000E+03  0.50000000000E+03  0.00000000000E+00 0.  1.
         11   -1    0    0    0    0 -0.00000000000E+00 -0.00000000000E+00 -0.50000000000E+03  0.50000000000E+03  0.00000000000E+00 0. -1.
         23    2    1    2    0    0  0.64439333405E+02  0.15174123713E+02  0.37717821545E+03  0.39512650826E+03  0.97359486452E+02 0.  0.
        -11    1    1    2    0    0  0.19231246052E+02 -0.53526688992E+02  0.10208064233E+03  0.11685634256E+03  0.00000000000E+00 0.  1.
         11    1    1    2    0    0 -0.83670579458E+02  0.38352565279E+02 -0.47925885778E+03  0.48801714917E+03  0.00000000000E+00 0. -1.
        -15    1    3    3    0    0  0.68059019503E+02 -0.18405116196E+02  0.32763828626E+03  0.33514292890E+03  0.17770000000E+01 0.  1.
         15    1    3    3    0    0 -0.36196860978E+01  0.33579239909E+02  0.49539929188E+02  0.59983579363E+02  0.17770000000E+01 0. -1.
</event>
<event>
 7    1  0.2288857E-006  0.4923227E+03  0.7546771E-02  0.9417154E-01
        -11   -1    0    0    0    0  0.00000000000E+00  0.00000000000E+00  0.50000000000E+03  0.50000000000E+03  0.00000000000E+00 0. -1.
         11   -1    0    0    0    0 -0.00000000000E+00 -0.00000000000E+00 -0.50000000000E+03  0.50000000000E+03  0.00000000000E+00 0.  1.
         23    2    1    2    0    0 -0.66780202376E+02 -0.26752420524E+03 -0.38956875716E+03  0.48578049077E+03  0.90499021194E+02 0.  0.
        -11    1    1    2    0    0  0.73030909112E+02  0.29013141634E+03  0.38901571657E+03  0.49075755743E+03  0.00000000000E+00 0. -1.
         11    1    1    2    0    0 -0.62507067362E+01 -0.22607211101E+02  0.55304058984E+00  0.23461951802E+02  0.00000000000E+00 0.  1.
        -15    1    3    3    0    0  0.16260459311E+02 -0.47680788548E+02 -0.39028282884E+02  0.63751272359E+02  0.17770000000E+01 0. -1.
         15    1    3    3    0    0 -0.83040661687E+02 -0.21984341670E+03 -0.35054047428E+03  0.42202921841E+03  0.17770000000E+01 0.  1.
</event>
<event>
 7    1  0.2288857E-006  0.3684642E+03  0.7546771E-02  0.9754461E-01
        -11   -1    0    0    0    0  0.00000000000E+00  0.00000000000E+00  0.50000000000E+03  0.50000000000E+03  0.00000000000E+00 0.  1.
         11   -1    0    0    0    0 -0.00000000000E+00 -0.00000000000E+00 -0.50000000000E+03  0.50000000000E+03  0.00000000000E+00 0. -1.
         23    2    1    2    0    0 -0.15790269185E+03 -0.57461486021E+02  0.13013767424E+03  0.23303563148E+03  0.95575670609E+02 0.  0.
        -11    1    1    2    0    0  0.87109217834E+02  0.11695293003E+03  0.29649949515E+03  0.33042087449E+03  0.00000000000E+00 0.  1.
         11    1    1    2    0    0  0.70793474019E+02 -0.59491444009E+02 -0.42663716939E+03  0.43654349403E+03  0.00000000000E+00 0. -1.
        -15    1    3    3    0    0 -0.12415972043E+03 -0.71704083441E+02  0.13388344180E+03  0.19617605735E+03  0.17770000000E+01 0.  1.
         15    1    3    3    0    0 -0.33742971424E+02  0.14242597420E+02 -0.37457675559E+01  0.36859574135E+02  0.17770000000E+01 0. -1.
</event>
<event>
 6    1  0.2288857E-006  0.3324848E+03  0.7546771E-02  0.9880050E-01
        -11   -1    0    0    0    0  0.00000000000E+00  0.00000000000E+00  0.50000000000E+03  0.50000000000E+03  0.00000000000E+00 0.  1.
         11   -1    0    0    0    0 -0.00000000000E+00 -0.00000000000E+00 -0.50000000000E+03  0.50000000000E+03  0.00000000000E+00 0.  1.
        -11    1    1    2    0    0  0.14434409482E+03  0.59942867676E+02  0.35452385591E+03  0.38744745386E+03  0.00000000000E+00 0.  1.
         11    1    1    2    0    0  0.57051917319E+02  0.36945430358E+02 -0.30819601491E+03  0.31560207493E+03  0.00000000000E+00 0.  1.
        -15    1    1    2    0    0 -0.76478329093E+02 -0.15252793005E+02 -0.10987290505E+03  0.13474715399E+03  0.17770000000E+01 0. -1.
         15    1    1    2    0    0 -0.12491768305E+03 -0.81635505028E+02  0.63545064052E+02  0.16220331721E+03  0.17770000000E+01 0.  1.
</event>
<event>
 7    1  0.2288857E-006  0.5082328E+03  0.7546771E-02  0.9381574E-01
        -11   -1    0    0    0    0  0.00000000000E+00  0.00000000000E+00  0.50000000000E+03  0.50000000000E+03  0.00000000000E+00 0.  1.
         11   -1    0    0    0    0 -0.00000000000E+00 -0.00000000000E+00 -0.50000000000E+03  0.50000000000E+03  0.00000000000E+00 0. -1.
         23    2    1    2    0    0 -0.43647079432E+02  0.59953708929E+02  0.47771187361E+03  0.49176722000E+03  0.90149041677E+02 0.  0.
        -11    1    1    2    0    0 -0.40918968425E+02 -0.25114700472E+02 -0.44470984724E+02  0.65442941859E+02  0.00000000000E+00 0.  1.
         11    1    1    2    0    0  0.84566047857E+02 -0.34839008457E+02 -0.43324088889E+03  0.44278983815E+03  0.00000000000E+00 0. -1.
        -15    1    3    3    0    0 -0.41806006224E+02  0.75150231669E+02  0.46131449827E+03  0.46926487565E+03  0.17770000000E+01 0.  1.
         15    1    3    3    0    0 -0.18410732082E+01 -0.15196522740E+02  0.16397375344E+02  0.22502344347E+02  0.17770000000E+01 0. -1.
</event>
<event>
 7    1  0.2288857E-006  0.3913155E+03  0.7546771E-02  0.9682415E-01
        -11   -1    0    0    0    0  0.00000000000E+00  0.00000000000E+00  0.50000000000E+03  0.50000000000E+03  0.00000000000E+00 0. -1.
         11   -1    0    0    0    0 -0.00000000000E+00 -0.00000000000E+00 -0.50000000000E+03  0.50000000000E+03  0.00000000000E+00 0.  1.
         23    2    1    2    0    0 -0.19033334108E+01  0.27149670537E+03  0.29286709823E+03  0.40929511006E+03  0.89650801418E+02 0.  0.
        -11    1    1    2    0    0  0.16957452105E+03 -0.10803964182E+03  0.17595960659E+02  0.20183582493E+03  0.00000000000E+00 0. -1.
         11    1    1    2    0    0 -0.16767118764E+03 -0.16345706355E+03 -0.31046305889E+03  0.38886906501E+03  0.00000000000E+00 0.  1.
        -15    1    3    3    0    0  0.22360172694E+02  0.14551974325E+03  0.10125993338E+03  0.17869724350E+03  0.17770000000E+01 0.  1.
         15    1    3    3    0    0 -0.24263506105E+02  0.12597696212E+03  0.19160716485E+03  0.23059786656E+03  0.17770000000E+01 0. -1.
</event>
<event>
 7    1  0.2288857E-006  0.4731398E+03  0.7546771E-02  0.9462002E-01
        -11   -1    0    0    0    0  0.00000000000E+00  0.00000000000E+00  0.50000000000E+03  0.50000000000E+03  0.00000000000E+00 0.  1.
         11   -1    0    0    0    0 -0.00000000000E+00 -0.00000000000E+00 -0.50000000000E+03  0.50000000000E+03  0.00000000000E+00 0.  1.
         23    2    1    2    0    0 -0.15613022567E+03  0.10218346894E+03  0.44204596263E+03  0.49070312728E+03  0.10279502590E+03 0.  0.
        -11    1    1    2    0    0  0.30180361691E+02 -0.52617605980E+02 -0.16672271343E+02  0.62908118098E+02  0.00000000000E+00 0.  1.
         11    1    1    2    0    0  0.12594986398E+03 -0.49565862962E+02 -0.42537369129E+03  0.44638875462E+03  0.00000000000E+00 0.  1.
        -15    1    3    3    0    0 -0.17060122084E+03  0.90638049349E+02  0.41629557545E+03  0.45893920775E+03  0.17770000000E+01 0.  1.
         15    1    3    3    0    0  0.14470995170E+02  0.11545419594E+02  0.25750387182E+02  0.31763919529E+02  0.17770000000E+01 0. -1.
</event>
<event>
 7    1  0.2288857E-006  0.4593276E+03  0.7546771E-02  0.9495719E-01
        -11   -1    0    0    0    0  0.00000000000E+00  0.00000000000E+00  0.50000000000E+03  0.50000000000E+03  0.00000000000E+00 0. -1.
         11   -1    0    0    0    0 -0.00000000000E+00 -0.00000000000E+00 -0.50000000000E+03  0.50000000000E+03  0.00000000000E+00 0.  1.
         23    2    1    2    0    0 -0.15299813718E+03 -0.22574756627E+02 -0.38964056316E+03  0.42900238973E+03  0.91133047293E+02 0.  0.
        -11    1    1    2    0    0  0.12473464952E+03  0.53376572651E+02  0.46523472764E+03  0.48461442725E+03  0.00000000000E+00 0. -1.
         11    1    1    2    0    0  0.28263487666E+02 -0.30801816024E+02 -0.75594164479E+02  0.86383183020E+02  0.00000000000E+00 0.  1.
        -15    1    3    3    0    0 -0.13808582021E+03 -0.46385613426E+02 -0.35879459513E+03  0.38724157589E+03  0.17770000000E+01 0.  1.
         15    1    3    3    0    0 -0.14912316976E+02  0.23810856799E+02 -0.30845968031E+02  0.41760813831E+02  0.17770000000E+01 0. -1.
</event>
<event>
 7    1  0.2288857E-006  0.3642906E+03  0.7546771E-02  0.9768225E-01
        -11   -1    0    0    0    0  0.00000000000E+00  0.00000000000E+00  0.50000000000E+03  0.50000000000E+03  0.00000000000E+00 0.  1.
         11   -1    0    0    0    0 -0.00000000000E+00 -0.00000000000E+00 -0.50000000000E+03  0.50000000000E+03  0.00000000000E+00 0. -1.
         23    2    1    2    0    0 -0.36883681261E+02 -0.10345573487E+03  0.29794299157E+03  0.33032696460E+03  0.91007594723E+02 0.  0.
        -11    1    1    2    0    0 -0.39669851771E+02  0.21450199734E+03  0.10692072935E+03  0.24293383126E+03  0.00000000000E+00 0.  1.
         11    1    1    2    0    0  0.76553533032E+02 -0.11104626248E+03 -0.40486372092E+03  0.42673920414E+03  0.00000000000E+00 0. -1.
        -15    1    3    3    0    0 -0.66760330517E+02 -0.59417648596E+02  0.18778480066E+03  0.20797520954E+03  0.17770000000E+01 0.  1.
         15    1    3    3    0    0  0.29876649255E+02 -0.44038086272E+02  0.11015819091E+03  0.12235175506E+03  0.17770000000E+01 0. -1.
</event>
<event>
 7    1  0.2288857E-006  0.5108345E+03  0.7546771E-02  0.9375888E-01
        -11   -1    0    0    0    0  0.00000000000E+00  0.00000000000E+00  0.50000000000E+03  0.50000000000E+03  0.00000000000E+00 0.  1.
         11   -1    0    0    0    0 -0.00000000000E+00 -0.00000000000E+00 -0.50000000000E+03  0.50000000000E+03  0.00000000000E+00 0.  1.
         23    2    1    2    0    0  0.53293088929E+02 -0.49256194212E+02  0.36826199656E+03  0.38653349132E+03  0.92330470607E+02 0.  0.
        -11    1    1    2    0    0 -0.27467761936E+02 -0.51608332094E+02  0.10969434301E+03  0.12430103288E+03  0.00000000000E+00 0.  1.
         11    1    1    2    0    0 -0.25825326993E+02  0.10086452631E+03 -0.47795633957E+03  0.48916547580E+03  0.00000000000E+00 0.  1.
        -15    1    3    3    0    0  0.32434692654E+02 -0.55784368744E+02  0.35518212606E+03  0.36100056161E+03  0.17770000000E+01 0.  1.
         15    1    3    3    0    0  0.20858396275E+02  0.65281745322E+01  0.13079870501E+02  0.25532929703E+02  0.17770000000E+01 0. -1.
</event>
<event>
 7    1  0.2288857E-006  0.3760695E+03  0.7546771E-02  0.9729876E-01
        -11   -1    0    0    0    0  0.00000000000E+00  0.00000000000E+00  0.50000000000E+03  0.50000000000E+03  0.00000000000E+00 0.  1.
         11   -1    0    0    0    0 -0.00000000000E+00 -0.00000000000E+00 -0.50000000000E+03  0.50000000000E+03  0.00000000000E+00 0. -1.
         23    2    1    2    0    0  0.75379851716E+02  0.67859925878E+02  0.17429349059E+03  0.22129695843E+03  0.91142917239E+02 0.  0.
        -11    1    1    2    0    0 -0.18299973666E+03 -0.12533930198E+03  0.25175524631E+03  0.33552875924E+03  0.00000000000E+00 0.  1.
         11    1    1    2    0    0  0.10761988494E+03  0.57479376101E+02 -0.42604873689E+03  0.44317428233E+03  0.00000000000E+00 0. -1.
        -15    1    3    3    0    0  0.73650782988E+02  0.82182484527E+01  0.75072101618E+02  0.10550334408E+03  0.17770000000E+01 0. -1.
         15    1    3    3    0    0  0.17290687279E+01  0.59641677426E+02  0.99221388968E+02  0.11579361434E+03  0.17770000000E+01 0.  1.
</event>
<event>
 7    1  0.2288857E-006  0.3755391E+03  0.7546771E-02  0.9731571E-01
        -11   -1    0    0    0    0  0.00000000000E+00  0.00000000000E+00  0.50000000000E+03  0.50000000000E+03  0.00000000000E+00 0.  1.
         11   -1    0    0    0    0 -0.00000000000E+00 -0.00000000000E+00 -0.50000000000E+03  0.50000000000E+03  0.00000000000E+00 0. -1.
         23    2    1    2    0    0 -0.15245529937E+02  0.17911357171E+03  0.28949356291E+03  0.35260218438E+03  0.90596245571E+02 0.  0.
        -11    1    1    2    0    0  0.21388737649E+03  0.71930658074E+02 -0.15783052933E+02  0.22620993381E+03  0.00000000000E+00 0.  1.
         11    1    1    2    0    0 -0.19864184656E+03 -0.25104422978E+03 -0.27371050997E+03  0.42118788181E+03  0.00000000000E+00 0. -1.
        -15    1    3    3    0    0  0.15741439812E+01  0.14435319374E+03  0.27631882842E+03  0.31176204891E+03  0.17770000000E+01 0.  1.
         15    1    3    3    0    0 -0.16819673918E+02  0.34760377971E+02  0.13174734486E+02  0.40840135470E+02  0.17770000000E+01 0. -1.
</event>
<event>
 7    1  0.2288857E-006  0.4402220E+03  0.7546771E-02  0.9544497E-01
        -11   -1    0    0    0    0  0.00000000000E+00  0.00000000000E+00  0.50000000000E+03  0.50000000000E+03  0.00000000000E+00 0. -1.
         11   -1    0    0    0    0 -0.00000000000E+00 -0.00000000000E+00 -0.50000000000E+03  0.50000000000E+03  0.00000000000E+00 0.  1.
         23    2    1    2    0    0 -0.11291527104E+03  0.14653180093E+03 -0.35600502678E+03  0.41161345910E+03  0.92003442872E+02 0.  0.
        -11    1    1    2    0    0  0.49354482598E+02 -0.10917484851E+03  0.45185063000E+03  0.46746551138E+03  0.00000000000E+00 0. -1.
         11    1    1    2    0    0  0.63560788446E+02 -0.37356952424E+02 -0.95845603218E+02  0.12092102951E+03  0.00000000000E+00 0.  1.
        -15    1    3    3    0    0 -0.11576037505E+03  0.82654259904E+02 -0.25701193470E+03  0.29375241858E+03  0.17770000000E+01 0.  1.
         15    1    3    3    0    0  0.28451040086E+01  0.63877541029E+02 -0.98993092084E+02  0.11786104053E+03  0.17770000000E+01 0. -1.
</event>
<event>
 7    1  0.2288857E-006  0.5187998E+03  0.7546771E-02  0.9358699E-01
        -11   -1    0    0    0    0  0.00000000000E+00  0.00000000000E+00  0.50000000000E+03  0.50000000000E+03  0.00000000000E+00 0.  1.
         11   -1    0    0    0    0 -0.00000000000E+00 -0.00000000000E+00 -0.50000000000E+03  0.50000000000E+03  0.00000000000E+00 0. -1.
         23    2    1    2    0    0  0.55131641912E+02 -0.58778681992E+01  0.19255017659E+03  0.21997609907E+03  0.90773709740E+02 0.  0.
        -11    1    1    2    0    0 -0.57510456065E+02 -0.90741201750E+02  0.27884432427E+03  0.29882365272E+03  0.00000000000E+00 0.  1.
         11    1    1    2    0    0  0.23788141535E+01  0.96619069949E+02 -0.47139450086E+03  0.48120024821E+03  0.00000000000E+00 0. -1.
        -15    1    3    3    0    0  0.42476406659E+02 -0.38227295713E+02  0.16783894354E+03  0.17730944689E+03  0.17770000000E+01 0.  1.
         15    1    3    3    0    0  0.12655235253E+02  0.32349427513E+02  0.24711233058E+02  0.42666652177E+02  0.17770000000E+01 0. -1.
</event>
<event>
 7    1  0.2288857E-006  0.4857689E+03  0.7546771E-02  0.9432228E-01
        -11   -1    0    0    0    0  0.00000000000E+00  0.00000000000E+00  0.50000000000E+03  0.50000000000E+03  0.00000000000E+00 0.  1.
         11   -1    0    0    0    0 -0.00000000000E+00 -0.00000000000E+00 -0.50000000000E+03  0.50000000000E+03  0.00000000000E+00 0.  1.
         23    2    1    2    0    0  0.52726471179E+02 -0.15311188638E+02  0.48143932467E+03  0.49309728220E+03  0.91359690840E+02 0.  0.
        -11    1    1    2    0    0  0.27276804048E+02  0.16309264678E+02 -0.17831331499E+02  0.36441357500E+02  0.00000000000E+00 0.  1.
         11    1    1    2    0    0 -0.80003275226E+02 -0.99807603978E+00 -0.46360799317E+03  0.47046136030E+03  0.00000000000E+00 0.  1.
        -15    1    3    3    0    0  0.11494995835E+02 -0.50153629486E+02  0.19986952259E+03  0.20639405337E+03  0.17770000000E+01 0. -1.
         15    1    3    3    0    0  0.41231475344E+02  0.34842440848E+02  0.28156980209E+03  0.28670322883E+03  0.17770000000E+01 0.  1.
</event>
<event>
 7    1  0.2288857E-006  0.5088314E+03  0.7546771E-02  0.9380263E-01
        -11   -1    0    0    0    0  0.00000000000E+00  0.00000000000E+00  0.50000000000E+03  0.50000000000E+03  0.00000000000E+00 0.  1.
         11   -1    0    0    0    0 -0.00000000000E+00 -0.00000000000E+00 -0.50000000000E+03  0.50000000000E+03  0.00000000000E+00 0.  1.
         23    2    1    2    0    0  0.55861943784E+02 -0.26423593515E+01  0.36845287586E+03  0.38324564285E+03  0.89398893749E+02 0.  0.
        -11    1    1    2    0    0  0.19961028695E+02  0.46809234284E+02  0.11481389753E+03  0.12558574022E+03  0.00000000000E+00 0.  1.
         11    1    1    2    0    0 -0.75822972479E+02 -0.44166874933E+02 -0.48326677339E+03  0.49116861693E+03  0.00000000000E+00 0.  1.
        -15    1    3    3    0    0  0.21103864546E+02 -0.39065409353E+02  0.91162877982E+02  0.10141650437E+03  0.17770000000E+01 0.  1.
         15    1    3    3    0    0  0.34758079238E+02  0.36423050002E+02  0.27728999788E+03  0.28182913848E+03  0.17770000000E+01 0. -1.
</event>
<event>
 7    1  0.2288857E-006  0.4624859E+03  0.7546771E-02  0.9487899E-01
        -11   -1    0    0    0    0  0.00000000000E+00  0.00000000000E+00  0.50000000000E+03  0.50000000000E+03  0.00000000000E+00 0.  1.
         11   -1    0    0    0    0 -0.00000000000E+00 -0.00000000000E+00 -0.50000000000E+03  0.50000000000E+03  0.00000000000E+00 0. -1.
         23    2    1    2    0    0  0.99539944967E+02  0.98913050473E+02 -0.39656990379E+03  0.43049394082E+03  0.91462299841E+02 0.  0.
        -11    1    1    2    0    0 -0.10706056588E+03 -0.70763081075E+02  0.47174104565E+03  0.48888545955E+03  0.00000000000E+00 0.  1.
         11    1    1    2    0    0  0.75206209086E+01 -0.28149969398E+02 -0.75171141862E+02  0.80620599630E+02  0.00000000000E+00 0. -1.
        -15    1    3    3    0    0  0.60473792519E+02  0.42048253197E+02 -0.31567999367E+03  0.32416377236E+03  0.17770000000E+01 0. -1.
         15    1    3    3    0    0  0.39066152447E+02  0.56864797276E+02 -0.80889910120E+02  0.10633016846E+03  0.17770000000E+01 0.  1.
</event>
<event>
 7    1  0.2288857E-006  0.4641572E+03  0.7546771E-02  0.9483788E-01
        -11   -1    0    0    0    0  0.00000000000E+00  0.00000000000E+00  0.50000000000E+03  0.50000000000E+03  0.00000000000E+00 0.  1.
         11   -1    0    0    0    0 -0.00000000000E+00 -0.00000000000E+00 -0.50000000000E+03  0.50000000000E+03  0.00000000000E+00 0.  1.
         23    2    1    2    0    0  0.29254369110E+03  0.10829503364E+03  0.35298116164E+03  0.48032540502E+03  0.93846516824E+02 0.  0.
        -11    1    1    2    0    0 -0.49190930729E+02  0.55960310034E+02 -0.22976399192E+02  0.77969345803E+02  0.00000000000E+00 0.  1.
         11    1    1    2    0    0 -0.24335276038E+03 -0.16425534368E+03 -0.33000476245E+03  0.44170524917E+03  0.00000000000E+00 0.  1.
        -15    1    3    3    0    0  0.10257265297E+03  0.81056762827E+01  0.16727255023E+03  0.19639275678E+03  0.17770000000E+01 0. -1.
         15    1    3    3    0    0  0.18997103813E+03  0.10018935736E+03  0.18570861141E+03  0.28393264824E+03  0.17770000000E+01 0.  1.
</event>
<event>
 7    1  0.2288857E-006  0.5225901E+03  0.7546771E-02  0.9350635E-01
        -11   -1    0    0    0    0  0.00000000000E+00  0.00000000000E+00  0.50000000000E+03  0.50000000000E+03  0.00000000000E+00 0.  1.
         11   -1    0    0    0    0 -0.00000000000E+00 -0.00000000000E+00 -0.50000000000E+03  0.50000000000E+03  0.00000000000E+00 0.  1.
         23    2    1    2    0    0 -0.10459109020E+03 -0.91992792698E+01  0.20470061444E+03  0.24715802178E+03  0.90337275190E+02 0.  0.
        -11    1    1    2    0    0  0.49183525962E+02 -0.58375332803E+02  0.26464344609E+03  0.27543211916E+03  0.00000000000E+00 0.  1.
         11    1    1    2    0    0  0.55407564241E+02  0.67574612073E+02 -0.46934406053E+03  0.47740985906E+03  0.00000000000E+00 0.  1.
        -15    1    3    3    0    0 -0.47417938923E+02  0.66491700686E+00  0.16552608737E+02  0.50259821243E+02  0.17770000000E+01 0.  1.
         15    1    3    3    0    0 -0.57173151279E+02 -0.98641962767E+01  0.18814800570E+03  0.19689820054E+03  0.17770000000E+01 0. -1.
</event>
<event>
 7    1  0.3874943E-006  0.5070685E+03  0.7546771E-02  0.9384131E-01
        -11   -1    0    0    0    0  0.00000000000E+00  0.00000000000E+00  0.50000000000E+03  0.50000000000E+03  0.00000000000E+00 0. -1.
         11   -1    0    0    0    0 -0.00000000000E+00 -0.00000000000E+00 -0.50000000000E+03  0.50000000000E+03  0.00000000000E+00 0.  1.
         23    2    1    2    0    0 -0.49040816439E+02  0.15975922092E+02 -0.35201927367E+03  0.36806532355E+03  0.94309499022E+02 0.  0.
        -11    1    1    2    0    0  0.91480806963E+02 -0.33678794490E+02  0.48319605690E+03  0.49293146445E+03  0.00000000000E+00 0. -1.
         11    1    1    2    0    0 -0.42439990524E+02  0.17702872398E+02 -0.13117678323E+03  0.13900321200E+03  0.00000000000E+00 0.  1.
        -15    1    3    3    0    0 -0.52116982205E+02  0.50522268788E+02 -0.24721812244E+03  0.25765992562E+03  0.17770000000E+01 0.  1.
         15    1    3    3    0    0  0.30761657659E+01 -0.34546346695E+02 -0.10480115123E+03  0.11040539794E+03  0.17770000000E+01 0. -1.
</event>
<event>
 7    1  0.2288857E-006  0.4370686E+03  0.7546771E-02  0.9552801E-01
        -11   -1    0    0    0    0  0.00000000000E+00  0.00000000000E+00  0.50000000000E+03  0.50000000000E+03  0.00000000000E+00 0. -1.
         11   -1    0    0    0    0 -0.00000000000E+00 -0.00000000000E+00 -0.50000000000E+03  0.50000000000E+03  0.00000000000E+00 0. -1.
         23    2    1    2    0    0 -0.64333076870E+02 -0.17048481272E+03  0.35529720626E+03  0.40921718950E+03  0.89547681462E+02 0.  0.
        -11    1    1    2    0    0  0.10277885198E+03 -0.69320431249E+01  0.72563315602E+02  0.12600389045E+03  0.00000000000E+00 0. -1.
         11    1    1    2    0    0 -0.38445775110E+02  0.17741685585E+03 -0.42786052186E+03  0.46477892006E+03  0.00000000000E+00 0. -1.
        -15    1    3    3    0    0 -0.25099582683E+02 -0.99397682283E+02  0.28108655169E+03  0.29920343508E+03  0.17770000000E+01 0. -1.
         15    1    3    3    0    0 -0.39233494187E+02 -0.71087130440E+02  0.74210654573E+02  0.11001375442E+03  0.17770000000E+01 0.  1.
</event>
<event>
 7    1  0.2288857E-006  0.4595176E+03  0.7546771E-02  0.9495247E-01
        -11   -1    0    0    0    0  0.00000000000E+00  0.00000000000E+00  0.50000000000E+03  0.50000000000E+03  0.00000000000E+00 0. -1.
         11   -1    0    0    0    0 -0.00000000000E+00 -0.00000000000E+00 -0.50000000000E+03  0.50000000000E+03  0.00000000000E+00 0.  1.
         23    2    1    2    0    0 -0.79948924668E+02  0.33415146767E+01  0.42115268080E+03  0.43879991190E+03  0.93663151062E+02 0.  0.
        -11    1    1    2    0    0 -0.52230748869E+02 -0.61582242867E+02  0.31031502464E+02  0.86506519461E+02  0.00000000000E+00 0. -1.
         11    1    1    2    0    0  0.13217967354E+03  0.58240728191E+02 -0.45218418326E+03  0.47469356864E+03  0.00000000000E+00 0.  1.
        -15    1    3    3    0    0 -0.88886775705E+02  0.12356449047E+02  0.41497321019E+03  0.42456973942E+03  0.17770000000E+01 0. -1.
         15    1    3    3    0    0  0.89378510370E+01 -0.90149343707E+01  0.61794706090E+01  0.14230172482E+02  0.17770000000E+01 0.  1.
</event>
<event>
 7    1  0.2288857E-006  0.3595436E+03  0.7546771E-02  0.9784121E-01
        -11   -1    0    0    0    0  0.00000000000E+00  0.00000000000E+00  0.50000000000E+03  0.50000000000E+03  0.00000000000E+00 0. -1.
         11   -1    0    0    0    0 -0.00000000000E+00 -0.00000000000E+00 -0.50000000000E+03  0.50000000000E+03  0.00000000000E+00 0. -1.
         23    2    1    2    0    0 -0.17971629322E+01  0.36223606168E+02  0.33293541374E+03  0.34734637473E+03  0.92131074433E+02 0.  0.
        -11    1    1    2    0    0 -0.35438580348E+02 -0.24736740779E+03  0.78696808299E+01  0.25001691801E+03  0.00000000000E+00 0. -1.
         11    1    1    2    0    0  0.37235743280E+02  0.21114380163E+03 -0.34080509457E+03  0.40263670726E+03  0.00000000000E+00 0. -1.
        -15    1    3    3    0    0 -0.44209709194E+02  0.14724659752E+02  0.11153879051E+03  0.12089405903E+03  0.17770000000E+01 0. -1.
         15    1    3    3    0    0  0.42412546262E+02  0.21498946416E+02  0.22139662324E+03  0.22645231570E+03  0.17770000000E+01 0.  1.
</event>
<event>
 7    1  0.2288857E-006  0.4268154E+03  0.7546771E-02  0.9580328E-01
        -11   -1    0    0    0    0  0.00000000000E+00  0.00000000000E+00  0.50000000000E+03  0.50000000000E+03  0.00000000000E+00 0.  1.
         11   -1    0    0    0    0 -0.00000000000E+00 -0.00000000000E+00 -0.50000000000E+03  0.50000000000E+03  0.00000000000E+00 0. -1.
         23    2    1    2    0    0 -0.92420182062E+02 -0.53793018557E+02  0.37014393387E+03  0.39588511800E+03  0.91012724254E+02 0.  0.
        -11    1    1    2    0    0  0.11360868794E+03 -0.36674934260E+02  0.80503092084E+02  0.14398865446E+03  0.00000000000E+00 0.  1.
         11    1    1    2    0    0 -0.21188505881E+02  0.90467952817E+02 -0.45064702595E+03  0.46012622754E+03  0.00000000000E+00 0. -1.
        -15    1    3    3    0    0 -0.29638195719E+02 -0.61185069224E+02  0.26127452545E+03  0.26998068583E+03  0.17770000000E+01 0.  1.
         15    1    3    3    0    0 -0.62781986343E+02  0.73920506675E+01  0.10886940841E+03  0.12590443217E+03  0.17770000000E+01 0. -1.
</event>
<event>
 7    1  0.2288857E-006  0.5230751E+03  0.7546771E-02  0.9349608E-01
        -11   -1    0    0    0    0  0.00000000000E+00  0.00000000000E+00  0.50000000000E+03  0.50000000000E+03  0.00000000000E+00 0.  1.
         11   -1    0    0    0    0 -0.00000000000E+00 -0.00000000000E+00 -0.50000000000E+03  0.50000000000E+03  0.00000000000E+00 0.  1.
         23    2    1    2    0    0  0.50107284341E+02 -0.17273461909E+02  0.14238367112E+03  0.17542813073E+03  0.87708647333E+02 0.  0.
        -11    1    1    2    0    0  0.13344095542E+03  0.17702316268E+03  0.26779607337E+03  0.34764698420E+03  0.00000000000E+00 0.  1.
         11    1    1    2    0    0 -0.18354823976E+03 -0.15974970077E+03 -0.41017974449E+03  0.47692488508E+03  0.00000000000E+00 0.  1.
        -15    1    3    3    0    0  0.41579290252E+02 -0.40003948936E+02  0.40099281577E+02  0.70287007479E+02  0.17770000000E+01 0. -1.
         15    1    3    3    0    0  0.85279940894E+01  0.22730487027E+02  0.10228438955E+03  0.10514112325E+03  0.17770000000E+01 0.  1.
</event>
<event>
 7    1  0.2288857E-006  0.5085001E+03  0.7546771E-02  0.9380988E-01
        -11   -1    0    0    0    0  0.00000000000E+00  0.00000000000E+00  0.50000000000E+03  0.50000000000E+03  0.00000000000E+00 0.  1.
         11   -1    0    0    0    0 -0.00000000000E+00 -0.00000000000E+00 -0.50000000000E+03  0.50000000000E+03  0.00000000000E+00 0.  1.
         23    2    1    2    0    0 -0.77925180528E+02  0.87435455299E+01  0.25817217190E+03  0.28509285614E+03  0.92066730842E+02 0.  0.
        -11    1    1    2    0    0 -0.98985606238E+02  0.11598609404E+01  0.20027807787E+03  0.22340726039E+03  0.00000000000E+00 0.  1.
         11    1    1    2    0    0  0.17691078677E+03 -0.99034064704E+01 -0.45845024977E+03  0.49149988347E+03  0.00000000000E+00 0.  1.
        -15    1    3    3    0    0 -0.61183376130E+01  0.40990356762E+02  0.74818706595E+02  0.85549050188E+02  0.17770000000E+01 0.  1.
         15    1    3    3    0    0 -0.71806842915E+02 -0.32246811232E+02  0.18335346531E+03  0.19954380595E+03  0.17770000000E+01 0. -1.
</event>
<event>
 7    1  0.2288857E-006  0.5020741E+03  0.7546771E-02  0.9395181E-01
        -11   -1    0    0    0    0  0.00000000000E+00  0.00000000000E+00  0.50000000000E+03  0.50000000000E+03  0.00000000000E+00 0.  1.
         11   -1    0    0    0    0 -0.00000000000E+00 -0.00000000000E+00 -0.50000000000E+03  0.50000000000E+03  0.00000000000E+00 0. -1.
         23    2    1    2    0    0  0.48638029334E+02 -0.67675508726E+02  0.48246008753E+03  0.49792590429E+03  0.90646774513E+02 0.  0.
        -11    1    1    2    0    0  0.34415804180E+02  0.35852931695E+02 -0.15684721760E+03  0.16453245867E+03  0.00000000000E+00 0.  1.
         11    1    1    2    0    0 -0.83053833514E+02  0.31822577031E+02 -0.32561286993E+03  0.33754163704E+03  0.00000000000E+00 0. -1.
        -15    1    3    3    0    0 -0.16681641158E+02  0.22350179121E+01  0.22711531893E+02  0.28323909806E+02  0.17770000000E+01 0. -1.
         15    1    3    3    0    0  0.65319670492E+02 -0.69910526639E+02  0.45974855563E+03  0.46960199448E+03  0.17770000000E+01 0.  1.
</event>
<event>
 7    1  0.2288857E-006  0.5150357E+03  0.7546771E-02  0.9366781E-01
        -11   -1    0    0    0    0  0.00000000000E+00  0.00000000000E+00  0.50000000000E+03  0.50000000000E+03  0.00000000000E+00 0. -1.
         11   -1    0    0    0    0 -0.00000000000E+00 -0.00000000000E+00 -0.50000000000E+03  0.50000000000E+03  0.00000000000E+00 0.  1.
         23    2    1    2    0    0 -0.74322683058E+02  0.67046299770E+01  0.21684941004E+03  0.24466766168E+03  0.85263032783E+02 0.  0.
        -11    1    1    2    0    0  0.24850435155E+02  0.74575193931E+02  0.25868870906E+03  0.27036799344E+03  0.00000000000E+00 0. -1.
         11    1    1    2    0    0  0.49472247903E+02 -0.81279823908E+02 -0.47553811910E+03  0.48496434488E+03  0.00000000000E+00 0.  1.
        -15    1    3    3    0    0  0.97219441612E+01  0.13046348830E+02  0.57333754895E+01  0.17342224182E+02  0.17770000000E+01 0.  1.
         15    1    3    3    0    0 -0.84044627219E+02 -0.63417188531E+01  0.21111603455E+03  0.22732543750E+03  0.17770000000E+01 0. -1.
</event>
<event>
 7    1  0.2288857E-006  0.5108265E+03  0.7546771E-02  0.9375905E-01
        -11   -1    0    0    0    0  0.00000000000E+00  0.00000000000E+00  0.50000000000E+03  0.50000000000E+03  0.00000000000E+00 0.  1.
         11   -1    0    0    0    0 -0.00000000000E+00 -0.00000000000E+00 -0.50000000000E+03  0.50000000000E+03  0.00000000000E+00 0. -1.
         23    2    1    2    0    0  0.44245099100E+02 -0.50866138941E+02 -0.17361059401E+03  0.20667154268E+03  0.89596290762E+02 0.  0.
        -11    1    1    2    0    0 -0.14800962143E+03  0.15867639970E+03  0.43841263997E+03  0.48917347714E+03  0.00000000000E+00 0.  1.
         11    1    1    2    0    0  0.10376452233E+03 -0.10781026075E+03 -0.26480204596E+03  0.30415498017E+03  0.00000000000E+00 0. -1.
        -15    1    3    3    0    0  0.64392023964E+02 -0.11215972615E+02 -0.82492859126E+02  0.10526329050E+03  0.17770000000E+01 0. -1.
         15    1    3    3    0    0 -0.20146924864E+02 -0.39650166326E+02 -0.91117734880E+02  0.10140825218E+03  0.17770000000E+01 0.  1.
</event>
<event>
 7    1  0.2288857E-006  0.4065737E+03  0.7546771E-02  0.9637175E-01
        -11   -1    0    0    0    0  0.00000000000E+00  0.00000000000E+00  0.50000000000E+03  0.50000000000E+03  0.00000000000E+00 0.  1.
         11   -1    0    0    0    0 -0.00000000000E+00 -0.00000000000E+00 -0.50000000000E+03  0.50000000000E+03  0.00000000000E+00 0. -1.
         23    2    1    2    0    0 -0.67102304535E+01 -0.72335676571E+02  0.12890787281E+03  0.17349934674E+03  0.90594184971E+02 0.  0.
        -11    1    1    2    0    0 -0.17206306024E+03  0.20711689298E+03  0.26220588284E+03  0.37583909996E+03  0.00000000000E+00 0.  1.
         11    1    1    2    0    0  0.17877329070E+03 -0.13478121641E+03 -0.39111375565E+03  0.45066155330E+03  0.00000000000E+00 0. -1.
        -15    1    3    3    0    0  0.40790764581E+02 -0.32069403766E+02  0.43184833597E+02  0.67530887117E+02  0.17770000000E+01 0. -1.
         15    1    3    3    0    0 -0.47500995035E+02 -0.40266272805E+02  0.85723039211E+02  0.10596845963E+03  0.17770000000E+01 0.  1.
</event>
<event>
 7    1  0.2288857E-006  0.5193580E+03  0.7546771E-02  0.9357507E-01
        -11   -1    0    0    0    0  0.00000000000E+00  0.00000000000E+00  0.50000000000E+03  0.50000000000E+03  0.00000000000E+00 0.  1.
         11   -1    0    0    0    0 -0.00000000000E+00 -0.00000000000E+00 -0.50000000000E+03  0.50000000000E+03  0.00000000000E+00 0. -1.
         23    2    1    2    0    0  0.28043921494E+02  0.72453812241E+01  0.28303927907E+03  0.29907407321E+03  0.92168924750E+02 0.  0.
        -11    1    1    2    0    0 -0.77011784416E+02 -0.82624533831E+02  0.18912264067E+03  0.22028391167E+03  0.00000000000E+00 0.  1.
         11    1    1    2    0    0  0.48967862922E+02  0.75379152606E+02 -0.47216191973E+03  0.48064201512E+03  0.00000000000E+00 0. -1.
        -15    1    3    3    0    0  0.44092764543E+02 -0.12918271568E+02  0.26129138067E+03  0.26530623243E+03  0.17770000000E+01 0.  1.
         15    1    3    3    0    0 -0.16048843049E+02  0.20163652792E+02  0.21747898395E+02  0.33767840777E+02  0.17770000000E+01 0. -1.
</event>
<event>
 7    1  0.2288857E-006  0.4034375E+03  0.7546771E-02  0.9646298E-01
        -11   -1    0    0    0    0  0.00000000000E+00  0.00000000000E+00  0.50000000000E+03  0.50000000000E+03  0.00000000000E+00 0. -1.
         11   -1    0    0    0    0 -0.00000000000E+00 -0.00000000000E+00 -0.50000000000E+03  0.50000000000E+03  0.00000000000E+00 0. -1.
         23    2    1    2    0    0 -0.21798760653E+03  0.55894459977E+02  0.38645780758E+03  0.45604121668E+03  0.89337377504E+02 0.  0.
        -11    1    1    2    0    0  0.17858514722E+03  0.15453624476E+02 -0.34316111303E+02  0.18250771165E+03  0.00000000000E+00 0. -1.
         11    1    1    2    0    0  0.39402459307E+02 -0.71348084453E+02 -0.35214169628E+03  0.36145107167E+03  0.00000000000E+00 0. -1.
        -15    1    3    3    0    0 -0.66672212057E+02  0.34540352394E+02  0.61998752692E+02  0.97392108861E+02  0.17770000000E+01 0.  1.
         15    1    3    3    0    0 -0.15131539447E+03  0.21354107584E+02  0.32445905489E+03  0.35864910782E+03  0.17770000000E+01 0. -1.
</event>
<event>
 7    1  0.2288857E-006  0.4852876E+03  0.7546771E-02  0.9433345E-01
        -11   -1    0    0    0    0  0.00000000000E+00  0.00000000000E+00  0.50000000000E+03  0.50000000000E+03  0.00000000000E+00 0. -1.
         11   -1    0    0    0    0 -0.00000000000E+00 -0.00000000000E+00 -0.50000000000E+03  0.50000000000E+03  0.00000000000E+00 0.  1.
         23    2    1    2    0    0  0.11926939810E+03 -0.12939662506E+03  0.42423473941E+03  0.46793419168E+03  0.89546734845E+02 0.  0.
        -11    1    1    2    0    0  0.15111432483E+02 -0.17348993879E+02  0.29034462738E+02  0.37045148222E+02  0.00000000000E+00 0. -1.
         11    1    1    2    0    0 -0.13438083058E+03  0.14674561894E+03 -0.45326920215E+03  0.49502066010E+03  0.00000000000E+00 0.  1.
        -15    1    3    3    0    0  0.11255924774E+03 -0.14285651780E+03  0.39908421612E+03  0.43857603470E+03  0.17770000000E+01 0.  1.
         15    1    3    3    0    0  0.67101503611E+01  0.13459892740E+02  0.25150523293E+02  0.29358156982E+02  0.17770000000E+01 0. -1.
</event>
