<event>
 6    1  0.2083073E-007  0.3853284E+03  0.7546771E-02  0.9700772E-01
        -11   -1    0    0    0    0  0.00000000000E+00  0.00000000000E+00  0.50000000000E+03  0.50000000000E+03  0.00000000000E+00 0. -1.
         11   -1    0    0    0    0 -0.00000000000E+00 -0.00000000000E+00 -0.50000000000E+03  0.50000000000E+03  0.00000000000E+00 0. -1.
        -11    1    1    2    0    0  0.10452507546E+01  0.11915716020E+03 -0.41943105435E+03  0.43602973606E+03  0.00000000000E+00 0. -1.
         11    1    1    2    0    0  0.12722660287E+03 -0.18632446089E+03  0.28086330782E+03  0.36026047644E+03  0.00000000000E+00 0. -1.
        -15    1    1    2    0    0 -0.10800310621E+03  0.70086701407E+02  0.11989970775E+03  0.17594292914E+03  0.17770000000E+01 0. -1.
         15    1    1    2    0    0 -0.20268747415E+02 -0.29194007158E+01  0.18668038776E+02  0.27766858358E+02  0.17770000000E+01 0.  1.
</event>
<event>
 6    1  0.2083073E-007  0.5024132E+03  0.7546771E-02  0.9394426E-01
        -11   -1    0    0    0    0  0.00000000000E+00  0.00000000000E+00  0.50000000000E+03  0.50000000000E+03  0.00000000000E+00 0.  1.
         11   -1    0    0    0    0 -0.00000000000E+00 -0.00000000000E+00 -0.50000000000E+03  0.50000000000E+03  0.00000000000E+00 0. -1.
        -11    1    1    2    0    0  0.22439078952E+03  0.10105460470E+03 -0.43246896744E+03  0.49758684403E+03  0.00000000000E+00 0. -1.
         11    1    1    2    0    0 -0.22074250710E+03 -0.90101637421E+02  0.38951703258E+03  0.45669363711E+03  0.00000000000E+00 0.  1.
        -15    1    1    2    0    0  0.33242119176E+01 -0.52786406999E+01  0.18812071860E+02  0.19898899697E+02  0.17770000000E+01 0.  1.
         15    1    1    2    0    0 -0.69724943400E+01 -0.56743265741E+01  0.24139863000E+02  0.25820619165E+02  0.17770000000E+01 0. -1.
</event>
<event>
 6    1  0.2083073E-007  0.5099726E+03  0.7546771E-02  0.9377768E-01
        -11   -1    0    0    0    0  0.00000000000E+00  0.00000000000E+00  0.50000000000E+03  0.50000000000E+03  0.00000000000E+00 0.  1.
         11   -1    0    0    0    0 -0.00000000000E+00 -0.00000000000E+00 -0.50000000000E+03  0.50000000000E+03  0.00000000000E+00 0. -1.
        -11    1    1    2    0    0  0.24174997976E+03 -0.44434310252E+02  0.42392138880E+03  0.49002735079E+03  0.00000000000E+00 0.  1.
         11    1    1    2    0    0 -0.16501021155E+03  0.92526389789E+02 -0.25536029197E+03  0.31780242516E+03  0.00000000000E+00 0. -1.
        -15    1    1    2    0    0 -0.19808977315E+02 -0.20036210075E+02 -0.42500418318E+02  0.51022432151E+02  0.17770000000E+01 0.  1.
         15    1    1    2    0    0 -0.56930790891E+02 -0.28055869463E+02 -0.12606067851E+03  0.14114779190E+03  0.17770000000E+01 0. -1.
</event>
<event>
 6    1  0.2083073E-007  0.5170181E+03  0.7546771E-02  0.9362515E-01
        -11   -1    0    0    0    0  0.00000000000E+00  0.00000000000E+00  0.50000000000E+03  0.50000000000E+03  0.00000000000E+00 0.  1.
         11   -1    0    0    0    0 -0.00000000000E+00 -0.00000000000E+00 -0.50000000000E+03  0.50000000000E+03  0.00000000000E+00 0. -1.
        -11    1    1    2    0    0 -0.96547338604E+02  0.13873440320E+03 -0.42987267283E+03  0.46190814895E+03  0.00000000000E+00 0. -1.
         11    1    1    2    0    0  0.89759158290E+02 -0.12749124170E+03  0.45712228073E+03  0.48298188657E+03  0.00000000000E+00 0.  1.
        -15    1    1    2    0    0 -0.12278060332E+02 -0.22444683104E+02 -0.13101476913E+02  0.28797933805E+02  0.17770000000E+01 0.  1.
         15    1    1    2    0    0  0.19066240646E+02  0.11201521607E+02 -0.14148130988E+02  0.26312030674E+02  0.17770000000E+01 0. -1.
</event>
<event>
 6    1  0.2083073E-007  0.5240918E+03  0.7546771E-02  0.9347459E-01
        -11   -1    0    0    0    0  0.00000000000E+00  0.00000000000E+00  0.50000000000E+03  0.50000000000E+03  0.00000000000E+00 0. -1.
         11   -1    0    0    0    0 -0.00000000000E+00 -0.00000000000E+00 -0.50000000000E+03  0.50000000000E+03  0.00000000000E+00 0. -1.
        -11    1    1    2    0    0 -0.10883328331E+02  0.13470175322E+03 -0.31789506521E+03  0.34542767932E+03  0.00000000000E+00 0. -1.
         11    1    1    2    0    0  0.12200740145E+03 -0.96877665710E+02  0.44968602283E+03  0.47590819204E+03  0.00000000000E+00 0. -1.
        -15    1    1    2    0    0 -0.55989352489E+02 -0.28576578965E+02 -0.85040598582E+02  0.10576620251E+03  0.17770000000E+01 0.  1.
         15    1    1    2    0    0 -0.55134720632E+02 -0.92475085460E+01 -0.46750359047E+02  0.72897926126E+02  0.17770000000E+01 0. -1.
</event>
<event>
 6    1  0.2083073E-007  0.5144707E+03  0.7546771E-02  0.9368000E-01
        -11   -1    0    0    0    0  0.00000000000E+00  0.00000000000E+00  0.50000000000E+03  0.50000000000E+03  0.00000000000E+00 0. -1.
         11   -1    0    0    0    0 -0.00000000000E+00 -0.00000000000E+00 -0.50000000000E+03  0.50000000000E+03  0.00000000000E+00 0.  1.
        -11    1    1    2    0    0  0.90856624080E+02 -0.95283311774E+02  0.15006557391E+03  0.19963344438E+03  0.00000000000E+00 0. -1.
         11    1    1    2    0    0 -0.11037205334E+03  0.10128366091E+03 -0.46184231150E+03  0.48552928935E+03  0.00000000000E+00 0.  1.
        -15    1    1    2    0    0  0.30063861157E+02 -0.93350140162E+01  0.19603302892E+03  0.19855247264E+03  0.17770000000E+01 0. -1.
         15    1    1    2    0    0 -0.10548431901E+02  0.33346648830E+01  0.11574370866E+03  0.11628479363E+03  0.17770000000E+01 0.  1.
</event>
<event>
 6    1  0.2083073E-007  0.5023779E+03  0.7546771E-02  0.9394505E-01
        -11   -1    0    0    0    0  0.00000000000E+00  0.00000000000E+00  0.50000000000E+03  0.50000000000E+03  0.00000000000E+00 0.  1.
         11   -1    0    0    0    0 -0.00000000000E+00 -0.00000000000E+00 -0.50000000000E+03  0.50000000000E+03  0.00000000000E+00 0. -1.
        -11    1    1    2    0    0  0.82841309047E+02 -0.24892836340E+03 -0.42284717204E+03  0.49762208903E+03  0.00000000000E+00 0. -1.
         11    1    1    2    0    0 -0.85941023946E+02  0.23388378543E+03  0.41353372768E+03  0.48280185233E+03  0.00000000000E+00 0.  1.
        -15    1    1    2    0    0  0.47284839728E+01  0.13345420931E+02  0.77055835209E+01  0.16217045566E+02  0.17770000000E+01 0.  1.
         15    1    1    2    0    0 -0.16287690743E+01  0.16991570405E+01  0.16078608409E+01  0.33590130738E+01  0.17770000000E+01 0.  1.
</event>
<event>
 6    1  0.2083073E-007  0.3865954E+03  0.7546771E-02  0.9696858E-01
        -11   -1    0    0    0    0  0.00000000000E+00  0.00000000000E+00  0.50000000000E+03  0.50000000000E+03  0.00000000000E+00 0.  1.
         11   -1    0    0    0    0 -0.00000000000E+00 -0.00000000000E+00 -0.50000000000E+03  0.50000000000E+03  0.00000000000E+00 0.  1.
        -11    1    1    2    0    0  0.16587037705E+03  0.92160982473E+02  0.68642270166E+02  0.20178798261E+03  0.00000000000E+00 0.  1.
         11    1    1    2    0    0 -0.11266069669E+03 -0.35447765972E+02  0.35113908506E+03  0.37046947748E+03  0.00000000000E+00 0.  1.
        -15    1    1    2    0    0 -0.35796417879E+00 -0.11608525658E+02 -0.86210539444E+02  0.87007475808E+02  0.17770000000E+01 0. -1.
         15    1    1    2    0    0 -0.52851716174E+02 -0.45104690843E+02 -0.33357081578E+03  0.34073506410E+03  0.17770000000E+01 0.  1.
</event>
<event>
 6    1  0.2083073E-007  0.3144412E+03  0.7546771E-02  0.9949641E-01
        -11   -1    0    0    0    0  0.00000000000E+00  0.00000000000E+00  0.50000000000E+03  0.50000000000E+03  0.00000000000E+00 0. -1.
         11   -1    0    0    0    0 -0.00000000000E+00 -0.00000000000E+00 -0.50000000000E+03  0.50000000000E+03  0.00000000000E+00 0. -1.
        -11    1    1    2    0    0  0.71878029780E+02 -0.88355470642E+02 -0.34297523774E+03  0.36139335088E+03  0.00000000000E+00 0. -1.
         11    1    1    2    0    0  0.13570178587E+03 -0.72099738375E+02  0.28365080996E+03  0.32260057185E+03  0.00000000000E+00 0. -1.
        -15    1    1    2    0    0 -0.10472049004E+03 -0.14057782480E+02  0.38038692217E+02  0.11231251986E+03  0.17770000000E+01 0.  1.
         15    1    1    2    0    0 -0.10285932561E+03  0.17451299150E+03  0.21285735555E+02  0.20369355742E+03  0.17770000000E+01 0. -1.
</event>
<event>
 6    1  0.2083073E-007  0.3999534E+03  0.7546771E-02  0.9656539E-01
        -11   -1    0    0    0    0  0.00000000000E+00  0.00000000000E+00  0.50000000000E+03  0.50000000000E+03  0.00000000000E+00 0.  1.
         11   -1    0    0    0    0 -0.00000000000E+00 -0.00000000000E+00 -0.50000000000E+03  0.50000000000E+03  0.00000000000E+00 0.  1.
        -11    1    1    2    0    0 -0.31653312241E+03 -0.26332006139E+03  0.16206475466E+03  0.44248803036E+03  0.00000000000E+00 0.  1.
         11    1    1    2    0    0  0.29728120921E+03  0.23207060860E+03  0.14053382877E+02  0.37739949960E+03  0.00000000000E+00 0.  1.
        -15    1    1    2    0    0  0.31567552187E+01  0.69852745558E+01 -0.25164891408E+02  0.26366430413E+02  0.17770000000E+01 0. -1.
         15    1    1    2    0    0  0.16095157983E+02  0.24264178237E+02 -0.15095324613E+03  0.15374603963E+03  0.17770000000E+01 0.  1.
</event>
<event>
 6    1  0.2083073E-007  0.5095095E+03  0.7546771E-02  0.9378779E-01
        -11   -1    0    0    0    0  0.00000000000E+00  0.00000000000E+00  0.50000000000E+03  0.50000000000E+03  0.00000000000E+00 0. -1.
         11   -1    0    0    0    0 -0.00000000000E+00 -0.00000000000E+00 -0.50000000000E+03  0.50000000000E+03  0.00000000000E+00 0. -1.
        -11    1    1    2    0    0  0.42928477675E+03 -0.16913224574E+03 -0.74717874772E+02  0.46741191353E+03  0.00000000000E+00 0. -1.
         11    1    1    2    0    0 -0.46302137080E+03  0.14735748945E+03  0.66916895562E+02  0.49049045905E+03  0.00000000000E+00 0. -1.
        -15    1    1    2    0    0  0.10413263869E+02  0.11998570281E+02  0.22298440035E+01  0.16140993974E+02  0.17770000000E+01 0.  1.
         15    1    1    2    0    0  0.23323330174E+02  0.97761860051E+01  0.55711352061E+01  0.25956633443E+02  0.17770000000E+01 0.  1.
</event>
<event>
 6    1  0.2083073E-007  0.3814049E+03  0.7546771E-02  0.9712997E-01
        -11   -1    0    0    0    0  0.00000000000E+00  0.00000000000E+00  0.50000000000E+03  0.50000000000E+03  0.00000000000E+00 0.  1.
         11   -1    0    0    0    0 -0.00000000000E+00 -0.00000000000E+00 -0.50000000000E+03  0.50000000000E+03  0.00000000000E+00 0.  1.
        -11    1    1    2    0    0  0.35872374073E+03 -0.16356167297E+02  0.23056915762E+03  0.42674627452E+03  0.00000000000E+00 0.  1.
         11    1    1    2    0    0 -0.36302736380E+03  0.18552338514E+02 -0.21727752865E+02  0.36414990235E+03  0.00000000000E+00 0.  1.
        -15    1    1    2    0    0 -0.18458103019E+01 -0.32954125791E+00 -0.11357306721E+03  0.11360244248E+03  0.17770000000E+01 0.  1.
         15    1    1    2    0    0  0.61494333754E+01 -0.18666299590E+01 -0.95268337547E+02  0.95501380651E+02  0.17770000000E+01 0. -1.
</event>
<event>
 6    1  0.2083073E-007  0.5101696E+03  0.7546771E-02  0.9377338E-01
        -11   -1    0    0    0    0  0.00000000000E+00  0.00000000000E+00  0.50000000000E+03  0.50000000000E+03  0.00000000000E+00 0.  1.
         11   -1    0    0    0    0 -0.00000000000E+00 -0.00000000000E+00 -0.50000000000E+03  0.50000000000E+03  0.00000000000E+00 0. -1.
        -11    1    1    2    0    0  0.15011061540E+03  0.55658663557E+02 -0.51376030742E+02  0.16813857445E+03  0.00000000000E+00 0.  1.
         11    1    1    2    0    0  0.11445820229E+03  0.91802420887E+00 -0.32230999295E+03  0.34203107227E+03  0.00000000000E+00 0. -1.
        -15    1    1    2    0    0 -0.19247253674E+03 -0.31212814205E+02  0.36377626238E+03  0.41274234574E+03  0.17770000000E+01 0.  1.
         15    1    1    2    0    0 -0.72096280945E+02 -0.25363873561E+02  0.99097613164E+01  0.77088007540E+02  0.17770000000E+01 0. -1.
</event>
<event>
 6    1  0.2083073E-007  0.4628927E+03  0.7546771E-02  0.9486896E-01
        -11   -1    0    0    0    0  0.00000000000E+00  0.00000000000E+00  0.50000000000E+03  0.50000000000E+03  0.00000000000E+00 0. -1.
         11   -1    0    0    0    0 -0.00000000000E+00 -0.00000000000E+00 -0.50000000000E+03  0.50000000000E+03  0.00000000000E+00 0.  1.
        -11    1    1    2    0    0 -0.93008569714E+02 -0.55997890081E+02 -0.45735864518E+03  0.47006732289E+03  0.00000000000E+00 0.  1.
         11    1    1    2    0    0  0.23695591872E+02  0.54506569551E+02  0.45444487430E+03  0.45831494736E+03  0.00000000000E+00 0. -1.
        -15    1    1    2    0    0  0.44613256624E+02 -0.64371245963E+01 -0.20047981922E+01  0.45154802452E+02  0.17770000000E+01 0.  1.
         15    1    1    2    0    0  0.24699721219E+02  0.79284451255E+01  0.49185690727E+01  0.26462927297E+02  0.17770000000E+01 0. -1.
</event>
<event>
 6    1  0.2083073E-007  0.5029789E+03  0.7546771E-02  0.9393169E-01
        -11   -1    0    0    0    0  0.00000000000E+00  0.00000000000E+00  0.50000000000E+03  0.50000000000E+03  0.00000000000E+00 0. -1.
         11   -1    0    0    0    0 -0.00000000000E+00 -0.00000000000E+00 -0.50000000000E+03  0.50000000000E+03  0.00000000000E+00 0. -1.
        -11    1    1    2    0    0  0.28630930463E+03 -0.99146017540E+02 -0.30658280966E+03  0.43104056641E+03  0.00000000000E+00 0. -1.
         11    1    1    2    0    0 -0.31004215804E+03  0.11143259580E+03  0.37213785879E+03  0.49702107512E+03  0.00000000000E+00 0. -1.
        -15    1    1    2    0    0  0.56801907331E+01 -0.21575148127E+01 -0.30823986054E+02  0.31467368529E+02  0.17770000000E+01 0.  1.
         15    1    1    2    0    0  0.18052662675E+02 -0.10129063444E+02 -0.34731063075E+02  0.40470989946E+02  0.17770000000E+01 0. -1.
</event>
<event>
 6    1  0.2083073E-007  0.4821900E+03  0.7546771E-02  0.9440567E-01
        -11   -1    0    0    0    0  0.00000000000E+00  0.00000000000E+00  0.50000000000E+03  0.50000000000E+03  0.00000000000E+00 0. -1.
         11   -1    0    0    0    0 -0.00000000000E+00 -0.00000000000E+00 -0.50000000000E+03  0.50000000000E+03  0.00000000000E+00 0. -1.
        -11    1    1    2    0    0 -0.40150904184E+03 -0.10597694475E+03 -0.24097238072E+03  0.48011281150E+03  0.00000000000E+00 0. -1.
         11    1    1    2    0    0  0.40450781769E+03  0.13649830673E+03  0.22976482447E+03  0.48481979835E+03  0.00000000000E+00 0. -1.
        -15    1    1    2    0    0 -0.33863017329E+00 -0.96226037807E+01  0.98394481536E+01  0.13880981337E+02  0.17770000000E+01 0.  1.
         15    1    1    2    0    0 -0.26601456759E+01 -0.20898758203E+02  0.13681081000E+01  0.21186408809E+02  0.17770000000E+01 0. -1.
</event>
<event>
 6    1  0.2083073E-007  0.3504823E+03  0.7546771E-02  0.9815207E-01
        -11   -1    0    0    0    0  0.00000000000E+00  0.00000000000E+00  0.50000000000E+03  0.50000000000E+03  0.00000000000E+00 0.  1.
         11   -1    0    0    0    0 -0.00000000000E+00 -0.00000000000E+00 -0.50000000000E+03  0.50000000000E+03  0.00000000000E+00 0.  1.
        -11    1    1    2    0    0 -0.36739714938E+02 -0.29973928503E+03  0.24706253240E+03  0.39017091199E+03  0.00000000000E+00 0.  1.
         11    1    1    2    0    0  0.66238285461E+02  0.34819406681E+03 -0.23480413365E+01  0.35444623277E+03  0.00000000000E+00 0.  1.
        -15    1    1    2    0    0 -0.21467592069E+02  0.16987699670E+01 -0.58718511940E+02  0.62568080537E+02  0.17770000000E+01 0. -1.
         15    1    1    2    0    0 -0.80309784545E+01 -0.50153551749E+02 -0.18599597912E+03  0.19281477471E+03  0.17770000000E+01 0.  1.
</event>
<event>
 6    1  0.2083073E-007  0.4842760E+03  0.7546771E-02  0.9435698E-01
        -11   -1    0    0    0    0  0.00000000000E+00  0.00000000000E+00  0.50000000000E+03  0.50000000000E+03  0.00000000000E+00 0.  1.
         11   -1    0    0    0    0 -0.00000000000E+00 -0.00000000000E+00 -0.50000000000E+03  0.50000000000E+03  0.00000000000E+00 0. -1.
        -11    1    1    2    0    0  0.41523432241E+03 -0.21398264665E+03  0.12177282680E+03  0.48273878747E+03  0.00000000000E+00 0.  1.
         11    1    1    2    0    0 -0.40934243259E+03  0.21506593443E+03 -0.15043235034E+03  0.48625556583E+03  0.00000000000E+00 0. -1.
        -15    1    1    2    0    0  0.21560677484E+01 -0.89421832052E+00  0.12794989603E+02  0.13126985277E+02  0.17770000000E+01 0. -1.
         15    1    1    2    0    0 -0.80479575666E+01 -0.18906946508E+00  0.15864533936E+02  0.17878661423E+02  0.17770000000E+01 0.  1.
</event>
<event>
 6    1  0.2083073E-007  0.5139187E+03  0.7546771E-02  0.9369193E-01
        -11   -1    0    0    0    0  0.00000000000E+00  0.00000000000E+00  0.50000000000E+03  0.50000000000E+03  0.00000000000E+00 0. -1.
         11   -1    0    0    0    0 -0.00000000000E+00 -0.00000000000E+00 -0.50000000000E+03  0.50000000000E+03  0.00000000000E+00 0.  1.
        -11    1    1    2    0    0 -0.10104525556E+03 -0.23992085347E+03  0.41049102988E+03  0.48608131543E+03  0.00000000000E+00 0. -1.
         11    1    1    2    0    0  0.35391230242E+02  0.12333847556E+03 -0.68892680605E+02  0.14564037961E+03  0.00000000000E+00 0.  1.
        -15    1    1    2    0    0  0.11647650810E+02  0.52458435380E+02 -0.13358370094E+03  0.14399763226E+03  0.17770000000E+01 0.  1.
         15    1    1    2    0    0  0.54006374511E+02  0.64123942533E+02 -0.20801464834E+03  0.22428067270E+03  0.17770000000E+01 0. -1.
</event>
<event>
 6    1  0.2083073E-007  0.5049284E+03  0.7546771E-02  0.9388849E-01
        -11   -1    0    0    0    0  0.00000000000E+00  0.00000000000E+00  0.50000000000E+03  0.50000000000E+03  0.00000000000E+00 0.  1.
         11   -1    0    0    0    0 -0.00000000000E+00 -0.00000000000E+00 -0.50000000000E+03  0.50000000000E+03  0.00000000000E+00 0.  1.
        -11    1    1    2    0    0  0.95993662563E+02 -0.31976767814E+02  0.28898433828E+03  0.30618498445E+03  0.00000000000E+00 0.  1.
         11    1    1    2    0    0 -0.83838254882E+02  0.29912141655E+02 -0.48700336963E+03  0.49507158193E+03  0.00000000000E+00 0.  1.
        -15    1    1    2    0    0 -0.99091784534E+01  0.45280967509E+01  0.92428397452E+02  0.93085239767E+02  0.17770000000E+01 0. -1.
         15    1    1    2    0    0 -0.22462292277E+01 -0.24634705916E+01  0.10559063390E+03  0.10565819386E+03  0.17770000000E+01 0.  1.
</event>
<event>
 6    1  0.2083073E-007  0.4268716E+03  0.7546771E-02  0.9580175E-01
        -11   -1    0    0    0    0  0.00000000000E+00  0.00000000000E+00  0.50000000000E+03  0.50000000000E+03  0.00000000000E+00 0.  1.
         11   -1    0    0    0    0 -0.00000000000E+00 -0.00000000000E+00 -0.50000000000E+03  0.50000000000E+03  0.00000000000E+00 0.  1.
        -11    1    1    2    0    0 -0.13752080535E+03 -0.38115186977E+03 -0.20560035248E+03  0.45437894392E+03  0.00000000000E+00 0.  1.
         11    1    1    2    0    0  0.13554008105E+03  0.38027258170E+03  0.71032624602E+02  0.40990728674E+03  0.00000000000E+00 0.  1.
        -15    1    1    2    0    0 -0.56859103958E+01 -0.48449113362E+01  0.49649891771E+02  0.50240145549E+02  0.17770000000E+01 0.  1.
         15    1    1    2    0    0  0.76666346926E+01  0.57241994075E+01  0.84917836109E+02  0.85473623796E+02  0.17770000000E+01 0. -1.
</event>
<event>
 6    1  0.2083073E-007  0.5177804E+03  0.7546771E-02  0.9360881E-01
        -11   -1    0    0    0    0  0.00000000000E+00  0.00000000000E+00  0.50000000000E+03  0.50000000000E+03  0.00000000000E+00 0. -1.
         11   -1    0    0    0    0 -0.00000000000E+00 -0.00000000000E+00 -0.50000000000E+03  0.50000000000E+03  0.00000000000E+00 0.  1.
        -11    1    1    2    0    0  0.54422938745E+01 -0.35850341647E+03  0.21453474923E+03  0.41782708961E+03  0.00000000000E+00 0. -1.
         11    1    1    2    0    0 -0.11791091353E+02  0.37034292878E+03 -0.30861430678E+03  0.48221956107E+03  0.00000000000E+00 0.  1.
        -15    1    1    2    0    0  0.15250065968E+01 -0.13057673782E+02  0.93724164150E+02  0.94658360246E+02  0.17770000000E+01 0. -1.
         15    1    1    2    0    0  0.48237908813E+01  0.12181614728E+01  0.35539339670E+00  0.52949890753E+01  0.17770000000E+01 0. -1.
</event>
<event>
 6    1  0.2083073E-007  0.4327045E+03  0.7546771E-02  0.9564418E-01
        -11   -1    0    0    0    0  0.00000000000E+00  0.00000000000E+00  0.50000000000E+03  0.50000000000E+03  0.00000000000E+00 0.  1.
         11   -1    0    0    0    0 -0.00000000000E+00 -0.00000000000E+00 -0.50000000000E+03  0.50000000000E+03  0.00000000000E+00 0.  1.
        -11    1    1    2    0    0  0.34606332824E+02 -0.32376958461E+03 -0.24276585317E+03  0.40615219026E+03  0.00000000000E+00 0.  1.
         11    1    1    2    0    0  0.46676253940E+02  0.32688115602E+03  0.33100144312E+03  0.46753814624E+03  0.00000000000E+00 0.  1.
        -15    1    1    2    0    0 -0.75382756528E+02 -0.15051945393E+02 -0.76608049065E+02  0.10854064655E+03  0.17770000000E+01 0. -1.
         15    1    1    2    0    0 -0.58998302358E+01  0.11940373979E+02 -0.11627540883E+02  0.17769016956E+02  0.17770000000E+01 0.  1.
</event>
<event>
 6    1  0.2083073E-007  0.5011067E+03  0.7546771E-02  0.9397337E-01
        -11   -1    0    0    0    0  0.00000000000E+00  0.00000000000E+00  0.50000000000E+03  0.50000000000E+03  0.00000000000E+00 0.  1.
         11   -1    0    0    0    0 -0.00000000000E+00 -0.00000000000E+00 -0.50000000000E+03  0.50000000000E+03  0.00000000000E+00 0.  1.
        -11    1    1    2    0    0  0.84356400605E+02  0.24109025189E+03 -0.42854876129E+03  0.49889332796E+03  0.00000000000E+00 0.  1.
         11    1    1    2    0    0 -0.70576639686E+02 -0.22502224379E+03  0.40389728243E+03  0.46770619733E+03  0.00000000000E+00 0.  1.
        -15    1    1    2    0    0 -0.78333034017E+00 -0.27911963092E+01  0.16502230919E+01  0.37795963424E+01  0.17770000000E+01 0. -1.
         15    1    1    2    0    0 -0.12996430579E+02 -0.13276811796E+02  0.23001255769E+02  0.29620878367E+02  0.17770000000E+01 0. -1.
</event>
<event>
 6    1  0.2083073E-007  0.5092575E+03  0.7546771E-02  0.9379330E-01
        -11   -1    0    0    0    0  0.00000000000E+00  0.00000000000E+00  0.50000000000E+03  0.50000000000E+03  0.00000000000E+00 0.  1.
         11   -1    0    0    0    0 -0.00000000000E+00 -0.00000000000E+00 -0.50000000000E+03  0.50000000000E+03  0.00000000000E+00 0.  1.
        -11    1    1    2    0    0  0.28189134932E+03 -0.26380211110E+03  0.30294215082E+03  0.49074253269E+03  0.00000000000E+00 0.  1.
         11    1    1    2    0    0 -0.29073061398E+03  0.22857980286E+03 -0.27092983939E+03  0.45844955454E+03  0.00000000000E+00 0.  1.
        -15    1    1    2    0    0  0.68744859298E+01  0.31783130063E+02 -0.32991603875E+02  0.46357626866E+02  0.17770000000E+01 0. -1.
         15    1    1    2    0    0  0.19647787346E+01  0.34391781741E+01  0.97929244508E+00  0.44502859101E+01  0.17770000000E+01 0.  1.
</event>
<event>
 6    1  0.2083073E-007  0.5093437E+03  0.7546771E-02  0.9379142E-01
        -11   -1    0    0    0    0  0.00000000000E+00  0.00000000000E+00  0.50000000000E+03  0.50000000000E+03  0.00000000000E+00 0.  1.
         11   -1    0    0    0    0 -0.00000000000E+00 -0.00000000000E+00 -0.50000000000E+03  0.50000000000E+03  0.00000000000E+00 0.  1.
        -11    1    1    2    0    0 -0.16430408456E+03  0.11720636132E+03 -0.44722525287E+03  0.49065628513E+03  0.00000000000E+00 0.  1.
         11    1    1    2    0    0  0.16952326166E+03 -0.10896932802E+03  0.29911958924E+03  0.36067295346E+03  0.00000000000E+00 0.  1.
        -15    1    1    2    0    0  0.29452201474E+00  0.62090149646E+00  0.40780164198E+02  0.40824646758E+02  0.17770000000E+01 0.  1.
         15    1    1    2    0    0 -0.55136991085E+01 -0.88579347928E+01  0.10732549943E+03  0.10784611465E+03  0.17770000000E+01 0.  1.
</event>
<event>
 6    1  0.2083073E-007  0.3279002E+03  0.7546771E-02  0.9897275E-01
        -11   -1    0    0    0    0  0.00000000000E+00  0.00000000000E+00  0.50000000000E+03  0.50000000000E+03  0.00000000000E+00 0.  1.
         11   -1    0    0    0    0 -0.00000000000E+00 -0.00000000000E+00 -0.50000000000E+03  0.50000000000E+03  0.00000000000E+00 0. -1.
        -11    1    1    2    0    0  0.20352624537E+03 -0.14686433920E+03  0.27608909867E+03  0.37311828834E+03  0.00000000000E+00 0.  1.
         11    1    1    2    0    0 -0.21552816220E+03  0.17764890642E+03  0.61608865582E+02  0.28601953600E+03  0.00000000000E+00 0. -1.
        -15    1    1    2    0    0  0.45236296699E+00 -0.25946473599E+02 -0.29944587251E+03  0.30057347258E+03  0.17770000000E+01 0. -1.
         15    1    1    2    0    0  0.11549553865E+02 -0.48380936188E+01 -0.38252091748E+02  0.40288703087E+02  0.17770000000E+01 0.  1.
</event>
<event>
 6    1  0.2083073E-007  0.5050637E+03  0.7546771E-02  0.9388550E-01
        -11   -1    0    0    0    0  0.00000000000E+00  0.00000000000E+00  0.50000000000E+03  0.50000000000E+03  0.00000000000E+00 0.  1.
         11   -1    0    0    0    0 -0.00000000000E+00 -0.00000000000E+00 -0.50000000000E+03  0.50000000000E+03  0.00000000000E+00 0.  1.
        -11    1    1    2    0    0  0.32675837472E+03 -0.10164473175E+03  0.35757407077E+03  0.49493626158E+03  0.00000000000E+00 0.  1.
         11    1    1    2    0    0 -0.32513569265E+03  0.10098095799E+03 -0.32371940228E+03  0.46979210713E+03  0.00000000000E+00 0.  1.
        -15    1    1    2    0    0  0.21850538393E+01 -0.12399190859E+01 -0.25852494193E+02  0.26034996536E+02  0.17770000000E+01 0.  1.
         15    1    1    2    0    0 -0.38077359080E+01  0.19036928435E+01 -0.80021742895E+01  0.92366347523E+01  0.17770000000E+01 0. -1.
</event>
<event>
 6    1  0.2083073E-007  0.5059740E+03  0.7546771E-02  0.9386541E-01
        -11   -1    0    0    0    0  0.00000000000E+00  0.00000000000E+00  0.50000000000E+03  0.50000000000E+03  0.00000000000E+00 0. -1.
         11   -1    0    0    0    0 -0.00000000000E+00 -0.00000000000E+00 -0.50000000000E+03  0.50000000000E+03  0.00000000000E+00 0.  1.
        -11    1    1    2    0    0  0.73712922105E+02  0.17201703796E+03 -0.45720702463E+03  0.49402603130E+03  0.00000000000E+00 0.  1.
         11    1    1    2    0    0 -0.53879765521E+02 -0.17252100864E+03  0.42068521886E+03  0.45786742723E+03  0.00000000000E+00 0. -1.
        -15    1    1    2    0    0 -0.18882143316E+01 -0.13647470288E+01  0.27861155777E+02  0.28014810691E+02  0.17770000000E+01 0. -1.
         15    1    1    2    0    0 -0.17944942253E+02  0.18687177103E+01  0.86606499881E+01  0.20091730776E+02  0.17770000000E+01 0.  1.
</event>
<event>
 6    1  0.2083073E-007  0.5145955E+03  0.7546771E-02  0.9367731E-01
        -11   -1    0    0    0    0  0.00000000000E+00  0.00000000000E+00  0.50000000000E+03  0.50000000000E+03  0.00000000000E+00 0.  1.
         11   -1    0    0    0    0 -0.00000000000E+00 -0.00000000000E+00 -0.50000000000E+03  0.50000000000E+03  0.00000000000E+00 0. -1.
        -11    1    1    2    0    0 -0.38203851079E+02  0.36924890357E+03  0.31275107309E+03  0.48540449189E+03  0.00000000000E+00 0.  1.
         11    1    1    2    0    0  0.32374101322E+02 -0.35734470464E+03 -0.22947312979E+03  0.42591224174E+03  0.00000000000E+00 0. -1.
        -15    1    1    2    0    0  0.15395612914E+02 -0.11276466267E+01 -0.35594328506E+02  0.38838259934E+02  0.17770000000E+01 0. -1.
         15    1    1    2    0    0 -0.95658631572E+01 -0.10776552308E+02 -0.47683614797E+02  0.49845006436E+02  0.17770000000E+01 0.  1.
</event>
<event>
 6    1  0.2083073E-007  0.4385118E+03  0.7546771E-02  0.9548991E-01
        -11   -1    0    0    0    0  0.00000000000E+00  0.00000000000E+00  0.50000000000E+03  0.50000000000E+03  0.00000000000E+00 0.  1.
         11   -1    0    0    0    0 -0.00000000000E+00 -0.00000000000E+00 -0.50000000000E+03  0.50000000000E+03  0.00000000000E+00 0. -1.
        -11    1    1    2    0    0 -0.20687232189E+03 -0.29350311936E+03  0.21049317912E+03  0.41623024529E+03  0.00000000000E+00 0.  1.
         11    1    1    2    0    0  0.20187118923E+03  0.27181509852E+03 -0.32357545254E+03  0.46833374672E+03  0.00000000000E+00 0. -1.
        -15    1    1    2    0    0  0.31727868229E+01  0.17518569828E+02  0.78705235177E+02  0.80713311407E+02  0.17770000000E+01 0. -1.
         15    1    1    2    0    0  0.18283458418E+01  0.41694510122E+01  0.34377038252E+02  0.34722696587E+02  0.17770000000E+01 0. -1.
</event>
