<event>
 6    1  0.2401028E-007  0.1926389E+03  0.7546771E-02  0.1060659E+00
        -11   -1    0    0    0    0  0.00000000000E+00  0.00000000000E+00  0.18250000000E+03  0.18250000000E+03  0.00000000000E+00 0. -1.
         11   -1    0    0    0    0 -0.00000000000E+00 -0.00000000000E+00 -0.18250000000E+03  0.18250000000E+03  0.00000000000E+00 0.  1.
        -11    1    1    2    0    0  0.10007762554E+03 -0.91729536877E+02  0.10620035675E+03  0.17236111755E+03  0.00000000000E+00 0. -1.
         11    1    1    2    0    0 -0.98971267170E+02  0.83356674549E+02 -0.87130481763E+02  0.15599797361E+03  0.00000000000E+00 0.  1.
        -15    1    1    2    0    0  0.86272119473E+01  0.13505105882E+02 -0.19723692318E+02  0.25475447759E+02  0.17770000000E+01 0. -1.
         15    1    1    2    0    0 -0.97335703222E+01 -0.51322435533E+01  0.65381733566E+00  0.11165461084E+02  0.17770000000E+01 0.  1.
</event>
<event>
 6    1  0.2401028E-007  0.1415798E+03  0.7546771E-02  0.1106684E+00
        -11   -1    0    0    0    0  0.00000000000E+00  0.00000000000E+00  0.18250000000E+03  0.18250000000E+03  0.00000000000E+00 0. -1.
         11   -1    0    0    0    0 -0.00000000000E+00 -0.00000000000E+00 -0.18250000000E+03  0.18250000000E+03  0.00000000000E+00 0. -1.
        -11    1    1    2    0    0 -0.45837988333E+02  0.12632936280E+03  0.94810695721E+02  0.16446670515E+03  0.00000000000E+00 0. -1.
         11    1    1    2    0    0  0.28667813540E+02 -0.12023771046E+03 -0.28660325055E+02  0.12688721284E+03  0.00000000000E+00 0. -1.
        -15    1    1    2    0    0  0.22412831675E+02 -0.10428374412E+02 -0.56579081467E+02  0.61769217295E+02  0.17770000000E+01 0.  1.
         15    1    1    2    0    0 -0.52426568820E+01  0.43367220780E+01 -0.95712891992E+01  0.11876864717E+02  0.17770000000E+01 0. -1.
</event>
<event>
 6    1  0.2401028E-007  0.1842638E+03  0.7546771E-02  0.1067059E+00
        -11   -1    0    0    0    0  0.00000000000E+00  0.00000000000E+00  0.18250000000E+03  0.18250000000E+03  0.00000000000E+00 0.  1.
         11   -1    0    0    0    0 -0.00000000000E+00 -0.00000000000E+00 -0.18250000000E+03  0.18250000000E+03  0.00000000000E+00 0. -1.
        -11    1    1    2    0    0 -0.40926593150E+02  0.15087279210E+03  0.90708184744E+02  0.18073616186E+03  0.00000000000E+00 0.  1.
         11    1    1    2    0    0  0.43402735189E+02 -0.13704354775E+03 -0.74984037039E+02  0.16213370166E+03  0.00000000000E+00 0. -1.
        -15    1    1    2    0    0 -0.18638476546E+01 -0.84111539468E+01 -0.54047201904E+01  0.10324251456E+02  0.17770000000E+01 0.  1.
         15    1    1    2    0    0 -0.61229438410E+00 -0.54180904078E+01 -0.10319427515E+02  0.11805885029E+02  0.17770000000E+01 0.  1.
</event>
<event>
 6    1  0.2401028E-007  0.1545431E+03  0.7546771E-02  0.1093180E+00
        -11   -1    0    0    0    0  0.00000000000E+00  0.00000000000E+00  0.18250000000E+03  0.18250000000E+03  0.00000000000E+00 0.  1.
         11   -1    0    0    0    0 -0.00000000000E+00 -0.00000000000E+00 -0.18250000000E+03  0.18250000000E+03  0.00000000000E+00 0.  1.
        -11    1    1    2    0    0 -0.11130195053E+03  0.12007321236E+03  0.24961846834E+02  0.16561640714E+03  0.00000000000E+00 0.  1.
         11    1    1    2    0    0  0.88036639732E+02 -0.11660585725E+03  0.13158482040E+02  0.14669874413E+03  0.00000000000E+00 0.  1.
        -15    1    1    2    0    0  0.74767671595E+01 -0.14226350784E+02 -0.23662524229E+02  0.28659446709E+02  0.17770000000E+01 0.  1.
         15    1    1    2    0    0  0.15788543635E+02  0.10758995672E+02 -0.14457804645E+02  0.24025402019E+02  0.17770000000E+01 0. -1.
</event>
<event>
 6    1  0.2401028E-007  0.1355339E+03  0.7546771E-02  0.1113539E+00
        -11   -1    0    0    0    0  0.00000000000E+00  0.00000000000E+00  0.18250000000E+03  0.18250000000E+03  0.00000000000E+00 0. -1.
         11   -1    0    0    0    0 -0.00000000000E+00 -0.00000000000E+00 -0.18250000000E+03  0.18250000000E+03  0.00000000000E+00 0.  1.
        -11    1    1    2    0    0  0.51148133588E+02  0.76464131539E+02 -0.76239988991E+02  0.11947983471E+03  0.00000000000E+00 0.  1.
         11    1    1    2    0    0 -0.32637319254E+02 -0.52667250284E+02  0.15115478730E+03  0.16336096101E+03  0.00000000000E+00 0. -1.
        -15    1    1    2    0    0 -0.61116340098E+01 -0.19464903021E+02 -0.45445653670E+02  0.49846762045E+02  0.17770000000E+01 0. -1.
         15    1    1    2    0    0 -0.12399180324E+02 -0.43319782347E+01 -0.29469144637E+02  0.32312442229E+02  0.17770000000E+01 0.  1.
</event>
<event>
 6    1  0.2401028E-007  0.1681726E+03  0.7546771E-02  0.1080468E+00
        -11   -1    0    0    0    0  0.00000000000E+00  0.00000000000E+00  0.18250000000E+03  0.18250000000E+03  0.00000000000E+00 0.  1.
         11   -1    0    0    0    0 -0.00000000000E+00 -0.00000000000E+00 -0.18250000000E+03  0.18250000000E+03  0.00000000000E+00 0.  1.
        -11    1    1    2    0    0  0.15910374591E+03  0.21356610709E+02 -0.39039657731E+02  0.16520956891E+03  0.00000000000E+00 0.  1.
         11    1    1    2    0    0 -0.17031735171E+03 -0.10799762234E+01  0.25423151000E+02  0.17220773283E+03  0.00000000000E+00 0.  1.
        -15    1    1    2    0    0  0.24777657392E+01 -0.36570236114E+01  0.48107909185E+01  0.67686470593E+01  0.17770000000E+01 0.  1.
         15    1    1    2    0    0  0.87358400537E+01 -0.16619610875E+02  0.88057158124E+01  0.20814051192E+02  0.17770000000E+01 0.  1.
</event>
<event>
 6    1  0.2401028E-007  0.1300911E+03  0.7546771E-02  0.1120056E+00
        -11   -1    0    0    0    0  0.00000000000E+00  0.00000000000E+00  0.18250000000E+03  0.18250000000E+03  0.00000000000E+00 0. -1.
         11   -1    0    0    0    0 -0.00000000000E+00 -0.00000000000E+00 -0.18250000000E+03  0.18250000000E+03  0.00000000000E+00 0. -1.
        -11    1    1    2    0    0  0.14386491086E+03  0.21361150682E+02 -0.26030348707E+00  0.14544235660E+03  0.00000000000E+00 0. -1.
         11    1    1    2    0    0 -0.58125619948E+02 -0.62753393980E+01  0.75656287921E+02  0.95612977576E+02  0.00000000000E+00 0. -1.
        -15    1    1    2    0    0 -0.26970698507E+02 -0.26715227656E+02 -0.35020714859E+02  0.51679107625E+02  0.17770000000E+01 0. -1.
         15    1    1    2    0    0 -0.58768592410E+02  0.11629416372E+02 -0.40375269575E+02  0.72265558195E+02  0.17770000000E+01 0.  1.
</event>
<event>
 6    1  0.2401028E-007  0.1659808E+03  0.7546771E-02  0.1082422E+00
        -11   -1    0    0    0    0  0.00000000000E+00  0.00000000000E+00  0.18250000000E+03  0.18250000000E+03  0.00000000000E+00 0.  1.
         11   -1    0    0    0    0 -0.00000000000E+00 -0.00000000000E+00 -0.18250000000E+03  0.18250000000E+03  0.00000000000E+00 0. -1.
        -11    1    1    2    0    0  0.41931749918E+02  0.13525835266E+02 -0.16145384968E+03  0.16735759752E+03  0.00000000000E+00 0. -1.
         11    1    1    2    0    0 -0.63085143207E+02  0.25347760888E+01  0.15327101761E+03  0.16576539211E+03  0.00000000000E+00 0.  1.
        -15    1    1    2    0    0  0.96149661536E+00  0.21220673702E+01  0.29322235010E+01  0.41452755427E+01  0.17770000000E+01 0. -1.
         15    1    1    2    0    0  0.20191896673E+02 -0.18182678725E+02  0.52506085755E+01  0.27731734823E+02  0.17770000000E+01 0.  1.
</event>
<event>
 6    1  0.2401028E-007  0.1332365E+03  0.7546771E-02  0.1116248E+00
        -11   -1    0    0    0    0  0.00000000000E+00  0.00000000000E+00  0.18250000000E+03  0.18250000000E+03  0.00000000000E+00 0. -1.
         11   -1    0    0    0    0 -0.00000000000E+00 -0.00000000000E+00 -0.18250000000E+03  0.18250000000E+03  0.00000000000E+00 0. -1.
        -11    1    1    2    0    0  0.60014893330E+02 -0.24766344287E+02 -0.12870315187E+03  0.14415151935E+03  0.00000000000E+00 0. -1.
         11    1    1    2    0    0 -0.85812950278E+01  0.85639365893E+02  0.10409618882E+03  0.13506944933E+03  0.00000000000E+00 0. -1.
        -15    1    1    2    0    0 -0.52073265916E+02 -0.61049500027E+02  0.23779483411E+02  0.83709545674E+02  0.17770000000E+01 0.  1.
         15    1    1    2    0    0  0.63966761363E+00  0.17647842092E+00  0.82747963730E+00  0.20694856460E+01  0.17770000000E+01 0. -1.
</event>
<event>
 6    1  0.2401028E-007  0.1571289E+03  0.7546771E-02  0.1090661E+00
        -11   -1    0    0    0    0  0.00000000000E+00  0.00000000000E+00  0.18250000000E+03  0.18250000000E+03  0.00000000000E+00 0. -1.
         11   -1    0    0    0    0 -0.00000000000E+00 -0.00000000000E+00 -0.18250000000E+03  0.18250000000E+03  0.00000000000E+00 0. -1.
        -11    1    1    2    0    0 -0.89234775690E+02  0.92944876175E+02 -0.11473468012E+03  0.17252722111E+03  0.00000000000E+00 0. -1.
         11    1    1    2    0    0  0.43912673679E+02 -0.86250485537E+02  0.10813274008E+03  0.14512118606E+03  0.00000000000E+00 0. -1.
        -15    1    1    2    0    0  0.31157785581E+02 -0.86938034524E+01  0.33066151421E+01  0.32565031145E+02  0.17770000000E+01 0.  1.
         15    1    1    2    0    0  0.14164316429E+02  0.19994128145E+01  0.32953249007E+01  0.14786561693E+02  0.17770000000E+01 0. -1.
</event>
<event>
 6    1  0.2401028E-007  0.1883109E+03  0.7546771E-02  0.1063921E+00
        -11   -1    0    0    0    0  0.00000000000E+00  0.00000000000E+00  0.18250000000E+03  0.18250000000E+03  0.00000000000E+00 0. -1.
         11   -1    0    0    0    0 -0.00000000000E+00 -0.00000000000E+00 -0.18250000000E+03  0.18250000000E+03  0.00000000000E+00 0.  1.
        -11    1    1    2    0    0 -0.12514053532E+02 -0.23591432957E+02 -0.17465931461E+03  0.17668908688E+03  0.00000000000E+00 0.  1.
         11    1    1    2    0    0 -0.18026137740E+02 -0.65406896746E+01  0.98988750225E+02  0.10082903815E+03  0.00000000000E+00 0. -1.
        -15    1    1    2    0    0  0.13763978228E+02  0.78632427127E+01  0.28387093549E+02  0.32561672128E+02  0.17770000000E+01 0.  1.
         15    1    1    2    0    0  0.16776213044E+02  0.22268879919E+02  0.47283470832E+02  0.54920202839E+02  0.17770000000E+01 0.  1.
</event>
<event>
 6    1  0.2401028E-007  0.1707827E+03  0.7546771E-02  0.1078184E+00
        -11   -1    0    0    0    0  0.00000000000E+00  0.00000000000E+00  0.18250000000E+03  0.18250000000E+03  0.00000000000E+00 0.  1.
         11   -1    0    0    0    0 -0.00000000000E+00 -0.00000000000E+00 -0.18250000000E+03  0.18250000000E+03  0.00000000000E+00 0.  1.
        -11    1    1    2    0    0 -0.74526333756E+02 -0.25855947895E+02 -0.15591983968E+03  0.17473895064E+03  0.00000000000E+00 0.  1.
         11    1    1    2    0    0  0.78256788473E+02  0.86556119375E+01  0.14770382435E+03  0.16737820733E+03  0.00000000000E+00 0.  1.
        -15    1    1    2    0    0 -0.65890758017E+01  0.15158551161E+02  0.39676337229E+01  0.17090858362E+02  0.17770000000E+01 0. -1.
         15    1    1    2    0    0  0.28586210848E+01  0.20417847969E+01  0.42483816026E+01  0.57919836761E+01  0.17770000000E+01 0.  1.
</event>
<event>
 6    1  0.2401028E-007  0.1241142E+03  0.7546771E-02  0.1127631E+00
        -11   -1    0    0    0    0  0.00000000000E+00  0.00000000000E+00  0.18250000000E+03  0.18250000000E+03  0.00000000000E+00 0.  1.
         11   -1    0    0    0    0 -0.00000000000E+00 -0.00000000000E+00 -0.18250000000E+03  0.18250000000E+03  0.00000000000E+00 0.  1.
        -11    1    1    2    0    0 -0.53107454594E+02  0.87369387249E+02  0.85843067705E+01  0.10260361536E+03  0.00000000000E+00 0.  1.
         11    1    1    2    0    0  0.11881343792E+01 -0.15390235426E+03 -0.56325842656E+02  0.16389004503E+03  0.00000000000E+00 0.  1.
        -15    1    1    2    0    0  0.47132249957E+02  0.60512458055E+02  0.48186164717E+02  0.90599507532E+02  0.17770000000E+01 0.  1.
         15    1    1    2    0    0  0.47870702575E+01  0.60205089542E+01 -0.44462883064E+00  0.79068320783E+01  0.17770000000E+01 0. -1.
</event>
<event>
 6    1  0.2401028E-007  0.1753334E+03  0.7546771E-02  0.1074307E+00
        -11   -1    0    0    0    0  0.00000000000E+00  0.00000000000E+00  0.18250000000E+03  0.18250000000E+03  0.00000000000E+00 0. -1.
         11   -1    0    0    0    0 -0.00000000000E+00 -0.00000000000E+00 -0.18250000000E+03  0.18250000000E+03  0.00000000000E+00 0. -1.
        -11    1    1    2    0    0 -0.10162957302E+03 -0.13489114560E+03 -0.36606094547E+02  0.17281260786E+03  0.00000000000E+00 0. -1.
         11    1    1    2    0    0  0.11340936208E+03  0.13122769976E+03  0.40427285342E+02  0.17809199306E+03  0.00000000000E+00 0. -1.
        -15    1    1    2    0    0 -0.92273739061E+01  0.16139732158E+01 -0.13599251750E+01  0.96310157421E+01  0.17770000000E+01 0.  1.
         15    1    1    2    0    0 -0.25524151515E+01  0.20494726255E+01 -0.24612656199E+01  0.44643833393E+01  0.17770000000E+01 0.  1.
</event>
<event>
 6    1  0.2401028E-007  0.1937533E+03  0.7546771E-02  0.1059834E+00
        -11   -1    0    0    0    0  0.00000000000E+00  0.00000000000E+00  0.18250000000E+03  0.18250000000E+03  0.00000000000E+00 0. -1.
         11   -1    0    0    0    0 -0.00000000000E+00 -0.00000000000E+00 -0.18250000000E+03  0.18250000000E+03  0.00000000000E+00 0. -1.
        -11    1    1    2    0    0  0.10247204894E+03 -0.82461200058E+02 -0.10965889387E+03  0.17124673233E+03  0.00000000000E+00 0. -1.
         11    1    1    2    0    0 -0.88979296445E+02  0.66091541922E+02  0.78869382603E+02  0.13603597547E+03  0.00000000000E+00 0. -1.
        -15    1    1    2    0    0 -0.77448759752E+01 -0.73564559898E+01  0.31418475783E+02  0.33232196709E+02  0.17770000000E+01 0.  1.
         15    1    1    2    0    0 -0.57478765151E+01  0.23726114126E+02 -0.62896451249E+00  0.24485095493E+02  0.17770000000E+01 0. -1.
</event>
<event>
 6    1  0.2401028E-007  0.1507597E+03  0.7546771E-02  0.1096967E+00
        -11   -1    0    0    0    0  0.00000000000E+00  0.00000000000E+00  0.18250000000E+03  0.18250000000E+03  0.00000000000E+00 0.  1.
         11   -1    0    0    0    0 -0.00000000000E+00 -0.00000000000E+00 -0.18250000000E+03  0.18250000000E+03  0.00000000000E+00 0. -1.
        -11    1    1    2    0    0  0.35708031069E+02 -0.49252897641E+02  0.22803050347E+02  0.64968380878E+02  0.00000000000E+00 0.  1.
         11    1    1    2    0    0 -0.70416012045E+02  0.11561453929E+02 -0.14313636182E+03  0.15993780055E+03  0.00000000000E+00 0. -1.
        -15    1    1    2    0    0  0.13698178427E+02  0.40433532512E+02  0.10643706719E+03  0.11469314559E+03  0.17770000000E+01 0.  1.
         15    1    1    2    0    0  0.21009802550E+02 -0.27420887998E+01  0.13896244283E+02  0.25400672990E+02  0.17770000000E+01 0. -1.
</event>
<event>
 6    1  0.2401028E-007  0.1314388E+03  0.7546771E-02  0.1118410E+00
        -11   -1    0    0    0    0  0.00000000000E+00  0.00000000000E+00  0.18250000000E+03  0.18250000000E+03  0.00000000000E+00 0. -1.
         11   -1    0    0    0    0 -0.00000000000E+00 -0.00000000000E+00 -0.18250000000E+03  0.18250000000E+03  0.00000000000E+00 0. -1.
        -11    1    1    2    0    0 -0.14880154529E+03  0.61048824159E+02  0.24697012655E+01  0.16085694961E+03  0.00000000000E+00 0. -1.
         11    1    1    2    0    0  0.79070374727E+02 -0.69604683237E+02  0.48535961893E+02  0.11598567017E+03  0.00000000000E+00 0. -1.
        -15    1    1    2    0    0  0.42305455084E+02  0.12411865871E+02 -0.32481499844E+02  0.54790615121E+02  0.17770000000E+01 0. -1.
         15    1    1    2    0    0  0.27425715480E+02 -0.38560067930E+01 -0.18524163315E+02  0.33366765103E+02  0.17770000000E+01 0.  1.
</event>
<event>
 6    1  0.2401028E-007  0.1842006E+03  0.7546771E-02  0.1067109E+00
        -11   -1    0    0    0    0  0.00000000000E+00  0.00000000000E+00  0.18250000000E+03  0.18250000000E+03  0.00000000000E+00 0. -1.
         11   -1    0    0    0    0 -0.00000000000E+00 -0.00000000000E+00 -0.18250000000E+03  0.18250000000E+03  0.00000000000E+00 0.  1.
        -11    1    1    2    0    0 -0.35697971502E+02  0.15890436733E+03  0.36521416992E+02  0.16690942761E+03  0.00000000000E+00 0. -1.
         11    1    1    2    0    0  0.36722507663E+02 -0.17103396280E+03 -0.45686404515E+02  0.18079935441E+03  0.00000000000E+00 0.  1.
        -15    1    1    2    0    0 -0.17558157488E+01  0.10797561554E+02  0.98788622234E+01  0.14846544120E+02  0.17770000000E+01 0. -1.
         15    1    1    2    0    0  0.73127958802E+00  0.13320339101E+01 -0.71387470020E+00  0.24446738558E+01  0.17770000000E+01 0.  1.
</event>
<event>
 6    1  0.2401028E-007  0.1339150E+03  0.7546771E-02  0.1115442E+00
        -11   -1    0    0    0    0  0.00000000000E+00  0.00000000000E+00  0.18250000000E+03  0.18250000000E+03  0.00000000000E+00 0.  1.
         11   -1    0    0    0    0 -0.00000000000E+00 -0.00000000000E+00 -0.18250000000E+03  0.18250000000E+03  0.00000000000E+00 0.  1.
        -11    1    1    2    0    0 -0.33562665472E+02 -0.10794983010E+03  0.99356974600E+02  0.15050390937E+03  0.00000000000E+00 0.  1.
         11    1    1    2    0    0  0.35997723955E+02  0.12352368804E+03 -0.17856369940E+02  0.12989529469E+03  0.00000000000E+00 0.  1.
        -15    1    1    2    0    0 -0.69288116426E+01 -0.11407660921E+01 -0.20964915376E+02  0.22180964447E+02  0.17770000000E+01 0. -1.
         15    1    1    2    0    0  0.44937531596E+01 -0.14433091841E+02 -0.60535689284E+02  0.62419831493E+02  0.17770000000E+01 0.  1.
</event>
<event>
 6    1  0.2925277E-007  0.1858429E+03  0.7546771E-02  0.1065825E+00
        -11   -1    0    0    0    0  0.00000000000E+00  0.00000000000E+00  0.18250000000E+03  0.18250000000E+03  0.00000000000E+00 0. -1.
         11   -1    0    0    0    0 -0.00000000000E+00 -0.00000000000E+00 -0.18250000000E+03  0.18250000000E+03  0.00000000000E+00 0.  1.
        -11    1    1    2    0    0  0.96482153267E+02 -0.23397420200E+02 -0.11952977601E+03  0.15538214995E+03  0.00000000000E+00 0.  1.
         11    1    1    2    0    0 -0.10520279823E+03  0.42571759819E+02  0.13862647218E+03  0.17915714409E+03  0.00000000000E+00 0. -1.
        -15    1    1    2    0    0 -0.73901788690E+00 -0.10334949739E+02 -0.10228695063E+02  0.14667694612E+02  0.17770000000E+01 0. -1.
         15    1    1    2    0    0  0.94596628495E+01 -0.88393898802E+01 -0.88680011087E+01  0.15793011345E+02  0.17770000000E+01 0.  1.
</event>
<event>
 6    1  0.2401028E-007  0.1840707E+03  0.7546771E-02  0.1067211E+00
        -11   -1    0    0    0    0  0.00000000000E+00  0.00000000000E+00  0.18250000000E+03  0.18250000000E+03  0.00000000000E+00 0. -1.
         11   -1    0    0    0    0 -0.00000000000E+00 -0.00000000000E+00 -0.18250000000E+03  0.18250000000E+03  0.00000000000E+00 0. -1.
        -11    1    1    2    0    0  0.20932637921E+02  0.10618143054E+03 -0.14499226828E+03  0.18092934915E+03  0.00000000000E+00 0. -1.
         11    1    1    2    0    0 -0.16137865100E+02 -0.10327063415E+03  0.13287121376E+03  0.16905624512E+03  0.00000000000E+00 0. -1.
        -15    1    1    2    0    0 -0.32836364764E+01 -0.23896380954E+00  0.19012941172E+01  0.41966677890E+01  0.17770000000E+01 0. -1.
         15    1    1    2    0    0 -0.15111363440E+01 -0.26718325799E+01  0.10219760409E+02  0.10817737943E+02  0.17770000000E+01 0.  1.
</event>
<event>
 6    1  0.2401028E-007  0.1874112E+03  0.7546771E-02  0.1064611E+00
        -11   -1    0    0    0    0  0.00000000000E+00  0.00000000000E+00  0.18250000000E+03  0.18250000000E+03  0.00000000000E+00 0.  1.
         11   -1    0    0    0    0 -0.00000000000E+00 -0.00000000000E+00 -0.18250000000E+03  0.18250000000E+03  0.00000000000E+00 0.  1.
        -11    1    1    2    0    0  0.65403568451E+02 -0.14301284361E+03 -0.82507418550E+02  0.17758877870E+03  0.00000000000E+00 0.  1.
         11    1    1    2    0    0 -0.67496430776E+02  0.10394464516E+03  0.64922615605E+02  0.13991141284E+03  0.00000000000E+00 0.  1.
        -15    1    1    2    0    0  0.45899696190E+01  0.85456846521E+00  0.52043459580E+01  0.72139485870E+01  0.17770000000E+01 0. -1.
         15    1    1    2    0    0 -0.24971072940E+01  0.38213629987E+02  0.12380456987E+02  0.40285859874E+02  0.17770000000E+01 0.  1.
</event>
<event>
 6    1  0.2401028E-007  0.1850526E+03  0.7546771E-02  0.1066441E+00
        -11   -1    0    0    0    0  0.00000000000E+00  0.00000000000E+00  0.18250000000E+03  0.18250000000E+03  0.00000000000E+00 0.  1.
         11   -1    0    0    0    0 -0.00000000000E+00 -0.00000000000E+00 -0.18250000000E+03  0.18250000000E+03  0.00000000000E+00 0. -1.
        -11    1    1    2    0    0  0.37041935508E+01 -0.88533735376E+01 -0.17969132781E+03  0.17994742722E+03  0.00000000000E+00 0. -1.
         11    1    1    2    0    0  0.14149552352E+01  0.36737779714E+01  0.14961058928E+03  0.14966237726E+03  0.00000000000E+00 0.  1.
        -15    1    1    2    0    0 -0.91039882544E+01 -0.26798380854E+01  0.15577252834E+02  0.18326829217E+02  0.17770000000E+01 0.  1.
         15    1    1    2    0    0  0.39848394684E+01  0.78594336517E+01  0.14503485703E+02  0.17063366299E+02  0.17770000000E+01 0. -1.
</event>
<event>
 6    1  0.2401028E-007  0.1412694E+03  0.7546771E-02  0.1107027E+00
        -11   -1    0    0    0    0  0.00000000000E+00  0.00000000000E+00  0.18250000000E+03  0.18250000000E+03  0.00000000000E+00 0.  1.
         11   -1    0    0    0    0 -0.00000000000E+00 -0.00000000000E+00 -0.18250000000E+03  0.18250000000E+03  0.00000000000E+00 0.  1.
        -11    1    1    2    0    0 -0.11568770222E+03  0.57681529609E+02 -0.84745751679E+02  0.15457246110E+03  0.00000000000E+00 0.  1.
         11    1    1    2    0    0  0.64168825720E+02 -0.86344272840E+02  0.80044595594E+02  0.13408992852E+03  0.00000000000E+00 0.  1.
        -15    1    1    2    0    0  0.51975737610E+02  0.57188381399E+01 -0.20220196941E+01  0.52358654513E+02  0.17770000000E+01 0.  1.
         15    1    1    2    0    0 -0.45686110719E+00  0.22943905091E+02  0.67231757790E+01  0.23978955866E+02  0.17770000000E+01 0. -1.
</event>
<event>
 6    1  0.2401028E-007  0.1688063E+03  0.7546771E-02  0.1079910E+00
        -11   -1    0    0    0    0  0.00000000000E+00  0.00000000000E+00  0.18250000000E+03  0.18250000000E+03  0.00000000000E+00 0. -1.
         11   -1    0    0    0    0 -0.00000000000E+00 -0.00000000000E+00 -0.18250000000E+03  0.18250000000E+03  0.00000000000E+00 0. -1.
        -11    1    1    2    0    0 -0.14582699599E+03 -0.69146435790E+02  0.44172923373E+02  0.16732599769E+03  0.00000000000E+00 0. -1.
         11    1    1    2    0    0  0.15954838642E+03  0.48909160343E+02 -0.38326341976E+02  0.17122120799E+03  0.00000000000E+00 0. -1.
        -15    1    1    2    0    0 -0.26752975685E+01  0.70564414466E+00 -0.65928988801E+00  0.33537356627E+01  0.17770000000E+01 0. -1.
         15    1    1    2    0    0 -0.11046092863E+02  0.19531631303E+02 -0.51872915097E+01  0.23099058662E+02  0.17770000000E+01 0. -1.
</event>
<event>
 6    1  0.2401028E-007  0.1856861E+03  0.7546771E-02  0.1065947E+00
        -11   -1    0    0    0    0  0.00000000000E+00  0.00000000000E+00  0.18250000000E+03  0.18250000000E+03  0.00000000000E+00 0. -1.
         11   -1    0    0    0    0 -0.00000000000E+00 -0.00000000000E+00 -0.18250000000E+03  0.18250000000E+03  0.00000000000E+00 0. -1.
        -11    1    1    2    0    0  0.30396089633E+02  0.12253885172E+03  0.12733331767E+03  0.17931387630E+03  0.00000000000E+00 0. -1.
         11    1    1    2    0    0 -0.18041388114E+02 -0.10332808339E+03 -0.12147785047E+03  0.16049626992E+03  0.00000000000E+00 0. -1.
        -15    1    1    2    0    0  0.35697715901E+00 -0.94998072561E+00  0.21783596977E+00  0.20579304120E+01  0.17770000000E+01 0.  1.
         15    1    1    2    0    0 -0.12711678678E+02 -0.18260787603E+02 -0.60733031645E+01  0.23131923375E+02  0.17770000000E+01 0. -1.
</event>
<event>
 6    1  0.2401028E-007  0.1870228E+03  0.7546771E-02  0.1064911E+00
        -11   -1    0    0    0    0  0.00000000000E+00  0.00000000000E+00  0.18250000000E+03  0.18250000000E+03  0.00000000000E+00 0. -1.
         11   -1    0    0    0    0 -0.00000000000E+00 -0.00000000000E+00 -0.18250000000E+03  0.18250000000E+03  0.00000000000E+00 0.  1.
        -11    1    1    2    0    0 -0.48780560200E+02  0.79705557689E+02 -0.15147064100E+03  0.17797717288E+03  0.00000000000E+00 0.  1.
         11    1    1    2    0    0  0.39775417103E+02 -0.80922005628E+02  0.10476966755E+03  0.13822857172E+03  0.00000000000E+00 0. -1.
        -15    1    1    2    0    0  0.60033077018E+00 -0.10380738977E+01  0.28100405065E+02  0.28182059688E+02  0.17770000000E+01 0.  1.
         15    1    1    2    0    0  0.84048123268E+01  0.22545218370E+01  0.18600568390E+02  0.20612195720E+02  0.17770000000E+01 0. -1.
</event>
<event>
 6    1  0.2401028E-007  0.1682782E+03  0.7546771E-02  0.1080375E+00
        -11   -1    0    0    0    0  0.00000000000E+00  0.00000000000E+00  0.18250000000E+03  0.18250000000E+03  0.00000000000E+00 0. -1.
         11   -1    0    0    0    0 -0.00000000000E+00 -0.00000000000E+00 -0.18250000000E+03  0.18250000000E+03  0.00000000000E+00 0. -1.
        -11    1    1    2    0    0  0.17234041461E+03  0.10048289396E+02  0.12293274962E+02  0.17307024943E+03  0.00000000000E+00 0. -1.
         11    1    1    2    0    0 -0.16418686658E+03  0.96083171005E+01  0.26468511114E+01  0.16448906570E+03  0.00000000000E+00 0. -1.
        -15    1    1    2    0    0 -0.94386557558E+00 -0.94736504162E+00 -0.38829459538E+01  0.44747492698E+01  0.17770000000E+01 0.  1.
         15    1    1    2    0    0 -0.72096824550E+01 -0.18709241455E+02 -0.11057180120E+02  0.22965935603E+02  0.17770000000E+01 0. -1.
</event>
<event>
 6    1  0.2401028E-007  0.1657587E+03  0.7546771E-02  0.1082621E+00
        -11   -1    0    0    0    0  0.00000000000E+00  0.00000000000E+00  0.18250000000E+03  0.18250000000E+03  0.00000000000E+00 0. -1.
         11   -1    0    0    0    0 -0.00000000000E+00 -0.00000000000E+00 -0.18250000000E+03  0.18250000000E+03  0.00000000000E+00 0.  1.
        -11    1    1    2    0    0  0.98507317912E+02 -0.74248865759E+02  0.12181364935E+03  0.17336421464E+03  0.00000000000E+00 0. -1.
         11    1    1    2    0    0 -0.10864638328E+03  0.71859704348E+02 -0.92270483886E+02  0.15962987159E+03  0.00000000000E+00 0.  1.
        -15    1    1    2    0    0  0.80672409841E+01  0.45537277286E+00 -0.25203601151E+02  0.26526722026E+02  0.17770000000E+01 0.  1.
         15    1    1    2    0    0  0.20718243821E+01  0.19337886381E+01 -0.43395643110E+01  0.54791917448E+01  0.17770000000E+01 0.  1.
</event>
<event>
 6    1  0.2401028E-007  0.1630993E+03  0.7546771E-02  0.1085040E+00
        -11   -1    0    0    0    0  0.00000000000E+00  0.00000000000E+00  0.18250000000E+03  0.18250000000E+03  0.00000000000E+00 0.  1.
         11   -1    0    0    0    0 -0.00000000000E+00 -0.00000000000E+00 -0.18250000000E+03  0.18250000000E+03  0.00000000000E+00 0.  1.
        -11    1    1    2    0    0 -0.11788326949E+03  0.71171345716E+02 -0.94524076248E+02  0.16702283277E+03  0.00000000000E+00 0.  1.
         11    1    1    2    0    0  0.12928405203E+03 -0.43813127324E+02  0.84732278081E+02  0.16066584946E+03  0.00000000000E+00 0.  1.
        -15    1    1    2    0    0 -0.11729254857E+02 -0.68436687837E+01  0.95846391302E+01  0.16716287213E+02  0.17770000000E+01 0.  1.
         15    1    1    2    0    0  0.32847231577E+00 -0.20514549609E+02  0.20715903688E+00  0.20595030556E+02  0.17770000000E+01 0. -1.
</event>
<event>
 6    1  0.2401028E-007  0.1787592E+03  0.7546771E-02  0.1071472E+00
        -11   -1    0    0    0    0  0.00000000000E+00  0.00000000000E+00  0.18250000000E+03  0.18250000000E+03  0.00000000000E+00 0.  1.
         11   -1    0    0    0    0 -0.00000000000E+00 -0.00000000000E+00 -0.18250000000E+03  0.18250000000E+03  0.00000000000E+00 0.  1.
        -11    1    1    2    0    0  0.95877518556E+02 -0.12698676459E+03 -0.83815420899E+02  0.17984204660E+03  0.00000000000E+00 0.  1.
         11    1    1    2    0    0 -0.94420572066E+02  0.12782402728E+03  0.79530993402E+02  0.17770595176E+03  0.00000000000E+00 0.  1.
        -15    1    1    2    0    0  0.59065359495E+00  0.14369705580E+01  0.81738193545E+00  0.24979187901E+01  0.17770000000E+01 0.  1.
         15    1    1    2    0    0 -0.20476000854E+01 -0.22742332476E+01  0.34670455621E+01  0.49540828519E+01  0.17770000000E+01 0. -1.
</event>
<event>
 6    1  0.2401028E-007  0.1887862E+03  0.7546771E-02  0.1063558E+00
        -11   -1    0    0    0    0  0.00000000000E+00  0.00000000000E+00  0.18250000000E+03  0.18250000000E+03  0.00000000000E+00 0. -1.
         11   -1    0    0    0    0 -0.00000000000E+00 -0.00000000000E+00 -0.18250000000E+03  0.18250000000E+03  0.00000000000E+00 0. -1.
        -11    1    1    2    0    0  0.46186155341E+02  0.31882803166E+02 -0.12744526504E+03  0.13925505256E+03  0.00000000000E+00 0. -1.
         11    1    1    2    0    0 -0.41988786224E+02 -0.18617386732E+02  0.17012240646E+03  0.17621378617E+03  0.00000000000E+00 0. -1.
        -15    1    1    2    0    0 -0.82525248215E+01  0.15491863134E+01 -0.88004247192E+01  0.12292654246E+02  0.17770000000E+01 0.  1.
         15    1    1    2    0    0  0.40551557047E+01 -0.14814602747E+02 -0.33876716701E+02  0.37238507030E+02  0.17770000000E+01 0. -1.
</event>
<event>
 6    1  0.2401028E-007  0.1887961E+03  0.7546771E-02  0.1063551E+00
        -11   -1    0    0    0    0  0.00000000000E+00  0.00000000000E+00  0.18250000000E+03  0.18250000000E+03  0.00000000000E+00 0. -1.
         11   -1    0    0    0    0 -0.00000000000E+00 -0.00000000000E+00 -0.18250000000E+03  0.18250000000E+03  0.00000000000E+00 0.  1.
        -11    1    1    2    0    0  0.10810118617E+03  0.96763263543E+02  0.99994040376E+02  0.17620386980E+03  0.00000000000E+00 0. -1.
         11    1    1    2    0    0 -0.10352351023E+03 -0.95583294747E+02 -0.70073538486E+02  0.15736449473E+03  0.00000000000E+00 0.  1.
        -15    1    1    2    0    0 -0.50826778669E+01  0.75357273365E+00 -0.10463243858E+02  0.11791466711E+02  0.17770000000E+01 0.  1.
         15    1    1    2    0    0  0.50500192548E+00 -0.19335415293E+01 -0.19457258032E+02  0.19640168760E+02  0.17770000000E+01 0. -1.
</event>
<event>
 6    1  0.2401028E-007  0.1464790E+03  0.7546771E-02  0.1101400E+00
        -11   -1    0    0    0    0  0.00000000000E+00  0.00000000000E+00  0.18250000000E+03  0.18250000000E+03  0.00000000000E+00 0. -1.
         11   -1    0    0    0    0 -0.00000000000E+00 -0.00000000000E+00 -0.18250000000E+03  0.18250000000E+03  0.00000000000E+00 0. -1.
        -11    1    1    2    0    0  0.25286172515E+02 -0.46566697293E+02 -0.15438295976E+03  0.16322360761E+03  0.00000000000E+00 0. -1.
         11    1    1    2    0    0 -0.44471512867E+02  0.74354271676E+02  0.10462700641E+03  0.13584212765E+03  0.00000000000E+00 0. -1.
        -15    1    1    2    0    0 -0.31958145665E+01 -0.18186507861E+02  0.25328270382E+02  0.31394924884E+02  0.17770000000E+01 0. -1.
         15    1    1    2    0    0  0.22381154919E+02 -0.96010665223E+01  0.24427682964E+02  0.34539339858E+02  0.17770000000E+01 0.  1.
</event>
<event>
 6    1  0.2401028E-007  0.1885776E+03  0.7546771E-02  0.1063717E+00
        -11   -1    0    0    0    0  0.00000000000E+00  0.00000000000E+00  0.18250000000E+03  0.18250000000E+03  0.00000000000E+00 0.  1.
         11   -1    0    0    0    0 -0.00000000000E+00 -0.00000000000E+00 -0.18250000000E+03  0.18250000000E+03  0.00000000000E+00 0. -1.
        -11    1    1    2    0    0  0.65936429817E+01 -0.23995443369E+02 -0.14579535253E+03  0.14790382771E+03  0.00000000000E+00 0. -1.
         11    1    1    2    0    0  0.68742642667E-02  0.43578530862E+02  0.17095549828E+03  0.17642242145E+03  0.00000000000E+00 0.  1.
        -15    1    1    2    0    0 -0.35521483464E+01 -0.18106516595E+02 -0.29530165332E+02  0.34866202756E+02  0.17770000000E+01 0.  1.
         15    1    1    2    0    0 -0.30483688996E+01 -0.14765708982E+01  0.43700195889E+01  0.58075480861E+01  0.17770000000E+01 0. -1.
</event>
<event>
 6    1  0.2401028E-007  0.1839265E+03  0.7546771E-02  0.1067325E+00
        -11   -1    0    0    0    0  0.00000000000E+00  0.00000000000E+00  0.18250000000E+03  0.18250000000E+03  0.00000000000E+00 0.  1.
         11   -1    0    0    0    0 -0.00000000000E+00 -0.00000000000E+00 -0.18250000000E+03  0.18250000000E+03  0.00000000000E+00 0.  1.
        -11    1    1    2    0    0 -0.18707732252E+01 -0.42635223254E+01 -0.12592919320E+03  0.12601523366E+03  0.00000000000E+00 0.  1.
         11    1    1    2    0    0  0.19461660744E+02  0.12045999482E+02  0.17962110856E+03  0.18107347951E+03  0.00000000000E+00 0.  1.
        -15    1    1    2    0    0 -0.46848354021E+00  0.23484630136E+00 -0.15383807473E+01  0.24081058815E+01  0.17770000000E+01 0.  1.
         15    1    1    2    0    0 -0.17122403978E+02 -0.80173234579E+01 -0.52153534611E+02  0.55503180944E+02  0.17770000000E+01 0.  1.
</event>
<event>
 6    1  0.2401028E-007  0.1869907E+03  0.7546771E-02  0.1064935E+00
        -11   -1    0    0    0    0  0.00000000000E+00  0.00000000000E+00  0.18250000000E+03  0.18250000000E+03  0.00000000000E+00 0.  1.
         11   -1    0    0    0    0 -0.00000000000E+00 -0.00000000000E+00 -0.18250000000E+03  0.18250000000E+03  0.00000000000E+00 0.  1.
        -11    1    1    2    0    0 -0.12421354931E+03  0.66290510177E+02  0.10892133504E+03  0.17800925481E+03  0.00000000000E+00 0.  1.
         11    1    1    2    0    0  0.11507761850E+03 -0.58227487975E+02 -0.72763932383E+02  0.14808068237E+03  0.00000000000E+00 0.  1.
        -15    1    1    2    0    0  0.13459222050E+01  0.43608527979E-01 -0.12000217894E+02  0.12205587524E+02  0.17770000000E+01 0. -1.
         15    1    1    2    0    0  0.77900086036E+01 -0.81066307299E+01 -0.24157184766E+02  0.26704475293E+02  0.17770000000E+01 0. -1.
</event>
<event>
 6    1  0.2401028E-007  0.1658634E+03  0.7546771E-02  0.1082527E+00
        -11   -1    0    0    0    0  0.00000000000E+00  0.00000000000E+00  0.18250000000E+03  0.18250000000E+03  0.00000000000E+00 0.  1.
         11   -1    0    0    0    0 -0.00000000000E+00 -0.00000000000E+00 -0.18250000000E+03  0.18250000000E+03  0.00000000000E+00 0.  1.
        -11    1    1    2    0    0 -0.10113238204E+02  0.86297333116E+02 -0.14673639484E+03  0.17053174737E+03  0.00000000000E+00 0.  1.
         11    1    1    2    0    0  0.18078567395E+02 -0.68544354262E+02  0.14540868480E+03  0.16176788531E+03  0.00000000000E+00 0.  1.
        -15    1    1    2    0    0 -0.54792979096E+01 -0.16098159602E+02 -0.10707296477E+02  0.20173680254E+02  0.17770000000E+01 0. -1.
         15    1    1    2    0    0 -0.24860312812E+01 -0.16548192522E+01  0.12035006513E+02  0.12526687074E+02  0.17770000000E+01 0.  1.
</event>
<event>
 6    1  0.2401028E-007  0.1891267E+03  0.7546771E-02  0.1063299E+00
        -11   -1    0    0    0    0  0.00000000000E+00  0.00000000000E+00  0.18250000000E+03  0.18250000000E+03  0.00000000000E+00 0. -1.
         11   -1    0    0    0    0 -0.00000000000E+00 -0.00000000000E+00 -0.18250000000E+03  0.18250000000E+03  0.00000000000E+00 0. -1.
        -11    1    1    2    0    0  0.11305276473E+03 -0.85026418563E+02  0.84095175660E+02  0.16456736626E+03  0.00000000000E+00 0. -1.
         11    1    1    2    0    0 -0.12157393614E+03  0.84735034524E+02 -0.94716207241E+02  0.17587327238E+03  0.00000000000E+00 0. -1.
        -15    1    1    2    0    0  0.76391393720E+01 -0.50080743030E+01 -0.30263322028E+01  0.97853806350E+01  0.17770000000E+01 0. -1.
         15    1    1    2    0    0  0.88203203101E+00  0.52994583425E+01  0.13647363785E+02  0.14773980726E+02  0.17770000000E+01 0.  1.
</event>
<event>
 6    1  0.2401028E-007  0.1851078E+03  0.7546771E-02  0.1066398E+00
        -11   -1    0    0    0    0  0.00000000000E+00  0.00000000000E+00  0.18250000000E+03  0.18250000000E+03  0.00000000000E+00 0.  1.
         11   -1    0    0    0    0 -0.00000000000E+00 -0.00000000000E+00 -0.18250000000E+03  0.18250000000E+03  0.00000000000E+00 0.  1.
        -11    1    1    2    0    0 -0.10608273546E+03  0.14490391286E+03 -0.10511719252E+02  0.17989215371E+03  0.00000000000E+00 0.  1.
         11    1    1    2    0    0  0.10607043630E+03 -0.13783692037E+03  0.99476456339E+01  0.17420938473E+03  0.00000000000E+00 0.  1.
        -15    1    1    2    0    0 -0.22385208537E+01 -0.55028854259E+01 -0.22404166961E+01  0.65931721952E+01  0.17770000000E+01 0. -1.
         15    1    1    2    0    0  0.22508200148E+01 -0.15641070616E+01  0.28044903142E+01  0.43052893703E+01  0.17770000000E+01 0.  1.
</event>
<event>
 6    1  0.2401028E-007  0.1923795E+03  0.7546771E-02  0.1060852E+00
        -11   -1    0    0    0    0  0.00000000000E+00  0.00000000000E+00  0.18250000000E+03  0.18250000000E+03  0.00000000000E+00 0. -1.
         11   -1    0    0    0    0 -0.00000000000E+00 -0.00000000000E+00 -0.18250000000E+03  0.18250000000E+03  0.00000000000E+00 0. -1.
        -11    1    1    2    0    0  0.69723966319E+02 -0.78091154725E+02  0.13725222546E+03  0.17262048928E+03  0.00000000000E+00 0. -1.
         11    1    1    2    0    0 -0.55383444451E+02  0.82410571273E+02 -0.11633242843E+03  0.15294463731E+03  0.00000000000E+00 0. -1.
        -15    1    1    2    0    0 -0.20643710443E+02  0.48861141757E+01 -0.17706047692E+02  0.27689325497E+02  0.17770000000E+01 0.  1.
         15    1    1    2    0    0  0.63031885754E+01 -0.92055307231E+01 -0.32137493330E+01  0.11745547918E+02  0.17770000000E+01 0. -1.
</event>
<event>
 6    1  0.2401028E-007  0.1851624E+03  0.7546771E-02  0.1066355E+00
        -11   -1    0    0    0    0  0.00000000000E+00  0.00000000000E+00  0.18250000000E+03  0.18250000000E+03  0.00000000000E+00 0. -1.
         11   -1    0    0    0    0 -0.00000000000E+00 -0.00000000000E+00 -0.18250000000E+03  0.18250000000E+03  0.00000000000E+00 0. -1.
        -11    1    1    2    0    0  0.73770781507E+02  0.78605652420E+02  0.14394643120E+03  0.17983757074E+03  0.00000000000E+00 0. -1.
         11    1    1    2    0    0 -0.70976845705E+02 -0.62750093959E+02 -0.99075591351E+02  0.13708121578E+03  0.00000000000E+00 0. -1.
        -15    1    1    2    0    0 -0.37444833891E+00 -0.12412728171E+02 -0.29785897617E+02  0.32319861665E+02  0.17770000000E+01 0. -1.
         15    1    1    2    0    0 -0.24194874624E+01 -0.34428302896E+01 -0.15084942227E+02  0.15761351813E+02  0.17770000000E+01 0.  1.
</event>
<event>
 6    1  0.2401028E-007  0.1322939E+03  0.7546771E-02  0.1117377E+00
        -11   -1    0    0    0    0  0.00000000000E+00  0.00000000000E+00  0.18250000000E+03  0.18250000000E+03  0.00000000000E+00 0. -1.
         11   -1    0    0    0    0 -0.00000000000E+00 -0.00000000000E+00 -0.18250000000E+03  0.18250000000E+03  0.00000000000E+00 0.  1.
        -11    1    1    2    0    0 -0.57450267870E+02  0.22033135652E+02 -0.12267459486E+03  0.13724084147E+03  0.00000000000E+00 0.  1.
         11    1    1    2    0    0  0.11141486378E+03  0.14389345271E+02  0.80879578913E+02  0.13842626707E+03  0.00000000000E+00 0. -1.
        -15    1    1    2    0    0 -0.60153557407E+02 -0.27026357349E+02  0.28603475133E+02  0.71904040074E+02  0.17770000000E+01 0. -1.
         15    1    1    2    0    0  0.61889614945E+01 -0.93961235744E+01  0.13191540812E+02  0.17428851385E+02  0.17770000000E+01 0.  1.
</event>
<event>
 6    1  0.2401028E-007  0.1709829E+03  0.7546771E-02  0.1078011E+00
        -11   -1    0    0    0    0  0.00000000000E+00  0.00000000000E+00  0.18250000000E+03  0.18250000000E+03  0.00000000000E+00 0. -1.
         11   -1    0    0    0    0 -0.00000000000E+00 -0.00000000000E+00 -0.18250000000E+03  0.18250000000E+03  0.00000000000E+00 0. -1.
        -11    1    1    2    0    0 -0.65317297044E+02 -0.11846226296E+03  0.10929310147E+03  0.17390985903E+03  0.00000000000E+00 0. -1.
         11    1    1    2    0    0  0.69715252833E+02  0.12507976595E+03 -0.89253753153E+02  0.16873469347E+03  0.00000000000E+00 0. -1.
        -15    1    1    2    0    0 -0.30914503433E+01 -0.42301703181E+01 -0.17101777197E+02  0.17974424008E+02  0.17770000000E+01 0. -1.
         15    1    1    2    0    0 -0.13065054461E+01 -0.23873326715E+01 -0.29375711165E+01  0.43810234911E+01  0.17770000000E+01 0. -1.
</event>
<event>
 6    1  0.2401028E-007  0.1849400E+03  0.7546771E-02  0.1066529E+00
        -11   -1    0    0    0    0  0.00000000000E+00  0.00000000000E+00  0.18250000000E+03  0.18250000000E+03  0.00000000000E+00 0.  1.
         11   -1    0    0    0    0 -0.00000000000E+00 -0.00000000000E+00 -0.18250000000E+03  0.18250000000E+03  0.00000000000E+00 0.  1.
        -11    1    1    2    0    0  0.12674175570E+02 -0.10009732066E+03  0.14913588066E+03  0.18006004340E+03  0.00000000000E+00 0.  1.
         11    1    1    2    0    0 -0.14648919640E+01  0.94047353146E+02 -0.12223975565E+03  0.15423880317E+03  0.00000000000E+00 0.  1.
        -15    1    1    2    0    0 -0.62953256412E+01  0.59490856073E+01 -0.21203524364E+02  0.22973243545E+02  0.17770000000E+01 0. -1.
         15    1    1    2    0    0 -0.49139579647E+01  0.10088190942E+00 -0.56926006467E+01  0.77279098831E+01  0.17770000000E+01 0.  1.
</event>
<event>
 6    1  0.2401028E-007  0.1861654E+03  0.7546771E-02  0.1065574E+00
        -11   -1    0    0    0    0  0.00000000000E+00  0.00000000000E+00  0.18250000000E+03  0.18250000000E+03  0.00000000000E+00 0. -1.
         11   -1    0    0    0    0 -0.00000000000E+00 -0.00000000000E+00 -0.18250000000E+03  0.18250000000E+03  0.00000000000E+00 0. -1.
        -11    1    1    2    0    0 -0.48745787629E+02 -0.12452267563E+03 -0.11874248500E+03  0.17883463395E+03  0.00000000000E+00 0. -1.
         11    1    1    2    0    0 -0.93572308925E+00  0.33782320889E+02  0.46483061154E+02  0.57469955251E+02  0.00000000000E+00 0. -1.
        -15    1    1    2    0    0  0.46723616248E+02  0.91677911920E+02  0.70070490956E+02  0.12450288061E+03  0.17770000000E+01 0. -1.
         15    1    1    2    0    0  0.29578944698E+01 -0.93755718209E+00  0.21889328867E+01  0.41925301844E+01  0.17770000000E+01 0. -1.
</event>
<event>
 6    1  0.2401028E-007  0.1494129E+03  0.7546771E-02  0.1098344E+00
        -11   -1    0    0    0    0  0.00000000000E+00  0.00000000000E+00  0.18250000000E+03  0.18250000000E+03  0.00000000000E+00 0.  1.
         11   -1    0    0    0    0 -0.00000000000E+00 -0.00000000000E+00 -0.18250000000E+03  0.18250000000E+03  0.00000000000E+00 0. -1.
        -11    1    1    2    0    0 -0.84274742167E+02  0.49030095501E+02 -0.11844991477E+03  0.15341631185E+03  0.00000000000E+00 0. -1.
         11    1    1    2    0    0  0.64068639867E+02 -0.98308863129E+02  0.95063622971E+02  0.15101826246E+03  0.00000000000E+00 0.  1.
        -15    1    1    2    0    0  0.38764765766E+01  0.27561882753E+02  0.68878292703E+01  0.28727763098E+02  0.17770000000E+01 0. -1.
         15    1    1    2    0    0  0.16329625724E+02  0.21716884875E+02  0.16498462525E+02  0.31837662597E+02  0.17770000000E+01 0.  1.
</event>
<event>
 6    1  0.2401028E-007  0.1711967E+03  0.7546771E-02  0.1077826E+00
        -11   -1    0    0    0    0  0.00000000000E+00  0.00000000000E+00  0.18250000000E+03  0.18250000000E+03  0.00000000000E+00 0.  1.
         11   -1    0    0    0    0 -0.00000000000E+00 -0.00000000000E+00 -0.18250000000E+03  0.18250000000E+03  0.00000000000E+00 0.  1.
        -11    1    1    2    0    0 -0.11549464032E+03  0.42402732884E+02  0.11840182170E+03  0.17075126670E+03  0.00000000000E+00 0.  1.
         11    1    1    2    0    0  0.11470197698E+03 -0.25054130127E+02 -0.12592248764E+03  0.17216482177E+03  0.00000000000E+00 0.  1.
        -15    1    1    2    0    0  0.40378402738E+01 -0.15994850519E+02  0.47207534083E+01  0.17250583727E+02  0.17770000000E+01 0. -1.
         15    1    1    2    0    0 -0.32451769353E+01 -0.13537522384E+01  0.27999125345E+01  0.48333278045E+01  0.17770000000E+01 0.  1.
</event>
<event>
 6    1  0.2401028E-007  0.1127053E+03  0.7546771E-02  0.1143494E+00
        -11   -1    0    0    0    0  0.00000000000E+00  0.00000000000E+00  0.18250000000E+03  0.18250000000E+03  0.00000000000E+00 0.  1.
         11   -1    0    0    0    0 -0.00000000000E+00 -0.00000000000E+00 -0.18250000000E+03  0.18250000000E+03  0.00000000000E+00 0. -1.
        -11    1    1    2    0    0 -0.32922591885E+02  0.40880200578E+02  0.13555992257E+02  0.54211186870E+02  0.00000000000E+00 0.  1.
         11    1    1    2    0    0 -0.15261691950E+02 -0.33585993741E+02 -0.11074854280E+03  0.11673122096E+03  0.00000000000E+00 0. -1.
        -15    1    1    2    0    0 -0.16248701263E+02  0.44432374945E+02  0.10076638444E+03  0.11133408372E+03  0.17770000000E+01 0.  1.
         15    1    1    2    0    0  0.64432985099E+02 -0.51726581783E+02 -0.35738339011E+01  0.82723508445E+02  0.17770000000E+01 0. -1.
</event>
<event>
 6    1  0.2401028E-007  0.1917009E+03  0.7546771E-02  0.1061358E+00
        -11   -1    0    0    0    0  0.00000000000E+00  0.00000000000E+00  0.18250000000E+03  0.18250000000E+03  0.00000000000E+00 0.  1.
         11   -1    0    0    0    0 -0.00000000000E+00 -0.00000000000E+00 -0.18250000000E+03  0.18250000000E+03  0.00000000000E+00 0. -1.
        -11    1    1    2    0    0  0.11659159440E+03  0.75681037133E+01 -0.90799695381E+02  0.14797114840E+03  0.00000000000E+00 0. -1.
         11    1    1    2    0    0 -0.11726198093E+03 -0.32074666091E+02  0.12350469726E+03  0.17329906699E+03  0.00000000000E+00 0.  1.
        -15    1    1    2    0    0  0.49073696792E-01  0.26067548654E+02 -0.31714785118E+02  0.41091420335E+02  0.17770000000E+01 0. -1.
         15    1    1    2    0    0  0.62131283355E+00 -0.15609862766E+01 -0.99021675635E+00  0.26383642693E+01  0.17770000000E+01 0.  1.
</event>
<event>
 6    1  0.2401028E-007  0.1871687E+03  0.7546771E-02  0.1064798E+00
        -11   -1    0    0    0    0  0.00000000000E+00  0.00000000000E+00  0.18250000000E+03  0.18250000000E+03  0.00000000000E+00 0. -1.
         11   -1    0    0    0    0 -0.00000000000E+00 -0.00000000000E+00 -0.18250000000E+03  0.18250000000E+03  0.00000000000E+00 0. -1.
        -11    1    1    2    0    0 -0.35558166934E+02  0.11181711249E+02 -0.17388085554E+03  0.17783128472E+03  0.00000000000E+00 0. -1.
         11    1    1    2    0    0  0.42022366447E+02 -0.47386271324E+01  0.67328662966E+02  0.79507752613E+02  0.00000000000E+00 0. -1.
        -15    1    1    2    0    0 -0.83349857218E+00  0.28737479387E+01  0.12890085182E+02  0.13351598109E+02  0.17770000000E+01 0.  1.
         15    1    1    2    0    0 -0.56307009407E+01 -0.93168320550E+01  0.93662107393E+02  0.94309364556E+02  0.17770000000E+01 0. -1.
</event>
<event>
 6    1  0.2401028E-007  0.1900235E+03  0.7546771E-02  0.1062619E+00
        -11   -1    0    0    0    0  0.00000000000E+00  0.00000000000E+00  0.18250000000E+03  0.18250000000E+03  0.00000000000E+00 0.  1.
         11   -1    0    0    0    0 -0.00000000000E+00 -0.00000000000E+00 -0.18250000000E+03  0.18250000000E+03  0.00000000000E+00 0.  1.
        -11    1    1    2    0    0 -0.96056753323E+02 -0.10622722851E+03 -0.10052681507E+03  0.17497646837E+03  0.00000000000E+00 0.  1.
         11    1    1    2    0    0  0.91048317285E+02  0.87888760753E+02  0.10449744056E+03  0.16411564651E+03  0.00000000000E+00 0.  1.
        -15    1    1    2    0    0  0.94578268728E+01  0.94990869505E+01 -0.72364443729E+01  0.15336459768E+02  0.17770000000E+01 0.  1.
         15    1    1    2    0    0 -0.44493908351E+01  0.88393808095E+01  0.32658188859E+01  0.10571425348E+02  0.17770000000E+01 0. -1.
</event>
<event>
 6    1  0.2401028E-007  0.1202767E+03  0.7546771E-02  0.1132748E+00
        -11   -1    0    0    0    0  0.00000000000E+00  0.00000000000E+00  0.18250000000E+03  0.18250000000E+03  0.00000000000E+00 0.  1.
         11   -1    0    0    0    0 -0.00000000000E+00 -0.00000000000E+00 -0.18250000000E+03  0.18250000000E+03  0.00000000000E+00 0. -1.
        -11    1    1    2    0    0 -0.79682970380E+02  0.89930629411E+02  0.73038538259E+02  0.14061124402E+03  0.00000000000E+00 0.  1.
         11    1    1    2    0    0  0.94294560126E+02 -0.70636924559E+02  0.25982308981E+02  0.12064874455E+03  0.00000000000E+00 0. -1.
        -15    1    1    2    0    0 -0.16740632906E+02 -0.79258889376E+01 -0.50229505798E+02  0.53565189137E+02  0.17770000000E+01 0. -1.
         15    1    1    2    0    0  0.21290431607E+01 -0.11367815914E+02 -0.48791341443E+02  0.50174822294E+02  0.17770000000E+01 0.  1.
</event>
<event>
 6    1  0.2401028E-007  0.1870676E+03  0.7546771E-02  0.1064876E+00
        -11   -1    0    0    0    0  0.00000000000E+00  0.00000000000E+00  0.18250000000E+03  0.18250000000E+03  0.00000000000E+00 0. -1.
         11   -1    0    0    0    0 -0.00000000000E+00 -0.00000000000E+00 -0.18250000000E+03  0.18250000000E+03  0.00000000000E+00 0. -1.
        -11    1    1    2    0    0  0.13810604520E+03 -0.11352503599E+02  0.24751816262E+02  0.14076509321E+03  0.00000000000E+00 0. -1.
         11    1    1    2    0    0 -0.16976728562E+03  0.42551562007E+02 -0.32068480258E+02  0.17793244258E+03  0.00000000000E+00 0. -1.
        -15    1    1    2    0    0  0.16131992555E+02 -0.22751827763E+02  0.48509178177E+01  0.28365048617E+02  0.17770000000E+01 0. -1.
         15    1    1    2    0    0  0.15529247869E+02 -0.84472306450E+01  0.24657461784E+01  0.17937415593E+02  0.17770000000E+01 0.  1.
</event>
<event>
 6    1  0.2401028E-007  0.1575089E+03  0.7546771E-02  0.1090295E+00
        -11   -1    0    0    0    0  0.00000000000E+00  0.00000000000E+00  0.18250000000E+03  0.18250000000E+03  0.00000000000E+00 0.  1.
         11   -1    0    0    0    0 -0.00000000000E+00 -0.00000000000E+00 -0.18250000000E+03  0.18250000000E+03  0.00000000000E+00 0. -1.
        -11    1    1    2    0    0 -0.45304883708E+02 -0.82506616211E+02 -0.13335852361E+03  0.16323103267E+03  0.00000000000E+00 0.  1.
         11    1    1    2    0    0  0.75006763763E+02  0.72987603725E+02  0.11295090692E+03  0.15398412997E+03  0.00000000000E+00 0. -1.
        -15    1    1    2    0    0  0.37891419296E+01  0.18386319283E+01  0.11305839767E+02  0.12194995111E+02  0.17770000000E+01 0. -1.
         15    1    1    2    0    0 -0.33491021984E+02  0.76803805572E+01  0.91017769236E+01  0.35589842248E+02  0.17770000000E+01 0.  1.
</event>
<event>
 6    1  0.2401028E-007  0.1970150E+03  0.7546771E-02  0.1057454E+00
        -11   -1    0    0    0    0  0.00000000000E+00  0.00000000000E+00  0.18250000000E+03  0.18250000000E+03  0.00000000000E+00 0. -1.
         11   -1    0    0    0    0 -0.00000000000E+00 -0.00000000000E+00 -0.18250000000E+03  0.18250000000E+03  0.00000000000E+00 0.  1.
        -11    1    1    2    0    0  0.10060392734E+03 -0.39070567875E+02 -0.12872951549E+03  0.16798496251E+03  0.00000000000E+00 0.  1.
         11    1    1    2    0    0 -0.99435268624E+02  0.32301729753E+02  0.11559175227E+03  0.15585964065E+03  0.00000000000E+00 0. -1.
        -15    1    1    2    0    0 -0.30351140449E+01  0.58345964517E+01 -0.13104917836E+02  0.14769936814E+02  0.17770000000E+01 0.  1.
         15    1    1    2    0    0  0.18664553239E+01  0.93424167020E+00  0.26242681055E+02  0.26385460029E+02  0.17770000000E+01 0. -1.
</event>
<event>
 6    1  0.2401028E-007  0.1941506E+03  0.7546771E-02  0.1059542E+00
        -11   -1    0    0    0    0  0.00000000000E+00  0.00000000000E+00  0.18250000000E+03  0.18250000000E+03  0.00000000000E+00 0.  1.
         11   -1    0    0    0    0 -0.00000000000E+00 -0.00000000000E+00 -0.18250000000E+03  0.18250000000E+03  0.00000000000E+00 0. -1.
        -11    1    1    2    0    0 -0.12036376391E+03  0.25848250465E+02 -0.11846501949E+03  0.17084943242E+03  0.00000000000E+00 0. -1.
         11    1    1    2    0    0  0.10177559329E+03 -0.33460021836E+02  0.72406852229E+02  0.12930814630E+03  0.00000000000E+00 0.  1.
        -15    1    1    2    0    0  0.26708341584E+01 -0.15034386693E+02  0.27385899741E+02  0.31405594597E+02  0.17770000000E+01 0. -1.
         15    1    1    2    0    0  0.15917336464E+02  0.22646158064E+02  0.18672267518E+02  0.33436826680E+02  0.17770000000E+01 0.  1.
</event>
<event>
 6    1  0.2401028E-007  0.1754099E+03  0.7546771E-02  0.1074243E+00
        -11   -1    0    0    0    0  0.00000000000E+00  0.00000000000E+00  0.18250000000E+03  0.18250000000E+03  0.00000000000E+00 0. -1.
         11   -1    0    0    0    0 -0.00000000000E+00 -0.00000000000E+00 -0.18250000000E+03  0.18250000000E+03  0.00000000000E+00 0. -1.
        -11    1    1    2    0    0 -0.17297063073E+03  0.18350754571E+02 -0.18355304169E+01  0.17395102317E+03  0.00000000000E+00 0. -1.
         11    1    1    2    0    0  0.17555727895E+03 -0.20899076626E+02 -0.10328806238E+02  0.17709831686E+03  0.00000000000E+00 0. -1.
        -15    1    1    2    0    0 -0.22307147976E+01  0.79327584301E-01  0.94050531692E+01  0.98282824282E+01  0.17770000000E+01 0.  1.
         15    1    1    2    0    0 -0.35593341719E+00  0.24689944712E+01  0.27592834859E+01  0.41223775484E+01  0.17770000000E+01 0. -1.
</event>
<event>
 6    1  0.2401028E-007  0.1478287E+03  0.7546771E-02  0.1099985E+00
        -11   -1    0    0    0    0  0.00000000000E+00  0.00000000000E+00  0.18250000000E+03  0.18250000000E+03  0.00000000000E+00 0.  1.
         11   -1    0    0    0    0 -0.00000000000E+00 -0.00000000000E+00 -0.18250000000E+03  0.18250000000E+03  0.00000000000E+00 0.  1.
        -11    1    1    2    0    0 -0.14562788967E+03 -0.55934467047E+01  0.17893384046E+02  0.14682963628E+03  0.00000000000E+00 0.  1.
         11    1    1    2    0    0  0.14890975750E+03 -0.26820247378E+02  0.34647637028E+02  0.15522209990E+03  0.00000000000E+00 0.  1.
        -15    1    1    2    0    0 -0.30354339107E+01  0.30842506726E+02 -0.42510474445E+02  0.52638125410E+02  0.17770000000E+01 0.  1.
         15    1    1    2    0    0 -0.24643391300E+00  0.15711873567E+01 -0.10030546628E+02  0.10310138411E+02  0.17770000000E+01 0. -1.
</event>
<event>
 6    1  0.2401028E-007  0.1712235E+03  0.7546771E-02  0.1077803E+00
        -11   -1    0    0    0    0  0.00000000000E+00  0.00000000000E+00  0.18250000000E+03  0.18250000000E+03  0.00000000000E+00 0. -1.
         11   -1    0    0    0    0 -0.00000000000E+00 -0.00000000000E+00 -0.18250000000E+03  0.18250000000E+03  0.00000000000E+00 0. -1.
        -11    1    1    2    0    0  0.11839774977E+03 -0.23251572399E+02 -0.12709422504E+03  0.17524726761E+03  0.00000000000E+00 0. -1.
         11    1    1    2    0    0 -0.11622990939E+03  0.39695342128E+02  0.11438526938E+03  0.16783653319E+03  0.00000000000E+00 0. -1.
        -15    1    1    2    0    0 -0.38541488345E+01 -0.11960394848E+02  0.82668107964E+01  0.15146068728E+02  0.17770000000E+01 0.  1.
         15    1    1    2    0    0  0.16863084581E+01 -0.44833748802E+01  0.44421448600E+01  0.67701304632E+01  0.17770000000E+01 0. -1.
</event>
<event>
 6    1  0.2401028E-007  0.1864703E+03  0.7546771E-02  0.1065338E+00
        -11   -1    0    0    0    0  0.00000000000E+00  0.00000000000E+00  0.18250000000E+03  0.18250000000E+03  0.00000000000E+00 0. -1.
         11   -1    0    0    0    0 -0.00000000000E+00 -0.00000000000E+00 -0.18250000000E+03  0.18250000000E+03  0.00000000000E+00 0.  1.
        -11    1    1    2    0    0 -0.12078177817E+02 -0.12288321319E+03  0.12894444667E+03  0.17852965241E+03  0.00000000000E+00 0. -1.
         11    1    1    2    0    0  0.27648286648E+02  0.10203983549E+03 -0.92641604264E+02  0.14056679061E+03  0.00000000000E+00 0.  1.
        -15    1    1    2    0    0 -0.14555425226E+02  0.12235136314E+02 -0.22550085628E+02  0.29550347798E+02  0.17770000000E+01 0.  1.
         15    1    1    2    0    0 -0.10146836049E+01  0.86082413786E+01 -0.13752756780E+02  0.16353209180E+02  0.17770000000E+01 0.  1.
</event>
<event>
 6    1  0.2401028E-007  0.1564973E+03  0.7546771E-02  0.1091271E+00
        -11   -1    0    0    0    0  0.00000000000E+00  0.00000000000E+00  0.18250000000E+03  0.18250000000E+03  0.00000000000E+00 0.  1.
         11   -1    0    0    0    0 -0.00000000000E+00 -0.00000000000E+00 -0.18250000000E+03  0.18250000000E+03  0.00000000000E+00 0. -1.
        -11    1    1    2    0    0 -0.58883201269E+02 -0.60265885441E+02 -0.14364393739E+03  0.16653164591E+03  0.00000000000E+00 0. -1.
         11    1    1    2    0    0  0.13914743748E+02  0.46267365731E+02  0.14199634400E+03  0.14999083617E+03  0.00000000000E+00 0.  1.
        -15    1    1    2    0    0  0.44131332732E+02  0.12290089165E+02  0.14874141485E+01  0.45869281117E+02  0.17770000000E+01 0.  1.
         15    1    1    2    0    0  0.83712478918E+00  0.17084305455E+01  0.16017924012E+00  0.26082368049E+01  0.17770000000E+01 0.  1.
</event>
<event>
 6    1  0.2401028E-007  0.1728700E+03  0.7546771E-02  0.1076390E+00
        -11   -1    0    0    0    0  0.00000000000E+00  0.00000000000E+00  0.18250000000E+03  0.18250000000E+03  0.00000000000E+00 0. -1.
         11   -1    0    0    0    0 -0.00000000000E+00 -0.00000000000E+00 -0.18250000000E+03  0.18250000000E+03  0.00000000000E+00 0. -1.
        -11    1    1    2    0    0 -0.65462284010E+02  0.10350331870E+02 -0.15488485967E+03  0.16846886879E+03  0.00000000000E+00 0. -1.
         11    1    1    2    0    0  0.60174328091E+02  0.14890572775E+01  0.16723151804E+03  0.17773448647E+03  0.00000000000E+00 0. -1.
        -15    1    1    2    0    0  0.21825230340E+00 -0.58403306417E+01 -0.49511347887E+01  0.78631139359E+01  0.17770000000E+01 0. -1.
         15    1    1    2    0    0  0.50697036148E+01 -0.59990585060E+01 -0.73955235845E+01  0.10933530802E+02  0.17770000000E+01 0. -1.
</event>
<event>
 6    1  0.2401028E-007  0.1862677E+03  0.7546771E-02  0.1065495E+00
        -11   -1    0    0    0    0  0.00000000000E+00  0.00000000000E+00  0.18250000000E+03  0.18250000000E+03  0.00000000000E+00 0. -1.
         11   -1    0    0    0    0 -0.00000000000E+00 -0.00000000000E+00 -0.18250000000E+03  0.18250000000E+03  0.00000000000E+00 0. -1.
        -11    1    1    2    0    0 -0.52122343884E+02 -0.69118743754E+01 -0.97502919696E+02  0.11077604474E+03  0.00000000000E+00 0. -1.
         11    1    1    2    0    0  0.53069306373E+02  0.33573318515E+02  0.16733710367E+03  0.17873227257E+03  0.00000000000E+00 0. -1.
        -15    1    1    2    0    0  0.26025383631E+01 -0.23180761066E+02 -0.57116408281E+02  0.61721655142E+02  0.17770000000E+01 0. -1.
         15    1    1    2    0    0 -0.35495008526E+01 -0.34806830741E+01 -0.12717775692E+02  0.13770027543E+02  0.17770000000E+01 0.  1.
</event>
<event>
 6    1  0.2401028E-007  0.1302858E+03  0.7546771E-02  0.1119817E+00
        -11   -1    0    0    0    0  0.00000000000E+00  0.00000000000E+00  0.18250000000E+03  0.18250000000E+03  0.00000000000E+00 0. -1.
         11   -1    0    0    0    0 -0.00000000000E+00 -0.00000000000E+00 -0.18250000000E+03  0.18250000000E+03  0.00000000000E+00 0. -1.
        -11    1    1    2    0    0  0.58350033552E+02  0.55220678686E+01  0.12799005472E+03  0.14077170794E+03  0.00000000000E+00 0. -1.
         11    1    1    2    0    0 -0.61112830092E+01  0.50498566914E+02 -0.12063896876E+03  0.13092445846E+03  0.00000000000E+00 0. -1.
        -15    1    1    2    0    0 -0.48555588255E+02 -0.24530484646E+02  0.12511614087E+02  0.55848796261E+02  0.17770000000E+01 0. -1.
         15    1    1    2    0    0 -0.36831622878E+01 -0.31490150136E+02 -0.19862700045E+02  0.37455037340E+02  0.17770000000E+01 0.  1.
</event>
<event>
 6    1  0.2401028E-007  0.1682728E+03  0.7546771E-02  0.1080380E+00
        -11   -1    0    0    0    0  0.00000000000E+00  0.00000000000E+00  0.18250000000E+03  0.18250000000E+03  0.00000000000E+00 0. -1.
         11   -1    0    0    0    0 -0.00000000000E+00 -0.00000000000E+00 -0.18250000000E+03  0.18250000000E+03  0.00000000000E+00 0. -1.
        -11    1    1    2    0    0 -0.17325788392E+03 -0.99368831261E+01  0.18659943440E+02  0.17454291586E+03  0.00000000000E+00 0. -1.
         11    1    1    2    0    0  0.16078081210E+03  0.24603253670E+02 -0.63706899465E+01  0.16277707247E+03  0.00000000000E+00 0. -1.
        -15    1    1    2    0    0  0.12624059315E+02 -0.17258394297E+02 -0.94615342636E+01  0.23449891405E+02  0.17770000000E+01 0. -1.
         15    1    1    2    0    0 -0.14698749221E+00  0.25920237527E+01 -0.28277192297E+01  0.42301202701E+01  0.17770000000E+01 0.  1.
</event>
<event>
 6    1  0.2401028E-007  0.1546384E+03  0.7546771E-02  0.1093087E+00
        -11   -1    0    0    0    0  0.00000000000E+00  0.00000000000E+00  0.18250000000E+03  0.18250000000E+03  0.00000000000E+00 0. -1.
         11   -1    0    0    0    0 -0.00000000000E+00 -0.00000000000E+00 -0.18250000000E+03  0.18250000000E+03  0.00000000000E+00 0. -1.
        -11    1    1    2    0    0 -0.18646226428E+02 -0.12945272299E+03 -0.59737754431E+02  0.14378556448E+03  0.00000000000E+00 0. -1.
         11    1    1    2    0    0  0.44068922368E+01  0.16632604980E+03  0.31293606716E+02  0.16930169923E+03  0.00000000000E+00 0. -1.
        -15    1    1    2    0    0 -0.37566660114E+01 -0.40182277888E+01  0.53040465637E+01  0.78453382995E+01  0.17770000000E+01 0. -1.
         15    1    1    2    0    0  0.17996000203E+02 -0.32855099024E+02  0.23140101151E+02  0.44067397988E+02  0.17770000000E+01 0. -1.
</event>
<event>
 6    1  0.2401028E-007  0.1696452E+03  0.7546771E-02  0.1079174E+00
        -11   -1    0    0    0    0  0.00000000000E+00  0.00000000000E+00  0.18250000000E+03  0.18250000000E+03  0.00000000000E+00 0.  1.
         11   -1    0    0    0    0 -0.00000000000E+00 -0.00000000000E+00 -0.18250000000E+03  0.18250000000E+03  0.00000000000E+00 0.  1.
        -11    1    1    2    0    0 -0.86934999865E+02 -0.53139387580E+02 -0.13935864898E+03  0.17263348968E+03  0.00000000000E+00 0.  1.
         11    1    1    2    0    0  0.85919235529E+02  0.29603447673E+02  0.14067635651E+03  0.16747631603E+03  0.00000000000E+00 0.  1.
        -15    1    1    2    0    0  0.67933250617E+00  0.42418926478E+01  0.22839676393E+01  0.51797087820E+01  0.17770000000E+01 0.  1.
         15    1    1    2    0    0  0.33643182948E+00  0.19294047259E+02 -0.36016751704E+01  0.19710485510E+02  0.17770000000E+01 0. -1.
</event>
<event>
 6    1  0.2401028E-007  0.1842773E+03  0.7546771E-02  0.1067049E+00
        -11   -1    0    0    0    0  0.00000000000E+00  0.00000000000E+00  0.18250000000E+03  0.18250000000E+03  0.00000000000E+00 0.  1.
         11   -1    0    0    0    0 -0.00000000000E+00 -0.00000000000E+00 -0.18250000000E+03  0.18250000000E+03  0.00000000000E+00 0.  1.
        -11    1    1    2    0    0 -0.58100067774E+02 -0.43123979763E+02 -0.16560616545E+03  0.18072270898E+03  0.00000000000E+00 0.  1.
         11    1    1    2    0    0  0.54340936223E+02  0.39302950988E+02  0.16074018477E+03  0.17416964806E+03  0.00000000000E+00 0.  1.
        -15    1    1    2    0    0  0.26288365849E+01  0.13291027608E+00 -0.55196590839E+00  0.32234829448E+01  0.17770000000E+01 0. -1.
         15    1    1    2    0    0  0.11302949661E+01  0.36881184989E+01  0.54179465882E+01  0.68841600072E+01  0.17770000000E+01 0.  1.
</event>
<event>
 6    1  0.2401028E-007  0.1894001E+03  0.7546771E-02  0.1063091E+00
        -11   -1    0    0    0    0  0.00000000000E+00  0.00000000000E+00  0.18250000000E+03  0.18250000000E+03  0.00000000000E+00 0. -1.
         11   -1    0    0    0    0 -0.00000000000E+00 -0.00000000000E+00 -0.18250000000E+03  0.18250000000E+03  0.00000000000E+00 0. -1.
        -11    1    1    2    0    0  0.74746684820E+01  0.90874048392E+02 -0.15007113192E+03  0.17559985187E+03  0.00000000000E+00 0. -1.
         11    1    1    2    0    0 -0.44211404049E+01 -0.88216985284E+02  0.12013621165E+03  0.14911234800E+03  0.00000000000E+00 0. -1.
        -15    1    1    2    0    0 -0.13672581726E+02 -0.68530897429E+01  0.17663103046E+02  0.23431757687E+02  0.17770000000E+01 0.  1.
         15    1    1    2    0    0  0.10619053649E+02  0.41960266350E+01  0.12271817225E+02  0.16856042446E+02  0.17770000000E+01 0. -1.
</event>
<event>
 6    1  0.2401028E-007  0.1658709E+03  0.7546771E-02  0.1082520E+00
        -11   -1    0    0    0    0  0.00000000000E+00  0.00000000000E+00  0.18250000000E+03  0.18250000000E+03  0.00000000000E+00 0. -1.
         11   -1    0    0    0    0 -0.00000000000E+00 -0.00000000000E+00 -0.18250000000E+03  0.18250000000E+03  0.00000000000E+00 0. -1.
        -11    1    1    2    0    0  0.12481357005E+03 -0.10508063541E+03 -0.45478488801E+02  0.16937727165E+03  0.00000000000E+00 0. -1.
         11    1    1    2    0    0 -0.12696104014E+03  0.10243957053E+03  0.14759620645E+02  0.16380115300E+03  0.00000000000E+00 0. -1.
        -15    1    1    2    0    0  0.37402107391E+01 -0.58939643983E+00  0.18191440526E+02  0.18666086948E+02  0.17770000000E+01 0.  1.
         15    1    1    2    0    0 -0.15927406496E+01  0.32304613206E+01  0.12527427629E+02  0.13155488403E+02  0.17770000000E+01 0. -1.
</event>
<event>
 6    1  0.2401028E-007  0.1889737E+03  0.7546771E-02  0.1063415E+00
        -11   -1    0    0    0    0  0.00000000000E+00  0.00000000000E+00  0.18250000000E+03  0.18250000000E+03  0.00000000000E+00 0. -1.
         11   -1    0    0    0    0 -0.00000000000E+00 -0.00000000000E+00 -0.18250000000E+03  0.18250000000E+03  0.00000000000E+00 0.  1.
        -11    1    1    2    0    0  0.44440413825E+01  0.12810251503E+03  0.12064513488E+03  0.17602628335E+03  0.00000000000E+00 0. -1.
         11    1    1    2    0    0 -0.23972393088E+02 -0.10213038760E+03 -0.67392870460E+02  0.12468797332E+03  0.00000000000E+00 0.  1.
        -15    1    1    2    0    0  0.52202677583E+01 -0.11683224991E+02 -0.33742217711E+02  0.36130927565E+02  0.17770000000E+01 0.  1.
         15    1    1    2    0    0  0.14308083947E+02 -0.14288902433E+02 -0.19510046711E+02  0.28154815763E+02  0.17770000000E+01 0.  1.
</event>
<event>
 6    1  0.2401028E-007  0.1888315E+03  0.7546771E-02  0.1063524E+00
        -11   -1    0    0    0    0  0.00000000000E+00  0.00000000000E+00  0.18250000000E+03  0.18250000000E+03  0.00000000000E+00 0. -1.
         11   -1    0    0    0    0 -0.00000000000E+00 -0.00000000000E+00 -0.18250000000E+03  0.18250000000E+03  0.00000000000E+00 0. -1.
        -11    1    1    2    0    0 -0.12350571959E+01  0.55915009262E+02  0.16705489522E+03  0.17616853194E+03  0.00000000000E+00 0. -1.
         11    1    1    2    0    0 -0.26413834054E+02 -0.89011892871E+01 -0.40636168202E+02  0.49276971968E+02  0.00000000000E+00 0. -1.
        -15    1    1    2    0    0  0.19003739288E+02 -0.11040509091E+02 -0.45513680616E+02  0.50573587970E+02  0.17770000000E+01 0. -1.
         15    1    1    2    0    0  0.86451519621E+01 -0.35973310883E+02 -0.80905046404E+02  0.88980908126E+02  0.17770000000E+01 0.  1.
</event>
<event>
 6    1  0.2401028E-007  0.1982268E+03  0.7546771E-02  0.1056583E+00
        -11   -1    0    0    0    0  0.00000000000E+00  0.00000000000E+00  0.18250000000E+03  0.18250000000E+03  0.00000000000E+00 0. -1.
         11   -1    0    0    0    0 -0.00000000000E+00 -0.00000000000E+00 -0.18250000000E+03  0.18250000000E+03  0.00000000000E+00 0.  1.
        -11    1    1    2    0    0  0.76840515649E+02 -0.74915894794E+02 -0.12054795524E+03  0.16139599019E+03  0.00000000000E+00 0.  1.
         11    1    1    2    0    0 -0.85040689441E+02  0.77686214837E+02  0.12060774142E+03  0.16677318168E+03  0.00000000000E+00 0. -1.
        -15    1    1    2    0    0  0.11926963433E+01 -0.73943225651E+01  0.16484520556E+02  0.18193286611E+02  0.17770000000E+01 0. -1.
         15    1    1    2    0    0  0.70074774488E+01  0.46240025221E+01 -0.16544306738E+02  0.18637541522E+02  0.17770000000E+01 0.  1.
</event>
<event>
 6    1  0.3220282E-007  0.1848520E+03  0.7546771E-02  0.1066598E+00
        -11   -1    0    0    0    0  0.00000000000E+00  0.00000000000E+00  0.18250000000E+03  0.18250000000E+03  0.00000000000E+00 0. -1.
         11   -1    0    0    0    0 -0.00000000000E+00 -0.00000000000E+00 -0.18250000000E+03  0.18250000000E+03  0.00000000000E+00 0.  1.
        -11    1    1    2    0    0  0.59733196766E+01 -0.52975009169E+02 -0.15482763608E+03  0.16374867645E+03  0.00000000000E+00 0.  1.
         11    1    1    2    0    0 -0.80786032140E+01  0.52005514542E+02  0.17228887990E+03  0.18014798226E+03  0.00000000000E+00 0. -1.
        -15    1    1    2    0    0 -0.43790779275E+01  0.18194359743E+01 -0.79078262646E+01  0.93903203348E+01  0.17770000000E+01 0.  1.
         15    1    1    2    0    0  0.64843614649E+01 -0.84994134747E+00 -0.95534175575E+01  0.11713020957E+02  0.17770000000E+01 0. -1.
</event>
<event>
 6    1  0.2401028E-007  0.1713631E+03  0.7546771E-02  0.1077682E+00
        -11   -1    0    0    0    0  0.00000000000E+00  0.00000000000E+00  0.18250000000E+03  0.18250000000E+03  0.00000000000E+00 0.  1.
         11   -1    0    0    0    0 -0.00000000000E+00 -0.00000000000E+00 -0.18250000000E+03  0.18250000000E+03  0.00000000000E+00 0.  1.
        -11    1    1    2    0    0 -0.13897198553E+03  0.75121803947E+02 -0.62729679547E+02  0.16997503018E+03  0.00000000000E+00 0.  1.
         11    1    1    2    0    0  0.14211841768E+03 -0.61736688517E+02  0.77735813156E+02  0.17335489609E+03  0.00000000000E+00 0.  1.
        -15    1    1    2    0    0 -0.40241015809E+01 -0.96753393283E+01 -0.73099180766E+01  0.12899543245E+02  0.17770000000E+01 0.  1.
         15    1    1    2    0    0  0.87766943060E+00 -0.37097761013E+01 -0.76962155322E+01  0.87705304783E+01  0.17770000000E+01 0. -1.
</event>
<event>
 6    1  0.2401028E-007  0.1859138E+03  0.7546771E-02  0.1065769E+00
        -11   -1    0    0    0    0  0.00000000000E+00  0.00000000000E+00  0.18250000000E+03  0.18250000000E+03  0.00000000000E+00 0.  1.
         11   -1    0    0    0    0 -0.00000000000E+00 -0.00000000000E+00 -0.18250000000E+03  0.18250000000E+03  0.00000000000E+00 0. -1.
        -11    1    1    2    0    0  0.12118617873E+02  0.16846131045E+03  0.59546706239E+02  0.17908624805E+03  0.00000000000E+00 0.  1.
         11    1    1    2    0    0 -0.64974608951E+01 -0.15915206510E+03 -0.43427512490E+02  0.16509859377E+03  0.00000000000E+00 0. -1.
        -15    1    1    2    0    0 -0.33020879981E+01 -0.39143557495E+00 -0.50818560312E+01  0.63277165454E+01  0.17770000000E+01 0.  1.
         15    1    1    2    0    0 -0.23190689800E+01 -0.89178097705E+01 -0.11037337717E+02  0.14487441628E+02  0.17770000000E+01 0. -1.
</event>
<event>
 6    1  0.2401028E-007  0.1855553E+03  0.7546771E-02  0.1066048E+00
        -11   -1    0    0    0    0  0.00000000000E+00  0.00000000000E+00  0.18250000000E+03  0.18250000000E+03  0.00000000000E+00 0.  1.
         11   -1    0    0    0    0 -0.00000000000E+00 -0.00000000000E+00 -0.18250000000E+03  0.18250000000E+03  0.00000000000E+00 0.  1.
        -11    1    1    2    0    0  0.84045332265E+02 -0.55705038647E+02  0.14843761704E+03  0.17944468607E+03  0.00000000000E+00 0.  1.
         11    1    1    2    0    0 -0.57554693984E+02  0.12766837786E+02 -0.73640337109E+02  0.94331512212E+02  0.00000000000E+00 0.  1.
        -15    1    1    2    0    0 -0.73853596119E+00  0.36462652144E+01 -0.20418023640E+01  0.46008011556E+01  0.17770000000E+01 0. -1.
         15    1    1    2    0    0 -0.25752102319E+02  0.39291935647E+02 -0.72755477569E+02  0.86623000560E+02  0.17770000000E+01 0.  1.
</event>
<event>
 6    1  0.2401028E-007  0.1282419E+03  0.7546771E-02  0.1122351E+00
        -11   -1    0    0    0    0  0.00000000000E+00  0.00000000000E+00  0.18250000000E+03  0.18250000000E+03  0.00000000000E+00 0. -1.
         11   -1    0    0    0    0 -0.00000000000E+00 -0.00000000000E+00 -0.18250000000E+03  0.18250000000E+03  0.00000000000E+00 0.  1.
        -11    1    1    2    0    0  0.66399036097E+02  0.43218459784E+02  0.13664126796E+03  0.15794778684E+03  0.00000000000E+00 0. -1.
         11    1    1    2    0    0 -0.74775272276E+02 -0.70717893242E+02 -0.49834232492E+02  0.11434951901E+03  0.00000000000E+00 0.  1.
        -15    1    1    2    0    0 -0.24526430595E+01  0.10621507463E+02 -0.44497706169E+02  0.45847960282E+02  0.17770000000E+01 0. -1.
         15    1    1    2    0    0  0.10828879239E+02  0.16877925995E+02 -0.42309329295E+02  0.46854733868E+02  0.17770000000E+01 0.  1.
</event>
<event>
 6    1  0.2401028E-007  0.1947529E+03  0.7546771E-02  0.1059099E+00
        -11   -1    0    0    0    0  0.00000000000E+00  0.00000000000E+00  0.18250000000E+03  0.18250000000E+03  0.00000000000E+00 0. -1.
         11   -1    0    0    0    0 -0.00000000000E+00 -0.00000000000E+00 -0.18250000000E+03  0.18250000000E+03  0.00000000000E+00 0.  1.
        -11    1    1    2    0    0 -0.12462498691E+03  0.14689318692E+02  0.11505171044E+03  0.17024705437E+03  0.00000000000E+00 0. -1.
         11    1    1    2    0    0  0.10819709203E+03 -0.41065760553E+02 -0.73554832438E+02  0.13712520115E+03  0.00000000000E+00 0.  1.
        -15    1    1    2    0    0  0.68375789007E+01  0.25581172468E+02 -0.17706729984E+02  0.31903524661E+02  0.17770000000E+01 0.  1.
         15    1    1    2    0    0  0.95903159724E+01  0.79526939344E+00 -0.23790148021E+02  0.25724219827E+02  0.17770000000E+01 0. -1.
</event>
<event>
 6    1  0.2401028E-007  0.1873808E+03  0.7546771E-02  0.1064635E+00
        -11   -1    0    0    0    0  0.00000000000E+00  0.00000000000E+00  0.18250000000E+03  0.18250000000E+03  0.00000000000E+00 0.  1.
         11   -1    0    0    0    0 -0.00000000000E+00 -0.00000000000E+00 -0.18250000000E+03  0.18250000000E+03  0.00000000000E+00 0. -1.
        -11    1    1    2    0    0 -0.69153707684E+02 -0.62539674569E+02 -0.10525666601E+03  0.14061440865E+03  0.00000000000E+00 0. -1.
         11    1    1    2    0    0  0.87389971986E+02  0.67986074390E+02  0.13888652339E+03  0.17761919912E+03  0.00000000000E+00 0.  1.
        -15    1    1    2    0    0  0.93468018566E+00 -0.10417206197E+02 -0.20061017796E+02  0.22693478712E+02  0.17770000000E+01 0.  1.
         15    1    1    2    0    0 -0.19170944488E+02  0.49708063764E+01 -0.13568839589E+02  0.24072913521E+02  0.17770000000E+01 0. -1.
</event>
<event>
 6    1  0.2401028E-007  0.1711263E+03  0.7546771E-02  0.1077887E+00
        -11   -1    0    0    0    0  0.00000000000E+00  0.00000000000E+00  0.18250000000E+03  0.18250000000E+03  0.00000000000E+00 0. -1.
         11   -1    0    0    0    0 -0.00000000000E+00 -0.00000000000E+00 -0.18250000000E+03  0.18250000000E+03  0.00000000000E+00 0. -1.
        -11    1    1    2    0    0  0.10159387839E+03  0.75647397736E+02 -0.11332191546E+03  0.16995794019E+03  0.00000000000E+00 0. -1.
         11    1    1    2    0    0 -0.86149804592E+02 -0.83964635832E+02  0.12421116482E+03  0.17291692331E+03  0.00000000000E+00 0. -1.
        -15    1    1    2    0    0 -0.95038401693E+01  0.87557697434E+01 -0.73274027269E+01  0.14961117655E+02  0.17770000000E+01 0. -1.
         15    1    1    2    0    0 -0.59402336284E+01 -0.43853164717E+00 -0.35618466336E+01  0.71640188447E+01  0.17770000000E+01 0.  1.
</event>
<event>
 6    1  0.2401028E-007  0.1231599E+03  0.7546771E-02  0.1128884E+00
        -11   -1    0    0    0    0  0.00000000000E+00  0.00000000000E+00  0.18250000000E+03  0.18250000000E+03  0.00000000000E+00 0.  1.
         11   -1    0    0    0    0 -0.00000000000E+00 -0.00000000000E+00 -0.18250000000E+03  0.18250000000E+03  0.00000000000E+00 0.  1.
        -11    1    1    2    0    0  0.61129222935E+02  0.59842810269E+02  0.12370919092E+03  0.15040581024E+03  0.00000000000E+00 0.  1.
         11    1    1    2    0    0 -0.18960958725E+02 -0.95081872417E+02 -0.23704463829E+02  0.99809729103E+02  0.00000000000E+00 0.  1.
        -15    1    1    2    0    0 -0.68115184821E+01  0.11752499010E+02 -0.28240910945E+02  0.31388290763E+02  0.17770000000E+01 0. -1.
         15    1    1    2    0    0 -0.35356745728E+02  0.23486563139E+02 -0.71763816141E+02  0.83396169892E+02  0.17770000000E+01 0.  1.
</event>
<event>
 6    1  0.2401028E-007  0.1860027E+03  0.7546771E-02  0.1065700E+00
        -11   -1    0    0    0    0  0.00000000000E+00  0.00000000000E+00  0.18250000000E+03  0.18250000000E+03  0.00000000000E+00 0. -1.
         11   -1    0    0    0    0 -0.00000000000E+00 -0.00000000000E+00 -0.18250000000E+03  0.18250000000E+03  0.00000000000E+00 0.  1.
        -11    1    1    2    0    0 -0.11055016147E+03 -0.11035142689E+03  0.67130209931E+02  0.17001541313E+03  0.00000000000E+00 0. -1.
         11    1    1    2    0    0  0.10744859515E+03  0.12249771954E+03 -0.74088726341E+02  0.17899729401E+03  0.00000000000E+00 0.  1.
        -15    1    1    2    0    0  0.32185570070E+01 -0.47357580636E+01  0.53370272575E+00  0.60190598306E+01  0.17770000000E+01 0. -1.
         15    1    1    2    0    0 -0.11699068497E+00 -0.74105345925E+01  0.64248136839E+01  0.99682330249E+01  0.17770000000E+01 0.  1.
</event>
<event>
 6    1  0.2401028E-007  0.1736713E+03  0.7546771E-02  0.1075708E+00
        -11   -1    0    0    0    0  0.00000000000E+00  0.00000000000E+00  0.18250000000E+03  0.18250000000E+03  0.00000000000E+00 0.  1.
         11   -1    0    0    0    0 -0.00000000000E+00 -0.00000000000E+00 -0.18250000000E+03  0.18250000000E+03  0.00000000000E+00 0.  1.
        -11    1    1    2    0    0  0.32002860348E+02  0.39639872674E+02 -0.16671807142E+03  0.17432847706E+03  0.00000000000E+00 0.  1.
         11    1    1    2    0    0 -0.30845057283E+02 -0.30631419586E+02  0.16758767976E+03  0.17313385524E+03  0.00000000000E+00 0.  1.
        -15    1    1    2    0    0  0.13378998104E+01 -0.66737795295E+00  0.59170757749E+01  0.63564836160E+01  0.17770000000E+01 0.  1.
         15    1    1    2    0    0 -0.24957028750E+01 -0.83410751350E+01 -0.67866841074E+01  0.11181184080E+02  0.17770000000E+01 0. -1.
</event>
<event>
 6    1  0.2401028E-007  0.1680699E+03  0.7546771E-02  0.1080559E+00
        -11   -1    0    0    0    0  0.00000000000E+00  0.00000000000E+00  0.18250000000E+03  0.18250000000E+03  0.00000000000E+00 0. -1.
         11   -1    0    0    0    0 -0.00000000000E+00 -0.00000000000E+00 -0.18250000000E+03  0.18250000000E+03  0.00000000000E+00 0. -1.
        -11    1    1    2    0    0 -0.10436895741E+03 -0.26445254681E+02 -0.12653075570E+03  0.16613928766E+03  0.00000000000E+00 0. -1.
         11    1    1    2    0    0  0.12381699161E+03  0.10331534264E+02  0.11758586191E+03  0.17106672071E+03  0.00000000000E+00 0. -1.
        -15    1    1    2    0    0 -0.13048092553E+02  0.82293747134E+01  0.27600559443E+01  0.15771840896E+02  0.17770000000E+01 0. -1.
         15    1    1    2    0    0 -0.63999416496E+01  0.78843457043E+01  0.61848378418E+01  0.12022150741E+02  0.17770000000E+01 0. -1.
</event>
<event>
 6    1  0.2401028E-007  0.1681311E+03  0.7546771E-02  0.1080505E+00
        -11   -1    0    0    0    0  0.00000000000E+00  0.00000000000E+00  0.18250000000E+03  0.18250000000E+03  0.00000000000E+00 0.  1.
         11   -1    0    0    0    0 -0.00000000000E+00 -0.00000000000E+00 -0.18250000000E+03  0.18250000000E+03  0.00000000000E+00 0. -1.
        -11    1    1    2    0    0 -0.95474001916E+02  0.14354469697E+03  0.18693447213E+02  0.17340648788E+03  0.00000000000E+00 0.  1.
         11    1    1    2    0    0  0.10464916879E+03 -0.12203431336E+03 -0.32105318264E+02  0.16393466268E+03  0.00000000000E+00 0. -1.
        -15    1    1    2    0    0 -0.89073316045E+01 -0.17950842180E+02  0.12021033199E+02  0.23435790139E+02  0.17770000000E+01 0. -1.
         15    1    1    2    0    0 -0.26783526696E+00 -0.35595414299E+01  0.13908378521E+01  0.42230593001E+01  0.17770000000E+01 0. -1.
</event>
<event>
 6    1  0.2401028E-007  0.1898628E+03  0.7546771E-02  0.1062741E+00
        -11   -1    0    0    0    0  0.00000000000E+00  0.00000000000E+00  0.18250000000E+03  0.18250000000E+03  0.00000000000E+00 0.  1.
         11   -1    0    0    0    0 -0.00000000000E+00 -0.00000000000E+00 -0.18250000000E+03  0.18250000000E+03  0.00000000000E+00 0.  1.
        -11    1    1    2    0    0  0.22769584569E+02  0.12936783866E+03 -0.80749400484E+02  0.15419130112E+03  0.00000000000E+00 0.  1.
         11    1    1    2    0    0 -0.72749114485E+01 -0.15460379227E+03  0.81962178771E+02  0.17513724809E+03  0.00000000000E+00 0.  1.
        -15    1    1    2    0    0 -0.19903261422E+02  0.17545283569E+02 -0.13955860221E+01  0.26628597035E+02  0.17770000000E+01 0. -1.
         15    1    1    2    0    0  0.44085883016E+01  0.76906700335E+01  0.18280773546E+00  0.90428537556E+01  0.17770000000E+01 0.  1.
</event>
<event>
 6    1  0.2401028E-007  0.1853335E+03  0.7546771E-02  0.1066221E+00
        -11   -1    0    0    0    0  0.00000000000E+00  0.00000000000E+00  0.18250000000E+03  0.18250000000E+03  0.00000000000E+00 0. -1.
         11   -1    0    0    0    0 -0.00000000000E+00 -0.00000000000E+00 -0.18250000000E+03  0.18250000000E+03  0.00000000000E+00 0. -1.
        -11    1    1    2    0    0 -0.64662856440E+02  0.11050376234E+03 -0.96265024979E+02  0.16018527251E+03  0.00000000000E+00 0. -1.
         11    1    1    2    0    0  0.83812661049E+02 -0.11953799850E+03  0.10471939767E+03  0.17966648960E+03  0.00000000000E+00 0. -1.
        -15    1    1    2    0    0 -0.11827008099E+02  0.83503500239E+01 -0.11503940665E+01  0.14631732693E+02  0.17770000000E+01 0. -1.
         15    1    1    2    0    0 -0.73227965107E+01  0.68388613453E+00 -0.73039786201E+01  0.10516505202E+02  0.17770000000E+01 0. -1.
</event>
<event>
 6    1  0.2401028E-007  0.1859188E+03  0.7546771E-02  0.1065766E+00
        -11   -1    0    0    0    0  0.00000000000E+00  0.00000000000E+00  0.18250000000E+03  0.18250000000E+03  0.00000000000E+00 0. -1.
         11   -1    0    0    0    0 -0.00000000000E+00 -0.00000000000E+00 -0.18250000000E+03  0.18250000000E+03  0.00000000000E+00 0. -1.
        -11    1    1    2    0    0 -0.28950677127E+02  0.14234556804E+03  0.76494663661E+02  0.16417014349E+03  0.00000000000E+00 0. -1.
         11    1    1    2    0    0  0.19395336678E+02 -0.15446162009E+03 -0.88518367381E+02  0.17908118977E+03  0.00000000000E+00 0. -1.
        -15    1    1    2    0    0  0.10141563718E+02  0.83471288327E+01  0.63832055787E+01  0.14711523267E+02  0.17770000000E+01 0.  1.
         15    1    1    2    0    0 -0.58622326816E+00  0.37689232202E+01  0.56404981411E+01  0.70371434716E+01  0.17770000000E+01 0. -1.
</event>
<event>
 6    1  0.2401028E-007  0.1850285E+03  0.7546771E-02  0.1066460E+00
        -11   -1    0    0    0    0  0.00000000000E+00  0.00000000000E+00  0.18250000000E+03  0.18250000000E+03  0.00000000000E+00 0.  1.
         11   -1    0    0    0    0 -0.00000000000E+00 -0.00000000000E+00 -0.18250000000E+03  0.18250000000E+03  0.00000000000E+00 0.  1.
        -11    1    1    2    0    0 -0.13830121474E+03 -0.49089305708E+02 -0.10417650673E+03  0.17997147132E+03  0.00000000000E+00 0.  1.
         11    1    1    2    0    0  0.12810395047E+03  0.44518428450E+02  0.96543764716E+02  0.16647285395E+03  0.00000000000E+00 0.  1.
        -15    1    1    2    0    0 -0.75379208046E+00 -0.25241411782E+01  0.35586449657E+01  0.47708672356E+01  0.17770000000E+01 0.  1.
         15    1    1    2    0    0  0.10951056355E+02  0.70950184366E+01  0.40740970526E+01  0.13784807496E+02  0.17770000000E+01 0. -1.
</event>
<event>
 6    1  0.2401028E-007  0.1651719E+03  0.7546771E-02  0.1083151E+00
        -11   -1    0    0    0    0  0.00000000000E+00  0.00000000000E+00  0.18250000000E+03  0.18250000000E+03  0.00000000000E+00 0.  1.
         11   -1    0    0    0    0 -0.00000000000E+00 -0.00000000000E+00 -0.18250000000E+03  0.18250000000E+03  0.00000000000E+00 0.  1.
        -11    1    1    2    0    0  0.74986470531E+02 -0.15028939629E+03  0.23210552806E+02  0.16955413047E+03  0.00000000000E+00 0.  1.
         11    1    1    2    0    0 -0.65210630802E+02  0.14833469592E+03  0.44753026637E+01  0.16209761478E+03  0.00000000000E+00 0.  1.
        -15    1    1    2    0    0 -0.92119727004E+01 -0.20459868630E+01 -0.62372441868E+01  0.11450216038E+02  0.17770000000E+01 0.  1.
         15    1    1    2    0    0 -0.56386702821E+00  0.40006872303E+01 -0.21448611283E+02  0.21898038709E+02  0.17770000000E+01 0. -1.
</event>
<event>
 6    1  0.2401028E-007  0.1697298E+03  0.7546771E-02  0.1079100E+00
        -11   -1    0    0    0    0  0.00000000000E+00  0.00000000000E+00  0.18250000000E+03  0.18250000000E+03  0.00000000000E+00 0.  1.
         11   -1    0    0    0    0 -0.00000000000E+00 -0.00000000000E+00 -0.18250000000E+03  0.18250000000E+03  0.00000000000E+00 0.  1.
        -11    1    1    2    0    0 -0.16069999209E+03 -0.20538001937E+02  0.42943648290E+02  0.16760207012E+03  0.00000000000E+00 0.  1.
         11    1    1    2    0    0  0.16869183928E+03  0.27460078773E+02 -0.23799440549E+02  0.17256131066E+03  0.00000000000E+00 0.  1.
        -15    1    1    2    0    0 -0.67782165038E+01 -0.99006374632E+01 -0.15189970041E+02  0.19438615177E+02  0.17770000000E+01 0. -1.
         15    1    1    2    0    0 -0.12136306895E+01  0.29785606270E+01 -0.39542377000E+01  0.53980040429E+01  0.17770000000E+01 0.  1.
</event>
<event>
 6    1  0.2401028E-007  0.1695126E+03  0.7546771E-02  0.1079290E+00
        -11   -1    0    0    0    0  0.00000000000E+00  0.00000000000E+00  0.18250000000E+03  0.18250000000E+03  0.00000000000E+00 0.  1.
         11   -1    0    0    0    0 -0.00000000000E+00 -0.00000000000E+00 -0.18250000000E+03  0.18250000000E+03  0.00000000000E+00 0. -1.
        -11    1    1    2    0    0  0.24941713149E+02 -0.15546161304E+03  0.60524864484E+02  0.16868213126E+03  0.00000000000E+00 0.  1.
         11    1    1    2    0    0 -0.16214286065E+02  0.14928141904E+03 -0.82241649368E+02  0.17120611564E+03  0.00000000000E+00 0. -1.
        -15    1    1    2    0    0 -0.45644949846E+01  0.63108440149E+01  0.15271621528E+02  0.17234892507E+02  0.17770000000E+01 0.  1.
         15    1    1    2    0    0 -0.41629320990E+01 -0.13065000767E+00  0.64451633570E+01  0.78768605919E+01  0.17770000000E+01 0.  1.
</event>
<event>
 6    1  0.2687368E-007  0.1872642E+03  0.7546771E-02  0.1064725E+00
        -11   -1    0    0    0    0  0.00000000000E+00  0.00000000000E+00  0.18250000000E+03  0.18250000000E+03  0.00000000000E+00 0. -1.
         11   -1    0    0    0    0 -0.00000000000E+00 -0.00000000000E+00 -0.18250000000E+03  0.18250000000E+03  0.00000000000E+00 0. -1.
        -11    1    1    2    0    0  0.70320438880E+02  0.48309940777E+01  0.76842376995E+02  0.10427393505E+03  0.00000000000E+00 0. -1.
         11    1    1    2    0    0 -0.79601663818E+02 -0.66065720667E+00 -0.15891240591E+03  0.17773579860E+03  0.00000000000E+00 0. -1.
        -15    1    1    2    0    0  0.28267993148E+01 -0.42622514626E+01  0.29169890552E+02  0.29668128113E+02  0.17770000000E+01 0.  1.
         15    1    1    2    0    0  0.64544256237E+01  0.91914591584E-01  0.52900138366E+02  0.53322138241E+02  0.17770000000E+01 0. -1.
</event>
<event>
 6    1  0.2401028E-007  0.1409800E+03  0.7546771E-02  0.1107347E+00
        -11   -1    0    0    0    0  0.00000000000E+00  0.00000000000E+00  0.18250000000E+03  0.18250000000E+03  0.00000000000E+00 0. -1.
         11   -1    0    0    0    0 -0.00000000000E+00 -0.00000000000E+00 -0.18250000000E+03  0.18250000000E+03  0.00000000000E+00 0. -1.
        -11    1    1    2    0    0 -0.11970159211E+03 -0.21644180980E+01  0.92755989267E+02  0.15144909840E+03  0.00000000000E+00 0. -1.
         11    1    1    2    0    0  0.12618075622E+03  0.48247245903E+02 -0.36225416160E+02  0.13986300709E+03  0.00000000000E+00 0. -1.
        -15    1    1    2    0    0 -0.49874831125E+01 -0.41152061065E+02 -0.46871081098E+02  0.62597308968E+02  0.17770000000E+01 0.  1.
         15    1    1    2    0    0 -0.14916809906E+01 -0.49307667401E+01 -0.96594920084E+01  0.11090585543E+02  0.17770000000E+01 0. -1.
</event>
<event>
 6    1  0.2501704E-007  0.1858816E+03  0.7546771E-02  0.1065794E+00
        -11   -1    0    0    0    0  0.00000000000E+00  0.00000000000E+00  0.18250000000E+03  0.18250000000E+03  0.00000000000E+00 0.  1.
         11   -1    0    0    0    0 -0.00000000000E+00 -0.00000000000E+00 -0.18250000000E+03  0.18250000000E+03  0.00000000000E+00 0. -1.
        -11    1    1    2    0    0  0.66730103379E+02 -0.47031732152E+02  0.15943187173E+03  0.17911843079E+03  0.00000000000E+00 0.  1.
         11    1    1    2    0    0 -0.61791269775E+02  0.47086084786E+02 -0.10728426329E+03  0.13245819548E+03  0.00000000000E+00 0. -1.
        -15    1    1    2    0    0 -0.41183834345E+01  0.23151143273E+01 -0.47981838845E+02  0.48246610497E+02  0.17770000000E+01 0. -1.
         15    1    1    2    0    0 -0.82045016902E+00 -0.23694669611E+01 -0.41657696003E+01  0.51767632283E+01  0.17770000000E+01 0. -1.
</event>
<event>
 6    1  0.2401028E-007  0.1244998E+03  0.7546771E-02  0.1127128E+00
        -11   -1    0    0    0    0  0.00000000000E+00  0.00000000000E+00  0.18250000000E+03  0.18250000000E+03  0.00000000000E+00 0. -1.
         11   -1    0    0    0    0 -0.00000000000E+00 -0.00000000000E+00 -0.18250000000E+03  0.18250000000E+03  0.00000000000E+00 0. -1.
        -11    1    1    2    0    0 -0.60244420336E+02 -0.72965953795E+02  0.24270161556E+02  0.97685522657E+02  0.00000000000E+00 0. -1.
         11    1    1    2    0    0  0.87312054759E+02  0.71910919765E+02 -0.12159803744E+03  0.16607425447E+03  0.00000000000E+00 0. -1.
        -15    1    1    2    0    0 -0.21276287241E+02 -0.12507042824E+01  0.75368184068E+02  0.78343892925E+02  0.17770000000E+01 0. -1.
         15    1    1    2    0    0 -0.57913471817E+01  0.23057383126E+01  0.21959691819E+02  0.22896329949E+02  0.17770000000E+01 0.  1.
</event>
<event>
 6    1  0.2401028E-007  0.1835286E+03  0.7546771E-02  0.1067639E+00
        -11   -1    0    0    0    0  0.00000000000E+00  0.00000000000E+00  0.18250000000E+03  0.18250000000E+03  0.00000000000E+00 0. -1.
         11   -1    0    0    0    0 -0.00000000000E+00 -0.00000000000E+00 -0.18250000000E+03  0.18250000000E+03  0.00000000000E+00 0. -1.
        -11    1    1    2    0    0 -0.73543947989E+02  0.37524872777E+02 -0.16160144108E+03  0.18147135896E+03  0.00000000000E+00 0. -1.
         11    1    1    2    0    0  0.53158784958E+02 -0.37230303213E+02  0.11307480257E+03  0.13037585233E+03  0.00000000000E+00 0. -1.
        -15    1    1    2    0    0  0.11161744161E+02  0.18708876964E+01  0.20090640379E+02  0.23127393137E+02  0.17770000000E+01 0. -1.
         15    1    1    2    0    0  0.92234188707E+01 -0.21654572606E+01  0.28435998127E+02  0.30025395573E+02  0.17770000000E+01 0. -1.
</event>
<event>
 6    1  0.2401028E-007  0.1869584E+03  0.7546771E-02  0.1064960E+00
        -11   -1    0    0    0    0  0.00000000000E+00  0.00000000000E+00  0.18250000000E+03  0.18250000000E+03  0.00000000000E+00 0. -1.
         11   -1    0    0    0    0 -0.00000000000E+00 -0.00000000000E+00 -0.18250000000E+03  0.18250000000E+03  0.00000000000E+00 0. -1.
        -11    1    1    2    0    0  0.96331330659E+02 -0.12101259855E+03 -0.65508068936E+02  0.16797345436E+03  0.00000000000E+00 0. -1.
         11    1    1    2    0    0 -0.11386407684E+03  0.11951249521E+03  0.66712408220E+02  0.17804159603E+03  0.00000000000E+00 0. -1.
        -15    1    1    2    0    0  0.13598068455E+02  0.35398654750E+01 -0.11486086385E+01  0.14209684870E+02  0.17770000000E+01 0.  1.
         15    1    1    2    0    0  0.39346777278E+01 -0.20397621434E+01 -0.55730645181E-01  0.47752647390E+01  0.17770000000E+01 0. -1.
</event>
<event>
 6    1  0.2401028E-007  0.1770810E+03  0.7546771E-02  0.1072852E+00
        -11   -1    0    0    0    0  0.00000000000E+00  0.00000000000E+00  0.18250000000E+03  0.18250000000E+03  0.00000000000E+00 0.  1.
         11   -1    0    0    0    0 -0.00000000000E+00 -0.00000000000E+00 -0.18250000000E+03  0.18250000000E+03  0.00000000000E+00 0. -1.
        -11    1    1    2    0    0  0.60283637127E+02  0.36686404176E+00 -0.16580556510E+03  0.17642487611E+03  0.00000000000E+00 0. -1.
         11    1    1    2    0    0 -0.57356009824E+02  0.34431197516E+01  0.16823644124E+03  0.17777814010E+03  0.00000000000E+00 0.  1.
        -15    1    1    2    0    0  0.75646347555E+00 -0.52056466552E+01  0.50040189253E+00  0.55748654820E+01  0.17770000000E+01 0.  1.
         15    1    1    2    0    0 -0.36840907786E+01  0.13956628618E+01 -0.29312780356E+01  0.52221183069E+01  0.17770000000E+01 0. -1.
</event>
<event>
 6    1  0.2401028E-007  0.1403452E+03  0.7546771E-02  0.1108053E+00
        -11   -1    0    0    0    0  0.00000000000E+00  0.00000000000E+00  0.18250000000E+03  0.18250000000E+03  0.00000000000E+00 0. -1.
         11   -1    0    0    0    0 -0.00000000000E+00 -0.00000000000E+00 -0.18250000000E+03  0.18250000000E+03  0.00000000000E+00 0. -1.
        -11    1    1    2    0    0  0.81027428369E+02  0.84276202766E+02 -0.62623897662E+02  0.13262607232E+03  0.00000000000E+00 0. -1.
         11    1    1    2    0    0 -0.65728444170E+02 -0.59148247575E+02  0.13052277393E+03  0.15765448956E+03  0.00000000000E+00 0. -1.
        -15    1    1    2    0    0 -0.85615362562E+01 -0.58157470863E+01 -0.19547613837E+02  0.22189856984E+02  0.17770000000E+01 0.  1.
         15    1    1    2    0    0 -0.67374479429E+01 -0.19312208104E+02 -0.48351262431E+02  0.52529581136E+02  0.17770000000E+01 0. -1.
</event>
<event>
 6    1  0.2401028E-007  0.1375926E+03  0.7546771E-02  0.1111161E+00
        -11   -1    0    0    0    0  0.00000000000E+00  0.00000000000E+00  0.18250000000E+03  0.18250000000E+03  0.00000000000E+00 0. -1.
         11   -1    0    0    0    0 -0.00000000000E+00 -0.00000000000E+00 -0.18250000000E+03  0.18250000000E+03  0.00000000000E+00 0. -1.
        -11    1    1    2    0    0 -0.69527446397E+01 -0.99086620300E+02  0.24824133429E+01  0.99361266882E+02  0.00000000000E+00 0. -1.
         11    1    1    2    0    0 -0.37839884000E-01  0.13177739533E+03 -0.73121648993E+02  0.15070520530E+03  0.00000000000E+00 0. -1.
        -15    1    1    2    0    0 -0.25458160267E+02  0.11105824870E+02  0.29200922910E+01  0.27984673273E+02  0.17770000000E+01 0.  1.
         15    1    1    2    0    0  0.32448744790E+02 -0.43796599899E+02  0.67719143359E+02  0.86948854550E+02  0.17770000000E+01 0. -1.
</event>
<event>
 6    1  0.2401028E-007  0.1223218E+03  0.7546771E-02  0.1129995E+00
        -11   -1    0    0    0    0  0.00000000000E+00  0.00000000000E+00  0.18250000000E+03  0.18250000000E+03  0.00000000000E+00 0.  1.
         11   -1    0    0    0    0 -0.00000000000E+00 -0.00000000000E+00 -0.18250000000E+03  0.18250000000E+03  0.00000000000E+00 0.  1.
        -11    1    1    2    0    0  0.61141345502E+02  0.10088377886E+03 -0.45935094639E+02  0.12659318262E+03  0.00000000000E+00 0.  1.
         11    1    1    2    0    0 -0.53325558842E+02 -0.11550585112E+03 -0.52909603131E+02  0.13778477047E+03  0.00000000000E+00 0.  1.
        -15    1    1    2    0    0 -0.63005472825E+01  0.87579694975E+01  0.40963467026E+02  0.42397668398E+02  0.17770000000E+01 0. -1.
         15    1    1    2    0    0 -0.15152393776E+01  0.58641027602E+01  0.57881230744E+02  0.58224378511E+02  0.17770000000E+01 0.  1.
</event>
<event>
 6    1  0.2401028E-007  0.1430093E+03  0.7546771E-02  0.1105118E+00
        -11   -1    0    0    0    0  0.00000000000E+00  0.00000000000E+00  0.18250000000E+03  0.18250000000E+03  0.00000000000E+00 0.  1.
         11   -1    0    0    0    0 -0.00000000000E+00 -0.00000000000E+00 -0.18250000000E+03  0.18250000000E+03  0.00000000000E+00 0.  1.
        -11    1    1    2    0    0 -0.10350232753E+03  0.53605967936E+02 -0.47566574697E+02  0.12589245661E+03  0.00000000000E+00 0.  1.
         11    1    1    2    0    0  0.10395578960E+03 -0.62487455019E+02  0.11709395917E+03  0.16858968979E+03  0.00000000000E+00 0.  1.
        -15    1    1    2    0    0  0.25189764783E+01  0.18539090659E+01 -0.30536802124E+02  0.30747946830E+02  0.17770000000E+01 0. -1.
         15    1    1    2    0    0 -0.29724385518E+01  0.70275780169E+01 -0.38990582353E+02  0.39769906776E+02  0.17770000000E+01 0.  1.
</event>
<event>
 6    1  0.2401028E-007  0.1876005E+03  0.7546771E-02  0.1064466E+00
        -11   -1    0    0    0    0  0.00000000000E+00  0.00000000000E+00  0.18250000000E+03  0.18250000000E+03  0.00000000000E+00 0.  1.
         11   -1    0    0    0    0 -0.00000000000E+00 -0.00000000000E+00 -0.18250000000E+03  0.18250000000E+03  0.00000000000E+00 0.  1.
        -11    1    1    2    0    0 -0.11807384092E+03  0.11310719460E+03 -0.24095886432E+02  0.16527335273E+03  0.00000000000E+00 0.  1.
         11    1    1    2    0    0  0.12707339910E+03 -0.12017201645E+03  0.29692368020E+02  0.17739954626E+03  0.00000000000E+00 0.  1.
        -15    1    1    2    0    0 -0.27513898990E-01  0.78182905983E+01  0.40754566214E+01  0.89940814187E+01  0.17770000000E+01 0.  1.
         15    1    1    2    0    0 -0.89720442734E+01 -0.75346875025E+00 -0.96719382090E+01  0.13333019588E+02  0.17770000000E+01 0. -1.
</event>
<event>
 6    1  0.2401028E-007  0.1598209E+03  0.7546771E-02  0.1088093E+00
        -11   -1    0    0    0    0  0.00000000000E+00  0.00000000000E+00  0.18250000000E+03  0.18250000000E+03  0.00000000000E+00 0. -1.
         11   -1    0    0    0    0 -0.00000000000E+00 -0.00000000000E+00 -0.18250000000E+03  0.18250000000E+03  0.00000000000E+00 0. -1.
        -11    1    1    2    0    0 -0.10994256462E+03 -0.10639559056E+03  0.33624867898E+02  0.15664616481E+03  0.00000000000E+00 0. -1.
         11    1    1    2    0    0  0.95686448543E+02  0.11444009253E+03 -0.72213218136E+02  0.16573225421E+03  0.00000000000E+00 0. -1.
        -15    1    1    2    0    0  0.12869363802E+02 -0.83161948686E+01  0.29937381843E+02  0.33677651082E+02  0.17770000000E+01 0. -1.
         15    1    1    2    0    0  0.13867522792E+01  0.27169290173E+00  0.86509683946E+01  0.89439299014E+01  0.17770000000E+01 0.  1.
</event>
<event>
 6    1  0.2401028E-007  0.1719878E+03  0.7546771E-02  0.1077145E+00
        -11   -1    0    0    0    0  0.00000000000E+00  0.00000000000E+00  0.18250000000E+03  0.18250000000E+03  0.00000000000E+00 0. -1.
         11   -1    0    0    0    0 -0.00000000000E+00 -0.00000000000E+00 -0.18250000000E+03  0.18250000000E+03  0.00000000000E+00 0. -1.
        -11    1    1    2    0    0  0.44849967685E+01 -0.84574693086E+02 -0.15183777181E+03  0.17386115971E+03  0.00000000000E+00 0. -1.
         11    1    1    2    0    0 -0.12664537774E+02  0.87786063015E+02  0.14536533201E+03  0.17028758947E+03  0.00000000000E+00 0. -1.
        -15    1    1    2    0    0  0.11647024674E+02  0.32563591493E+01  0.32996910202E+01  0.12661072170E+02  0.17770000000E+01 0.  1.
         15    1    1    2    0    0 -0.34674836693E+01 -0.64677290782E+01  0.31727487809E+01  0.81901786459E+01  0.17770000000E+01 0. -1.
</event>
<event>
 6    1  0.2401028E-007  0.1625137E+03  0.7546771E-02  0.1085580E+00
        -11   -1    0    0    0    0  0.00000000000E+00  0.00000000000E+00  0.18250000000E+03  0.18250000000E+03  0.00000000000E+00 0.  1.
         11   -1    0    0    0    0 -0.00000000000E+00 -0.00000000000E+00 -0.18250000000E+03  0.18250000000E+03  0.00000000000E+00 0. -1.
        -11    1    1    2    0    0  0.45372915445E+02  0.16191581596E+02 -0.14772237605E+03  0.15537943608E+03  0.00000000000E+00 0. -1.
         11    1    1    2    0    0 -0.62000481063E+02  0.93307996385E+01  0.15939254013E+03  0.17128077920E+03  0.00000000000E+00 0.  1.
        -15    1    1    2    0    0 -0.30793383771E+00  0.20379207586E+01  0.17910395566E+01  0.32578360855E+01  0.17770000000E+01 0.  1.
         15    1    1    2    0    0  0.16935499456E+02 -0.27560301993E+02 -0.13461203636E+02  0.35081948636E+02  0.17770000000E+01 0. -1.
</event>
<event>
 6    1  0.2401028E-007  0.1905865E+03  0.7546771E-02  0.1062194E+00
        -11   -1    0    0    0    0  0.00000000000E+00  0.00000000000E+00  0.18250000000E+03  0.18250000000E+03  0.00000000000E+00 0.  1.
         11   -1    0    0    0    0 -0.00000000000E+00 -0.00000000000E+00 -0.18250000000E+03  0.18250000000E+03  0.00000000000E+00 0. -1.
        -11    1    1    2    0    0  0.36542788723E+02  0.14486238140E+03 -0.89997620805E+02  0.17441346480E+03  0.00000000000E+00 0. -1.
         11    1    1    2    0    0 -0.33611571657E+02 -0.14372990856E+03  0.72223280325E+02  0.16432962784E+03  0.00000000000E+00 0.  1.
        -15    1    1    2    0    0  0.70635885943E+01  0.95529611252E+00  0.24244642261E+01  0.77358018508E+01  0.17770000000E+01 0. -1.
         15    1    1    2    0    0 -0.99948056599E+01 -0.20877689576E+01  0.15349876254E+02  0.18521105512E+02  0.17770000000E+01 0.  1.
</event>
<event>
 6    1  0.2401028E-007  0.1942183E+03  0.7546771E-02  0.1059492E+00
        -11   -1    0    0    0    0  0.00000000000E+00  0.00000000000E+00  0.18250000000E+03  0.18250000000E+03  0.00000000000E+00 0. -1.
         11   -1    0    0    0    0 -0.00000000000E+00 -0.00000000000E+00 -0.18250000000E+03  0.18250000000E+03  0.00000000000E+00 0. -1.
        -11    1    1    2    0    0 -0.42362833708E+01  0.53897909469E+02 -0.16199835423E+03  0.17078172477E+03  0.00000000000E+00 0. -1.
         11    1    1    2    0    0  0.20984619334E+02 -0.43369017448E+02  0.29959995820E+02  0.56734709592E+02  0.00000000000E+00 0. -1.
        -15    1    1    2    0    0  0.65831824536E+01  0.58917044974E+01  0.44251512069E+02  0.45159766634E+02  0.17770000000E+01 0.  1.
         15    1    1    2    0    0 -0.23331518417E+02 -0.16420596518E+02  0.87786846346E+02  0.92323799001E+02  0.17770000000E+01 0. -1.
</event>
<event>
 6    1  0.2401028E-007  0.1850000E+03  0.7546771E-02  0.1066482E+00
        -11   -1    0    0    0    0  0.00000000000E+00  0.00000000000E+00  0.18250000000E+03  0.18250000000E+03  0.00000000000E+00 0. -1.
         11   -1    0    0    0    0 -0.00000000000E+00 -0.00000000000E+00 -0.18250000000E+03  0.18250000000E+03  0.00000000000E+00 0. -1.
        -11    1    1    2    0    0  0.29133890411E+02 -0.92573825394E+02  0.88733708314E+02  0.13150044756E+03  0.00000000000E+00 0. -1.
         11    1    1    2    0    0 -0.23764382901E+02  0.12232634554E+03 -0.12989046396E+03  0.18000003704E+03  0.00000000000E+00 0. -1.
        -15    1    1    2    0    0 -0.52544696595E+01 -0.31306939117E+02  0.37792537926E+02  0.49387929094E+02  0.17770000000E+01 0. -1.
         15    1    1    2    0    0 -0.11503785116E+00  0.15544189723E+01  0.33642177180E+01  0.41115863001E+01  0.17770000000E+01 0.  1.
</event>
<event>
 6    1  0.2401028E-007  0.1890300E+03  0.7546771E-02  0.1063373E+00
        -11   -1    0    0    0    0  0.00000000000E+00  0.00000000000E+00  0.18250000000E+03  0.18250000000E+03  0.00000000000E+00 0.  1.
         11   -1    0    0    0    0 -0.00000000000E+00 -0.00000000000E+00 -0.18250000000E+03  0.18250000000E+03  0.00000000000E+00 0.  1.
        -11    1    1    2    0    0 -0.15580690145E+02 -0.25856190559E+01 -0.75816242004E+02  0.77443824046E+02  0.00000000000E+00 0.  1.
         11    1    1    2    0    0 -0.48979360286E+01  0.54340861083E+02  0.16729775655E+03  0.17597004946E+03  0.00000000000E+00 0.  1.
        -15    1    1    2    0    0  0.21383330637E+02 -0.55383644380E+02 -0.82102821063E+02  0.10133422842E+03  0.17770000000E+01 0.  1.
         15    1    1    2    0    0 -0.90470446330E+00  0.36284023526E+01 -0.93786934794E+01  0.10251898077E+02  0.17770000000E+01 0. -1.
</event>
<event>
 6    1  0.2401028E-007  0.1628713E+03  0.7546771E-02  0.1085250E+00
        -11   -1    0    0    0    0  0.00000000000E+00  0.00000000000E+00  0.18250000000E+03  0.18250000000E+03  0.00000000000E+00 0. -1.
         11   -1    0    0    0    0 -0.00000000000E+00 -0.00000000000E+00 -0.18250000000E+03  0.18250000000E+03  0.00000000000E+00 0. -1.
        -11    1    1    2    0    0  0.16176055274E+02 -0.81503451631E+02 -0.14108467104E+03  0.16373564607E+03  0.00000000000E+00 0. -1.
         11    1    1    2    0    0 -0.48446360205E+02  0.77493106359E+02  0.13577684450E+03  0.16366912614E+03  0.00000000000E+00 0. -1.
        -15    1    1    2    0    0  0.30604705136E+02  0.35550543003E+00  0.88970273137E+01  0.31923176292E+02  0.17770000000E+01 0.  1.
         15    1    1    2    0    0  0.16655997959E+01  0.36548398418E+01 -0.35892007710E+01  0.56720514917E+01  0.17770000000E+01 0. -1.
</event>
<event>
 6    1  0.2401028E-007  0.1580003E+03  0.7546771E-02  0.1089823E+00
        -11   -1    0    0    0    0  0.00000000000E+00  0.00000000000E+00  0.18250000000E+03  0.18250000000E+03  0.00000000000E+00 0. -1.
         11   -1    0    0    0    0 -0.00000000000E+00 -0.00000000000E+00 -0.18250000000E+03  0.18250000000E+03  0.00000000000E+00 0. -1.
        -11    1    1    2    0    0  0.10829847359E+03 -0.51072728818E+02  0.10415229197E+03  0.15869682710E+03  0.00000000000E+00 0. -1.
         11    1    1    2    0    0 -0.95856420732E+02  0.90010382219E+02 -0.91487513591E+02  0.16018828748E+03  0.00000000000E+00 0. -1.
        -15    1    1    2    0    0 -0.13289626207E+02 -0.39736850499E+02 -0.13119175938E+02  0.43942029523E+02  0.17770000000E+01 0.  1.
         15    1    1    2    0    0  0.84757335074E+00  0.79919709849E+00  0.45439755919E+00  0.21728558923E+01  0.17770000000E+01 0. -1.
</event>
<event>
 6    1  0.2401028E-007  0.1918863E+03  0.7546771E-02  0.1061219E+00
        -11   -1    0    0    0    0  0.00000000000E+00  0.00000000000E+00  0.18250000000E+03  0.18250000000E+03  0.00000000000E+00 0. -1.
         11   -1    0    0    0    0 -0.00000000000E+00 -0.00000000000E+00 -0.18250000000E+03  0.18250000000E+03  0.00000000000E+00 0.  1.
        -11    1    1    2    0    0 -0.74892067924E+02 -0.99372599105E+02  0.12035207676E+03  0.17311371313E+03  0.00000000000E+00 0. -1.
         11    1    1    2    0    0  0.69239351852E+02  0.96105686264E+02 -0.63943016828E+02  0.13460720701E+03  0.00000000000E+00 0.  1.
        -15    1    1    2    0    0  0.50313993894E+01  0.33201403814E+01 -0.23802652318E+02  0.24618332567E+02  0.17770000000E+01 0.  1.
         15    1    1    2    0    0  0.62131668261E+00 -0.53227541071E-01 -0.32606407617E+02  0.32660747301E+02  0.17770000000E+01 0. -1.
</event>
<event>
 6    1  0.2401028E-007  0.1578470E+03  0.7546771E-02  0.1089970E+00
        -11   -1    0    0    0    0  0.00000000000E+00  0.00000000000E+00  0.18250000000E+03  0.18250000000E+03  0.00000000000E+00 0. -1.
         11   -1    0    0    0    0 -0.00000000000E+00 -0.00000000000E+00 -0.18250000000E+03  0.18250000000E+03  0.00000000000E+00 0.  1.
        -11    1    1    2    0    0  0.65888732835E+02 -0.65269440813E+02 -0.13276162481E+03  0.16194775096E+03  0.00000000000E+00 0.  1.
         11    1    1    2    0    0 -0.22324556929E+02  0.61898328431E+02  0.14243815243E+03  0.15690256905E+03  0.00000000000E+00 0. -1.
        -15    1    1    2    0    0 -0.45702341580E+01 -0.87111842468E+00 -0.41811226177E+01  0.65027227307E+01  0.17770000000E+01 0. -1.
         15    1    1    2    0    0 -0.38993941747E+02  0.42422308065E+01 -0.54954050108E+01  0.39646957266E+02  0.17770000000E+01 0.  1.
</event>
<event>
 6    1  0.2401028E-007  0.1879930E+03  0.7546771E-02  0.1064165E+00
        -11   -1    0    0    0    0  0.00000000000E+00  0.00000000000E+00  0.18250000000E+03  0.18250000000E+03  0.00000000000E+00 0.  1.
         11   -1    0    0    0    0 -0.00000000000E+00 -0.00000000000E+00 -0.18250000000E+03  0.18250000000E+03  0.00000000000E+00 0.  1.
        -11    1    1    2    0    0 -0.11366626941E+03 -0.33922828646E+00  0.29898861587E+02  0.11753330508E+03  0.00000000000E+00 0.  1.
         11    1    1    2    0    0  0.15965381203E+03 -0.33705853068E+02 -0.68600764361E+02  0.17700703121E+03  0.00000000000E+00 0.  1.
        -15    1    1    2    0    0 -0.23138257061E+02  0.22835185757E+02  0.15857505395E+02  0.36213848935E+02  0.17770000000E+01 0. -1.
         15    1    1    2    0    0 -0.22849285553E+02  0.11209895597E+02  0.22844397380E+02  0.34245814784E+02  0.17770000000E+01 0.  1.
</event>
