<event>
 7    1  0.2869211E-005  0.5039330E+03  0.7546771E-02  0.9391052E-01
        -11   -1    0    0    0    0  0.00000000000E+00  0.00000000000E+00  0.50000000000E+03  0.50000000000E+03  0.00000000000E+00 0. -1.
         11   -1    0    0    0    0 -0.00000000000E+00 -0.00000000000E+00 -0.50000000000E+03  0.50000000000E+03  0.00000000000E+00 0. -1.
         23    2    1    2    0    0  0.37937158526E+02 -0.30220416290E+02 -0.49321515083E+03  0.50393300907E+03  0.91295076895E+02 0.  0.
        -11    1    1    2    0    0 -0.39354920823E+02  0.30609395839E+02  0.49002000616E+03  0.49254984656E+03  0.00000000000E+00 0. -1.
         11    1    1    2    0    0  0.14177622968E+01 -0.38897954894E+00  0.31951446761E+01  0.35171443702E+01  0.00000000000E+00 0. -1.
        -15    1    3    3    0    0  0.57817783929E+02 -0.33980796796E+02 -0.22092957570E+03  0.23089093927E+03  0.17770000000E+01 0.  1.
         15    1    3    3    0    0 -0.19880625403E+02  0.37603805057E+01 -0.27228557513E+03  0.27304206980E+03  0.17770000000E+01 0. -1.
</event>
<event>
 7    1  0.2869211E-005  0.5024262E+03  0.7546771E-02  0.9394397E-01
        -11   -1    0    0    0    0  0.00000000000E+00  0.00000000000E+00  0.50000000000E+03  0.50000000000E+03  0.00000000000E+00 0. -1.
         11   -1    0    0    0    0 -0.00000000000E+00 -0.00000000000E+00 -0.50000000000E+03  0.50000000000E+03  0.00000000000E+00 0. -1.
         23    2    1    2    0    0 -0.54496620886E+02  0.80875191044E+02 -0.48509277119E+03  0.50329331834E+03  0.92078713125E+02 0.  0.
        -11    1    1    2    0    0  0.30141529612E+01  0.12270355827E+01  0.16538228652E+01  0.36504608564E+01  0.00000000000E+00 0. -1.
         11    1    1    2    0    0  0.51482467924E+02 -0.82102226627E+02  0.48343894832E+03  0.49305622081E+03  0.00000000000E+00 0. -1.
        -15    1    3    3    0    0  0.60939954468E+01  0.64433285939E+02 -0.16808418185E+03  0.18012283318E+03  0.17770000000E+01 0.  1.
         15    1    3    3    0    0 -0.60590616333E+02  0.16441905105E+02 -0.31700858934E+03  0.32317048516E+03  0.17770000000E+01 0. -1.
</event>
<event>
 7    1  0.2869211E-005  0.4597296E+03  0.7546771E-02  0.9494720E-01
        -11   -1    0    0    0    0  0.00000000000E+00  0.00000000000E+00  0.50000000000E+03  0.50000000000E+03  0.00000000000E+00 0. -1.
         11   -1    0    0    0    0 -0.00000000000E+00 -0.00000000000E+00 -0.50000000000E+03  0.50000000000E+03  0.00000000000E+00 0.  1.
         23    2    1    2    0    0  0.20105987811E+01  0.16221369827E+03 -0.44221524217E+03  0.47956077013E+03  0.90038244251E+02 0.  0.
        -11    1    1    2    0    0  0.64340529043E+02 -0.11623625911E+03  0.41421052538E+03  0.43499532290E+03  0.00000000000E+00 0. -1.
         11    1    1    2    0    0 -0.66351127824E+02 -0.45977439161E+02  0.28004716795E+02  0.85443906969E+02  0.00000000000E+00 0.  1.
        -15    1    3    3    0    0  0.10108386563E+02  0.11617299146E+03 -0.39962866339E+03  0.41629865452E+03  0.17770000000E+01 0.  1.
         15    1    3    3    0    0 -0.80977877815E+01  0.46040706811E+02 -0.42586578785E+02  0.63262115617E+02  0.17770000000E+01 0. -1.
</event>
<event>
 7    1  0.2869211E-005  0.5039969E+03  0.7546771E-02  0.9390910E-01
        -11   -1    0    0    0    0  0.00000000000E+00  0.00000000000E+00  0.50000000000E+03  0.50000000000E+03  0.00000000000E+00 0. -1.
         11   -1    0    0    0    0 -0.00000000000E+00 -0.00000000000E+00 -0.50000000000E+03  0.50000000000E+03  0.00000000000E+00 0. -1.
         23    2    1    2    0    0  0.22624985869E+02 -0.35582441811E+01 -0.49510086143E+03  0.50399690576E+03  0.91451992570E+02 0.  0.
        -11    1    1    2    0    0 -0.22973719996E+02  0.79549139671E+01  0.35429421741E+03  0.35512739257E+03  0.00000000000E+00 0. -1.
         11    1    1    2    0    0  0.34873412732E+00 -0.43966697860E+01  0.14080664402E+03  0.14087570167E+03  0.00000000000E+00 0. -1.
        -15    1    3    3    0    0  0.96842256657E+01 -0.16649189815E+02 -0.47925038517E+03  0.47964056246E+03  0.17770000000E+01 0. -1.
         15    1    3    3    0    0  0.12940760203E+02  0.13090945634E+02 -0.15850476260E+02  0.24356343299E+02  0.17770000000E+01 0.  1.
</event>
<event>
 7    1  0.2869211E-005  0.4599391E+03  0.7546771E-02  0.9494199E-01
        -11   -1    0    0    0    0  0.00000000000E+00  0.00000000000E+00  0.50000000000E+03  0.50000000000E+03  0.00000000000E+00 0. -1.
         11   -1    0    0    0    0 -0.00000000000E+00 -0.00000000000E+00 -0.50000000000E+03  0.50000000000E+03  0.00000000000E+00 0. -1.
         23    2    1    2    0    0 -0.15343862722E+02  0.37991297338E+02 -0.44729886533E+03  0.45843754810E+03  0.91705712911E+02 0.  0.
        -11    1    1    2    0    0 -0.52384457278E+02 -0.89859133889E+02  0.44418205597E+03  0.45619786733E+03  0.00000000000E+00 0. -1.
         11    1    1    2    0    0  0.67728320001E+02  0.51867836551E+02  0.31168093614E+01  0.85364584572E+02  0.00000000000E+00 0. -1.
        -15    1    3    3    0    0  0.67644956133E+01  0.40691481824E+02 -0.42454381118E+03  0.42654678575E+03  0.17770000000E+01 0. -1.
         15    1    3    3    0    0 -0.22108358336E+02 -0.27001844862E+01 -0.22755054154E+02  0.31890762347E+02  0.17770000000E+01 0.  1.
</event>
<event>
 7    1  0.2869211E-005  0.5041047E+03  0.7546771E-02  0.9390672E-01
        -11   -1    0    0    0    0  0.00000000000E+00  0.00000000000E+00  0.50000000000E+03  0.50000000000E+03  0.00000000000E+00 0.  1.
         11   -1    0    0    0    0 -0.00000000000E+00 -0.00000000000E+00 -0.50000000000E+03  0.50000000000E+03  0.00000000000E+00 0.  1.
         23    2    1    2    0    0 -0.50797323868E+01 -0.39459810297E+01 -0.49583877947E+03  0.50410472941E+03  0.90686870800E+02 0.  0.
        -11    1    1    2    0    0  0.34552512026E+01  0.45432449109E+01  0.40215198727E+03  0.40219249210E+03  0.00000000000E+00 0.  1.
         11    1    1    2    0    0  0.16244811842E+01 -0.59726388125E+00  0.93686792203E+02  0.93702778489E+02  0.00000000000E+00 0.  1.
        -15    1    3    3    0    0  0.24042399434E+02 -0.11808380929E+02 -0.43823584412E+03  0.43905727147E+03  0.17770000000E+01 0.  1.
         15    1    3    3    0    0 -0.29122131821E+02  0.78623998988E+01 -0.57602935358E+02  0.65047457943E+02  0.17770000000E+01 0. -1.
</event>
<event>
 7    1  0.2869211E-005  0.3571212E+03  0.7546771E-02  0.9792335E-01
        -11   -1    0    0    0    0  0.00000000000E+00  0.00000000000E+00  0.50000000000E+03  0.50000000000E+03  0.00000000000E+00 0. -1.
         11   -1    0    0    0    0 -0.00000000000E+00 -0.00000000000E+00 -0.50000000000E+03  0.50000000000E+03  0.00000000000E+00 0. -1.
         23    2    1    2    0    0  0.12285881192E+03  0.10169036843E+03 -0.16920478401E+03  0.24886245362E+03  0.88696353890E+02 0.  0.
        -11    1    1    2    0    0  0.42602494405E+01 -0.34507211169E+03  0.29037506324E+03  0.45101063108E+03  0.00000000000E+00 0. -1.
         11    1    1    2    0    0 -0.12711906137E+03  0.24338174326E+03 -0.12117027924E+03  0.30012691530E+03  0.00000000000E+00 0. -1.
        -15    1    3    3    0    0  0.23562057550E+02  0.20742491298E+02  0.57980442854E+01  0.31971808641E+02  0.17770000000E+01 0.  1.
         15    1    3    3    0    0  0.99296754375E+02  0.80947877136E+02 -0.17500282829E+03  0.21689064498E+03  0.17770000000E+01 0. -1.
</event>
<event>
 7    1  0.2869211E-005  0.5123226E+03  0.7546771E-02  0.9372651E-01
        -11   -1    0    0    0    0  0.00000000000E+00  0.00000000000E+00  0.50000000000E+03  0.50000000000E+03  0.00000000000E+00 0. -1.
         11   -1    0    0    0    0 -0.00000000000E+00 -0.00000000000E+00 -0.50000000000E+03  0.50000000000E+03  0.00000000000E+00 0. -1.
         23    2    1    2    0    0 -0.90342675543E+01 -0.29156542199E+02 -0.47795195298E+03  0.48767740879E+03  0.91975343135E+02 0.  0.
        -11    1    1    2    0    0 -0.22824732160E+02 -0.41911040057E+02  0.39747935658E+03  0.40033403875E+03  0.00000000000E+00 0. -1.
         11    1    1    2    0    0  0.31858999714E+02  0.71067582256E+02  0.80472596400E+02  0.11198855246E+03  0.00000000000E+00 0. -1.
        -15    1    3    3    0    0  0.71193059530E+01 -0.19338298904E+02 -0.18251263894E+02  0.27584790818E+02  0.17770000000E+01 0. -1.
         15    1    3    3    0    0 -0.16153573507E+02 -0.98182432953E+01 -0.45970068908E+03  0.46009261797E+03  0.17770000000E+01 0. -1.
</event>
<event>
 7    1  0.2869211E-005  0.5100732E+03  0.7546771E-02  0.9377548E-01
        -11   -1    0    0    0    0  0.00000000000E+00  0.00000000000E+00  0.50000000000E+03  0.50000000000E+03  0.00000000000E+00 0. -1.
         11   -1    0    0    0    0 -0.00000000000E+00 -0.00000000000E+00 -0.50000000000E+03  0.50000000000E+03  0.00000000000E+00 0.  1.
         23    2    1    2    0    0  0.23919836975E+03 -0.20291395448E+03 -0.36530145565E+03  0.48992681955E+03  0.90516307917E+02 0.  0.
        -11    1    1    2    0    0 -0.16192845017E+03  0.18674889845E+03  0.35184871883E+03  0.42999243597E+03  0.00000000000E+00 0. -1.
         11    1    1    2    0    0 -0.77269919585E+02  0.16165056024E+02  0.13452736813E+02  0.80080744481E+02  0.00000000000E+00 0.  1.
        -15    1    3    3    0    0  0.43854034236E+02 -0.78609006442E+02 -0.66592921494E+02  0.11198360208E+03  0.17770000000E+01 0.  1.
         15    1    3    3    0    0  0.19534433552E+03 -0.12430494804E+03 -0.29870853415E+03  0.37794321747E+03  0.17770000000E+01 0. -1.
</event>
<event>
 7    1  0.2869211E-005  0.5036780E+03  0.7546771E-02  0.9391617E-01
        -11   -1    0    0    0    0  0.00000000000E+00  0.00000000000E+00  0.50000000000E+03  0.50000000000E+03  0.00000000000E+00 0.  1.
         11   -1    0    0    0    0 -0.00000000000E+00 -0.00000000000E+00 -0.50000000000E+03  0.50000000000E+03  0.00000000000E+00 0.  1.
         23    2    1    2    0    0  0.17634288810E+02 -0.12991279954E+02 -0.49532068765E+03  0.50367802971E+03  0.88708694604E+02 0.  0.
        -11    1    1    2    0    0 -0.53096200496E+01 -0.65327288471E+01  0.13568028705E+03  0.13594119650E+03  0.00000000000E+00 0.  1.
         11    1    1    2    0    0 -0.12324668760E+02  0.19524008801E+02  0.35964040060E+03  0.36038077380E+03  0.00000000000E+00 0.  1.
        -15    1    3    3    0    0  0.12940258853E+02  0.31072374085E+02 -0.92986243576E+02  0.98906733612E+02  0.17770000000E+01 0.  1.
         15    1    3    3    0    0  0.46940299574E+01 -0.44063654039E+02 -0.40233444407E+03  0.40477129609E+03  0.17770000000E+01 0. -1.
</event>
<event>
 7    1  0.2869211E-005  0.5038802E+03  0.7546771E-02  0.9391169E-01
        -11   -1    0    0    0    0  0.00000000000E+00  0.00000000000E+00  0.50000000000E+03  0.50000000000E+03  0.00000000000E+00 0. -1.
         11   -1    0    0    0    0 -0.00000000000E+00 -0.00000000000E+00 -0.50000000000E+03  0.50000000000E+03  0.00000000000E+00 0. -1.
         23    2    1    2    0    0 -0.60866423285E+00 -0.92404779804E+01 -0.49568397461E+03  0.50388018700E+03  0.90038232217E+02 0.  0.
        -11    1    1    2    0    0  0.55658999057E+01  0.60630333199E+01  0.44773731654E+03  0.44781295676E+03  0.00000000000E+00 0. -1.
         11    1    1    2    0    0 -0.49572356729E+01  0.31774446605E+01  0.47946658066E+02  0.48306856240E+02  0.00000000000E+00 0. -1.
        -15    1    3    3    0    0  0.33049465831E+02 -0.18119960764E+02 -0.10373296320E+03  0.11038245129E+03  0.17770000000E+01 0.  1.
         15    1    3    3    0    0 -0.33658130064E+02  0.88794827834E+01 -0.39195101141E+03  0.39349773571E+03  0.17770000000E+01 0. -1.
</event>
<event>
 7    1  0.2869211E-005  0.5041943E+03  0.7546771E-02  0.9390473E-01
        -11   -1    0    0    0    0  0.00000000000E+00  0.00000000000E+00  0.50000000000E+03  0.50000000000E+03  0.00000000000E+00 0.  1.
         11   -1    0    0    0    0 -0.00000000000E+00 -0.00000000000E+00 -0.50000000000E+03  0.50000000000E+03  0.00000000000E+00 0. -1.
         23    2    1    2    0    0  0.10768805940E+02  0.83357580089E+01  0.49545020639E+03  0.50419434784E+03  0.92496385565E+02 0.  0.
        -11    1    1    2    0    0 -0.12831483904E+02 -0.84265001854E+01 -0.34508687215E+03  0.34542814335E+03  0.00000000000E+00 0.  1.
         11    1    1    2    0    0  0.20626779641E+01  0.90742176504E-01 -0.15036333423E+03  0.15037750881E+03  0.00000000000E+00 0. -1.
        -15    1    3    3    0    0 -0.20058436586E+01 -0.38221142766E+02  0.12889118578E+03  0.13446551477E+03  0.17770000000E+01 0.  1.
         15    1    3    3    0    0  0.12774649599E+02  0.46556900775E+02  0.36655902061E+03  0.36972883307E+03  0.17770000000E+01 0. -1.
</event>
<event>
 6    1  0.2869211E-005  0.3072433E+03  0.7546771E-02  0.9978817E-01
        -11   -1    0    0    0    0  0.00000000000E+00  0.00000000000E+00  0.50000000000E+03  0.50000000000E+03  0.00000000000E+00 0.  1.
         11   -1    0    0    0    0 -0.00000000000E+00 -0.00000000000E+00 -0.50000000000E+03  0.50000000000E+03  0.00000000000E+00 0. -1.
        -11    1    1    2    0    0 -0.20998999545E+02 -0.66303512448E+02 -0.40802732049E+02  0.80634835447E+02  0.00000000000E+00 0.  1.
         11    1    1    2    0    0 -0.12831014582E+03  0.54230657698E+02 -0.19903335635E+03  0.24293771773E+03  0.00000000000E+00 0. -1.
        -15    1    1    2    0    0 -0.21772903595E+03 -0.11042232309E+03  0.11483031184E+03  0.26979284790E+03  0.17770000000E+01 0.  1.
         15    1    1    2    0    0  0.36703818131E+03  0.12249517784E+03  0.12500577656E+03  0.40663459892E+03  0.17770000000E+01 0. -1.
</event>
<event>
 6    1  0.2869212E-005  0.1000000E+04  0.7546771E-02  0.8684367E-01
        -11   -1    0    0    0    0  0.00000000000E+00  0.00000000000E+00  0.50000000000E+03  0.50000000000E+03  0.00000000000E+00 0. -1.
         11   -1    0    0    0    0 -0.00000000000E+00 -0.00000000000E+00 -0.50000000000E+03  0.50000000000E+03  0.00000000000E+00 0.  1.
        -11    1    1    2    0    0  0.10575225955E+03 -0.31408735785E+02 -0.21679424751E+03  0.24324842207E+03  0.00000000000E+00 0.  1.
         11    1    1    2    0    0  0.34180754302E+02 -0.20111026961E+02 -0.12190817414E+03  0.12819664696E+03  0.00000000000E+00 0. -1.
        -15    1    1    2    0    0 -0.10679189075E+03  0.20641942258E+03  0.39677261460E+03  0.45983165547E+03  0.17770000000E+01 0. -1.
         15    1    1    2    0    0 -0.33141123100E+02 -0.15489965983E+03 -0.58070192949E+02  0.16872327550E+03  0.17770000000E+01 0.  1.
</event>
<event>
 6    1  0.2869211E-005  0.5081769E+03  0.7546771E-02  0.9381697E-01
        -11   -1    0    0    0    0  0.00000000000E+00  0.00000000000E+00  0.50000000000E+03  0.50000000000E+03  0.00000000000E+00 0. -1.
         11   -1    0    0    0    0 -0.00000000000E+00 -0.00000000000E+00 -0.50000000000E+03  0.50000000000E+03  0.00000000000E+00 0.  1.
        -11    1    1    2    0    0 -0.13443202014E+02  0.10158834395E+02  0.17964259616E+03  0.18043110583E+03  0.00000000000E+00 0.  1.
         11    1    1    2    0    0 -0.35807880995E+02  0.34467936295E+02  0.30739992429E+03  0.31139196590E+03  0.00000000000E+00 0. -1.
        -15    1    1    2    0    0 -0.22349734296E+02 -0.36217699396E+02 -0.35653438131E+03  0.35906984718E+03  0.17770000000E+01 0. -1.
         15    1    1    2    0    0  0.71600817304E+02 -0.84090712939E+01 -0.13050813914E+03  0.14910708108E+03  0.17770000000E+01 0.  1.
</event>
<event>
 6    1  0.2869211E-005  0.5229821E+03  0.7546771E-02  0.9349805E-01
        -11   -1    0    0    0    0  0.00000000000E+00  0.00000000000E+00  0.50000000000E+03  0.50000000000E+03  0.00000000000E+00 0. -1.
         11   -1    0    0    0    0 -0.00000000000E+00 -0.00000000000E+00 -0.50000000000E+03  0.50000000000E+03  0.00000000000E+00 0. -1.
        -11    1    1    2    0    0  0.63988372710E+02 -0.34996790342E+03 -0.12824692455E+03  0.37817895093E+03  0.00000000000E+00 0. -1.
         11    1    1    2    0    0  0.33274205110E+00 -0.58730617659E+02 -0.79496809042E+02  0.98838953939E+02  0.00000000000E+00 0. -1.
        -15    1    1    2    0    0 -0.84582728442E+02  0.27845419971E+03  0.25092983663E+03  0.38426542900E+03  0.17770000000E+01 0. -1.
         15    1    1    2    0    0  0.20261613681E+02  0.13024432137E+03 -0.43186103039E+02  0.13871666613E+03  0.17770000000E+01 0.  1.
</event>
<event>
 7    1  0.2869211E-005  0.5053454E+03  0.7546771E-02  0.9387928E-01
        -11   -1    0    0    0    0  0.00000000000E+00  0.00000000000E+00  0.50000000000E+03  0.50000000000E+03  0.00000000000E+00 0. -1.
         11   -1    0    0    0    0 -0.00000000000E+00 -0.00000000000E+00 -0.50000000000E+03  0.50000000000E+03  0.00000000000E+00 0.  1.
         23    2    1    2    0    0 -0.28791567545E+03  0.21837265704E+03  0.32555362228E+03  0.49465458927E+03  0.90088557559E+02 0.  0.
        -11    1    1    2    0    0  0.81862453816E+02 -0.10224947680E+02 -0.26240252486E+02  0.86571136936E+02  0.00000000000E+00 0. -1.
         11    1    1    2    0    0  0.20605322163E+03 -0.20814770936E+03 -0.29931336979E+03  0.41877427379E+03  0.00000000000E+00 0.  1.
        -15    1    3    3    0    0 -0.23768755299E+02  0.18015025660E+02  0.69816022770E+02  0.75940303149E+02  0.17770000000E+01 0.  1.
         15    1    3    3    0    0 -0.26414692015E+03  0.20035763138E+03  0.25573759951E+03  0.41871428612E+03  0.17770000000E+01 0. -1.
</event>
<event>
 7    1  0.2869211E-005  0.3453453E+03  0.7546771E-02  0.9833282E-01
        -11   -1    0    0    0    0  0.00000000000E+00  0.00000000000E+00  0.50000000000E+03  0.50000000000E+03  0.00000000000E+00 0. -1.
         11   -1    0    0    0    0 -0.00000000000E+00 -0.00000000000E+00 -0.50000000000E+03  0.50000000000E+03  0.00000000000E+00 0.  1.
         23    2    1    2    0    0 -0.33513631020E+02 -0.17059467321E+03 -0.38419761703E+03  0.43115688368E+03  0.89792780428E+02 0.  0.
        -11    1    1    2    0    0  0.73639109315E+01  0.26747454000E+03  0.13396132539E+03  0.29923651754E+03  0.00000000000E+00 0. -1.
         11    1    1    2    0    0  0.26149720088E+02 -0.96879866785E+02  0.25023629164E+03  0.26960659878E+03  0.00000000000E+00 0.  1.
        -15    1    3    3    0    0 -0.50943674433E+02 -0.15764413849E+03 -0.36930275520E+03  0.40476488866E+03  0.17770000000E+01 0.  1.
         15    1    3    3    0    0  0.17430043414E+02 -0.12950534718E+02 -0.14894861831E+02  0.26391995014E+02  0.17770000000E+01 0. -1.
</event>
<event>
 7    1  0.2869211E-005  0.5040116E+03  0.7546771E-02  0.9390878E-01
        -11   -1    0    0    0    0  0.00000000000E+00  0.00000000000E+00  0.50000000000E+03  0.50000000000E+03  0.00000000000E+00 0.  1.
         11   -1    0    0    0    0 -0.00000000000E+00 -0.00000000000E+00 -0.50000000000E+03  0.50000000000E+03  0.00000000000E+00 0. -1.
         23    2    1    2    0    0  0.47452299234E+02  0.10981249109E+03 -0.48128616475E+03  0.50401160195E+03  0.89893373615E+02 0.  0.
        -11    1    1    2    0    0  0.10972978087E+00 -0.63918572713E+00  0.49531107187E+01  0.49953883543E+01  0.00000000000E+00 0. -1.
         11    1    1    2    0    0 -0.47562029014E+02 -0.10917330537E+03  0.47633305403E+03  0.49099300970E+03  0.00000000000E+00 0.  1.
        -15    1    3    3    0    0 -0.24172951774E+02  0.43891421923E+02 -0.12550813633E+03  0.13515264899E+03  0.17770000000E+01 0.  1.
         15    1    3    3    0    0  0.71625251007E+02  0.65921069169E+02 -0.35577802842E+03  0.36885895296E+03  0.17770000000E+01 0. -1.
</event>
<event>
 7    1  0.2869211E-005  0.5036057E+03  0.7546771E-02  0.9391778E-01
        -11   -1    0    0    0    0  0.00000000000E+00  0.00000000000E+00  0.50000000000E+03  0.50000000000E+03  0.00000000000E+00 0. -1.
         11   -1    0    0    0    0 -0.00000000000E+00 -0.00000000000E+00 -0.50000000000E+03  0.50000000000E+03  0.00000000000E+00 0.  1.
         23    2    1    2    0    0 -0.26632755533E+03 -0.56868918749E+02  0.40529070953E+03  0.49639429159E+03  0.89343678230E+02 0.  0.
        -11    1    1    2    0    0  0.11656643142E+03  0.41829612737E+02 -0.86478446076E+02  0.15104956495E+03  0.00000000000E+00 0. -1.
         11    1    1    2    0    0  0.14976112391E+03  0.15039306012E+02 -0.31881226346E+03  0.35255614346E+03  0.00000000000E+00 0.  1.
        -15    1    3    3    0    0 -0.23393733625E+02 -0.18512398624E+02  0.99923678727E+02  0.10429705161E+03  0.17770000000E+01 0.  1.
         15    1    3    3    0    0 -0.24293382170E+03 -0.38356520125E+02  0.30536703081E+03  0.39209723998E+03  0.17770000000E+01 0. -1.
</event>
<event>
 7    1  0.2869211E-005  0.5026815E+03  0.7546771E-02  0.9393830E-01
        -11   -1    0    0    0    0  0.00000000000E+00  0.00000000000E+00  0.50000000000E+03  0.50000000000E+03  0.00000000000E+00 0. -1.
         11   -1    0    0    0    0 -0.00000000000E+00 -0.00000000000E+00 -0.50000000000E+03  0.50000000000E+03  0.00000000000E+00 0.  1.
         23    2    1    2    0    0 -0.24182728830E+02  0.84248833770E+02 -0.48788350261E+03  0.50268145813E+03  0.83520451751E+02 0.  0.
        -11    1    1    2    0    0  0.25614226765E+02 -0.65733981964E+02  0.44541630710E+03  0.45096865925E+03  0.00000000000E+00 0. -1.
         11    1    1    2    0    0 -0.14314979354E+01 -0.18514851806E+02  0.42467195516E+02  0.46349882619E+02  0.00000000000E+00 0.  1.
        -15    1    3    3    0    0 -0.31687154107E+02  0.93863098426E+02 -0.47342554468E+03  0.48368301713E+03  0.17770000000E+01 0.  1.
         15    1    3    3    0    0  0.75044252773E+01 -0.96142646563E+01 -0.14457957936E+02  0.18998440997E+02  0.17770000000E+01 0. -1.
</event>
<event>
 7    1  0.2869211E-005  0.5002097E+03  0.7546771E-02  0.9399341E-01
        -11   -1    0    0    0    0  0.00000000000E+00  0.00000000000E+00  0.50000000000E+03  0.50000000000E+03  0.00000000000E+00 0.  1.
         11   -1    0    0    0    0 -0.00000000000E+00 -0.00000000000E+00 -0.50000000000E+03  0.50000000000E+03  0.00000000000E+00 0. -1.
         23    2    1    2    0    0  0.58164407667E+02 -0.41445620170E+02 -0.48634143409E+03  0.49979032091E+03  0.90341223239E+02 0.  0.
        -11    1    1    2    0    0 -0.36323610340E+02  0.43582435122E+02  0.46851206492E+03  0.47193472885E+03  0.00000000000E+00 0.  1.
         11    1    1    2    0    0 -0.21840797327E+02 -0.21368149513E+01  0.17829369171E+02  0.28274950239E+02  0.00000000000E+00 0. -1.
        -15    1    3    3    0    0 -0.98673208983E+01 -0.45792783976E+02 -0.18842277657E+03  0.19416653559E+03  0.17770000000E+01 0.  1.
         15    1    3    3    0    0  0.68031728565E+02  0.43471638059E+01 -0.29791865752E+03  0.30562378532E+03  0.17770000000E+01 0. -1.
</event>
<event>
 7    1  0.2869211E-005  0.5040408E+03  0.7546771E-02  0.9390813E-01
        -11   -1    0    0    0    0  0.00000000000E+00  0.00000000000E+00  0.50000000000E+03  0.50000000000E+03  0.00000000000E+00 0. -1.
         11   -1    0    0    0    0 -0.00000000000E+00 -0.00000000000E+00 -0.50000000000E+03  0.50000000000E+03  0.00000000000E+00 0. -1.
         23    2    1    2    0    0 -0.26291778452E+01 -0.12037597378E+00 -0.49556816630E+03  0.50404079848E+03  0.91991260493E+02 0.  0.
        -11    1    1    2    0    0  0.98098858933E+01  0.10468367416E+01  0.39820974252E+03  0.39833193290E+03  0.00000000000E+00 0. -1.
         11    1    1    2    0    0 -0.71807080481E+01 -0.92646076780E+00  0.97358423787E+02  0.97627268629E+02  0.00000000000E+00 0. -1.
        -15    1    3    3    0    0 -0.28139483026E+02 -0.37315257004E+02 -0.23922449304E+03  0.24375351220E+03  0.17770000000E+01 0.  1.
         15    1    3    3    0    0  0.25510305181E+02  0.37194881031E+02 -0.25634367327E+03  0.26028728628E+03  0.17770000000E+01 0. -1.
</event>
<event>
 7    1  0.2869211E-005  0.5026847E+03  0.7546771E-02  0.9393822E-01
        -11   -1    0    0    0    0  0.00000000000E+00  0.00000000000E+00  0.50000000000E+03  0.50000000000E+03  0.00000000000E+00 0.  1.
         11   -1    0    0    0    0 -0.00000000000E+00 -0.00000000000E+00 -0.50000000000E+03  0.50000000000E+03  0.00000000000E+00 0.  1.
         23    2    1    2    0    0 -0.50485514124E+02  0.11211647700E+03 -0.47971445447E+03  0.50268468706E+03  0.86296264289E+02 0.  0.
        -11    1    1    2    0    0  0.51824741800E+02 -0.74395486183E+02  0.38077574501E+03  0.39142133337E+03  0.00000000000E+00 0.  1.
         11    1    1    2    0    0 -0.13392276756E+01 -0.37720990821E+02  0.98938709459E+02  0.10589397957E+03  0.00000000000E+00 0.  1.
        -15    1    3    3    0    0 -0.70233227180E+02  0.95186766543E+02 -0.43618670490E+03  0.45194604323E+03  0.17770000000E+01 0.  1.
         15    1    3    3    0    0  0.19747713056E+02  0.16929710461E+02 -0.43527749567E+02  0.50738643839E+02  0.17770000000E+01 0. -1.
</event>
<event>
 7    1  0.2869211E-005  0.5030096E+03  0.7546771E-02  0.9393101E-01
        -11   -1    0    0    0    0  0.00000000000E+00  0.00000000000E+00  0.50000000000E+03  0.50000000000E+03  0.00000000000E+00 0. -1.
         11   -1    0    0    0    0 -0.00000000000E+00 -0.00000000000E+00 -0.50000000000E+03  0.50000000000E+03  0.00000000000E+00 0.  1.
         23    2    1    2    0    0 -0.17877569623E+03  0.18447048265E+03  0.42310609188E+03  0.50300955763E+03  0.89497159411E+02 0.  0.
        -11    1    1    2    0    0  0.16437241409E+03 -0.15443095962E+03 -0.38651799254E+03  0.44750795564E+03  0.00000000000E+00 0.  1.
         11    1    1    2    0    0  0.14403282142E+02 -0.30039523024E+02 -0.36588099343E+02  0.49482486735E+02  0.00000000000E+00 0. -1.
        -15    1    3    3    0    0  0.34798349700E+00 -0.34154524615E+01 -0.24121512259E+01  0.45566007690E+01  0.17770000000E+01 0.  1.
         15    1    3    3    0    0 -0.17912367973E+03  0.18788593511E+03  0.42551824311E+03  0.49845295686E+03  0.17770000000E+01 0. -1.
</event>
<event>
 7    1  0.2869211E-005  0.5017700E+03  0.7546771E-02  0.9395858E-01
        -11   -1    0    0    0    0  0.00000000000E+00  0.00000000000E+00  0.50000000000E+03  0.50000000000E+03  0.00000000000E+00 0.  1.
         11   -1    0    0    0    0 -0.00000000000E+00 -0.00000000000E+00 -0.50000000000E+03  0.50000000000E+03  0.00000000000E+00 0. -1.
         23    2    1    2    0    0  0.90105311309E+02  0.61514033540E+02 -0.47732261051E+03  0.49822999179E+03  0.92159138287E+02 0.  0.
        -11    1    1    2    0    0 -0.71120152297E+02 -0.78898618190E+02  0.45639870581E+03  0.46859667805E+03  0.00000000000E+00 0.  1.
         11    1    1    2    0    0 -0.18985159012E+02  0.17384584650E+02  0.20923904694E+02  0.33173330159E+02  0.00000000000E+00 0. -1.
        -15    1    3    3    0    0 -0.70928039403E+01  0.21171108350E+02 -0.23914501459E+02  0.32765604001E+02  0.17770000000E+01 0.  1.
         15    1    3    3    0    0  0.97198115249E+02  0.40342925190E+02 -0.45340810905E+03  0.46546438779E+03  0.17770000000E+01 0. -1.
</event>
<event>
 7    1  0.2869211E-005  0.5014399E+03  0.7546771E-02  0.9396593E-01
        -11   -1    0    0    0    0  0.00000000000E+00  0.00000000000E+00  0.50000000000E+03  0.50000000000E+03  0.00000000000E+00 0.  1.
         11   -1    0    0    0    0 -0.00000000000E+00 -0.00000000000E+00 -0.50000000000E+03  0.50000000000E+03  0.00000000000E+00 0. -1.
         23    2    1    2    0    0 -0.12644573080E+03 -0.34077670938E+03  0.33327430989E+03  0.50143993769E+03  0.90845786808E+02 0.  0.
        -11    1    1    2    0    0  0.11040734197E+03  0.20373346910E+03 -0.19014719643E+03  0.29975500647E+03  0.00000000000E+00 0. -1.
         11    1    1    2    0    0  0.16038388825E+02  0.13704324028E+03 -0.14312711346E+03  0.19880505585E+03  0.00000000000E+00 0.  1.
        -15    1    3    3    0    0 -0.44008525044E+02 -0.33129421691E+02  0.36529920541E+02  0.66120357545E+02  0.17770000000E+01 0. -1.
         15    1    3    3    0    0 -0.82437205753E+02 -0.30764728769E+03  0.29674438934E+03  0.43531958014E+03  0.17770000000E+01 0.  1.
</event>
<event>
 7    1  0.2869211E-005  0.5067004E+03  0.7546771E-02  0.9384941E-01
        -11   -1    0    0    0    0  0.00000000000E+00  0.00000000000E+00  0.50000000000E+03  0.50000000000E+03  0.00000000000E+00 0.  1.
         11   -1    0    0    0    0 -0.00000000000E+00 -0.00000000000E+00 -0.50000000000E+03  0.50000000000E+03  0.00000000000E+00 0. -1.
         23    2    1    2    0    0  0.53185406231E+02 -0.24752736079E+03  0.41254863603E+03  0.49329955637E+03  0.95129351152E+02 0.  0.
        -11    1    1    2    0    0 -0.55467815154E+00  0.85563599199E+02 -0.34862608808E+02  0.92395014307E+02  0.00000000000E+00 0.  1.
         11    1    1    2    0    0 -0.52630728079E+02  0.16196376160E+03 -0.37768602722E+03  0.41430542932E+03  0.00000000000E+00 0. -1.
        -15    1    3    3    0    0  0.36105019891E+02 -0.18086067482E+03  0.21063364614E+03  0.27997115346E+03  0.17770000000E+01 0.  1.
         15    1    3    3    0    0  0.17080386340E+02 -0.66666685977E+02  0.20191498989E+03  0.21332840291E+03  0.17770000000E+01 0. -1.
</event>
<event>
 7    1  0.2869211E-005  0.5195815E+03  0.7546771E-02  0.9357030E-01
        -11   -1    0    0    0    0  0.00000000000E+00  0.00000000000E+00  0.50000000000E+03  0.50000000000E+03  0.00000000000E+00 0.  1.
         11   -1    0    0    0    0 -0.00000000000E+00 -0.00000000000E+00 -0.50000000000E+03  0.50000000000E+03  0.00000000000E+00 0.  1.
         23    2    1    2    0    0  0.16188199924E+02  0.69880635840E+02 -0.46639178429E+03  0.48041849882E+03  0.90195767471E+02 0.  0.
        -11    1    1    2    0    0  0.20169068690E+02 -0.14410736880E+03  0.31836222788E+03  0.35004033084E+03  0.00000000000E+00 0.  1.
         11    1    1    2    0    0 -0.36357268613E+02  0.74226732963E+02  0.14802955641E+03  0.16954117034E+03  0.00000000000E+00 0.  1.
        -15    1    3    3    0    0  0.43094107293E+02  0.64684417643E+02 -0.41430309695E+03  0.42153456542E+03  0.17770000000E+01 0.  1.
         15    1    3    3    0    0 -0.26905907369E+02  0.51962181970E+01 -0.52088687343E+02  0.58883933403E+02  0.17770000000E+01 0. -1.
</event>
<event>
 7    1  0.2869211E-005  0.5041194E+03  0.7546771E-02  0.9390639E-01
        -11   -1    0    0    0    0  0.00000000000E+00  0.00000000000E+00  0.50000000000E+03  0.50000000000E+03  0.00000000000E+00 0. -1.
         11   -1    0    0    0    0 -0.00000000000E+00 -0.00000000000E+00 -0.50000000000E+03  0.50000000000E+03  0.00000000000E+00 0.  1.
         23    2    1    2    0    0 -0.24560825110E+02  0.78442890214E+01 -0.49513240490E+03  0.50411935151E+03  0.91189117659E+02 0.  0.
        -11    1    1    2    0    0  0.18851410403E+02 -0.62148455772E+01  0.43582523299E+03  0.43627701485E+03  0.00000000000E+00 0. -1.
         11    1    1    2    0    0  0.57094147072E+01 -0.16294434442E+01  0.59307171919E+02  0.59603633641E+02  0.00000000000E+00 0.  1.
        -15    1    3    3    0    0  0.17866365128E+02  0.18431735816E+02 -0.44786544365E+02  0.51651990990E+02  0.17770000000E+01 0. -1.
         15    1    3    3    0    0 -0.42427190238E+02 -0.10587446795E+02 -0.45034586054E+03  0.45246736052E+03  0.17770000000E+01 0.  1.
</event>
<event>
 7    1  0.2869211E-005  0.5049451E+03  0.7546771E-02  0.9388812E-01
        -11   -1    0    0    0    0  0.00000000000E+00  0.00000000000E+00  0.50000000000E+03  0.50000000000E+03  0.00000000000E+00 0. -1.
         11   -1    0    0    0    0 -0.00000000000E+00 -0.00000000000E+00 -0.50000000000E+03  0.50000000000E+03  0.00000000000E+00 0.  1.
         23    2    1    2    0    0  0.21486688630E+02  0.35042478749E+02 -0.49310497894E+03  0.50494510538E+03  0.10063491484E+03 0.  0.
        -11    1    1    2    0    0 -0.16243931233E+02 -0.14095193315E+02  0.29298525432E+03  0.29377355059E+03  0.00000000000E+00 0. -1.
         11    1    1    2    0    0 -0.52427573970E+01 -0.20947285434E+02  0.20011972462E+03  0.20128134403E+03  0.00000000000E+00 0.  1.
        -15    1    3    3    0    0  0.37103574399E+02  0.39684823702E+02 -0.12297957527E+03  0.13445703451E+03  0.17770000000E+01 0. -1.
         15    1    3    3    0    0 -0.15616885770E+02 -0.46423449529E+01 -0.37012540367E+03  0.37048807087E+03  0.17770000000E+01 0.  1.
</event>
<event>
 7    1  0.2869211E-005  0.5040679E+03  0.7546771E-02  0.9390753E-01
        -11   -1    0    0    0    0  0.00000000000E+00  0.00000000000E+00  0.50000000000E+03  0.50000000000E+03  0.00000000000E+00 0.  1.
         11   -1    0    0    0    0 -0.00000000000E+00 -0.00000000000E+00 -0.50000000000E+03  0.50000000000E+03  0.00000000000E+00 0. -1.
         23    2    1    2    0    0  0.88644383628E+01 -0.18294853599E+02 -0.49521128675E+03  0.50406787593E+03  0.91852735878E+02 0.  0.
        -11    1    1    2    0    0 -0.98480340055E+01  0.12993302879E+02  0.46186858779E+03  0.46215625288E+03  0.00000000000E+00 0.  1.
         11    1    1    2    0    0  0.98359564267E+00  0.53015507206E+01  0.33342698958E+02  0.33775871183E+02  0.00000000000E+00 0. -1.
        -15    1    3    3    0    0  0.15569792030E+02  0.14883093584E+02 -0.26784931623E+02  0.34416786450E+02  0.17770000000E+01 0.  1.
         15    1    3    3    0    0 -0.67053536673E+01 -0.33177947183E+02 -0.46842635512E+03  0.46965108948E+03  0.17770000000E+01 0. -1.
</event>
