<event>
 7    1  0.1250343E-004  0.1471202E+03  0.7546771E-02  0.1100726E+00
        -11   -1    0    0    0    0  0.00000000000E+00  0.00000000000E+00  0.18250000000E+03  0.18250000000E+03  0.00000000000E+00 0.  1.
         11   -1    0    0    0    0 -0.00000000000E+00 -0.00000000000E+00 -0.18250000000E+03  0.18250000000E+03  0.00000000000E+00 0.  1.
         23    2    1    2    0    0 -0.34118704043E+02  0.46999856272E+02  0.58239602520E+02  0.12657987579E+03  0.96216117138E+02 0.  0.
        -11    1    1    2    0    0  0.17673405763E+02 -0.23041467673E+02  0.86265580077E+02  0.91022023762E+02  0.00000000000E+00 0.  1.
         11    1    1    2    0    0  0.16445298280E+02 -0.23958388599E+02 -0.14450518260E+03  0.14739810045E+03  0.00000000000E+00 0.  1.
        -15    1    3    3    0    0 -0.41754622129E+02  0.31910608467E+02 -0.12314963919E+02  0.54005105936E+02  0.17770000000E+01 0. -1.
         15    1    3    3    0    0  0.76359180860E+01  0.15089247804E+02  0.70554566439E+02  0.72574769849E+02  0.17770000000E+01 0.  1.
</event>
<event>
 7    1  0.1250343E-004  0.1929564E+03  0.7546771E-02  0.1060423E+00
        -11   -1    0    0    0    0  0.00000000000E+00  0.00000000000E+00  0.18250000000E+03  0.18250000000E+03  0.00000000000E+00 0. -1.
         11   -1    0    0    0    0 -0.00000000000E+00 -0.00000000000E+00 -0.18250000000E+03  0.18250000000E+03  0.00000000000E+00 0. -1.
         23    2    1    2    0    0  0.62184954074E+01 -0.15126194092E+01 -0.17189674296E+03  0.19295642988E+03  0.87422742400E+02 0.  0.
        -11    1    1    2    0    0 -0.22811655771E+01 -0.70579114754E+00  0.80184685960E+02  0.80220232610E+02  0.00000000000E+00 0. -1.
         11    1    1    2    0    0 -0.39373298303E+01  0.22184105567E+01  0.91712057003E+02  0.91823337509E+02  0.00000000000E+00 0. -1.
        -15    1    3    3    0    0  0.24976676990E+02 -0.37594917323E+02 -0.70915789274E+02  0.84079837651E+02  0.17770000000E+01 0. -1.
         15    1    3    3    0    0 -0.18758181582E+02  0.36082297914E+02 -0.10098095369E+03  0.10887659223E+03  0.17770000000E+01 0.  1.
</event>
<event>
 7    1  0.1250343E-004  0.1936413E+03  0.7546771E-02  0.1059917E+00
        -11   -1    0    0    0    0  0.00000000000E+00  0.00000000000E+00  0.18250000000E+03  0.18250000000E+03  0.00000000000E+00 0. -1.
         11   -1    0    0    0    0 -0.00000000000E+00 -0.00000000000E+00 -0.18250000000E+03  0.18250000000E+03  0.00000000000E+00 0.  1.
         23    2    1    2    0    0  0.36477565579E+01  0.21365672643E+01 -0.17099973395E+03  0.19364128134E+03  0.90764342013E+02 0.  0.
        -11    1    1    2    0    0  0.23389045841E+01 -0.70649257071E+00  0.12335460112E+02  0.12575101692E+02  0.00000000000E+00 0.  1.
         11    1    1    2    0    0 -0.59866611420E+01 -0.14300746936E+01  0.15866427384E+03  0.15878361697E+03  0.00000000000E+00 0. -1.
        -15    1    3    3    0    0 -0.11581212661E+02 -0.17363432238E+02 -0.16724646681E+03  0.16855311227E+03  0.17770000000E+01 0.  1.
         15    1    3    3    0    0  0.15228969219E+02  0.19499999503E+02 -0.37532671357E+01  0.25088169070E+02  0.17770000000E+01 0. -1.
</event>
<event>
 7    1  0.1250343E-004  0.1941342E+03  0.7546771E-02  0.1059554E+00
        -11   -1    0    0    0    0  0.00000000000E+00  0.00000000000E+00  0.18250000000E+03  0.18250000000E+03  0.00000000000E+00 0.  1.
         11   -1    0    0    0    0 -0.00000000000E+00 -0.00000000000E+00 -0.18250000000E+03  0.18250000000E+03  0.00000000000E+00 0. -1.
         23    2    1    2    0    0 -0.22123312439E+01  0.26319151521E+01 -0.17082443689E+03  0.19413422618E+03  0.92169887433E+02 0.  0.
        -11    1    1    2    0    0  0.77802627048E+00 -0.15087568282E+01  0.11273069716E+03  0.11274347766E+03  0.00000000000E+00 0.  1.
         11    1    1    2    0    0  0.14343049734E+01 -0.11231583239E+01  0.58093739728E+02  0.58122296161E+02  0.00000000000E+00 0. -1.
        -15    1    3    3    0    0  0.24029626094E+02  0.37824211745E+02 -0.59919532288E+02  0.74843850803E+02  0.17770000000E+01 0.  1.
         15    1    3    3    0    0 -0.26241957338E+02 -0.35192296593E+02 -0.11090490460E+03  0.11929037538E+03  0.17770000000E+01 0. -1.
</event>
<event>
 7    1  0.1250343E-004  0.1934982E+03  0.7546771E-02  0.1060022E+00
        -11   -1    0    0    0    0  0.00000000000E+00  0.00000000000E+00  0.18250000000E+03  0.18250000000E+03  0.00000000000E+00 0.  1.
         11   -1    0    0    0    0 -0.00000000000E+00 -0.00000000000E+00 -0.18250000000E+03  0.18250000000E+03  0.00000000000E+00 0.  1.
         23    2    1    2    0    0 -0.33583499872E+01  0.65835518795E+01 -0.17078078526E+03  0.19349822663E+03  0.90668988223E+02 0.  0.
        -11    1    1    2    0    0 -0.30127703491E+01 -0.18832512749E+01  0.11783548725E+02  0.12307535948E+02  0.00000000000E+00 0.  1.
         11    1    1    2    0    0  0.63711203363E+01 -0.47003006046E+01  0.15899723654E+03  0.15919423742E+03  0.00000000000E+00 0.  1.
        -15    1    3    3    0    0 -0.10314070016E+02 -0.87658765150E+00  0.87494870635E+01  0.13669663459E+02  0.17770000000E+01 0. -1.
         15    1    3    3    0    0  0.69557200283E+01  0.74601395310E+01 -0.17953027233E+03  0.17982856318E+03  0.17770000000E+01 0.  1.
</event>
<event>
 7    1  0.1250343E-004  0.1873382E+03  0.7546771E-02  0.1064668E+00
        -11   -1    0    0    0    0  0.00000000000E+00  0.00000000000E+00  0.18250000000E+03  0.18250000000E+03  0.00000000000E+00 0. -1.
         11   -1    0    0    0    0 -0.00000000000E+00 -0.00000000000E+00 -0.18250000000E+03  0.18250000000E+03  0.00000000000E+00 0.  1.
         23    2    1    2    0    0 -0.56307153527E+01  0.11108504205E+03  0.13659315928E+03  0.18733821632E+03  0.63767739537E+02 0.  0.
        -11    1    1    2    0    0 -0.51695970284E+01 -0.85602234019E+02 -0.10732913311E+03  0.13738271367E+03  0.00000000000E+00 0.  1.
         11    1    1    2    0    0  0.10800312381E+02 -0.25482808034E+02 -0.29264026176E+02  0.40279070010E+02  0.00000000000E+00 0. -1.
        -15    1    3    3    0    0  0.10886819709E+02  0.47641779368E+02  0.18553574185E+02  0.52303487731E+02  0.17770000000E+01 0.  1.
         15    1    3    3    0    0 -0.16517535061E+02  0.63443262685E+02  0.11803958510E+03  0.13503472859E+03  0.17770000000E+01 0. -1.
</event>
<event>
 7    1  0.1250343E-004  0.1935030E+03  0.7546771E-02  0.1060019E+00
        -11   -1    0    0    0    0  0.00000000000E+00  0.00000000000E+00  0.18250000000E+03  0.18250000000E+03  0.00000000000E+00 0. -1.
         11   -1    0    0    0    0 -0.00000000000E+00 -0.00000000000E+00 -0.18250000000E+03  0.18250000000E+03  0.00000000000E+00 0. -1.
         23    2    1    2    0    0  0.34892078018E+01  0.62378706807E+00 -0.17096790338E+03  0.19350303657E+03  0.90558475540E+02 0.  0.
        -11    1    1    2    0    0 -0.66706411861E+01 -0.96384965438E+00  0.15787437017E+03  0.15801817369E+03  0.00000000000E+00 0. -1.
         11    1    1    2    0    0  0.31814333842E+01  0.34006258632E+00  0.13093533210E+02  0.13478789740E+02  0.00000000000E+00 0. -1.
        -15    1    3    3    0    0 -0.17241195987E+02 -0.40721333589E+02 -0.79359819289E+02  0.90865969950E+02  0.17770000000E+01 0.  1.
         15    1    3    3    0    0  0.20730403789E+02  0.41345120657E+02 -0.91608084093E+02  0.10263706662E+03  0.17770000000E+01 0. -1.
</event>
<event>
 7    1  0.1381295E-004  0.1937739E+03  0.7546771E-02  0.1059819E+00
        -11   -1    0    0    0    0  0.00000000000E+00  0.00000000000E+00  0.18250000000E+03  0.18250000000E+03  0.00000000000E+00 0.  1.
         11   -1    0    0    0    0 -0.00000000000E+00 -0.00000000000E+00 -0.18250000000E+03  0.18250000000E+03  0.00000000000E+00 0. -1.
         23    2    1    2    0    0 -0.10822140970E+02  0.25638585308E+01  0.17081011243E+03  0.19377388041E+03  0.90821418806E+02 0.  0.
        -11    1    1    2    0    0  0.87087901939E+01 -0.24524237831E+00 -0.13375481788E+03  0.13403825751E+03  0.00000000000E+00 0. -1.
         11    1    1    2    0    0  0.21133507759E+01 -0.23186161525E+01 -0.37055294549E+02  0.37187862085E+02  0.00000000000E+00 0.  1.
        -15    1    3    3    0    0 -0.22753029109E+02 -0.29706875322E+02  0.14748682485E+03  0.15217003650E+03  0.17770000000E+01 0.  1.
         15    1    3    3    0    0  0.11930888139E+02  0.32270733853E+02  0.23323287575E+02  0.41603843903E+02  0.17770000000E+01 0. -1.
</event>
<event>
 7    1  0.1250343E-004  0.1944263E+03  0.7546771E-02  0.1059339E+00
        -11   -1    0    0    0    0  0.00000000000E+00  0.00000000000E+00  0.18250000000E+03  0.18250000000E+03  0.00000000000E+00 0. -1.
         11   -1    0    0    0    0 -0.00000000000E+00 -0.00000000000E+00 -0.18250000000E+03  0.18250000000E+03  0.00000000000E+00 0.  1.
         23    2    1    2    0    0  0.43910514011E+02 -0.38855769215E+01 -0.16245223677E+03  0.19442627839E+03  0.97301683185E+02 0.  0.
        -11    1    1    2    0    0 -0.30999679249E+02  0.67077283822E+01  0.14632620773E+03  0.14972418910E+03  0.00000000000E+00 0. -1.
         11    1    1    2    0    0 -0.12910834762E+02 -0.28221514607E+01  0.16126029042E+02  0.20849532508E+02  0.00000000000E+00 0.  1.
        -15    1    3    3    0    0 -0.38073334488E+01 -0.56327556569E+01  0.11804053414E+02  0.13737435361E+02  0.17770000000E+01 0. -1.
         15    1    3    3    0    0  0.47717847460E+02  0.17471787353E+01 -0.17425629018E+03  0.18068884303E+03  0.17770000000E+01 0.  1.
</event>
<event>
 7    1  0.1250343E-004  0.1591981E+03  0.7546771E-02  0.1088682E+00
        -11   -1    0    0    0    0  0.00000000000E+00  0.00000000000E+00  0.18250000000E+03  0.18250000000E+03  0.00000000000E+00 0.  1.
         11   -1    0    0    0    0 -0.00000000000E+00 -0.00000000000E+00 -0.18250000000E+03  0.18250000000E+03  0.00000000000E+00 0. -1.
         23    2    1    2    0    0  0.90799701250E+02  0.34012844471E+02 -0.60146487208E+02  0.14657305549E+03  0.92003268068E+02 0.  0.
        -11    1    1    2    0    0  0.55767827159E+02 -0.83800319259E+01  0.37984715121E+02  0.67993485452E+02  0.00000000000E+00 0. -1.
         11    1    1    2    0    0 -0.14656752841E+03 -0.25632812545E+02  0.22161772087E+02  0.15043345906E+03  0.00000000000E+00 0.  1.
        -15    1    3    3    0    0  0.15156703480E+01 -0.10495206604E+02 -0.44248275011E+02  0.45535856077E+02  0.17770000000E+01 0. -1.
         15    1    3    3    0    0  0.89284030902E+02  0.44508051075E+02 -0.15898212197E+02  0.10103719941E+03  0.17770000000E+01 0.  1.
</event>
<event>
 7    1  0.1250343E-004  0.1933694E+03  0.7546771E-02  0.1060118E+00
        -11   -1    0    0    0    0  0.00000000000E+00  0.00000000000E+00  0.18250000000E+03  0.18250000000E+03  0.00000000000E+00 0. -1.
         11   -1    0    0    0    0 -0.00000000000E+00 -0.00000000000E+00 -0.18250000000E+03  0.18250000000E+03  0.00000000000E+00 0. -1.
         23    2    1    2    0    0 -0.12219268812E+02  0.63957717164E+01 -0.17098444993E+03  0.19336938131E+03  0.89251437437E+02 0.  0.
        -11    1    1    2    0    0 -0.79290849815E-01  0.59073018109E+00  0.35404359075E+01  0.35902556456E+01  0.00000000000E+00 0. -1.
         11    1    1    2    0    0  0.12298559662E+02 -0.69865018975E+01  0.16744401402E+03  0.16804036304E+03  0.00000000000E+00 0. -1.
        -15    1    3    3    0    0  0.96453904452E+01  0.44551725122E+02 -0.98839860484E+02  0.10885938415E+03  0.17770000000E+01 0. -1.
         15    1    3    3    0    0 -0.21864659257E+02 -0.38155953405E+02 -0.72144589448E+02  0.84509997162E+02  0.17770000000E+01 0.  1.
</event>
<event>
 7    1  0.1250343E-004  0.1937592E+03  0.7546771E-02  0.1059830E+00
        -11   -1    0    0    0    0  0.00000000000E+00  0.00000000000E+00  0.18250000000E+03  0.18250000000E+03  0.00000000000E+00 0.  1.
         11   -1    0    0    0    0 -0.00000000000E+00 -0.00000000000E+00 -0.18250000000E+03  0.18250000000E+03  0.00000000000E+00 0. -1.
         23    2    1    2    0    0 -0.17972162363E+02 -0.84040480940E+01  0.17001317400E+03  0.19375922971E+03  0.90799411437E+02 0.  0.
        -11    1    1    2    0    0  0.14432487171E+02  0.43588136984E+01 -0.12228482686E+03  0.12321069281E+03  0.00000000000E+00 0. -1.
         11    1    1    2    0    0  0.35396751921E+01  0.40452343956E+01 -0.47728347142E+02  0.48030077480E+02  0.00000000000E+00 0.  1.
        -15    1    3    3    0    0 -0.14108458724E+02  0.21112691427E+02  0.16042833976E+03  0.16243523101E+03  0.17770000000E+01 0.  1.
         15    1    3    3    0    0 -0.38637036395E+01 -0.29516739521E+02  0.95848342455E+01  0.31323998696E+02  0.17770000000E+01 0. -1.
</event>
<event>
 7    1  0.1250343E-004  0.1883359E+03  0.7546771E-02  0.1063902E+00
        -11   -1    0    0    0    0  0.00000000000E+00  0.00000000000E+00  0.18250000000E+03  0.18250000000E+03  0.00000000000E+00 0.  1.
         11   -1    0    0    0    0 -0.00000000000E+00 -0.00000000000E+00 -0.18250000000E+03  0.18250000000E+03  0.00000000000E+00 0. -1.
         23    2    1    2    0    0  0.11471028456E+02  0.24660790701E+02 -0.15755678561E+03  0.18631181150E+03  0.95646282319E+02 0.  0.
        -11    1    1    2    0    0 -0.24138520596E+02 -0.19823049874E+02  0.16155849240E+03  0.16455019887E+03  0.00000000000E+00 0.  1.
         11    1    1    2    0    0  0.12667492140E+02 -0.48377408270E+01 -0.40017067837E+01  0.14137989624E+02  0.00000000000E+00 0. -1.
        -15    1    3    3    0    0 -0.14826978625E+02  0.37804939494E+02 -0.19380518356E+02  0.45031266538E+02  0.17770000000E+01 0.  1.
         15    1    3    3    0    0  0.26298007080E+02 -0.13144148793E+02 -0.13817626726E+03  0.14128054497E+03  0.17770000000E+01 0. -1.
</event>
<event>
 7    1  0.1250343E-004  0.1925941E+03  0.7546771E-02  0.1060692E+00
        -11   -1    0    0    0    0  0.00000000000E+00  0.00000000000E+00  0.18250000000E+03  0.18250000000E+03  0.00000000000E+00 0.  1.
         11   -1    0    0    0    0 -0.00000000000E+00 -0.00000000000E+00 -0.18250000000E+03  0.18250000000E+03  0.00000000000E+00 0.  1.
         23    2    1    2    0    0 -0.70012957770E+02  0.54764840657E+01  0.15409190740E+03  0.19259411055E+03  0.91740772603E+02 0.  0.
        -11    1    1    2    0    0  0.71134094847E+01 -0.12140961422E+02 -0.27365159693E+02  0.30771017269E+02  0.00000000000E+00 0.  1.
         11    1    1    2    0    0  0.62899548285E+02  0.66644773566E+01 -0.12672674771E+03  0.14163487218E+03  0.00000000000E+00 0.  1.
        -15    1    3    3    0    0 -0.50936274610E+02  0.42459455081E+02  0.12587526488E+03  0.14228509913E+03  0.17770000000E+01 0.  1.
         15    1    3    3    0    0 -0.19076683160E+02 -0.36982971016E+02  0.28216642519E+02  0.50309011416E+02  0.17770000000E+01 0. -1.
</event>
<event>
 7    1  0.1250343E-004  0.1937672E+03  0.7546771E-02  0.1059824E+00
        -11   -1    0    0    0    0  0.00000000000E+00  0.00000000000E+00  0.18250000000E+03  0.18250000000E+03  0.00000000000E+00 0. -1.
         11   -1    0    0    0    0 -0.00000000000E+00 -0.00000000000E+00 -0.18250000000E+03  0.18250000000E+03  0.00000000000E+00 0.  1.
         23    2    1    2    0    0 -0.36161592878E+01  0.50443561314E+00 -0.17117141695E+03  0.19376720066E+03  0.90734464278E+02 0.  0.
        -11    1    1    2    0    0  0.47602507358E+00  0.73302699483E+00  0.15372265126E+02  0.15397092697E+02  0.00000000000E+00 0.  1.
         11    1    1    2    0    0  0.31401342142E+01 -0.12374626080E+01  0.15579915182E+03  0.15583570664E+03  0.00000000000E+00 0. -1.
        -15    1    3    3    0    0  0.53110319240E+01  0.27098241376E+02 -0.16178301980E+03  0.16413233980E+03  0.17770000000E+01 0.  1.
         15    1    3    3    0    0 -0.89271912118E+01 -0.26593805763E+02 -0.93883971526E+01  0.29634860856E+02  0.17770000000E+01 0. -1.
</event>
<event>
 7    1  0.1250343E-004  0.1934481E+03  0.7546771E-02  0.1060059E+00
        -11   -1    0    0    0    0  0.00000000000E+00  0.00000000000E+00  0.18250000000E+03  0.18250000000E+03  0.00000000000E+00 0.  1.
         11   -1    0    0    0    0 -0.00000000000E+00 -0.00000000000E+00 -0.18250000000E+03  0.18250000000E+03  0.00000000000E+00 0.  1.
         23    2    1    2    0    0 -0.72385860054E+01 -0.13728503812E+02 -0.17027045908E+03  0.19344812747E+03  0.90494639865E+02 0.  0.
        -11    1    1    2    0    0  0.93336956720E+01  0.48368478256E+01  0.60909101023E+02  0.61809639695E+02  0.00000000000E+00 0.  1.
         11    1    1    2    0    0 -0.20951096665E+01  0.88916559861E+01  0.10936135806E+03  0.10974223283E+03  0.00000000000E+00 0.  1.
        -15    1    3    3    0    0 -0.23374551298E+02 -0.22976682769E+02 -0.17160627314E+03  0.17471739556E+03  0.17770000000E+01 0.  1.
         15    1    3    3    0    0  0.16135965292E+02  0.92481789569E+01  0.13358140641E+01  0.18730731917E+02  0.17770000000E+01 0. -1.
</event>
<event>
 7    1  0.1250343E-004  0.1625163E+03  0.7546771E-02  0.1085578E+00
        -11   -1    0    0    0    0  0.00000000000E+00  0.00000000000E+00  0.18250000000E+03  0.18250000000E+03  0.00000000000E+00 0. -1.
         11   -1    0    0    0    0 -0.00000000000E+00 -0.00000000000E+00 -0.18250000000E+03  0.18250000000E+03  0.00000000000E+00 0.  1.
         23    2    1    2    0    0  0.17387011693E+02 -0.11770474523E+03  0.10130385007E+03  0.18602822018E+03  0.10093222201E+03 0.  0.
        -11    1    1    2    0    0  0.96232042912E+01  0.56209361317E+02 -0.95918408727E+02  0.11159049912E+03  0.00000000000E+00 0.  1.
         11    1    1    2    0    0 -0.27010215984E+02  0.61495383917E+02 -0.53854413397E+01  0.67381280702E+02  0.00000000000E+00 0. -1.
        -15    1    3    3    0    0 -0.22087571966E+02 -0.96870803792E+02  0.10052417782E+03  0.14135091622E+03  0.17770000000E+01 0. -1.
         15    1    3    3    0    0  0.39474583659E+02 -0.20833941441E+02  0.77967224988E+00  0.44677303957E+02  0.17770000000E+01 0.  1.
</event>
<event>
 7    1  0.1250343E-004  0.1901702E+03  0.7546771E-02  0.1062508E+00
        -11   -1    0    0    0    0  0.00000000000E+00  0.00000000000E+00  0.18250000000E+03  0.18250000000E+03  0.00000000000E+00 0.  1.
         11   -1    0    0    0    0 -0.00000000000E+00 -0.00000000000E+00 -0.18250000000E+03  0.18250000000E+03  0.00000000000E+00 0.  1.
         23    2    1    2    0    0  0.10704665193E+03  0.39286763381E+02  0.12222162844E+03  0.19017022943E+03  0.90687122775E+02 0.  0.
        -11    1    1    2    0    0 -0.17206945892E+02  0.12507062953E+02 -0.19235066174E+02  0.28679145408E+02  0.00000000000E+00 0.  1.
         11    1    1    2    0    0 -0.89839706041E+02 -0.51793826334E+02 -0.10298656226E+03  0.14615062516E+03  0.00000000000E+00 0.  1.
        -15    1    3    3    0    0  0.70898308915E+01  0.98626687995E+01 -0.14024369211E+02  0.18638095361E+02  0.17770000000E+01 0. -1.
         15    1    3    3    0    0  0.99956821042E+02  0.29424094582E+02  0.13624599765E+03  0.17153213407E+03  0.17770000000E+01 0.  1.
</event>
<event>
 7    1  0.1250343E-004  0.1944858E+03  0.7546771E-02  0.1059295E+00
        -11   -1    0    0    0    0  0.00000000000E+00  0.00000000000E+00  0.18250000000E+03  0.18250000000E+03  0.00000000000E+00 0.  1.
         11   -1    0    0    0    0 -0.00000000000E+00 -0.00000000000E+00 -0.18250000000E+03  0.18250000000E+03  0.00000000000E+00 0.  1.
         23    2    1    2    0    0 -0.51676868529E+01  0.30533525677E-01 -0.16941248438E+03  0.19448577706E+03  0.95380405197E+02 0.  0.
        -11    1    1    2    0    0  0.63770026420E+01  0.81771778885E+01  0.11583200441E+03  0.11629525204E+03  0.00000000000E+00 0.  1.
         11    1    1    2    0    0 -0.12093157891E+01 -0.82077114142E+01  0.53580479969E+02  0.54218970897E+02  0.00000000000E+00 0.  1.
        -15    1    3    3    0    0  0.37649478630E+02  0.69641593427E+01 -0.30607189158E+02  0.49050387497E+02  0.17770000000E+01 0. -1.
         15    1    3    3    0    0 -0.42817165483E+02 -0.69336258170E+01 -0.13880529522E+03  0.14543538957E+03  0.17770000000E+01 0.  1.
</event>
<event>
 7    1  0.1250343E-004  0.1927621E+03  0.7546771E-02  0.1060568E+00
        -11   -1    0    0    0    0  0.00000000000E+00  0.00000000000E+00  0.18250000000E+03  0.18250000000E+03  0.00000000000E+00 0. -1.
         11   -1    0    0    0    0 -0.00000000000E+00 -0.00000000000E+00 -0.18250000000E+03  0.18250000000E+03  0.00000000000E+00 0. -1.
         23    2    1    2    0    0  0.16040021641E+02 -0.17161923567E+02  0.16828829612E+03  0.19276206459E+03  0.91018948680E+02 0.  0.
        -11    1    1    2    0    0 -0.13743327191E+02  0.24979063554E+02 -0.13295127362E+03  0.13597379826E+03  0.00000000000E+00 0. -1.
         11    1    1    2    0    0 -0.22966944503E+01 -0.78171399864E+01 -0.35337022508E+02  0.36264137143E+02  0.00000000000E+00 0. -1.
        -15    1    3    3    0    0  0.37010374431E+02  0.11623204398E+02  0.14514938342E+03  0.15025434414E+03  0.17770000000E+01 0. -1.
         15    1    3    3    0    0 -0.20970352790E+02 -0.28785127965E+02  0.23138912704E+02  0.42507720455E+02  0.17770000000E+01 0.  1.
</event>
<event>
 7    1  0.1250343E-004  0.1941708E+03  0.7546771E-02  0.1059527E+00
        -11   -1    0    0    0    0  0.00000000000E+00  0.00000000000E+00  0.18250000000E+03  0.18250000000E+03  0.00000000000E+00 0. -1.
         11   -1    0    0    0    0 -0.00000000000E+00 -0.00000000000E+00 -0.18250000000E+03  0.18250000000E+03  0.00000000000E+00 0.  1.
         23    2    1    2    0    0 -0.13121109094E+01  0.27756168882E+01 -0.17079751352E+03  0.19417084666E+03  0.92309811968E+02 0.  0.
        -11    1    1    2    0    0  0.34973650754E+00 -0.87928725256E+00  0.28397712370E+02  0.28413474437E+02  0.00000000000E+00 0.  1.
         11    1    1    2    0    0  0.96237440183E+00 -0.18963296357E+01  0.14239980115E+03  0.14241567890E+03  0.00000000000E+00 0. -1.
        -15    1    3    3    0    0 -0.34918379559E+02  0.90170170036E+01 -0.23810853933E+02  0.43251755117E+02  0.17770000000E+01 0. -1.
         15    1    3    3    0    0  0.33606268650E+02 -0.62414001154E+01 -0.14698665958E+03  0.15091909154E+03  0.17770000000E+01 0.  1.
</event>
<event>
 7    1  0.1250343E-004  0.1890499E+03  0.7546771E-02  0.1063357E+00
        -11   -1    0    0    0    0  0.00000000000E+00  0.00000000000E+00  0.18250000000E+03  0.18250000000E+03  0.00000000000E+00 0. -1.
         11   -1    0    0    0    0 -0.00000000000E+00 -0.00000000000E+00 -0.18250000000E+03  0.18250000000E+03  0.00000000000E+00 0.  1.
         23    2    1    2    0    0 -0.15012802899E+03  0.63906827322E+02 -0.53914995853E+02  0.19042298885E+03  0.82046207950E+02 0.  0.
        -11    1    1    2    0    0  0.14699185496E+03 -0.60651270787E+02  0.57200867291E+02  0.16898852414E+03  0.00000000000E+00 0. -1.
         11    1    1    2    0    0  0.31361740362E+01 -0.32555565355E+01 -0.32858714380E+01  0.55884870088E+01  0.00000000000E+00 0.  1.
        -15    1    3    3    0    0 -0.89500087075E+02  0.66130635413E+02 -0.64762236674E+02  0.12876657779E+03  0.17770000000E+01 0.  1.
         15    1    3    3    0    0 -0.60627941916E+02 -0.22238080908E+01  0.10847240821E+02  0.61656411068E+02  0.17770000000E+01 0. -1.
</event>
<event>
 7    1  0.1250343E-004  0.1940528E+03  0.7546771E-02  0.1059613E+00
        -11   -1    0    0    0    0  0.00000000000E+00  0.00000000000E+00  0.18250000000E+03  0.18250000000E+03  0.00000000000E+00 0. -1.
         11   -1    0    0    0    0 -0.00000000000E+00 -0.00000000000E+00 -0.18250000000E+03  0.18250000000E+03  0.00000000000E+00 0. -1.
         23    2    1    2    0    0  0.12393676744E+01 -0.32071881533E+01 -0.17073734033E+03  0.19405280635E+03  0.92159807841E+02 0.  0.
        -11    1    1    2    0    0  0.76676063837E+00  0.43579975451E+01  0.52176209544E+02  0.52363507397E+02  0.00000000000E+00 0. -1.
         11    1    1    2    0    0 -0.20061283128E+01 -0.11508093917E+01  0.11856113078E+03  0.11858368625E+03  0.00000000000E+00 0. -1.
        -15    1    3    3    0    0 -0.21029409919E+01  0.32494679621E+01 -0.18116617349E+03  0.18121622871E+03  0.17770000000E+01 0. -1.
         15    1    3    3    0    0  0.33423086663E+01 -0.64566561154E+01  0.10428833159E+02  0.12836577639E+02  0.17770000000E+01 0.  1.
</event>
<event>
 7    1  0.1250343E-004  0.1927408E+03  0.7546771E-02  0.1060583E+00
        -11   -1    0    0    0    0  0.00000000000E+00  0.00000000000E+00  0.18250000000E+03  0.18250000000E+03  0.00000000000E+00 0. -1.
         11   -1    0    0    0    0 -0.00000000000E+00 -0.00000000000E+00 -0.18250000000E+03  0.18250000000E+03  0.00000000000E+00 0.  1.
         23    2    1    2    0    0 -0.67687723035E+01 -0.58092234581E+02  0.16084103799E+03  0.19274080030E+03  0.88649041723E+02 0.  0.
        -11    1    1    2    0    0  0.25318267770E+01  0.86431771266E+01 -0.50132559146E+02  0.50935136636E+02  0.00000000000E+00 0. -1.
         11    1    1    2    0    0  0.42369455265E+01  0.49449057454E+02 -0.11070847885E+03  0.12132406307E+03  0.00000000000E+00 0.  1.
        -15    1    3    3    0    0 -0.24351752441E+02 -0.45512568146E+02  0.29213845473E+02  0.59338083914E+02  0.17770000000E+01 0.  1.
         15    1    3    3    0    0  0.17582980138E+02 -0.12579666434E+02  0.13162719252E+03  0.13340271638E+03  0.17770000000E+01 0. -1.
</event>
<event>
 7    1  0.1250343E-004  0.1927775E+03  0.7546771E-02  0.1060556E+00
        -11   -1    0    0    0    0  0.00000000000E+00  0.00000000000E+00  0.18250000000E+03  0.18250000000E+03  0.00000000000E+00 0.  1.
         11   -1    0    0    0    0 -0.00000000000E+00 -0.00000000000E+00 -0.18250000000E+03  0.18250000000E+03  0.00000000000E+00 0.  1.
         23    2    1    2    0    0 -0.10510407391E+02 -0.53630659045E+02  0.15982738578E+03  0.19277749155E+03  0.92906683014E+02 0.  0.
        -11    1    1    2    0    0 -0.60928421777E+00  0.52990937517E+02 -0.13374196157E+03  0.14385869098E+03  0.00000000000E+00 0.  1.
         11    1    1    2    0    0  0.11119691609E+02  0.63972152755E+00 -0.26085424215E+02  0.28363817472E+02  0.00000000000E+00 0.  1.
        -15    1    3    3    0    0 -0.28319623292E+02  0.18196086851E+02  0.52950200706E+02  0.62769260979E+02  0.17770000000E+01 0. -1.
         15    1    3    3    0    0  0.17809215900E+02 -0.71826745896E+02  0.10687718508E+03  0.13000823057E+03  0.17770000000E+01 0.  1.
</event>
<event>
 7    1  0.1250343E-004  0.1933145E+03  0.7546771E-02  0.1060158E+00
        -11   -1    0    0    0    0  0.00000000000E+00  0.00000000000E+00  0.18250000000E+03  0.18250000000E+03  0.00000000000E+00 0. -1.
         11   -1    0    0    0    0 -0.00000000000E+00 -0.00000000000E+00 -0.18250000000E+03  0.18250000000E+03  0.00000000000E+00 0. -1.
         23    2    1    2    0    0 -0.46341618640E+01 -0.83279648733E+01 -0.17037429416E+03  0.19331445214E+03  0.90841878240E+02 0.  0.
        -11    1    1    2    0    0 -0.66390991840E+01 -0.53432824920E+00  0.44202518678E+02  0.44701519014E+02  0.00000000000E+00 0. -1.
         11    1    1    2    0    0  0.11273261048E+02  0.88622931225E+01  0.12617177548E+03  0.12698402884E+03  0.00000000000E+00 0. -1.
        -15    1    3    3    0    0 -0.46780378845E+02  0.42000749160E+01 -0.79723468092E+02  0.92547466566E+02  0.17770000000E+01 0.  1.
         15    1    3    3    0    0  0.42146216980E+02 -0.12528039789E+02 -0.90650826065E+02  0.10076698558E+03  0.17770000000E+01 0. -1.
</event>
<event>
 7    1  0.1250343E-004  0.1931453E+03  0.7546771E-02  0.1060283E+00
        -11   -1    0    0    0    0  0.00000000000E+00  0.00000000000E+00  0.18250000000E+03  0.18250000000E+03  0.00000000000E+00 0.  1.
         11   -1    0    0    0    0 -0.00000000000E+00 -0.00000000000E+00 -0.18250000000E+03  0.18250000000E+03  0.00000000000E+00 0.  1.
         23    2    1    2    0    0 -0.28802221964E+01  0.29189584725E+02  0.16842228601E+03  0.19314525142E+03  0.89881556416E+02 0.  0.
        -11    1    1    2    0    0 -0.70217127696E+01 -0.17243642373E+02 -0.87649464862E+02  0.89605113376E+02  0.00000000000E+00 0.  1.
         11    1    1    2    0    0  0.99019349660E+01 -0.11945942352E+02 -0.80772821151E+02  0.82249635205E+02  0.00000000000E+00 0.  1.
        -15    1    3    3    0    0  0.66173376428E+01 -0.14603760386E+01 -0.98011851961E+01  0.12047523227E+02  0.17770000000E+01 0. -1.
         15    1    3    3    0    0 -0.94975598392E+01  0.30649960763E+02  0.17822347121E+03  0.18109772819E+03  0.17770000000E+01 0.  1.
</event>
<event>
 7    1  0.1250343E-004  0.1921906E+03  0.7546771E-02  0.1060992E+00
        -11   -1    0    0    0    0  0.00000000000E+00  0.00000000000E+00  0.18250000000E+03  0.18250000000E+03  0.00000000000E+00 0. -1.
         11   -1    0    0    0    0 -0.00000000000E+00 -0.00000000000E+00 -0.18250000000E+03  0.18250000000E+03  0.00000000000E+00 0.  1.
         23    2    1    2    0    0  0.30121242306E+01 -0.30509619775E+02  0.16675426422E+03  0.19219064761E+03  0.90500555802E+02 0.  0.
        -11    1    1    2    0    0  0.78181961050E+01  0.32541175779E+02 -0.13840563720E+03  0.14239442658E+03  0.00000000000E+00 0.  1.
         11    1    1    2    0    0 -0.10830320336E+02 -0.20315560042E+01 -0.28348627019E+02  0.30414925814E+02  0.00000000000E+00 0. -1.
        -15    1    3    3    0    0  0.10825331136E+02  0.19174507793E+02  0.48121835998E+01  0.22608944764E+02  0.17770000000E+01 0.  1.
         15    1    3    3    0    0 -0.78132069056E+01 -0.49684127568E+02  0.16194208062E+03  0.16958170284E+03  0.17770000000E+01 0. -1.
</event>
<event>
 7    1  0.1250343E-004  0.1885859E+03  0.7546771E-02  0.1063711E+00
        -11   -1    0    0    0    0  0.00000000000E+00  0.00000000000E+00  0.18250000000E+03  0.18250000000E+03  0.00000000000E+00 0.  1.
         11   -1    0    0    0    0 -0.00000000000E+00 -0.00000000000E+00 -0.18250000000E+03  0.18250000000E+03  0.00000000000E+00 0.  1.
         23    2    1    2    0    0 -0.23266501954E+02  0.17498265137E+02 -0.15954955826E+03  0.18858593935E+03  0.96234482291E+02 0.  0.
        -11    1    1    2    0    0  0.47965999587E+02 -0.72208449077E+01  0.10439784437E+03  0.11511640902E+03  0.00000000000E+00 0.  1.
         11    1    1    2    0    0 -0.24699497632E+02 -0.10277420229E+02  0.55151713895E+02  0.61297651630E+02  0.00000000000E+00 0.  1.
        -15    1    3    3    0    0  0.22273940145E+02 -0.25091036813E+02 -0.31059733164E+02  0.45755363524E+02  0.17770000000E+01 0. -1.
         15    1    3    3    0    0 -0.45540442100E+02  0.42589301950E+02 -0.12848982510E+03  0.14283057582E+03  0.17770000000E+01 0.  1.
</event>
<event>
 7    1  0.1250343E-004  0.1917091E+03  0.7546771E-02  0.1061352E+00
        -11   -1    0    0    0    0  0.00000000000E+00  0.00000000000E+00  0.18250000000E+03  0.18250000000E+03  0.00000000000E+00 0.  1.
         11   -1    0    0    0    0 -0.00000000000E+00 -0.00000000000E+00 -0.18250000000E+03  0.18250000000E+03  0.00000000000E+00 0. -1.
         23    2    1    2    0    0 -0.12755561780E+03  0.64934542887E+02 -0.90105070267E+02  0.19170914497E+03  0.90258196771E+02 0.  0.
        -11    1    1    2    0    0  0.10024665498E+03 -0.66585584763E+02  0.68871971807E+02  0.13865922412E+03  0.00000000000E+00 0. -1.
         11    1    1    2    0    0  0.27308962815E+02  0.16510418758E+01  0.21233098461E+02  0.34631630911E+02  0.00000000000E+00 0.  1.
        -15    1    3    3    0    0 -0.61960203566E+02 -0.11986545022E+02 -0.57717675881E+02  0.85540820230E+02  0.17770000000E+01 0. -1.
         15    1    3    3    0    0 -0.65595414232E+02  0.76921087909E+02 -0.32387394387E+02  0.10616832474E+03  0.17770000000E+01 0.  1.
</event>
<event>
 7    1  0.1250343E-004  0.1785481E+03  0.7546771E-02  0.1071645E+00
        -11   -1    0    0    0    0  0.00000000000E+00  0.00000000000E+00  0.18250000000E+03  0.18250000000E+03  0.00000000000E+00 0. -1.
         11   -1    0    0    0    0 -0.00000000000E+00 -0.00000000000E+00 -0.18250000000E+03  0.18250000000E+03  0.00000000000E+00 0.  1.
         23    2    1    2    0    0 -0.23804058168E+02  0.33012773273E+02 -0.15372701991E+03  0.18375076355E+03  0.92064488659E+02 0.  0.
        -11    1    1    2    0    0 -0.24027824544E+02 -0.16322774529E+02  0.13269760477E+02  0.31935182225E+02  0.00000000000E+00 0.  1.
         11    1    1    2    0    0  0.47831882712E+02 -0.16689998743E+02  0.14045725943E+03  0.14931405422E+03  0.00000000000E+00 0. -1.
        -15    1    3    3    0    0 -0.19542654096E+02  0.20546494383E+02  0.10235421472E+01  0.28430250229E+02  0.17770000000E+01 0. -1.
         15    1    3    3    0    0 -0.42614040720E+01  0.12466278890E+02 -0.15475056205E+03  0.15532051332E+03  0.17770000000E+01 0.  1.
</event>
<event>
 7    1  0.1250343E-004  0.1617047E+03  0.7546771E-02  0.1086329E+00
        -11   -1    0    0    0    0  0.00000000000E+00  0.00000000000E+00  0.18250000000E+03  0.18250000000E+03  0.00000000000E+00 0.  1.
         11   -1    0    0    0    0 -0.00000000000E+00 -0.00000000000E+00 -0.18250000000E+03  0.18250000000E+03  0.00000000000E+00 0.  1.
         23    2    1    2    0    0  0.19403222727E+02 -0.35168208634E+02 -0.14268821349E+03  0.17359303037E+03  0.90340057411E+02 0.  0.
        -11    1    1    2    0    0  0.43121136247E+02  0.33997573356E+02  0.30107053061E+02  0.62623494228E+02  0.00000000000E+00 0.  1.
         11    1    1    2    0    0 -0.62524358974E+02  0.11706352775E+01  0.11258116043E+03  0.12878347540E+03  0.00000000000E+00 0.  1.
        -15    1    3    3    0    0  0.48790255878E+02 -0.39457846162E+02 -0.12247308439E+03  0.13762348935E+03  0.17770000000E+01 0.  1.
         15    1    3    3    0    0 -0.29387033151E+02  0.42896375279E+01 -0.20215129103E+02  0.35969541020E+02  0.17770000000E+01 0. -1.
</event>
<event>
 7    1  0.1250343E-004  0.1939660E+03  0.7546771E-02  0.1059677E+00
        -11   -1    0    0    0    0  0.00000000000E+00  0.00000000000E+00  0.18250000000E+03  0.18250000000E+03  0.00000000000E+00 0.  1.
         11   -1    0    0    0    0 -0.00000000000E+00 -0.00000000000E+00 -0.18250000000E+03  0.18250000000E+03  0.00000000000E+00 0. -1.
         23    2    1    2    0    0 -0.36695700208E+01 -0.42329180037E+01 -0.17093669535E+03  0.19396597539E+03  0.91498975155E+02 0.  0.
        -11    1    1    2    0    0  0.16626618645E+01  0.21656496861E+01  0.10314662764E+03  0.10318275668E+03  0.00000000000E+00 0.  1.
         11    1    1    2    0    0  0.20069081563E+01  0.20672683175E+01  0.67790067714E+02  0.67851267927E+02  0.00000000000E+00 0. -1.
        -15    1    3    3    0    0  0.35557781645E+02 -0.25587814999E+02 -0.10981606084E+03  0.11824473375E+03  0.17770000000E+01 0.  1.
         15    1    3    3    0    0 -0.39227351666E+02  0.21354896995E+02 -0.61120634510E+02  0.75721241645E+02  0.17770000000E+01 0. -1.
</event>
<event>
 7    1  0.1250343E-004  0.1932205E+03  0.7546771E-02  0.1060228E+00
        -11   -1    0    0    0    0  0.00000000000E+00  0.00000000000E+00  0.18250000000E+03  0.18250000000E+03  0.00000000000E+00 0.  1.
         11   -1    0    0    0    0 -0.00000000000E+00 -0.00000000000E+00 -0.18250000000E+03  0.18250000000E+03  0.00000000000E+00 0.  1.
         23    2    1    2    0    0 -0.32761641491E+02 -0.15973606409E+02 -0.16731066372E+03  0.19322049635E+03  0.89514360640E+02 0.  0.
        -11    1    1    2    0    0 -0.91272614710E+00  0.10377136202E+01  0.21164485428E+01  0.25277011317E+01  0.00000000000E+00 0.  1.
         11    1    1    2    0    0  0.33674367638E+02  0.14935892788E+02  0.16519421517E+03  0.16925180252E+03  0.00000000000E+00 0.  1.
        -15    1    3    3    0    0 -0.11636635837E+02 -0.44318480862E+02 -0.14327816960E+03  0.15043713189E+03  0.17770000000E+01 0.  1.
         15    1    3    3    0    0 -0.21125005653E+02  0.28344874453E+02 -0.24032494118E+02  0.42783364456E+02  0.17770000000E+01 0. -1.
</event>
<event>
 7    1  0.1250343E-004  0.1931544E+03  0.7546771E-02  0.1060277E+00
        -11   -1    0    0    0    0  0.00000000000E+00  0.00000000000E+00  0.18250000000E+03  0.18250000000E+03  0.00000000000E+00 0.  1.
         11   -1    0    0    0    0 -0.00000000000E+00 -0.00000000000E+00 -0.18250000000E+03  0.18250000000E+03  0.00000000000E+00 0.  1.
         23    2    1    2    0    0  0.22784199522E+02 -0.27194243419E+02 -0.16685257092E+03  0.19315440711E+03  0.90610142595E+02 0.  0.
        -11    1    1    2    0    0 -0.12901404792E+02  0.21818681219E+02  0.14568929554E+03  0.14787789534E+03  0.00000000000E+00 0.  1.
         11    1    1    2    0    0 -0.98827947302E+01  0.53755622000E+01  0.21163275380E+02  0.23967697542E+02  0.00000000000E+00 0.  1.
        -15    1    3    3    0    0  0.49599417121E+02 -0.13306782722E+02 -0.47319990564E+02  0.69853502999E+02  0.17770000000E+01 0. -1.
         15    1    3    3    0    0 -0.26815217599E+02 -0.13887460697E+02 -0.11953258036E+03  0.12330090412E+03  0.17770000000E+01 0.  1.
</event>
<event>
 7    1  0.1250343E-004  0.1665731E+03  0.7546771E-02  0.1081890E+00
        -11   -1    0    0    0    0  0.00000000000E+00  0.00000000000E+00  0.18250000000E+03  0.18250000000E+03  0.00000000000E+00 0.  1.
         11   -1    0    0    0    0 -0.00000000000E+00 -0.00000000000E+00 -0.18250000000E+03  0.18250000000E+03  0.00000000000E+00 0. -1.
         23    2    1    2    0    0 -0.10039256559E+03 -0.16824942553E+02 -0.92590369884E+02  0.16421193275E+03  0.89614933715E+02 0.  0.
        -11    1    1    2    0    0  0.10891413802E+03 -0.35894319733E+02  0.92582437859E+02  0.14738452921E+03  0.00000000000E+00 0.  1.
         11    1    1    2    0    0 -0.85215724300E+01  0.52719262286E+02  0.79320249821E-02  0.53403538043E+02  0.00000000000E+00 0. -1.
        -15    1    3    3    0    0  0.38299805037E+01  0.19480147364E+02 -0.33576670964E+02  0.39047348873E+02  0.17770000000E+01 0.  1.
         15    1    3    3    0    0 -0.10422254609E+03 -0.36305089917E+02 -0.59013698920E+02  0.12516458388E+03  0.17770000000E+01 0. -1.
</event>
<event>
 7    1  0.1250343E-004  0.1984856E+03  0.7546771E-02  0.1056398E+00
        -11   -1    0    0    0    0  0.00000000000E+00  0.00000000000E+00  0.18250000000E+03  0.18250000000E+03  0.00000000000E+00 0.  1.
         11   -1    0    0    0    0 -0.00000000000E+00 -0.00000000000E+00 -0.18250000000E+03  0.18250000000E+03  0.00000000000E+00 0.  1.
         23    2    1    2    0    0 -0.18174693651E+02  0.17775866944E+01 -0.16502334334E+03  0.19848555171E+03  0.10876732547E+03 0.  0.
        -11    1    1    2    0    0  0.70099719579E+01 -0.12018553131E+01  0.23561798815E+02  0.24611837121E+02  0.00000000000E+00 0.  1.
         11    1    1    2    0    0  0.11164721693E+02 -0.57573138128E+00  0.14146154452E+03  0.14190261117E+03  0.00000000000E+00 0.  1.
        -15    1    3    3    0    0 -0.69055202839E+01 -0.48360559654E+02 -0.12204120488E+03  0.13146727105E+03  0.17770000000E+01 0. -1.
         15    1    3    3    0    0 -0.11269173367E+02  0.50138146348E+02 -0.42982138459E+02  0.67018280664E+02  0.17770000000E+01 0.  1.
</event>
<event>
 7    1  0.1250343E-004  0.1946973E+03  0.7546771E-02  0.1059140E+00
        -11   -1    0    0    0    0  0.00000000000E+00  0.00000000000E+00  0.18250000000E+03  0.18250000000E+03  0.00000000000E+00 0. -1.
         11   -1    0    0    0    0 -0.00000000000E+00 -0.00000000000E+00 -0.18250000000E+03  0.18250000000E+03  0.00000000000E+00 0.  1.
         23    2    1    2    0    0  0.24069787669E+01  0.80950169790E+01  0.17008350880E+03  0.19469732526E+03  0.94378629218E+02 0.  0.
        -11    1    1    2    0    0 -0.18338725448E-01 -0.29089429426E+01 -0.62788933331E+02  0.62856283968E+02  0.00000000000E+00 0. -1.
         11    1    1    2    0    0 -0.23886400415E+01 -0.51860740364E+01 -0.10729457547E+03  0.10744639077E+03  0.00000000000E+00 0.  1.
        -15    1    3    3    0    0 -0.25830645529E+02 -0.20844116377E+02  0.18999179123E+02  0.38286106780E+02  0.17770000000E+01 0.  1.
         15    1    3    3    0    0  0.28237624296E+02  0.28939133356E+02  0.15108432967E+03  0.15641121848E+03  0.17770000000E+01 0. -1.
</event>
<event>
 7    1  0.1250343E-004  0.1936445E+03  0.7546771E-02  0.1059914E+00
        -11   -1    0    0    0    0  0.00000000000E+00  0.00000000000E+00  0.18250000000E+03  0.18250000000E+03  0.00000000000E+00 0. -1.
         11   -1    0    0    0    0 -0.00000000000E+00 -0.00000000000E+00 -0.18250000000E+03  0.18250000000E+03  0.00000000000E+00 0.  1.
         23    2    1    2    0    0 -0.23728358283E+02 -0.58510049867E+02 -0.15908925694E+03  0.19364448017E+03  0.90566727350E+02 0.  0.
        -11    1    1    2    0    0  0.24202036144E+02  0.55240184559E+02  0.15225630466E+03  0.16376568277E+03  0.00000000000E+00 0. -1.
         11    1    1    2    0    0 -0.47367786113E+00  0.32698653084E+01  0.68329522818E+01  0.75898370692E+01  0.00000000000E+00 0.  1.
        -15    1    3    3    0    0 -0.57941549891E+02 -0.28354694696E+02 -0.99289102727E+02  0.11841746309E+03  0.17770000000E+01 0.  1.
         15    1    3    3    0    0  0.34213191608E+02 -0.30155355171E+02 -0.59800154212E+02  0.75227017077E+02  0.17770000000E+01 0. -1.
</event>
<event>
 7    1  0.1250343E-004  0.1929422E+03  0.7546771E-02  0.1060434E+00
        -11   -1    0    0    0    0  0.00000000000E+00  0.00000000000E+00  0.18250000000E+03  0.18250000000E+03  0.00000000000E+00 0.  1.
         11   -1    0    0    0    0 -0.00000000000E+00 -0.00000000000E+00 -0.18250000000E+03  0.18250000000E+03  0.00000000000E+00 0.  1.
         23    2    1    2    0    0 -0.47729956597E+02 -0.34777696751E+02  0.16022160254E+03  0.19294222531E+03  0.89822622093E+02 0.  0.
        -11    1    1    2    0    0  0.28910094320E+02  0.24666157644E+02 -0.73500089280E+02  0.82743434849E+02  0.00000000000E+00 0.  1.
         11    1    1    2    0    0  0.18819862276E+02  0.10111539107E+02 -0.86721513259E+02  0.89314339840E+02  0.00000000000E+00 0.  1.
        -15    1    3    3    0    0 -0.15986108612E+02 -0.47874144916E+02  0.14811379686E+03  0.15648752017E+03  0.17770000000E+01 0.  1.
         15    1    3    3    0    0 -0.31743847985E+02  0.13096448165E+02  0.12107805678E+02  0.36454705139E+02  0.17770000000E+01 0. -1.
</event>
<event>
 7    1  0.1250343E-004  0.1940468E+03  0.7546771E-02  0.1059618E+00
        -11   -1    0    0    0    0  0.00000000000E+00  0.00000000000E+00  0.18250000000E+03  0.18250000000E+03  0.00000000000E+00 0. -1.
         11   -1    0    0    0    0 -0.00000000000E+00 -0.00000000000E+00 -0.18250000000E+03  0.18250000000E+03  0.00000000000E+00 0. -1.
         23    2    1    2    0    0 -0.35340835880E+01  0.85838723551E+00 -0.17091147884E+03  0.19404681285E+03  0.91816150016E+02 0.  0.
        -11    1    1    2    0    0  0.27275941718E+01 -0.31545281030E+00  0.13815859485E+03  0.13818587703E+03  0.00000000000E+00 0. -1.
         11    1    1    2    0    0  0.80648941616E+00 -0.54293442521E+00  0.32752883986E+02  0.32767310118E+02  0.00000000000E+00 0. -1.
        -15    1    3    3    0    0 -0.11491213210E+02  0.43279483612E+02 -0.59016825319E+02  0.74103340562E+02  0.17770000000E+01 0.  1.
         15    1    3    3    0    0  0.79571296225E+01 -0.42421096376E+02 -0.11189465352E+03  0.11994347229E+03  0.17770000000E+01 0. -1.
</event>
